FOO
138240
    1MOL0     O    1  11.371   7.300   8.431 -0.1651 -0.9142  0.2583
    1MOL0     C    2  11.273   7.229   8.441  0.0730 -0.5245 -0.1166
    1MOL0     O    3  11.198   7.220   8.552  0.0515 -0.4303 -0.4741
    1MOL0     C    4  11.209   7.322   8.647  0.0159  0.5504  0.0413
    1MOL0     C    5  11.096   7.394   8.667 -0.0444 -0.3963  0.1019
    1MOL0     C    6  11.087   7.497   8.758  0.2114  0.1722 -0.4875
    1MOL0     C    7  11.201   7.518   8.842  0.4280 -0.5933  0.1551
    1MOL0     O    8  11.189   7.606   8.948  0.2106  0.2458  0.5899
    1MOL0     C    9  11.269   7.726   8.940 -0.3403  0.0393  0.2738
    1MOL0     C   10  11.215   7.844   8.861 -0.0922  0.1532  0.2456
    1MOL0     C   11  11.298   7.968   8.880  0.2986 -0.7639  0.4344
    1MOL0     C   12  11.262   8.084   8.777 -0.4596 -0.5004  0.5750
    1MOL0     C   13  11.380   8.184   8.769 -0.8076 -0.3789 -0.3161
    1MOL0     C   14  11.346   8.298   8.678  0.6192 -0.1294  0.0469
    1MOL0     C   15  11.270   8.414   8.748  0.1639  0.4287 -0.0393
    1MOL0     C   16  11.379   8.507   8.810  0.9252 -0.3743  0.2863
    1MOL0     N   17  11.336   8.651   8.823 -0.6268  0.3121 -0.6662
    1MOL0     C   18  11.272   8.700   8.934  0.1217 -0.2882  0.2053
    1MOL0     C   19  11.256   8.832   8.896  0.2378  0.9140  0.9938
    1MOL0     C   20  11.225   8.939   9.000  0.2824 -0.4255  0.0865
    1MOL0     C   21  11.103   8.918   9.084 -0.1282  0.1861  1.1752
    1MOL0     C   22  10.974   8.943   9.000 -0.3472  1.1362  0.1816
    1MOL0     C   23  10.836   8.915   9.063  0.9319 -0.6048 -1.1562
    1MOL0     O   24  10.744   8.879   8.964 -0.5395 -0.0150  0.8023
    1MOL0     C   25  10.682   8.968   8.880  1.0543  0.0977  1.0275
    1MOL0     C   26  10.629   8.943   8.750 -0.3043 -1.1833 -0.0876
    1MOL0     C   27  10.559   9.036   8.664  0.2174 -0.8723 -0.2398
    1MOL0     C   28  10.557   9.166   8.705  0.6666  0.4458  0.7838
    1MOL0     C   29  10.507   9.264   8.608 -0.0172  0.3025  1.2607
    1MOL0     O   30  10.521   9.242   8.478 -0.2911  0.0976 -0.7469
    1MOL0     C   31  10.468   9.328   8.380 -0.3453 -0.8215  0.0788
    1MOL0     C   32  10.355   9.409   8.392 -0.6902  0.2997  0.2022
    1MOL0     C   33  10.322   9.500   8.286 -0.0527  0.1137 -0.5452
    1MOL0     C   34  10.388   9.500   8.157 -0.6903  0.5511  0.2669
    1MOL0     O   35  10.355   9.577   8.055 -0.2156 -0.2788  0.2132
    1MOL0     C   36  10.232   9.551   7.981 -0.2893 -0.7625  0.4744
    1MOL0     C   37  10.256   9.429   7.886  0.9250  0.1641  1.3565
    1MOL0     C   38  10.131   9.431   7.785 -0.3758 -0.2179 -0.7382
    1MOL0     C   39  10.008   9.361   7.868  0.2465 -0.5151  0.1311
    1MOL0     C   40   9.894   9.285   7.785  0.3892 -0.4114  0.1996
    1MOL0     C   41   9.785   9.369   7.719  1.3211 -0.8883  0.2450
    1MOL0     C   42   9.838   9.470   7.610  0.1988 -0.1610 -0.0227
    1MOL0     C   43   9.920   9.406   7.498 -0.4034  0.4622  0.3989
    1MOL0    Cl   44   9.808   9.298   7.414 -0.4572 -0.1191 -0.0443
    1MOL0     C   45  10.491   9.399   8.138 -0.1824  0.3457 -0.6363
    1MOL0     C   46  10.530   9.322   8.250 -0.1330  1.2281  0.2932
    1MOL0     O   47  10.458   9.363   8.660 -0.0619 -0.7049 -0.0762
    1MOL0     C   48  10.604   9.199   8.835  0.1226  0.3004 -0.2684
    1MOL0     C   49  10.663   9.103   8.917  1.2336 -0.5538 -0.4844
    1MOL0     N   50  11.319   8.848   8.773 -0.6282 -0.7940  1.3834
    1MOL0     N   51  11.354   8.743   8.721 -0.4456  0.0703  0.7652
    1MOL0     C   52  11.311   7.438   8.828 -0.4417 -0.2186 -0.3709
    1MOL0     C   53  11.314   7.330   8.745 -1.0913 -0.1486  0.0417
    1MOL0     C   54  11.219   7.168   8.306  0.6478  0.5980 -0.7756
    1MOL0     C   55  11.077   7.157   8.288  0.1882  1.4120  0.0098
    1MOL0     C   56  11.026   7.118   8.164 -0.4473 -0.9080 -0.3977
    1MOL0     C   57  11.109   7.089   8.054 -0.0578  0.3720 -0.7521
    1MOL0     O   58  11.067   7.035   7.940  0.4039  0.7745  0.1781
    1MOL0     C   59  10.934   7.082   7.894 -0.7290 -0.6473 -0.5370
    1MOL0     C   60  10.875   6.976   7.813  0.8485 -0.9937  1.2139
    1MOL0     C   61  10.869   6.844   7.892  0.0816 -0.1878 -0.3750
    1MOL0     C   62  10.796   6.734   7.822 -0.1565  0.5845  0.8639
    1MOL0     C   63  10.655   6.753   7.809  0.9450 -0.3828  0.3959
    1MOL0     C   64  10.538   6.782   7.804  1.1265  0.3339  0.2572
    1MOL0     C   65  11.249   7.083   8.073  1.0656  0.0507 -0.7053
    1MOL0     C   66  11.302   7.124   8.197  0.2604 -0.2710 -0.7219
    1MOL0     C   67  11.451   7.114   8.216 -0.3686  0.9634 -0.3797
    1MOL0     H   68  11.009   7.380   8.602  0.2777 -0.9977 -0.2125
    1MOL0     H   69  10.991   7.549   8.755 -1.1392 -2.1924 -0.4557
    1MOL0     H   70  11.284   7.754   9.044 -2.5322  0.0900  0.6330
    1MOL0     H   71  11.358   7.704   8.880 -2.3629 -1.5398 -2.4250
    1MOL0     H   72  11.108   7.857   8.882 -0.0414 -0.1814  0.7447
    1MOL0     H   73  11.203   7.829   8.754  1.6064  0.9337 -0.0802
    1MOL0     H   74  11.405   7.944   8.880  0.5995  0.4934 -0.3550
    1MOL0     H   75  11.283   8.004   8.982  2.4979 -1.1698  0.9522
    1MOL0     H   76  11.257   8.053   8.672  0.9155  3.3840 -0.7955
    1MOL0     H   77  11.170   8.136   8.801  1.3671  3.3812 -0.0327
    1MOL0     H   78  11.417   8.234   8.859 -0.8419  0.6100 -0.8368
    1MOL0     H   79  11.465   8.128   8.728  0.8227  2.0875 -0.5210
    1MOL0     H   80  11.439   8.332   8.631  0.8667  0.1199  0.7158
    1MOL0     H   81  11.273   8.266   8.602  0.4639  2.2497 -0.9061
    1MOL0     H   82  11.200   8.383   8.826  2.1322  1.2979  2.2075
    1MOL0     H   83  11.197   8.465   8.685 -1.0490  1.2601  1.9595
    1MOL0     H   84  11.393   8.469   8.912  2.9539  0.7244  0.4595
    1MOL0     H   85  11.470   8.492   8.752 -1.2429 -1.1904 -3.1658
    1MOL0     H   86  11.261   8.658   9.033  0.4427 -0.7121  0.0647
    1MOL0     H   87  11.321   8.961   9.048 -0.6060  2.9472  0.5673
    1MOL0     H   88  11.210   9.030   8.940  2.8723  0.9767  1.4002
    1MOL0     H   89  11.104   8.818   9.128  0.6414  0.6293  2.1935
    1MOL0     H   90  11.111   8.985   9.170 -1.0425 -0.0177  1.4299
    1MOL0     H   91  10.994   8.868   8.922  0.6947  1.2991  0.2690
    1MOL0     H   92  10.977   9.033   8.938  1.1855  0.3412 -0.9713
    1MOL0     H   93  10.807   9.009   9.110 -0.3376 -2.0776  1.1638
    1MOL0     H   94  10.838   8.839   9.142 -3.1836 -0.2062 -0.4701
    1MOL0     H   95  10.637   8.842   8.712  2.2740 -0.5027 -1.5902
    1MOL0     H   96  10.505   9.000   8.577  1.1270 -0.5577 -0.9462
    1MOL0     H   97  10.304   9.414   8.487  0.7227  0.7231  0.9610
    1MOL0     H   98  10.238   9.565   8.306 -0.0600  0.0054 -0.2139
    1MOL0     H   99  10.151   9.527   8.050 -0.6058 -0.5714  0.1763
    1MOL0     H  100  10.201   9.643   7.930 -0.0091 -0.6968  0.4201
    1MOL0     H  101  10.349   9.444   7.831 -0.4773 -1.2486 -1.6181
    1MOL0     H  102  10.253   9.330   7.932 -0.2672 -1.2022 -1.4183
    1MOL0     H  103  10.122   9.529   7.738 -0.4824  0.2086  0.1474
    1MOL0     H  104  10.159   9.372   7.698  1.3732  1.2683 -1.2449
    1MOL0     H  105   9.967   9.444   7.927 -0.7665  0.0195 -1.2659
    1MOL0     H  106  10.052   9.281   7.927  2.0682 -0.7178 -1.3714
    1MOL0     H  107   9.857   9.200   7.842  1.6997  0.2083  2.0688
    1MOL0     H  108   9.943   9.225   7.708  0.1978 -0.4180  0.0839
    1MOL0     H  109   9.716   9.302   7.665  3.0867 -2.8084  0.2454
    1MOL0     H  110   9.723   9.427   7.788  0.2758 -0.3944 -1.0524
    1MOL0     H  111   9.906   9.546   7.652  2.1365 -0.6673 -2.0012
    1MOL0     H  112   9.756   9.527   7.566 -2.5710 -1.9761  2.4429
    1MOL0     H  113   9.964   9.486   7.438  1.7101  3.2492  5.0550
    1MOL0     H  114  10.006   9.350   7.535  1.1960  1.1529 -2.0664
    1MOL0     H  115  10.537   9.397   8.039 -0.4238  0.8734 -0.7632
    1MOL0     H  116  10.607   9.245   8.246 -0.7139  0.5526  1.5752
    1MOL0     H  117  10.597   9.298   8.877  3.1142  1.1752 -1.5803
    1MOL0     H  118  10.679   9.141   9.018  0.4557 -0.1023 -0.5319
    1MOL0     H  119  11.397   7.441   8.893 -1.5995  2.6377  1.2382
    1MOL0     H  120  11.400   7.265   8.737 -1.5708 -0.8575  0.5253
    1MOL0     H  121  11.003   7.173   8.366  0.2139 -0.4024  0.4366
    1MOL0     H  122  10.918   7.114   8.160 -0.5029 -0.6263  0.6085
    1MOL0     H  123  10.965   7.171   7.838 -2.2251  0.3377  0.1427
    1MOL0     H  124  10.863   7.107   7.972 -0.4487  2.0781 -1.0588
    1MOL0     H  125  10.930   6.954   7.721  3.6439  5.0289  0.9588
    1MOL0     H  126  10.778   7.009   7.777  1.7521 -0.3521 -0.7789
    1MOL0     H  127  10.825   6.864   7.990 -0.5050 -0.7717 -0.5120
    1MOL0     H  128  10.970   6.804   7.905  1.4059  1.9654 -2.9291
    1MOL0     H  129  10.845   6.729   7.725 -1.4734 -0.2701  0.2107
    1MOL0     H  130  10.804   6.637   7.873  0.6496  0.1904  0.0037
    1MOL0     H  131  10.435   6.802   7.824  1.0376 -0.5104  0.6689
    1MOL0     H  132  11.317   7.044   7.998  0.1313 -0.0200 -1.5345
    1MOL0     H  133  11.487   7.114   8.320  0.5411  0.9500 -0.6814
    1MOL0     H  134  11.512   7.034   8.171  1.9321  1.4981  1.5326
    1MOL0     H  135  11.492   7.208   8.177 -2.5122  2.2077  0.2271
    2MOL0     O  136   3.367   8.699   2.315  0.4843  0.3870  0.3919
    2MOL0     C  137   3.423   8.804   2.346 -0.8102 -0.3367 -1.2197
    2MOL0     O  138   3.425   8.913   2.271  0.0175 -0.5669  0.1877
    2MOL0     C  139   3.338   8.919   2.160  0.0806 -0.7470  0.1190
    2MOL0     C  140   3.323   8.830   2.050  0.0857 -0.1830  0.5264
    2MOL0     C  141   3.223   8.866   1.956 -1.2896  0.5086 -0.4203
    2MOL0     C  142   3.153   8.989   1.954  0.4381  0.3594  1.2951
    2MOL0     O  143   3.067   9.018   1.852  0.3659 -0.2004 -0.7327
    2MOL0     C  144   2.996   8.912   1.784 -0.2471 -0.0166 -0.2498
    2MOL0     C  145   3.051   8.829   1.667 -0.9150  0.2838  0.6001
    2MOL0     C  146   3.132   8.913   1.569  0.0268 -1.2562  0.0648
    2MOL0     C  147   3.060   9.041   1.525 -1.2636 -0.3489 -1.1515
    2MOL0     C  148   3.134   9.125   1.410  1.1550 -0.0556  0.4117
    2MOL0     C  149   3.060   9.257   1.377  0.0366 -0.8753 -0.1324
    2MOL0     C  150   3.154   9.361   1.306 -0.9881  0.3129  0.3225
    2MOL0     C  151   3.075   9.487   1.266  0.8515  0.0313 -0.5203
    2MOL0     N  152   3.170   9.604   1.255  0.9133 -1.2454  0.1390
    2MOL0     C  153   3.181   9.690   1.153 -0.2507 -0.8165  0.6376
    2MOL0     C  154   3.269   9.783   1.193  0.2879  0.8927 -0.2186
    2MOL0     C  155   3.291   9.918   1.121 -0.0889  0.0763  0.9138
    2MOL0     C  156   3.257  10.044   1.201 -0.0890  0.1750 -0.2258
    2MOL0     C  157   3.207  10.158   1.109  0.3367 -0.3822 -0.0941
    2MOL0     C  158   3.043  10.161   1.111 -0.1053  0.0280  0.7078
    2MOL0     O  159   3.007  10.062   1.023 -0.2448 -0.0703  0.7943
    2MOL0     C  160   2.936   9.959   1.063  1.1255  0.2782  0.3378
    2MOL0     C  161   2.942   9.889   1.179  0.6623 -0.3397 -0.1289
    2MOL0     C  162   2.874   9.769   1.193  0.2200  0.3764 -0.7576
    2MOL0     C  163   2.806   9.701   1.095 -0.9345 -0.3488  0.6194
    2MOL0     C  164   2.725   9.579   1.120 -0.6463  0.0159 -0.0382
    2MOL0     O  165   2.783   9.497   1.214 -0.0269  0.4689 -0.0643
    2MOL0     C  166   2.714   9.397   1.284 -1.2426 -0.0857 -0.7785
    2MOL0     C  167   2.654   9.418   1.411 -0.5901 -0.3394  0.3119
    2MOL0     C  168   2.587   9.315   1.480 -0.2533  0.3928  0.2380
    2MOL0     C  169   2.570   9.184   1.416 -0.1109  0.3958  0.9272
    2MOL0     O  170   2.502   9.086   1.485 -0.7320  0.2421  0.0281
    2MOL0     C  171   2.554   8.947   1.470  0.7208  0.7440 -0.2040
    2MOL0     C  172   2.536   8.860   1.604  0.2109 -1.0696 -0.7481
    2MOL0     C  173   2.623   8.738   1.599  1.2431  1.1408 -0.4368
    2MOL0     C  174   2.566   8.612   1.668  0.7509 -0.6342  1.5414
    2MOL0     C  175   2.668   8.498   1.692  0.6064 -1.3625 -0.6736
    2MOL0     C  176   2.782   8.543   1.787 -0.4307  0.4703 -1.0390
    2MOL0     C  177   2.847   8.418   1.845 -0.1036 -0.4471 -0.5885
    2MOL0     C  178   2.900   8.448   1.989  0.0928  0.1204 -1.0307
    2MOL0    Cl  179   3.020   8.577   1.977  0.0677  0.2070  0.2791
    2MOL0     C  180   2.629   9.167   1.295  0.6446  0.2212  0.7144
    2MOL0     C  181   2.693   9.270   1.233  0.0145 -0.5787 -0.1509
    2MOL0     O  182   2.626   9.547   1.054  0.5526 -0.4380  0.3475
    2MOL0     C  183   2.792   9.772   0.970 -0.3879 -0.6314 -0.2973
    2MOL0     C  184   2.862   9.896   0.958  0.6013  0.2137  0.1401
    2MOL0     N  185   3.313   9.752   1.323  0.1354 -0.4583  0.0777
    2MOL0     N  186   3.241   9.645   1.360  0.0413 -0.9204 -0.0863
    2MOL0     C  187   3.180   9.076   2.052 -0.7581 -0.4572  0.0183
    2MOL0     C  188   3.268   9.043   2.156  0.3582  0.3637  0.9653
    2MOL0     C  189   3.475   8.817   2.497 -0.4471 -0.2652  0.2570
    2MOL0     C  190   3.426   8.741   2.602 -0.4085  0.3143 -0.0592
    2MOL0     C  191   3.482   8.749   2.734  1.0203  0.6662  0.2891
    2MOL0     C  192   3.587   8.843   2.757  0.3104  0.0966  0.8362
    2MOL0     O  193   3.636   8.862   2.880  0.3523  0.0789 -0.4647
    2MOL0     C  194   3.742   8.769   2.912 -0.0843  1.3108  0.1775
    2MOL0     C  195   3.811   8.812   3.044  0.3928  0.3532  0.6672
    2MOL0     C  196   3.929   8.724   3.075  0.1483 -0.1424 -0.1948
    2MOL0     C  197   4.047   8.726   2.978 -0.0898  0.3414 -0.0644
    2MOL0     C  198   4.126   8.855   3.003  0.4329 -0.3175  0.0072
    2MOL0     C  199   4.156   8.971   2.987 -0.1214 -0.5727  1.7108
    2MOL0     C  200   3.639   8.918   2.653  0.0852 -0.3432 -0.7941
    2MOL0     C  201   3.579   8.904   2.529 -0.9367  0.1272  0.5141
    2MOL0     C  202   3.635   9.004   2.433 -1.1207 -0.7838  0.7538
    2MOL0     H  203   3.394   8.752   2.023  0.6417  0.6024 -0.3192
    2MOL0     H  204   3.222   8.785   1.884 -0.8594  0.6780 -0.6169
    2MOL0     H  205   2.944   8.844   1.852 -0.2345 -0.8911 -1.0917
    2MOL0     H  206   2.922   8.978   1.738  1.5480  0.9878 -1.8590
    2MOL0     H  207   2.971   8.780   1.611 -2.8775 -1.0905  4.2095
    2MOL0     H  208   3.115   8.745   1.696 -1.6006 -0.1312  0.9159
    2MOL0     H  209   3.152   8.858   1.477  0.9638  2.8184 -2.4446
    2MOL0     H  210   3.232   8.935   1.607 -0.6951  0.0148  1.3381
    2MOL0     H  211   2.959   9.019   1.487 -0.5557 -1.0785 -2.7115
    2MOL0     H  212   3.058   9.117   1.604  2.0154 -1.6198  0.2777
    2MOL0     H  213   3.238   9.144   1.436  0.6594  3.3746  0.2561
    2MOL0     H  214   3.134   9.060   1.322 -0.8843  0.4377  0.0011
    2MOL0     H  215   2.978   9.236   1.308 -0.4420 -1.8315  0.6855
    2MOL0     H  216   3.012   9.294   1.469 -1.8651 -2.0164 -0.6007
    2MOL0     H  217   3.215   9.316   1.227  2.7111  2.1644  1.8723
    2MOL0     H  218   3.223   9.373   1.389  1.6692 -3.3680 -1.0810
    2MOL0     H  219   3.030   9.465   1.169 -0.0187 -1.7109  0.2389
    2MOL0     H  220   3.005   9.515   1.345  0.8319 -2.5491  0.4689
    2MOL0     H  221   3.131   9.672   1.059 -0.2938  0.1503  0.4673
    2MOL0     H  222   3.398   9.925   1.100  0.3101  3.1884  3.1912
    2MOL0     H  223   3.228   9.902   1.034  3.0092 -1.7646 -1.1912
    2MOL0     H  224   3.188  10.013   1.280 -1.9312 -2.9959 -2.8201
    2MOL0     H  225   3.342  10.085   1.256 -2.6174  3.4062  1.6145
    2MOL0     H  226   3.251  10.159   1.009 -1.0084  1.0400 -0.7153
    2MOL0     H  227   3.243  10.250   1.155  1.9079 -0.5084 -0.9869
    2MOL0     H  228   2.996  10.248   1.065  0.3062 -1.0793 -2.0051
    2MOL0     H  229   3.006  10.144   1.212 -0.2215 -0.1678  0.6336
    2MOL0     H  230   2.986   9.931   1.268 -2.8999  4.0354 -0.0584
    2MOL0     H  231   2.870   9.719   1.289 -4.3602  1.8505  0.1179
    2MOL0     H  232   2.664   9.514   1.461 -1.5249  0.2431 -0.5785
    2MOL0     H  233   2.538   9.332   1.575  0.2675  2.1167  0.2201
    2MOL0     H  234   2.493   8.899   1.393  1.0266 -2.3338  1.3125
    2MOL0     H  235   2.656   8.944   1.430  0.8489 -0.6422  0.1847
    2MOL0     H  236   2.573   8.936   1.674 -1.4961 -1.1575  0.3233
    2MOL0     H  237   2.430   8.859   1.631  0.0597  4.4334  0.1032
    2MOL0     H  238   2.617   8.714   1.492  2.1979 -0.8933 -0.0729
    2MOL0     H  239   2.729   8.756   1.621  1.2942  0.1295  0.1674
    2MOL0     H  240   2.478   8.577   1.613 -0.0798 -1.6367  3.3909
    2MOL0     H  241   2.528   8.652   1.763 -0.7439 -1.4467  1.3274
    2MOL0     H  242   2.720   8.478   1.598  0.2416  0.1962 -1.2452
    2MOL0     H  243   2.601   8.421   1.732 -1.4716  0.2244 -0.8773
    2MOL0     H  244   2.855   8.617   1.755 -2.2298  1.9768 -1.8699
    2MOL0     H  245   2.722   8.588   1.867  0.6949 -0.6710  0.5149
    2MOL0     H  246   2.920   8.394   1.768 -1.7661 -1.1235 -2.0190
    2MOL0     H  247   2.771   8.339   1.846 -0.6285  0.0080 -1.8241
    2MOL0     H  248   2.817   8.485   2.051 -0.8450  1.3089 -2.9096
    2MOL0     H  249   2.940   8.357   2.036  1.0984 -0.7692 -3.4281
    2MOL0     H  250   2.612   9.076   1.240  1.8542 -0.3594  1.2652
    2MOL0     H  251   2.737   9.241   1.138 -1.4836  0.0979 -1.0915
    2MOL0     H  252   2.717   9.739   0.899  0.5329  1.1156 -2.1893
    2MOL0     H  253   2.852   9.943   0.861  0.1514 -2.7551 -1.3505
    2MOL0     H  254   3.132   9.172   2.040 -3.3170 -1.4641  1.3961
    2MOL0     H  255   3.274   9.124   2.228  0.7009  2.4651 -1.2646
    2MOL0     H  256   3.338   8.679   2.590 -0.9716  0.9308  0.7958
    2MOL0     H  257   3.443   8.691   2.816 -0.4602  2.2420  0.7603
    2MOL0     H  258   3.820   8.769   2.835 -1.2377  3.7391 -1.1183
    2MOL0     H  259   3.710   8.665   2.920 -0.9687  1.6608  1.4865
    2MOL0     H  260   3.739   8.801   3.125  0.7632 -1.2067  0.8296
    2MOL0     H  261   3.838   8.917   3.035 -0.8562  0.5652 -0.9669
    2MOL0     H  262   3.906   8.617   3.076 -1.1834  0.1286 -0.6360
    2MOL0     H  263   3.952   8.755   3.178 -1.9909  2.4757 -0.3867
    2MOL0     H  264   4.115   8.640   2.976  2.1203  1.9741 -2.3529
    2MOL0     H  265   4.014   8.738   2.875  3.5302 -0.5731 -1.4715
    2MOL0     H  266   4.163   9.074   2.960  2.7880 -1.6292 -2.6130
    2MOL0     H  267   3.719   8.989   2.674  0.6186 -1.5066  1.4331
    2MOL0     H  268   3.714   9.063   2.479 -0.2187  0.1448 -1.8389
    2MOL0     H  269   3.670   8.946   2.347 -4.6777  0.8714 -2.0517
    2MOL0     H  270   3.566   9.079   2.396 -0.1337  0.9736  2.3250
    3MOL0     O  271  10.010   6.625   7.760  0.1004 -0.4880 -0.7432
    3MOL0     C  272  10.098   6.551   7.733 -0.9004  0.6754  0.5399
    3MOL0     O  273  10.127   6.430   7.793 -0.2749  0.0225  0.4523
    3MOL0     C  274  10.049   6.406   7.909  0.1669  0.6136  0.0815
    3MOL0     C  275   9.981   6.283   7.921  0.2840 -0.5231 -0.1558
    3MOL0     C  276   9.904   6.259   8.035  0.2530  0.3463  0.3805
    3MOL0     C  277   9.897   6.356   8.135  0.4442 -0.3445  0.4304
    3MOL0     O  278   9.824   6.314   8.243 -0.4320 -0.6960 -0.3088
    3MOL0     C  279   9.838   6.381   8.372 -0.5638 -0.1279 -0.2220
    3MOL0     C  280   9.751   6.319   8.485  0.3961  0.7667 -0.9949
    3MOL0     C  281   9.790   6.175   8.511 -0.0782  0.3198 -1.0026
    3MOL0     C  282   9.931   6.167   8.565 -0.1348  0.5232 -0.1337
    3MOL0     C  283   9.949   6.018   8.601 -0.1485 -0.0845 -0.7824
    3MOL0     C  284  10.096   6.001   8.665  0.4988  0.1993  1.1186
    3MOL0     C  285  10.134   5.850   8.686 -0.7417  0.4652 -0.4932
    3MOL0     C  286  10.031   5.780   8.779 -0.4499  0.2762 -0.6517
    3MOL0     N  287  10.019   5.835   8.916 -0.8383  1.1613 -0.5007
    3MOL0     C  288  10.114   5.819   9.010  1.0100  0.4841  1.5121
    3MOL0     C  289  10.068   5.891   9.118 -0.7969 -0.7091 -0.1112
    3MOL0     C  290  10.136   5.930   9.254  0.0256  0.3384  0.0280
    3MOL0     C  291  10.280   5.981   9.247 -1.3329 -0.0578 -0.5288
    3MOL0     C  292  10.293   6.133   9.211 -0.7491 -0.2062 -0.3112
    3MOL0     C  293  10.430   6.159   9.142  0.1101 -0.8033 -0.6982
    3MOL0     O  294  10.459   6.293   9.107  0.0262 -0.0232 -0.0092
    3MOL0     C  295  10.376   6.360   9.021  0.0965  0.1004  1.0583
    3MOL0     C  296  10.332   6.491   9.055  0.0689 -0.7941  0.2850
    3MOL0     C  297  10.243   6.554   8.963 -0.0229 -0.5424  0.1853
    3MOL0     C  298  10.208   6.505   8.831 -0.0931 -0.0127  0.3611
    3MOL0     C  299  10.131   6.573   8.728 -0.1842 -0.4226  0.3880
    3MOL0     O  300  10.086   6.707   8.759 -0.0279  0.4440 -0.4666
    3MOL0     C  301  10.012   6.774   8.669  0.7518 -0.3796  0.4718
    3MOL0     C  302  10.068   6.886   8.601  0.7253  0.5026  0.4332
    3MOL0     C  303   9.983   6.948   8.506 -0.4777 -0.3387 -0.7767
    3MOL0     C  304   9.850   6.906   8.470 -0.1532  0.6658 -0.3191
    3MOL0     O  305   9.764   6.951   8.370  0.3870  0.0345 -0.7546
    3MOL0     C  306   9.813   7.064   8.298 -0.0915 -0.8478 -0.1580
    3MOL0     C  307   9.709   7.145   8.228  0.7618  0.0242  0.0987
    3MOL0     C  308   9.793   7.257   8.157 -0.0325 -0.6679  0.7233
    3MOL0     C  309   9.707   7.339   8.054  0.6000 -0.1094  0.2972
    3MOL0     C  310   9.626   7.247   7.959  1.0387 -0.9176  0.9488
    3MOL0     C  311   9.530   7.329   7.865 -0.6740 -1.1664  0.2827
    3MOL0     C  312   9.608   7.429   7.771  0.3142 -0.6500  0.5645
    3MOL0     C  313   9.508   7.536   7.709 -0.6794  0.1184  0.1177
    3MOL0    Cl  314   9.611   7.670   7.648 -0.0919 -0.2390  0.1744
    3MOL0     C  315   9.804   6.799   8.544  0.2745  0.4212  0.9596
    3MOL0     C  316   9.886   6.729   8.624 -0.4825  0.2442  0.0494
    3MOL0     O  317  10.126   6.523   8.617 -0.0773  0.1489 -0.0400
    3MOL0     C  318  10.257   6.377   8.810  0.1030 -0.5956 -0.0812
    3MOL0     C  319  10.336   6.301   8.897  0.3451 -1.0557  0.4692
    3MOL0     N  320   9.952   5.951   9.080 -0.8176 -0.0033  0.3036
    3MOL0     N  321   9.917   5.909   8.968 -0.4517  0.7332  0.7249
    3MOL0     C  322   9.966   6.474   8.124  0.1375 -0.7206  0.3798
    3MOL0     C  323  10.041   6.495   8.013  0.0232  0.5230 -0.1613
    3MOL0     C  324  10.163   6.585   7.596  0.0206  0.2993  0.2567
    3MOL0     C  325  10.189   6.475   7.512 -0.4555  0.5541  0.7459
    3MOL0     C  326  10.216   6.488   7.380 -0.3891  1.3056 -0.8753
    3MOL0     C  327  10.263   6.610   7.328  0.1007  0.6566 -0.7889
    3MOL0     O  328  10.334   6.605   7.214 -0.1786  0.4394 -1.1270
    3MOL0     C  329  10.472   6.639   7.218 -0.7994  0.0884 -0.5580
    3MOL0     C  330  10.524   6.654   7.072  0.8798  0.5500 -0.0373
    3MOL0     C  331  10.677   6.664   7.063 -0.0425 -1.1306 -1.0469
    3MOL0     C  332  10.726   6.735   6.940  0.2406 -1.2796 -0.3817
    3MOL0     C  333  10.719   6.659   6.821  0.5509  0.8850  1.2563
    3MOL0     C  334  10.725   6.591   6.716 -0.2699  0.5888 -0.0512
    3MOL0     C  335  10.258   6.729   7.421  0.3873  0.0926 -0.1407
    3MOL0     C  336  10.188   6.719   7.542  0.2159  0.0929  0.3527
    3MOL0     C  337  10.172   6.838   7.634  0.2649  0.1659 -0.2643
    3MOL0     H  338   9.986   6.207   7.843 -0.8503  0.2660 -1.0398
    3MOL0     H  339   9.835   6.176   8.043 -1.0610  1.4611  0.8975
    3MOL0     H  340   9.942   6.377   8.406  0.6567  0.2441 -3.5229
    3MOL0     H  341   9.811   6.487   8.370 -5.5334 -1.1234  0.8427
    3MOL0     H  342   9.647   6.334   8.455  0.0802  1.1657  0.2714
    3MOL0     H  343   9.766   6.381   8.574 -2.0157 -1.0714  0.8353
    3MOL0     H  344   9.797   6.112   8.421  5.4574  0.6825 -1.2240
    3MOL0     H  345   9.734   6.131   8.594  2.0829  2.8461  2.0279
    3MOL0     H  346   9.993   6.199   8.481 -0.0289 -1.2334 -0.7582
    3MOL0     H  347   9.949   6.233   8.650 -1.4357 -1.3999  1.7445
    3MOL0     H  348   9.868   5.973   8.660 -1.0541 -0.5179 -2.2747
    3MOL0     H  349   9.955   5.958   8.510  2.3069 -2.7171  0.9395
    3MOL0     H  350  10.170   6.047   8.600 -0.1147 -1.6874 -1.0705
    3MOL0     H  351  10.106   6.051   8.762  0.6003  2.0618  0.1873
    3MOL0     H  352  10.230   5.856   8.738 -1.4528  0.4927  0.8555
    3MOL0     H  353  10.144   5.804   8.587  1.5469  1.0741 -0.5977
    3MOL0     H  354   9.934   5.784   8.727 -0.2273 -0.1393 -1.1066
    3MOL0     H  355  10.051   5.673   8.784  2.5057  0.8013  2.0185
    3MOL0     H  356  10.215   5.779   9.002 -0.1967 -2.4289 -3.9436
    3MOL0     H  357  10.066   5.999   9.303 -2.7828 -1.3415 -1.3517
    3MOL0     H  358  10.142   5.844   9.321 -1.2567 -0.6750 -1.0882
    3MOL0     H  359  10.330   5.972   9.344 -0.8260 -1.2943 -0.8861
    3MOL0     H  360  10.341   5.928   9.173 -0.7125 -2.2141  1.4069
    3MOL0     H  361  10.278   6.194   9.299 -0.5633 -0.4539 -0.1059
    3MOL0     H  362  10.216   6.160   9.138 -0.1288 -0.3360 -1.0398
    3MOL0     H  363  10.463   6.087   9.066 -1.1574 -0.7896 -1.2738
    3MOL0     H  364  10.508   6.152   9.219 -1.2619 -0.6326  0.7577
    3MOL0     H  365  10.369   6.534   9.147  0.2626 -0.3355 -0.0020
    3MOL0     H  366  10.204   6.647   9.003  1.5055 -0.6462  2.1240
    3MOL0     H  367  10.172   6.913   8.620  1.0128 -0.0714 -0.2868
    3MOL0     H  368  10.024   7.035   8.456 -2.3248  0.6375 -0.6905
    3MOL0     H  369   9.870   7.124   8.369  0.1644  0.5007 -1.4470
    3MOL0     H  370   9.875   7.024   8.217  1.1676  1.6543 -0.5442
    3MOL0     H  371   9.658   7.075   8.159  0.6159  1.1699 -0.9855
    3MOL0     H  372   9.641   7.192   8.299 -1.2318 -1.7239 -0.5121
    3MOL0     H  373   9.836   7.322   8.233  1.5564 -2.6481  1.5830
    3MOL0     H  374   9.875   7.223   8.093 -0.3602  3.8702 -2.6506
    3MOL0     H  375   9.784   7.400   8.006  2.5523 -1.1861  1.9066
    3MOL0     H  376   9.638   7.406   8.106  3.0044  1.6531  1.3942
    3MOL0     H  377   9.552   7.195   8.021 -2.0655  0.3085 -1.5060
    3MOL0     H  378   9.685   7.180   7.895  3.0891  2.9862 -1.5942
    3MOL0     H  379   9.471   7.263   7.800  0.9703 -2.3564 -0.0781
    3MOL0     H  380   9.465   7.394   7.923 -0.1270 -0.9818  0.6966
    3MOL0     H  381   9.658   7.379   7.688 -0.4506  2.6458 -2.0885
    3MOL0     H  382   9.694   7.474   7.822 -0.6978 -0.3833  2.1321
    3MOL0     H  383   9.447   7.490   7.630  3.1145  1.1318 -3.7447
    3MOL0     H  384   9.434   7.595   7.764 -1.7298  1.6962 -2.7322
    3MOL0     H  385   9.709   6.753   8.517  0.0265  0.7958  1.1906
    3MOL0     H  386   9.842   6.640   8.668 -2.9310 -0.3125 -3.1313
    3MOL0     H  387  10.236   6.337   8.711 -2.9166 -0.0722  0.2649
    3MOL0     H  388  10.358   6.199   8.868 -0.0764 -0.2848 -2.9473
    3MOL0     H  389   9.960   6.547   8.205 -0.2102  0.4874 -0.6916
    3MOL0     H  390  10.096   6.589   8.011  0.4706  0.2734  0.1000
    3MOL0     H  391  10.165   6.371   7.533  1.8049 -0.5301 -1.5707
    3MOL0     H  392  10.205   6.391   7.332  1.0324 -0.5747  2.3207
    3MOL0     H  393  10.527   6.555   7.263 -1.1657  0.4030  0.5198
    3MOL0     H  394  10.500   6.734   7.265  2.2986 -0.7651 -0.4397
    3MOL0     H  395  10.474   6.743   7.034  0.3467  1.5637  2.8458
    3MOL0     H  396  10.492   6.565   7.016  1.2909  0.3058  0.1081
    3MOL0     H  397  10.720   6.564   7.050 -0.3735 -1.5166  0.5753
    3MOL0     H  398  10.707   6.707   7.159  1.5448  1.3471 -2.5285
    3MOL0     H  399  10.676   6.833   6.937  1.6184 -0.4809  1.3571
    3MOL0     H  400  10.827   6.762   6.971 -1.0191  2.3028  1.2638
    3MOL0     H  401  10.726   6.524   6.632 -1.4244  0.9761 -0.4030
    3MOL0     H  402  10.304   6.813   7.368  0.9111 -0.1834 -0.1341
    3MOL0     H  403  10.218   6.831   7.733 -0.6805  2.2681  0.3938
    3MOL0     H  404  10.222   6.929   7.598 -0.8948  0.1402 -2.0531
    3MOL0     H  405  10.070   6.870   7.659  1.7871  2.7083  3.7403
    4MOL0     O  406  10.678  11.282   3.550 -0.2996  0.5788  0.2678
    4MOL0     C  407  10.602  11.350   3.622 -0.1037  0.8240 -0.6218
    4MOL0     O  408  10.555  11.295   3.741  0.3274  0.0398  1.1068
    4MOL0     C  409  10.607  11.176   3.793 -0.0453 -1.1088  0.7444
    4MOL0     C  410  10.528  11.112   3.890 -0.0989  0.6943  0.0076
    4MOL0     C  411  10.571  11.007   3.973 -0.2269  0.2375 -0.2884
    4MOL0     C  412  10.702  10.959   3.955  0.5183 -0.1507  0.0165
    4MOL0     O  413  10.744  10.849   4.020 -0.2955  0.1465  0.3009
    4MOL0     C  414  10.737  10.861   4.162  0.6389 -0.4104 -0.5161
    4MOL0     C  415  10.733  10.725   4.216  0.0875  0.0399  0.8794
    4MOL0     C  416  10.689  10.715   4.363  0.6558  0.3181  0.3084
    4MOL0     C  417  10.778  10.785   4.468 -0.4163  0.3295  0.4916
    4MOL0     C  418  10.732  10.778   4.619 -0.8611 -0.6390  0.2789
    4MOL0     C  419  10.636  10.659   4.648  0.4784  0.0156 -0.3015
    4MOL0     C  420  10.599  10.647   4.793 -0.1589  0.2328  0.1947
    4MOL0     C  421  10.467  10.722   4.830  0.9116  0.2437  0.0428
    4MOL0     N  422  10.414  10.648   4.948  1.2858  0.5046 -0.6947
    4MOL0     C  423  10.442  10.678   5.078  0.7596 -0.3185  0.5295
    4MOL0     C  424  10.350  10.609   5.154 -0.1459  1.1089 -0.1359
    4MOL0     C  425  10.344  10.612   5.306  0.8698  0.3615  0.2341
    4MOL0     C  426  10.435  10.498   5.363  0.1112  0.2971 -0.0084
    4MOL0     C  427  10.408  10.449   5.505  0.0958  0.6948 -1.0676
    4MOL0     C  428  10.259  10.407   5.534 -0.0382  0.4637 -0.8332
    4MOL0     O  429  10.250  10.337   5.659 -0.4522 -0.4030 -0.6332
    4MOL0     C  430  10.231  10.402   5.789 -0.4606 -0.2206 -0.0333
    4MOL0     C  431  10.247  10.325   5.906 -0.7184 -0.4824 -0.8515
    4MOL0     C  432  10.256  10.387   6.031 -1.2406 -0.4849  0.0298
    4MOL0     C  433  10.233  10.527   6.039 -0.6511 -0.0219 -0.5479
    4MOL0     C  434  10.242  10.583   6.176  0.1332  0.1145  1.2897
    4MOL0     O  435  10.207  10.715   6.191 -1.0616 -0.3506  0.7408
    4MOL0     C  436  10.188  10.775   6.311  0.5756  0.4270  0.2815
    4MOL0     C  437  10.185  10.918   6.303 -1.3534  0.0903  0.5419
    4MOL0     C  438  10.190  10.996   6.423  0.3308 -0.1930 -0.4361
    4MOL0     C  439  10.168  10.940   6.547 -0.9211  0.1131  0.0546
    4MOL0     O  440  10.159  11.028   6.659  0.7164 -0.0542 -0.2542
    4MOL0     C  441  10.109  10.978   6.788 -0.5019 -0.3150  0.0350
    4MOL0     C  442  10.227  10.981   6.881  0.1613 -0.9237 -1.7316
    4MOL0     C  443  10.300  10.850   6.868 -1.1180  0.3974  0.8157
    4MOL0     C  444  10.427  10.877   6.957  0.6439  0.2547  0.6626
    4MOL0     C  445  10.518  10.756   6.984  0.9376  0.4534  0.3578
    4MOL0     C  446  10.429  10.639   7.044  0.6675 -0.4757  0.3321
    4MOL0     C  447  10.501  10.573   7.167 -0.7860 -0.1455  0.8467
    4MOL0     C  448  10.420  10.446   7.217  0.0588 -0.3069  0.1458
    4MOL0    Cl  449  10.395  10.322   7.081  0.2778 -0.4179  0.3995
    4MOL0     C  450  10.149  10.796   6.548 -0.2074  0.9046  0.8905
    4MOL0     C  451  10.166  10.716   6.436 -0.3296  0.1630  0.0651
    4MOL0     O  452  10.282  10.508   6.263 -0.0763 -0.1674 -0.2952
    4MOL0     C  453  10.196  10.593   5.922 -0.0666 -0.0398 -0.1100
    4MOL0     C  454  10.193  10.533   5.797  0.4973  0.2433 -0.2395
    4MOL0     N  455  10.273  10.531   5.064  0.6534  0.1215 -0.1739
    4MOL0     N  456  10.310  10.557   4.945 -0.3453  0.5311 -0.3878
    4MOL0     C  457  10.775  11.014   3.849  0.1810  0.1302  1.0440
    4MOL0     C  458  10.731  11.117   3.774  0.3920 -1.2294  0.1988
    4MOL0     C  459  10.584  11.493   3.593  0.5808 -0.5047  0.1540
    4MOL0     C  460  10.556  11.583   3.697  0.0261 -1.2886  0.2400
    4MOL0     C  461  10.553  11.719   3.667  1.1748  0.5378 -0.9776
    4MOL0     C  462  10.581  11.770   3.541 -0.5338  0.2803  0.0723
    4MOL0     O  463  10.594  11.899   3.508 -0.8511 -0.0272 -0.5021
    4MOL0     C  464  10.599  12.006   3.607  0.8214 -0.5426  0.8272
    4MOL0     C  465  10.717  11.999   3.698 -0.1730 -0.3226  1.1623
    4MOL0     C  466  10.729  12.110   3.802  0.1071 -0.0688 -0.9668
    4MOL0     C  467  10.613  12.099   3.911  1.0750  0.2775  0.0421
    4MOL0     C  468  10.634  12.180   4.031  0.0552 -0.2131 -0.1642
    4MOL0     C  469  10.654  12.240   4.133  0.3966  0.0394  0.0675
    4MOL0     C  470  10.625  11.676   3.446 -0.0533 -1.1741  0.7064
    4MOL0     C  471  10.611  11.541   3.465  0.1209  0.1613  0.3199
    4MOL0     C  472  10.626  11.463   3.337 -0.4810 -0.3157 -0.0677
    4MOL0     H  473  10.431  11.159   3.901 -0.7733  0.3656 -3.4717
    4MOL0     H  474  10.502  10.960   4.042 -0.2570 -0.0384 -0.5045
    4MOL0     H  475  10.832  10.903   4.196 -0.0058  1.8141 -1.2750
    4MOL0     H  476  10.650  10.913   4.202  1.1053  1.2426 -1.5214
    4MOL0     H  477  10.836  10.692   4.196 -0.4277  0.0632 -2.2034
    4MOL0     H  478  10.658  10.674   4.156  1.2549  1.4645 -2.0188
    4MOL0     H  479  10.675  10.614   4.404 -1.6791  0.0289 -1.0352
    4MOL0     H  480  10.591  10.764   4.369 -1.7640 -3.9301  0.0834
    4MOL0     H  481  10.880  10.747   4.461 -0.3569 -0.0121  2.7135
    4MOL0     H  482  10.790  10.890   4.441  2.1891  0.4530  1.8729
    4MOL0     H  483  10.828  10.777   4.670  0.2964 -4.0079 -1.6674
    4MOL0     H  484  10.663  10.862   4.633 -2.1823 -1.7119  0.4852
    4MOL0     H  485  10.551  10.645   4.581 -1.4689 -1.2204  2.2497
    4MOL0     H  486  10.706  10.575   4.641 -1.7749 -1.8935 -1.7659
    4MOL0     H  487  10.689  10.672   4.850  2.2801 -2.9695 -1.9091
    4MOL0     H  488  10.577  10.540   4.807 -0.3294  0.2352 -0.0552
    4MOL0     H  489  10.480  10.830   4.841  1.0106  0.6504 -3.1224
    4MOL0     H  490  10.405  10.718   4.740  3.8316 -2.7550 -2.0981
    4MOL0     H  491  10.517  10.745   5.119 -1.2393  1.5139  1.3848
    4MOL0     H  492  10.380  10.708   5.344  0.2835 -0.5780  3.5273
    4MOL0     H  493  10.242  10.600   5.344  0.4315 -1.5765 -1.3786
    4MOL0     H  494  10.426  10.410   5.299  0.3410 -0.0513  0.4285
    4MOL0     H  495  10.538  10.535   5.365  0.6759 -1.1906 -0.1906
    4MOL0     H  496  10.436  10.526   5.578 -0.3464  0.0007 -0.1377
    4MOL0     H  497  10.464  10.355   5.516 -0.3045  0.3015 -2.2819
    4MOL0     H  498  10.230  10.348   5.447 -1.5273  0.8214 -0.5934
    4MOL0     H  499  10.189  10.490   5.522 -2.2189 -1.2203 -0.2773
    4MOL0     H  500  10.259  10.218   5.893 -2.4738 -0.6526 -1.2980
    4MOL0     H  501  10.291  10.332   6.118  2.1714  0.0479 -0.8251
    4MOL0     H  502  10.181  10.961   6.204  0.2249 -2.8806 -0.9145
    4MOL0     H  503  10.187  11.104   6.418 -0.2031  0.0099  2.6605
    4MOL0     H  504  10.038  11.052   6.827  2.7448  1.3957  3.2248
    4MOL0     H  505  10.071  10.875   6.788 -1.4381  0.0088 -1.1290
    4MOL0     H  506  10.299  11.059   6.856  1.0622 -1.6560 -1.4806
    4MOL0     H  507  10.195  10.995   6.984  1.0128 -2.6897 -1.1838
    4MOL0     H  508  10.241  10.766   6.906  0.8264 -0.9113  1.1371
    4MOL0     H  509  10.334  10.831   6.766 -2.0304 -2.3790  0.9207
    4MOL0     H  510  10.387  10.911   7.053 -1.5038 -2.0059  0.6869
    4MOL0     H  511  10.485  10.955   6.908 -2.6006  2.2317 -0.3287
    4MOL0     H  512  10.603  10.779   7.049  3.3722 -1.8922 -1.7948
    4MOL0     H  513  10.566  10.715   6.895 -0.5370  0.1410 -0.3247
    4MOL0     H  514  10.332  10.680   7.074  0.1644  1.4038 -3.2839
    4MOL0     H  515  10.390  10.573   6.966 -3.6842  0.7031  1.2389
    4MOL0     H  516  10.502  10.643   7.251  0.3900 -1.9719  2.4394
    4MOL0     H  517  10.604  10.540   7.151 -0.4466  2.3108 -3.3929
    4MOL0     H  518  10.466  10.395   7.302  0.9789  0.1255 -0.0822
    4MOL0     H  519  10.319  10.483   7.239 -1.0488 -2.5598 -0.8280
    4MOL0     H  520  10.144  10.747   6.645 -0.0936 -1.3000 -0.1694
    4MOL0     H  521  10.149  10.609   6.449 -1.2455  0.6878  5.0102
    4MOL0     H  522  10.188  10.700   5.931  2.8814  0.2709 -0.0197
    4MOL0     H  523  10.176  10.588   5.706  0.5822 -0.1759 -0.5117
    4MOL0     H  524  10.879  10.986   3.838 -0.4455 -1.9262 -0.2472
    4MOL0     H  525  10.798  11.165   3.703 -2.9720  2.0952 -1.0605
    4MOL0     H  526  10.535  11.542   3.795 -1.2407 -0.3693  0.3718
    4MOL0     H  527  10.528  11.787   3.747 -3.6074 -0.8918 -0.9418
    4MOL0     H  528  10.511  11.992   3.671  0.4487  1.1225  0.7227
    4MOL0     H  529  10.600  12.103   3.557  2.0838  0.1107  2.0595
    4MOL0     H  530  10.806  12.013   3.637 -1.7240 -0.5307 -1.2887
    4MOL0     H  531  10.710  11.903   3.749 -2.8309  1.3038  4.2620
    4MOL0     H  532  10.720  12.207   3.752 -3.0943 -1.1421 -2.8006
    4MOL0     H  533  10.823  12.095   3.855 -0.1263 -1.0042 -0.7974
    4MOL0     H  534  10.523  12.136   3.862  2.0365  0.1775 -1.8949
    4MOL0     H  535  10.590  12.002   3.956  1.3956  1.2021  2.3449
    4MOL0     H  536  10.659  12.297   4.223  0.1798 -1.0634  0.8108
    4MOL0     H  537  10.639  11.719   3.348  3.6542  3.0316  2.7288
    4MOL0     H  538  10.590  11.515   3.248 -2.9847 -0.8064  0.5752
    4MOL0     H  539  10.734  11.453   3.322 -0.1772  2.4927 -0.2211
    4MOL0     H  540  10.557  11.378   3.341 -2.4082  1.2141  2.3028
    5MOL0     O  541   5.832   3.680   4.651  0.4447  0.7407 -0.2785
    5MOL0     C  542   5.836   3.766   4.565 -0.0447 -0.4048  0.3432
    5MOL0     O  543   5.916   3.762   4.453 -0.8144 -0.0364 -0.3592
    5MOL0     C  544   5.948   3.637   4.411  0.0282 -0.6865  1.8512
    5MOL0     C  545   5.892   3.580   4.296  0.3377 -0.1275  0.4293
    5MOL0     C  546   5.941   3.462   4.240 -0.5533 -0.3168 -0.2120
    5MOL0     C  547   6.049   3.397   4.299  0.1498 -0.6470 -0.0451
    5MOL0     O  548   6.112   3.288   4.245 -0.7282 -0.1396 -0.5362
    5MOL0     C  549   6.036   3.181   4.177  0.3116  0.0236  0.0571
    5MOL0     C  550   6.130   3.097   4.090 -0.1061 -0.5197  0.1006
    5MOL0     C  551   6.223   3.003   4.154  0.2571  0.8061 -0.6573
    5MOL0     C  552   6.307   2.912   4.047 -0.0300 -0.1515 -0.8777
    5MOL0     C  553   6.423   2.832   4.102 -0.1591 -0.8281 -0.9689
    5MOL0     C  554   6.365   2.699   4.161 -0.9472 -0.7273 -0.0854
    5MOL0     C  555   6.471   2.594   4.200  0.1385 -0.7665 -0.1661
    5MOL0     C  556   6.599   2.609   4.116 -0.5005  0.4467 -0.2904
    5MOL0     N  557   6.674   2.486   4.136  1.3048 -0.2724 -0.7406
    5MOL0     C  558   6.658   2.378   4.054 -0.9162  0.6915  0.7340
    5MOL0     C  559   6.760   2.287   4.083 -0.3293 -0.0956  0.5045
    5MOL0     C  560   6.795   2.158   4.028  0.8299 -0.2712 -0.2112
    5MOL0     C  561   6.750   2.037   4.126 -0.0030  0.3378 -0.0497
    5MOL0     C  562   6.770   1.902   4.066 -0.5866  0.1610  0.0326
    5MOL0     C  563   6.642   1.836   4.015 -0.0289 -0.4978  0.5340
    5MOL0     O  564   6.591   1.926   3.919 -0.5248  0.5061  0.4624
    5MOL0     C  565   6.601   1.887   3.790  0.1537  0.4033  0.4370
    5MOL0     C  566   6.544   1.969   3.693 -0.8259 -0.3694 -0.3651
    5MOL0     C  567   6.566   1.950   3.553  0.7125  0.3871 -0.3143
    5MOL0     C  568   6.649   1.844   3.510  1.2996  0.0411  0.4553
    5MOL0     C  569   6.661   1.815   3.365 -0.0447 -0.2905 -0.7689
    5MOL0     O  570   6.772   1.739   3.322  0.1227  0.0464 -0.6535
    5MOL0     C  571   6.775   1.712   3.188 -0.1250 -0.7055 -0.0594
    5MOL0     C  572   6.688   1.632   3.122  0.2820 -0.2088  0.6088
    5MOL0     C  573   6.704   1.580   3.000 -0.4199  0.9670  0.4929
    5MOL0     C  574   6.821   1.609   2.924 -0.7704 -0.4610 -0.4547
    5MOL0     O  575   6.849   1.547   2.803 -0.3780 -0.0358 -0.9112
    5MOL0     C  576   6.961   1.595   2.730 -0.4942 -0.2276 -0.3860
    5MOL0     C  577   7.083   1.513   2.783  0.6605 -0.0287  0.1982
    5MOL0     C  578   7.216   1.550   2.723  0.0949  0.4352 -0.0001
    5MOL0     C  579   7.257   1.692   2.764 -0.6406  0.4270 -0.6346
    5MOL0     C  580   7.391   1.688   2.833 -0.0908  0.0303 -0.7821
    5MOL0     C  581   7.385   1.639   2.980  0.9081 -1.2138  0.3929
    5MOL0     C  582   7.295   1.722   3.060  0.0164 -0.3570 -0.6628
    5MOL0     C  583   7.350   1.744   3.199  0.6393  0.9512 -0.8613
    5MOL0    Cl  584   7.222   1.807   3.317 -0.3592 -0.1484  0.2488
    5MOL0     C  585   6.911   1.699   2.984 -0.8147  0.3635 -0.6732
    5MOL0     C  586   6.887   1.751   3.116 -0.5990 -0.6432  0.6425
    5MOL0     O  587   6.575   1.864   3.289 -0.4310 -0.5518 -0.0554
    5MOL0     C  588   6.708   1.763   3.610  0.0161 -0.5517 -0.3395
    5MOL0     C  589   6.689   1.783   3.746  1.2974  0.0424 -0.1233
    5MOL0     N  590   6.838   2.354   4.179 -0.1430 -0.6764 -0.6750
    5MOL0     N  591   6.784   2.465   4.210 -0.1155 -0.1806  0.3297
    5MOL0     C  592   6.100   3.446   4.420 -0.0282 -0.3452 -0.2694
    5MOL0     C  593   6.048   3.566   4.478  0.4190 -0.9641 -0.5206
    5MOL0     C  594   5.767   3.894   4.578 -0.3365 -0.2587  2.0195
    5MOL0     C  595   5.773   3.983   4.469 -0.0246  0.0821  0.5532
    5MOL0     C  596   5.694   4.104   4.468 -0.3343  0.7767 -0.5761
    5MOL0     C  597   5.616   4.147   4.579 -0.1828  0.5582  0.3762
    5MOL0     O  598   5.560   4.266   4.572  0.3015  0.7269 -0.4137
    5MOL0     C  599   5.440   4.298   4.634  0.0071  0.5555  0.1990
    5MOL0     C  600   5.394   4.422   4.560  0.5305 -0.3118 -0.3831
    5MOL0     C  601   5.247   4.444   4.600 -0.2255  0.4832 -1.1225
    5MOL0     C  602   5.205   4.594   4.591  0.1001  0.5276  0.0363
    5MOL0     C  603   5.194   4.628   4.453  0.2804 -0.2439  0.4883
    5MOL0     C  604   5.168   4.642   4.339 -0.5444 -0.5743 -0.0281
    5MOL0     C  605   5.616   4.058   4.692  0.1216 -1.5199 -0.4990
    5MOL0     C  606   5.689   3.941   4.691  0.1183  0.0585 -0.7947
    5MOL0     C  607   5.683   3.872   4.823  0.4972  0.5939 -0.6725
    5MOL0     H  608   5.816   3.628   4.236  0.9232 -1.6739 -1.7179
    5MOL0     H  609   5.905   3.432   4.142  1.9739  0.1924 -1.3757
    5MOL0     H  610   5.995   3.112   4.250  2.1809 -1.8334 -0.5589
    5MOL0     H  611   5.961   3.224   4.110  1.5554  3.4739  0.6478
    5MOL0     H  612   6.185   3.173   4.033  0.8817 -1.3961 -0.1623
    5MOL0     H  613   6.074   3.029   4.026  1.4040  0.8112 -2.8903
    5MOL0     H  614   6.160   2.934   4.212  2.3874 -0.9581 -0.2980
    5MOL0     H  615   6.280   3.061   4.227 -3.4430  2.8808  0.8242
    5MOL0     H  616   6.232   2.852   3.996 -0.0011 -2.1139  1.2245
    5MOL0     H  617   6.343   2.972   3.963 -0.4392 -1.0638 -1.7089
    5MOL0     H  618   6.492   2.819   4.018 -1.2931  2.6036 -2.6315
    5MOL0     H  619   6.487   2.876   4.178  3.1039 -2.1907 -2.7052
    5MOL0     H  620   6.302   2.729   4.244  2.5760  0.5880  2.3378
    5MOL0     H  621   6.303   2.651   4.084  1.0370  2.3491 -3.9663
    5MOL0     H  622   6.432   2.492   4.201  1.6225 -1.4068  2.5774
    5MOL0     H  623   6.487   2.627   4.303 -1.0645  0.2568 -0.2780
    5MOL0     H  624   6.586   2.613   4.008 -1.1237  1.5671 -0.1915
    5MOL0     H  625   6.656   2.695   4.154 -1.4836  0.7687  0.5001
    5MOL0     H  626   6.572   2.347   3.996  1.2386 -3.0457 -0.8569
    5MOL0     H  627   6.745   2.151   3.931 -2.2249  1.9814  1.0680
    5MOL0     H  628   6.902   2.135   4.027  0.5217 -1.8608 -1.0917
    5MOL0     H  629   6.811   2.060   4.214 -1.6849  0.4030  1.1420
    5MOL0     H  630   6.645   2.049   4.153 -0.1064  2.1407 -1.0466
    5MOL0     H  631   6.808   1.838   4.147 -1.2982  0.7558  0.8457
    5MOL0     H  632   6.844   1.896   3.985 -0.4020  1.8334  0.0565
    5MOL0     H  633   6.579   1.829   4.104 -1.2904  1.2448 -0.1636
    5MOL0     H  634   6.652   1.729   3.993 -2.9644 -1.4607  3.1189
    5MOL0     H  635   6.479   2.045   3.736  0.8604 -0.3074  2.3518
    5MOL0     H  636   6.498   2.013   3.496 -2.0195  0.1685  2.4622
    5MOL0     H  637   6.593   1.599   3.164  1.8022 -4.1463  1.3447
    5MOL0     H  638   6.624   1.521   2.958  1.3825  0.2172 -2.1341
    5MOL0     H  639   6.946   1.562   2.627 -1.1015  1.0629 -0.7361
    5MOL0     H  640   6.980   1.703   2.738 -0.0690 -0.0681 -2.7518
    5MOL0     H  641   7.083   1.527   2.891 -0.0281 -2.2154  0.5401
    5MOL0     H  642   7.069   1.404   2.784  4.0395 -0.5868  0.4193
    5MOL0     H  643   7.281   1.468   2.754  2.5769  3.0740  2.4438
    5MOL0     H  644   7.216   1.550   2.614 -0.0751 -1.5300 -0.0370
    5MOL0     H  645   7.175   1.733   2.823  0.3212  1.0794  0.2859
    5MOL0     H  646   7.262   1.765   2.683  1.5712 -0.8281 -1.7342
    5MOL0     H  647   7.443   1.784   2.822 -2.0059  1.0725 -1.0414
    5MOL0     H  648   7.460   1.619   2.783  2.5088  1.3024  0.8431
    5MOL0     H  649   7.332   1.544   2.990  0.5251 -0.9683  0.6920
    5MOL0     H  650   7.485   1.641   3.026 -0.3242 -1.1182  3.2878
    5MOL0     H  651   7.198   1.673   3.063 -0.0159 -0.5129 -2.7047
    5MOL0     H  652   7.294   1.819   3.009  0.0421  0.5662  1.0145
    5MOL0     H  653   7.388   1.652   3.246  1.7765  1.4504 -0.7638
    5MOL0     H  654   7.429   1.819   3.196 -2.0356  4.2557  2.4054
    5MOL0     H  655   7.009   1.724   2.944  1.3544 -0.5928  3.5351
    5MOL0     H  656   6.961   1.815   3.162  0.0557  0.5292 -1.8734
    5MOL0     H  657   6.752   1.668   3.577 -2.5118 -2.4275  1.3584
    5MOL0     H  658   6.744   1.723   3.817  0.1517  0.1407  0.8713
    5MOL0     H  659   6.178   3.391   4.471 -1.5083  0.0368  2.6357
    5MOL0     H  660   6.096   3.605   4.568  4.0526 -0.5816 -2.4231
    5MOL0     H  661   5.826   3.968   4.376 -4.3222  1.6220 -2.4299
    5MOL0     H  662   5.693   4.178   4.389 -1.5157  0.2782 -1.0578
    5MOL0     H  663   5.437   4.320   4.741 -2.8310  2.9919 -0.2746
    5MOL0     H  664   5.359   4.226   4.625 -2.3901  3.2015 -0.9257
    5MOL0     H  665   5.393   4.418   4.451 -3.1261  0.6480 -0.5018
    5MOL0     H  666   5.456   4.502   4.601  0.9627 -0.2626 -1.1112
    5MOL0     H  667   5.223   4.419   4.704  0.8156 -0.4428 -1.0808
    5MOL0     H  668   5.198   4.369   4.538  1.2421 -3.3616  1.9363
    5MOL0     H  669   5.105   4.584   4.634 -0.8805 -0.9728 -2.4178
    5MOL0     H  670   5.271   4.658   4.650 -0.7630  0.8611  0.6548
    5MOL0     H  671   5.152   4.670   4.237 -1.0673  0.2032  0.2524
    5MOL0     H  672   5.570   4.087   4.787  2.4345  0.6072  0.0813
    5MOL0     H  673   5.781   3.873   4.872 -0.2820  1.8125  0.9276
    5MOL0     H  674   5.623   3.922   4.899  1.1788  0.8342 -0.2803
    5MOL0     H  675   5.650   3.768   4.820  1.5473  0.2585 -1.0984
    6MOL0     O  676   3.561   7.188   8.254 -0.2632  0.0035  0.7219
    6MOL0     C  677   3.575   7.065   8.259  0.7066  0.5474 -0.1113
    6MOL0     O  678   3.558   6.979   8.371  0.2726 -0.5996 -0.1665
    6MOL0     C  679   3.553   7.021   8.500  0.2033  0.9348 -0.3753
    6MOL0     C  680   3.485   6.939   8.587 -0.2762 -0.1833 -2.1165
    6MOL0     C  681   3.460   6.984   8.718  0.2329  0.2958 -0.3990
    6MOL0     C  682   3.522   7.094   8.774  0.2165 -0.1658  0.2221
    6MOL0     O  683   3.508   7.122   8.908  0.0926  0.0577 -0.9370
    6MOL0     C  684   3.536   7.015   9.001  0.5907 -0.2681  0.0507
    6MOL0     C  685   3.515   7.064   9.145 -0.2130 -0.1326 -0.0379
    6MOL0     C  686   3.621   7.157   9.213 -0.2210 -0.6655 -0.4824
    6MOL0     C  687   3.754   7.111   9.175 -0.1686 -0.7034  0.1501
    6MOL0     C  688   3.845   7.203   9.257 -0.2533 -0.2057 -0.5295
    6MOL0     C  689   3.993   7.149   9.255 -0.2908  0.7280  0.3557
    6MOL0     C  690   4.087   7.241   9.335 -0.7966  0.8877  0.0860
    6MOL0     C  691   4.225   7.191   9.310 -0.4536  0.0689 -0.0892
    6MOL0     N  692   4.313   7.291   9.372  1.2139  0.1413 -0.0276
    6MOL0     C  693   4.424   7.360   9.312 -0.8498  0.3145  0.2942
    6MOL0     C  694   4.469   7.438   9.408 -0.0103 -0.3643 -0.0176
    6MOL0     C  695   4.600   7.508   9.385  1.6178 -1.1349 -0.0296
    6MOL0     C  696   4.678   7.537   9.510 -0.4921 -0.4834 -0.6871
    6MOL0     C  697   4.768   7.666   9.488  0.5743  0.6056  0.5954
    6MOL0     C  698   4.850   7.651   9.361 -0.0850  0.2304  0.5987
    6MOL0     O  699   4.921   7.524   9.371 -0.1640  0.3479 -0.2609
    6MOL0     C  700   4.999   7.486   9.264 -0.3649  0.3137 -0.2105
    6MOL0     C  701   5.100   7.574   9.206  0.7892 -0.4526  0.5357
    6MOL0     C  702   5.181   7.530   9.105  0.3700  0.1535  0.2986
    6MOL0     C  703   5.183   7.391   9.062 -0.4891 -0.3021  1.7515
    6MOL0     C  704   5.267   7.342   8.952 -0.4155  0.7336  0.3333
    6MOL0     O  705   5.215   7.237   8.878 -0.1496 -0.4862 -0.3551
    6MOL0     C  706   5.299   7.179   8.789  0.0988 -0.1185 -0.7766
    6MOL0     C  707   5.318   7.245   8.669 -0.2957  0.7843  0.1479
    6MOL0     C  708   5.419   7.202   8.573 -0.8692  0.8115  0.8106
    6MOL0     C  709   5.514   7.102   8.600 -0.3015 -0.4793  0.5968
    6MOL0     O  710   5.625   7.093   8.512  0.1711  0.0625  0.3225
    6MOL0     C  711   5.723   6.993   8.550  0.3147 -0.5490 -0.0999
    6MOL0     C  712   5.832   6.952   8.454  0.0913 -0.1234 -1.4276
    6MOL0     C  713   5.949   7.050   8.473 -0.0168  0.1019 -0.1698
    6MOL0     C  714   6.082   6.970   8.443 -0.6809  0.4761 -0.6442
    6MOL0     C  715   6.091   6.905   8.312  0.4269  0.6645 -0.2707
    6MOL0     C  716   6.076   7.000   8.197  0.2756  0.5580 -0.6497
    6MOL0     C  717   6.099   6.935   8.059  1.2077  0.3894 -0.6774
    6MOL0     C  718   6.107   7.043   7.952  0.3813  0.2118  0.1343
    6MOL0    Cl  719   6.268   7.103   7.970  0.3009  0.0887  0.5561
    6MOL0     C  720   5.500   7.040   8.728  0.3623 -0.3432 -0.7080
    6MOL0     C  721   5.395   7.077   8.823 -0.0586 -0.1478 -0.4818
    6MOL0     O  722   5.369   7.409   8.934  0.2834 -0.2269  0.7494
    6MOL0     C  723   5.085   7.303   9.114  0.8251 -0.0768 -0.2660
    6MOL0     C  724   4.995   7.351   9.216 -0.4555 -0.8857  0.5415
    6MOL0     N  725   4.386   7.425   9.526 -0.8934  0.7176  0.2584
    6MOL0     N  726   4.307   7.329   9.502 -0.5086 -0.3264 -0.4259
    6MOL0     C  727   3.603   7.172   8.686  0.3532  0.0686 -0.0224
    6MOL0     C  728   3.617   7.134   8.545 -0.1746  0.7170 -1.0931
    6MOL0     C  729   3.565   6.976   8.132 -0.4386 -1.2272 -0.7145
    6MOL0     C  730   3.533   6.843   8.137 -0.5029  0.5846  0.6908
    6MOL0     C  731   3.505   6.777   8.025  0.3021  0.4104  0.8732
    6MOL0     C  732   3.519   6.835   7.895 -0.5159 -0.7555 -0.3384
    6MOL0     O  733   3.496   6.748   7.795  0.2117  0.4946  0.2184
    6MOL0     C  734   3.486   6.794   7.659  0.3077  0.8195 -0.3705
    6MOL0     C  735   3.355   6.861   7.621  0.1240  0.0066 -0.1868
    6MOL0     C  736   3.322   6.858   7.469  0.6921 -0.3287 -0.3588
    6MOL0     C  737   3.169   6.857   7.449  1.4718  0.4219  0.5130
    6MOL0     C  738   3.103   6.964   7.517 -0.7716 -0.9109 -0.0598
    6MOL0     C  739   3.026   7.039   7.566 -0.0931 -1.1630 -0.1513
    6MOL0     C  740   3.565   6.965   7.883 -0.4197 -1.0469  0.4360
    6MOL0     C  741   3.586   7.041   8.001  0.3304  0.2775  0.7624
    6MOL0     C  742   3.640   7.180   7.975  0.1650 -0.7742  0.0806
    6MOL0     H  743   3.438   6.845   8.558  1.4058 -1.7471 -0.1419
    6MOL0     H  744   3.401   6.915   8.777 -1.3493 -1.7601 -4.0415
    6MOL0     H  745   3.458   6.940   8.982  0.0394  0.7686 -2.1695
    6MOL0     H  746   3.630   6.963   8.981  0.2903 -1.1620  0.8617
    6MOL0     H  747   3.493   6.973   9.202 -0.9387  0.0051 -0.0954
    6MOL0     H  748   3.420   7.117   9.135 -0.2541 -0.2450 -0.2350
    6MOL0     H  749   3.603   7.147   9.320 -0.6224 -2.5706 -0.6908
    6MOL0     H  750   3.595   7.259   9.184  2.7034 -0.3326 -2.3762
    6MOL0     H  751   3.763   7.005   9.198 -1.3568 -0.0344  4.4552
    6MOL0     H  752   3.781   7.135   9.071  1.9515  0.3149  0.8809
    6MOL0     H  753   3.842   7.294   9.197  0.5194 -1.0131 -1.8404
    6MOL0     H  754   3.822   7.223   9.362  1.1660 -0.5938 -0.1188
    6MOL0     H  755   3.999   7.046   9.293  0.8983 -0.0552 -1.8084
    6MOL0     H  756   4.030   7.127   9.155 -0.1041 -3.2095  1.1087
    6MOL0     H  757   4.048   7.242   9.438  1.4857  1.1441  0.9968
    6MOL0     H  758   4.079   7.341   9.290 -0.5585 -0.4379 -3.1237
    6MOL0     H  759   4.244   7.102   9.370 -1.5790 -1.0105 -1.2592
    6MOL0     H  760   4.247   7.175   9.204 -2.1604 -0.1836 -0.4476
    6MOL0     H  761   4.466   7.360   9.212 -0.0341 -0.9448  0.6081
    6MOL0     H  762   4.663   7.448   9.318  1.7908 -1.0059  0.0176
    6MOL0     H  763   4.583   7.601   9.329  1.3224 -0.7872  0.6286
    6MOL0     H  764   4.619   7.541   9.603  0.1919  1.9034 -0.2859
    6MOL0     H  765   4.741   7.452   9.536 -1.4740 -0.7654  0.9825
    6MOL0     H  766   4.845   7.674   9.565  0.8856  0.0009  0.3510
    6MOL0     H  767   4.705   7.755   9.493  0.9025  0.7719  1.8971
    6MOL0     H  768   4.919   7.735   9.355 -0.6028  0.8589  2.5040
    6MOL0     H  769   4.786   7.655   9.273 -1.4278 -1.9998  1.3819
    6MOL0     H  770   5.109   7.676   9.240  3.3449  0.0206 -1.3473
    6MOL0     H  771   5.259   7.592   9.064 -0.9201  0.0925 -2.4355
    6MOL0     H  772   5.258   7.334   8.650  0.1783  1.1128  0.1602
    6MOL0     H  773   5.446   7.247   8.479  0.2128 -4.4367 -1.7926
    6MOL0     H  774   5.764   7.024   8.647 -1.4961  0.1883  0.4717
    6MOL0     H  775   5.667   6.900   8.561  3.5516 -2.5507  0.7170
    6MOL0     H  776   5.871   6.864   8.505 -0.3684 -0.1151 -1.0587
    6MOL0     H  777   5.798   6.927   8.353  1.8908  0.7232 -2.3107
    6MOL0     H  778   5.945   7.143   8.416 -0.7233  0.9504  1.2098
    6MOL0     H  779   5.970   7.068   8.579 -0.4877 -1.9187  0.3045
    6MOL0     H  780   6.093   6.891   8.519  1.6625  0.9445 -0.4201
    6MOL0     H  781   6.165   7.039   8.460  0.9514 -0.8100 -2.8370
    6MOL0     H  782   6.020   6.824   8.293  3.2250 -1.9509 -0.3224
    6MOL0     H  783   6.191   6.863   8.309 -0.0126 -0.4369 -0.0893
    6MOL0     H  784   5.973   7.038   8.203 -0.3552 -1.2469  1.2656
    6MOL0     H  785   6.141   7.085   8.217 -1.2113  1.1421  2.3615
    6MOL0     H  786   6.009   6.880   8.033  0.8616 -0.6188  2.2855
    6MOL0     H  787   6.185   6.869   8.046 -0.0769 -1.7848  1.2534
    6MOL0     H  788   6.100   6.989   7.857 -1.0866  0.4388  0.0913
    6MOL0     H  789   6.032   7.121   7.940  3.0113  2.4761 -4.3443
    6MOL0     H  790   5.572   6.973   8.774 -0.8497 -1.6755 -0.6826
    6MOL0     H  791   5.398   7.016   8.912 -0.8591  1.4031  0.6627
    6MOL0     H  792   5.077   7.199   9.082 -1.1867 -0.4916  1.3694
    6MOL0     H  793   4.926   7.285   9.267 -0.2420 -2.9294 -1.6736
    6MOL0     H  794   3.653   7.259   8.727  0.6092  1.5274 -3.1507
    6MOL0     H  795   3.684   7.186   8.477 -1.2494 -1.8607 -4.4657
    6MOL0     H  796   3.532   6.792   8.233 -2.8534  1.7227  1.3570
    6MOL0     H  797   3.471   6.674   8.027  0.6649  0.2835  0.6363
    6MOL0     H  798   3.481   6.701   7.601 -2.3349  1.5824 -1.5014
    6MOL0     H  799   3.576   6.851   7.636  1.8238 -0.9774  0.7066
    6MOL0     H  800   3.346   6.966   7.653  0.4942 -0.3216  1.0300
    6MOL0     H  801   3.271   6.811   7.669  1.0924 -1.5204 -0.0415
    6MOL0     H  802   3.351   6.764   7.422 -3.4395 -2.3294  0.6575
    6MOL0     H  803   3.369   6.948   7.430 -1.1868  1.8063  1.9191
    6MOL0     H  804   3.146   6.850   7.342  0.7161 -0.4367  0.7178
    6MOL0     H  805   3.123   6.762   7.477 -3.3580  2.6571  1.1138
    6MOL0     H  806   2.956   7.111   7.603  0.1975 -0.4310 -0.9761
    6MOL0     H  807   3.579   7.013   7.787 -0.1652 -1.0396  0.4757
    6MOL0     H  808   3.683   7.207   7.878 -1.3309 -1.1259 -0.7065
    6MOL0     H  809   3.567   7.256   8.001 -0.0608 -1.0639  0.3095
    6MOL0     H  810   3.723   7.202   8.043  0.8196 -3.6831  0.3953
    7MOL0     O  811   2.404   7.033   3.726  0.5459 -0.0012  0.0060
    7MOL0     C  812   2.338   6.925   3.743 -0.5341  0.0659 -0.6046
    7MOL0     O  813   2.259   6.874   3.654  0.4138 -0.0735 -0.9140
    7MOL0     C  814   2.186   6.958   3.583  0.6304 -0.0264  0.2334
    7MOL0     C  815   2.165   7.098   3.590  0.1418 -0.2713  0.7375
    7MOL0     C  816   2.067   7.163   3.508 -0.6726 -0.8558 -1.1741
    7MOL0     C  817   1.997   7.102   3.418  0.4907  0.1948  0.5251
    7MOL0     O  818   1.896   7.175   3.359 -0.3725 -0.6611  0.3632
    7MOL0     C  819   1.820   7.106   3.252  0.6949 -0.2513  0.6213
    7MOL0     C  820   1.722   7.205   3.191  0.1855 -1.1181 -0.3683
    7MOL0     C  821   1.603   7.235   3.275 -0.5258  1.2607 -0.1050
    7MOL0     C  822   1.526   7.352   3.224  0.0081 -0.5527 -0.6745
    7MOL0     C  823   1.405   7.385   3.313 -0.1690 -0.1493 -0.4394
    7MOL0     C  824   1.312   7.261   3.364  0.0689 -0.1468  0.9622
    7MOL0     C  825   1.165   7.312   3.388 -0.3264 -0.0527 -0.3422
    7MOL0     C  826   1.068   7.212   3.448 -0.7152 -0.9809 -0.5844
    7MOL0     N  827   0.934   7.266   3.496 -1.1994 -0.3600 -0.0816
    7MOL0     C  828   0.809   7.224   3.449  0.5186  0.4676  0.0497
    7MOL0     C  829   0.715   7.305   3.509 -0.0754 -0.5372 -0.0465
    7MOL0     C  830   0.565   7.324   3.479  0.2712 -0.0547  0.3756
    7MOL0     C  831   0.462   7.313   3.598  0.0666 -0.3678 -0.6805
    7MOL0     C  832   0.314   7.323   3.561 -0.6678  0.8602 -0.3748
    7MOL0     C  833   0.243   7.191   3.521 -0.8201 -0.4832  0.3095
    7MOL0     O  834   0.247   7.097   3.624 -0.4301  0.2402  0.1172
    7MOL0     C  835   0.244   6.962   3.598  0.7457  0.9864  0.4908
    7MOL0     C  836   0.238   6.873   3.700  0.1697  0.3999  0.7560
    7MOL0     C  837   0.244   6.734   3.692 -0.4656 -0.4900  0.0703
    7MOL0     C  838   0.265   6.682   3.568  0.5990  0.2218  0.1927
    7MOL0     C  839   0.298   6.538   3.548 -0.4313  0.0546 -0.4768
    7MOL0     O  840   0.303   6.465   3.659 -0.7718  0.0863  0.1961
    7MOL0     C  841   0.308   6.328   3.648 -0.0718  0.3266 -0.1244
    7MOL0     C  842   0.389   6.266   3.741  0.4880 -0.3191  0.5586
    7MOL0     C  843   0.399   6.122   3.732  0.7042 -1.6164  0.1800
    7MOL0     C  844   0.330   6.040   3.644  0.4817 -0.0676  0.5601
    7MOL0     O  845   0.348   5.903   3.633  0.5326  0.2993  0.2852
    7MOL0     C  846   0.382   5.838   3.503  0.1190 -0.2788 -0.8344
    7MOL0     C  847   0.412   5.688   3.529  0.8769 -0.0142 -0.3550
    7MOL0     C  848   0.290   5.619   3.597  0.1792 -0.7081  0.4984
    7MOL0     C  849   0.292   5.629   3.754 -0.0437 -0.6820 -0.0416
    7MOL0     C  850   0.175   5.554   3.829 -1.0474 -0.0328 -0.0767
    7MOL0     C  851   0.172   5.402   3.806  0.0843  0.0794  0.4090
    7MOL0     C  852   0.073   5.340   3.901  0.7238 -0.2975  0.2222
    7MOL0     C  853   0.066   5.187   3.883 -0.4710  0.6853  0.8730
    7MOL0    Cl  854  -0.009   5.088   4.017 -0.0491  0.1419 -0.5546
    7MOL0     C  855   0.226   6.108   3.568  0.2763 -0.0144  0.5543
    7MOL0     C  856   0.210   6.251   3.577 -1.2977  0.4722  0.4853
    7MOL0     O  857   0.322   6.495   3.433  0.3717  0.4789  0.2814
    7MOL0     C  858   0.279   6.768   3.460 -0.0317 -0.0697 -0.6320
    7MOL0     C  859   0.267   6.903   3.473 -0.6911  0.1881 -1.0557
    7MOL0     N  860   0.794   7.387   3.594 -0.3896 -0.1507  0.2799
    7MOL0     N  861   0.919   7.371   3.584 -0.1322  0.0605  0.9572
    7MOL0     C  862   2.013   6.964   3.409 -0.3809 -0.2535  0.3696
    7MOL0     C  863   2.115   6.894   3.479  0.5661 -0.0792 -0.0990
    7MOL0     C  864   2.358   6.848   3.873 -0.3264  0.3962 -0.7584
    7MOL0     C  865   2.344   6.707   3.871 -0.2140 -0.3821  0.5618
    7MOL0     C  866   2.376   6.627   3.975  0.4480 -0.1639  0.1682
    7MOL0     C  867   2.422   6.674   4.090  0.8201 -0.7391 -0.1566
    7MOL0     O  868   2.443   6.577   4.187  0.0005  0.0815  0.6890
    7MOL0     C  869   2.513   6.616   4.315 -0.2343 -0.3678 -0.5884
    7MOL0     C  870   2.664   6.631   4.312  0.6435 -0.5164 -0.5331
    7MOL0     C  871   2.734   6.521   4.222  0.6826  0.2393 -0.3008
    7MOL0     C  872   2.884   6.519   4.238  0.3432  0.9718 -0.4654
    7MOL0     C  873   2.945   6.652   4.235 -0.3456 -0.5385 -0.2630
    7MOL0     C  874   2.989   6.760   4.254  0.2624  0.2352  0.2852
    7MOL0     C  875   2.440   6.815   4.107 -0.8686  1.1898 -0.4657
    7MOL0     C  876   2.408   6.905   3.998  0.9608 -0.6980  0.3983
    7MOL0     C  877   2.424   7.049   4.025  0.7957  0.1295  0.1089
    7MOL0     H  878   2.206   7.151   3.676  0.1716  1.6288 -0.4043
    7MOL0     H  879   2.057   7.270   3.517  0.9229 -0.6538 -1.6677
    7MOL0     H  880   1.888   7.082   3.170  1.1978  3.7689 -0.3331
    7MOL0     H  881   1.756   7.019   3.271  1.5349 -0.5915  2.0836
    7MOL0     H  882   1.686   7.171   3.093  0.0973 -1.7311 -0.1289
    7MOL0     H  883   1.780   7.296   3.178 -0.8327  0.0737  2.6759
    7MOL0     H  884   1.641   7.249   3.377  1.5877  1.1011 -0.8389
    7MOL0     H  885   1.543   7.144   3.272  0.3208  0.6960 -0.1816
    7MOL0     H  886   1.596   7.436   3.217 -0.0036 -0.4151  0.5229
    7MOL0     H  887   1.494   7.331   3.122 -2.8942 -1.8929  0.4165
    7MOL0     H  888   1.438   7.444   3.398 -1.2246 -0.6655  0.3510
    7MOL0     H  889   1.337   7.453   3.262 -2.6311 -0.0590  2.6781
    7MOL0     H  890   1.311   7.177   3.295  1.4740  0.3701  0.2834
    7MOL0     H  891   1.359   7.217   3.452  1.0932  0.4573  0.7249
    7MOL0     H  892   1.136   7.352   3.290  0.6680  2.0922  0.1811
    7MOL0     H  893   1.158   7.396   3.458  0.5765 -1.9832  2.2063
    7MOL0     H  894   1.044   7.141   3.368 -1.2473 -0.9744 -0.4335
    7MOL0     H  895   1.120   7.153   3.524 -3.0293  0.3863  2.2495
    7MOL0     H  896   0.797   7.148   3.371  3.7740 -2.9617  2.5320
    7MOL0     H  897   0.560   7.425   3.437  2.6452  0.7590  1.8476
    7MOL0     H  898   0.545   7.250   3.401  2.1052  2.0780 -2.2803
    7MOL0     H  899   0.476   7.222   3.657 -2.0195 -2.0833 -2.6621
    7MOL0     H  900   0.481   7.407   3.652 -4.0912  0.6056 -0.6189
    7MOL0     H  901   0.297   7.386   3.473  0.0964 -1.1138 -2.0243
    7MOL0     H  902   0.279   7.374   3.651 -1.6745  2.6282 -1.7060
    7MOL0     H  903   0.284   7.154   3.427 -0.8250 -0.2798  0.2270
    7MOL0     H  904   0.137   7.210   3.501 -0.3073  1.7990 -0.5700
    7MOL0     H  905   0.222   6.903   3.803 -0.1242  1.5528  0.3878
    7MOL0     H  906   0.256   6.691   3.791  0.8832  1.0914  0.6460
    7MOL0     H  907   0.440   6.332   3.810 -1.5482  1.7557  0.2186
    7MOL0     H  908   0.463   6.079   3.808  0.4884  0.1363  1.3980
    7MOL0     H  909   0.302   5.850   3.430 -0.3607 -1.6702 -0.5608
    7MOL0     H  910   0.473   5.896   3.483  0.6131  1.6998  5.0007
    7MOL0     H  911   0.419   5.634   3.434 -2.7996 -1.7286  0.1806
    7MOL0     H  912   0.505   5.673   3.587  0.9223 -1.3196 -0.7277
    7MOL0     H  913   0.192   5.639   3.552 -0.0764 -1.3640  0.7423
    7MOL0     H  914   0.309   5.513   3.576  1.6421 -0.5449  0.8844
    7MOL0     H  915   0.294   5.734   3.785  2.3729 -1.4415  2.9295
    7MOL0     H  916   0.392   5.594   3.784  0.7683  1.7466  0.3427
    7MOL0     H  917   0.074   5.588   3.805 -0.8700 -1.1146 -2.6554
    7MOL0     H  918   0.188   5.577   3.935 -0.8248  1.1586 -0.3485
    7MOL0     H  919   0.133   5.391   3.704  4.3321  2.5497 -1.7784
    7MOL0     H  920   0.267   5.348   3.818 -0.6860 -1.0003  1.9473
    7MOL0     H  921  -0.026   5.384   3.891  1.1802  0.7127  0.0530
    7MOL0     H  922   0.114   5.352   4.002  0.9337 -1.7548  0.3324
    7MOL0     H  923   0.015   5.171   3.787 -0.2616  0.3942  0.8090
    7MOL0     H  924   0.169   5.150   3.878 -0.0057  1.6849  2.5791
    7MOL0     H  925   0.160   6.040   3.514 -0.2594  0.8628  0.0851
    7MOL0     H  926   0.138   6.288   3.505  2.0164 -0.0861 -3.5068
    7MOL0     H  927   0.284   6.731   3.359  1.2702  2.1659 -1.4633
    7MOL0     H  928   0.285   6.948   3.376  0.7464 -1.3739 -1.5515
    7MOL0     H  929   1.971   6.922   3.318  1.2683  1.8517 -1.4763
    7MOL0     H  930   2.115   6.786   3.465 -2.6485  0.1400 -3.3751
    7MOL0     H  931   2.316   6.664   3.775 -1.9735  0.9992  0.4150
    7MOL0     H  932   2.365   6.520   3.965  1.2209 -0.1185 -1.6025
    7MOL0     H  933   2.501   6.527   4.377  0.7058 -0.1069 -0.0221
    7MOL0     H  934   2.465   6.700   4.366  1.6001  1.7095 -2.0886
    7MOL0     H  935   2.688   6.628   4.419 -1.4105 -1.6822 -0.0419
    7MOL0     H  936   2.690   6.733   4.281  2.7410 -1.2055 -1.2001
    7MOL0     H  937   2.711   6.561   4.123 -0.1119  2.2230  0.6332
    7MOL0     H  938   2.684   6.425   4.240 -0.7448  0.8493 -0.8418
    7MOL0     H  939   2.895   6.458   4.329 -3.6972 -0.5564 -0.7865
    7MOL0     H  940   2.933   6.468   4.155  0.9281  0.3879  0.2195
    7MOL0     H  941   3.029   6.855   4.284 -3.7894  2.2930 -0.1387
    7MOL0     H  942   2.482   6.854   4.199 -1.5253  0.3641  0.1922
    7MOL0     H  943   2.522   7.080   3.988  0.5165  0.3347 -0.4701
    7MOL0     H  944   2.344   7.099   3.969 -0.9913 -0.4718  1.9873
    7MOL0     H  945   2.402   7.068   4.130 -0.0657  0.7231 -0.1605
    8MOL0     O  946   2.019   2.632   3.442 -0.1000  0.3200  0.0295
    8MOL0     C  947   1.911   2.607   3.409 -0.7635 -0.6895 -0.1449
    8MOL0     O  948   1.842   2.682   3.317 -0.1203  0.0929 -0.0320
    8MOL0     C  949   1.862   2.816   3.302  0.0145 -0.5927  0.1417
    8MOL0     C  950   1.918   2.905   3.391 -0.1283 -0.2933 -0.2245
    8MOL0     C  951   1.938   3.041   3.363 -0.3626  0.1201  0.2042
    8MOL0     C  952   1.900   3.097   3.244  0.7419  0.2364  0.9458
    8MOL0     O  953   1.918   3.226   3.218  0.5515 -0.4937 -0.4076
    8MOL0     C  954   1.963   3.264   3.085  0.4370 -0.0014 -0.7875
    8MOL0     C  955   2.008   3.416   3.089  0.2163 -0.1798 -0.3847
    8MOL0     C  956   2.147   3.427   3.044 -0.5041 -0.5535  0.4978
    8MOL0     C  957   2.229   3.565   3.061  0.4594  0.5228 -0.4457
    8MOL0     C  958   2.219   3.655   2.928 -0.8306  0.4646 -0.3470
    8MOL0     C  959   2.071   3.705   2.895 -0.1377 -0.2634 -0.5725
    8MOL0     C  960   2.084   3.839   2.819  0.6591  0.4136 -1.5267
    8MOL0     C  961   2.159   3.823   2.687  0.2260 -0.3017  0.1928
    8MOL0     N  962   2.162   3.953   2.617  1.4692 -0.0878 -0.1432
    8MOL0     C  963   2.277   4.031   2.608 -0.0001 -0.2527  0.0275
    8MOL0     C  964   2.246   4.131   2.513  0.4417 -0.1590  0.2076
    8MOL0     C  965   2.321   4.260   2.481  0.7884  0.0584 -0.0685
    8MOL0     C  966   2.274   4.390   2.555 -0.4516  0.3362 -0.6572
    8MOL0     C  967   2.296   4.378   2.710 -0.3016  0.6952 -1.1505
    8MOL0     C  968   2.251   4.514   2.777  0.5059 -0.6281  0.1830
    8MOL0     O  969   2.317   4.625   2.721  0.5228  0.0815  0.1351
    8MOL0     C  970   2.432   4.647   2.785  1.0525  0.3743 -0.3891
    8MOL0     C  971   2.437   4.706   2.919  1.1463  1.0993  0.3522
    8MOL0     C  972   2.550   4.716   2.993  0.3295  0.1461 -0.0556
    8MOL0     C  973   2.669   4.671   2.940 -0.6582 -0.4570 -0.9912
    8MOL0     C  974   2.796   4.711   3.007 -0.0113  0.0521 -0.8426
    8MOL0     O  975   2.796   4.841   3.058  0.0338  0.4031 -0.2721
    8MOL0     C  976   2.893   4.858   3.157 -0.9681  0.0989  0.1269
    8MOL0     C  977   3.024   4.897   3.125  0.1590 -0.9094 -0.1001
    8MOL0     C  978   3.106   4.941   3.228  0.4717  0.3860  0.3804
    8MOL0     C  979   3.076   4.949   3.364 -0.2150  0.3542 -0.0748
    8MOL0     O  980   3.148   5.001   3.464  0.7472 -0.2118  0.0325
    8MOL0     C  981   3.289   4.985   3.467 -0.8791 -1.1717 -0.1188
    8MOL0     C  982   3.333   4.887   3.578 -0.0977  0.3499  0.0530
    8MOL0     C  983   3.248   4.765   3.595  0.4574 -0.6919 -0.8707
    8MOL0     C  984   3.284   4.671   3.715  0.0677  0.6076 -0.8306
    8MOL0     C  985   3.199   4.560   3.742 -0.3846  0.2696  0.1524
    8MOL0     C  986   3.050   4.587   3.751 -0.5171  0.1127  0.5737
    8MOL0     C  987   2.984   4.461   3.799 -0.6458 -0.0943 -0.0388
    8MOL0     C  988   2.827   4.473   3.814 -0.4388 -0.2447  1.0119
    8MOL0    Cl  989   2.764   4.571   3.946 -0.6413 -0.1653 -0.0928
    8MOL0     C  990   2.953   4.908   3.394 -0.4244  0.6513 -0.0169
    8MOL0     C  991   2.859   4.862   3.297 -0.0756 -0.3878  0.2860
    8MOL0     O  992   2.892   4.633   3.014  0.6865  0.4864  0.1640
    8MOL0     C  993   2.668   4.618   2.812 -0.4913 -0.1434  0.3004
    8MOL0     C  994   2.547   4.599   2.734 -1.4858  0.0573 -0.0193
    8MOL0     N  995   2.116   4.108   2.473  0.0415 -0.6034  0.2992
    8MOL0     N  996   2.064   4.011   2.535  0.4652 -0.3226 -0.1282
    8MOL0     C  997   1.829   3.005   3.150  0.5165  0.3154  0.2871
    8MOL0     C  998   1.812   2.869   3.184  0.4971 -0.2623  0.1071
    8MOL0     C  999   1.846   2.494   3.470  0.6331 -0.6208 -0.6113
    8MOL0     C 1000   1.839   2.377   3.400  0.6768  0.1908  0.3888
    8MOL0     C 1001   1.768   2.274   3.444 -0.3515  0.7911 -0.2909
    8MOL0     C 1002   1.697   2.278   3.570  0.2167 -0.7049 -0.8447
    8MOL0     O 1003   1.635   2.171   3.626 -0.6695  0.3373 -0.2074
    8MOL0     C 1004   1.734   2.076   3.668 -0.1121  0.4549 -0.4489
    8MOL0     C 1005   1.664   1.977   3.750  0.6325  0.5486  0.4927
    8MOL0     C 1006   1.591   2.049   3.865  0.0103  0.5119  0.4301
    8MOL0     C 1007   1.525   1.941   3.955  0.0953  0.5625  0.7762
    8MOL0     C 1008   1.611   1.833   4.011 -0.5040 -0.8912 -0.8410
    8MOL0     C 1009   1.659   1.744   4.074 -0.7200 -0.1038  1.2365
    8MOL0     C 1010   1.694   2.403   3.644 -0.3161  0.5599  0.1634
    8MOL0     C 1011   1.771   2.507   3.588 -0.0069 -0.3568  0.2728
    8MOL0     C 1012   1.772   2.636   3.663 -0.1855 -0.2733 -0.0473
    8MOL0     H 1013   1.947   2.865   3.488 -0.0292  2.3092  0.9068
    8MOL0     H 1014   1.986   3.100   3.441 -4.5918  0.1017  3.2152
    8MOL0     H 1015   2.044   3.194   3.061 -1.2605 -1.5792 -2.1880
    8MOL0     H 1016   1.882   3.239   3.017  2.0856 -1.4851 -2.2978
    8MOL0     H 1017   1.999   3.443   3.195 -0.6943 -1.4424 -0.1092
    8MOL0     H 1018   1.945   3.477   3.023  1.2136  2.0254  0.6109
    8MOL0     H 1019   2.153   3.416   2.936  1.9575  3.2928  0.0389
    8MOL0     H 1020   2.205   3.354   3.103  1.1442  1.4456  1.4889
    8MOL0     H 1021   2.199   3.615   3.154  1.6219 -3.3177  2.2511
    8MOL0     H 1022   2.336   3.547   3.073  0.3711 -0.5748 -1.1737
    8MOL0     H 1023   2.265   3.750   2.956 -0.2115  0.8020 -2.3875
    8MOL0     H 1024   2.269   3.607   2.844 -1.4193 -1.8819  0.5711
    8MOL0     H 1025   2.011   3.631   2.840 -0.5634  0.3999 -1.0147
    8MOL0     H 1026   2.016   3.728   2.987 -0.9273  2.7847 -1.6964
    8MOL0     H 1027   2.131   3.912   2.884 -1.1767  0.2641  0.0718
    8MOL0     H 1028   1.980   3.873   2.812  0.9149  0.9245 -3.6556
    8MOL0     H 1029   2.259   3.781   2.700  0.3961  0.2622  0.7823
    8MOL0     H 1030   2.107   3.747   2.628 -2.5258 -0.2417  2.3466
    8MOL0     H 1031   2.369   4.014   2.664 -1.2390 -1.1486  1.9151
    8MOL0     H 1032   2.429   4.249   2.493  0.6002 -0.1066  1.6799
    8MOL0     H 1033   2.322   4.277   2.373 -1.6871 -2.0769 -0.5224
    8MOL0     H 1034   2.344   4.467   2.520  0.0221 -0.1870 -0.8696
    8MOL0     H 1035   2.170   4.419   2.544 -0.8924  2.4093  5.1038
    8MOL0     H 1036   2.402   4.361   2.728 -0.3349  0.8595 -0.7833
    8MOL0     H 1037   2.233   4.298   2.749  0.6579 -0.3373 -1.6720
    8MOL0     H 1038   2.269   4.505   2.884 -2.0525 -3.4892  0.5122
    8MOL0     H 1039   2.143   4.522   2.762  0.5908 -0.4015 -0.3293
    8MOL0     H 1040   2.338   4.731   2.956 -0.1070  1.3939 -2.8787
    8MOL0     H 1041   2.546   4.770   3.087  0.3390 -5.8539  3.8954
    8MOL0     H 1042   3.044   4.907   3.019 -1.4205  1.8179 -0.2459
    8MOL0     H 1043   3.202   4.981   3.196  0.0253  1.5586  0.4618
    8MOL0     H 1044   3.324   4.970   3.364 -2.1722  1.2221 -0.9997
    8MOL0     H 1045   3.337   5.079   3.496  0.6898 -2.4383  1.5735
    8MOL0     H 1046   3.439   4.863   3.575  0.4768  2.6864 -0.2049
    8MOL0     H 1047   3.322   4.949   3.667 -0.9465  2.3227 -1.3666
    8MOL0     H 1048   3.143   4.796   3.604  0.6819  0.4433 -1.8917
    8MOL0     H 1049   3.247   4.707   3.502  3.0258  0.1118 -1.4819
    8MOL0     H 1050   3.278   4.727   3.809 -1.6626 -1.1646  0.1707
    8MOL0     H 1051   3.387   4.639   3.697  0.7679  3.3384 -2.3614
    8MOL0     H 1052   3.240   4.511   3.830 -1.5929 -0.8403  0.1277
    8MOL0     H 1053   3.204   4.488   3.660 -1.0615 -2.5089  2.4034
    8MOL0     H 1054   3.038   4.670   3.822 -0.3146  2.5190 -2.0076
    8MOL0     H 1055   3.011   4.622   3.655 -0.9329  3.4259  1.8150
    8MOL0     H 1056   3.038   4.421   3.885  1.4578 -2.7525 -2.3950
    8MOL0     H 1057   2.997   4.391   3.715 -0.1880  0.3597 -0.3566
    8MOL0     H 1058   2.807   4.516   3.716  3.6892 -0.5621 -0.1785
    8MOL0     H 1059   2.778   4.376   3.824 -1.2125 -0.4033 -2.9397
    8MOL0     H 1060   2.936   4.889   3.500  2.2383 -0.6038  0.2607
    8MOL0     H 1061   2.760   4.826   3.320 -1.4487  1.2813 -2.5249
    8MOL0     H 1062   2.756   4.577   2.765 -2.2365 -2.6689 -1.0239
    8MOL0     H 1063   2.553   4.539   2.643  0.7854  2.3833 -1.5399
    8MOL0     H 1064   1.795   3.032   3.050  0.4360 -2.8346 -0.6221
    8MOL0     H 1065   1.738   2.809   3.132  0.6443 -0.7706  0.4806
    8MOL0     H 1066   1.897   2.368   3.309  0.6623  2.2505  0.1262
    8MOL0     H 1067   1.779   2.185   3.383  1.1258  0.4751  0.3883
    8MOL0     H 1068   1.806   2.128   3.732  0.7094 -0.0659 -0.9269
    8MOL0     H 1069   1.777   2.020   3.584 -3.0390 -2.1474 -0.3849
    8MOL0     H 1070   1.736   1.903   3.788  0.3256  0.2415  0.4761
    8MOL0     H 1071   1.591   1.932   3.682 -1.4465  0.0346  2.9320
    8MOL0     H 1072   1.500   2.104   3.838  0.3378  0.4247 -0.8718
    8MOL0     H 1073   1.645   2.123   3.925  0.6469  0.1722  0.2850
    8MOL0     H 1074   1.471   2.002   4.029 -1.0358 -1.7870  1.9867
    8MOL0     H 1075   1.455   1.886   3.891 -0.3152  1.6476  0.2612
    8MOL0     H 1076   1.699   1.664   4.133 -3.8845 -2.2588  0.7318
    8MOL0     H 1077   1.636   2.418   3.735 -1.2412  2.5905 -0.6860
    8MOL0     H 1078   1.796   2.715   3.593  4.4071  2.1801  3.7452
    8MOL0     H 1079   1.672   2.650   3.705  0.7731  0.1953  2.2499
    8MOL0     H 1080   1.840   2.623   3.748 -0.7529  0.8155  0.5996
    9MOL0     O 1081   6.468   6.133   0.233 -0.8731 -0.0615 -0.5852
    9MOL0     C 1082   6.461   6.053   0.138 -0.3714  0.0744 -0.0819
    9MOL0     O 1083   6.531   5.940   0.117  0.1423 -0.8236  0.2328
    9MOL0     C 1084   6.625   5.916   0.215  0.4301  0.3270  0.4008
    9MOL0     C 1085   6.590   5.814   0.302 -0.4190 -0.5946  0.4557
    9MOL0     C 1086   6.687   5.782   0.402  0.3117  1.0656 -0.1212
    9MOL0     C 1087   6.807   5.862   0.424  0.2191  0.0363 -0.1615
    9MOL0     O 1088   6.901   5.840   0.528  0.8652  0.2021  0.8087
    9MOL0     C 1089   6.956   5.951   0.593 -0.0024 -0.1186 -0.4884
    9MOL0     C 1090   7.057   5.919   0.702 -0.3322  0.4869  0.1631
    9MOL0     C 1091   7.118   6.050   0.747 -0.5467  0.3648 -0.4332
    9MOL0     C 1092   7.178   6.037   0.894  0.1157 -0.3432 -0.0090
    9MOL0     C 1093   7.290   6.147   0.920  0.1380  0.3870  0.4712
    9MOL0     C 1094   7.411   6.128   0.819  0.3735 -0.1010  0.1518
    9MOL0     C 1095   7.502   6.257   0.820 -0.3370  0.9055 -0.1138
    9MOL0     C 1096   7.465   6.366   0.712  0.2832 -0.7771  0.0932
    9MOL0     N 1097   7.344   6.444   0.745 -0.0295 -0.8372  0.2298
    9MOL0     C 1098   7.289   6.498   0.861 -0.0703  0.3456 -0.2065
    9MOL0     C 1099   7.180   6.575   0.826 -0.1318  1.3055 -0.1470
    9MOL0     C 1100   7.093   6.652   0.927  0.6211  0.4030 -0.7321
    9MOL0     C 1101   6.979   6.733   0.865  0.0574  0.1781 -1.0855
    9MOL0     C 1102   7.033   6.864   0.801  0.3850  0.2202 -0.7162
    9MOL0     C 1103   6.910   6.945   0.748  0.1244  0.1736 -0.6250
    9MOL0     O 1104   6.966   7.067   0.692 -0.7935  0.2612  0.5733
    9MOL0     C 1105   6.915   7.194   0.707  0.0692  0.2597 -0.2535
    9MOL0     C 1106   6.985   7.293   0.627 -0.0369 -0.1795 -0.9859
    9MOL0     C 1107   6.946   7.428   0.640  0.2100  0.0248  1.5423
    9MOL0     C 1108   6.835   7.470   0.710  0.0414  0.6101 -0.4080
    9MOL0     C 1109   6.785   7.610   0.716 -0.7145 -0.5755  0.6841
    9MOL0     O 1110   6.671   7.640   0.779  0.4680  0.0501  0.0702
    9MOL0     C 1111   6.591   7.741   0.742  0.3579 -0.2099  0.2000
    9MOL0     C 1112   6.568   7.780   0.608 -0.5634 -0.6143 -0.0825
    9MOL0     C 1113   6.485   7.888   0.586 -0.4958 -0.0706 -0.2133
    9MOL0     C 1114   6.430   7.965   0.688 -0.0553 -0.1127 -0.2674
    9MOL0     O 1115   6.343   8.064   0.659 -0.4210 -0.2513 -0.5796
    9MOL0     C 1116   6.243   8.021   0.554  0.2257  0.6368 -0.2183
    9MOL0     C 1117   6.127   8.106   0.565 -0.8991 -0.4919 -0.1978
    9MOL0     C 1118   6.174   8.235   0.506  0.7990  0.3844 -0.6057
    9MOL0     C 1119   6.070   8.336   0.525  0.4699 -0.6395 -0.2781
    9MOL0     C 1120   6.073   8.448   0.417 -0.6893 -0.0812 -0.2103
    9MOL0     C 1121   6.063   8.424   0.266 -0.5482 -0.5324 -0.3777
    9MOL0     C 1122   5.941   8.322   0.241  0.0130  0.6299  0.3731
    9MOL0     C 1123   5.931   8.273   0.095 -0.3446  0.4765 -0.8067
    9MOL0    Cl 1124   5.941   8.411  -0.017 -0.6042 -0.0172  0.3311
    9MOL0     C 1125   6.449   7.925   0.813 -1.1394 -0.6797 -0.2177
    9MOL0     C 1126   6.514   7.799   0.841 -0.5434  0.4213 -0.9073
    9MOL0     O 1127   6.847   7.689   0.650  0.0124  0.2067 -0.4926
    9MOL0     C 1128   6.769   7.374   0.793  0.6111 -0.7391 -0.1525
    9MOL0     C 1129   6.814   7.235   0.790 -0.7276 -0.7434  0.2727
    9MOL0     N 1130   7.159   6.565   0.692  0.4499  0.4865  0.4134
    9MOL0     N 1131   7.266   6.504   0.653  0.0995 -1.1800  0.3217
    9MOL0     C 1132   6.835   5.959   0.326 -0.8421 -0.2265  0.8000
    9MOL0     C 1133   6.741   5.985   0.223 -0.3716  0.1000 -0.5234
    9MOL0     C 1134   6.359   6.089   0.041 -0.3712 -0.3417  0.0455
    9MOL0     C 1135   6.379   6.030  -0.087 -0.3962 -0.0844  0.1651
    9MOL0     C 1136   6.286   6.066  -0.190 -0.0167  0.2624  0.6183
    9MOL0     C 1137   6.186   6.159  -0.173  0.4832  0.5494 -0.1142
    9MOL0     O 1138   6.104   6.200  -0.272 -0.9684 -0.3772 -0.4529
    9MOL0     C 1139   6.158   6.323  -0.334  0.9107  0.6541 -0.4829
    9MOL0     C 1140   6.062   6.406  -0.411 -0.1742 -0.9363  0.6485
    9MOL0     C 1141   5.971   6.315  -0.496 -0.3695 -0.4463  0.4334
    9MOL0     C 1142   5.889   6.419  -0.587  0.2350 -0.5026  0.2194
    9MOL0     C 1143   5.977   6.508  -0.670 -0.4097 -0.2643 -0.3812
    9MOL0     C 1144   6.033   6.584  -0.746 -0.9500 -1.2896  0.4933
    9MOL0     C 1145   6.162   6.203  -0.045  0.8065 -0.6496 -1.2347
    9MOL0     C 1146   6.249   6.175   0.063 -0.0485  0.3506  0.3567
    9MOL0     C 1147   6.210   6.227   0.194  0.0608 -0.0605 -0.6017
    9MOL0     H 1148   6.495   5.764   0.282 -2.3438  3.0946 -0.5749
    9MOL0     H 1149   6.655   5.702   0.468 -0.2906  0.6632 -0.8878
    9MOL0     H 1150   7.010   6.018   0.525  0.0790  0.2830 -0.0398
    9MOL0     H 1151   6.880   6.016   0.639  2.3118  0.9462  2.1657
    9MOL0     H 1152   7.130   5.854   0.654 -0.3084  3.2447 -4.0925
    9MOL0     H 1153   7.005   5.870   0.785  0.8288 -1.7022 -0.3323
    9MOL0     H 1154   7.035   6.120   0.746 -4.0559 -3.4095  0.1238
    9MOL0     H 1155   7.188   6.081   0.669 -1.8110  2.4687 -0.7850
    9MOL0     H 1156   7.096   6.042   0.967  1.0992  0.6071  1.0576
    9MOL0     H 1157   7.228   5.941   0.907  4.2060  1.1485 -2.7224
    9MOL0     H 1158   7.234   6.240   0.906  0.5403  0.6140  0.3306
    9MOL0     H 1159   7.329   6.144   1.022 -1.9126  3.8771  1.5188
    9MOL0     H 1160   7.471   6.043   0.851  0.5923 -0.5500 -1.3871
    9MOL0     H 1161   7.379   6.108   0.717 -4.3714 -0.1116  1.3963
    9MOL0     H 1162   7.602   6.218   0.798 -0.5155  1.9138 -3.0777
    9MOL0     H 1163   7.507   6.311   0.915 -0.0382  1.1442 -0.2619
    9MOL0     H 1164   7.536   6.449   0.720 -0.9452  0.1663  1.7138
    9MOL0     H 1165   7.464   6.319   0.614  2.0261  0.5340 -0.6078
    9MOL0     H 1166   7.336   6.498   0.959  0.2058  1.8172 -0.3302
    9MOL0     H 1167   7.045   6.583   0.997  0.8128  0.5437 -0.4602
    9MOL0     H 1168   7.150   6.720   0.990 -1.2081 -2.1355  4.1980
    9MOL0     H 1169   6.920   6.671   0.797 -0.8880 -1.8808  1.4117
    9MOL0     H 1170   6.913   6.764   0.947 -1.2172 -0.3720 -1.8692
    9MOL0     H 1171   7.086   6.825   0.714 -2.3373 -3.9289 -0.7802
    9MOL0     H 1172   7.102   6.917   0.868  1.6241 -2.5932  0.4042
    9MOL0     H 1173   6.850   6.976   0.835  2.7438 -0.3042  1.5012
    9MOL0     H 1174   6.839   6.900   0.678 -1.4034  2.4641 -0.6698
    9MOL0     H 1175   7.061   7.269   0.554 -0.9066  0.7058 -2.2210
    9MOL0     H 1176   7.012   7.491   0.582  1.1925 -0.8840  1.6354
    9MOL0     H 1177   6.614   7.722   0.529 -0.9656 -3.1784  1.4483
    9MOL0     H 1178   6.472   7.912   0.481 -2.0539 -2.3136 -0.6042
    9MOL0     H 1179   6.277   8.026   0.451 -1.4073  1.0583 -0.7645
    9MOL0     H 1180   6.215   7.916   0.572 -0.8586  1.1932  1.5993
    9MOL0     H 1181   6.039   8.069   0.511 -0.5120 -2.8419  0.6686
    9MOL0     H 1182   6.112   8.119   0.673  0.3758 -1.4658  0.1208
    9MOL0     H 1183   6.267   8.258   0.559 -1.2413 -1.4411  4.3779
    9MOL0     H 1184   6.179   8.224   0.397 -0.5594  1.9565 -0.8642
    9MOL0     H 1185   6.075   8.372   0.629 -1.8304 -2.9165  0.7491
    9MOL0     H 1186   5.970   8.293   0.541  0.2826  1.0666  5.3989
    9MOL0     H 1187   6.162   8.511   0.431 -2.9876  2.5927  4.7582
    9MOL0     H 1188   5.988   8.514   0.435  0.4026  1.0119  1.2115
    9MOL0     H 1189   6.038   8.513   0.208 -1.6716 -0.7825 -0.3041
    9MOL0     H 1190   6.156   8.379   0.229 -1.2516 -0.4945 -2.3006
    9MOL0     H 1191   5.857   8.386   0.271 -1.2664 -1.5651  1.7059
    9MOL0     H 1192   5.933   8.231   0.301 -1.5755 -0.0995 -0.8705
    9MOL0     H 1193   6.020   8.209   0.083 -0.5823 -0.0908  0.3280
    9MOL0     H 1194   5.843   8.210   0.081 -0.4108  0.2373  0.5866
    9MOL0     H 1195   6.399   7.978   0.894  0.1674  2.4930 -1.3576
    9MOL0     H 1196   6.539   7.772   0.943  1.8426  1.5540 -1.1184
    9MOL0     H 1197   6.685   7.401   0.856  0.7236  1.8994 -1.0004
    9MOL0     H 1198   6.761   7.163   0.852 -1.5320  0.6904  1.2960
    9MOL0     H 1199   6.914   6.032   0.342  0.7286 -1.6201 -0.3334
    9MOL0     H 1200   6.741   6.062   0.147 -1.6823  0.6135 -0.0317
    9MOL0     H 1201   6.466   5.971  -0.115 -0.6568  0.2730 -1.5044
    9MOL0     H 1202   6.301   6.029  -0.291  2.0913  2.2182  0.1099
    9MOL0     H 1203   6.244   6.299  -0.398  1.3817  1.9116 -0.3551
    9MOL0     H 1204   6.201   6.384  -0.255  0.2619  0.4003  0.0745
    9MOL0     H 1205   6.128   6.453  -0.485 -3.1637  1.4975 -0.6687
    9MOL0     H 1206   6.006   6.481  -0.354 -0.3287  0.1007 -0.7929
    9MOL0     H 1207   5.902   6.261  -0.431  0.4503 -0.2644  1.4779
    9MOL0     H 1208   6.031   6.246  -0.557 -0.4205  1.2024 -1.5876
    9MOL0     H 1209   5.821   6.358  -0.647  2.5216 -1.7773 -1.2183
    9MOL0     H 1210   5.835   6.475  -0.510  3.2910  2.1056  0.6767
    9MOL0     H 1211   6.072   6.668  -0.801  3.4554 -0.1406  4.6647
    9MOL0     H 1212   6.077   6.268  -0.029 -1.7614 -4.0196  0.0721
    9MOL0     H 1213   6.113   6.276   0.191 -1.2721 -2.5592 -1.3006
    9MOL0     H 1214   6.191   6.140   0.258 -0.6680  0.9616  0.6044
    9MOL0     H 1215   6.276   6.303   0.237 -0.8886  1.1781 -1.2597
   10MOL0     O 1216   6.091  10.576   6.423 -0.0387  0.9991  0.1689
   10MOL0     C 1217   6.153  10.651   6.498 -0.2113  1.0347  0.2878
   10MOL0     O 1218   6.227  10.611   6.604  0.2928  0.7247 -0.2279
   10MOL0     C 1219   6.251  10.479   6.634  0.0643 -0.7289  1.0147
   10MOL0     C 1220   6.275  10.392   6.536 -0.1963  0.2547 -0.2475
   10MOL0     C 1221   6.300  10.255   6.573  0.6238  0.2766  0.1050
   10MOL0     C 1222   6.283  10.214   6.703  0.1617 -0.3352 -1.1753
   10MOL0     O 1223   6.311  10.087   6.737  0.5064 -0.1262  0.0864
   10MOL0     C 1224   6.268   9.979   6.657 -0.1971 -0.1656  0.8163
   10MOL0     C 1225   6.246   9.850   6.739  0.4333 -0.6995 -0.0997
   10MOL0     C 1226   6.178   9.872   6.876  0.4104  0.8923  0.3592
   10MOL0     C 1227   6.167   9.732   6.941 -0.5044  1.3394  0.5774
   10MOL0     C 1228   6.012   9.693   6.947 -0.3888  0.9578  0.9876
   10MOL0     C 1229   6.011   9.574   7.042  1.2832 -0.9054 -0.5622
   10MOL0     C 1230   5.873   9.505   7.051  0.4914 -0.8374  0.0944
   10MOL0     C 1231   5.763   9.613   7.074  0.0295  0.0808  0.1230
   10MOL0     N 1232   5.649   9.552   7.139  0.0679  0.1138  0.2623
   10MOL0     C 1233   5.558   9.479   7.069  0.7199 -0.7395 -0.8265
   10MOL0     C 1234   5.447   9.471   7.149  0.1124  0.0224 -0.0754
   10MOL0     C 1235   5.313   9.403   7.116  0.1472  0.4115 -0.8729
   10MOL0     C 1236   5.206   9.501   7.043  0.3289 -0.5548 -0.6897
   10MOL0     C 1237   5.071   9.435   7.023  0.0657 -1.0119  0.3076
   10MOL0     C 1238   4.970   9.535   6.961 -0.8124  0.1472 -0.6964
   10MOL0     O 1239   4.939   9.632   7.059  0.3747  0.7692 -0.1123
   10MOL0     C 1240   4.833   9.610   7.152 -0.7385 -0.2719 -0.7426
   10MOL0     C 1241   4.745   9.499   7.153 -0.2299  0.1012  0.4404
   10MOL0     C 1242   4.626   9.501   7.228  0.3903 -0.4704  0.2059
   10MOL0     C 1243   4.596   9.611   7.315  0.5205 -0.3669  0.1290
   10MOL0     C 1244   4.461   9.621   7.379  0.4537  0.2737  0.9353
   10MOL0     O 1245   4.457   9.717   7.480 -0.3821  0.1675  0.2117
   10MOL0     C 1246   4.344   9.731   7.558  0.5989  0.5236 -0.1179
   10MOL0     C 1247   4.250   9.627   7.596  0.6144 -0.8862 -0.2887
   10MOL0     C 1248   4.153   9.665   7.692 -0.2726 -0.1110  0.3189
   10MOL0     C 1249   4.139   9.796   7.738  0.3829 -0.0579  0.3039
   10MOL0     O 1250   4.042   9.840   7.831  0.1633 -0.6256  0.3228
   10MOL0     C 1251   3.906   9.781   7.840  0.0730 -0.1541 -0.1388
   10MOL0     C 1252   3.815   9.808   7.721 -0.1557  0.7164  1.1064
   10MOL0     C 1253   3.671   9.863   7.739  0.5491  0.7392  0.8405
   10MOL0     C 1254   3.677  10.019   7.740 -0.6687  0.1659  0.4600
   10MOL0     C 1255   3.537  10.075   7.769 -1.0431 -0.3558 -0.1139
   10MOL0     C 1256   3.436  10.060   7.652 -0.8717  0.6683 -0.6410
   10MOL0     C 1257   3.297  10.111   7.689  0.1291 -0.2442 -0.0778
   10MOL0     C 1258   3.186  10.048   7.602  0.0463 -1.7176  0.4634
   10MOL0    Cl 1259   3.235  10.123   7.446  0.0331 -0.6831  0.1212
   10MOL0     C 1260   4.220   9.891   7.690 -0.1645 -0.7907 -0.4279
   10MOL0     C 1261   4.322   9.857   7.613 -0.0601  0.5030  0.8332
   10MOL0     O 1262   4.363   9.561   7.338 -0.4909 -0.5419  0.1626
   10MOL0     C 1263   4.688   9.713   7.318 -0.3365  0.8309 -0.1180
   10MOL0     C 1264   4.807   9.707   7.243  1.5599  0.7714  0.4477
   10MOL0     N 1265   5.487   9.526   7.266  0.1613 -0.5604  0.2886
   10MOL0     N 1266   5.611   9.557   7.270  0.4585  0.1612  0.6141
   10MOL0     C 1267   6.252  10.308   6.799 -0.1002 -0.7017 -0.5555
   10MOL0     C 1268   6.238  10.440   6.769 -0.3003 -0.0500  0.3336
   10MOL0     C 1269   6.146  10.795   6.452  0.4975  0.0571  0.0183
   10MOL0     C 1270   6.128  10.823   6.314  0.1128 -1.0615 -0.2947
   10MOL0     C 1271   6.120  10.958   6.270  0.4932  0.0742  0.6596
   10MOL0     C 1272   6.140  11.053   6.360  0.8771 -0.5894 -0.8989
   10MOL0     O 1273   6.127  11.194   6.330 -0.9706  0.8153  0.1345
   10MOL0     C 1274   6.242  11.241   6.247 -0.0998 -0.5944 -0.8552
   10MOL0     C 1275   6.373  11.242   6.339 -0.2419  0.2809  0.4372
   10MOL0     C 1276   6.502  11.285   6.267 -0.3166 -0.0555 -0.7029
   10MOL0     C 1277   6.510  11.439   6.267 -0.2373 -0.1960  1.0588
   10MOL0     C 1278   6.636  11.477   6.189  0.3272 -1.0030  0.2227
   10MOL0     C 1279   6.747  11.497   6.153 -1.1512  0.1641  0.1731
   10MOL0     C 1280   6.145  11.027   6.497  0.3415 -0.4053 -0.5014
   10MOL0     C 1281   6.156  10.894   6.550 -0.0787 -0.7247  0.3759
   10MOL0     C 1282   6.168  10.878   6.701  0.5841 -0.1538  0.3979
   10MOL0     H 1283   6.287  10.435   6.436 -3.8741  0.5775 -0.6801
   10MOL0     H 1284   6.335  10.191   6.493  1.3565  1.5366 -0.6234
   10MOL0     H 1285   6.174  10.005   6.609  1.0735  0.6611 -1.3605
   10MOL0     H 1286   6.342   9.959   6.579  0.4148 -0.3106  1.4250
   10MOL0     H 1287   6.338   9.794   6.755  0.3628 -0.1102  2.9767
   10MOL0     H 1288   6.170   9.794   6.684 -1.3253  0.8696  0.5826
   10MOL0     H 1289   6.081   9.914   6.849  0.2005 -0.7603 -1.6913
   10MOL0     H 1290   6.235   9.936   6.945  1.6231 -0.2996  0.4954
   10MOL0     H 1291   6.225   9.654   6.889  0.2816 -0.9841  4.5149
   10MOL0     H 1292   6.201   9.719   7.044 -2.0407 -4.1425  0.7267
   10MOL0     H 1293   5.947   9.776   6.974 -1.4677  1.0983 -1.7206
   10MOL0     H 1294   5.986   9.669   6.844  0.7569  3.1041  0.1437
   10MOL0     H 1295   6.093   9.505   7.019  2.7846  0.8217 -0.6379
   10MOL0     H 1296   6.040   9.607   7.142 -0.2146 -1.2768  0.0214
   10MOL0     H 1297   5.870   9.434   7.134 -1.2913 -0.3214  0.5253
   10MOL0     H 1298   5.854   9.452   6.957  2.5219  1.5291 -1.7874
   10MOL0     H 1299   5.803   9.680   7.150  0.2760  2.5940 -2.0976
   10MOL0     H 1300   5.740   9.677   6.988 -0.8554  0.2397  0.4698
   10MOL0     H 1301   5.558   9.456   6.963 -4.2612 -0.4477 -1.1656
   10MOL0     H 1302   5.330   9.310   7.061  0.6924 -0.4236  0.6312
   10MOL0     H 1303   5.271   9.365   7.210  1.3764 -0.8649 -0.8036
   10MOL0     H 1304   5.186   9.595   7.094 -5.4672 -0.4173 -2.5497
   10MOL0     H 1305   5.248   9.533   6.947 -1.5509  0.4551 -1.2203
   10MOL0     H 1306   5.018   9.410   7.115 -0.5440  2.5257  1.0605
   10MOL0     H 1307   5.088   9.348   6.959  2.7864 -1.1458  1.0855
   10MOL0     H 1308   4.876   9.492   6.925 -0.6852 -0.7931  0.0439
   10MOL0     H 1309   4.997   9.592   6.872  1.0029  0.3053 -0.0826
   10MOL0     H 1310   4.751   9.414   7.086  4.5475  2.9813 -3.4713
   10MOL0     H 1311   4.560   9.416   7.232  0.3921 -0.4078  2.2393
   10MOL0     H 1312   4.235   9.529   7.553 -3.9717 -0.7070  0.4173
   10MOL0     H 1313   4.091   9.589   7.737 -1.7826 -1.2037 -3.2666
   10MOL0     H 1314   3.905   9.675   7.868  0.3810  0.0376  0.6389
   10MOL0     H 1315   3.864   9.837   7.925  1.8158 -1.9819  2.0675
   10MOL0     H 1316   3.867   9.884   7.662  1.1959 -1.4890 -0.6880
   10MOL0     H 1317   3.813   9.715   7.663 -2.4042 -0.1514  2.4349
   10MOL0     H 1318   3.606   9.840   7.654  1.4906  2.2095 -0.3208
   10MOL0     H 1319   3.631   9.830   7.836  0.7093  2.2645  1.4514
   10MOL0     H 1320   3.717  10.054   7.645 -2.9448  0.5711 -0.4248
   10MOL0     H 1321   3.748  10.060   7.812 -2.1996  2.1213  0.9462
   10MOL0     H 1322   3.542  10.174   7.815 -1.3551 -0.9627  1.3147
   10MOL0     H 1323   3.503  10.018   7.856  1.5683 -1.7846  0.0807
   10MOL0     H 1324   3.473  10.119   7.567  0.6145  0.0225 -0.4648
   10MOL0     H 1325   3.433   9.956   7.619  3.3117 -0.5547  2.0112
   10MOL0     H 1326   3.292  10.219   7.673 -0.4213 -0.1243  0.8463
   10MOL0     H 1327   3.263  10.088   7.791 -2.8661 -0.6044 -1.0513
   10MOL0     H 1328   3.189   9.938   7.606 -1.5128 -1.7591  2.6038
   10MOL0     H 1329   3.089  10.089   7.632  1.0589  2.2407 -1.0466
   10MOL0     H 1330   4.203   9.990   7.732 -0.4951 -2.7899  4.8416
   10MOL0     H 1331   4.393   9.936   7.590  0.7543 -0.9320 -2.0185
   10MOL0     H 1332   4.654   9.791   7.387 -1.2302  0.2381  0.1262
   10MOL0     H 1333   4.862   9.800   7.231  1.2643  0.8142 -0.7217
   10MOL0     H 1334   6.241  10.287   6.905  0.1771  0.1741 -0.3427
   10MOL0     H 1335   6.208  10.510   6.846  0.6678  1.0989 -0.3090
   10MOL0     H 1336   6.111  10.746   6.240 -0.3628  0.5545 -1.9572
   10MOL0     H 1337   6.091  10.985   6.169  0.3543  0.5476  0.8233
   10MOL0     H 1338   6.224  11.339   6.203  2.6507  0.7404  0.6925
   10MOL0     H 1339   6.257  11.169   6.166 -0.4646  0.6830 -2.1062
   10MOL0     H 1340   6.385  11.139   6.374  0.4124  0.7947  1.7807
   10MOL0     H 1341   6.356  11.291   6.435  0.8296  0.2455  0.6575
   10MOL0     H 1342   6.515  11.233   6.172  1.4501 -5.3692  2.0244
   10MOL0     H 1343   6.593  11.256   6.321 -0.2044 -1.1110 -1.4246
   10MOL0     H 1344   6.422  11.473   6.212  1.9654  3.0788 -0.8593
   10MOL0     H 1345   6.517  11.470   6.371 -1.3005 -1.4173  1.5161
   10MOL0     H 1346   6.847  11.534   6.153 -0.0035 -2.4050  3.8327
   10MOL0     H 1347   6.153  11.107   6.569  5.2908  0.7280 -1.8603
   10MOL0     H 1348   6.267  10.905   6.740 -0.4946  0.9143  2.5825
   10MOL0     H 1349   6.088  10.939   6.744 -2.5064 -1.3644 -3.1143
   10MOL0     H 1350   6.143  10.780   6.741 -2.4238 -0.3480 -1.6898
   11MOL0     O 1351   0.290   3.892   5.658 -0.1015  0.1065 -0.4489
   11MOL0     C 1352   0.201   3.965   5.611 -1.5476 -0.4596 -0.5219
   11MOL0     O 1353   0.110   3.927   5.525 -0.5888 -0.2110  0.0954
   11MOL0     C 1354   0.104   3.792   5.494 -0.0668  1.0680  0.6450
   11MOL0     C 1355   0.011   3.697   5.543  1.0127 -0.0501  0.2591
   11MOL0     C 1356   0.007   3.554   5.523  0.5757 -1.2767  0.5593
   11MOL0     C 1357   0.105   3.513   5.425  1.0741  1.1390 -1.2159
   11MOL0     O 1358   0.108   3.373   5.403  0.7499 -1.0792  0.0154
   11MOL0     C 1359   0.146   3.324   5.272  0.6256 -0.0126 -0.5169
   11MOL0     C 1360   0.078   3.198   5.228  0.3244  0.7486 -0.0992
   11MOL0     C 1361   0.147   3.127   5.110  0.0677 -0.1158 -0.1301
   11MOL0     C 1362   0.099   2.986   5.074  0.2343  0.2288  0.0696
   11MOL0     C 1363  -0.058   2.981   5.038 -0.9908 -0.0580 -0.8127
   11MOL0     C 1364  -0.103   2.834   5.012  0.2512 -0.5430 -0.1195
   11MOL0     C 1365  -0.166   2.754   5.125 -0.4777 -1.6763 -0.2662
   11MOL0     C 1366  -0.198   2.612   5.076 -1.1314 -0.1885  0.1342
   11MOL0     N 1367  -0.286   2.543   5.171  0.2871  0.1823  0.4118
   11MOL0     C 1368  -0.424   2.553   5.158 -0.2767 -0.4797 -0.1397
   11MOL0     C 1369  -0.464   2.439   5.214 -0.2114 -0.1133 -1.0857
   11MOL0     C 1370  -0.609   2.397   5.231  0.1112 -1.0208  0.2423
   11MOL0     C 1371  -0.658   2.453   5.365 -0.2489 -0.0743  0.5708
   11MOL0     C 1372  -0.591   2.379   5.482  0.1444 -0.2563  0.1039
   11MOL0     C 1373  -0.659   2.406   5.610 -1.2396 -0.5051  0.2366
   11MOL0     O 1374  -0.593   2.335   5.714  0.8227  0.1157 -0.0452
   11MOL0     C 1375  -0.514   2.410   5.801 -0.4590  0.2625 -0.0487
   11MOL0     C 1376  -0.507   2.548   5.829  0.4303  0.0082 -0.3351
   11MOL0     C 1377  -0.419   2.605   5.918 -0.4635  0.4647 -0.3789
   11MOL0     C 1378  -0.330   2.534   6.001 -0.2521  0.7247  0.7570
   11MOL0     C 1379  -0.235   2.598   6.086  0.0433  0.2694  0.1395
   11MOL0     O 1380  -0.201   2.721   6.050  0.7021  1.1036 -0.4645
   11MOL0     C 1381  -0.132   2.809   6.130  0.2897  0.8501 -0.7966
   11MOL0     C 1382  -0.131   2.809   6.274  0.2906  0.4276 -0.2926
   11MOL0     C 1383  -0.077   2.919   6.346 -0.0207 -0.5886 -0.2371
   11MOL0     C 1384  -0.024   3.027   6.273  0.2056 -0.0364 -0.4242
   11MOL0     O 1385   0.010   3.153   6.322  0.1197  0.3651 -0.0715
   11MOL0     C 1386   0.024   3.177   6.468  0.9299  0.6926  0.1407
   11MOL0     C 1387   0.003   3.326   6.502  0.8066 -0.3052  0.1737
   11MOL0     C 1388  -0.146   3.365   6.540 -0.9346  0.7584 -0.2916
   11MOL0     C 1389  -0.164   3.322   6.684  0.5483  0.6120  1.3587
   11MOL0     C 1390  -0.296   3.374   6.750  0.6260 -0.2172  0.3817
   11MOL0     C 1391  -0.325   3.517   6.720 -0.2973 -0.4139  0.3760
   11MOL0     C 1392  -0.414   3.597   6.822 -0.8524 -1.3370  0.4141
   11MOL0     C 1393  -0.436   3.750   6.804 -0.1848  0.3281 -0.2630
   11MOL0    Cl 1394  -0.287   3.834   6.796  0.2027 -0.2465 -0.7793
   11MOL0     C 1395  -0.023   3.023   6.133 -0.9957 -0.7749  1.0063
   11MOL0     C 1396  -0.078   2.915   6.065  1.0167  0.5635  0.2499
   11MOL0     O 1397  -0.205   2.540   6.190  0.0432  0.2205  0.7084
   11MOL0     C 1398  -0.335   2.396   5.984 -0.2561  0.1267 -0.0869
   11MOL0     C 1399  -0.433   2.342   5.891  0.2892 -0.4016 -0.5430
   11MOL0     N 1400  -0.357   2.361   5.253  0.1896  0.3092 -0.3241
   11MOL0     N 1401  -0.247   2.427   5.228  0.3529 -0.6307  0.8948
   11MOL0     C 1402   0.193   3.602   5.363  0.0029  0.3804 -1.2358
   11MOL0     C 1403   0.195   3.736   5.397 -0.3798  0.2027 -0.7204
   11MOL0     C 1404   0.202   4.106   5.671  0.7152  0.2052 -0.5131
   11MOL0     C 1405   0.140   4.128   5.789  0.2714 -0.5664 -0.5420
   11MOL0     C 1406   0.147   4.262   5.850 -0.0183  0.0460  0.3000
   11MOL0     C 1407   0.202   4.371   5.775 -0.0423  0.0515 -0.2749
   11MOL0     O 1408   0.184   4.503   5.831  0.6284  0.5453  0.4863
   11MOL0     C 1409   0.255   4.610   5.782  0.3444 -1.0643  0.0347
   11MOL0     C 1410   0.207   4.745   5.842 -0.0571  0.0059  0.0247
   11MOL0     C 1411   0.065   4.767   5.785 -0.8345  0.4421 -0.0216
   11MOL0     C 1412  -0.004   4.873   5.877 -0.3192 -0.2563 -0.3191
   11MOL0     C 1413  -0.053   4.999   5.819  0.3253  0.1667  0.3306
   11MOL0     C 1414  -0.075   5.110   5.769 -0.4192  0.0137  0.2030
   11MOL0     C 1415   0.256   4.344   5.650 -0.2001 -0.1535 -0.4403
   11MOL0     C 1416   0.258   4.216   5.595 -0.8997 -0.2234  0.1852
   11MOL0     C 1417   0.338   4.200   5.467 -0.1204 -0.2046  0.4398
   11MOL0     H 1418  -0.055   3.751   5.610  0.4610 -2.6315  1.9763
   11MOL0     H 1419  -0.058   3.480   5.568 -2.1020  1.4856  1.6132
   11MOL0     H 1420   0.128   3.390   5.186 -3.6100 -0.6155 -0.2554
   11MOL0     H 1421   0.255   3.309   5.277  0.7099  0.7339  0.0859
   11MOL0     H 1422  -0.024   3.219   5.195 -0.0724 -1.7934 -0.6796
   11MOL0     H 1423   0.072   3.129   5.312  0.8610  1.1660  0.2889
   11MOL0     H 1424   0.250   3.122   5.144  0.2322 -1.7283 -0.7759
   11MOL0     H 1425   0.146   3.200   5.028  0.1498 -1.1593 -1.0971
   11MOL0     H 1426   0.153   2.941   4.991 -2.3354 -0.7416 -1.1718
   11MOL0     H 1427   0.107   2.928   5.167 -0.4466 -0.0350 -0.0308
   11MOL0     H 1428  -0.125   3.020   5.115 -1.3710 -0.9034 -0.6996
   11MOL0     H 1429  -0.069   3.045   4.950  1.9470 -0.7289 -1.7952
   11MOL0     H 1430  -0.165   2.832   4.922  3.8140 -4.5271 -2.9086
   11MOL0     H 1431  -0.012   2.778   4.988  1.4825  0.0336  2.7868
   11MOL0     H 1432  -0.261   2.803   5.148 -0.0164 -0.0429 -1.6617
   11MOL0     H 1433  -0.108   2.752   5.218 -0.3821  0.4933 -0.2416
   11MOL0     H 1434  -0.256   2.614   4.983 -0.4467  1.3242 -0.2983
   11MOL0     H 1435  -0.107   2.555   5.056 -0.3776  1.5117 -1.6834
   11MOL0     H 1436  -0.486   2.633   5.119  2.5193  0.0078 -4.1278
   11MOL0     H 1437  -0.665   2.438   5.147 -0.6569  1.7753  1.9965
   11MOL0     H 1438  -0.627   2.289   5.237  0.7724 -1.1869 -0.5761
   11MOL0     H 1439  -0.639   2.560   5.375 -0.7962  0.0630  0.1664
   11MOL0     H 1440  -0.767   2.444   5.365 -0.7696  3.9354 -1.5673
   11MOL0     H 1441  -0.483   2.395   5.489  0.4674 -1.2075 -2.0955
   11MOL0     H 1442  -0.599   2.271   5.467 -1.8274 -0.5295  2.4228
   11MOL0     H 1443  -0.759   2.363   5.597 -2.2555  1.8584 -0.3581
   11MOL0     H 1444  -0.676   2.515   5.612  2.1727  0.1905 -1.2628
   11MOL0     H 1445  -0.569   2.610   5.765 -0.4630 -0.9816 -0.4582
   11MOL0     H 1446  -0.414   2.713   5.926  2.8019  0.2994  1.6787
   11MOL0     H 1447  -0.191   2.732   6.321  0.4580  0.0372 -0.7141
   11MOL0     H 1448  -0.078   2.915   6.455  1.0170 -2.3704 -0.2484
   11MOL0     H 1449  -0.052   3.118   6.520  1.7963  0.1138  0.7936
   11MOL0     H 1450   0.129   3.149   6.485  0.2109 -0.7355  2.6528
   11MOL0     H 1451   0.086   3.360   6.566  2.4976 -0.0752 -2.0089
   11MOL0     H 1452   0.018   3.402   6.424 -1.7723 -0.2648 -0.3635
   11MOL0     H 1453  -0.157   3.472   6.518  0.5669  1.0327  0.1436
   11MOL0     H 1454  -0.220   3.327   6.470  2.2963  3.0792 -5.6006
   11MOL0     H 1455  -0.093   3.377   6.746 -1.4930  2.0628  2.5273
   11MOL0     H 1456  -0.135   3.219   6.706 -1.3783  0.4323  3.5604
   11MOL0     H 1457  -0.288   3.372   6.859 -2.6969  1.6855  0.8264
   11MOL0     H 1458  -0.378   3.306   6.723  0.3483 -0.3586  1.4838
   11MOL0     H 1459  -0.236   3.581   6.709 -0.8044  0.1844 -0.3147
   11MOL0     H 1460  -0.373   3.518   6.622 -0.9521 -0.2881  0.6971
   11MOL0     H 1461  -0.353   3.584   6.912  1.6495  2.0292 -0.5702
   11MOL0     H 1462  -0.512   3.549   6.823 -1.9303  0.7631  0.0160
   11MOL0     H 1463  -0.496   3.778   6.717  0.0727  4.8792  0.8218
   11MOL0     H 1464  -0.489   3.776   6.896 -0.5469 -3.2914  0.7393
   11MOL0     H 1465   0.018   3.099   6.067 -4.3933  0.0750 -0.3467
   11MOL0     H 1466  -0.084   2.908   5.956 -1.0255 -0.7963  0.4007
   11MOL0     H 1467  -0.266   2.325   6.028 -0.0261 -0.5633 -1.4995
   11MOL0     H 1468  -0.423   2.234   5.889  0.9326 -0.3454 -0.6397
   11MOL0     H 1469   0.278   3.569   5.303 -0.7410  0.7454 -2.5084
   11MOL0     H 1470   0.285   3.787   5.362  0.7692 -0.1079  1.5631
   11MOL0     H 1471   0.080   4.054   5.839  0.8184  1.0486  2.8044
   11MOL0     H 1472   0.094   4.288   5.941  2.5216 -0.0317  1.9133
   11MOL0     H 1473   0.242   4.628   5.675  1.1848 -2.8057 -0.3911
   11MOL0     H 1474   0.361   4.608   5.810  0.2767 -0.7752  0.3214
   11MOL0     H 1475   0.250   4.840   5.809 -2.1727  1.2602  0.6882
   11MOL0     H 1476   0.215   4.747   5.951  0.3278 -0.1997  0.0037
   11MOL0     H 1477   0.013   4.672   5.802 -1.1132  0.8163  1.3022
   11MOL0     H 1478   0.046   4.819   5.691 -3.6890 -0.1976  0.1108
   11MOL0     H 1479  -0.091   4.832   5.929 -0.1838 -1.1199 -0.7435
   11MOL0     H 1480   0.069   4.902   5.953 -0.1325  0.5162 -0.7863
   11MOL0     H 1481  -0.088   5.212   5.739  1.2013  0.7945  1.9904
   11MOL0     H 1482   0.288   4.424   5.583 -4.0733  2.5479  0.6013
   11MOL0     H 1483   0.268   4.183   5.385 -0.6234 -2.2021  1.2497
   11MOL0     H 1484   0.382   4.298   5.443 -2.0922  0.0201 -2.8467
   11MOL0     H 1485   0.417   4.125   5.473  0.9185  0.2460 -3.8740
   12MOL0     O 1486   2.182   1.294   7.492  0.2493  0.3430 -0.1030
   12MOL0     C 1487   2.143   1.376   7.413  0.9763  0.9310 -0.1408
   12MOL0     O 1488   2.120   1.505   7.442  0.2199  0.0570 -1.0215
   12MOL0     C 1489   2.171   1.558   7.564  0.8295 -0.0771  0.2029
   12MOL0     C 1490   2.108   1.539   7.683 -0.1270 -0.0773  0.6531
   12MOL0     C 1491   2.186   1.563   7.796 -0.0841 -0.2738 -0.4643
   12MOL0     C 1492   2.308   1.633   7.792  0.3776 -0.2852  0.2856
   12MOL0     O 1493   2.361   1.676   7.910 -0.1137  0.1106 -0.6165
   12MOL0     C 1494   2.504   1.700   7.911 -0.9573  0.3073 -0.1818
   12MOL0     C 1495   2.552   1.725   8.054  0.2700  0.1161  0.4186
   12MOL0     C 1496   2.703   1.684   8.073  0.1770 -0.0142 -0.4024
   12MOL0     C 1497   2.762   1.747   8.198 -0.4479 -0.5271 -0.0862
   12MOL0     C 1498   2.717   1.709   8.335  0.3959 -0.1819  0.5676
   12MOL0     C 1499   2.803   1.769   8.448 -0.3352 -0.0568 -0.3523
   12MOL0     C 1500   2.751   1.719   8.579 -0.1176  0.7121  0.5728
   12MOL0     C 1501   2.786   1.821   8.688 -0.1445  0.2948 -0.1127
   12MOL0     N 1502   2.729   1.765   8.813 -0.6157  0.1050 -0.2172
   12MOL0     C 1503   2.598   1.760   8.844  0.3491 -0.4120 -0.1241
   12MOL0     C 1504   2.598   1.716   8.973 -0.6256  0.1425  0.4492
   12MOL0     C 1505   2.475   1.708   9.060 -0.0857 -0.8105 -0.1262
   12MOL0     C 1506   2.457   1.805   9.175 -1.0021  0.5881 -0.0935
   12MOL0     C 1507   2.460   1.950   9.126  0.7762 -0.0849  1.4517
   12MOL0     C 1508   2.331   1.986   9.041 -0.7435  0.6457  0.2850
   12MOL0     O 1509   2.336   2.127   9.010  0.9496  0.5545 -0.0774
   12MOL0     C 1510   2.373   2.172   8.886  0.3735 -0.2951  0.0686
   12MOL0     C 1511   2.495   2.244   8.869  0.4839  0.1842  0.0030
   12MOL0     C 1512   2.535   2.288   8.743 -0.1685  0.0960 -0.1317
   12MOL0     C 1513   2.457   2.260   8.632  0.0015  0.3484 -0.2544
   12MOL0     C 1514   2.476   2.331   8.516 -0.0472 -0.4267 -0.2839
   12MOL0     O 1515   2.565   2.441   8.526 -0.3432  0.7714  0.2542
   12MOL0     C 1516   2.566   2.523   8.417 -0.0385  0.4853 -0.4946
   12MOL0     C 1517   2.665   2.513   8.325 -0.2357  0.8484  0.5396
   12MOL0     C 1518   2.668   2.588   8.210  0.7301 -0.4803 -0.2471
   12MOL0     C 1519   2.581   2.692   8.186  0.1806 -0.5375  0.3835
   12MOL0     O 1520   2.570   2.779   8.079 -0.8058 -0.6652 -0.0516
   12MOL0     C 1521   2.646   2.758   7.958  0.0447  0.4721  0.6385
   12MOL0     C 1522   2.564   2.841   7.856  0.4238  0.6097 -0.9231
   12MOL0     C 1523   2.599   2.814   7.718 -0.9318 -0.4086  0.2517
   12MOL0     C 1524   2.522   2.882   7.618  0.0725  0.0450  0.3250
   12MOL0     C 1525   2.575   2.868   7.466  0.6089  0.2077 -0.0749
   12MOL0     C 1526   2.479   2.925   7.363  0.0143 -0.2086  0.2174
   12MOL0     C 1527   2.461   3.078   7.384 -0.3266 -0.2129 -0.6407
   12MOL0     C 1528   2.389   3.140   7.278 -0.0162 -0.2996 -0.3743
   12MOL0    Cl 1529   2.499   3.186   7.149 -0.4871  0.2992  0.2982
   12MOL0     C 1530   2.486   2.706   8.284 -0.3882 -0.1069 -0.2952
   12MOL0     C 1531   2.474   2.624   8.395  0.2634 -0.2440 -0.0160
   12MOL0     O 1532   2.431   2.282   8.410 -0.0845  0.0171 -0.7062
   12MOL0     C 1533   2.330   2.197   8.650 -0.0711  1.0225  0.2751
   12MOL0     C 1534   2.292   2.162   8.774  0.1647  0.5446  0.7732
   12MOL0     N 1535   2.721   1.682   9.020  0.5875 -0.1067  0.5625
   12MOL0     N 1536   2.796   1.720   8.921 -0.0673 -0.1666  0.0497
   12MOL0     C 1537   2.362   1.669   7.666  0.2549 -0.5492 -0.3351
   12MOL0     C 1538   2.296   1.624   7.550  0.3683  0.0912 -0.5998
   12MOL0     C 1539   2.109   1.337   7.271  0.7412  0.4626 -0.0021
   12MOL0     C 1540   2.029   1.414   7.185 -0.4996  0.0752 -0.3801
   12MOL0     C 1541   2.012   1.392   7.054 -0.9389  0.0366 -0.5028
   12MOL0     C 1542   2.069   1.280   6.996  0.1724  0.2210 -0.1335
   12MOL0     O 1543   2.080   1.269   6.859 -0.2555 -0.4808  0.3812
   12MOL0     C 1544   1.955   1.312   6.785 -1.5298 -0.2997  0.1529
   12MOL0     C 1545   1.819   1.234   6.828  0.0343 -0.1379  0.9170
   12MOL0     C 1546   1.708   1.246   6.718 -0.7218  0.7922 -0.6983
   12MOL0     C 1547   1.584   1.145   6.738 -0.2970  0.1568 -0.1296
   12MOL0     C 1548   1.522   1.141   6.604 -1.0632  0.0782  0.5296
   12MOL0     C 1549   1.487   1.137   6.486  0.5725 -0.3222 -0.4260
   12MOL0     C 1550   2.132   1.178   7.075 -0.2774  1.2394 -0.5571
   12MOL0     C 1551   2.135   1.207   7.216  0.1811  0.9995  0.5657
   12MOL0     C 1552   2.198   1.081   7.283  0.5438  0.5345 -0.4194
   12MOL0     H 1553   2.009   1.498   7.695  0.7359 -2.1481  1.1937
   12MOL0     H 1554   2.144   1.524   7.888  3.7238 -2.1571  0.7090
   12MOL0     H 1555   2.547   1.608   7.870 -1.3891 -1.1445  2.4083
   12MOL0     H 1556   2.547   1.781   7.853 -0.0733 -0.2719 -0.3591
   12MOL0     H 1557   2.487   1.662   8.116  0.2605  0.1940  0.4887
   12MOL0     H 1558   2.536   1.833   8.060 -1.3693  0.3507 -4.3884
   12MOL0     H 1559   2.753   1.709   7.979 -1.0116  1.0560 -0.7853
   12MOL0     H 1560   2.717   1.575   8.065  2.5150  0.3833 -3.7132
   12MOL0     H 1561   2.869   1.728   8.193 -0.6861 -1.7059 -1.2689
   12MOL0     H 1562   2.744   1.855   8.188 -2.2006 -0.8489 -0.8011
   12MOL0     H 1563   2.609   1.724   8.336  0.3325 -0.6219  1.2857
   12MOL0     H 1564   2.726   1.600   8.344  1.0407 -0.2867 -1.0046
   12MOL0     H 1565   2.906   1.738   8.433 -0.9680 -2.7059  0.2274
   12MOL0     H 1566   2.794   1.878   8.449  2.0899  0.1940 -0.7452
   12MOL0     H 1567   2.780   1.617   8.606 -1.7520  0.7149  2.5962
   12MOL0     H 1568   2.642   1.722   8.576 -0.2419 -1.5556 -2.5665
   12MOL0     H 1569   2.894   1.827   8.704 -0.6091  4.6815  2.9015
   12MOL0     H 1570   2.756   1.924   8.668  3.1796  0.7241 -4.4826
   12MOL0     H 1571   2.511   1.788   8.787 -0.6089 -0.2307  1.3792
   12MOL0     H 1572   2.392   1.702   8.989 -0.2228  2.4443 -0.3826
   12MOL0     H 1573   2.468   1.607   9.101  1.5839 -1.0939 -0.4640
   12MOL0     H 1574   2.368   1.785   9.236 -1.4216 -2.2442 -1.4554
   12MOL0     H 1575   2.547   1.801   9.237  0.3006  0.5634 -1.9217
   12MOL0     H 1576   2.551   1.968   9.068 -0.9257 -2.0039 -2.1252
   12MOL0     H 1577   2.469   2.022   9.209  0.9813  1.5923  0.0398
   12MOL0     H 1578   2.238   1.955   9.089 -1.3413 -1.6792 -2.1373
   12MOL0     H 1579   2.340   1.935   8.944  2.3356  1.7906 -0.1279
   12MOL0     H 1580   2.558   2.256   8.957  1.2966 -0.9732 -0.3859
   12MOL0     H 1581   2.615   2.361   8.744 -0.4155  0.4184 -1.7917
   12MOL0     H 1582   2.727   2.426   8.342 -1.9555 -1.2754 -2.8828
   12MOL0     H 1583   2.746   2.559   8.139  1.7970  2.2151 -0.3043
   12MOL0     H 1584   2.747   2.800   7.958  0.9488 -1.5148  1.7792
   12MOL0     H 1585   2.642   2.652   7.932  0.4966  0.2954  1.2500
   12MOL0     H 1586   2.459   2.816   7.877  0.5540 -1.0144 -2.0087
   12MOL0     H 1587   2.576   2.946   7.883 -2.1827  0.8413 -0.3741
   12MOL0     H 1588   2.697   2.860   7.704 -2.6244  3.0183 -1.5811
   12MOL0     H 1589   2.618   2.708   7.701  0.0434 -0.4051  1.1978
   12MOL0     H 1590   2.542   2.984   7.650 -3.1768  0.4245  1.5182
   12MOL0     H 1591   2.414   2.865   7.628 -0.0885  0.6621 -0.2864
   12MOL0     H 1592   2.577   2.760   7.445 -0.4225 -0.3791  2.5169
   12MOL0     H 1593   2.671   2.918   7.454 -0.9713  3.2082 -1.1934
   12MOL0     H 1594   2.512   2.913   7.259 -0.7421  2.6925 -0.4509
   12MOL0     H 1595   2.383   2.875   7.373 -0.2977 -0.0178 -1.5338
   12MOL0     H 1596   2.559   3.126   7.386 -0.7342  0.6446  0.3089
   12MOL0     H 1597   2.401   3.099   7.473 -0.5015  1.0258 -1.0241
   12MOL0     H 1598   2.330   3.057   7.238  0.8826 -0.5577 -1.2209
   12MOL0     H 1599   2.325   3.219   7.317  1.8369  0.4792  1.2868
   12MOL0     H 1600   2.425   2.792   8.256  0.3790  0.2330 -0.9604
   12MOL0     H 1601   2.394   2.645   8.464 -1.5152  1.9632 -2.5236
   12MOL0     H 1602   2.265   2.183   8.564  0.1112  0.6025  0.2069
   12MOL0     H 1603   2.196   2.113   8.782  1.5273 -2.4795  0.0981
   12MOL0     H 1604   2.458   1.713   7.642 -0.2924 -0.1586 -1.9904
   12MOL0     H 1605   2.348   1.600   7.458  0.3727 -5.1671  0.4541
   12MOL0     H 1606   1.985   1.499   7.235  0.7954  0.8594 -0.5456
   12MOL0     H 1607   1.956   1.460   6.990 -1.3546 -0.0083 -0.1970
   12MOL0     H 1608   1.972   1.281   6.682 -3.2484 -0.9874  0.0344
   12MOL0     H 1609   1.952   1.421   6.783  1.3520 -0.0884 -3.6482
   12MOL0     H 1610   1.785   1.272   6.925  3.0967 -0.3175  2.1755
   12MOL0     H 1611   1.848   1.131   6.849 -2.0853 -0.7792  0.9867
   12MOL0     H 1612   1.745   1.227   6.617 -1.0206  0.7998 -0.8103
   12MOL0     H 1613   1.665   1.346   6.716 -2.2875  0.1403 -0.6619
   12MOL0     H 1614   1.608   1.040   6.760 -0.6841  0.0536 -0.1936
   12MOL0     H 1615   1.508   1.161   6.815  0.1816 -2.9072  1.1138
   12MOL0     H 1616   1.443   1.107   6.393 -0.0071 -1.3157  0.1459
   12MOL0     H 1617   2.177   1.089   7.031 -1.1841  1.0630 -1.1466
   12MOL0     H 1618   2.158   1.072   7.385 -0.9597  3.1483 -0.6966
   12MOL0     H 1619   2.178   0.991   7.224  1.5438 -1.5464  2.1961
   12MOL0     H 1620   2.307   1.091   7.285  0.4674  1.3105  0.0884
   13MOL0     O 1621   5.811   3.112  10.319  0.0868 -0.3448 -0.0369
   13MOL0     C 1622   5.876   3.199  10.375  0.1932  0.1618 -0.4907
   13MOL0     O 1623   6.013   3.211  10.369 -0.5441 -0.6040 -0.7478
   13MOL0     C 1624   6.079   3.118  10.290 -1.2788 -0.1122 -0.1395
   13MOL0     C 1625   6.100   2.995  10.339 -0.1880  0.5679 -0.2071
   13MOL0     C 1626   6.170   2.898  10.267  0.2637 -0.8381  0.0237
   13MOL0     C 1627   6.234   2.930  10.135  0.2928  0.7359 -0.2117
   13MOL0     O 1628   6.291   2.836  10.053 -0.3122  1.5719 -0.0725
   13MOL0     C 1629   6.277   2.693  10.084 -0.9308  0.4807  0.6198
   13MOL0     C 1630   6.383   2.644   9.985 -0.6639  0.8746  0.1308
   13MOL0     C 1631   6.406   2.496   9.992 -0.6680 -0.3215  0.4303
   13MOL0     C 1632   6.312   2.423   9.896 -0.2930 -0.1354  0.1534
   13MOL0     C 1633   6.359   2.434   9.754  0.4057  0.3911 -1.2683
   13MOL0     C 1634   6.400   2.296   9.689  0.8633 -0.3130 -0.4444
   13MOL0     C 1635   6.450   2.333   9.545 -0.2566  0.7499 -0.1947
   13MOL0     C 1636   6.521   2.203   9.487 -0.9816  0.4774  0.9455
   13MOL0     N 1637   6.607   2.230   9.369  0.0052  0.1717  0.0878
   13MOL0     C 1638   6.561   2.320   9.271 -0.5346 -0.3679  0.7202
   13MOL0     C 1639   6.673   2.325   9.183  0.1949  0.6577 -0.3293
   13MOL0     C 1640   6.705   2.397   9.056  0.1611 -0.7024  0.4725
   13MOL0     C 1641   6.696   2.544   9.097 -0.3423  0.0986  0.0840
   13MOL0     C 1642   6.570   2.632   9.060 -0.1489 -0.1038 -0.2869
   13MOL0     C 1643   6.569   2.663   8.909 -0.1743  0.4519  0.2373
   13MOL0     O 1644   6.678   2.758   8.886 -0.5028  0.0529  0.4042
   13MOL0     C 1645   6.656   2.850   8.785  0.0929 -0.0903  1.0045
   13MOL0     C 1646   6.679   2.987   8.803  0.5305  0.0690 -0.0001
   13MOL0     C 1647   6.627   3.081   8.716  0.6967  0.0326 -0.0401
   13MOL0     C 1648   6.553   3.043   8.600  0.2207  0.1885  0.2080
   13MOL0     C 1649   6.510   3.139   8.496  0.0339 -0.3496 -0.9017
   13MOL0     O 1650   6.559   3.264   8.511  0.1142 -0.9443 -0.4441
   13MOL0     C 1651   6.548   3.362   8.416 -0.3158  1.2064 -0.1805
   13MOL0     C 1652   6.427   3.387   8.346  0.6602 -0.2864  0.6977
   13MOL0     C 1653   6.431   3.476   8.234  0.1213 -0.5368  0.1190
   13MOL0     C 1654   6.549   3.541   8.197  1.1344 -0.0156  0.2274
   13MOL0     O 1655   6.531   3.620   8.093 -0.0362  0.2288 -0.0942
   13MOL0     C 1656   6.646   3.699   8.054  0.8205  0.1731  0.3279
   13MOL0     C 1657   6.640   3.730   7.908 -0.1243 -0.3163  0.8759
   13MOL0     C 1658   6.572   3.871   7.896  0.8987  0.5321 -0.1949
   13MOL0     C 1659   6.573   3.918   7.748 -0.0856 -0.2957 -0.0201
   13MOL0     C 1660   6.497   4.054   7.756 -0.1667 -0.2558  0.2479
   13MOL0     C 1661   6.454   4.108   7.611  0.6281 -1.3581  0.3994
   13MOL0     C 1662   6.418   4.261   7.609 -0.0768 -0.2385  0.0609
   13MOL0     C 1663   6.284   4.297   7.654 -0.5023 -0.2072 -0.1513
   13MOL0    Cl 1664   6.165   4.183   7.589  0.0906  0.3034 -0.1739
   13MOL0     C 1665   6.666   3.507   8.268 -0.3255  0.5773 -0.4542
   13MOL0     C 1666   6.662   3.426   8.383  0.1493  0.8274  1.4781
   13MOL0     O 1667   6.427   3.103   8.411  0.5242  0.3667 -0.7100
   13MOL0     C 1668   6.540   2.902   8.570 -0.0155 -0.1451 -0.6778
   13MOL0     C 1669   6.586   2.806   8.669 -0.8827 -0.5167  0.1471
   13MOL0     N 1670   6.769   2.244   9.240  0.3345  0.5010  0.1798
   13MOL0     N 1671   6.733   2.187   9.347  0.0478 -0.4810 -0.5540
   13MOL0     C 1672   6.231   3.061  10.096  0.6180  1.2299 -0.1728
   13MOL0     C 1673   6.151   3.159  10.174  0.2262  0.5906 -0.6817
   13MOL0     C 1674   5.802   3.301  10.447 -0.3548  0.2605 -0.6697
   13MOL0     C 1675   5.872   3.354  10.555  0.0587  0.2790  1.1380
   13MOL0     C 1676   5.811   3.463  10.622 -0.8408 -0.4407 -1.2615
   13MOL0     C 1677   5.680   3.496  10.586  0.3080 -0.6199  0.2426
   13MOL0     O 1678   5.617   3.595  10.659  0.8273  0.0659  0.8346
   13MOL0     C 1679   5.665   3.649  10.792  0.0625  0.8862 -0.3524
   13MOL0     C 1680   5.547   3.647  10.898 -0.7551 -0.7290  1.3181
   13MOL0     C 1681   5.494   3.503  10.917 -0.1594  0.1306  1.2050
   13MOL0     C 1682   5.421   3.497  11.054 -0.2446  1.1110  0.2889
   13MOL0     C 1683   5.292   3.569  11.049 -0.4900 -0.2181  0.3492
   13MOL0     C 1684   5.178   3.600  11.047 -0.6697 -1.1748 -0.7099
   13MOL0     C 1685   5.612   3.448  10.476  0.7925 -0.3746  0.2896
   13MOL0     C 1686   5.675   3.348  10.406  0.3206 -0.4700 -0.3773
   13MOL0     C 1687   5.588   3.289  10.294  0.5442 -0.3774  0.9155
   13MOL0     H 1688   6.058   2.965  10.435  2.5011 -0.0695  0.8402
   13MOL0     H 1689   6.172   2.797  10.307 -4.0594 -0.0733  2.8197
   13MOL0     H 1690   6.302   2.665  10.186  2.2790  0.0695 -0.1658
   13MOL0     H 1691   6.174   2.659  10.065 -0.1147 -1.7041 -0.2160
   13MOL0     H 1692   6.478   2.677  10.027 -0.3320 -1.0366  0.9689
   13MOL0     H 1693   6.380   2.681   9.882 -0.2532 -0.3239 -0.3349
   13MOL0     H 1694   6.400   2.457  10.094 -2.3344  0.6503  0.7315
   13MOL0     H 1695   6.511   2.474   9.970 -0.9086 -2.7277  1.4333
   13MOL0     H 1696   6.326   2.319   9.928  1.2444  0.6506  2.3457
   13MOL0     H 1697   6.212   2.462   9.913  0.1443  0.4418  1.5523
   13MOL0     H 1698   6.275   2.470   9.695  1.2618 -0.4672 -3.0953
   13MOL0     H 1699   6.432   2.513   9.736 -0.5908  0.9253 -3.2468
   13MOL0     H 1700   6.472   2.238   9.747 -1.6470 -0.6017  2.6465
   13MOL0     H 1701   6.311   2.233   9.681 -0.3759  1.5184 -2.5036
   13MOL0     H 1702   6.521   2.416   9.554  0.1298  0.2473  1.7312
   13MOL0     H 1703   6.366   2.347   9.476  0.2270  0.7098 -0.8016
   13MOL0     H 1704   6.591   2.160   9.559 -1.6005 -1.6312  0.3448
   13MOL0     H 1705   6.449   2.125   9.462  2.1176 -1.3953 -3.1882
   13MOL0     H 1706   6.477   2.389   9.263  1.2086  1.9372  1.2430
   13MOL0     H 1707   6.805   2.380   9.014 -0.3766  0.5025 -1.4363
   13MOL0     H 1708   6.635   2.367   8.978  0.8559  2.3214 -1.4814
   13MOL0     H 1709   6.687   2.549   9.206 -1.5714 -0.0639  0.0060
   13MOL0     H 1710   6.785   2.604   9.079 -0.9068  1.6257  2.0217
   13MOL0     H 1711   6.556   2.722   9.121 -1.3575  0.1811 -0.9462
   13MOL0     H 1712   6.482   2.572   9.088 -2.7565  2.6382 -1.9628
   13MOL0     H 1713   6.470   2.702   8.885  0.1965  1.3610  0.1324
   13MOL0     H 1714   6.574   2.572   8.849 -0.3148 -1.0799  2.4160
   13MOL0     H 1715   6.734   3.022   8.890 -0.9035  2.1352  0.1501
   13MOL0     H 1716   6.631   3.190   8.724 -5.6996  0.6021  1.5138
   13MOL0     H 1717   6.328   3.348   8.367 -0.1537  1.9845  1.4461
   13MOL0     H 1718   6.344   3.508   8.177  0.8780  0.4011 -0.5335
   13MOL0     H 1719   6.647   3.788   8.116  2.0644  0.8592 -0.6238
   13MOL0     H 1720   6.727   3.627   8.067  0.1608 -0.3381  1.7574
   13MOL0     H 1721   6.745   3.740   7.880 -0.9180  2.6142 -1.5197
   13MOL0     H 1722   6.595   3.658   7.839 -1.0399  1.3878 -0.3812
   13MOL0     H 1723   6.467   3.847   7.917  0.9626  2.7139  3.4046
   13MOL0     H 1724   6.605   3.946   7.968 -2.3569  1.4851  0.4825
   13MOL0     H 1725   6.531   3.844   7.679 -0.4427  0.1131 -0.2393
   13MOL0     H 1726   6.675   3.937   7.713 -0.7436 -0.3520 -2.0984
   13MOL0     H 1727   6.561   4.123   7.812  4.0511 -1.7543 -2.2317
   13MOL0     H 1728   6.405   4.037   7.812 -0.4211 -3.0589 -0.8335
   13MOL0     H 1729   6.540   4.100   7.544 -2.0231 -0.2468 -3.4939
   13MOL0     H 1730   6.382   4.050   7.553 -1.7744  1.2374  0.5760
   13MOL0     H 1731   6.413   4.292   7.504  0.4200 -0.6032 -0.0747
   13MOL0     H 1732   6.490   4.327   7.658 -2.1318  2.0945  0.1189
   13MOL0     H 1733   6.283   4.276   7.761 -1.6686 -4.5262 -0.8527
   13MOL0     H 1734   6.270   4.404   7.631  0.4049  0.6732  2.8938
   13MOL0     H 1735   6.755   3.567   8.254 -1.3556  2.3588  0.3319
   13MOL0     H 1736   6.750   3.406   8.444  0.3986 -0.1028  0.8482
   13MOL0     H 1737   6.502   2.866   8.475  0.9909 -2.9471 -0.1188
   13MOL0     H 1738   6.572   2.698   8.665  0.7263 -0.7373 -0.1490
   13MOL0     H 1739   6.288   3.089  10.008  1.9537 -1.1640 -0.1610
   13MOL0     H 1740   6.134   3.264  10.157 -1.2006  0.7791  1.5759
   13MOL0     H 1741   5.972   3.325  10.585  1.2818  3.6696  0.8491
   13MOL0     H 1742   5.872   3.510  10.698  1.7986 -0.9264 -2.9017
   13MOL0     H 1743   5.692   3.755  10.787  2.7699  0.3378  0.7333
   13MOL0     H 1744   5.744   3.582  10.827 -1.4253  0.2944  2.1726
   13MOL0     H 1745   5.460   3.706  10.867 -0.1590 -2.1856 -4.4069
   13MOL0     H 1746   5.578   3.686  10.995  0.1885  0.7455  0.4652
   13MOL0     H 1747   5.576   3.430  10.909 -0.4729 -0.1894  0.8329
   13MOL0     H 1748   5.429   3.481  10.832  0.2512  2.7824  0.1145
   13MOL0     H 1749   5.400   3.395  11.088 -0.8119  1.9413  2.6709
   13MOL0     H 1750   5.479   3.551  11.130 -3.9522  2.8252  2.1437
   13MOL0     H 1751   5.074   3.620  11.064 -0.1730  0.3203  0.7809
   13MOL0     H 1752   5.509   3.481  10.469  0.7547  0.1381  2.4609
   13MOL0     H 1753   5.574   3.184  10.320  2.4808 -0.5928  1.2792
   13MOL0     H 1754   5.494   3.343  10.277 -1.3200 -3.2036  1.5872
   13MOL0     H 1755   5.639   3.294  10.197 -1.0408 -0.5278  0.0324
   14MOL0     O 1756   3.913   8.719  10.839  0.1092  0.9217 -0.2388
   14MOL0     C 1757   3.852   8.677  10.736 -0.0652  0.8521  0.2649
   14MOL0     O 1758   3.885   8.570  10.653 -0.7266 -0.1848 -0.6143
   14MOL0     C 1759   3.975   8.493  10.715 -0.2779  0.8089  0.6576
   14MOL0     C 1760   4.113   8.520  10.707  0.7318 -0.4729 -0.4269
   14MOL0     C 1761   4.194   8.433  10.774 -0.1452 -0.2013 -0.0895
   14MOL0     C 1762   4.152   8.312  10.829  0.5012 -0.5500 -0.2054
   14MOL0     O 1763   4.256   8.228  10.878  0.3019 -0.5492  0.1511
   14MOL0     C 1764   4.208   8.094  10.924 -0.6761 -0.1231 -0.9320
   14MOL0     C 1765   4.317   8.029  11.003  1.4053 -0.3886  0.1194
   14MOL0     C 1766   4.340   8.078  11.139 -0.1782 -0.6780 -0.7484
   14MOL0     C 1767   4.459   8.006  11.204 -0.2509 -0.4666  0.9079
   14MOL0     C 1768   4.465   8.042  11.352 -0.4026  0.1184  0.1058
   14MOL0     C 1769   4.559   7.944  11.424  0.1482 -0.7189 -0.5709
   14MOL0     C 1770   4.536   7.984  11.573  0.3867  0.5476  0.6649
   14MOL0     C 1771   4.612   7.889  11.677  0.6225  0.2709 -0.7185
   14MOL0     N 1772   4.583   7.950  11.812 -0.3230  0.4724  0.3118
   14MOL0     C 1773   4.468   8.019  11.839  0.3933  0.3386 -0.1044
   14MOL0     C 1774   4.483   8.043  11.972 -0.4114  1.0059 -0.3361
   14MOL0     C 1775   4.390   8.111  12.066 -0.6670  0.0273  0.0219
   14MOL0     C 1776   4.425   8.261  12.088  0.1722  0.9314 -0.0856
   14MOL0     C 1777   4.562   8.279  12.159 -0.1502  0.8606 -0.4049
   14MOL0     C 1778   4.593   8.197  12.285  0.0072 -0.0626  0.0338
   14MOL0     O 1779   4.474   8.185  12.359 -0.5023  0.1927 -0.4075
   14MOL0     C 1780   4.483   8.123  12.484 -0.7867  0.7480  0.5915
   14MOL0     C 1781   4.358   8.096  12.542 -0.9598  0.1662 -0.0876
   14MOL0     C 1782   4.344   8.047  12.676  0.9891 -1.2930 -0.4659
   14MOL0     C 1783   4.459   8.006  12.748 -0.4411 -0.4268  0.5146
   14MOL0     C 1784   4.452   7.951  12.882  0.2913  0.4311 -0.4040
   14MOL0     O 1785   4.329   7.932  12.927  0.5285 -0.1330  0.5579
   14MOL0     C 1786   4.293   7.857  13.033  0.3189  0.3973 -0.2121
   14MOL0     C 1787   4.232   7.908  13.146  0.7685 -0.0796 -1.0795
   14MOL0     C 1788   4.210   7.816  13.259  0.8249 -0.1935 -0.6089
   14MOL0     C 1789   4.223   7.675  13.235  0.2893  0.0841 -0.3099
   14MOL0     O 1790   4.184   7.588  13.329  1.0093  0.3639 -0.6709
   14MOL0     C 1791   4.221   7.601  13.470  1.0102  0.0292  0.3490
   14MOL0     C 1792   4.289   7.465  13.523  0.1618 -0.1906  0.3628
   14MOL0     C 1793   4.405   7.410  13.441  1.8257 -0.0691 -0.8127
   14MOL0     C 1794   4.482   7.313  13.522 -0.7884  0.4397 -0.7220
   14MOL0     C 1795   4.557   7.214  13.435 -0.7647  0.7080 -0.0940
   14MOL0     C 1796   4.653   7.119  13.511 -0.7426 -0.1181 -0.2073
   14MOL0     C 1797   4.725   7.023  13.411  0.6005 -1.1165  0.2029
   14MOL0     C 1798   4.627   6.916  13.349  0.3451  0.4617 -0.1437
   14MOL0    Cl 1799   4.560   6.816  13.466  0.1601  0.0795  0.1192
   14MOL0     C 1800   4.283   7.628  13.112  0.2058  1.0580  0.2168
   14MOL0     C 1801   4.330   7.723  13.026  0.3570  1.5530  0.1752
   14MOL0     O 1802   4.553   7.896  12.932  0.1035  0.2091  0.3970
   14MOL0     C 1803   4.586   8.019  12.686  0.4515  0.6363 -0.0391
   14MOL0     C 1804   4.597   8.078  12.563  0.9078 -0.2855 -0.1363
   14MOL0     N 1805   4.598   7.990  12.016  0.1616 -0.4793  0.5433
   14MOL0     N 1806   4.656   7.918  11.920  0.1985 -0.3126  0.7103
   14MOL0     C 1807   4.014   8.282  10.834  1.2152 -0.5724 -0.7183
   14MOL0     C 1808   3.929   8.377  10.776 -0.5662 -0.6014  0.8142
   14MOL0     C 1809   3.754   8.777  10.681 -0.2205  0.7617 -0.2221
   14MOL0     C 1810   3.800   8.910  10.654 -0.1266  0.3978 -0.0187
   14MOL0     C 1811   3.721   8.988  10.570 -0.3706 -0.2226  1.0722
   14MOL0     C 1812   3.605   8.942  10.518 -0.9370  0.6486  0.1403
   14MOL0     O 1813   3.518   9.022  10.443 -0.4143 -0.2553  0.0967
   14MOL0     C 1814   3.454   8.968  10.332  0.4127  0.3357  0.4285
   14MOL0     C 1815   3.309   9.007  10.355 -0.3025  0.5387  0.4485
   14MOL0     C 1816   3.210   8.995  10.236 -0.3537  0.1177  0.6970
   14MOL0     C 1817   3.211   8.863  10.168  0.5861  0.5201 -0.2193
   14MOL0     C 1818   3.328   8.834  10.081  1.8115 -0.9240  0.5475
   14MOL0     C 1819   3.423   8.837  10.014  0.5221  0.0723 -0.6136
   14MOL0     C 1820   3.561   8.822  10.564  0.5359  0.9239 -0.2657
   14MOL0     C 1821   3.629   8.737  10.640 -0.2006  0.8279 -0.2352
   14MOL0     C 1822   3.558   8.619  10.697 -0.8316 -0.4137 -0.5818
   14MOL0     H 1823   4.150   8.611  10.660  0.0434 -0.3931 -0.8351
   14MOL0     H 1824   4.301   8.450  10.771 -0.1108 -0.2080  0.8641
   14MOL0     H 1825   4.132   8.115  11.000 -0.3602  2.4785 -1.2520
   14MOL0     H 1826   4.165   8.044  10.838 -4.3182 -1.1401  1.2683
   14MOL0     H 1827   4.406   8.052  10.944 -0.5618  0.8000 -2.6309
   14MOL0     H 1828   4.308   7.920  11.005  0.4736 -0.3872 -1.6942
   14MOL0     H 1829   4.246   8.060  11.192 -0.0588 -2.9567 -1.2057
   14MOL0     H 1830   4.358   8.186  11.135  1.2625 -0.8638  0.0866
   14MOL0     H 1831   4.451   7.900  11.178  1.4808  0.0557 -2.1662
   14MOL0     H 1832   4.548   8.041  11.151  0.5845 -3.7940 -0.1188
   14MOL0     H 1833   4.492   8.147  11.368  1.7965 -0.3301 -0.2695
   14MOL0     H 1834   4.368   8.031  11.400 -0.1687 -1.2200  0.3221
   14MOL0     H 1835   4.539   7.841  11.394 -1.5469  0.0113 -2.1525
   14MOL0     H 1836   4.660   7.976  11.395 -1.1205  1.9855 -2.4281
   14MOL0     H 1837   4.429   7.994  11.588  0.1356  0.9065 -1.1100
   14MOL0     H 1838   4.577   8.085  11.585 -2.5111  2.0587 -1.0696
   14MOL0     H 1839   4.552   7.797  11.676  0.6982  0.1834  0.9475
   14MOL0     H 1840   4.713   7.867  11.642  0.6557  1.8281 -1.7371
   14MOL0     H 1841   4.376   8.049  11.790 -0.0696  0.3104  0.7233
   14MOL0     H 1842   4.291   8.101  12.021  0.4357  0.7045 -2.7456
   14MOL0     H 1843   4.374   8.060  12.161  0.7894 -1.2209 -0.3695
   14MOL0     H 1844   4.437   8.301  11.987  2.0407 -1.9383 -1.1176
   14MOL0     H 1845   4.344   8.305  12.147 -1.0268 -0.0465 -0.9698
   14MOL0     H 1846   4.580   8.383  12.187 -2.3612  0.8398  1.3943
   14MOL0     H 1847   4.642   8.248  12.091 -1.3764  0.3521 -1.6638
   14MOL0     H 1848   4.675   8.241  12.342 -0.6078  0.9015  0.2020
   14MOL0     H 1849   4.627   8.104  12.239 -0.5910  0.6883 -2.0560
   14MOL0     H 1850   4.272   8.131  12.485 -0.5348  1.4577  0.0438
   14MOL0     H 1851   4.245   8.037  12.719  2.0001 -0.5483  2.2199
   14MOL0     H 1852   4.199   8.011  13.159 -0.1937 -0.3114 -1.5718
   14MOL0     H 1853   4.175   7.857  13.353  2.2588 -0.0044 -0.1305
   14MOL0     H 1854   4.304   7.671  13.482  2.4508 -1.0838 -2.3842
   14MOL0     H 1855   4.132   7.623  13.530  0.9811 -2.0166  1.1472
   14MOL0     H 1856   4.316   7.482  13.627  0.7657  0.5753  0.0952
   14MOL0     H 1857   4.217   7.386  13.502  4.4428 -3.5445 -4.3457
   14MOL0     H 1858   4.364   7.373  13.346 -3.0387  0.6570  0.7276
   14MOL0     H 1859   4.472   7.495  13.423 -2.1368  2.9860 -2.8079
   14MOL0     H 1860   4.421   7.256  13.592 -0.3805  0.4152 -0.3853
   14MOL0     H 1861   4.562   7.357  13.581  1.7328 -2.8681 -1.3861
   14MOL0     H 1862   4.617   7.263  13.358 -0.9279 -0.3562 -0.9266
   14MOL0     H 1863   4.485   7.146  13.387 -1.4292 -1.4798  3.5650
   14MOL0     H 1864   4.737   7.174  13.556 -0.0793 -0.3055 -1.1900
   14MOL0     H 1865   4.598   7.067  13.590  0.9651  3.7577  3.9646
   14MOL0     H 1866   4.813   6.980  13.458 -0.0667 -0.1739  2.4228
   14MOL0     H 1867   4.765   7.081  13.327 -0.0531 -0.5396  0.2794
   14MOL0     H 1868   4.552   6.954  13.279  0.2401 -0.1502 -0.3710
   14MOL0     H 1869   4.712   6.866  13.302 -0.0614  1.0057 -1.5356
   14MOL0     H 1870   4.294   7.521  13.095  2.2038  0.6787  3.1236
   14MOL0     H 1871   4.369   7.687  12.931 -1.5654  0.8168 -0.3884
   14MOL0     H 1872   4.671   7.975  12.738 -0.3184 -0.5846  0.2075
   14MOL0     H 1873   4.695   8.102  12.523  0.2853 -0.3640 -1.8011
   14MOL0     H 1874   3.964   8.190  10.863  2.7167 -1.4907 -0.9188
   14MOL0     H 1875   3.823   8.350  10.778 -1.2490  1.6314 -1.1019
   14MOL0     H 1876   3.896   8.946  10.692  0.8333 -2.0311  0.0471
   14MOL0     H 1877   3.735   9.094  10.551 -0.6163 -0.3646 -0.0100
   14MOL0     H 1878   3.472   8.860  10.325 -1.8831 -0.3787  3.5521
   14MOL0     H 1879   3.496   9.018  10.244  1.9117  2.3315  2.1989
   14MOL0     H 1880   3.304   9.110  10.391  3.2416  1.4106 -1.1121
   14MOL0     H 1881   3.278   8.939  10.434 -3.9419 -3.3912 -3.7302
   14MOL0     H 1882   3.233   9.069  10.159 -1.3665  0.1985  0.4623
   14MOL0     H 1883   3.112   9.017  10.278 -1.0622 -1.6837  0.0853
   14MOL0     H 1884   3.185   8.781  10.235 -0.8494  1.5200  0.4872
   14MOL0     H 1885   3.117   8.851  10.113  1.1182  0.7832 -1.1987
   14MOL0     H 1886   3.508   8.830   9.950  0.9628 -2.9860  0.1277
   14MOL0     H 1887   3.474   8.766  10.530 -1.7997  2.8057  2.0999
   14MOL0     H 1888   3.449   8.631  10.699 -0.6705  4.0903 -3.4045
   14MOL0     H 1889   3.581   8.531  10.638  2.7827 -0.8076  1.1399
   14MOL0     H 1890   3.592   8.605  10.800 -0.3601  0.7888 -0.5595
   15MOL0     O 1891  10.867   1.856   5.477  0.8308  0.6887  0.0996
   15MOL0     C 1892  10.745   1.885   5.462  0.9530 -0.2316 -0.0731
   15MOL0     O 1893  10.654   1.932   5.556 -0.4076 -0.6406 -0.4180
   15MOL0     C 1894  10.703   1.940   5.683  1.1481 -0.2513  0.2830
   15MOL0     C 1895  10.754   2.066   5.719  0.1113 -0.5962  0.4219
   15MOL0     C 1896  10.806   2.079   5.845 -0.2253  0.4415  0.4956
   15MOL0     C 1897  10.790   1.984   5.941  0.4877  0.1693  0.4123
   15MOL0     O 1898  10.850   2.010   6.067 -0.4891 -1.4135  0.4529
   15MOL0     C 1899  10.860   2.146   6.107  0.5626  0.9553 -0.4076
   15MOL0     C 1900  10.855   2.161   6.259 -0.2905 -0.4652  0.7994
   15MOL0     C 1901  10.797   2.302   6.294 -0.1190 -0.5388 -0.3111
   15MOL0     C 1902  10.757   2.319   6.447  0.2505 -0.3530 -0.2317
   15MOL0     C 1903  10.692   2.449   6.478 -0.9761  0.2718  0.4548
   15MOL0     C 1904  10.780   2.578   6.466  0.7498  0.2143 -0.5829
   15MOL0     C 1905  10.900   2.589   6.567  0.0737 -0.9140  0.2919
   15MOL0     C 1906  10.977   2.712   6.536  0.3993 -0.5388  0.1628
   15MOL0     N 1907  11.092   2.724   6.627 -0.7457 -0.1196  0.2139
   15MOL0     C 1908  11.094   2.712   6.765  0.4883  0.3411 -0.2281
   15MOL0     C 1909  11.207   2.770   6.807 -0.9681  0.9014 -0.2018
   15MOL0     C 1910  11.246   2.789   6.950 -0.0885 -0.5964 -0.1706
   15MOL0     C 1911  11.296   2.934   6.986 -0.9485  0.3735  0.6356
   15MOL0     C 1912  11.201   3.057   6.980  0.5182  0.1196 -0.0706
   15MOL0     C 1913  11.076   3.056   7.066  0.3185  0.3703  0.8791
   15MOL0     O 1914  10.965   3.134   7.013  0.3432  0.1623  0.3511
   15MOL0     C 1915  10.893   3.100   6.907  0.3826 -0.2523  0.8621
   15MOL0     C 1916  10.890   3.198   6.813  0.0082  0.6926 -0.4706
   15MOL0     C 1917  10.827   3.179   6.690 -0.5820 -0.4801 -0.1003
   15MOL0     C 1918  10.781   3.052   6.658 -0.3532  1.3671  0.4583
   15MOL0     C 1919  10.713   3.024   6.529 -0.1215 -0.1511  0.2745
   15MOL0     O 1920  10.691   3.129   6.441  0.3707  0.0158 -0.2768
   15MOL0     C 1921  10.640   3.104   6.318 -0.1997 -0.2868 -0.0535
   15MOL0     C 1922  10.691   3.181   6.224 -0.1590 -1.1708  0.2798
   15MOL0     C 1923  10.628   3.183   6.099  0.1607  0.4140  0.4989
   15MOL0     C 1924  10.527   3.107   6.065  0.4663 -0.2129  0.0762
   15MOL0     O 1925  10.483   3.114   5.933 -0.8120  0.1105  0.4547
   15MOL0     C 1926  10.428   2.997   5.867  0.7445  0.2058  1.0939
   15MOL0     C 1927  10.417   3.021   5.716 -0.1362  0.0424  0.2023
   15MOL0     C 1928  10.354   2.899   5.649  0.0471  0.8827 -0.7956
   15MOL0     C 1929  10.201   2.887   5.662 -0.5080 -0.3312  0.1596
   15MOL0     C 1930  10.142   2.743   5.663 -0.2466 -0.5005 -0.9227
   15MOL0     C 1931   9.994   2.726   5.694  0.0305 -0.2580  0.3764
   15MOL0     C 1932   9.897   2.788   5.591 -0.0564  0.0967 -0.1778
   15MOL0     C 1933   9.765   2.710   5.578 -0.2529  0.1559 -0.1506
   15MOL0    Cl 1934   9.691   2.689   5.729 -0.0180  0.2982  0.3116
   15MOL0     C 1935  10.465   3.025   6.169 -0.1234  0.0155  0.3075
   15MOL0     C 1936  10.515   3.032   6.300 -0.4514  0.0615  0.2202
   15MOL0     O 1937  10.682   2.904   6.510 -0.0148  0.4595 -0.3368
   15MOL0     C 1938  10.785   2.946   6.757 -0.2311  0.2752  0.3955
   15MOL0     C 1939  10.850   2.970   6.882  0.7757 -1.2159  0.1104
   15MOL0     N 1940  11.273   2.828   6.696  0.0654  0.8458 -0.2862
   15MOL0     N 1941  11.206   2.792   6.585 -0.2892  0.4109  0.1097
   15MOL0     C 1942  10.732   1.865   5.907  0.8132 -0.5554  0.1119
   15MOL0     C 1943  10.664   1.846   5.782  0.1527 -0.2468  0.0351
   15MOL0     C 1944  10.719   1.891   5.317  0.2470 -0.1830  0.0752
   15MOL0     C 1945  10.584   1.885   5.283  0.5010 -0.7104  0.4799
   15MOL0     C 1946  10.557   1.872   5.147  0.8298  0.3008  0.0926
   15MOL0     C 1947  10.659   1.874   5.045  0.7979 -0.7462 -0.5948
   15MOL0     O 1948  10.628   1.856   4.915 -0.5696  0.0311  0.8891
   15MOL0     C 1949  10.560   1.955   4.831  0.0440 -1.1028  0.0609
   15MOL0     C 1950  10.672   2.040   4.755  0.2880  0.0402 -0.0688
   15MOL0     C 1951  10.795   1.973   4.702 -0.6055  0.1556  0.7702
   15MOL0     C 1952  10.875   2.071   4.614 -0.1721  0.1991 -0.5153
   15MOL0     C 1953  10.989   2.007   4.560 -0.7395 -0.6593  1.0083
   15MOL0     C 1954  11.101   1.978   4.523 -0.2148 -0.1659  0.0480
   15MOL0     C 1955  10.782   1.905   5.085 -0.9592  0.8172 -0.3704
   15MOL0     C 1956  10.823   1.914   5.216  1.1972 -0.5232  0.3454
   15MOL0     C 1957  10.959   1.965   5.243 -0.3400 -0.1151  0.2147
   15MOL0     H 1958  10.761   2.147   5.647  0.2344 -1.4229 -0.5184
   15MOL0     H 1959  10.876   2.160   5.859  0.1792 -0.2207  2.7838
   15MOL0     H 1960  10.953   2.199   6.084  1.0797  0.0835 -0.3787
   15MOL0     H 1961  10.779   2.204   6.063  1.3429  0.1915 -3.0174
   15MOL0     H 1962  10.950   2.158   6.314 -0.6762 -0.6038  1.4686
   15MOL0     H 1963  10.794   2.081   6.301  2.2215 -2.2565  1.2118
   15MOL0     H 1964  10.711   2.333   6.234 -1.3414 -1.1810  1.0849
   15MOL0     H 1965  10.882   2.370   6.276 -0.2980  0.0351  0.9274
   15MOL0     H 1966  10.696   2.235   6.479  0.2147 -0.5713 -0.8741
   15MOL0     H 1967  10.847   2.310   6.510  0.2615  1.5679  0.0989
   15MOL0     H 1968  10.603   2.459   6.416  0.1952 -2.1865 -1.8521
   15MOL0     H 1969  10.668   2.452   6.585  0.2235  1.6694  0.7106
   15MOL0     H 1970  10.823   2.578   6.365 -4.1291  1.9508 -2.9919
   15MOL0     H 1971  10.706   2.653   6.495 -1.5726 -2.6363  1.4578
   15MOL0     H 1972  10.961   2.501   6.543 -1.2559 -1.6273 -0.6148
   15MOL0     H 1973  10.868   2.581   6.671 -0.6333 -0.3397  0.1301
   15MOL0     H 1974  11.022   2.715   6.436  1.9451  3.6479  0.7754
   15MOL0     H 1975  10.907   2.795   6.546  3.6253  2.4118  0.0287
   15MOL0     H 1976  11.041   2.650   6.837  5.3961 -2.0149  1.8435
   15MOL0     H 1977  11.161   2.762   7.012  0.3833 -1.1736  0.2345
   15MOL0     H 1978  11.324   2.715   6.968 -0.1300 -1.2796 -2.3988
   15MOL0     H 1979  11.330   2.928   7.090  0.5312 -0.0976  0.1382
   15MOL0     H 1980  11.381   2.958   6.923 -1.8036  2.2575  0.1509
   15MOL0     H 1981  11.177   3.086   6.878 -1.3184  1.5040  0.7004
   15MOL0     H 1982  11.264   3.142   7.010  0.0477  0.3075  0.4002
   15MOL0     H 1983  11.092   3.081   7.171 -0.4267  1.7813  0.6880
   15MOL0     H 1984  11.034   2.955   7.075 -0.4447  0.5276 -0.5885
   15MOL0     H 1985  10.928   3.297   6.837  0.9038 -0.7780  5.6319
   15MOL0     H 1986  10.826   3.269   6.629  1.2343 -1.2745 -1.4051
   15MOL0     H 1987  10.769   3.255   6.237 -0.9166 -0.2476 -0.2864
   15MOL0     H 1988  10.681   3.251   6.032 -1.4649 -0.5436 -1.8698
   15MOL0     H 1989  10.509   2.924   5.872  2.3015  1.6414 -1.0916
   15MOL0     H 1990  10.332   2.958   5.901 -0.6350  0.9192 -1.6425
   15MOL0     H 1991  10.358   3.113   5.702 -1.4662 -0.9932 -1.3935
   15MOL0     H 1992  10.515   3.044   5.675 -0.0609 -1.8522 -0.7884
   15MOL0     H 1993  10.375   2.895   5.542 -0.2949  0.4730 -0.8527
   15MOL0     H 1994  10.392   2.807   5.695 -1.2101  0.7097 -0.0350
   15MOL0     H 1995  10.157   2.955   5.588  1.3696 -2.3127 -2.9589
   15MOL0     H 1996  10.161   2.937   5.751 -1.5462 -0.4654 -0.2107
   15MOL0     H 1997  10.207   2.701   5.740  2.7776  2.3078 -1.7286
   15MOL0     H 1998  10.161   2.685   5.573 -1.3485  1.2849 -2.3702
   15MOL0     H 1999   9.976   2.619   5.701 -2.0753  0.0537  0.4026
   15MOL0     H 2000   9.964   2.766   5.792 -1.1140 -2.1576  0.8479
   15MOL0     H 2001   9.935   2.771   5.489  1.7742 -3.0375  0.8773
   15MOL0     H 2002   9.872   2.891   5.617  4.8273  1.2468  0.8734
   15MOL0     H 2003   9.699   2.748   5.499 -1.5296 -0.2048  0.7116
   15MOL0     H 2004   9.794   2.607   5.553  3.6433 -0.2426  4.6202
   15MOL0     H 2005  10.376   2.964   6.155 -1.1957  1.5841  0.0944
   15MOL0     H 2006  10.471   2.972   6.380 -1.1809 -1.9286 -1.5720
   15MOL0     H 2007  10.744   2.847   6.744  0.4102  0.4466 -4.6554
   15MOL0     H 2008  10.854   2.896   6.962 -0.0318  0.9974  2.3509
   15MOL0     H 2009  10.722   1.793   5.988 -2.7920  0.9131  1.1920
   15MOL0     H 2010  10.617   1.751   5.757 -1.5158  1.2750 -3.1277
   15MOL0     H 2011  10.506   1.868   5.356 -1.3597  2.2189 -0.6111
   15MOL0     H 2012  10.454   1.848   5.121 -0.1094  1.8804  1.9899
   15MOL0     H 2013  10.495   2.018   4.893 -2.8628  0.3398 -3.9589
   15MOL0     H 2014  10.505   1.906   4.749 -0.6510 -0.4660  0.1350
   15MOL0     H 2015  10.714   2.115   4.824 -3.4289  0.6186  1.8207
   15MOL0     H 2016  10.615   2.090   4.677  0.8840  0.2664 -0.3667
   15MOL0     H 2017  10.781   1.881   4.643  4.5503 -0.3783 -0.1464
   15MOL0     H 2018  10.847   1.942   4.793 -1.8329 -2.0973  0.7856
   15MOL0     H 2019  10.819   2.115   4.531  3.0667 -2.1460 -4.2703
   15MOL0     H 2020  10.913   2.148   4.682 -2.3976  1.8768 -1.0354
   15MOL0     H 2021  11.200   1.952   4.493  0.5729  1.6874  0.8754
   15MOL0     H 2022  10.866   1.899   5.016  2.0320  1.8923  2.8928
   15MOL0     H 2023  10.960   2.042   5.321  1.0641  0.4685 -0.3298
   15MOL0     H 2024  11.031   1.888   5.273  0.9380  1.1431  0.5068
   15MOL0     H 2025  10.991   2.017   5.152 -2.1280 -0.3870 -0.6136
   16MOL0     O 2026  10.132   7.405   4.880  0.1106  0.0466 -0.2363
   16MOL0     C 2027  10.164   7.485   4.785  0.5906 -0.5425 -0.5662
   16MOL0     O 2028  10.200   7.614   4.808  0.7032  0.2485  0.0241
   16MOL0     C 2029  10.194   7.665   4.933 -0.7910  0.7604 -0.3922
   16MOL0     C 2030  10.077   7.678   5.007  0.2147 -0.2229  0.4188
   16MOL0     C 2031  10.076   7.716   5.149 -0.1269  0.6808  0.5606
   16MOL0     C 2032  10.195   7.760   5.197 -0.0284 -0.1384  0.1361
   16MOL0     O 2033  10.187   7.832   5.314 -0.4500 -1.4404 -0.2354
   16MOL0     C 2034  10.290   7.816   5.418  0.6705 -0.1065  1.0973
   16MOL0     C 2035  10.267   7.910   5.522 -0.4368 -0.1021 -1.1369
   16MOL0     C 2036  10.389   7.888   5.618 -0.3231  0.1749  0.3232
   16MOL0     C 2037  10.385   7.984   5.739  0.4385 -1.7795 -0.6365
   16MOL0     C 2038  10.256   8.007   5.813  0.0636 -0.3230 -0.8520
   16MOL0     C 2039  10.170   8.126   5.784  0.7951 -0.4006  0.3389
   16MOL0     C 2040  10.038   8.126   5.858  0.2599 -0.8872  0.0651
   16MOL0     C 2041   9.922   8.043   5.796  0.4000  0.8542 -0.2841
   16MOL0     N 2042   9.882   8.101   5.672 -0.6041  0.5616 -0.2457
   16MOL0     C 2043   9.905   8.062   5.542 -0.5559  1.4060 -0.3924
   16MOL0     C 2044   9.867   8.163   5.460 -0.6497  0.3825 -0.3915
   16MOL0     C 2045   9.886   8.165   5.311  1.0650  0.4211  0.2746
   16MOL0     C 2046  10.032   8.155   5.265  0.3253 -0.3041 -0.5881
   16MOL0     C 2047  10.089   8.305   5.255 -0.6994  0.7308 -0.3392
   16MOL0     C 2048  10.185   8.318   5.135 -1.2976  1.2634  0.6788
   16MOL0     O 2049  10.135   8.302   5.000 -0.1942  0.1770 -0.7469
   16MOL0     C 2050  10.027   8.377   4.956  0.2158  0.9239 -0.2909
   16MOL0     C 2051   9.936   8.323   4.864 -0.4336 -0.3206  0.4649
   16MOL0     C 2052   9.825   8.396   4.825 -0.0617  0.1891 -0.2032
   16MOL0     C 2053   9.794   8.521   4.881 -0.4340  0.7732 -0.7160
   16MOL0     C 2054   9.668   8.589   4.841 -0.8161  0.0378  0.2368
   16MOL0     O 2055   9.575   8.524   4.774  0.3169  0.3053 -0.6067
   16MOL0     C 2056   9.454   8.580   4.735 -0.7088 -0.1137 -0.0700
   16MOL0     C 2057   9.404   8.549   4.604  0.8021 -0.9489  0.2293
   16MOL0     C 2058   9.282   8.611   4.560 -0.2812 -0.1022  0.1658
   16MOL0     C 2059   9.222   8.699   4.638 -1.0049 -0.3351 -0.0223
   16MOL0     O 2060   9.111   8.756   4.571 -0.4372  1.2238 -0.2239
   16MOL0     C 2061   9.022   8.819   4.657  0.5781  0.8099 -0.0841
   16MOL0     C 2062   8.916   8.886   4.556 -0.2605 -0.1570 -0.6996
   16MOL0     C 2063   8.817   8.980   4.626  0.1561 -0.3188 -0.2367
   16MOL0     C 2064   8.781   8.940   4.771  0.3891  0.2560  0.2643
   16MOL0     C 2065   8.702   9.041   4.841 -0.3731  0.1884  0.7829
   16MOL0     C 2066   8.630   8.984   4.964  0.1054 -0.3094  0.0820
   16MOL0     C 2067   8.540   8.866   4.945  1.2103  0.5537 -0.4870
   16MOL0     C 2068   8.433   8.881   4.833 -0.8179  0.4656 -0.7613
   16MOL0    Cl 2069   8.303   8.744   4.859 -0.0606  0.0624 -0.3093
   16MOL0     C 2070   9.258   8.722   4.780  0.1319 -0.4209 -0.5796
   16MOL0     C 2071   9.377   8.658   4.825  0.3429  0.2135 -0.1063
   16MOL0     O 2072   9.669   8.714   4.854  0.2179  0.2042 -0.0400
   16MOL0     C 2073   9.876   8.574   4.985 -0.1611 -0.2028 -0.2757
   16MOL0     C 2074   9.998   8.505   5.008  0.1968 -0.4927 -0.4268
   16MOL0     N 2075   9.825   8.263   5.538 -0.1239  0.1687  0.2279
   16MOL0     N 2076   9.823   8.218   5.658 -0.5192 -0.1146  0.2646
   16MOL0     C 2077  10.309   7.751   5.122 -0.0435  0.0278  0.1371
   16MOL0     C 2078  10.314   7.710   4.993 -0.0165  0.3557 -0.7685
   16MOL0     C 2079  10.208   7.422   4.668  0.3420  0.8939 -0.3137
   16MOL0     C 2080  10.126   7.313   4.621  1.1449  0.4979 -0.0719
   16MOL0     C 2081  10.155   7.237   4.501 -0.6950  0.4829 -0.2342
   16MOL0     C 2082  10.266   7.270   4.424 -0.0234  0.7990 -0.0026
   16MOL0     O 2083  10.303   7.211   4.304 -0.8449  0.4621 -0.0245
   16MOL0     C 2084  10.248   7.079   4.282  0.3106  0.2636  1.2745
   16MOL0     C 2085  10.324   6.966   4.346 -1.5139  0.6144 -0.8568
   16MOL0     C 2086  10.450   6.921   4.277  0.4647  0.6275 -0.1373
   16MOL0     C 2087  10.418   6.833   4.157 -0.2640  0.0091 -0.1050
   16MOL0     C 2088  10.551   6.786   4.103 -0.3663 -0.6952 -0.5071
   16MOL0     C 2089  10.656   6.749   4.059  0.2019  0.3254 -0.9290
   16MOL0     C 2090  10.334   7.386   4.463  0.0911  0.2335  0.6999
   16MOL0     C 2091  10.313   7.450   4.590 -1.0489  0.9084  0.4762
   16MOL0     C 2092  10.401   7.576   4.623  0.4822  0.2507  0.5277
   16MOL0     H 2093   9.989   7.645   4.953 -0.7744  3.3628 -0.4135
   16MOL0     H 2094   9.982   7.721   5.203 -3.3006 -1.4312 -4.1246
   16MOL0     H 2095  10.268   7.717   5.460 -3.6762  1.0344  1.9551
   16MOL0     H 2096  10.394   7.814   5.383  0.1945 -0.3742 -0.3746
   16MOL0     H 2097  10.174   7.901   5.578  1.2469  0.1847  1.9513
   16MOL0     H 2098  10.272   8.013   5.485 -1.1588  0.6465  0.7281
   16MOL0     H 2099  10.487   7.888   5.569  0.0966  1.6100  1.1113
   16MOL0     H 2100  10.385   7.788   5.662  0.9534 -1.9220 -3.8552
   16MOL0     H 2101  10.473   7.970   5.802 -0.0600  0.1842  0.5810
   16MOL0     H 2102  10.403   8.081   5.693  0.4931 -1.0925  0.7944
   16MOL0     H 2103  10.194   7.918   5.799 -1.2780  0.4963 -0.2624
   16MOL0     H 2104  10.288   8.006   5.918 -1.5115 -2.5686 -0.3140
   16MOL0     H 2105  10.218   8.222   5.804  0.0315 -0.4785  3.0648
   16MOL0     H 2106  10.150   8.113   5.678  3.8027 -3.2329 -0.0103
   16MOL0     H 2107  10.018   8.233   5.873 -1.9257 -0.9493 -1.8690
   16MOL0     H 2108  10.056   8.092   5.960  0.5963 -0.0542  0.2935
   16MOL0     H 2109   9.940   7.937   5.774  1.7383  1.6366 -3.4555
   16MOL0     H 2110   9.845   8.050   5.873  0.5229 -2.1195  0.2480
   16MOL0     H 2111   9.955   7.970   5.514 -1.8935  1.1384 -2.0648
   16MOL0     H 2112   9.828   8.086   5.263 -2.4743  2.5070  0.7635
   16MOL0     H 2113   9.844   8.258   5.271 -0.5426  0.5250  2.0834
   16MOL0     H 2114  10.090   8.085   5.326  0.9118  0.5880 -0.0987
   16MOL0     H 2115  10.036   8.123   5.161  3.9705 -1.1040 -0.3527
   16MOL0     H 2116  10.154   8.321   5.341 -1.8013 -3.6282  1.6039
   16MOL0     H 2117  10.016   8.387   5.254 -0.7086  0.7233 -1.5165
   16MOL0     H 2118  10.252   8.234   5.154  0.3112  2.2702 -0.3035
   16MOL0     H 2119  10.247   8.407   5.146 -4.5098  3.5382  2.0617
   16MOL0     H 2120   9.950   8.218   4.840  1.1963 -0.1615  0.5951
   16MOL0     H 2121   9.753   8.350   4.758 -0.6587  1.8763 -0.7767
   16MOL0     H 2122   9.466   8.492   4.536  1.3316  1.5478 -1.5404
   16MOL0     H 2123   9.243   8.593   4.460  2.7674 -0.3309 -1.0854
   16MOL0     H 2124   8.979   8.743   4.723  0.4369  1.1898  0.2628
   16MOL0     H 2125   9.064   8.901   4.717 -3.0331  1.6481  1.5498
   16MOL0     H 2126   8.966   8.948   4.481  2.4164 -0.8977  0.3322
   16MOL0     H 2127   8.858   8.811   4.503 -0.7359  0.7322 -1.4774
   16MOL0     H 2128   8.846   9.084   4.609 -2.2730  0.2193 -1.6683
   16MOL0     H 2129   8.722   8.962   4.573  1.2957  1.0394 -2.9633
   16MOL0     H 2130   8.871   8.907   4.825 -0.2367  0.8481  1.7366
   16MOL0     H 2131   8.729   8.845   4.760  0.4517  0.4316 -1.8390
   16MOL0     H 2132   8.628   9.095   4.779 -1.7817 -2.2658  0.1881
   16MOL0     H 2133   8.767   9.125   4.868  1.1679 -0.9837  0.8220
   16MOL0     H 2134   8.707   8.945   5.031  0.4015 -1.0998 -0.6869
   16MOL0     H 2135   8.583   9.069   5.014  1.6183 -0.8121  2.4948
   16MOL0     H 2136   8.467   8.858   5.026 -1.3274 -0.1517 -2.7090
   16MOL0     H 2137   8.591   8.769   4.938  1.3859  0.4785  1.2967
   16MOL0     H 2138   8.381   8.976   4.849  0.8957  0.8877  3.7575
   16MOL0     H 2139   8.484   8.880   4.737 -0.6906  2.5441 -0.7694
   16MOL0     H 2140   9.183   8.776   4.837 -1.7653 -2.5063 -1.0080
   16MOL0     H 2141   9.409   8.667   4.929 -1.3310  1.2180  0.3702
   16MOL0     H 2142   9.860   8.664   5.044 -4.0821  1.2766 -3.1085
   16MOL0     H 2143  10.065   8.552   5.080 -0.8670  2.6012 -1.3004
   16MOL0     H 2144  10.401   7.787   5.167  4.2119 -4.2100 -3.9949
   16MOL0     H 2145  10.411   7.695   4.947 -0.1355  1.9393 -1.6286
   16MOL0     H 2146  10.051   7.280   4.693  2.2636 -0.0378  0.8867
   16MOL0     H 2147  10.094   7.154   4.468  1.6885 -0.6188 -2.1980
   16MOL0     H 2148  10.258   7.063   4.174  2.2408  3.7794  0.7656
   16MOL0     H 2149  10.141   7.071   4.302  0.0690  1.2743  0.4477
   16MOL0     H 2150  10.259   6.878   4.356 -0.3799 -0.3203 -1.5068
   16MOL0     H 2151  10.351   6.993   4.449 -1.6565  2.9727 -1.3973
   16MOL0     H 2152  10.518   6.860   4.337  0.5348 -2.8375 -3.3859
   16MOL0     H 2153  10.499   7.012   4.242 -3.3393  4.7249  3.8224
   16MOL0     H 2154  10.350   6.759   4.200 -2.3293  2.2510  0.7453
   16MOL0     H 2155  10.370   6.889   4.076 -1.5523 -1.1118 -0.1549
   16MOL0     H 2156  10.749   6.714   4.019  0.4913  1.0024 -0.8506
   16MOL0     H 2157  10.412   7.429   4.401  0.9642 -1.6093  0.4613
   16MOL0     H 2158  10.495   7.574   4.567  0.8393  3.9168  0.7668
   16MOL0     H 2159  10.349   7.663   4.581 -0.6940  0.6606  2.6651
   16MOL0     H 2160  10.427   7.605   4.725  0.0269  1.2991  0.3584
   17MOL0     O 2161   0.431   8.918   9.766  0.3932 -0.0942 -0.2341
   17MOL0     C 2162   0.529   8.853   9.796  0.6028  0.4182 -0.6067
   17MOL0     O 2163   0.662   8.899   9.787 -0.2807  0.1912  0.7355
   17MOL0     C 2164   0.702   9.032   9.777  0.3987 -0.6135 -0.0628
   17MOL0     C 2165   0.829   9.054   9.722 -1.0833 -0.0446 -0.5898
   17MOL0     C 2166   0.889   9.183   9.709 -0.2207  1.6982 -0.5811
   17MOL0     C 2167   0.813   9.294   9.751 -0.1556 -0.1396 -0.5425
   17MOL0     O 2168   0.860   9.423   9.752 -0.4926  0.1033 -0.7591
   17MOL0     C 2169   0.892   9.490   9.625  1.2466  0.0439  0.4296
   17MOL0     C 2170   1.044   9.496   9.583 -0.3187  0.1539 -0.6730
   17MOL0     C 2171   1.072   9.539   9.437  0.1385  1.3810 -0.0376
   17MOL0     C 2172   1.224   9.526   9.402  1.0056 -0.4848 -0.6038
   17MOL0     C 2173   1.277   9.574   9.261  0.2107 -0.1519 -0.3174
   17MOL0     C 2174   1.431   9.546   9.256  1.4861 -0.4631  0.2707
   17MOL0     C 2175   1.503   9.642   9.164 -0.2163 -0.5534 -0.3242
   17MOL0     C 2176   1.525   9.773   9.231  0.4586  0.6994  0.7122
   17MOL0     N 2177   1.638   9.853   9.192  1.0237 -0.5436  0.4802
   17MOL0     C 2178   1.771   9.851   9.232  1.5049  0.0186  0.2679
   17MOL0     C 2179   1.835   9.927   9.146 -0.1451 -0.1339  0.2138
   17MOL0     C 2180   1.983   9.949   9.135  0.0045 -0.3556 -0.4649
   17MOL0     C 2181   2.046   9.996   9.272  0.7626 -0.3647  0.1049
   17MOL0     C 2182   1.966  10.115   9.327  0.3980 -1.0970 -0.0569
   17MOL0     C 2183   2.037  10.169   9.448 -0.2692 -0.3351 -0.1850
   17MOL0     O 2184   2.037  10.074   9.560 -0.7820  0.5609  0.2085
   17MOL0     C 2185   2.073  10.129   9.682  0.5986 -1.0389 -0.5706
   17MOL0     C 2186   2.077  10.046   9.794  0.1764  0.2306 -0.2409
   17MOL0     C 2187   2.108  10.099   9.927 -0.3242  0.0016  0.2156
   17MOL0     C 2188   2.114  10.234   9.945 -1.7325 -0.0519 -0.9487
   17MOL0     C 2189   2.115  10.278  10.091  0.3678 -0.1094  0.0256
   17MOL0     O 2190   2.130  10.418  10.112 -0.5735  0.4174 -0.4327
   17MOL0     C 2191   2.125  10.465  10.247  0.1063  0.9510  1.1132
   17MOL0     C 2192   2.229  10.560  10.284  0.0723  0.0150  1.2345
   17MOL0     C 2193   2.233  10.613  10.411 -0.3884  0.0630  1.1335
   17MOL0     C 2194   2.143  10.576  10.509  0.3791  0.2887 -0.0663
   17MOL0     O 2195   2.162  10.634  10.631 -0.7742 -0.8658  0.1290
   17MOL0     C 2196   2.068  10.594  10.735  0.6089 -0.6191  0.5188
   17MOL0     C 2197   2.134  10.630  10.864  0.0639 -0.5013 -0.4142
   17MOL0     C 2198   2.069  10.566  10.983  0.1656 -0.3594 -0.0997
   17MOL0     C 2199   2.088  10.646  11.114 -0.3042  0.5272  0.5290
   17MOL0     C 2200   2.031  10.568  11.231 -0.0196 -0.3412 -0.2547
   17MOL0     C 2201   2.039  10.638  11.357 -0.2174 -0.8960 -0.3602
   17MOL0     C 2202   1.912  10.738  11.386  0.3899 -0.7063  0.1071
   17MOL0     C 2203   1.947  10.883  11.416  0.8818  0.8451 -0.8217
   17MOL0    Cl 2204   2.050  10.896  11.564  0.5795 -0.2288 -0.3671
   17MOL0     C 2205   2.038  10.485  10.476 -0.1069  1.0881  0.1716
   17MOL0     C 2206   2.023  10.440  10.343 -0.4043  0.5902 -0.5835
   17MOL0     O 2207   2.088  10.194  10.180 -1.1560 -0.5410  0.5545
   17MOL0     C 2208   2.107  10.323   9.839  0.0943 -0.8477  0.6865
   17MOL0     C 2209   2.095  10.274   9.705 -1.1674  1.1594 -0.5756
   17MOL0     N 2210   1.752   9.979   9.052  0.3795  0.4466  0.9604
   17MOL0     N 2211   1.635   9.937   9.084 -0.7811  0.4210  0.4108
   17MOL0     C 2212   0.700   9.270   9.828  1.0569  0.4613  0.0073
   17MOL0     C 2213   0.642   9.143   9.831  0.3817  0.9528 -0.2140
   17MOL0     C 2214   0.495   8.708   9.841  0.2195  0.6425 -0.1810
   17MOL0     C 2215   0.576   8.623   9.908 -0.3561 -0.6342  0.2709
   17MOL0     C 2216   0.551   8.501   9.951 -0.8302  0.3768 -0.0500
   17MOL0     C 2217   0.426   8.451   9.949  0.2023 -0.4395  1.1343
   17MOL0     O 2218   0.394   8.329   9.985  0.2999  0.5096 -0.2552
   17MOL0     C 2219   0.495   8.254  10.053 -0.0676  1.3278 -0.1950
   17MOL0     C 2220   0.424   8.146  10.140 -0.1927 -0.0421  0.0865
   17MOL0     C 2221   0.532   8.047  10.174 -0.2660 -1.3488  0.0242
   17MOL0     C 2222   0.486   7.917  10.229 -0.9510  0.8975 -0.0669
   17MOL0     C 2223   0.600   7.831  10.252  0.1806  0.4324  0.7144
   17MOL0     C 2224   0.704   7.770  10.270 -0.1128 -0.5847 -0.2750
   17MOL0     C 2225   0.331   8.528   9.887  0.4491 -0.1709  0.0577
   17MOL0     C 2226   0.362   8.651   9.828  0.2613 -0.5645  1.4051
   17MOL0     C 2227   0.260   8.717   9.739  0.1645  0.3113 -0.2883
   17MOL0     H 2228   0.887   8.967   9.694 -1.4190 -0.6143  0.4419
   17MOL0     H 2229   0.991   9.177   9.674 -0.0846 -2.1181  0.0468
   17MOL0     H 2230   0.831   9.440   9.549 -0.2187  4.1201 -1.3984
   17MOL0     H 2231   0.850   9.591   9.636  1.2463  0.2131 -0.8731
   17MOL0     H 2232   1.079   9.394   9.597  2.2201  1.1278  0.6818
   17MOL0     H 2233   1.096   9.561   9.653 -0.9209  1.9314 -1.7983
   17MOL0     H 2234   1.049   9.643   9.414  1.0000  1.6102  0.1052
   17MOL0     H 2235   1.008   9.475   9.375  0.7557 -0.1255  0.8143
   17MOL0     H 2236   1.269   9.595   9.474 -1.0228 -1.7178  2.0178
   17MOL0     H 2237   1.250   9.426   9.436 -3.0508 -1.2671  0.6855
   17MOL0     H 2238   1.221   9.511   9.191 -0.2170  0.5696 -0.6453
   17MOL0     H 2239   1.257   9.681   9.245  2.6197  0.4705  0.3967
   17MOL0     H 2240   1.472   9.546   9.357 -2.0948 -0.6452  1.8967
   17MOL0     H 2241   1.433   9.445   9.213  0.1561 -0.3467 -0.1188
   17MOL0     H 2242   1.436   9.658   9.079  0.0862  1.7552 -0.1807
   17MOL0     H 2243   1.597   9.602   9.124  0.1986  0.8180 -0.7706
   17MOL0     H 2244   1.432   9.829   9.214  0.4032  0.1118 -1.1062
   17MOL0     H 2245   1.525   9.756   9.339  2.0147  2.8615  1.1093
   17MOL0     H 2246   1.815   9.797   9.315 -0.9289 -0.3642  1.4018
   17MOL0     H 2247   2.037   9.861   9.098 -0.6593 -0.2477 -1.7251
   17MOL0     H 2248   1.995  10.030   9.064 -1.9519  1.9923  1.6948
   17MOL0     H 2249   2.043   9.906   9.334  4.5174 -3.0755 -3.1102
   17MOL0     H 2250   2.150  10.029   9.262  0.5165 -0.0188 -1.6092
   17MOL0     H 2251   1.864  10.085   9.352  0.3049 -4.3350 -3.3093
   17MOL0     H 2252   1.961  10.201   9.259  0.7499 -1.5098 -0.6145
   17MOL0     H 2253   1.984  10.262   9.472 -0.5986 -0.4639 -0.3973
   17MOL0     H 2254   2.140  10.194   9.419  0.8127 -1.5041  2.3779
   17MOL0     H 2255   2.051   9.941   9.805 -0.0540  0.4950  2.2930
   17MOL0     H 2256   2.114  10.030  10.011 -0.4342 -1.2937 -0.8015
   17MOL0     H 2257   2.304  10.581  10.208  0.5527  0.0270  1.7114
   17MOL0     H 2258   2.309  10.689  10.427  1.4594 -0.2410 -4.0989
   17MOL0     H 2259   1.975  10.651  10.724 -0.8196 -2.8497  0.3751
   17MOL0     H 2260   2.052  10.486  10.730 -1.3370 -0.3173 -0.6082
   17MOL0     H 2261   2.236  10.592  10.880  0.3241  0.6973  1.0511
   17MOL0     H 2262   2.145  10.738  10.873  2.6232 -0.4825 -2.5774
   17MOL0     H 2263   1.968  10.540  10.950  0.0176  1.5951 -1.3600
   17MOL0     H 2264   2.106  10.463  10.987 -1.3443 -0.9568 -0.8720
   17MOL0     H 2265   2.053  10.749  11.113  0.3619  0.7834  1.8160
   17MOL0     H 2266   2.196  10.658  11.127 -0.2283  3.7055 -1.8256
   17MOL0     H 2267   2.091  10.479  11.252  1.8947  1.5820  3.2525
   17MOL0     H 2268   1.927  10.540  11.208 -0.2295 -0.1327  0.4368
   17MOL0     H 2269   2.034  10.556  11.430 -1.5374 -0.2163  0.3491
   17MOL0     H 2270   2.133  10.690  11.375 -2.1955  2.4374  1.3911
   17MOL0     H 2271   1.850  10.703  11.469  2.1123  1.2631  2.3481
   17MOL0     H 2272   1.851  10.747  11.296 -0.6712  0.1850  0.8849
   17MOL0     H 2273   2.002  10.924  11.331  0.8795  1.7226 -0.4176
   17MOL0     H 2274   1.855  10.939  11.435  2.7155  3.4986  1.0551
   17MOL0     H 2275   1.957  10.457  10.543  1.4965  1.6215  2.4287
   17MOL0     H 2276   1.936  10.380  10.316  0.2916 -0.6727 -0.1170
   17MOL0     H 2277   2.095  10.431   9.848  0.7360 -0.1670 -4.2413
   17MOL0     H 2278   2.086  10.352   9.630 -0.7864 -0.2417 -2.1211
   17MOL0     H 2279   0.641   9.353   9.864  0.9145  0.5893 -0.5137
   17MOL0     H 2280   0.545   9.120   9.873 -0.3984  2.4300 -1.1110
   17MOL0     H 2281   0.680   8.654   9.908 -0.9979  1.8969  2.2189
   17MOL0     H 2282   0.638   8.445   9.983 -0.3876  1.0377 -0.0914
   17MOL0     H 2283   0.557   8.309  10.125 -1.2046 -0.0348  1.9434
   17MOL0     H 2284   0.550   8.211   9.969  0.9067  0.5735  0.8066
   17MOL0     H 2285   0.340   8.121  10.075  0.3209  1.7509 -1.3567
   17MOL0     H 2286   0.391   8.198  10.230  2.9843  2.9239 -0.2259
   17MOL0     H 2287   0.602   8.100  10.239  0.8175 -0.0719 -2.0618
   17MOL0     H 2288   0.593   8.037  10.083  0.4424 -0.3251  0.3704
   17MOL0     H 2289   0.439   7.940  10.325 -1.0157 -1.6609  0.5766
   17MOL0     H 2290   0.415   7.856  10.173 -1.0395 -3.3137  3.9955
   17MOL0     H 2291   0.793   7.710  10.273 -0.5121 -1.2950 -1.4587
   17MOL0     H 2292   0.229   8.494   9.873  0.0973  0.3532  1.2746
   17MOL0     H 2293   0.310   8.767   9.655  4.0995 -1.1951  0.8955
   17MOL0     H 2294   0.203   8.636   9.695  1.7896 -0.8334 -0.3926
   17MOL0     H 2295   0.198   8.782   9.801  0.8527  0.0723  0.6744
   18MOL0     O 2296   9.911  10.737   4.522 -0.4035  0.7610  0.1043
   18MOL0     C 2297   9.991  10.698   4.601 -1.0453 -0.2068  0.1378
   18MOL0     O 2298  10.058  10.770   4.693  0.0111 -0.2097 -0.2768
   18MOL0     C 2299  10.078  10.904   4.665 -0.5534  0.5643 -0.1180
   18MOL0     C 2300  10.205  10.957   4.686  0.3717  0.2945  1.0732
   18MOL0     C 2301  10.235  11.082   4.646 -0.1048  0.1163  0.2872
   18MOL0     C 2302  10.138  11.174   4.610 -0.1551 -0.5825  0.4703
   18MOL0     O 2303  10.182  11.303   4.585  0.6213 -0.1210 -0.2059
   18MOL0     C 2304  10.126  11.365   4.463  0.1302 -0.2868 -0.0113
   18MOL0     C 2305  10.155  11.511   4.477  0.5080  0.3042 -0.2885
   18MOL0     C 2306  10.064  11.576   4.572 -0.1335 -0.1136  0.8769
   18MOL0     C 2307  10.093  11.724   4.575 -0.9031  0.0123  0.4011
   18MOL0     C 2308   9.995  11.810   4.669  0.7805  0.2615  0.1736
   18MOL0     C 2309  10.012  11.966   4.648 -0.6957 -0.0576  0.7103
   18MOL0     C 2310   9.915  12.039   4.743  0.2732 -0.0407  0.2421
   18MOL0     C 2311   9.967  12.191   4.761 -0.3538  0.5121  0.3855
   18MOL0     N 2312   9.934  12.276   4.647 -0.3996 -0.2855 -0.9129
   18MOL0     C 2313   9.816  12.329   4.604  0.1289 -0.7345  0.1631
   18MOL0     C 2314   9.826  12.342   4.474  0.6787  0.4208  0.4818
   18MOL0     C 2315   9.723  12.395   4.380 -0.0255  0.2601  0.8600
   18MOL0     C 2316   9.721  12.331   4.235  0.9258 -0.1195  0.6792
   18MOL0     C 2317   9.612  12.407   4.160  0.7179 -0.2506 -0.0402
   18MOL0     C 2318   9.608  12.352   4.017  0.2681  0.5310  0.0820
   18MOL0     O 2319   9.503  12.418   3.943  0.3311  0.4709 -0.1658
   18MOL0     C 2320   9.477  12.356   3.821 -0.2989 -0.8307  0.7999
   18MOL0     C 2321   9.354  12.395   3.750 -0.4568 -0.2431 -0.3275
   18MOL0     C 2322   9.313  12.342   3.629 -0.4280  0.3125 -0.6397
   18MOL0     C 2323   9.383  12.238   3.570 -0.0999 -0.0874  0.1668
   18MOL0     C 2324   9.335  12.185   3.433  0.0846 -0.5616 -1.3983
   18MOL0     O 2325   9.354  12.047   3.396  0.1866 -0.4780  0.2748
   18MOL0     C 2326   9.289  12.004   3.286 -0.2294  0.3555 -0.4855
   18MOL0     C 2327   9.317  12.053   3.157 -0.6615 -0.0390 -0.0705
   18MOL0     C 2328   9.255  11.992   3.052  0.4336  0.3215  0.1190
   18MOL0     C 2329   9.163  11.888   3.071 -0.9214  0.3675  0.2782
   18MOL0     O 2330   9.106  11.832   2.959  0.1363  0.1192  0.0606
   18MOL0     C 2331   9.117  11.686   2.945 -0.2176 -0.8723 -0.1066
   18MOL0     C 2332   9.148  11.669   2.790  0.1728 -0.8348 -0.3601
   18MOL0     C 2333   9.165  11.523   2.737 -0.6128 -0.3705 -0.3811
   18MOL0     C 2334   9.314  11.485   2.721 -0.5400 -0.9287  0.3233
   18MOL0     C 2335   9.368  11.384   2.825  0.2308 -0.4542 -0.4041
   18MOL0     C 2336   9.512  11.339   2.794  0.1226  0.0388 -0.4723
   18MOL0     C 2337   9.611  11.449   2.814 -0.0240 -0.7602  0.1897
   18MOL0     C 2338   9.748  11.404   2.873 -0.0863 -0.6414 -0.2646
   18MOL0    Cl 2339   9.838  11.292   2.764 -0.3349 -0.0507 -0.1486
   18MOL0     C 2340   9.126  11.851   3.201 -0.1933  0.6466  0.7700
   18MOL0     C 2341   9.188  11.908   3.307  0.9785 -0.5635 -0.1372
   18MOL0     O 2342   9.274  12.272   3.374  0.4396 -0.1585 -0.0380
   18MOL0     C 2343   9.502  12.201   3.630 -0.6336  0.8080 -0.0366
   18MOL0     C 2344   9.552  12.256   3.745  1.2548  1.1267 -0.4499
   18MOL0     N 2345   9.958  12.311   4.435 -0.2500  0.0213 -1.1098
   18MOL0     N 2346  10.017  12.261   4.538  0.1786 -1.6055  0.5804
   18MOL0     C 2347  10.008  11.126   4.589 -0.0137  0.2236  0.1990
   18MOL0     C 2348   9.977  10.996   4.618  0.7984  0.5766  0.4623
   18MOL0     C 2349  10.013  10.552   4.622  0.8883  0.3537  0.1224
   18MOL0     C 2350  10.044  10.511   4.747  0.5161 -0.5906 -0.6425
   18MOL0     C 2351  10.057  10.377   4.777 -0.2539 -0.2479  0.4372
   18MOL0     C 2352  10.030  10.272   4.681 -0.5085 -0.6339  1.0288
   18MOL0     O 2353  10.025  10.137   4.696  0.2240 -1.0053 -0.2719
   18MOL0     C 2354  10.046  10.080   4.831  0.0855 -0.0649  0.2699
   18MOL0     C 2355   9.950   9.959   4.842 -0.4145  0.3366  0.2391
   18MOL0     C 2356  10.033   9.826   4.846  0.1812 -1.1639  0.8052
   18MOL0     C 2357  10.108   9.799   4.710 -0.9755 -0.3752  0.4099
   18MOL0     C 2358  10.173   9.664   4.724 -0.7126 -0.3770 -0.7076
   18MOL0     C 2359  10.240   9.566   4.731 -0.0777 -0.5207 -0.4187
   18MOL0     C 2360  10.008  10.313   4.547  0.0924 -0.1931 -0.2139
   18MOL0     C 2361   9.995  10.450   4.518  0.1829 -0.6989  0.2981
   18MOL0     C 2362   9.964  10.480   4.370 -0.2031 -0.0760  0.1600
   18MOL0     H 2363  10.293  10.904   4.720  0.4826  0.1651  0.5876
   18MOL0     H 2364  10.337  11.120   4.654 -0.8763  1.9929  2.0960
   18MOL0     H 2365  10.178  11.326   4.375 -0.1486  0.6262 -0.5959
   18MOL0     H 2366  10.019  11.360   4.437 -0.2456  5.9761 -1.1044
   18MOL0     H 2367  10.124  11.553   4.380 -1.6133 -2.5653 -0.9945
   18MOL0     H 2368  10.261  11.535   4.489 -0.0162  3.7299 -1.3221
   18MOL0     H 2369  10.074  11.542   4.675 -0.1061 -0.5874  0.7219
   18MOL0     H 2370   9.960  11.560   4.541 -0.8588  3.2537  1.2215
   18MOL0     H 2371  10.191  11.746   4.618 -1.0039  2.1759 -0.3179
   18MOL0     H 2372  10.104  11.757   4.471  0.6348 -1.6950 -0.0304
   18MOL0     H 2373   9.890  11.782   4.660  0.7572 -0.6675  2.6918
   18MOL0     H 2374  10.032  11.786   4.769  1.3961  0.8949  0.1080
   18MOL0     H 2375  10.116  11.995   4.665 -0.5005  1.5023 -2.5310
   18MOL0     H 2376   9.998  11.989   4.542 -2.3787 -1.5733  0.5465
   18MOL0     H 2377   9.914  11.984   4.838  2.1488 -1.9626 -0.7653
   18MOL0     H 2378   9.813  12.028   4.706 -0.3173 -0.8255  1.9859
   18MOL0     H 2379   9.919  12.228   4.852 -0.0582 -0.1850  0.8397
   18MOL0     H 2380  10.073  12.192   4.789 -0.5142  1.7476  1.0195
   18MOL0     H 2381   9.734  12.373   4.662  0.7159  1.4625 -0.5934
   18MOL0     H 2382   9.632  12.367   4.434 -0.7904 -0.1361 -0.5808
   18MOL0     H 2383   9.728  12.505   4.383  0.8244  0.2474  0.3951
   18MOL0     H 2384   9.813  12.353   4.180  0.0500  0.5458 -0.5879
   18MOL0     H 2385   9.698  12.224   4.238  1.0546 -0.1760 -0.0996
   18MOL0     H 2386   9.632  12.514   4.145  2.8522 -0.9232 -3.0162
   18MOL0     H 2387   9.517  12.401   4.213  1.4435  3.9739  2.1733
   18MOL0     H 2388   9.601  12.243   4.014  2.5268  0.1586 -5.9291
   18MOL0     H 2389   9.702  12.384   3.970  0.4405 -0.3164 -0.1769
   18MOL0     H 2390   9.296  12.474   3.796 -1.6746 -0.2384 -1.8408
   18MOL0     H 2391   9.226  12.380   3.577 -3.7660 -1.0428  3.2980
   18MOL0     H 2392   9.401  12.122   3.154  1.2627 -1.9018  3.3689
   18MOL0     H 2393   9.272  12.028   2.951 -0.3846  1.0494  0.2221
   18MOL0     H 2394   9.206  11.665   3.005 -0.6912 -1.3431  0.4464
   18MOL0     H 2395   9.030  11.623   2.964 -0.3372 -1.0400 -1.1505
   18MOL0     H 2396   9.050  11.698   2.751 -0.8791 -3.0018  0.5068
   18MOL0     H 2397   9.223  11.740   2.754 -0.1266  0.3198  1.1328
   18MOL0     H 2398   9.132  11.450   2.811 -0.2942  1.8076  2.0702
   18MOL0     H 2399   9.095  11.507   2.655  0.5289 -1.1321 -1.2415
   18MOL0     H 2400   9.370  11.579   2.714 -0.9687 -0.5806  1.3513
   18MOL0     H 2401   9.321  11.428   2.628  1.2484 -0.0900 -0.1123
   18MOL0     H 2402   9.300  11.300   2.808 -1.9206  1.3341 -1.1449
   18MOL0     H 2403   9.353  11.422   2.927  1.4950 -0.3592 -0.2363
   18MOL0     H 2404   9.538  11.260   2.865  3.6954  1.9686  0.6202
   18MOL0     H 2405   9.512  11.299   2.692 -0.2124  2.0298 -1.2991
   18MOL0     H 2406   9.577  11.519   2.892 -0.9635 -1.2950  0.2719
   18MOL0     H 2407   9.615  11.498   2.716 -2.0988 -2.1890 -0.6800
   18MOL0     H 2408   9.809  11.493   2.889 -1.1301 -0.2960  2.4201
   18MOL0     H 2409   9.725  11.352   2.967 -1.4817 -1.8762 -1.2434
   18MOL0     H 2410   9.048  11.776   3.217  0.2035 -0.6264 -2.5184
   18MOL0     H 2411   9.167  11.870   3.406  3.5140  1.7335  1.4221
   18MOL0     H 2412   9.558  12.123   3.580  1.7903  1.7670  1.0075
   18MOL0     H 2413   9.648  12.227   3.787 -0.2458 -0.2300  2.3155
   18MOL0     H 2414   9.936  11.188   4.537 -0.4322 -1.7186 -1.6804
   18MOL0     H 2415   9.874  10.968   4.598  0.9034  0.6138 -0.1385
   18MOL0     H 2416  10.062  10.580   4.829  1.3481 -2.3982  0.7854
   18MOL0     H 2417  10.085  10.357   4.880 -2.6755 -1.8354  0.8755
   18MOL0     H 2418  10.028  10.153   4.911 -0.3275 -0.2754  0.3739
   18MOL0     H 2419  10.152  10.055   4.835 -0.2476 -2.0558 -1.4823
   18MOL0     H 2420   9.879   9.937   4.761  0.0996 -3.2909  0.5854
   18MOL0     H 2421   9.890   9.978   4.931 -1.4999  0.8351 -0.5828
   18MOL0     H 2422   9.956   9.749   4.857 -2.2896  0.3967 -3.3178
   18MOL0     H 2423  10.104   9.815   4.928  1.9847 -1.2053 -0.7120
   18MOL0     H 2424  10.048   9.796   4.618  1.9018 -4.6145 -1.6480
   18MOL0     H 2425  10.186   9.874   4.693 -1.1595 -0.4708 -0.9770
   18MOL0     H 2426  10.331   9.509   4.727  0.8835  0.9758 -4.5730
   18MOL0     H 2427   9.994  10.248   4.461 -1.4809  1.0917 -0.9818
   18MOL0     H 2428  10.014  10.404   4.308  5.2924  3.2372 -0.1651
   18MOL0     H 2429   9.859  10.477   4.339  0.5487 -0.7636 -2.6815
   18MOL0     H 2430  10.018  10.568   4.333  2.3498 -2.1230 -1.3297
   19MOL0     O 2431   5.538   1.051   0.127 -0.5606 -0.8646  1.0708
   19MOL0     C 2432   5.505   0.941   0.091  0.1467 -0.3223  0.3545
   19MOL0     O 2433   5.397   0.871   0.144  0.1761 -0.3717 -0.1707
   19MOL0     C 2434   5.300   0.948   0.192  0.1663 -1.2560  0.1051
   19MOL0     C 2435   5.190   0.969   0.109 -0.8301 -0.1934  0.0918
   19MOL0     C 2436   5.087   1.052   0.154  0.7313  1.1354 -1.7424
   19MOL0     C 2437   5.086   1.106   0.280  0.4449 -0.1010  0.8829
   19MOL0     O 2438   4.973   1.177   0.319  0.4563  0.4038 -0.2708
   19MOL0     C 2439   4.986   1.312   0.271 -0.6348  0.7925  0.9822
   19MOL0     C 2440   4.862   1.385   0.331  0.0661 -0.7354  0.4265
   19MOL0     C 2441   4.877   1.535   0.369  0.3192 -0.5336  0.5121
   19MOL0     C 2442   4.946   1.629   0.274  0.1318  0.7978  0.1388
   19MOL0     C 2443   4.850   1.728   0.205 -0.0088  0.6488 -0.3326
   19MOL0     C 2444   4.767   1.652   0.106 -0.1440 -0.2842 -0.4242
   19MOL0     C 2445   4.726   1.732  -0.014 -0.7319 -0.6023  0.4423
   19MOL0     C 2446   4.590   1.682  -0.070 -0.0416 -1.3976 -0.5988
   19MOL0     N 2447   4.576   1.753  -0.206 -0.1914  0.7339 -0.4413
   19MOL0     C 2448   4.651   1.860  -0.254 -0.8145  0.4553 -1.0213
   19MOL0     C 2449   4.575   1.908  -0.364  0.1986 -0.4352  0.2094
   19MOL0     C 2450   4.602   2.022  -0.459  0.6719 -0.7943 -0.0070
   19MOL0     C 2451   4.559   2.166  -0.400  0.5217 -0.1862 -0.0508
   19MOL0     C 2452   4.415   2.186  -0.362 -0.4246 -0.0224 -0.5399
   19MOL0     C 2453   4.412   2.272  -0.238  0.7748 -0.3646 -0.1579
   19MOL0     O 2454   4.275   2.297  -0.185 -0.0351 -0.2118 -0.3491
   19MOL0     C 2455   4.226   2.422  -0.214 -0.1673  0.2313 -0.2516
   19MOL0     C 2456   4.247   2.499  -0.324 -0.2116  0.3327  0.9041
   19MOL0     C 2457   4.191   2.624  -0.337 -0.5846 -0.0218  0.3529
   19MOL0     C 2458   4.102   2.675  -0.239 -0.2667  0.5871 -0.2341
   19MOL0     C 2459   4.044   2.798  -0.270  0.8113 -0.6701 -0.4059
   19MOL0     O 2460   4.035   2.837  -0.406 -1.2532 -0.3628 -0.3205
   19MOL0     C 2461   3.992   2.962  -0.433  0.8573  1.0859 -0.1015
   19MOL0     C 2462   3.982   3.073  -0.344 -0.8604 -0.0899  0.5498
   19MOL0     C 2463   3.923   3.197  -0.389 -0.8694 -0.4338  0.3826
   19MOL0     C 2464   3.879   3.217  -0.512  0.4163  0.0602  0.2599
   19MOL0     O 2465   3.832   3.345  -0.542  0.3311 -0.1130  0.4010
   19MOL0     C 2466   3.775   3.368  -0.674 -0.9801  0.3359 -1.3729
   19MOL0     C 2467   3.726   3.512  -0.673 -0.1479  0.5569  0.3591
   19MOL0     C 2468   3.594   3.533  -0.590 -0.1873 -0.2649  0.7541
   19MOL0     C 2469   3.555   3.681  -0.559  0.1237  0.4529  0.8144
   19MOL0     C 2470   3.652   3.753  -0.467  0.5484 -0.5721 -0.3898
   19MOL0     C 2471   3.606   3.726  -0.328 -0.6946  0.4468 -0.2650
   19MOL0     C 2472   3.741   3.754  -0.249  0.8533  0.2581  0.4285
   19MOL0     C 2473   3.840   3.633  -0.247 -0.1832 -0.2354  0.1106
   19MOL0    Cl 2474   3.787   3.491  -0.135  0.7325  0.2965  0.3261
   19MOL0     C 2475   3.886   3.102  -0.597 -0.6231  0.3480  0.7973
   19MOL0     C 2476   3.939   2.980  -0.554 -0.7218 -0.4018  1.2917
   19MOL0     O 2477   3.977   2.845  -0.172 -0.7309  0.0890  0.9061
   19MOL0     C 2478   4.069   2.596  -0.127 -0.4759  0.7052 -0.1257
   19MOL0     C 2479   4.128   2.467  -0.121 -0.6763  0.7680 -0.1861
   19MOL0     N 2480   4.462   1.826  -0.384  0.9988 -0.1613  0.4749
   19MOL0     N 2481   4.468   1.731  -0.295  0.3200 -0.7759 -0.5411
   19MOL0     C 2482   5.186   1.082   0.371  0.1445  0.8632 -0.0975
   19MOL0     C 2483   5.293   0.999   0.321 -0.7008  0.1378 -0.0823
   19MOL0     C 2484   5.588   0.881  -0.019  0.3019  0.5674  0.1656
   19MOL0     C 2485   5.553   0.746  -0.044 -0.6933 -0.4723  0.3317
   19MOL0     C 2486   5.621   0.675  -0.144  0.5313  0.7561 -0.4532
   19MOL0     C 2487   5.716   0.732  -0.230 -0.1550 -0.6166  0.9844
   19MOL0     O 2488   5.772   0.673  -0.337 -0.0441  0.7142  1.0505
   19MOL0     C 2489   5.792   0.527  -0.339  0.1757  0.6361 -0.5433
   19MOL0     C 2490   5.837   0.480  -0.473 -0.8966  0.1797 -0.5763
   19MOL0     C 2491   5.870   0.328  -0.474 -1.0555  0.2665  0.8233
   19MOL0     C 2492   5.987   0.291  -0.578  0.7048  0.3654 -0.3529
   19MOL0     C 2493   6.104   0.372  -0.559 -0.8322 -0.4654  0.5848
   19MOL0     C 2494   6.210   0.421  -0.527  0.4720 -0.2221  0.3660
   19MOL0     C 2495   5.744   0.863  -0.204  0.6930  0.0847  0.4269
   19MOL0     C 2496   5.683   0.940  -0.106  0.1873  0.2615 -0.3255
   19MOL0     C 2497   5.722   1.088  -0.107  0.6822 -0.6107  0.1539
   19MOL0     H 2498   5.198   0.937   0.005 -0.5273 -0.5003  0.2077
   19MOL0     H 2499   5.005   1.068   0.084 -0.8259 -2.6102 -1.0004
   19MOL0     H 2500   5.076   1.365   0.306 -2.6556  3.8407  2.0226
   19MOL0     H 2501   4.980   1.327   0.163 -0.8599  0.3699  0.9377
   19MOL0     H 2502   4.838   1.352   0.432 -0.1665  1.6995  1.2301
   19MOL0     H 2503   4.769   1.379   0.274  0.7908  1.2452 -1.0958
   19MOL0     H 2504   4.943   1.525   0.455  0.9554 -0.5363  0.0265
   19MOL0     H 2505   4.778   1.569   0.401 -0.7213 -0.7683 -2.2048
   19MOL0     H 2506   5.025   1.681   0.330 -0.2819  1.8456 -0.2356
   19MOL0     H 2507   4.997   1.568   0.200  0.3596  0.1712  0.7944
   19MOL0     H 2508   4.791   1.783   0.279 -0.7157  1.1173 -1.2376
   19MOL0     H 2509   4.908   1.801   0.147  2.1030  0.9709  1.9801
   19MOL0     H 2510   4.827   1.569   0.066  2.2837  0.5705  1.1899
   19MOL0     H 2511   4.676   1.607   0.146 -1.2932  1.2643 -1.2051
   19MOL0     H 2512   4.800   1.710  -0.092 -0.3845 -1.9149  1.1124
   19MOL0     H 2513   4.726   1.841  -0.005  1.5110 -0.4228 -1.0284
   19MOL0     H 2514   4.610   1.574  -0.071  3.4897 -0.9778  2.1705
   19MOL0     H 2515   4.506   1.714  -0.007  0.8387  2.6342 -1.2034
   19MOL0     H 2516   4.734   1.908  -0.204 -0.3620 -1.9564  0.7770
   19MOL0     H 2517   4.707   2.041  -0.484 -0.6858  1.7867 -5.0327
   19MOL0     H 2518   4.540   2.008  -0.547 -2.8895  1.5119  1.9015
   19MOL0     H 2519   4.635   2.190  -0.325 -1.6149  0.9066  1.8543
   19MOL0     H 2520   4.593   2.244  -0.469 -0.3344 -0.4049 -0.7332
   19MOL0     H 2521   4.372   2.087  -0.345  2.4831 -1.0036  2.0902
   19MOL0     H 2522   4.356   2.248  -0.429 -0.9414 -0.0023 -0.0743
   19MOL0     H 2523   4.457   2.369  -0.261 -2.4916  1.3916  0.1913
   19MOL0     H 2524   4.462   2.213  -0.161 -1.1249 -1.1286  0.5483
   19MOL0     H 2525   4.323   2.475  -0.398  1.1252  0.5073  2.1698
   19MOL0     H 2526   4.205   2.679  -0.429 -0.2456 -1.5767 -0.5567
   19MOL0     H 2527   4.004   3.074  -0.237 -1.1641 -1.5734  0.6449
   19MOL0     H 2528   3.922   3.290  -0.333  0.4427  1.6303 -2.7121
   19MOL0     H 2529   3.863   3.362  -0.737  0.9883 -1.5648  1.3208
   19MOL0     H 2530   3.703   3.298  -0.719  0.3449  0.1384 -3.2816
   19MOL0     H 2531   3.797   3.584  -0.630 -0.2762  0.0034  1.5338
   19MOL0     H 2532   3.696   3.542  -0.773  3.3800 -1.6656 -1.5514
   19MOL0     H 2533   3.515   3.501  -0.658 -0.8040  3.4636 -0.4780
   19MOL0     H 2534   3.610   3.476  -0.498  4.7488 -1.2611 -0.3993
   19MOL0     H 2535   3.453   3.673  -0.520  0.3357 -1.5013  1.0677
   19MOL0     H 2536   3.547   3.742  -0.649  1.3054 -2.8093 -1.7182
   19MOL0     H 2537   3.639   3.861  -0.477 -0.6592 -0.8333 -2.2486
   19MOL0     H 2538   3.759   3.740  -0.488  0.6834  2.0667 -1.7583
   19MOL0     H 2539   3.538   3.805  -0.295 -1.3446 -1.0941  2.4581
   19MOL0     H 2540   3.574   3.623  -0.310  1.1273 -0.0550  0.4054
   19MOL0     H 2541   3.715   3.792  -0.149 -2.7544 -1.5348  0.3356
   19MOL0     H 2542   3.798   3.834  -0.296 -0.3046  0.5011 -0.6218
   19MOL0     H 2543   3.876   3.598  -0.344 -1.0488  0.6196 -0.5397
   19MOL0     H 2544   3.935   3.663  -0.201 -1.0596  1.7733  0.7371
   19MOL0     H 2545   3.852   3.106  -0.701  2.1125 -0.1468 -0.1916
   19MOL0     H 2546   3.945   2.902  -0.630  0.9398  0.8371  0.0505
   19MOL0     H 2547   3.998   2.627  -0.051  0.4615 -3.8269  2.9216
   19MOL0     H 2548   4.097   2.406  -0.036 -3.0053  2.5179  0.3241
   19MOL0     H 2549   5.167   1.110   0.474 -0.0255 -0.0043  0.1151
   19MOL0     H 2550   5.377   0.965   0.380  0.5419 -2.8500 -3.1983
   19MOL0     H 2551   5.473   0.694   0.006 -3.2595  1.2086 -1.7632
   19MOL0     H 2552   5.573   0.579  -0.158 -1.6187  1.5642  0.8018
   19MOL0     H 2553   5.696   0.480  -0.315  2.5128 -3.0390  2.6588
   19MOL0     H 2554   5.859   0.501  -0.257 -0.1278  1.5294  0.0109
   19MOL0     H 2555   5.922   0.538  -0.509  0.1297  0.5114  2.1580
   19MOL0     H 2556   5.754   0.503  -0.540 -1.2155  0.3656 -0.1215
   19MOL0     H 2557   5.775   0.277  -0.492 -0.8101 -0.9115  2.5888
   19MOL0     H 2558   5.895   0.287  -0.375  0.2106 -0.5073  0.2072
   19MOL0     H 2559   6.011   0.187  -0.552 -2.1813  0.6559  4.8347
   19MOL0     H 2560   5.946   0.287  -0.680 -2.2454 -2.2838  0.7544
   19MOL0     H 2561   6.309   0.450  -0.500  0.5292  0.5883 -0.6792
   19MOL0     H 2562   5.822   0.908  -0.263 -1.8044  0.4801 -2.9006
   19MOL0     H 2563   5.649   1.162  -0.075  1.1704  0.7081 -1.5998
   19MOL0     H 2564   5.810   1.094  -0.042  1.3281 -3.6188 -0.3203
   19MOL0     H 2565   5.763   1.119  -0.204 -1.1993  0.9718 -0.1986
   20MOL0     O 2566   0.191   1.880   4.933 -0.3991  0.2552 -0.1276
   20MOL0     C 2567   0.301   1.889   4.988 -0.2795  0.0391 -0.3184
   20MOL0     O 2568   0.423   1.868   4.923 -0.2322 -0.0406 -0.3054
   20MOL0     C 2569   0.425   1.822   4.797 -0.2614 -0.4225  0.7124
   20MOL0     C 2570   0.528   1.734   4.760 -0.1446 -0.0107 -0.2004
   20MOL0     C 2571   0.533   1.684   4.628  0.4020 -0.8198  0.2746
   20MOL0     C 2572   0.455   1.740   4.524  0.0680 -0.3543  0.5221
   20MOL0     O 2573   0.472   1.697   4.390  0.4455  0.3304 -1.1195
   20MOL0     C 2574   0.609   1.669   4.355 -0.7776 -1.2886  0.6484
   20MOL0     C 2575   0.698   1.794   4.361 -0.2437 -1.3443  0.8150
   20MOL0     C 2576   0.668   1.906   4.252 -0.4343  0.1302 -0.2751
   20MOL0     C 2577   0.734   2.048   4.269  0.7983 -1.0908 -0.4994
   20MOL0     C 2578   0.671   2.140   4.161 -0.1121 -0.0395 -0.5513
   20MOL0     C 2579   0.678   2.117   4.005  0.7104 -0.6329 -1.1025
   20MOL0     C 2580   0.573   2.186   3.921  0.4625  0.2473  0.0846
   20MOL0     C 2581   0.610   2.337   3.921  0.3503  0.7946 -0.6500
   20MOL0     N 2582   0.517   2.409   4.012  0.2913 -0.2359  0.2501
   20MOL0     C 2583   0.553   2.520   4.086  0.4623 -0.1600 -0.9539
   20MOL0     C 2584   0.441   2.590   4.123 -0.6804  0.2700 -1.0459
   20MOL0     C 2585   0.442   2.718   4.192 -0.2000 -0.1134 -0.0233
   20MOL0     C 2586   0.481   2.839   4.093  0.3661 -0.1871 -0.7661
   20MOL0     C 2587   0.367   2.856   3.999 -0.3514  0.1641  0.4695
   20MOL0     C 2588   0.355   2.998   3.954 -1.0030 -0.2967  0.7512
   20MOL0     O 2589   0.275   3.021   3.845  0.5610 -0.4857  0.6650
   20MOL0     C 2590   0.331   3.010   3.716  0.0677  0.3920  0.3940
   20MOL0     C 2591   0.240   3.038   3.621  0.1500  0.4120  0.0341
   20MOL0     C 2592   0.269   3.015   3.488 -0.7786  0.1535 -0.3734
   20MOL0     C 2593   0.393   2.976   3.429 -0.1518 -0.1070 -0.0615
   20MOL0     C 2594   0.417   2.962   3.280  0.8944  0.5599  0.0977
   20MOL0     O 2595   0.314   3.029   3.202 -1.3424  0.5021 -0.6839
   20MOL0     C 2596   0.332   3.049   3.069 -0.1807 -0.6631 -0.5507
   20MOL0     C 2597   0.234   3.007   2.981  0.4784 -0.1969  1.0450
   20MOL0     C 2598   0.253   3.033   2.841  0.4165  0.1364 -0.5549
   20MOL0     C 2599   0.365   3.092   2.784 -0.4427 -0.0764 -0.6266
   20MOL0     O 2600   0.389   3.114   2.650 -0.1104 -0.9175 -0.2462
   20MOL0     C 2601   0.303   3.066   2.545 -0.5318 -0.4706 -0.3159
   20MOL0     C 2602   0.305   2.918   2.552 -0.7568 -0.0936  0.0054
   20MOL0     C 2603   0.237   2.848   2.425  0.0245  0.0556 -0.7018
   20MOL0     C 2604   0.078   2.853   2.408 -0.2842  0.4197 -0.1097
   20MOL0     C 2605   0.035   2.792   2.274 -0.8353  0.5361  1.5312
   20MOL0     C 2606  -0.118   2.762   2.271  0.0039 -0.4002 -0.2881
   20MOL0     C 2607  -0.169   2.733   2.134  0.4050  0.2706 -0.5305
   20MOL0     C 2608  -0.323   2.746   2.139  0.4583 -1.0303  0.3777
   20MOL0    Cl 2609  -0.393   2.629   2.244  0.5448 -0.0582  0.8756
   20MOL0     C 2610   0.457   3.136   2.891 -0.2241  0.2079 -0.4649
   20MOL0     C 2611   0.445   3.120   3.033 -0.8348 -0.5513  0.4874
   20MOL0     O 2612   0.511   2.897   3.238  0.0221 -0.2322 -1.2315
   20MOL0     C 2613   0.485   2.939   3.531  0.2812  0.4930 -1.5096
   20MOL0     C 2614   0.454   2.957   3.671 -0.2318 -0.3074  0.0355
   20MOL0     N 2615   0.336   2.527   4.066 -0.2111 -0.2292  0.1955
   20MOL0     N 2616   0.385   2.416   3.999  0.1865 -0.2892  0.6348
   20MOL0     C 2617   0.373   1.846   4.558 -0.0652  0.4384 -0.5962
   20MOL0     C 2618   0.354   1.884   4.687 -0.0484  0.9549 -0.6438
   20MOL0     C 2619   0.311   1.928   5.133 -1.0739  0.9330 -0.1866
   20MOL0     C 2620   0.439   1.909   5.187 -0.6995 -0.4672 -0.6272
   20MOL0     C 2621   0.457   1.953   5.318 -0.4279  0.2821  0.7891
   20MOL0     C 2622   0.367   2.014   5.389  0.8403  0.0058  0.8790
   20MOL0     O 2623   0.376   2.066   5.514 -0.7405  0.4882  0.4329
   20MOL0     C 2624   0.483   2.030   5.602 -0.4645 -0.8917  0.7526
   20MOL0     C 2625   0.444   2.060   5.744  0.5347  0.6814 -0.6509
   20MOL0     C 2626   0.536   1.980   5.844  0.3824 -0.0475  0.0977
   20MOL0     C 2627   0.527   2.032   5.989 -1.1854 -0.6197  0.2241
   20MOL0     C 2628   0.398   2.040   6.049 -0.5949 -0.6424 -0.7336
   20MOL0     C 2629   0.285   2.054   6.086 -0.0400  0.1055  0.8376
   20MOL0     C 2630   0.242   2.037   5.336  0.0121 -0.5944 -0.5458
   20MOL0     C 2631   0.206   1.993   5.209  0.2533 -0.4060 -0.8095
   20MOL0     C 2632   0.065   2.023   5.162 -0.1284  0.1368 -1.1193
   20MOL0     H 2633   0.593   1.695   4.838 -0.4173 -1.7051 -0.7728
   20MOL0     H 2634   0.596   1.596   4.617 -0.0347 -1.0656 -0.3139
   20MOL0     H 2635   0.654   1.590   4.415 -1.9409 -0.6368  2.4448
   20MOL0     H 2636   0.618   1.647   4.248 -1.5955  3.7576 -0.7600
   20MOL0     H 2637   0.803   1.764   4.356 -0.3946 -1.7217 -3.8556
   20MOL0     H 2638   0.683   1.846   4.457 -0.2357 -2.2140  1.2975
   20MOL0     H 2639   0.559   1.902   4.256 -0.3817 -0.6357  1.5201
   20MOL0     H 2640   0.691   1.877   4.149 -0.1193  3.5662 -1.2914
   20MOL0     H 2641   0.719   2.076   4.374 -0.1659 -1.2632 -0.5844
   20MOL0     H 2642   0.842   2.049   4.258  1.1327  2.3497  1.6000
   20MOL0     H 2643   0.567   2.132   4.195 -0.1976  0.4703 -0.6897
   20MOL0     H 2644   0.718   2.235   4.185  4.0246 -2.8074  4.2628
   20MOL0     H 2645   0.784   2.138   3.989  0.6132 -0.2404 -1.2380
   20MOL0     H 2646   0.663   2.011   3.982 -0.4567 -0.6257 -0.4497
   20MOL0     H 2647   0.472   2.164   3.957  1.4820 -1.1005  2.3490
   20MOL0     H 2648   0.572   2.147   3.818  0.5974 -1.1521  0.5955
   20MOL0     H 2649   0.705   2.355   3.972  0.0679 -0.8787  0.5395
   20MOL0     H 2650   0.598   2.383   3.822  0.3068  2.9840  0.3192
   20MOL0     H 2651   0.657   2.546   4.103 -0.1106  0.5432  2.0178
   20MOL0     H 2652   0.359   2.733   4.262  1.1298  3.5355  0.9940
   20MOL0     H 2653   0.524   2.724   4.264 -2.8710 -2.6458  3.6071
   20MOL0     H 2654   0.491   2.930   4.152 -0.8801  0.3180 -1.3036
   20MOL0     H 2655   0.575   2.829   4.039  0.8223  2.8114 -0.6991
   20MOL0     H 2656   0.282   2.837   4.065  1.4363  0.1729  2.8939
   20MOL0     H 2657   0.381   2.791   3.912 -0.5831  0.5602  0.1323
   20MOL0     H 2658   0.460   3.020   3.933 -1.3462  2.4137  1.5352
   20MOL0     H 2659   0.316   3.066   4.030 -3.2717 -1.7625  1.0117
   20MOL0     H 2660   0.146   3.068   3.666 -1.3813 -2.2943 -1.1118
   20MOL0     H 2661   0.188   3.035   3.418 -0.0061  0.5169 -1.1895
   20MOL0     H 2662   0.154   2.943   3.017  2.6188 -3.1246  0.9495
   20MOL0     H 2663   0.166   3.001   2.783  1.3670 -0.0065 -1.9584
   20MOL0     H 2664   0.199   3.101   2.551  1.1972  5.5892  1.9788
   20MOL0     H 2665   0.337   3.098   2.446 -2.5384  1.5210 -0.4517
   20MOL0     H 2666   0.404   2.873   2.541 -1.7677 -1.8744 -3.6471
   20MOL0     H 2667   0.262   2.879   2.645  1.3698  1.0171  1.5283
   20MOL0     H 2668   0.278   2.885   2.331  0.6779  0.3728 -0.3033
   20MOL0     H 2669   0.256   2.740   2.426 -0.7655 -0.0897 -0.2826
   20MOL0     H 2670   0.048   2.958   2.416  0.8364  0.6479  1.9806
   20MOL0     H 2671   0.023   2.801   2.486 -0.6648  2.3967  0.9937
   20MOL0     H 2672   0.087   2.695   2.272 -1.4395  0.2140  0.6585
   20MOL0     H 2673   0.061   2.851   2.186 -0.3944 -2.3384 -0.4202
   20MOL0     H 2674  -0.134   2.673   2.332  0.2905  0.1087  0.5515
   20MOL0     H 2675  -0.171   2.844   2.320  2.7127 -0.1418  2.4759
   20MOL0     H 2676  -0.129   2.633   2.113 -1.1146 -0.7767  1.3305
   20MOL0     H 2677  -0.127   2.785   2.047  1.0386  0.0488 -0.3673
   20MOL0     H 2678  -0.338   2.850   2.169 -1.2985 -0.6642 -1.4893
   20MOL0     H 2679  -0.366   2.741   2.038  3.6622  0.9017 -1.2329
   20MOL0     H 2680   0.547   3.188   2.863  2.3537 -2.6172  1.8962
   20MOL0     H 2681   0.510   3.164   3.107  0.1326 -0.9986 -0.0707
   20MOL0     H 2682   0.581   2.905   3.494  0.9273  0.8371 -0.2263
   20MOL0     H 2683   0.525   2.917   3.743 -1.4226  0.7620  1.8995
   20MOL0     H 2684   0.328   1.897   4.474  0.3989 -0.9776 -1.7323
   20MOL0     H 2685   0.291   1.973   4.691 -1.5766 -0.0284 -1.4334
   20MOL0     H 2686   0.525   1.858   5.145  2.5701  0.5033  4.0837
   20MOL0     H 2687   0.559   1.938   5.352  0.7875 -1.3089 -2.9467
   20MOL0     H 2688   0.570   2.096   5.591 -0.3672 -0.6712  2.5472
   20MOL0     H 2689   0.515   1.926   5.587 -0.0564 -0.4455 -2.1301
   20MOL0     H 2690   0.340   2.037   5.773  0.9693  1.4221  1.7508
   20MOL0     H 2691   0.468   2.165   5.759  2.0839  0.4235 -1.1874
   20MOL0     H 2692   0.640   1.975   5.809  1.8644  1.7286  3.7374
   20MOL0     H 2693   0.504   1.875   5.848 -1.4202  0.4196 -0.8712
   20MOL0     H 2694   0.585   1.966   6.054  0.8503 -2.8189 -3.4745
   20MOL0     H 2695   0.572   2.132   5.988 -2.6867  0.1158  1.7322
   20MOL0     H 2696   0.189   2.078   6.127 -1.1094  2.1950 -2.4697
   20MOL0     H 2697   0.163   2.083   5.394  1.1934  0.1367  0.5133
   20MOL0     H 2698   0.072   2.044   5.055  1.1745 -0.6824 -1.2140
   20MOL0     H 2699  -0.009   1.943   5.171 -1.7550  1.3238 -3.0070
   20MOL0     H 2700   0.038   2.114   5.216  0.4653 -0.3978  0.1350
   21MOL0     O 2701   3.290   8.862   0.718  0.2734 -0.1526  0.5852
   21MOL0     C 2702   3.312   8.984   0.723  0.5039  0.0485 -0.8356
   21MOL0     O 2703   3.293   9.063   0.619 -0.4116  0.6488 -0.2326
   21MOL0     C 2704   3.253   8.999   0.497  0.3569 -1.3792 -0.8740
   21MOL0     C 2705   3.346   8.916   0.432  0.0816  0.0581 -0.3791
   21MOL0     C 2706   3.296   8.856   0.314  0.1116 -0.1963  1.0496
   21MOL0     C 2707   3.176   8.903   0.254 -0.3365 -0.2479  0.7202
   21MOL0     O 2708   3.130   8.871   0.123  0.6836 -0.1617 -0.8882
   21MOL0     C 2709   3.217   8.934   0.023 -0.4500 -0.6327  0.4158
   21MOL0     C 2710   3.199   9.092   0.013 -0.2589 -0.5739  0.4063
   21MOL0     C 2711   3.263   9.138  -0.112 -0.4252  0.8070 -0.2717
   21MOL0     C 2712   3.243   9.285  -0.124 -0.5496 -0.4390 -0.1835
   21MOL0     C 2713   3.302   9.336  -0.256  0.2293 -0.1188  0.2588
   21MOL0     C 2714   3.263   9.486  -0.259 -0.2706 -0.5957 -0.2840
   21MOL0     C 2715   3.271   9.565  -0.399  0.0443  0.4672  0.4405
   21MOL0     C 2716   3.248   9.715  -0.374 -0.0792 -0.8446  0.1592
   21MOL0     N 2717   3.312   9.780  -0.257  1.3884  1.4255 -0.3517
   21MOL0     C 2718   3.291   9.775  -0.118  0.3196 -0.1728  0.5782
   21MOL0     C 2719   3.391   9.853  -0.066 -0.1324 -0.4514 -0.2263
   21MOL0     C 2720   3.420   9.894   0.069 -0.4081  0.3760 -0.0271
   21MOL0     C 2721   3.317   9.988   0.122 -0.5908  0.1609  0.1105
   21MOL0     C 2722   3.298   9.981   0.283  0.7548 -0.5564  0.7666
   21MOL0     C 2723   3.224  10.104   0.322 -0.3280 -0.9864  0.1645
   21MOL0     O 2724   3.093  10.090   0.270  0.3261  0.4158  0.2041
   21MOL0     C 2725   2.990  10.096   0.359  0.3865 -0.5610  1.0464
   21MOL0     C 2726   2.964  10.008   0.462 -0.5121 -0.7571  0.1016
   21MOL0     C 2727   2.862  10.021   0.551 -0.5070  0.4893  0.8109
   21MOL0     C 2728   2.763  10.123   0.542  1.0024 -0.2790 -0.2426
   21MOL0     C 2729   2.642  10.126   0.627 -0.8494  0.3132  0.1850
   21MOL0     O 2730   2.550  10.214   0.596  0.0589 -0.9474 -0.3484
   21MOL0     C 2731   2.444  10.230   0.673  0.0211 -0.2343  0.1534
   21MOL0     C 2732   2.329  10.271   0.601  0.4958  0.2983 -0.9298
   21MOL0     C 2733   2.212  10.301   0.671 -0.2047 -0.3474 -0.5066
   21MOL0     C 2734   2.205  10.276   0.805 -0.7327 -0.4161  0.7965
   21MOL0     O 2735   2.092  10.278   0.876  0.1557  0.6094  0.3060
   21MOL0     C 2736   2.004  10.389   0.859  0.7267 -0.6213  0.0402
   21MOL0     C 2737   2.060  10.531   0.893 -0.1802  0.9189 -0.5102
   21MOL0     C 2738   2.089  10.539   1.033  0.5154 -0.3261 -0.6784
   21MOL0     C 2739   2.195  10.641   1.047 -1.0978 -0.5318 -0.7128
   21MOL0     C 2740   2.220  10.658   1.193 -0.0726  0.3527  0.0466
   21MOL0     C 2741   2.330  10.764   1.210  0.5583 -0.2152 -0.4949
   21MOL0     C 2742   2.454  10.745   1.148 -0.8229 -0.2100 -0.5551
   21MOL0     C 2743   2.574  10.816   1.237  1.1694 -0.5832 -0.4819
   21MOL0    Cl 2744   2.705  10.700   1.279  0.2818  0.5290 -0.2200
   21MOL0     C 2745   2.317  10.245   0.875 -0.1967  0.3555  0.0753
   21MOL0     C 2746   2.438  10.221   0.811  0.9081 -0.3132  0.0376
   21MOL0     O 2747   2.646  10.040   0.720  0.3242  0.0335  0.3801
   21MOL0     C 2748   2.785  10.215   0.438 -1.1322 -0.0691 -0.4868
   21MOL0     C 2749   2.890  10.197   0.340 -0.6303  0.4137 -0.5674
   21MOL0     N 2750   3.482   9.886  -0.164  1.0854 -0.0343 -0.7105
   21MOL0     N 2751   3.441   9.830  -0.270 -0.5797  0.1586  0.1361
   21MOL0     C 2752   3.091   8.994   0.316  0.0379  0.4475 -0.4445
   21MOL0     C 2753   3.136   9.041   0.445 -0.0786  0.6203  0.5653
   21MOL0     C 2754   3.359   9.050   0.846  0.4102  0.5734  0.0731
   21MOL0     C 2755   3.378   9.192   0.846  0.1096  0.4472  0.5258
   21MOL0     C 2756   3.421   9.250   0.970 -0.0772 -1.3181 -0.1144
   21MOL0     C 2757   3.476   9.173   1.070  0.1596 -0.5423 -0.4878
   21MOL0     O 2758   3.555   9.220   1.171 -0.0548  0.5448  0.1301
   21MOL0     C 2759   3.650   9.317   1.142 -0.0845  0.7513  0.9816
   21MOL0     C 2760   3.669   9.420   1.249 -0.0142  0.5233 -0.8701
   21MOL0     C 2761   3.733   9.351   1.373 -0.8017  1.1090  0.4128
   21MOL0     C 2762   3.793   9.453   1.469 -0.3202  1.4115  0.2813
   21MOL0     C 2763   3.895   9.393   1.547 -0.4818  1.7477  0.2251
   21MOL0     C 2764   3.978   9.340   1.622  0.4143 -0.5281  0.4849
   21MOL0     C 2765   3.462   9.032   1.068 -0.8235 -1.0071 -0.4439
   21MOL0     C 2766   3.392   8.969   0.963 -0.8336 -0.5519  0.2729
   21MOL0     C 2767   3.407   8.815   0.971  0.2701 -0.2972  0.6984
   21MOL0     H 2768   3.444   8.897   0.473 -0.3680  0.0689  0.7405
   21MOL0     H 2769   3.363   8.795   0.256 -2.4853  0.3210 -2.8838
   21MOL0     H 2770   3.323   8.912   0.040 -0.0413 -1.0222 -2.1723
   21MOL0     H 2771   3.184   8.886  -0.069 -0.5809  0.1688  0.0364
   21MOL0     H 2772   3.242   9.117   0.110 -0.8626 -4.9187  2.0534
   21MOL0     H 2773   3.091   9.111   0.008 -0.1459 -0.2462 -1.7185
   21MOL0     H 2774   3.208   9.093  -0.195 -0.7252 -1.5285  1.1162
   21MOL0     H 2775   3.370   9.116  -0.112 -0.3062  1.3367  0.5570
   21MOL0     H 2776   3.136   9.300  -0.106 -0.5741 -2.1780  1.2954
   21MOL0     H 2777   3.301   9.331  -0.044  1.0263 -3.2460  0.3793
   21MOL0     H 2778   3.411   9.338  -0.257  0.3364 -0.8687  2.8485
   21MOL0     H 2779   3.274   9.289  -0.350  3.2443  1.0177 -1.3378
   21MOL0     H 2780   3.156   9.486  -0.236 -0.5650  0.1534 -1.5479
   21MOL0     H 2781   3.331   9.528  -0.184  2.2197  1.3828 -3.3880
   21MOL0     H 2782   3.198   9.523  -0.469  1.2497 -1.4930  0.2861
   21MOL0     H 2783   3.368   9.557  -0.449 -0.7433  0.6343 -1.1809
   21MOL0     H 2784   3.260   9.777  -0.462 -3.3942 -4.0393 -2.8921
   21MOL0     H 2785   3.141   9.735  -0.361  0.6602  2.4044  2.7592
   21MOL0     H 2786   3.200   9.728  -0.084  0.0652 -1.0983 -1.2452
   21MOL0     H 2787   3.420   9.808   0.137  0.6235  0.8693  0.6273
   21MOL0     H 2788   3.510   9.956   0.068 -0.4162  0.4308 -2.1116
   21MOL0     H 2789   3.351  10.090   0.100  4.9016 -0.8927  1.9290
   21MOL0     H 2790   3.229   9.971   0.059  1.0251 -2.5371 -1.6319
   21MOL0     H 2791   3.398   9.979   0.327  0.7570  0.2097  0.8132
   21MOL0     H 2792   3.244   9.895   0.323  0.2807 -0.2300  0.8435
   21MOL0     H 2793   3.268  10.201   0.298 -2.8981 -0.2116 -2.0482
   21MOL0     H 2794   3.229  10.109   0.431  1.6474 -1.2233  0.1255
   21MOL0     H 2795   3.035   9.928   0.477  1.8262  0.8002 -2.0105
   21MOL0     H 2796   2.872   9.950   0.633  3.0946 -2.6731 -2.0069
   21MOL0     H 2797   2.323  10.258   0.494  1.4748 -1.1175 -0.8459
   21MOL0     H 2798   2.134  10.317   0.598 -0.5852 -1.4896 -0.3596
   21MOL0     H 2799   1.962  10.402   0.759 -1.5299  1.3521  1.1252
   21MOL0     H 2800   1.913  10.380   0.920 -0.8042  2.6906 -1.4604
   21MOL0     H 2801   2.148  10.558   0.834  1.4284 -2.2872  0.1703
   21MOL0     H 2802   1.984  10.606   0.871  1.2080  3.2978  2.1219
   21MOL0     H 2803   1.996  10.567   1.084  1.6338  2.5859 -0.0856
   21MOL0     H 2804   2.128  10.444   1.072 -1.1503 -0.6785  0.2268
   21MOL0     H 2805   2.155  10.731   1.001 -2.6345  0.2909  2.0221
   21MOL0     H 2806   2.286  10.621   0.990 -1.6025  0.8753 -2.0801
   21MOL0     H 2807   2.250  10.562   1.237  0.2378  0.4932  0.1458
   21MOL0     H 2808   2.132  10.689   1.250  0.1668  0.4091  0.3928
   21MOL0     H 2809   2.295  10.861   1.174 -2.0174 -1.5201 -1.7574
   21MOL0     H 2810   2.339  10.775   1.319  0.7370 -0.5149 -0.4789
   21MOL0     H 2811   2.450  10.804   1.056  3.3250  2.3714  0.6407
   21MOL0     H 2812   2.480  10.640   1.133  0.2137 -0.5215  2.5226
   21MOL0     H 2813   2.609  10.891   1.165 -2.7436  0.5231 -1.4638
   21MOL0     H 2814   2.544  10.857   1.334 -0.4319  0.7613 -1.4993
   21MOL0     H 2815   2.291  10.229   0.980 -2.0304 -0.4267 -0.4477
   21MOL0     H 2816   2.526  10.200   0.871  0.0283 -0.8490  1.1910
   21MOL0     H 2817   2.712  10.294   0.422  0.2637  1.5632  0.8425
   21MOL0     H 2818   2.897  10.246   0.243 -3.6644 -0.8827 -1.5691
   21MOL0     H 2819   3.003   9.030   0.264 -0.5717 -1.9723 -1.1994
   21MOL0     H 2820   3.076   9.110   0.504 -1.4328  0.0247 -0.0510
   21MOL0     H 2821   3.353   9.252   0.760  3.8358  1.2085 -0.2344
   21MOL0     H 2822   3.428   9.358   0.970 -0.4501 -1.2459 -2.3968
   21MOL0     H 2823   3.627   9.366   1.047 -0.6233 -1.4958 -0.1259
   21MOL0     H 2824   3.745   9.269   1.117 -1.6206 -0.5725 -3.1891
   21MOL0     H 2825   3.573   9.461   1.283 -0.3714  0.0358 -1.2737
   21MOL0     H 2826   3.746   9.485   1.208 -0.8303  1.8645 -0.3300
   21MOL0     H 2827   3.817   9.281   1.358 -0.8353  0.9727  0.8491
   21MOL0     H 2828   3.650   9.300   1.422 -3.1752 -0.0329 -4.1506
   21MOL0     H 2829   3.842   9.525   1.403 -0.2051  0.0809 -1.1502
   21MOL0     H 2830   3.719   9.502   1.531  2.2688  3.4560  1.9572
   21MOL0     H 2831   4.061   9.293   1.672  2.7559 -0.1253 -2.7232
   21MOL0     H 2832   3.499   8.983   1.158  1.8263  0.6125 -0.5332
   21MOL0     H 2833   3.432   8.772   1.068 -0.8359 -2.2067  0.2018
   21MOL0     H 2834   3.308   8.782   0.938 -0.3082  0.3919  1.7190
   21MOL0     H 2835   3.479   8.778   0.897  0.0348  0.9830 -0.2000
   22MOL0     O 2836   1.560   0.498  10.989  0.8453  0.1734 -0.4751
   22MOL0     C 2837   1.657   0.465  11.054  0.5827  0.5140  0.8318
   22MOL0     O 2838   1.735   0.354  11.007  0.6208  0.4433  0.0087
   22MOL0     C 2839   1.770   0.353  10.876  1.2135  0.8053  0.2075
   22MOL0     C 2840   1.812   0.461  10.797  0.5114 -0.1690 -0.4505
   22MOL0     C 2841   1.884   0.444  10.684  0.0698 -0.1233 -0.1951
   22MOL0     C 2842   1.904   0.314  10.630 -0.1289  0.1855 -0.3094
   22MOL0     O 2843   1.961   0.305  10.505  0.2504 -0.4873 -0.0062
   22MOL0     C 2844   1.984   0.176  10.457 -0.1570  0.6348  0.0662
   22MOL0     C 2845   2.046   0.188  10.315 -0.0636 -0.1673 -0.4436
   22MOL0     C 2846   1.957   0.243  10.198 -0.4894 -1.4069 -0.6911
   22MOL0     C 2847   2.005   0.220  10.056 -0.2327  0.0462  0.0979
   22MOL0     C 2848   2.151   0.288  10.039  1.2341 -0.2064  0.2226
   22MOL0     C 2849   2.220   0.277   9.888  0.2088 -0.2467 -0.4245
   22MOL0     C 2850   2.324   0.379   9.852 -0.2689 -0.9794  1.1972
   22MOL0     C 2851   2.453   0.345   9.923 -0.4630  0.8042  0.1231
   22MOL0     N 2852   2.545   0.455   9.915  0.3491 -0.9930  0.2365
   22MOL0     C 2853   2.542   0.554  10.007 -1.1888  0.4107  0.3728
   22MOL0     C 2854   2.659   0.628   9.978  0.1810  0.5621  0.1248
   22MOL0     C 2855   2.706   0.750  10.048  0.5059 -0.2526 -0.0982
   22MOL0     C 2856   2.860   0.742  10.083  0.2919 -0.1049 -0.4860
   22MOL0     C 2857   2.895   0.628  10.182 -0.3781  0.0537  0.7040
   22MOL0     C 2858   2.874   0.673  10.328 -1.1526  0.1858  0.0041
   22MOL0     O 2859   2.953   0.789  10.365 -0.3600 -0.2378  0.1619
   22MOL0     C 2860   3.097   0.793  10.363  0.0629 -1.1604 -0.0292
   22MOL0     C 2861   3.177   0.675  10.381  0.3858 -0.6602  0.0104
   22MOL0     C 2862   3.328   0.687  10.393  0.6594 -0.5631  0.6459
   22MOL0     C 2863   3.389   0.815  10.384 -0.3797 -0.4220 -0.0135
   22MOL0     C 2864   3.538   0.838  10.392 -0.2939  0.5142 -0.5021
   22MOL0     O 2865   3.583   0.964  10.348  0.5217  0.6047 -0.7119
   22MOL0     C 2866   3.719   0.995  10.339  0.0133  0.4275  0.1946
   22MOL0     C 2867   3.800   1.007  10.454  0.1657 -0.4039 -0.2570
   22MOL0     C 2868   3.922   1.068  10.436 -2.2126  0.1212 -0.3292
   22MOL0     C 2869   3.974   1.106  10.315 -0.2431  0.0215 -0.2413
   22MOL0     O 2870   4.102   1.142  10.304  0.1998  0.6708  0.3305
   22MOL0     C 2871   4.202   1.081  10.385 -0.2768 -0.7470  0.2375
   22MOL0     C 2872   4.338   1.136  10.349 -0.1361 -1.2878 -0.1918
   22MOL0     C 2873   4.428   1.026  10.292 -0.4570 -0.3140  0.5825
   22MOL0     C 2874   4.570   1.085  10.269  0.1561 -0.2454 -0.1552
   22MOL0     C 2875   4.650   0.976  10.190 -0.9163 -0.1109 -0.5481
   22MOL0     C 2876   4.788   1.016  10.153 -0.1441  0.0232  0.2430
   22MOL0     C 2877   4.870   1.052  10.274 -0.3616  0.0790  0.6953
   22MOL0     C 2878   5.023   1.067  10.248  0.4506  0.1376 -1.2306
   22MOL0    Cl 2879   5.086   0.896  10.235 -0.2199 -0.2520  0.4864
   22MOL0     C 2880   3.895   1.092  10.206  0.1603 -0.2768  0.5190
   22MOL0     C 2881   3.767   1.042  10.208  0.0380 -0.1213  0.2991
   22MOL0     O 2882   3.605   0.746  10.436  0.1074 -0.6291 -0.1779
   22MOL0     C 2883   3.307   0.924  10.343 -0.0196 -0.2341  0.5130
   22MOL0     C 2884   3.164   0.917  10.340 -0.3321  0.1017  0.2137
   22MOL0     N 2885   2.716   0.564   9.872  0.1989 -0.8858  0.0589
   22MOL0     N 2886   2.657   0.455   9.840  0.1721 -0.0303  0.2490
   22MOL0     C 2887   1.855   0.206  10.702 -0.8135 -0.7046 -0.4090
   22MOL0     C 2888   1.793   0.230  10.826  0.0197  0.2977  0.1985
   22MOL0     C 2889   1.676   0.509  11.193  0.0998 -0.0303  0.4588
   22MOL0     C 2890   1.798   0.460  11.255 -0.4137  0.7860 -0.3634
   22MOL0     C 2891   1.822   0.472  11.398 -0.2029 -0.1995 -0.0082
   22MOL0     C 2892   1.744   0.559  11.464 -1.0439 -0.1561 -0.8573
   22MOL0     O 2893   1.784   0.580  11.595  0.3946  0.6849 -0.5148
   22MOL0     C 2894   1.701   0.639  11.703 -0.2978 -0.8105 -0.2979
   22MOL0     C 2895   1.772   0.636  11.834  0.0033 -0.6148  0.0115
   22MOL0     C 2896   1.671   0.598  11.937 -0.0060  0.6985  0.1440
   22MOL0     C 2897   1.742   0.610  12.070  0.3964 -0.1105 -0.6782
   22MOL0     C 2898   1.655   0.601  12.185  0.8445 -0.1097  0.9210
   22MOL0     C 2899   1.586   0.593  12.279 -0.7491  0.1514 -0.5327
   22MOL0     C 2900   1.638   0.623  11.408  0.1662 -0.0341  0.4364
   22MOL0     C 2901   1.597   0.597  11.268 -0.7181  0.2022 -0.1019
   22MOL0     C 2902   1.492   0.675  11.201  0.6225  0.7061 -0.5306
   22MOL0     H 2903   1.824   0.560  10.840 -0.6430 -1.3109  2.8158
   22MOL0     H 2904   1.937   0.524  10.633  2.1991  0.4346  2.6862
   22MOL0     H 2905   2.043   0.127  10.534 -1.4081 -4.6090 -1.8789
   22MOL0     H 2906   1.898   0.110  10.442 -0.3961  0.7382  0.9671
   22MOL0     H 2907   2.084   0.092  10.279  0.6308  0.6448 -1.9527
   22MOL0     H 2908   2.130   0.255  10.338  0.9021 -1.1332 -1.0708
   22MOL0     H 2909   1.937   0.350  10.211  2.1272 -1.0761  1.5224
   22MOL0     H 2910   1.864   0.186  10.192 -1.4910  0.2770 -1.9031
   22MOL0     H 2911   1.997   0.124  10.005 -1.5006  0.9544 -1.5119
   22MOL0     H 2912   1.950   0.281   9.984 -1.3564 -1.0739 -0.0180
   22MOL0     H 2913   2.148   0.393  10.070  0.5878  0.2507 -1.3149
   22MOL0     H 2914   2.223   0.229  10.098 -0.5182 -2.6101  0.1430
   22MOL0     H 2915   2.262   0.177   9.871  0.0975 -0.3463 -0.1238
   22MOL0     H 2916   2.142   0.290   9.813 -1.1796 -3.7934  0.1951
   22MOL0     H 2917   2.300   0.481   9.881  2.1608 -0.0422  0.1858
   22MOL0     H 2918   2.333   0.373   9.743 -3.2980 -1.7876  0.9083
   22MOL0     H 2919   2.418   0.334  10.026  1.0725  0.2222  0.6133
   22MOL0     H 2920   2.507   0.257   9.886 -0.2995  1.1508 -0.4753
   22MOL0     H 2921   2.470   0.589  10.080 -0.9116 -1.5917  1.7087
   22MOL0     H 2922   2.682   0.841   9.992 -1.8731  0.0119  1.1701
   22MOL0     H 2923   2.639   0.760  10.135 -1.7191 -1.8998 -1.5307
   22MOL0     H 2924   2.904   0.722   9.985  1.2326 -0.6921  0.0476
   22MOL0     H 2925   2.895   0.839  10.119 -1.4024  0.7977 -1.1198
   22MOL0     H 2926   2.998   0.590  10.184 -1.0497 -1.8635  1.1681
   22MOL0     H 2927   2.838   0.537  10.161  2.6822 -1.8102 -0.1098
   22MOL0     H 2928   2.908   0.593  10.394  0.7419  0.4522 -0.5871
   22MOL0     H 2929   2.770   0.702  10.348 -1.3004 -1.1744  1.3423
   22MOL0     H 2930   3.130   0.577  10.385 -0.9314 -0.0109  0.8681
   22MOL0     H 2931   3.392   0.603  10.417 -0.7468 -1.5199  1.1978
   22MOL0     H 2932   3.764   0.986  10.554 -1.5168 -1.1708 -1.0050
   22MOL0     H 2933   3.988   1.076  10.522 -0.9872  1.0355 -1.3033
   22MOL0     H 2934   4.188   1.080  10.494 -2.1954 -3.4617  0.0904
   22MOL0     H 2935   4.188   0.975  10.362  0.2677 -0.3326 -2.2189
   22MOL0     H 2936   4.318   1.217  10.278 -0.8196 -0.1368  1.2578
   22MOL0     H 2937   4.384   1.185  10.436 -1.3930 -1.3407  0.5234
   22MOL0     H 2938   4.429   0.944  10.365  2.9410  0.1671  1.2617
   22MOL0     H 2939   4.386   0.989  10.198  2.8867 -0.5368 -0.9840
   22MOL0     H 2940   4.624   1.104  10.362  4.1734  1.4121 -2.5397
   22MOL0     H 2941   4.553   1.177  10.212 -1.4813  1.6545  3.0842
   22MOL0     H 2942   4.590   0.934  10.108  0.0850 -1.8244 -0.4629
   22MOL0     H 2943   4.669   0.896  10.262  2.6504  1.0127 -0.0471
   22MOL0     H 2944   4.819   0.919  10.112 -3.3576 -0.6442 -0.9155
   22MOL0     H 2945   4.814   1.082  10.070  1.5011  0.0237  0.7276
   22MOL0     H 2946   4.843   0.989  10.359 -1.7877  0.7896  0.8011
   22MOL0     H 2947   4.835   1.155  10.292 -0.6490  0.7238 -2.8388
   22MOL0     H 2948   5.035   1.120  10.153 -3.0893  2.3996 -0.5883
   22MOL0     H 2949   5.078   1.120  10.326  1.1629 -3.7081  1.1528
   22MOL0     H 2950   3.925   1.139  10.113 -0.9723  1.2724  0.8922
   22MOL0     H 2951   3.701   1.031  10.122  0.5016  1.1089 -0.2329
   22MOL0     H 2952   3.354   1.022  10.337  2.7996 -1.5132  0.1706
   22MOL0     H 2953   3.098   0.999  10.313 -2.2402 -1.6020 -0.5591
   22MOL0     H 2954   1.862   0.103  10.667 -1.0702 -0.3012 -1.6960
   22MOL0     H 2955   1.744   0.153  10.885 -1.1796 -0.1835 -1.3460
   22MOL0     H 2956   1.871   0.402  11.200 -0.1119 -1.7783  2.4871
   22MOL0     H 2957   1.913   0.438  11.446  1.1686 -0.9377 -2.9388
   22MOL0     H 2958   1.617   0.571  11.720  0.7211 -1.3991  3.2890
   22MOL0     H 2959   1.659   0.736  11.674 -2.7342 -1.0313  2.1199
   22MOL0     H 2960   1.810   0.738  11.837  3.1938 -1.6968 -0.6344
   22MOL0     H 2961   1.849   0.560  11.827 -1.3849 -2.0744 -0.0324
   22MOL0     H 2962   1.633   0.495  11.930  2.7272 -0.3438 -0.9070
   22MOL0     H 2963   1.591   0.672  11.923 -1.1234 -0.2342  1.3165
   22MOL0     H 2964   1.820   0.537  12.094  0.1979  0.5925  2.5023
   22MOL0     H 2965   1.774   0.714  12.071 -1.3132  0.4719  1.5571
   22MOL0     H 2966   1.514   0.591  12.359  0.7573  1.1443  0.9007
   22MOL0     H 2967   1.575   0.688  11.467  0.2694  2.1109 -1.6102
   22MOL0     H 2968   1.460   0.753  11.271 -0.4305 -0.1060 -0.0753
   22MOL0     H 2969   1.524   0.717  11.105  0.5244  2.0894  0.0143
   22MOL0     H 2970   1.402   0.618  11.176  2.6340 -1.7615 -2.7312
   23MOL0     O 2971  11.446   5.465   5.771 -0.1505  0.2773 -0.1394
   23MOL0     C 2972  11.457   5.583   5.791 -1.4518 -0.2951 -0.6463
   23MOL0     O 2973  11.356   5.672   5.822  0.2371 -0.7479 -0.3655
   23MOL0     C 2974  11.228   5.632   5.808  1.4124  0.2029 -0.4918
   23MOL0     C 2975  11.165   5.604   5.691 -0.5135 -0.2667 -0.9476
   23MOL0     C 2976  11.032   5.559   5.694  0.6259 -0.2648  0.6696
   23MOL0     C 2977  10.947   5.553   5.809 -1.0303 -1.3085 -0.0683
   23MOL0     O 2978  10.828   5.488   5.786 -0.4743 -0.8845 -0.4728
   23MOL0     C 2979  10.737   5.481   5.892 -0.1555  0.3612  0.2275
   23MOL0     C 2980  10.666   5.614   5.916  0.1274  0.4544  0.6660
   23MOL0     C 2981  10.525   5.581   5.969 -0.6645 -0.6505  0.1578
   23MOL0     C 2982  10.462   5.716   6.008 -0.2284  0.3348  0.3511
   23MOL0     C 2983  10.317   5.689   6.038 -0.0575 -0.0977 -0.0494
   23MOL0     C 2984  10.232   5.678   5.922 -0.5564 -1.0382  0.7633
   23MOL0     C 2985  10.092   5.643   5.963  0.2706 -0.2856 -0.3044
   23MOL0     C 2986   9.992   5.649   5.853  0.2354 -0.2156 -0.4238
   23MOL0     N 2987   9.854   5.598   5.895  0.9453  0.9465  0.1807
   23MOL0     C 2988   9.801   5.471   5.866  0.4438 -1.2093  0.5138
   23MOL0     C 2989   9.676   5.450   5.919  0.5429 -0.4287  0.9699
   23MOL0     C 2990   9.564   5.344   5.922  0.6489 -0.0398  0.0062
   23MOL0     C 2991   9.577   5.244   5.809  1.3026  0.4422  0.5440
   23MOL0     C 2992   9.517   5.105   5.854 -1.0574 -0.6756 -0.1995
   23MOL0     C 2993   9.368   5.093   5.843  0.5360  0.3473 -0.5551
   23MOL0     O 2994   9.338   5.071   5.702  0.1086  0.1270  0.3572
   23MOL0     C 2995   9.206   5.054   5.670  0.6670 -0.2519 -1.6229
   23MOL0     C 2996   9.088   5.057   5.753 -0.8681  0.6589 -0.4921
   23MOL0     C 2997   8.961   5.058   5.702 -0.3311 -0.1270 -0.7639
   23MOL0     C 2998   8.935   5.039   5.563 -0.1136 -0.0249  0.8699
   23MOL0     C 2999   8.795   5.027   5.497 -0.1564  0.0860 -0.0846
   23MOL0     O 3000   8.690   4.994   5.574  0.0303 -0.0829  0.0249
   23MOL0     C 3001   8.559   5.013   5.521  0.1912 -0.3008  0.4545
   23MOL0     C 3002   8.462   4.914   5.533  0.1708 -0.0101 -0.1659
   23MOL0     C 3003   8.339   4.915   5.469  0.6961  0.3339 -0.3235
   23MOL0     C 3004   8.305   5.023   5.385  0.1197 -1.7002 -0.5856
   23MOL0     O 3005   8.192   5.056   5.321  0.3138  0.5905 -0.0171
   23MOL0     C 3006   8.081   4.964   5.326 -0.2941  0.6939 -0.5249
   23MOL0     C 3007   7.962   5.047   5.302  0.5050 -0.2147  0.4409
   23MOL0     C 3008   7.951   5.078   5.147  0.1357  0.0108  1.4932
   23MOL0     C 3009   7.862   5.197   5.114 -0.0527 -0.3971  0.3187
   23MOL0     C 3010   7.888   5.263   4.975  0.7360  0.0145 -0.0125
   23MOL0     C 3011   7.836   5.169   4.865 -0.3566 -0.4736 -0.8737
   23MOL0     C 3012   7.831   5.234   4.732  0.4338 -0.4794 -0.7085
   23MOL0     C 3013   7.733   5.341   4.709 -0.1130 -0.2827  0.7694
   23MOL0    Cl 3014   7.556   5.278   4.690  0.2163 -0.3636  0.1103
   23MOL0     C 3015   8.398   5.127   5.380 -0.4324  0.4625  0.5291
   23MOL0     C 3016   8.519   5.123   5.450 -0.5524 -0.5749  0.9333
   23MOL0     O 3017   8.790   5.042   5.378  0.1301  0.6864  0.3341
   23MOL0     C 3018   9.051   5.018   5.488 -0.0861 -0.5469 -0.1909
   23MOL0     C 3019   9.183   5.036   5.535 -1.0606 -0.0217  0.1593
   23MOL0     N 3020   9.657   5.577   5.986 -0.0605  0.5330  0.0205
   23MOL0     N 3021   9.763   5.664   5.974  0.4215 -0.1691 -0.1680
   23MOL0     C 3022  11.010   5.583   5.930  0.9849 -0.2327  0.4774
   23MOL0     C 3023  11.146   5.619   5.929 -0.2192 -0.1592  0.2104
   23MOL0     C 3024  11.597   5.638   5.784 -0.4971  0.3900 -0.2164
   23MOL0     C 3025  11.617   5.777   5.790 -0.2784 -1.0825 -1.1379
   23MOL0     C 3026  11.744   5.839   5.795  0.4901  1.0169 -0.3763
   23MOL0     C 3027  11.867   5.758   5.790  0.6939  0.4641 -0.3630
   23MOL0     O 3028  11.980   5.831   5.799 -0.0049 -0.1692 -0.5761
   23MOL0     C 3029  12.109   5.777   5.847 -0.3122 -0.1069  0.0495
   23MOL0     C 3030  12.226   5.861   5.794 -0.0192 -0.1921 -0.6028
   23MOL0     C 3031  12.356   5.843   5.881 -0.1552  0.1384 -0.4446
   23MOL0     C 3032  12.478   5.865   5.792  0.3641  1.5747  0.1093
   23MOL0     C 3033  12.505   6.008   5.795  0.3245  0.3269  0.0663
   23MOL0     C 3034  12.524   6.130   5.777 -0.1398  0.2040 -0.0723
   23MOL0     C 3035  11.849   5.622   5.784 -1.0939  0.0196  0.1649
   23MOL0     C 3036  11.720   5.565   5.775 -0.2905  0.9781  0.6680
   23MOL0     C 3037  11.724   5.411   5.751 -0.1777  0.3103 -0.5809
   23MOL0     H 3038  11.223   5.602   5.599 -0.6922  2.5924 -1.1898
   23MOL0     H 3039  10.992   5.525   5.598  2.9760 -0.3480 -0.3378
   23MOL0     H 3040  10.660   5.407   5.868 -1.0895  0.3452  2.8596
   23MOL0     H 3041  10.795   5.446   5.978 -0.7211 -2.3145 -0.4015
   23MOL0     H 3042  10.660   5.676   5.826  1.9783 -1.4081 -0.8486
   23MOL0     H 3043  10.716   5.660   6.001 -2.2847  2.8956  0.8862
   23MOL0     H 3044  10.544   5.525   6.060 -4.4043 -3.2073 -0.4053
   23MOL0     H 3045  10.470   5.517   5.900 -0.1340  1.1221 -2.0152
   23MOL0     H 3046  10.501   5.767   6.096 -1.5605  0.9485  0.6125
   23MOL0     H 3047  10.478   5.787   5.925 -1.4845  1.6036  1.1372
   23MOL0     H 3048  10.303   5.598   6.098 -0.1045 -1.3836 -1.9091
   23MOL0     H 3049  10.287   5.778   6.093 -0.3386 -1.4375  2.0707
   23MOL0     H 3050  10.243   5.768   5.862 -1.7939 -0.5470  1.2512
   23MOL0     H 3051  10.273   5.597   5.861 -1.8795 -1.5375  0.5029
   23MOL0     H 3052  10.057   5.714   6.038 -1.9445  0.9383 -2.3656
   23MOL0     H 3053  10.087   5.544   6.009 -0.5827  0.9216  2.3934
   23MOL0     H 3054   9.988   5.757   5.840 -0.0875 -0.2689 -0.7681
   23MOL0     H 3055  10.028   5.605   5.760 -2.1993  1.3234 -2.1958
   23MOL0     H 3056   9.857   5.393   5.816  0.4150  1.3090 -3.8835
   23MOL0     H 3057   9.562   5.294   6.019 -2.7281 -1.1294 -0.4957
   23MOL0     H 3058   9.473   5.403   5.910  2.0461  1.9038 -1.8687
   23MOL0     H 3059   9.539   5.286   5.715  2.2174 -2.6139 -1.3554
   23MOL0     H 3060   9.684   5.224   5.804  1.1455 -1.1016  2.2670
   23MOL0     H 3061   9.527   5.100   5.963 -3.5958  1.1212  0.2182
   23MOL0     H 3062   9.576   5.028   5.804  0.7095  0.8200 -0.5535
   23MOL0     H 3063   9.317   5.179   5.887  0.7134 -0.5334  1.4756
   23MOL0     H 3064   9.338   5.010   5.908  0.5795  2.5337  2.4355
   23MOL0     H 3065   9.112   5.058   5.859  6.1708 -1.0565 -1.5919
   23MOL0     H 3066   8.873   5.056   5.765  0.7909 -2.4859  0.8682
   23MOL0     H 3067   8.477   4.830   5.601 -1.7792  0.3074  0.7024
   23MOL0     H 3068   8.260   4.841   5.481  2.2789 -1.3592  0.1639
   23MOL0     H 3069   8.084   4.872   5.266  0.8609  3.4105 -5.1374
   23MOL0     H 3070   8.069   4.934   5.430 -1.7695  1.0418 -0.5706
   23MOL0     H 3071   7.878   4.989   5.342  0.8709  1.4821  4.0287
   23MOL0     H 3072   7.965   5.142   5.356  0.5287 -0.0429  0.1435
   23MOL0     H 3073   8.052   5.099   5.111 -0.5537 -1.2891 -1.5276
   23MOL0     H 3074   7.913   4.995   5.086 -0.5768 -0.5893  2.7126
   23MOL0     H 3075   7.884   5.281   5.181  1.4570 -1.8373  1.7324
   23MOL0     H 3076   7.756   5.172   5.114 -0.6289  1.7611 -0.9538
   23MOL0     H 3077   7.995   5.271   4.953  0.8063 -0.8730 -0.0557
   23MOL0     H 3078   7.833   5.357   4.987 -2.5731 -1.9677  2.0718
   23MOL0     H 3079   7.900   5.081   4.857  0.1881 -0.0769 -0.9559
   23MOL0     H 3080   7.736   5.134   4.892 -0.9480  1.5179 -0.2836
   23MOL0     H 3081   7.810   5.160   4.654 -2.5770 -1.5996  0.9872
   23MOL0     H 3082   7.931   5.276   4.717 -1.2727  4.0827 -0.9179
   23MOL0     H 3083   7.745   5.429   4.773 -2.1527  0.6564 -0.0235
   23MOL0     H 3084   7.753   5.385   4.611  4.6800  0.7955  2.0039
   23MOL0     H 3085   8.375   5.210   5.313 -0.4991 -1.6936 -2.2973
   23MOL0     H 3086   8.593   5.199   5.428 -1.6146 -0.1199 -1.4526
   23MOL0     H 3087   9.039   5.018   5.381  0.7225  3.0977 -0.4021
   23MOL0     H 3088   9.267   5.038   5.466 -1.3048 -0.7369 -0.1719
   23MOL0     H 3089  10.946   5.582   6.018 -0.3912 -0.1178 -0.4947
   23MOL0     H 3090  11.188   5.640   6.027  1.4242 -1.9124 -0.0563
   23MOL0     H 3091  11.536   5.848   5.788  0.7547  0.1938  0.2636
   23MOL0     H 3092  11.748   5.947   5.799  1.0064  0.9716  1.2810
   23MOL0     H 3093  12.132   5.676   5.812 -3.2510 -0.6334 -0.6520
   23MOL0     H 3094  12.101   5.770   5.956  0.1562  0.3766  0.1162
   23MOL0     H 3095  12.197   5.967   5.790 -4.1967 -1.1490 -0.1312
   23MOL0     H 3096  12.255   5.818   5.698 -0.6149 -0.4049 -0.6967
   23MOL0     H 3097  12.358   5.740   5.917  0.9419  0.3724  0.1881
   23MOL0     H 3098  12.339   5.911   5.965 -2.0330 -3.6741  2.5991
   23MOL0     H 3099  12.566   5.816   5.835  0.5114 -0.8010 -2.5889
   23MOL0     H 3100  12.465   5.822   5.692  0.9465 -0.4864  0.8622
   23MOL0     H 3101  12.530   6.236   5.763  0.7025  0.3718  1.3480
   23MOL0     H 3102  11.932   5.553   5.770 -1.8833 -0.8954 -0.0805
   23MOL0     H 3103  11.829   5.382   5.750 -0.6359 -1.4920 -0.4386
   23MOL0     H 3104  11.673   5.349   5.826 -2.5677  2.9637  0.1587
   23MOL0     H 3105  11.671   5.378   5.661  1.0224  0.9903 -1.5567
   24MOL0     O 3106   5.070  10.173   0.382  0.8799  0.1908  0.7691
   24MOL0     C 3107   5.176  10.156   0.443  0.0455  0.3300  0.0557
   24MOL0     O 3108   5.270  10.244   0.445  0.9065  0.5872  0.0100
   24MOL0     C 3109   5.250  10.365   0.379  0.6514 -0.1981  0.7649
   24MOL0     C 3110   5.148  10.458   0.428 -0.8887 -0.6396  0.1329
   24MOL0     C 3111   5.131  10.577   0.362 -0.0507 -0.5843 -0.1438
   24MOL0     C 3112   5.219  10.624   0.254 -1.1430 -0.0878  0.4250
   24MOL0     O 3113   5.204  10.750   0.196 -0.2691  0.0627 -0.0300
   24MOL0     C 3114   5.308  10.820   0.128 -0.2604  0.8513 -0.2159
   24MOL0     C 3115   5.258  10.952   0.081 -0.6143 -0.2675 -0.2415
   24MOL0     C 3116   5.366  11.023   0.004 -0.0542  0.7173 -0.2882
   24MOL0     C 3117   5.360  10.984  -0.150  0.5219  0.4504  0.3099
   24MOL0     C 3118   5.458  11.070  -0.234  0.1993  0.3762 -1.0298
   24MOL0     C 3119   5.416  11.059  -0.381  0.5886  0.3129  0.3824
   24MOL0     C 3120   5.508  11.150  -0.474  0.2921  0.0753  0.2978
   24MOL0     C 3121   5.654  11.118  -0.457 -0.2106  0.6529 -0.7044
   24MOL0     N 3122   5.702  11.076  -0.585  0.0865 -0.3845 -0.0030
   24MOL0     C 3123   5.785  11.145  -0.669 -0.0677 -0.5328 -0.0754
   24MOL0     C 3124   5.784  11.062  -0.782  0.4567 -1.3924  0.3976
   24MOL0     C 3125   5.848  11.096  -0.911 -0.1927 -0.7875  0.5326
   24MOL0     C 3126   5.991  11.065  -0.916 -0.4750  0.6012 -0.0964
   24MOL0     C 3127   6.055  11.111  -1.051 -0.6503  0.4686 -0.0527
   24MOL0     C 3128   6.037  11.017  -1.164  0.2595  0.5199  0.5539
   24MOL0     O 3129   6.088  11.066  -1.292 -0.3953  0.2083  0.9333
   24MOL0     C 3130   6.025  11.166  -1.359 -0.1567 -0.8075  0.0203
   24MOL0     C 3131   6.074  11.233  -1.474 -0.2066  0.6913 -0.9361
   24MOL0     C 3132   6.015  11.340  -1.530  0.0779 -0.3342 -0.2975
   24MOL0     C 3133   5.895  11.381  -1.483  0.1909 -1.1276 -0.1372
   24MOL0     C 3134   5.815  11.485  -1.553 -0.2285 -0.0838  0.2205
   24MOL0     O 3135   5.734  11.561  -1.480  0.3158  0.2615  0.5389
   24MOL0     C 3136   5.616  11.595  -1.551  0.1193 -0.6329 -0.5610
   24MOL0     C 3137   5.527  11.511  -1.613  0.2224  0.4630  0.0153
   24MOL0     C 3138   5.394  11.551  -1.641  0.4992  0.7112  0.1169
   24MOL0     C 3139   5.348  11.681  -1.625  0.7148  0.5792  0.5321
   24MOL0     O 3140   5.213  11.712  -1.658 -0.3734  0.6792  0.0654
   24MOL0     C 3141   5.157  11.823  -1.595  0.1263  0.5993  0.0204
   24MOL0     C 3142   5.008  11.823  -1.613 -0.4309 -0.2258 -0.5697
   24MOL0     C 3143   4.958  11.963  -1.572  2.0858  0.3620 -0.1660
   24MOL0     C 3144   4.809  11.961  -1.542  0.7257  0.1647  0.5021
   24MOL0     C 3145   4.762  12.104  -1.520 -0.6177 -0.1239  1.7899
   24MOL0     C 3146   4.618  12.107  -1.472 -0.1901  0.1400  0.2811
   24MOL0     C 3147   4.510  12.057  -1.578  0.1977  0.9680  0.7419
   24MOL0     C 3148   4.378  12.028  -1.506  0.1546 -0.7034 -0.5978
   24MOL0    Cl 3149   4.234  11.965  -1.598 -0.8646 -0.8055  0.7712
   24MOL0     C 3150   5.443  11.772  -1.586 -0.2489  0.1820 -0.2153
   24MOL0     C 3151   5.576  11.730  -1.544  0.8140  0.6679  0.1028
   24MOL0     O 3152   5.829  11.491  -1.678  0.3424  0.5749 -0.3362
   24MOL0     C 3153   5.843  11.331  -1.357 -0.2671 -0.9366  0.1733
   24MOL0     C 3154   5.909  11.220  -1.309 -0.0008  0.0401  0.0308
   24MOL0     N 3155   5.705  10.955  -0.766  0.8581 -0.0854 -0.5579
   24MOL0     N 3156   5.656  10.956  -0.640 -0.2723 -1.1674  0.4724
   24MOL0     C 3157   5.312  10.543   0.214 -0.3684  0.4598 -0.5125
   24MOL0     C 3158   5.324  10.406   0.271 -0.4741 -0.4038  0.8084
   24MOL0     C 3159   5.195  10.028   0.513 -0.3892  0.2163  0.2276
   24MOL0     C 3160   5.107   9.926   0.476  0.3491  0.4192 -0.6153
   24MOL0     C 3161   5.116   9.801   0.548 -0.0284 -0.3863  0.4411
   24MOL0     C 3162   5.206   9.781   0.655  0.3972  0.4485  0.5990
   24MOL0     O 3163   5.205   9.666   0.732  0.0103 -0.1274  0.2184
   24MOL0     C 3164   5.083   9.597   0.750  0.1418  0.1784 -0.7087
   24MOL0     C 3165   5.101   9.569   0.905  0.3067 -0.5280  0.3278
   24MOL0     C 3166   4.987   9.476   0.951 -0.1304  0.0263  0.6460
   24MOL0     C 3167   4.857   9.544   1.002  0.2254  0.6130  0.4896
   24MOL0     C 3168   4.746   9.457   1.043  0.4826  0.9498  0.1254
   24MOL0     C 3169   4.648   9.376   1.054 -0.0695  0.4531  1.6462
   24MOL0     C 3170   5.291   9.875   0.680  0.1234  0.0745 -0.4085
   24MOL0     C 3171   5.290   9.998   0.618  0.6004  1.2921  1.3716
   24MOL0     C 3172   5.393  10.102   0.660  0.5531  0.0796  0.3044
   24MOL0     H 3173   5.082  10.433   0.511 -0.5322 -1.1018  0.2770
   24MOL0     H 3174   5.056  10.645   0.401  0.8510  0.6857 -0.5446
   24MOL0     H 3175   5.392  10.837   0.196  1.4928 -0.1373 -2.0231
   24MOL0     H 3176   5.332  10.771   0.034  1.2229  0.3540  0.3876
   24MOL0     H 3177   5.233  11.010   0.170 -0.0574  2.7872 -1.9475
   24MOL0     H 3178   5.172  10.945   0.014 -0.8622 -0.4035  0.0859
   24MOL0     H 3179   5.467  11.012   0.046 -0.4354  0.1798  0.5051
   24MOL0     H 3180   5.339  11.128   0.018 -1.0045  0.4498 -0.0362
   24MOL0     H 3181   5.382  10.879  -0.168 -0.9292 -0.1211  1.6634
   24MOL0     H 3182   5.257  10.999  -0.183 -0.5991 -4.2326  0.9315
   24MOL0     H 3183   5.458  11.172  -0.195  2.3811 -0.3842  1.2174
   24MOL0     H 3184   5.560  11.033  -0.218 -0.4085 -0.8671  0.1991
   24MOL0     H 3185   5.419  10.953  -0.406  0.4455  0.5297 -0.5821
   24MOL0     H 3186   5.314  11.098  -0.387  0.8064  0.6798 -1.8797
   24MOL0     H 3187   5.477  11.252  -0.448 -3.4664  0.3177 -3.9598
   24MOL0     H 3188   5.470  11.141  -0.576 -2.6336 -0.8184  1.3560
   24MOL0     H 3189   5.715  11.204  -0.429  3.5965 -2.7301  2.7880
   24MOL0     H 3190   5.679  11.040  -0.384 -0.6117 -0.3788 -1.6450
   24MOL0     H 3191   5.848  11.232  -0.651 -1.2829  0.0951  1.3897
   24MOL0     H 3192   5.797  11.029  -0.981  1.9676 -2.6726  0.6591
   24MOL0     H 3193   5.828  11.197  -0.948  0.1743 -1.0632 -0.4426
   24MOL0     H 3194   6.055  11.103  -0.835 -0.9099 -2.7307  2.0190
   24MOL0     H 3195   6.003  10.956  -0.908  1.1478  0.8716  2.3493
   24MOL0     H 3196   6.164  11.113  -1.036  0.1524 -0.8420 -4.4298
   24MOL0     H 3197   6.025  11.212  -1.081 -1.6240  0.2476  0.1482
   24MOL0     H 3198   5.933  10.990  -1.181  0.7238 -1.9555  1.2329
   24MOL0     H 3199   6.077  10.919  -1.135  1.2161  0.2331 -1.5563
   24MOL0     H 3200   6.170  11.201  -1.514  0.6073 -1.1479  2.1572
   24MOL0     H 3201   6.074  11.387  -1.609  1.3687 -1.0719  0.1906
   24MOL0     H 3202   5.552  11.405  -1.617  2.8256  0.9871  0.9938
   24MOL0     H 3203   5.315  11.480  -1.662 -0.0190  0.3226  2.9945
   24MOL0     H 3204   5.183  11.836  -1.490 -1.1525 -3.6813  1.0807
   24MOL0     H 3205   5.204  11.899  -1.658 -2.5045  1.9955 -0.3842
   24MOL0     H 3206   4.980  11.805  -1.717 -0.4919 -1.0006 -0.4241
   24MOL0     H 3207   4.960  11.745  -1.554  0.9027 -0.2890  0.5028
   24MOL0     H 3208   5.011  11.996  -1.482  0.3810  1.3815  0.5111
   24MOL0     H 3209   4.975  12.030  -1.657  0.5285  3.4702  1.7834
   24MOL0     H 3210   4.782  11.889  -1.464  1.8312 -2.3107 -1.2487
   24MOL0     H 3211   4.772  11.919  -1.637 -2.6181 -0.8464  2.1192
   24MOL0     H 3212   4.766  12.165  -1.612  0.2635 -3.0801 -0.2794
   24MOL0     H 3213   4.834  12.156  -1.456  1.9146 -0.0997 -0.8326
   24MOL0     H 3214   4.616  12.048  -1.380 -1.9291  1.9234  1.4492
   24MOL0     H 3215   4.601  12.211  -1.443  1.6617  1.5326 -2.9914
   24MOL0     H 3216   4.554  11.974  -1.635 -1.3902 -0.3603  1.4026
   24MOL0     H 3217   4.495  12.133  -1.656 -1.1313 -1.2495 -1.3239
   24MOL0     H 3218   4.402  11.955  -1.428  1.9942  0.4994  0.0208
   24MOL0     H 3219   4.337  12.117  -1.458 -2.5761 -1.2035 -1.8136
   24MOL0     H 3220   5.422  11.879  -1.582 -1.9869 -0.1820  1.8524
   24MOL0     H 3221   5.641  11.804  -1.499  1.6153 -0.6815  1.2144
   24MOL0     H 3222   5.760  11.379  -1.308 -0.5912 -2.4872  1.2362
   24MOL0     H 3223   5.865  11.172  -1.223  3.0660 -0.0071  1.7222
   24MOL0     H 3224   5.388  10.570   0.142 -0.8749 -1.6960 -1.9651
   24MOL0     H 3225   5.404  10.343   0.234 -1.4556 -0.0881 -2.0968
   24MOL0     H 3226   5.019   9.933   0.412 -1.0677 -2.7525  0.8130
   24MOL0     H 3227   5.050   9.722   0.516 -0.8191  1.3349 -2.5925
   24MOL0     H 3228   5.084   9.502   0.697 -3.7215  0.1866 -1.0216
   24MOL0     H 3229   4.988   9.644   0.723 -1.5061 -2.0588  0.8242
   24MOL0     H 3230   5.098   9.661   0.963 -0.7915 -0.8551  0.8130
   24MOL0     H 3231   5.192   9.512   0.931  3.1853  2.3059 -2.6439
   24MOL0     H 3232   5.011   9.411   1.036  1.5119 -0.7485 -0.3668
   24MOL0     H 3233   4.973   9.406   0.868  0.5163 -0.4571  0.9371
   24MOL0     H 3234   4.902   9.592   1.089  1.7912 -0.8625  0.5551
   24MOL0     H 3235   4.826   9.617   0.927  1.5634  4.5731  3.4559
   24MOL0     H 3236   4.566   9.307   1.049  0.9645 -0.7328 -0.6386
   24MOL0     H 3237   5.356   9.852   0.764  2.3447 -2.0907 -2.5670
   24MOL0     H 3238   5.422  10.065   0.759  0.6001 -4.5263 -1.1631
   24MOL0     H 3239   5.483  10.102   0.597  0.3189  3.4013 -0.1654
   24MOL0     H 3240   5.360  10.206   0.665  1.1218  0.2614  0.4134
   25MOL0     O 3241   0.517   6.963  10.207 -0.3324  0.9166  0.3537
   25MOL0     C 3242   0.541   7.079  10.218 -0.8210 -0.0971 -1.1768
   25MOL0     O 3243   0.623   7.119  10.314 -0.6238 -0.1480 -0.8027
   25MOL0     C 3244   0.707   7.033  10.390  0.4090 -0.3785 -0.6547
   25MOL0     C 3245   0.733   6.897  10.381  0.4410  0.4183  0.2145
   25MOL0     C 3246   0.827   6.839  10.470  0.3673  0.5513  0.0987
   25MOL0     C 3247   0.897   6.907  10.544 -1.1530 -1.8518 -0.3179
   25MOL0     O 3248   0.988   6.846  10.627  0.4958 -0.0595  0.0231
   25MOL0     C 3249   1.061   6.909  10.736 -0.0992  0.5432 -0.6632
   25MOL0     C 3250   1.189   6.981  10.690 -0.6968  0.3163 -0.4034
   25MOL0     C 3251   1.258   7.065  10.802  0.1488 -0.2872  0.6868
   25MOL0     C 3252   1.406   7.115  10.778 -0.5851  0.1033  0.1225
   25MOL0     C 3253   1.429   7.193  10.648  0.5932  0.4793  0.1438
   25MOL0     C 3254   1.551   7.282  10.663  0.2058 -0.4074 -0.1520
   25MOL0     C 3255   1.597   7.324  10.512 -0.0588  0.7592  0.5642
   25MOL0     C 3256   1.518   7.448  10.462 -0.7987  1.0950 -0.1291
   25MOL0     N 3257   1.580   7.501  10.337 -0.0289  0.2292  0.4324
   25MOL0     C 3258   1.579   7.445  10.209 -0.9805  1.0363  0.3797
   25MOL0     C 3259   1.624   7.538  10.121  0.3728  0.7971  0.5386
   25MOL0     C 3260   1.659   7.514   9.971 -0.5471  0.2542  0.5634
   25MOL0     C 3261   1.748   7.630   9.909  0.6230  0.3331 -0.1113
   25MOL0     C 3262   1.744   7.610   9.758 -0.7676 -0.3260 -0.2863
   25MOL0     C 3263   1.878   7.643   9.697 -0.5289 -0.8439  0.8549
   25MOL0     O 3264   1.855   7.671   9.556 -0.8489  0.2033 -0.3895
   25MOL0     C 3265   1.964   7.730   9.491  1.2697 -0.3601 -0.1340
   25MOL0     C 3266   1.956   7.731   9.350  0.5333  0.7158  0.3666
   25MOL0     C 3267   2.056   7.781   9.261  0.1116  1.1232 -1.2914
   25MOL0     C 3268   2.170   7.837   9.317 -1.2941 -0.1578 -0.5507
   25MOL0     C 3269   2.285   7.885   9.228  0.6759  0.6343 -0.9701
   25MOL0     O 3270   2.251   7.902   9.093  0.3206  0.9424 -0.3850
   25MOL0     C 3271   2.349   7.944   9.004  0.5150 -1.6322 -0.2546
   25MOL0     C 3272   2.445   8.047   9.042  0.7648  0.4592  0.2229
   25MOL0     C 3273   2.502   8.134   8.941  0.1486 -0.2312  0.1955
   25MOL0     C 3274   2.480   8.108   8.802 -0.0689 -0.0569 -0.1394
   25MOL0     O 3275   2.539   8.179   8.696  0.3881  0.3233  1.3342
   25MOL0     C 3276   2.444   8.237   8.596  1.1271 -0.4767  0.9395
   25MOL0     C 3277   2.460   8.187   8.444 -0.4813 -0.0108 -0.0634
   25MOL0     C 3278   2.597   8.228   8.384 -0.2482  0.4698  0.4895
   25MOL0     C 3279   2.617   8.146   8.258  0.5737  0.1748  0.3191
   25MOL0     C 3280   2.759   8.153   8.204  1.0447  0.6282 -0.4173
   25MOL0     C 3281   2.797   8.033   8.115 -0.5465 -0.7204 -0.6699
   25MOL0     C 3282   2.948   8.012   8.084  0.5992 -0.2389  0.2079
   25MOL0     C 3283   2.950   7.945   7.950 -0.5283 -0.3036  0.1743
   25MOL0    Cl 3284   2.861   7.779   7.972  0.2274  0.0108  0.3969
   25MOL0     C 3285   2.407   7.991   8.780 -0.1252  0.5292 -0.4859
   25MOL0     C 3286   2.331   7.919   8.873 -0.4365  0.3926 -0.1282
   25MOL0     O 3287   2.396   7.901   9.277  0.8766 -0.8735  0.1859
   25MOL0     C 3288   2.183   7.834   9.465  0.1586  0.1379  0.0689
   25MOL0     C 3289   2.081   7.781   9.550 -0.1654 -0.2419  0.1894
   25MOL0     N 3290   1.637   7.656  10.191 -0.9961 -0.4331  0.5004
   25MOL0     N 3291   1.604   7.631  10.311  0.8709  0.0377  0.2059
   25MOL0     C 3292   0.877   7.045  10.553 -0.0228  0.3999 -0.7042
   25MOL0     C 3293   0.781   7.112  10.473 -0.3627 -0.1300 -0.2000
   25MOL0     C 3294   0.476   7.175  10.131  0.0664  0.4741 -0.9244
   25MOL0     C 3295   0.395   7.124  10.033 -0.3994  0.4409  0.1901
   25MOL0     C 3296   0.325   7.201   9.933  0.4337 -0.3344  0.8855
   25MOL0     C 3297   0.338   7.336   9.931  1.3199  0.2754  0.7964
   25MOL0     O 3298   0.284   7.406   9.827 -0.3002 -0.8714 -0.3315
   25MOL0     C 3299   0.229   7.534   9.863  0.2248  0.5681 -0.4155
   25MOL0     C 3300   0.316   7.646   9.796  0.2975 -0.9718 -0.5166
   25MOL0     C 3301   0.340   7.757   9.894  0.7551 -0.5827  0.5687
   25MOL0     C 3302   0.472   7.827   9.863 -0.2258  0.4797  0.1735
   25MOL0     C 3303   0.590   7.750   9.906  0.2229  0.4182  0.3487
   25MOL0     C 3304   0.697   7.694   9.950  1.0998 -0.7399  0.1294
   25MOL0     C 3305   0.428   7.395  10.026 -0.0355  0.7708 -0.6057
   25MOL0     C 3306   0.484   7.319  10.131  0.2316  0.0305 -0.4366
   25MOL0     C 3307   0.562   7.401  10.235  0.4570  0.6726 -0.7364
   25MOL0     H 3308   0.696   6.826  10.307  0.4311 -0.4298  1.0052
   25MOL0     H 3309   0.838   6.731  10.469 -1.7181  0.2553 -3.3490
   25MOL0     H 3310   0.982   6.968  10.783 -2.4906 -2.7500 -0.1141
   25MOL0     H 3311   1.079   6.824  10.803 -2.5669  1.3221  1.1456
   25MOL0     H 3312   1.155   7.052  10.614  0.0709 -0.0541 -1.1077
   25MOL0     H 3313   1.264   6.924  10.635  0.7100  2.4895 -0.8464
   25MOL0     H 3314   1.274   7.011  10.896 -2.4268 -0.8235  0.8777
   25MOL0     H 3315   1.204   7.157  10.827  0.5134  0.7758 -2.1073
   25MOL0     H 3316   1.416   7.187  10.860 -4.1923  3.4764 -2.0492
   25MOL0     H 3317   1.478   7.033  10.790  0.4093  1.2812  3.1372
   25MOL0     H 3318   1.442   7.124  10.564 -0.1341 -3.0325  2.6656
   25MOL0     H 3319   1.338   7.248  10.623 -2.9650 -4.9696 -0.8015
   25MOL0     H 3320   1.544   7.375  10.719  1.4539  0.6666 -1.6883
   25MOL0     H 3321   1.637   7.228  10.703  0.5111 -0.7369 -1.2036
   25MOL0     H 3322   1.587   7.233  10.453  1.9077  2.1290 -2.0830
   25MOL0     H 3323   1.705   7.334  10.494  0.5331 -3.6285  0.5031
   25MOL0     H 3324   1.415   7.412  10.451  0.3731 -2.8183 -0.0640
   25MOL0     H 3325   1.510   7.531  10.532 -2.6288  1.6636 -0.9521
   25MOL0     H 3326   1.561   7.342  10.179  2.4372  0.2234  0.6779
   25MOL0     H 3327   1.708   7.418   9.949 -0.4541  0.0611  1.5342
   25MOL0     H 3328   1.567   7.517   9.912 -1.9073  0.0885  2.5567
   25MOL0     H 3329   1.700   7.724   9.934  0.6291 -0.2291  2.2511
   25MOL0     H 3330   1.848   7.633   9.955  0.1107  0.1886  1.0605
   25MOL0     H 3331   1.667   7.680   9.724 -3.7869 -4.3717 -2.7108
   25MOL0     H 3332   1.715   7.509   9.729 -0.2925 -1.7011  3.4428
   25MOL0     H 3333   1.940   7.554   9.705  0.2181 -0.5149 -0.9098
   25MOL0     H 3334   1.930   7.720   9.755 -1.0336  2.2523 -2.4477
   25MOL0     H 3335   1.873   7.673   9.311  2.4334 -2.5552  0.8120
   25MOL0     H 3336   2.059   7.760   9.154  2.8339 -0.6968 -0.9628
   25MOL0     H 3337   2.454   8.076   9.146  0.7402 -0.4873  0.5008
   25MOL0     H 3338   2.571   8.214   8.965  3.4341 -1.3889 -4.2307
   25MOL0     H 3339   2.341   8.224   8.630  0.5754 -0.3773 -0.6182
   25MOL0     H 3340   2.454   8.346   8.594 -2.4550  0.0546  3.0041
   25MOL0     H 3341   2.443   8.079   8.455 -0.3818 -0.0304 -0.0988
   25MOL0     H 3342   2.375   8.227   8.388  1.2985  4.2990 -0.1050
   25MOL0     H 3343   2.600   8.336   8.365  1.4328  0.8304  2.5280
   25MOL0     H 3344   2.670   8.207   8.462 -1.9444  1.7748  2.5461
   25MOL0     H 3345   2.556   8.177   8.173 -1.1304 -3.3313  0.1114
   25MOL0     H 3346   2.595   8.042   8.284  1.1618  0.4336  1.9763
   25MOL0     H 3347   2.827   8.153   8.289  1.8094 -0.6798 -0.9883
   25MOL0     H 3348   2.778   8.246   8.149  1.3929 -0.4107 -2.1339
   25MOL0     H 3349   2.763   7.948   8.174  0.5612 -0.2508  0.6962
   25MOL0     H 3350   2.745   8.046   8.019 -2.4113  1.0859  0.4839
   25MOL0     H 3351   2.986   7.948   8.164 -0.0264 -2.0189 -0.8680
   25MOL0     H 3352   3.012   8.100   8.071  0.9632 -0.8199 -2.7530
   25MOL0     H 3353   2.897   8.004   7.874 -3.4180 -0.3177  2.0061
   25MOL0     H 3354   3.053   7.931   7.916 -0.4666 -2.3418  1.0904
   25MOL0     H 3355   2.413   7.954   8.678 -0.2762  1.3911 -0.8219
   25MOL0     H 3356   2.291   7.824   8.838  0.9390 -0.0305 -0.5995
   25MOL0     H 3357   2.265   7.886   9.514 -0.5280  0.6361  0.7006
   25MOL0     H 3358   2.101   7.797   9.655  2.1086  3.2158 -0.5953
   25MOL0     H 3359   0.940   7.107  10.616 -0.8597  0.2066  0.3662
   25MOL0     H 3360   0.794   7.220  10.477 -0.6694 -0.1034  0.0508
   25MOL0     H 3361   0.382   7.019  10.009  1.6696  0.9045 -3.9087
   25MOL0     H 3362   0.258   7.158   9.858  1.5656  1.0751 -1.0432
   25MOL0     H 3363   0.224   7.542   9.972  2.4402  1.0327 -0.2945
   25MOL0     H 3364   0.127   7.557   9.830 -0.5197  0.0047  1.3707
   25MOL0     H 3365   0.265   7.682   9.706  0.7759  0.0647 -0.3889
   25MOL0     H 3366   0.415   7.608   9.769  1.9191  2.0315  0.7528
   25MOL0     H 3367   0.351   7.718   9.995  3.2860  1.0117  1.0018
   25MOL0     H 3368   0.252   7.822   9.888  2.2762  1.6191  0.9776
   25MOL0     H 3369   0.494   7.854   9.759  2.2189 -1.0898  0.2180
   25MOL0     H 3370   0.480   7.912   9.933  2.3188  0.5748 -0.1537
   25MOL0     H 3371   0.793   7.647   9.952  0.7675 -1.4188  1.6355
   25MOL0     H 3372   0.453   7.500  10.024 -1.1734  1.0905  0.5831
   25MOL0     H 3373   0.670   7.384  10.226  0.6763  2.6696 -3.0618
   25MOL0     H 3374   0.546   7.508  10.216 -0.8047  0.4695 -0.9209
   25MOL0     H 3375   0.516   7.377  10.331 -0.8657  4.0475 -0.3759
   26MOL0     O 3376   9.598   0.348  11.421  0.4191  0.1327  0.0141
   26MOL0     C 3377   9.653   0.325  11.309  0.2571 -0.0450  0.2363
   26MOL0     O 3378   9.604   0.246  11.212  0.4306  0.2137 -0.4374
   26MOL0     C 3379   9.473   0.239  11.199  0.4077  0.6814  0.5248
   26MOL0     C 3380   9.401   0.343  11.137 -0.3049 -0.7502 -0.0044
   26MOL0     C 3381   9.260   0.329  11.114 -0.1902  0.3938  0.1719
   26MOL0     C 3382   9.191   0.224  11.167  0.0675 -0.5712 -0.2073
   26MOL0     O 3383   9.052   0.224  11.147 -0.3401 -0.4017  0.2889
   26MOL0     C 3384   8.967   0.200  11.266 -0.8538 -0.0599  0.2541
   26MOL0     C 3385   8.822   0.153  11.232 -0.7243 -0.6075 -0.9338
   26MOL0     C 3386   8.815   0.013  11.167  0.7892  0.1445  0.0112
   26MOL0     C 3387   8.669   0.002  11.122  0.0556 -0.2690  0.1315
   26MOL0     C 3388   8.634  -0.139  11.107  0.4831  0.4177 -0.6394
   26MOL0     C 3389   8.510  -0.162  11.025 -0.2847 -0.4727  0.4902
   26MOL0     C 3390   8.378  -0.118  11.089 -0.2369  0.2914 -0.2764
   26MOL0     C 3391   8.260  -0.117  10.993  0.5262  0.3574 -0.3932
   26MOL0     N 3392   8.260  -0.027  10.873 -0.1399  0.8794 -0.2656
   26MOL0     C 3393   8.199  -0.067  10.759  0.0135 -0.2898  0.7823
   26MOL0     C 3394   8.223   0.041  10.676  0.8397 -0.5450 -0.7184
   26MOL0     C 3395   8.191   0.038  10.526 -0.4967 -0.0975 -0.0391
   26MOL0     C 3396   8.297   0.120  10.435  0.2248 -0.4552 -0.2498
   26MOL0     C 3397   8.290   0.271  10.470 -0.0783  0.6872  0.6930
   26MOL0     C 3398   8.353   0.362  10.363  0.2883  0.1913  0.3639
   26MOL0     O 3399   8.289   0.351  10.235 -0.0521  0.0191 -0.6773
   26MOL0     C 3400   8.259   0.469  10.170  0.3589 -0.1935 -0.4254
   26MOL0     C 3401   8.225   0.589  10.227  0.6098  0.9096  0.5520
   26MOL0     C 3402   8.173   0.690  10.157  0.1261 -1.0043 -0.2903
   26MOL0     C 3403   8.160   0.685  10.020 -1.2427  0.6958 -0.6849
   26MOL0     C 3404   8.108   0.800   9.945  0.5238  1.6864 -0.4669
   26MOL0     O 3405   8.045   0.773   9.825 -0.3021  0.1235 -0.7838
   26MOL0     C 3406   8.026   0.878   9.740 -0.4750  0.1374  0.7825
   26MOL0     C 3407   7.967   0.997   9.764  0.2995 -1.0342 -0.0223
   26MOL0     C 3408   7.952   1.102   9.669  1.0551 -0.6855  0.1910
   26MOL0     C 3409   7.991   1.078   9.537 -0.3470 -0.2751  0.9949
   26MOL0     O 3410   7.960   1.158   9.424 -0.2784  0.6006 -0.4274
   26MOL0     C 3411   7.820   1.196   9.408 -0.1846  0.4357 -0.2211
   26MOL0     C 3412   7.782   1.155   9.270  0.1611  0.7858  0.0409
   26MOL0     C 3413   7.648   1.212   9.231  1.2047  0.2800 -0.1038
   26MOL0     C 3414   7.549   1.258   9.342  0.6595 -1.2934  1.0590
   26MOL0     C 3415   7.430   1.321   9.275  0.4379  0.3163  0.8289
   26MOL0     C 3416   7.314   1.349   9.376 -0.0423 -0.3208  1.0208
   26MOL0     C 3417   7.214   1.451   9.323 -0.1786 -0.6996  0.7017
   26MOL0     C 3418   7.258   1.594   9.292 -0.1903  0.8082  0.5277
   26MOL0    Cl 3419   7.351   1.663   9.429  0.4010 -0.2181 -0.3228
   26MOL0     C 3420   8.047   0.955   9.505  0.2723  0.4012 -0.0658
   26MOL0     C 3421   8.069   0.855   9.603  0.2521 -0.0533  0.5463
   26MOL0     O 3422   8.119   0.908  10.005  0.1928  0.2083  0.1674
   26MOL0     C 3423   8.193   0.565   9.953 -0.9977  0.5583  0.1104
   26MOL0     C 3424   8.250   0.465  10.027 -0.7025  0.0404  0.4650
   26MOL0     N 3425   8.270   0.147  10.750 -0.9592  0.3216  0.2638
   26MOL0     N 3426   8.300   0.103  10.868 -0.2556  0.7985 -0.1692
   26MOL0     C 3427   9.259   0.123  11.223  0.2042  0.6249 -0.5409
   26MOL0     C 3428   9.399   0.120  11.234  0.4369  0.5527 -0.5923
   26MOL0     C 3429   9.798   0.335  11.304  0.2138  1.4364  0.3431
   26MOL0     C 3430   9.871   0.318  11.419  0.9175  0.1283  0.1720
   26MOL0     C 3431  10.006   0.343  11.436  0.1882 -0.7584 -0.2935
   26MOL0     C 3432  10.077   0.390  11.329  0.6121  0.0999  0.5297
   26MOL0     O 3433  10.207   0.427  11.335 -0.1804 -0.5238 -0.3688
   26MOL0     C 3434  10.231   0.560  11.378  0.2968  0.1976  0.1949
   26MOL0     C 3435  10.318   0.555  11.502  0.5564 -0.4611  0.1665
   26MOL0     C 3436  10.394   0.687  11.544  0.5119 -0.0450  0.0536
   26MOL0     C 3437  10.523   0.656  11.623  0.6249 -0.4502 -0.0339
   26MOL0     C 3438  10.581   0.778  11.668 -0.2383 -0.1518 -0.9193
   26MOL0     C 3439  10.644   0.863  11.730 -1.0279 -0.2482 -0.4147
   26MOL0     C 3440  10.012   0.405  11.200  0.4535 -0.2228 -0.6529
   26MOL0     C 3441   9.881   0.382  11.193  0.8566 -0.3715  0.6387
   26MOL0     C 3442   9.814   0.415  11.066  0.3681 -0.4480 -0.1566
   26MOL0     H 3443   9.452   0.436  11.112 -1.5746 -0.2436 -0.7704
   26MOL0     H 3444   9.198   0.404  11.067 -2.6936 -1.4318  0.3577
   26MOL0     H 3445   9.012   0.128  11.335  1.9736 -0.6120 -1.9747
   26MOL0     H 3446   8.960   0.301  11.305 -0.8635  1.3210 -2.9554
   26MOL0     H 3447   8.778   0.228  11.166 -0.0302 -1.6015 -2.6189
   26MOL0     H 3448   8.768   0.159  11.327 -3.0595  1.2444 -2.2775
   26MOL0     H 3449   8.853  -0.069  11.229  0.9352 -1.8286 -2.5218
   26MOL0     H 3450   8.871   0.022  11.074  0.4246  0.5404 -0.1736
   26MOL0     H 3451   8.599   0.044  11.195 -2.2864 -3.2496 -0.1791
   26MOL0     H 3452   8.646   0.055  11.029  3.1162 -1.1069 -1.2141
   26MOL0     H 3453   8.717  -0.186  11.054 -0.2684 -0.2481 -1.2381
   26MOL0     H 3454   8.629  -0.187  11.206 -1.1396 -0.9116 -1.3234
   26MOL0     H 3455   8.524  -0.108  10.930 -1.6032 -1.4512 -0.2993
   26MOL0     H 3456   8.507  -0.267  10.996 -1.4195 -0.3055 -0.0644
   26MOL0     H 3457   8.372  -0.016  11.129 -2.5578  1.8583 -4.0257
   26MOL0     H 3458   8.351  -0.193  11.164  1.9931 -1.6332 -1.3094
   26MOL0     H 3459   8.244  -0.222  10.968  0.7027 -0.3834  2.2899
   26MOL0     H 3460   8.169  -0.092  11.049 -0.7907 -2.7600 -0.9115
   26MOL0     H 3461   8.151  -0.156  10.720  0.8214  1.0062 -3.8025
   26MOL0     H 3462   8.184  -0.064  10.488 -2.5679  0.0714 -0.2226
   26MOL0     H 3463   8.090   0.079  10.526 -0.4261  0.4191  3.5002
   26MOL0     H 3464   8.398   0.081  10.453  0.1092  0.5961  3.4574
   26MOL0     H 3465   8.276   0.094  10.331 -1.3856  1.0201 -0.3423
   26MOL0     H 3466   8.346   0.290  10.562  0.3689  0.5039  0.4624
   26MOL0     H 3467   8.189   0.302  10.496 -0.5258 -2.0523  2.5678
   26MOL0     H 3468   8.458   0.333  10.356 -0.1726 -1.0640 -2.6653
   26MOL0     H 3469   8.353   0.464  10.402  1.0640  0.3394 -0.0166
   26MOL0     H 3470   8.235   0.602  10.334  2.1082  6.6466  0.0426
   26MOL0     H 3471   8.135   0.774  10.213  0.5212 -0.6877 -0.4939
   26MOL0     H 3472   7.928   1.032   9.859  1.2409 -3.3255  1.3223
   26MOL0     H 3473   7.903   1.199   9.679 -0.1433 -1.1356 -1.0185
   26MOL0     H 3474   7.752   1.142   9.474 -0.3503  0.5978 -0.2602
   26MOL0     H 3475   7.811   1.303   9.428  1.3264  0.1715  2.4327
   26MOL0     H 3476   7.849   1.195   9.192 -0.4594 -2.0715 -2.1387
   26MOL0     H 3477   7.787   1.047   9.255 -1.6839  0.5713  0.7427
   26MOL0     H 3478   7.665   1.302   9.171  1.5265  1.0450  1.0853
   26MOL0     H 3479   7.588   1.139   9.177  0.5158 -0.8600  2.0717
   26MOL0     H 3480   7.600   1.331   9.405  3.3555 -1.6744 -0.5319
   26MOL0     H 3481   7.512   1.178   9.407 -3.3625 -2.0690 -1.8034
   26MOL0     H 3482   7.388   1.259   9.195  1.5960 -1.5423  1.5785
   26MOL0     H 3483   7.462   1.420   9.242 -0.5470  0.4969  0.3718
   26MOL0     H 3484   7.263   1.255   9.401  0.3598 -1.4123 -1.8332
   26MOL0     H 3485   7.349   1.403   9.464 -2.4674  0.9575  1.2911
   26MOL0     H 3486   7.144   1.464   9.406 -2.2898 -1.1195 -0.9248
   26MOL0     H 3487   7.165   1.416   9.232  2.3073 -0.8096 -0.6786
   26MOL0     H 3488   7.318   1.578   9.201 -1.6732 -1.7629 -0.0901
   26MOL0     H 3489   7.175   1.663   9.275  0.3791  1.7725  1.5940
   26MOL0     H 3490   8.076   0.941   9.402  1.1092  0.5535  0.1408
   26MOL0     H 3491   8.130   0.766   9.587  0.4343  0.1042  0.3515
   26MOL0     H 3492   8.168   0.544   9.849  1.4651 -0.1636 -0.4026
   26MOL0     H 3493   8.267   0.366   9.985  1.5414  1.3041 -1.9314
   26MOL0     H 3494   9.210   0.047  11.283 -0.7386  2.4091  1.0853
   26MOL0     H 3495   9.441   0.036  11.289 -4.4181  0.0673  3.0424
   26MOL0     H 3496   9.821   0.285  11.510 -2.3740  3.4674 -0.2087
   26MOL0     H 3497  10.059   0.345  11.530 -1.5992 -1.7673  0.7947
   26MOL0     H 3498  10.139   0.606  11.415  0.9610  0.6792  1.3219
   26MOL0     H 3499  10.273   0.625  11.300  2.7958 -4.4360 -2.8197
   26MOL0     H 3500  10.393   0.476  11.492 -0.2205 -1.1952  0.0527
   26MOL0     H 3501  10.256   0.530  11.588  0.1160  1.5841  0.5062
   26MOL0     H 3502  10.330   0.754  11.602 -1.7875 -1.0917 -1.1368
   26MOL0     H 3503  10.414   0.749  11.455 -2.5204  0.3108 -0.5045
   26MOL0     H 3504  10.488   0.583  11.697  1.4033 -1.9128 -1.0574
   26MOL0     H 3505  10.587   0.612  11.546 -0.6571  0.0229 -1.4198
   26MOL0     H 3506  10.697   0.938  11.785  0.5583 -0.9108 -0.9769
   26MOL0     H 3507  10.069   0.442  11.116  3.2510 -1.7128  0.4414
   26MOL0     H 3508   9.705   0.409  11.073  0.1338  2.2292 -0.1524
   26MOL0     H 3509   9.825   0.522  11.044  1.8050 -0.1392  1.8240
   26MOL0     H 3510   9.840   0.344  10.987 -1.2187 -1.6495  0.3713
   27MOL0     O 3511   0.127  10.998   7.031  0.1629  0.5536 -0.2799
   27MOL0     C 3512   0.095  11.104   7.094 -0.2759  0.3502  0.1634
   27MOL0     O 3513   0.069  11.108   7.231 -0.0989  0.1098  0.9168
   27MOL0     C 3514   0.016  10.991   7.275  0.5175 -0.2590  0.5557
   27MOL0     C 3515  -0.116  10.981   7.328  0.1427 -0.2770 -0.1934
   27MOL0     C 3516  -0.152  10.854   7.381  0.0458 -0.5814  0.0208
   27MOL0     C 3517  -0.068  10.745   7.405 -0.6142  0.3218  0.2916
   27MOL0     O 3518  -0.099  10.616   7.444  0.5005 -0.3242  0.3326
   27MOL0     C 3519  -0.198  10.558   7.374 -0.0757 -0.4402  0.5154
   27MOL0     C 3520  -0.144  10.431   7.312 -1.0717 -0.2625 -0.1749
   27MOL0     C 3521  -0.097  10.322   7.405 -0.6990  0.0784  0.3867
   27MOL0     C 3522  -0.114  10.186   7.362  1.1151  0.5132  0.7679
   27MOL0     C 3523  -0.049  10.090   7.458 -0.7660 -0.0723 -0.0314
   27MOL0     C 3524  -0.065   9.949   7.409  0.1082  0.0014  0.0964
   27MOL0     C 3525  -0.023   9.839   7.493 -0.3001  0.9181  0.3620
   27MOL0     C 3526   0.139   9.836   7.494  0.5795 -0.0363 -0.4385
   27MOL0     N 3527   0.169   9.733   7.597  0.5467 -0.4173 -0.3904
   27MOL0     C 3528   0.231   9.775   7.711 -0.1191  0.2295  0.5506
   27MOL0     C 3529   0.246   9.656   7.777 -0.4374 -0.1992  0.0042
   27MOL0     C 3530   0.288   9.619   7.912 -0.0910 -0.3051  0.2570
   27MOL0     C 3531   0.412   9.701   7.956  0.1219  0.4787 -0.5506
   27MOL0     C 3532   0.516   9.620   8.034 -0.0952  0.1545 -0.1902
   27MOL0     C 3533   0.607   9.724   8.106 -0.1561  0.7354  0.5680
   27MOL0     O 3534   0.565   9.775   8.233 -0.4909 -0.2075 -0.8863
   27MOL0     C 3535   0.576   9.913   8.248 -0.2494 -0.0782 -0.3386
   27MOL0     C 3536   0.539  10.019   8.160  0.2112  0.6190 -0.0473
   27MOL0     C 3537   0.548  10.145   8.213 -0.4958 -0.2517  0.3404
   27MOL0     C 3538   0.598  10.176   8.343 -0.8992 -0.2610 -0.7295
   27MOL0     C 3539   0.596  10.312   8.393 -0.0183  0.1022  0.2026
   27MOL0     O 3540   0.520  10.393   8.317  0.4586 -0.6157 -0.1284
   27MOL0     C 3541   0.475  10.507   8.358 -0.3676  0.0405  0.5269
   27MOL0     C 3542   0.512  10.590   8.469  0.1095 -0.0865  1.3010
   27MOL0     C 3543   0.454  10.717   8.486  0.4279  1.4159  0.3007
   27MOL0     C 3544   0.341  10.755   8.409  0.2188 -0.5902 -0.0906
   27MOL0     O 3545   0.279  10.873   8.446  0.0393  0.2093  1.1203
   27MOL0     C 3546   0.153  10.915   8.378 -0.6169  0.3591  0.5746
   27MOL0     C 3547   0.133  11.059   8.424 -0.0762 -0.5939  0.7540
   27MOL0     C 3548   0.237  11.166   8.373 -0.2261  1.5280  0.1324
   27MOL0     C 3549   0.206  11.216   8.234 -0.2302  0.2520  0.0598
   27MOL0     C 3550   0.325  11.279   8.151  0.1873 -0.2760 -0.3852
   27MOL0     C 3551   0.282  11.352   8.017  0.4203  0.5692 -0.1342
   27MOL0     C 3552   0.191  11.475   8.047  0.6591  0.5979 -1.0342
   27MOL0     C 3553   0.184  11.563   7.917  0.0212 -0.1391 -0.1226
   27MOL0    Cl 3554   0.076  11.712   7.956 -0.6227  0.4496  0.5977
   27MOL0     C 3555   0.290  10.664   8.321 -0.4541  0.1729 -0.6809
   27MOL0     C 3556   0.362  10.543   8.291 -0.3364 -0.6359  0.8985
   27MOL0     O 3557   0.647  10.342   8.499 -0.1877 -0.8779 -0.3629
   27MOL0     C 3558   0.640  10.066   8.423 -0.1405  1.0109 -0.5833
   27MOL0     C 3559   0.621   9.936   8.380 -0.1656 -0.9079 -0.2654
   27MOL0     N 3560   0.210   9.553   7.688 -0.4491 -0.5599 -0.2748
   27MOL0     N 3561   0.178   9.602   7.575  0.2079  0.4625  0.9691
   27MOL0     C 3562   0.063  10.760   7.347 -0.4158 -0.1600 -0.1416
   27MOL0     C 3563   0.097  10.884   7.288  0.0218  0.5074  0.1084
   27MOL0     C 3564   0.135  11.228   7.023  0.2122  0.2925 -0.1888
   27MOL0     C 3565   0.204  11.336   7.090  0.4094  0.2783 -0.6880
   27MOL0     C 3566   0.241  11.445   7.016 -0.2537 -0.1448 -1.2545
   27MOL0     C 3567   0.222  11.457   6.882  0.5230 -0.1520  0.1489
   27MOL0     O 3568   0.280  11.559   6.808 -0.0369  0.6128  0.4560
   27MOL0     C 3569   0.268  11.564   6.674  0.7134 -0.6812 -0.0297
   27MOL0     C 3570   0.348  11.449   6.616 -0.2540 -0.7422 -0.2312
   27MOL0     C 3571   0.378  11.483   6.464  0.4970 -0.5734 -0.5832
   27MOL0     C 3572   0.253  11.495   6.372  0.4545  0.6949  0.6736
   27MOL0     C 3573   0.247  11.643   6.342 -0.1386 -0.2715 -0.9148
   27MOL0     C 3574   0.219  11.747   6.292 -0.8315 -0.1027  0.3941
   27MOL0     C 3575   0.128  11.368   6.829 -0.8869 -0.0463  0.3406
   27MOL0     C 3576   0.091  11.248   6.891 -1.1188  0.3064  0.3874
   27MOL0     C 3577   0.019  11.153   6.801 -0.4575 -0.3742 -0.0768
   27MOL0     H 3578  -0.190  11.056   7.301  3.3132  3.8694  1.4486
   27MOL0     H 3579  -0.256  10.835   7.407 -0.3916 -1.0497 -1.9100
   27MOL0     H 3580  -0.283  10.535   7.440 -0.1102  1.4315  1.1793
   27MOL0     H 3581  -0.242  10.611   7.289 -0.3114 -0.2219  0.7743
   27MOL0     H 3582  -0.052  10.460   7.262 -1.7897  1.3442 -0.6400
   27MOL0     H 3583  -0.210  10.388   7.235  0.0870 -1.1936 -0.6775
   27MOL0     H 3584  -0.142  10.342   7.503 -3.1869  1.6106 -0.9438
   27MOL0     H 3585   0.012  10.333   7.407 -0.5483 -0.6107 -1.3750
   27MOL0     H 3586  -0.219  10.159   7.353  0.9460  1.7512 -1.8427
   27MOL0     H 3587  -0.068  10.182   7.263  0.8155  4.1475  0.3312
   27MOL0     H 3588   0.056  10.120   7.457 -0.6491 -0.0454  2.8221
   27MOL0     H 3589  -0.106  10.092   7.552  0.1009 -0.5160  0.5263
   27MOL0     H 3590  -0.173   9.940   7.393  0.1572 -0.9484  0.2585
   27MOL0     H 3591  -0.011   9.941   7.314  0.2622 -0.7383  0.2448
   27MOL0     H 3592  -0.059   9.748   7.445 -0.4530  0.0198  2.0996
   27MOL0     H 3593  -0.067   9.854   7.592 -0.0539  1.4015  0.3989
   27MOL0     H 3594   0.174   9.808   7.394  2.6587  1.9708 -0.3389
   27MOL0     H 3595   0.177   9.931   7.533  1.0651 -0.1683 -0.5817
   27MOL0     H 3596   0.270   9.875   7.731 -0.2508  1.0132 -2.6290
   27MOL0     H 3597   0.202   9.643   7.975 -0.9710  2.4489 -1.7965
   27MOL0     H 3598   0.314   9.513   7.910 -0.2699 -0.3359 -0.5856
   27MOL0     H 3599   0.463   9.745   7.869  1.3852  1.3502  0.6013
   27MOL0     H 3600   0.381   9.788   8.015  1.5828  1.6323 -1.4124
   27MOL0     H 3601   0.559   9.538   7.975  0.0083 -1.3364  1.8370
   27MOL0     H 3602   0.464   9.576   8.120 -1.1195 -0.0103 -0.8701
   27MOL0     H 3603   0.630   9.798   8.029  2.9844  0.0582  0.7380
   27MOL0     H 3604   0.709   9.687   8.121 -0.8082 -0.6557  1.7472
   27MOL0     H 3605   0.521   9.993   8.056  3.1048  1.4489 -0.8667
   27MOL0     H 3606   0.514  10.221   8.144 -1.8647  0.0407  1.2797
   27MOL0     H 3607   0.606  10.571   8.521  0.0179  1.5502  2.1061
   27MOL0     H 3608   0.491  10.776   8.570 -0.2471  0.6692  1.1440
   27MOL0     H 3609   0.166  10.920   8.270  1.6448  1.7778  0.8541
   27MOL0     H 3610   0.075  10.845   8.410 -0.6483  0.7956  1.4811
   27MOL0     H 3611   0.037  11.109   8.407  0.1724 -0.5476 -0.7116
   27MOL0     H 3612   0.160  11.045   8.529  2.9885 -0.6185  0.0761
   27MOL0     H 3613   0.243  11.242   8.451  2.2492  1.0896  0.4540
   27MOL0     H 3614   0.336  11.123   8.354 -2.1658 -2.1744 -3.2604
   27MOL0     H 3615   0.120  11.282   8.244 -1.0412 -0.6711 -0.6049
   27MOL0     H 3616   0.176  11.130   8.174 -4.2669  2.2969 -1.2263
   27MOL0     H 3617   0.390  11.196   8.124  0.9233 -0.0043  0.5179
   27MOL0     H 3618   0.384  11.353   8.205 -0.9770 -1.6708  3.0994
   27MOL0     H 3619   0.368  11.393   7.963  0.4075 -0.8822 -1.3253
   27MOL0     H 3620   0.245  11.273   7.951  2.8037  0.8156 -1.9342
   27MOL0     H 3621   0.229  11.527   8.135 -3.5013  3.5405 -0.6907
   27MOL0     H 3622   0.090  11.440   8.069  0.8827  1.3993  1.5812
   27MOL0     H 3623   0.287  11.580   7.884  0.1068  0.8906  0.6462
   27MOL0     H 3624   0.139  11.516   7.829  3.4307 -3.2803 -0.4472
   27MOL0     H 3625   0.191  10.672   8.277 -0.6286 -2.4449 -0.9293
   27MOL0     H 3626   0.328  10.473   8.216 -0.8652 -0.0770  0.6043
   27MOL0     H 3627   0.692  10.082   8.517 -3.7712  0.0293  1.7627
   27MOL0     H 3628   0.649   9.858   8.449 -0.3345 -0.5863  0.1711
   27MOL0     H 3629   0.130  10.675   7.345 -1.3861 -0.9906  0.8756
   27MOL0     H 3630   0.196  10.888   7.243  0.3912 -1.8283  0.5745
   27MOL0     H 3631   0.238  11.326   7.192  2.8642  1.4428 -1.3205
   27MOL0     H 3632   0.306  11.515   7.066 -0.0468 -1.1350 -0.0960
   27MOL0     H 3633   0.311  11.654   6.628  0.3240 -0.4957 -0.0291
   27MOL0     H 3634   0.161  11.554   6.657 -0.0086  1.2606  2.7003
   27MOL0     H 3635   0.303  11.349   6.622 -2.3823  0.0981 -1.0785
   27MOL0     H 3636   0.444  11.430   6.664  0.8044  1.4587 -1.3624
   27MOL0     H 3637   0.437  11.400   6.424 -0.0307 -1.6366  0.7744
   27MOL0     H 3638   0.431  11.579   6.458 -2.5025  1.1869 -0.6530
   27MOL0     H 3639   0.271  11.453   6.273 -1.6935  0.9051  0.1637
   27MOL0     H 3640   0.164  11.446   6.411 -1.8859  4.5412  0.6275
   27MOL0     H 3641   0.189  11.836   6.240 -2.8616 -0.9097  0.0676
   27MOL0     H 3642   0.091  11.377   6.728  0.0815 -0.0192 -0.0263
   27MOL0     H 3643   0.077  11.061   6.794  1.1478  0.5915 -0.1145
   27MOL0     H 3644  -0.084  11.145   6.835 -0.5203  1.3241  0.2464
   27MOL0     H 3645   0.005  11.191   6.699 -0.6831  3.0731  1.1138
   28MOL0     O 3646   7.319   0.299   6.457 -0.1389  0.5266 -0.2587
   28MOL0     C 3647   7.367   0.409   6.482 -0.0167 -0.0080  0.0587
   28MOL0     O 3648   7.421   0.498   6.390 -0.4877 -0.2595 -0.1099
   28MOL0     C 3649   7.447   0.466   6.259 -0.2003 -1.0302  1.0466
   28MOL0     C 3650   7.456   0.576   6.172  0.2859  0.0542 -0.0807
   28MOL0     C 3651   7.496   0.553   6.042  0.6879 -0.0465 -0.6626
   28MOL0     C 3652   7.525   0.423   5.992  0.6684  0.2369  0.0499
   28MOL0     O 3653   7.546   0.407   5.859 -0.0590  0.0876  0.2053
   28MOL0     C 3654   7.654   0.330   5.814 -0.2380  1.0738 -0.0777
   28MOL0     C 3655   7.695   0.352   5.672  0.0798  0.4989  0.7284
   28MOL0     C 3656   7.708   0.218   5.597  0.1112  0.0003  0.3711
   28MOL0     C 3657   7.754   0.247   5.455  0.0119  0.6189 -0.3363
   28MOL0     C 3658   7.825   0.141   5.379  1.1127  0.0760 -0.0022
   28MOL0     C 3659   7.956   0.111   5.436 -0.3819  0.1666 -0.3520
   28MOL0     C 3660   7.998  -0.035   5.397 -0.6313  0.4116 -0.2128
   28MOL0     C 3661   7.946  -0.152   5.495 -1.3324 -0.7391  0.4605
   28MOL0     N 3662   8.012  -0.270   5.441 -0.5909 -1.0966 -0.3605
   28MOL0     C 3663   8.139  -0.322   5.476  0.4374 -0.0376 -0.2397
   28MOL0     C 3664   8.154  -0.420   5.391 -0.5499  0.7141  0.2724
   28MOL0     C 3665   8.282  -0.500   5.382  0.1860  0.8359  0.8472
   28MOL0     C 3666   8.306  -0.599   5.500  0.2273 -0.0364  0.1481
   28MOL0     C 3667   8.418  -0.697   5.493 -0.0157 -0.3470 -0.4833
   28MOL0     C 3668   8.541  -0.624   5.449  0.0122 -0.4571 -0.0861
   28MOL0     O 3669   8.657  -0.694   5.490  0.9637 -0.0903  0.4440
   28MOL0     C 3670   8.686  -0.821   5.437 -0.8983  0.7611 -0.0044
   28MOL0     C 3671   8.668  -0.853   5.306 -0.7355 -0.4953  0.2544
   28MOL0     C 3672   8.705  -0.988   5.267  0.5476 -0.6747  0.0543
   28MOL0     C 3673   8.761  -1.078   5.359 -0.8571 -0.2660 -0.8146
   28MOL0     C 3674   8.805  -1.218   5.309  0.2988  0.0656  0.5590
   28MOL0     O 3675   8.912  -1.289   5.360 -0.0852 -0.2925 -0.0090
   28MOL0     C 3676   8.949  -1.413   5.294 -0.4198  0.8391 -0.0419
   28MOL0     C 3677   8.951  -1.447   5.162  0.2600 -0.2449 -0.3140
   28MOL0     C 3678   9.015  -1.561   5.111  0.3303  0.4646 -0.0869
   28MOL0     C 3679   9.084  -1.645   5.201 -0.2972 -0.7167  1.1223
   28MOL0     O 3680   9.170  -1.736   5.142 -0.1230 -0.0816 -0.3862
   28MOL0     C 3681   9.302  -1.747   5.205  0.3407 -0.1014  0.8596
   28MOL0     C 3682   9.341  -1.889   5.189 -1.2533 -0.4822  0.5606
   28MOL0     C 3683   9.300  -1.982   5.309 -0.1650  0.5300 -0.6019
   28MOL0     C 3684   9.143  -2.016   5.303 -0.7996  0.0028  0.4708
   28MOL0     C 3685   9.103  -2.119   5.412  1.0610 -0.3561  0.0507
   28MOL0     C 3686   8.962  -2.167   5.386 -0.0442  0.0119  0.5944
   28MOL0     C 3687   8.966  -2.308   5.323 -0.5231  1.0365  0.0522
   28MOL0     C 3688   8.993  -2.325   5.173  0.7397  0.4536 -0.7872
   28MOL0    Cl 3689   9.003  -2.494   5.132  0.0123  0.2713 -0.0990
   28MOL0     C 3690   9.084  -1.612   5.337 -0.4731  0.4045 -0.2816
   28MOL0     C 3691   9.011  -1.509   5.390  0.8549  0.8213 -0.0771
   28MOL0     O 3692   8.732  -1.259   5.218  0.0385  0.3920  0.0542
   28MOL0     C 3693   8.773  -1.046   5.493  0.0150 -0.0829  0.5029
   28MOL0     C 3694   8.755  -0.912   5.526  0.2668 -0.0732  0.2787
   28MOL0     N 3695   8.041  -0.433   5.300 -0.0950 -0.7940  0.1817
   28MOL0     N 3696   7.963  -0.333   5.328  0.3395 -0.1466  0.2368
   28MOL0     C 3697   7.530   0.321   6.078 -1.4000  0.8409  0.7941
   28MOL0     C 3698   7.487   0.336   6.207  0.7185 -1.0321  0.6591
   28MOL0     C 3699   7.334   0.456   6.618 -0.5323 -1.0932  0.4675
   28MOL0     C 3700   7.325   0.595   6.640 -0.3402  0.4880 -1.1488
   28MOL0     C 3701   7.293   0.644   6.770  0.2620  1.0850 -0.0304
   28MOL0     C 3702   7.260   0.552   6.866  0.4403  0.6101 -0.3508
   28MOL0     O 3703   7.217   0.596   6.992 -0.0207 -0.1555  0.5117
   28MOL0     C 3704   7.319   0.623   7.086  0.5748  0.0304 -0.0890
   28MOL0     C 3705   7.347   0.489   7.171 -0.0691 -0.2947  0.5024
   28MOL0     C 3706   7.231   0.454   7.265 -0.3481  0.8773  0.5037
   28MOL0     C 3707   7.233   0.315   7.327 -0.1424 -0.3725 -0.4132
   28MOL0     C 3708   7.216   0.193   7.231 -0.2629 -0.8143  0.3660
   28MOL0     C 3709   7.217   0.097   7.171 -0.4279  0.6666  0.4118
   28MOL0     C 3710   7.274   0.416   6.850  0.5074 -0.0102 -0.8058
   28MOL0     C 3711   7.323   0.364   6.723  0.3175 -0.1934  0.2065
   28MOL0     C 3712   7.331   0.212   6.722  0.1749  0.0022  0.4705
   28MOL0     H 3713   7.424   0.677   6.195  1.3965  0.0056  1.8620
   28MOL0     H 3714   7.490   0.640   5.977  0.0498  2.1098  2.1086
   28MOL0     H 3715   7.741   0.338   5.880 -0.7720 -0.1903  0.8432
   28MOL0     H 3716   7.606   0.232   5.824  1.5234 -0.0325 -1.8163
   28MOL0     H 3717   7.790   0.406   5.678 -0.2226  1.1630 -0.2614
   28MOL0     H 3718   7.627   0.426   5.629 -2.3437 -1.1674  1.4917
   28MOL0     H 3719   7.613   0.164   5.588 -0.5615  1.4872 -3.5235
   28MOL0     H 3720   7.786   0.152   5.637  2.0883  0.9324 -1.6991
   28MOL0     H 3721   7.660   0.258   5.399 -0.8805 -0.3291  0.9148
   28MOL0     H 3722   7.812   0.340   5.452 -0.1624  0.7104 -1.5783
   28MOL0     H 3723   7.763   0.051   5.379  0.1890  0.6731  1.7958
   28MOL0     H 3724   7.835   0.180   5.277 -0.3350  2.5403  0.7099
   28MOL0     H 3725   8.024   0.185   5.393  1.0343  0.9454  2.9180
   28MOL0     H 3726   7.970   0.125   5.544  0.3441 -0.4024 -0.3604
   28MOL0     H 3727   8.107  -0.029   5.393 -0.6019 -0.7323 -3.0250
   28MOL0     H 3728   7.961  -0.065   5.299  1.4550 -3.5649  0.0284
   28MOL0     H 3729   7.963  -0.144   5.602  0.4383  0.7535  0.1320
   28MOL0     H 3730   7.837  -0.159   5.488 -1.3058 -1.4234  0.6708
   28MOL0     H 3731   8.208  -0.284   5.550  0.9270  0.8177 -1.1171
   28MOL0     H 3732   8.269  -0.574   5.303  1.5264 -0.1865  1.5383
   28MOL0     H 3733   8.352  -0.417   5.366  0.1122  0.8889  0.8004
   28MOL0     H 3734   8.315  -0.554   5.599 -2.5128 -1.0450  0.9609
   28MOL0     H 3735   8.217  -0.663   5.510  1.6836 -1.8272  3.2773
   28MOL0     H 3736   8.388  -0.758   5.407  0.1860  0.3449 -1.0546
   28MOL0     H 3737   8.420  -0.761   5.581  1.0695  0.1980 -0.0853
   28MOL0     H 3738   8.529  -0.532   5.505 -0.6833 -2.1504  2.7230
   28MOL0     H 3739   8.527  -0.607   5.342 -1.2670  0.7756  0.2559
   28MOL0     H 3740   8.635  -0.786   5.227 -2.5546 -0.2327  1.1747
   28MOL0     H 3741   8.691  -1.008   5.161  0.3206 -2.4833  0.3882
   28MOL0     H 3742   8.890  -1.385   5.098 -0.6790 -0.0382  0.7432
   28MOL0     H 3743   9.012  -1.580   5.004 -0.4637  0.9667 -0.1622
   28MOL0     H 3744   9.369  -1.679   5.151  0.9422 -1.1541  0.2238
   28MOL0     H 3745   9.325  -1.726   5.310 -3.1363 -0.2809  1.7771
   28MOL0     H 3746   9.296  -1.921   5.094 -3.8480  0.6220  1.3261
   28MOL0     H 3747   9.450  -1.897   5.178 -1.5177 -1.4369 -2.2000
   28MOL0     H 3748   9.364  -2.069   5.294  3.7165  3.0890 -0.1443
   28MOL0     H 3749   9.325  -1.927   5.400 -0.6428  0.6545 -0.5437
   28MOL0     H 3750   9.122  -2.032   5.197  2.9892  3.1565 -0.9810
   28MOL0     H 3751   9.092  -1.921   5.325  0.6475  0.6114  1.3374
   28MOL0     H 3752   9.111  -2.074   5.512 -0.1971  0.2272 -0.0916
   28MOL0     H 3753   9.180  -2.195   5.428  0.7909 -0.4319  1.1134
   28MOL0     H 3754   8.907  -2.174   5.480  0.2128  2.7024  1.0326
   28MOL0     H 3755   8.903  -2.102   5.322  0.5463 -0.1686 -0.1493
   28MOL0     H 3756   8.868  -2.342   5.358  0.4796 -2.1457  0.0810
   28MOL0     H 3757   9.031  -2.375   5.379 -2.0758  0.5782  1.3778
   28MOL0     H 3758   8.919  -2.273   5.112  0.6675  0.3485 -0.7886
   28MOL0     H 3759   9.092  -2.283   5.153  0.8533  1.7913  2.0552
   28MOL0     H 3760   9.140  -1.676   5.404 -1.3156 -0.4224 -0.3503
   28MOL0     H 3761   9.011  -1.485   5.496 -2.6591  1.5305 -0.1186
   28MOL0     H 3762   8.808  -1.118   5.566  2.9866  2.0407  1.3194
   28MOL0     H 3763   8.751  -0.895   5.633 -3.4593 -3.6729  0.9301
   28MOL0     H 3764   7.549   0.217   6.052 -4.7206 -0.4170  2.7357
   28MOL0     H 3765   7.482   0.251   6.275  1.3926 -3.2520 -1.8546
   28MOL0     H 3766   7.347   0.668   6.562 -0.0213  1.1457 -0.4634
   28MOL0     H 3767   7.303   0.746   6.805 -0.2428  0.7535  1.0940
   28MOL0     H 3768   7.273   0.699   7.150 -1.4867 -2.6964  1.9235
   28MOL0     H 3769   7.409   0.656   7.035  0.6925 -0.9410 -0.5329
   28MOL0     H 3770   7.429   0.508   7.241  2.7643 -3.3583 -1.7177
   28MOL0     H 3771   7.375   0.397   7.119  3.0317  0.9746 -0.2693
   28MOL0     H 3772   7.152   0.477   7.193 -0.1503  0.9577  0.3097
   28MOL0     H 3773   7.211   0.532   7.339  0.0231  0.5318  0.9691
   28MOL0     H 3774   7.326   0.306   7.382  0.5162  4.1974 -0.4152
   28MOL0     H 3775   7.153   0.312   7.401 -0.0743  0.4520 -0.2935
   28MOL0     H 3776   7.202   0.006   7.117  0.0398  0.3441  0.8167
   28MOL0     H 3777   7.237   0.346   6.924 -0.6299  0.2696 -1.0823
   28MOL0     H 3778   7.424   0.181   6.676 -0.3698 -1.1955  0.1424
   28MOL0     H 3779   7.319   0.168   6.822 -2.6269  0.3866  0.3937
   28MOL0     H 3780   7.246   0.178   6.662 -0.0782  0.1871  0.7209
   29MOL0     O 3781   8.040  11.473   9.392  0.2510 -0.8611  0.0541
   29MOL0     C 3782   7.979  11.458   9.289  0.1855  0.2957  0.1467
   29MOL0     O 3783   7.953  11.343   9.230  0.3209 -0.0098 -0.1004
   29MOL0     C 3784   8.035  11.235   9.254 -0.4959  0.0647 -0.1926
   29MOL0     C 3785   8.037  11.174   9.372  0.6622  0.5500  0.4431
   29MOL0     C 3786   8.116  11.057   9.378 -0.7933 -0.6028 -0.1018
   29MOL0     C 3787   8.181  11.007   9.266 -0.4186  0.3470  0.0076
   29MOL0     O 3788   8.250  10.885   9.268 -0.7586  0.4986 -0.7328
   29MOL0     C 3789   8.266  10.819   9.401  0.0337 -0.6893 -0.6262
   29MOL0     C 3790   8.349  10.699   9.376 -0.5848  1.6056 -0.2766
   29MOL0     C 3791   8.370  10.607   9.501  0.2769  0.2318  0.0618
   29MOL0     C 3792   8.444  10.475   9.465  0.0160  0.3924  0.5421
   29MOL0     C 3793   8.586  10.499   9.434 -0.5605  0.6334  0.2412
   29MOL0     C 3794   8.665  10.511   9.561  0.1016  1.0573  0.6937
   29MOL0     C 3795   8.820  10.514   9.532 -0.4296 -0.2841  0.0359
   29MOL0     C 3796   8.917  10.528   9.648  0.4014 -0.1729 -0.4541
   29MOL0     N 3797   9.045  10.563   9.593  0.6594 -0.2029 -1.0351
   29MOL0     C 3798   9.124  10.477   9.515 -0.8039 -0.4722 -0.0452
   29MOL0     C 3799   9.233  10.545   9.491 -0.9391  0.4710  0.3626
   29MOL0     C 3800   9.348  10.502   9.410  0.7001 -0.6814 -0.2331
   29MOL0     C 3801   9.326  10.525   9.264 -0.4111  0.0516  0.9084
   29MOL0     C 3802   9.431  10.444   9.179  0.4209 -0.0993 -0.2349
   29MOL0     C 3803   9.584  10.480   9.213 -1.0515  1.3008  0.2676
   29MOL0     O 3804   9.676  10.442   9.115  0.6180 -0.6168 -0.7002
   29MOL0     C 3805   9.747  10.536   9.058 -0.1230 -0.9417  0.1375
   29MOL0     C 3806   9.848  10.598   9.121 -0.1193  0.5147  0.3963
   29MOL0     C 3807   9.910  10.712   9.066 -0.2019  0.5789  0.6716
   29MOL0     C 3808   9.865  10.774   8.942  0.3445 -0.9689  0.3565
   29MOL0     C 3809   9.922  10.889   8.888  0.4056 -0.4853 -0.4041
   29MOL0     O 3810   9.861  10.949   8.778  0.2831  0.2377  0.7481
   29MOL0     C 3811   9.902  11.078   8.753  0.4039  0.3145 -0.0504
   29MOL0     C 3812   9.929  11.108   8.617 -0.7726 -0.3070  1.0664
   29MOL0     C 3813   9.969  11.236   8.578  0.4783  0.6380 -0.0555
   29MOL0     C 3814   9.992  11.334   8.679 -0.8221  0.7714  1.5712
   29MOL0     O 3815  10.022  11.459   8.624  0.2690  0.4602 -0.8399
   29MOL0     C 3816  10.082  11.551   8.715  0.4900 -0.0889  0.9375
   29MOL0     C 3817  10.227  11.510   8.747 -0.1338  0.2878 -0.0497
   29MOL0     C 3818  10.323  11.496   8.623 -0.0795  0.0949 -0.7057
   29MOL0     C 3819  10.457  11.420   8.657  0.3981  1.2516 -0.3711
   29MOL0     C 3820  10.550  11.431   8.527  0.7851 -0.3205 -0.4595
   29MOL0     C 3821  10.672  11.334   8.518 -0.2343 -0.6816  0.3983
   29MOL0     C 3822  10.776  11.350   8.632 -0.1235 -0.1344  0.5518
   29MOL0     C 3823  10.915  11.291   8.599 -0.2987 -0.4152 -0.0701
   29MOL0    Cl 3824  11.001  11.237   8.748  0.3247  0.1608  0.6574
   29MOL0     C 3825   9.970  11.297   8.809  0.0443  0.8274  0.1367
   29MOL0     C 3826   9.915  11.177   8.846 -0.5542 -1.0217 -0.7055
   29MOL0     O 3827  10.015  10.940   8.948  0.6791  0.5036  0.3696
   29MOL0     C 3828   9.750  10.715   8.886 -0.7750  0.2599  0.1982
   29MOL0     C 3829   9.697  10.590   8.936 -0.1139 -0.3726 -0.3503
   29MOL0     N 3830   9.242  10.665   9.555  0.4080  0.0022  0.4837
   29MOL0     N 3831   9.123  10.679   9.613  0.1327 -0.9607  0.1998
   29MOL0     C 3832   8.163  11.064   9.138  0.0817  0.3029 -0.1265
   29MOL0     C 3833   8.091  11.182   9.141  0.6257 -0.2344 -0.4026
   29MOL0     C 3834   7.902  11.572   9.252  0.8646 -0.3196 -0.0406
   29MOL0     C 3835   7.785  11.601   9.324 -0.2305  0.4968 -0.0966
   29MOL0     C 3836   7.695  11.694   9.277  0.3354 -0.5843  0.6268
   29MOL0     C 3837   7.719  11.766   9.161 -0.6302  0.0850  0.2493
   29MOL0     O 3838   7.623  11.845   9.105  0.6096  0.2752 -0.8210
   29MOL0     C 3839   7.614  11.965   9.176  0.1805 -0.2434  0.1483
   29MOL0     C 3840   7.530  12.064   9.090  0.6309  0.2196 -0.9706
   29MOL0     C 3841   7.476  12.185   9.169 -0.3153 -0.2125  0.2262
   29MOL0     C 3842   7.386  12.276   9.092 -0.3156  0.0540  0.4081
   29MOL0     C 3843   7.323  12.390   9.163  0.0170 -0.5418  0.0290
   29MOL0     C 3844   7.274  12.483   9.220 -0.1706 -1.5477 -0.0060
   29MOL0     C 3845   7.839  11.741   9.094  0.1914 -0.0875  0.3023
   29MOL0     C 3846   7.923  11.645   9.132  0.0761  0.6296 -1.0228
   29MOL0     C 3847   8.042  11.594   9.057  0.2793  0.1591  0.2085
   29MOL0     H 3848   7.970  11.197   9.455  0.2888 -0.7715  0.5383
   29MOL0     H 3849   8.135  11.012   9.475  4.0264  4.6805  1.9658
   29MOL0     H 3850   8.315  10.883   9.474  0.3023 -2.0200  0.3939
   29MOL0     H 3851   8.171  10.785   9.443  1.4664 -4.1806  0.1670
   29MOL0     H 3852   8.445  10.733   9.335 -0.8219  2.0793 -0.4356
   29MOL0     H 3853   8.298  10.651   9.292 -2.6103  0.7379  1.3711
   29MOL0     H 3854   8.278  10.574   9.551  0.8595  0.1538  1.1078
   29MOL0     H 3855   8.420  10.670   9.575 -0.4318  0.5220  0.3063
   29MOL0     H 3856   8.439  10.401   9.546 -0.1457  0.2605  0.4130
   29MOL0     H 3857   8.391  10.442   9.375  0.2554  0.7885  0.2547
   29MOL0     H 3858   8.613  10.416   9.368  0.0540 -1.4981  2.9746
   29MOL0     H 3859   8.599  10.591   9.376 -2.0943  1.4157  1.0779
   29MOL0     H 3860   8.630  10.603   9.608 -1.2516 -0.1099  2.0532
   29MOL0     H 3861   8.652  10.425   9.627  0.9941  0.9769  0.7762
   29MOL0     H 3862   8.839  10.595   9.460  0.2258 -1.8642 -1.6585
   29MOL0     H 3863   8.856  10.431   9.469 -0.6487  1.5358 -2.6800
   29MOL0     H 3864   8.894  10.604   9.723 -0.1476  0.9022 -1.6564
   29MOL0     H 3865   8.917  10.425   9.685 -1.1452 -1.6849 -4.1047
   29MOL0     H 3866   9.087  10.384   9.474  1.9698 -0.8484 -1.9124
   29MOL0     H 3867   9.444  10.538   9.448 -0.8317  2.6361  0.9081
   29MOL0     H 3868   9.354  10.395   9.430  3.6565 -0.7620 -1.1682
   29MOL0     H 3869   9.227  10.494   9.232  0.1055 -2.1190  1.2392
   29MOL0     H 3870   9.347  10.629   9.238  1.3764 -0.5232 -0.1813
   29MOL0     H 3871   9.405  10.446   9.073 -0.2762 -0.3506 -0.0746
   29MOL0     H 3872   9.411  10.341   9.210 -1.9244  0.7508  1.4031
   29MOL0     H 3873   9.619  10.430   9.304  0.1383 -1.7613 -1.6950
   29MOL0     H 3874   9.577  10.586   9.238  0.5392  0.7404  3.5517
   29MOL0     H 3875   9.894  10.559   9.212  0.0921 -3.3065 -1.1778
   29MOL0     H 3876   9.997  10.749   9.119 -1.1194  0.9938  1.9226
   29MOL0     H 3877   9.929  11.029   8.542 -1.4585 -0.4256  1.1848
   29MOL0     H 3878   9.991  11.261   8.475  3.4631  2.2033  0.8403
   29MOL0     H 3879  10.082  11.638   8.650  1.8783  0.1206  1.1777
   29MOL0     H 3880  10.026  11.563   8.808  1.1314  0.9169  1.2152
   29MOL0     H 3881  10.266  11.579   8.823 -1.4780  1.3923 -0.3377
   29MOL0     H 3882  10.225  11.408   8.787  1.4504 -0.3774 -1.5597
   29MOL0     H 3883  10.264  11.438   8.552 -0.9018 -1.3468  1.0763
   29MOL0     H 3884  10.352  11.594   8.583  2.5911  0.1141  1.0063
   29MOL0     H 3885  10.440  11.318   8.692 -1.2303  1.8602  0.7465
   29MOL0     H 3886  10.504  11.473   8.740  0.8012  0.6243 -0.1948
   29MOL0     H 3887  10.592  11.532   8.520  1.1897 -0.1554  3.0202
   29MOL0     H 3888  10.489  11.426   8.435  0.4698 -1.6420 -0.1932
   29MOL0     H 3889  10.648  11.227   8.522 -2.5717 -0.1826  0.9754
   29MOL0     H 3890  10.724  11.353   8.423 -0.2531 -1.6616  0.1783
   29MOL0     H 3891  10.735  11.300   8.720  1.0233 -1.2569  0.4783
   29MOL0     H 3892  10.792  11.456   8.652 -0.2549 -0.3545  1.8821
   29MOL0     H 3893  10.908  11.206   8.530  1.6658 -0.2205 -0.5567
   29MOL0     H 3894  10.975  11.366   8.548 -0.7533  0.8748  1.2047
   29MOL0     H 3895   9.975  11.376   8.883 -0.0528  0.4299  0.5724
   29MOL0     H 3896   9.887  11.154   8.949 -2.6763 -0.8548 -1.1887
   29MOL0     H 3897   9.710  10.751   8.791  0.5149 -1.7384 -1.1581
   29MOL0     H 3898   9.601  10.563   8.892 -0.0637 -0.3650 -0.4662
   29MOL0     H 3899   8.225  11.033   9.054 -0.5243 -1.1259 -0.0898
   29MOL0     H 3900   8.083  11.247   9.054  2.6727  0.5877 -0.0165
   29MOL0     H 3901   7.767  11.558   9.422 -1.5825  1.2103 -0.0143
   29MOL0     H 3902   7.615  11.724   9.344  0.7607 -3.3702  2.5348
   29MOL0     H 3903   7.716  12.002   9.191  0.4302 -1.6825  2.4714
   29MOL0     H 3904   7.561  11.947   9.270  0.6891 -1.2478  0.2519
   29MOL0     H 3905   7.442  12.009   9.054  0.1031 -0.4719  1.1892
   29MOL0     H 3906   7.588  12.104   9.007 -1.1265  1.3774 -1.7048
   29MOL0     H 3907   7.556  12.253   9.202 -0.7531  2.6019 -3.8234
   29MOL0     H 3908   7.417  12.151   9.254  0.9956 -0.2236  1.1742
   29MOL0     H 3909   7.441  12.319   9.009 -1.6914 -0.3702 -0.7661
   29MOL0     H 3910   7.313  12.217   9.036  3.0356 -2.8969 -1.2564
   29MOL0     H 3911   7.244  12.570   9.275  1.8044 -1.6691  1.3531
   29MOL0     H 3912   7.858  11.792   9.000  1.5319 -2.1250 -0.6127
   29MOL0     H 3913   8.131  11.603   9.121  1.3399 -0.6450 -1.0922
   29MOL0     H 3914   8.037  11.487   9.032 -4.4383  0.0947  0.6415
   29MOL0     H 3915   8.059  11.658   8.970 -0.3592  0.0118 -0.0299
   30MOL0     O 3916   5.035  10.612   3.149  0.3042 -0.1576 -0.2933
   30MOL0     C 3917   5.013  10.528   3.061  0.1941  0.5950 -0.4412
   30MOL0     O 3918   5.011  10.400   3.081 -1.0134  0.1257  0.8139
   30MOL0     C 3919   5.098  10.344   3.173  0.0090 -0.1594 -1.0515
   30MOL0     C 3920   5.051  10.265   3.279 -0.2815  0.0029 -0.0718
   30MOL0     C 3921   5.144  10.201   3.363  0.1173  0.5125 -0.3739
   30MOL0     C 3922   5.284  10.237   3.365 -0.1949 -0.9651  0.4947
   30MOL0     O 3923   5.372  10.174   3.450  0.4646  0.1077  0.5362
   30MOL0     C 3924   5.368  10.027   3.452  0.0005 -0.2184  0.0523
   30MOL0     C 3925   5.447   9.962   3.583 -0.1055  0.8085  0.3255
   30MOL0     C 3926   5.427   9.815   3.592 -0.5725 -0.5407 -0.5461
   30MOL0     C 3927   5.504   9.752   3.710  0.2205 -0.1773  1.6086
   30MOL0     C 3928   5.434   9.779   3.850  0.3267 -1.1264  0.0080
   30MOL0     C 3929   5.445   9.647   3.938 -0.3401  0.0287 -0.5349
   30MOL0     C 3930   5.587   9.665   4.002 -0.7034 -0.2208 -0.4861
   30MOL0     C 3931   5.673   9.537   4.011  1.0962  0.4116  0.4439
   30MOL0     N 3932   5.604   9.437   4.100 -0.5951  0.4731  0.5950
   30MOL0     C 3933   5.578   9.298   4.081  1.0075 -0.9631 -0.7184
   30MOL0     C 3934   5.560   9.245   4.205 -0.0235  0.1942 -0.2878
   30MOL0     C 3935   5.520   9.102   4.238 -0.8035  0.0411  0.1760
   30MOL0     C 3936   5.613   9.038   4.342  0.6615  0.2892  0.5432
   30MOL0     C 3937   5.741   8.992   4.286 -0.8822  0.7479 -0.2542
   30MOL0     C 3938   5.849   8.956   4.390  0.7351  0.2842 -0.0319
   30MOL0     O 3939   5.910   9.064   4.446 -0.3388  0.9306  0.4773
   30MOL0     C 3940   6.045   9.042   4.460  0.0328 -0.4165  0.3009
   30MOL0     C 3941   6.127   9.154   4.438 -1.0878 -0.0852 -0.4691
   30MOL0     C 3942   6.268   9.137   4.466  0.8658 -0.6930 -0.6189
   30MOL0     C 3943   6.317   9.019   4.517 -0.4863  1.2685 -0.7900
   30MOL0     C 3944   6.458   9.014   4.551 -1.1692  0.2899 -0.4742
   30MOL0     O 3945   6.553   9.109   4.493 -0.1994  0.6036 -0.5726
   30MOL0     C 3946   6.684   9.111   4.535 -0.1143  0.3257  0.6436
   30MOL0     C 3947   6.726   9.228   4.593  0.2937  0.4164 -1.0350
   30MOL0     C 3948   6.865   9.242   4.619  0.0981 -0.7045  0.0474
   30MOL0     C 3949   6.958   9.136   4.610 -0.2802  1.1800  0.2795
   30MOL0     O 3950   7.097   9.164   4.630  0.0584 -0.4459  0.1077
   30MOL0     C 3951   7.141   9.199   4.759 -0.1643 -0.9882 -1.2085
   30MOL0     C 3952   7.189   9.345   4.763 -0.6624  0.2297  0.3771
   30MOL0     C 3953   7.280   9.385   4.875 -0.7829  0.8748  0.8289
   30MOL0     C 3954   7.217   9.408   5.014 -1.5045  0.9936 -0.0232
   30MOL0     C 3955   7.327   9.447   5.112  0.4353 -1.1501 -0.3937
   30MOL0     C 3956   7.243   9.461   5.239  0.2006 -0.1511 -0.3692
   30MOL0     C 3957   7.324   9.520   5.352  0.4827  0.5268 -1.0086
   30MOL0     C 3958   7.366   9.407   5.456 -0.4524  0.4456  1.1178
   30MOL0    Cl 3959   7.454   9.263   5.390 -0.4858  0.2239  0.5456
   30MOL0     C 3960   6.910   9.011   4.566  0.5070 -0.3919 -0.7778
   30MOL0     C 3961   6.776   9.001   4.521 -0.2534 -0.2639 -0.1357
   30MOL0     O 3962   6.488   8.936   4.636  0.1234 -0.0510  0.4520
   30MOL0     C 3963   6.236   8.912   4.549  0.2124  0.8221 -0.6315
   30MOL0     C 3964   6.098   8.927   4.515  0.1693  0.2336  0.4016
   30MOL0     N 3965   5.592   9.344   4.298 -0.0812  0.0282  0.4341
   30MOL0     N 3966   5.628   9.448   4.234  0.5188  0.4565  0.0492
   30MOL0     C 3967   5.321  10.340   3.275 -0.1610  0.3710  0.0801
   30MOL0     C 3968   5.231  10.390   3.177  0.5818 -0.4917 -0.1811
   30MOL0     C 3969   4.961  10.571   2.926 -0.2311  0.4225 -0.1831
   30MOL0     C 3970   5.038  10.643   2.841 -0.7162 -0.8254  0.5505
   30MOL0     C 3971   4.987  10.709   2.725  0.4559 -0.2956 -0.4059
   30MOL0     C 3972   4.845  10.691   2.688 -1.0240  0.1627 -0.5660
   30MOL0     O 3973   4.799  10.750   2.577 -1.0765 -0.4828  0.2446
   30MOL0     C 3974   4.835  10.680   2.457 -0.3507 -0.9300 -0.1752
   30MOL0     C 3975   4.723  10.694   2.339 -0.6365  0.0857 -0.0857
   30MOL0     C 3976   4.683  10.838   2.321 -0.0704  1.5181 -0.2957
   30MOL0     C 3977   4.637  10.874   2.179 -0.2964  0.8198 -0.1044
   30MOL0     C 3978   4.599  11.018   2.186 -0.0203 -0.0838 -1.0081
   30MOL0     C 3979   4.568  11.139   2.204 -0.3497  0.0483 -0.1665
   30MOL0     C 3980   4.773  10.607   2.764  0.1473  0.1424  0.8201
   30MOL0     C 3981   4.821  10.564   2.888 -0.8550  0.1853 -1.0392
   30MOL0     C 3982   4.743  10.494   2.975  0.4723  0.4974  0.0010
   30MOL0     H 3983   4.946  10.255   3.301 -0.5965 -2.1825 -2.1428
   30MOL0     H 3984   5.104  10.134   3.439  3.1549  1.0395  1.8905
   30MOL0     H 3985   5.267   9.989   3.471 -1.2943  3.0552  0.3973
   30MOL0     H 3986   5.408   9.998   3.354 -2.7158  1.9636 -1.9135
   30MOL0     H 3987   5.419  10.006   3.679 -0.0419  5.1700 -1.4246
   30MOL0     H 3988   5.553   9.988   3.578 -0.4905  2.2204 -1.3823
   30MOL0     H 3989   5.484   9.767   3.513 -0.6395 -3.4577  1.0442
   30MOL0     H 3990   5.321   9.788   3.581 -0.9760  1.1357 -1.0889
   30MOL0     H 3991   5.494   9.644   3.695  0.0102  0.1357 -0.9896
   30MOL0     H 3992   5.611   9.772   3.703  0.5998 -2.3089  0.1306
   30MOL0     H 3993   5.469   9.869   3.900 -2.8083  0.3496 -0.1892
   30MOL0     H 3994   5.330   9.796   3.819  1.1012  2.8812 -0.8720
   30MOL0     H 3995   5.373   9.638   4.020  0.7561 -1.4921  0.3317
   30MOL0     H 3996   5.429   9.558   3.876  3.3512  0.0163 -1.7295
   30MOL0     H 3997   5.569   9.707   4.102 -3.2889  1.3049 -1.4878
   30MOL0     H 3998   5.640   9.735   3.937 -1.1446 -0.7310 -1.4092
   30MOL0     H 3999   5.680   9.496   3.910  2.2471 -0.5282  0.8893
   30MOL0     H 4000   5.773   9.562   4.046  2.7311 -1.4043 -2.5405
   30MOL0     H 4001   5.565   9.245   3.987 -4.3934 -3.0715  0.8456
   30MOL0     H 4002   5.420   9.111   4.282 -0.2263 -2.4338  2.2369
   30MOL0     H 4003   5.508   9.048   4.144 -3.1265  0.7882 -0.0143
   30MOL0     H 4004   5.630   9.093   4.436  0.1054  0.0873  0.7616
   30MOL0     H 4005   5.564   8.947   4.376  0.8983 -0.3538 -0.8001
   30MOL0     H 4006   5.785   9.062   4.215  1.2316 -1.9175 -1.7726
   30MOL0     H 4007   5.716   8.900   4.232 -0.8192 -0.9342  2.3777
   30MOL0     H 4008   5.914   8.878   4.348 -2.3392 -2.0887 -0.7954
   30MOL0     H 4009   5.813   8.899   4.476  1.4024  1.4673  1.0486
   30MOL0     H 4010   6.087   9.240   4.385 -0.6946  1.7133  1.9478
   30MOL0     H 4011   6.335   9.214   4.430 -0.6879  0.4200 -1.2304
   30MOL0     H 4012   6.670   9.319   4.612  0.1249 -0.0972  1.1357
   30MOL0     H 4013   6.899   9.340   4.652 -1.9500 -0.2902  1.0639
   30MOL0     H 4014   7.059   9.193   4.831 -0.5000 -1.2307 -1.6122
   30MOL0     H 4015   7.225   9.134   4.783 -1.0096 -1.9383 -0.7961
   30MOL0     H 4016   7.238   9.369   4.669 -0.5277 -0.9429  0.1403
   30MOL0     H 4017   7.103   9.414   4.767 -0.9544  0.0276 -1.6358
   30MOL0     H 4018   7.361   9.313   4.891 -1.3684 -0.0406 -0.1522
   30MOL0     H 4019   7.334   9.476   4.848  0.3738 -0.3296 -1.2015
   30MOL0     H 4020   7.166   9.317   5.048 -2.3246  0.7759 -1.7341
   30MOL0     H 4021   7.147   9.491   5.007 -1.0765  1.3637  0.1004
   30MOL0     H 4022   7.366   9.545   5.085 -1.7863 -0.5919 -1.8209
   30MOL0     H 4023   7.400   9.366   5.118 -0.7848 -2.3324 -0.8469
   30MOL0     H 4024   7.150   9.517   5.221  0.0582 -0.9344 -2.3126
   30MOL0     H 4025   7.207   9.360   5.259  2.9140 -0.7612  1.9235
   30MOL0     H 4026   7.260   9.589   5.407 -0.3042 -2.1227  1.6331
   30MOL0     H 4027   7.415   9.569   5.316  1.1617 -1.6911 -2.5758
   30MOL0     H 4028   7.420   9.460   5.535 -0.2942 -0.5678  1.7036
   30MOL0     H 4029   7.283   9.365   5.513 -1.3790  0.0842 -0.4364
   30MOL0     H 4030   6.983   8.934   4.543  0.4088 -1.9105  3.2434
   30MOL0     H 4031   6.737   8.903   4.495  1.4966 -1.7980  2.4774
   30MOL0     H 4032   6.276   8.820   4.590  1.3317  0.8808 -1.5318
   30MOL0     H 4033   6.030   8.851   4.551  1.5092  0.4545  3.7865
   30MOL0     H 4034   5.420  10.385   3.263 -0.5926  1.3449  0.0768
   30MOL0     H 4035   5.258  10.467   3.105 -1.6431  0.2945 -0.2434
   30MOL0     H 4036   5.139  10.675   2.863 -0.3935  0.8018 -2.6699
   30MOL0     H 4037   5.047  10.775   2.663  0.2898 -0.6820 -0.9804
   30MOL0     H 4038   4.867  10.577   2.469  0.8989 -0.4781  0.5800
   30MOL0     H 4039   4.934  10.713   2.425  0.8702 -2.9239  1.3806
   30MOL0     H 4040   4.635  10.641   2.377 -1.4513  2.4292  1.5063
   30MOL0     H 4041   4.764  10.663   2.243  0.1838 -1.1787  0.6371
   30MOL0     H 4042   4.766  10.902   2.352 -0.4926  2.7320 -1.5738
   30MOL0     H 4043   4.605  10.858   2.395 -0.6927  0.2989 -0.5857
   30MOL0     H 4044   4.721  10.868   2.110  0.3182 -1.6034  0.7629
   30MOL0     H 4045   4.560  10.805   2.143  2.3471 -1.9785 -0.8549
   30MOL0     H 4046   4.535  11.239   2.224  3.9632  1.5355  0.7162
   30MOL0     H 4047   4.676  10.582   2.722  1.9784 -0.8576 -3.3095
   30MOL0     H 4048   4.640  10.501   2.937  0.7677 -0.7857 -1.0744
   30MOL0     H 4049   4.772  10.389   2.979 -0.9984 -0.1142 -2.7450
   30MOL0     H 4050   4.748  10.539   3.075  2.6703  3.2595 -1.2064
   31MOL0     O 4051   9.671   1.978   0.750  0.0583 -0.6802  0.2241
   31MOL0     C 4052   9.559   1.937   0.722  0.5810  0.8555  0.2193
   31MOL0     O 4053   9.445   1.995   0.741 -0.6633 -0.2650 -0.7089
   31MOL0     C 4054   9.440   2.117   0.804 -0.0262  0.6703  0.1821
   31MOL0     C 4055   9.345   2.147   0.891  0.0593  0.8916  0.8169
   31MOL0     C 4056   9.322   2.271   0.946  0.1580 -0.0145  0.1280
   31MOL0     C 4057   9.400   2.369   0.906  0.1818 -0.6244 -0.0481
   31MOL0     O 4058   9.378   2.504   0.938  0.1424  0.0359 -0.6213
   31MOL0     C 4059   9.260   2.576   0.901  0.0785  0.1300 -0.5081
   31MOL0     C 4060   9.272   2.721   0.900  0.6240 -1.2487 -0.6650
   31MOL0     C 4061   9.355   2.787   1.012  1.0421  0.3464 -0.1274
   31MOL0     C 4062   9.380   2.937   0.969  0.4362 -0.6793  0.0622
   31MOL0     C 4063   9.450   3.039   1.060  0.9070 -0.0514 -1.4781
   31MOL0     C 4064   9.592   2.995   1.091  1.0099 -0.9584 -0.5625
   31MOL0     C 4065   9.648   3.036   1.222  0.5469  0.1226  0.0514
   31MOL0     C 4066   9.619   3.186   1.257  0.2776 -0.2917  0.5447
   31MOL0     N 4067   9.716   3.228   1.364  0.5776 -0.2574 -0.4904
   31MOL0     C 4068   9.684   3.241   1.493 -0.6275 -0.1283 -1.0638
   31MOL0     C 4069   9.801   3.258   1.557 -0.4733 -1.1312  0.4496
   31MOL0     C 4070   9.823   3.286   1.703 -0.7495 -0.2485  0.2981
   31MOL0     C 4071   9.817   3.432   1.758  0.1125  0.2966  0.0602
   31MOL0     C 4072   9.686   3.461   1.807 -0.3834  0.1309 -0.8525
   31MOL0     C 4073   9.578   3.423   1.712 -0.0183  0.3562 -0.4203
   31MOL0     O 4074   9.476   3.519   1.743 -0.4095  0.5507 -0.4102
   31MOL0     C 4075   9.346   3.484   1.737  0.2676  0.2427  0.6482
   31MOL0     C 4076   9.288   3.359   1.684  0.2304  0.6725 -0.9479
   31MOL0     C 4077   9.162   3.328   1.713  0.0206  0.3238  0.4479
   31MOL0     C 4078   9.077   3.420   1.774 -0.4505  0.5997  0.3190
   31MOL0     C 4079   8.942   3.384   1.808 -0.4419  0.3141 -0.1491
   31MOL0     O 4080   8.871   3.481   1.891  0.0200  0.1266 -0.1580
   31MOL0     C 4081   8.741   3.478   1.935 -0.0864 -0.4129  0.6600
   31MOL0     C 4082   8.647   3.382   1.906  0.5024  0.6244 -0.7136
   31MOL0     C 4083   8.524   3.375   1.987 -0.1714 -0.0758  0.0163
   31MOL0     C 4084   8.498   3.470   2.087 -0.1521  0.4269  0.2275
   31MOL0     O 4085   8.374   3.469   2.156 -0.3610  0.2341 -0.5221
   31MOL0     C 4086   8.382   3.514   2.294  0.6405  0.1294  0.1945
   31MOL0     C 4087   8.273   3.436   2.378 -0.3130  0.2455  0.6938
   31MOL0     C 4088   8.358   3.329   2.448 -0.2964 -0.1042 -0.0724
   31MOL0     C 4089   8.290   3.245   2.555 -0.3078  0.9092  0.1144
   31MOL0     C 4090   8.384   3.131   2.603  0.1302 -0.2238 -0.0879
   31MOL0     C 4091   8.508   3.183   2.678 -0.2411 -0.4364 -1.0085
   31MOL0     C 4092   8.630   3.076   2.656  0.0314 -0.1378  0.3617
   31MOL0     C 4093   8.764   3.123   2.722 -0.3151 -0.0899 -0.5104
   31MOL0    Cl 4094   8.740   3.141   2.900  0.6978  0.4910  0.5693
   31MOL0     C 4095   8.592   3.572   2.105 -0.6463 -0.1665  0.5774
   31MOL0     C 4096   8.710   3.577   2.032  0.2627 -0.4783 -0.3906
   31MOL0     O 4097   8.889   3.278   1.760 -0.6255  0.2428  0.3463
   31MOL0     C 4098   9.126   3.549   1.801 -0.4239  0.2076  0.3439
   31MOL0     C 4099   9.260   3.586   1.775  0.9552  0.2174 -0.6957
   31MOL0     N 4100   9.899   3.294   1.461  0.3113 -0.4989 -0.0821
   31MOL0     N 4101   9.842   3.277   1.346 -0.6841 -0.5428 -0.9056
   31MOL0     C 4102   9.512   2.345   0.820 -0.6501  0.3614 -0.4571
   31MOL0     C 4103   9.536   2.218   0.775 -0.0798  0.1476 -0.3986
   31MOL0     C 4104   9.554   1.803   0.642  0.4440  0.1149 -0.4925
   31MOL0     C 4105   9.434   1.789   0.564  0.0565  1.0199  0.2848
   31MOL0     C 4106   9.410   1.661   0.509 -0.2657  0.1246  0.3020
   31MOL0     C 4107   9.497   1.549   0.530  0.4862 -0.4395 -0.0599
   31MOL0     O 4108   9.434   1.436   0.468 -0.6823 -0.0038 -0.1157
   31MOL0     C 4109   9.521   1.324   0.461 -0.8176 -0.7815 -0.0396
   31MOL0     C 4110   9.470   1.195   0.392 -0.4705 -0.5897  0.6167
   31MOL0     C 4111   9.411   1.218   0.248 -0.0248  0.7502 -0.0484
   31MOL0     C 4112   9.516   1.243   0.141  0.1049 -0.6740  0.1135
   31MOL0     C 4113   9.635   1.160   0.154 -0.0603 -0.3912  0.1886
   31MOL0     C 4114   9.739   1.094   0.155  0.2807  0.0313 -0.7074
   31MOL0     C 4115   9.620   1.572   0.604  1.1717  0.3508  0.1252
   31MOL0     C 4116   9.649   1.699   0.669  0.5095  0.0405 -0.9968
   31MOL0     C 4117   9.772   1.723   0.754 -1.1412  0.4382  0.0164
   31MOL0     H 4118   9.276   2.064   0.901 -1.2024  1.7215 -0.5965
   31MOL0     H 4119   9.238   2.293   1.011 -2.6627 -0.4235 -3.0576
   31MOL0     H 4120   9.211   2.545   0.809  0.7378 -2.1598 -0.1599
   31MOL0     H 4121   9.183   2.554   0.975  1.8794 -0.1774  1.3717
   31MOL0     H 4122   9.165   2.742   0.911  0.1812 -2.4753 -2.1564
   31MOL0     H 4123   9.288   2.753   0.797 -1.9011  1.9305 -0.2292
   31MOL0     H 4124   9.446   2.727   1.022  0.7510 -0.3491 -1.3780
   31MOL0     H 4125   9.308   2.790   1.110  0.7133  1.6109 -0.3088
   31MOL0     H 4126   9.437   2.932   0.876 -2.0883 -2.9354 -1.4919
   31MOL0     H 4127   9.289   2.986   0.934  2.0073  2.7549  0.3227
   31MOL0     H 4128   9.449   3.136   1.010  1.8605 -0.3400 -2.0863
   31MOL0     H 4129   9.395   3.038   1.154  0.5227  1.7101 -1.6477
   31MOL0     H 4130   9.608   2.887   1.089  3.4005 -0.6345 -1.1575
   31MOL0     H 4131   9.661   3.038   1.018  1.8146 -1.9240 -0.3865
   31MOL0     H 4132   9.757   3.023   1.216  0.8987  2.4566  0.4225
   31MOL0     H 4133   9.612   2.978   1.308  0.0085 -1.0651 -0.9543
   31MOL0     H 4134   9.627   3.248   1.167  4.0915 -0.1214  0.8140
   31MOL0     H 4135   9.514   3.198   1.286  1.0283  0.2344  3.3776
   31MOL0     H 4136   9.586   3.217   1.532 -1.2697 -0.8193 -2.9721
   31MOL0     H 4137   9.765   3.215   1.762 -1.0943 -0.0023  0.2610
   31MOL0     H 4138   9.926   3.258   1.726 -0.1361  1.8438  0.3336
   31MOL0     H 4139   9.885   3.434   1.844  1.4990  0.3208 -0.9951
   31MOL0     H 4140   9.845   3.506   1.682 -1.3887 -0.9021 -1.7483
   31MOL0     H 4141   9.687   3.570   1.817 -1.5247  0.1947 -1.2915
   31MOL0     H 4142   9.669   3.398   1.895 -0.1935 -0.7905 -1.4605
   31MOL0     H 4143   9.561   3.316   1.729  2.9279  0.1286  2.0129
   31MOL0     H 4144   9.607   3.442   1.608  1.6724  1.1222  0.1518
   31MOL0     H 4145   9.363   3.292   1.644  1.9349  2.7773 -1.4412
   31MOL0     H 4146   9.113   3.234   1.692 -2.3787  1.1216  2.0745
   31MOL0     H 4147   8.664   3.304   1.832  2.9861  1.3307 -0.9896
   31MOL0     H 4148   8.443   3.312   1.952 -0.6713  0.2436  0.5820
   31MOL0     H 4149   8.484   3.510   2.334  1.4260 -2.1181 -1.7846
   31MOL0     H 4150   8.352   3.619   2.298 -2.7116 -0.7438  0.9136
   31MOL0     H 4151   8.215   3.502   2.443 -3.3657  0.4264 -1.9512
   31MOL0     H 4152   8.201   3.400   2.304 -0.0991  1.4348 -0.1219
   31MOL0     H 4153   8.414   3.271   2.374 -1.8658  1.4795 -2.6521
   31MOL0     H 4154   8.426   3.388   2.509  0.9979 -0.4831 -1.0886
   31MOL0     H 4155   8.198   3.200   2.516 -1.2606  3.6481 -1.0375
   31MOL0     H 4156   8.265   3.304   2.643  1.8606  1.0143  0.7145
   31MOL0     H 4157   8.420   3.089   2.509  2.6765  1.4888  0.0314
   31MOL0     H 4158   8.336   3.047   2.654 -1.6407 -0.0923 -1.4082
   31MOL0     H 4159   8.551   3.279   2.645 -0.0666 -0.4121 -0.7084
   31MOL0     H 4160   8.486   3.201   2.783  1.5511 -0.5618 -0.5837
   31MOL0     H 4161   8.653   3.073   2.549 -1.1032  2.0027  0.0046
   31MOL0     H 4162   8.604   2.978   2.696 -0.3984 -0.8150 -1.4984
   31MOL0     H 4163   8.846   3.052   2.714 -1.0195 -1.2206  1.6281
   31MOL0     H 4164   8.806   3.218   2.687  2.0088  0.0305  2.2415
   31MOL0     H 4165   8.564   3.650   2.176 -1.5446 -0.8722  1.0198
   31MOL0     H 4166   8.765   3.670   2.042 -0.2942 -0.3140  1.9213
   31MOL0     H 4167   9.069   3.632   1.840 -1.5230  0.3126 -1.3862
   31MOL0     H 4168   9.287   3.686   1.807 -2.5306  1.0664  0.0679
   31MOL0     H 4169   9.576   2.428   0.795 -2.8308  2.3974  0.3567
   31MOL0     H 4170   9.627   2.209   0.717  0.7027 -0.8967  0.9215
   31MOL0     H 4171   9.358   1.865   0.551 -1.5844 -0.8850 -2.0023
   31MOL0     H 4172   9.316   1.634   0.464  0.3508 -3.4751  0.8438
   31MOL0     H 4173   9.557   1.299   0.561 -1.6129  1.9080  0.9982
   31MOL0     H 4174   9.603   1.357   0.397  0.9420 -1.8163  1.5598
   31MOL0     H 4175   9.382   1.164   0.450 -0.6550  0.7658  1.0968
   31MOL0     H 4176   9.548   1.119   0.406 -0.4579 -0.4219  1.4972
   31MOL0     H 4177   9.344   1.304   0.253 -3.5509 -1.5122 -3.0662
   31MOL0     H 4178   9.352   1.132   0.213  2.7283 -0.0406 -3.2601
   31MOL0     H 4179   9.478   1.228   0.039 -0.9873 -1.0009  0.5507
   31MOL0     H 4180   9.556   1.344   0.151  0.2379 -0.9699  3.9889
   31MOL0     H 4181   9.819   1.024   0.167 -0.5673 -0.6140  1.8672
   31MOL0     H 4182   9.690   1.491   0.624  1.0468 -0.0265 -0.8899
   31MOL0     H 4183   9.839   1.802   0.721  1.8105 -1.8812  0.0258
   31MOL0     H 4184   9.759   1.729   0.862 -0.7768  0.1971  0.0742
   31MOL0     H 4185   9.839   1.636   0.755  0.5180  1.6222 -1.5756
   32MOL0     O 4186   2.888   6.597   7.290 -0.1032  0.1987 -0.4150
   32MOL0     C 4187   2.954   6.561   7.192  0.2434  0.1792  0.5899
   32MOL0     O 4188   2.907   6.570   7.065 -0.0219  1.2317 -0.1240
   32MOL0     C 4189   2.783   6.620   7.028  0.6782 -0.3722 -0.9833
   32MOL0     C 4190   2.710   6.719   7.093  0.2670 -0.1686 -0.7781
   32MOL0     C 4191   2.582   6.752   7.048  0.1982 -0.0229  0.8556
   32MOL0     C 4192   2.520   6.686   6.936 -0.4323  0.0113 -0.1715
   32MOL0     O 4193   2.399   6.708   6.898 -0.1612  0.1584  0.6513
   32MOL0     C 4194   2.343   6.645   6.779  0.5769 -0.3874  0.1270
   32MOL0     C 4195   2.322   6.501   6.802 -0.1153 -0.7696  0.3536
   32MOL0     C 4196   2.177   6.463   6.849 -0.4656 -0.2192  0.1951
   32MOL0     C 4197   2.058   6.492   6.758 -0.3101 -1.0149 -0.8203
   32MOL0     C 4198   2.062   6.412   6.630  0.0680 -0.0435 -0.5055
   32MOL0     C 4199   1.951   6.465   6.532 -0.8459  0.9962  0.2835
   32MOL0     C 4200   2.011   6.555   6.422  0.0169  0.3521  1.3651
   32MOL0     C 4201   1.899   6.607   6.337  0.4543  0.0413 -0.3311
   32MOL0     N 4202   1.949   6.709   6.240 -0.5320 -0.2671 -0.6066
   32MOL0     C 4203   1.950   6.842   6.247  0.5171 -1.0831 -0.4608
   32MOL0     C 4204   2.006   6.886   6.130  0.0073  0.6891 -0.0338
   32MOL0     C 4205   2.033   7.025   6.080  0.1262  0.0096 -0.0980
   32MOL0     C 4206   2.157   7.088   6.139 -0.8491  0.6347 -0.6008
   32MOL0     C 4207   2.222   7.189   6.043  0.3011  0.0690  0.1260
   32MOL0     C 4208   2.361   7.226   6.092  0.2565  0.1165 -0.5630
   32MOL0     O 4209   2.336   7.266   6.226 -0.7459  0.0120  0.2378
   32MOL0     C 4210   2.444   7.309   6.297 -1.5987  0.7843  0.1192
   32MOL0     C 4211   2.559   7.233   6.302  0.5887 -0.0283 -1.1097
   32MOL0     C 4212   2.672   7.266   6.375 -0.2597 -0.1058  0.6721
   32MOL0     C 4213   2.679   7.387   6.449  0.4458  0.5184 -0.1915
   32MOL0     C 4214   2.820   7.443   6.499 -0.0058  0.2126  0.0133
   32MOL0     O 4215   2.915   7.347   6.521  0.0853 -0.5268  0.3200
   32MOL0     C 4216   3.043   7.379   6.564 -0.3626  0.4615 -0.2225
   32MOL0     C 4217   3.078   7.448   6.672  0.5530  0.1691 -0.6511
   32MOL0     C 4218   3.210   7.492   6.699 -0.0624  0.3248  0.2533
   32MOL0     C 4219   3.318   7.450   6.612  0.0818  0.2648  0.0959
   32MOL0     O 4220   3.458   7.464   6.635 -1.0180  0.1912 -0.3584
   32MOL0     C 4221   3.509   7.566   6.731  0.1005 -0.0471 -0.0959
   32MOL0     C 4222   3.510   7.712   6.678 -1.3559  0.0173 -0.1120
   32MOL0     C 4223   3.541   7.820   6.785 -0.8891 -0.0415 -0.2380
   32MOL0     C 4224   3.665   7.809   6.874 -0.0145 -0.1563 -1.5053
   32MOL0     C 4225   3.690   7.923   6.975  0.3233 -0.3440  0.4463
   32MOL0     C 4226   3.596   7.886   7.089  1.1768 -0.3357  0.5928
   32MOL0     C 4227   3.598   7.996   7.199 -0.6011 -0.1201 -0.1474
   32MOL0     C 4228   3.519   8.125   7.154  0.1822 -0.2399 -0.4830
   32MOL0    Cl 4229   3.343   8.094   7.119  0.6598 -0.0468  0.2914
   32MOL0     C 4230   3.280   7.383   6.494 -0.1700 -0.1749  0.6328
   32MOL0     C 4231   3.144   7.359   6.473 -0.2310  0.0407  0.1986
   32MOL0     O 4232   2.828   7.560   6.516 -0.3368 -0.0796  0.1677
   32MOL0     C 4233   2.559   7.459   6.456 -0.3427 -0.0531 -0.7321
   32MOL0     C 4234   2.444   7.421   6.378 -1.0024  0.2342 -0.1431
   32MOL0     N 4235   2.028   6.772   6.044  0.7032  0.2323 -0.2761
   32MOL0     N 4236   1.979   6.670   6.110 -0.6765 -0.1909 -0.1080
   32MOL0     C 4237   2.602   6.599   6.868 -0.7745 -0.2751 -0.2233
   32MOL0     C 4238   2.733   6.567   6.907  0.4691  0.4763  0.3684
   32MOL0     C 4239   3.096   6.536   7.212  0.7314 -0.3665  0.6312
   32MOL0     C 4240   3.141   6.501   7.339  0.9442  0.5458 -0.4612
   32MOL0     C 4241   3.271   6.482   7.378 -0.7698 -0.4650 -0.2967
   32MOL0     C 4242   3.365   6.496   7.284 -0.7318 -0.2716  0.1729
   32MOL0     O 4243   3.500   6.477   7.303  0.0009 -0.1290 -0.0992
   32MOL0     C 4244   3.553   6.407   7.414  0.7742 -0.0078  0.2149
   32MOL0     C 4245   3.541   6.264   7.374 -0.1372  0.6923 -0.8275
   32MOL0     C 4246   3.665   6.213   7.304 -0.0773  0.3259  0.7660
   32MOL0     C 4247   3.635   6.078   7.229 -0.0292  0.3812  0.1576
   32MOL0     C 4248   3.575   5.982   7.320  0.6949 -0.3755 -0.0050
   32MOL0     C 4249   3.549   5.892   7.391 -0.8879 -0.1993 -0.8646
   32MOL0     C 4250   3.329   6.527   7.150  0.1845 -0.6191 -0.5638
   32MOL0     C 4251   3.198   6.548   7.117  0.2850  0.3783 -0.7912
   32MOL0     C 4252   3.173   6.587   6.969 -0.7062 -0.1174 -0.4237
   32MOL0     H 4253   2.749   6.763   7.184  0.2582  0.7491 -1.2085
   32MOL0     H 4254   2.528   6.825   7.108  1.9633  0.7465  1.5860
   32MOL0     H 4255   2.252   6.693   6.742  1.9796  0.4646 -2.4555
   32MOL0     H 4256   2.409   6.660   6.693 -2.6896 -1.7487 -2.8724
   32MOL0     H 4257   2.387   6.460   6.879 -3.4131 -0.9687  3.2994
   32MOL0     H 4258   2.333   6.440   6.713 -0.4839 -0.4453  0.0803
   32MOL0     H 4259   2.157   6.510   6.946 -1.5819  0.4177 -0.3334
   32MOL0     H 4260   2.168   6.355   6.854 -2.4380 -0.1518 -1.0336
   32MOL0     H 4261   1.973   6.468   6.822  0.8443  4.7620  3.8195
   32MOL0     H 4262   2.062   6.598   6.731 -1.7313 -0.3657  1.2304
   32MOL0     H 4263   2.163   6.415   6.588  1.0800 -4.1086  1.1197
   32MOL0     H 4264   2.034   6.309   6.656 -1.9435  0.0839 -1.9672
   32MOL0     H 4265   1.896   6.390   6.474  1.0180  1.5031 -2.3270
   32MOL0     H 4266   1.882   6.525   6.592 -1.6182  0.2343  0.1705
   32MOL0     H 4267   2.069   6.488   6.358 -0.2728  0.4460  1.0014
   32MOL0     H 4268   2.068   6.638   6.465 -1.3651  2.7679 -1.1198
   32MOL0     H 4269   1.858   6.520   6.284  0.2123 -0.2659  0.3457
   32MOL0     H 4270   1.823   6.667   6.387  1.4131  1.3068 -0.3554
   32MOL0     H 4271   1.905   6.899   6.327  0.8947  0.3922 -1.2603
   32MOL0     H 4272   2.040   7.018   5.971  1.6847 -1.1175  0.0609
   32MOL0     H 4273   1.943   7.084   6.102  0.1116 -0.2312  0.4916
   32MOL0     H 4274   2.125   7.127   6.236  0.1339 -1.7925  0.7817
   32MOL0     H 4275   2.225   7.007   6.167  0.4291  1.6388 -0.7288
   32MOL0     H 4276   2.159   7.278   6.035  1.3081  0.7167 -1.0528
   32MOL0     H 4277   2.233   7.150   5.941  1.2508  2.2165 -0.6714
   32MOL0     H 4278   2.405   7.306   6.031  1.3733 -0.2423 -0.2618
   32MOL0     H 4279   2.436   7.148   6.074  2.5004  2.5926 -2.7737
   32MOL0     H 4280   2.559   7.149   6.232  1.9406  0.5242 -1.8158
   32MOL0     H 4281   2.769   7.220   6.360  0.3976  1.5309 -0.2823
   32MOL0     H 4282   3.009   7.464   6.754  1.2459 -0.7346  0.1209
   32MOL0     H 4283   3.225   7.537   6.796  0.0055  1.5601 -0.3043
   32MOL0     H 4284   3.446   7.548   6.818 -1.5013 -4.3959 -1.8961
   32MOL0     H 4285   3.608   7.536   6.767 -1.6286 -0.9344  4.5952
   32MOL0     H 4286   3.594   7.733   6.611 -2.2119  0.3452 -1.1009
   32MOL0     H 4287   3.424   7.739   6.616 -1.4241 -1.1260 -0.5534
   32MOL0     H 4288   3.548   7.911   6.725  3.4150 -0.3408 -0.4806
   32MOL0     H 4289   3.451   7.814   6.846 -2.1908  1.0493 -1.9531
   32MOL0     H 4290   3.763   7.800   6.827  1.6504 -2.0923  1.9283
   32MOL0     H 4291   3.647   7.713   6.924 -0.9794  0.7816  0.0485
   32MOL0     H 4292   3.665   8.019   6.930  1.2454 -0.7937 -1.1255
   32MOL0     H 4293   3.792   7.925   7.012  1.8309 -1.2818 -3.2235
   32MOL0     H 4294   3.496   7.891   7.042  2.8053  2.2207 -3.1220
   32MOL0     H 4295   3.612   7.791   7.139 -3.0336 -0.1464  2.8053
   32MOL0     H 4296   3.695   8.028   7.238 -1.0582  1.8059 -0.4818
   32MOL0     H 4297   3.549   7.961   7.290 -1.1867 -0.7748 -0.7085
   32MOL0     H 4298   3.512   8.173   7.252  1.0401 -2.0826  0.5444
   32MOL0     H 4299   3.573   8.183   7.080  2.7163  0.6432  1.8720
   32MOL0     H 4300   3.365   7.374   6.427  0.7920  1.8667  1.4801
   32MOL0     H 4301   3.109   7.309   6.383 -0.7564 -3.3895  2.0958
   32MOL0     H 4302   2.544   7.553   6.506 -1.8382  0.3748 -1.9200
   32MOL0     H 4303   2.346   7.468   6.389  0.0856  2.1662  2.6075
   32MOL0     H 4304   2.571   6.547   6.778 -0.3776 -2.4446  0.8459
   32MOL0     H 4305   2.802   6.504   6.852  0.4252  1.1654 -0.4890
   32MOL0     H 4306   3.079   6.483   7.426  0.8981 -1.6817 -0.8943
   32MOL0     H 4307   3.300   6.472   7.482 -1.3555  2.6152  0.2854
   32MOL0     H 4308   3.496   6.411   7.507  0.0545 -2.0453 -0.0772
   32MOL0     H 4309   3.660   6.423   7.432  0.7573 -1.5126  1.9890
   32MOL0     H 4310   3.454   6.257   7.308  0.1425  1.4838 -1.3004
   32MOL0     H 4311   3.533   6.203   7.464  1.8685 -2.0330 -2.3438
   32MOL0     H 4312   3.754   6.204   7.367  0.9982  0.1248 -0.7271
   32MOL0     H 4313   3.691   6.288   7.228  1.2867  0.4573  1.3431
   32MOL0     H 4314   3.577   6.084   7.136  0.4528 -2.2585 -0.3770
   32MOL0     H 4315   3.737   6.048   7.204 -0.1924 -0.6071  0.6292
   32MOL0     H 4316   3.528   5.819   7.467  0.5093  0.3043  0.0284
   32MOL0     H 4317   3.403   6.533   7.071 -1.1748 -0.9255 -1.8946
   32MOL0     H 4318   3.101   6.509   6.941 -2.5378  0.4747  2.2823
   32MOL0     H 4319   3.122   6.684   6.975  0.1250  0.4142 -1.6308
   32MOL0     H 4320   3.265   6.587   6.910  0.9067  0.4749  1.9665
   33MOL0     O 4321   8.119   9.514   7.990 -0.4498  0.1422  0.5984
   33MOL0     C 4322   8.076   9.626   8.020 -1.5503 -0.4736  0.3147
   33MOL0     O 4323   7.972   9.649   8.105 -0.3265 -0.3434  0.1940
   33MOL0     C 4324   7.876   9.555   8.093  0.5719 -0.5668 -0.9103
   33MOL0     C 4325   7.871   9.450   8.176 -0.0644  0.0773 -0.2806
   33MOL0     C 4326   7.760   9.366   8.178 -0.4254 -0.4615 -0.6986
   33MOL0     C 4327   7.657   9.385   8.080 -0.1667  0.5762  0.3929
   33MOL0     O 4328   7.546   9.299   8.080  0.2613 -0.3198 -0.1114
   33MOL0     C 4329   7.520   9.183   8.173  0.1755 -0.0271  0.6603
   33MOL0     C 4330   7.384   9.123   8.127 -1.0488  0.1352 -0.0891
   33MOL0     C 4331   7.274   9.217   8.178 -0.2770  0.7246 -0.9165
   33MOL0     C 4332   7.290   9.270   8.320 -0.3303 -0.6042  0.2430
   33MOL0     C 4333   7.313   9.160   8.420 -0.1872  0.0666 -0.1858
   33MOL0     C 4334   7.198   9.060   8.413 -0.3342 -0.3703  0.2668
   33MOL0     C 4335   7.177   8.977   8.533 -0.1794  0.1398  0.6638
   33MOL0     C 4336   7.195   8.824   8.499 -0.4821 -0.9756 -0.8501
   33MOL0     N 4337   7.209   8.752   8.626  0.6018  0.6064 -0.1160
   33MOL0     C 4338   7.103   8.702   8.692 -0.8374 -0.0347 -0.4361
   33MOL0     C 4339   7.152   8.642   8.810  1.2408  0.1139 -0.1718
   33MOL0     C 4340   7.067   8.579   8.920 -0.0434 -0.1416  0.0898
   33MOL0     C 4341   7.004   8.452   8.861  0.5726 -0.6354 -0.6197
   33MOL0     C 4342   6.970   8.356   8.983 -0.0722  0.2346  0.3640
   33MOL0     C 4343   6.909   8.221   8.939 -0.5678  0.7317  0.2208
   33MOL0     O 4344   6.798   8.240   8.843 -0.2360  0.5004  0.0124
   33MOL0     C 4345   6.678   8.195   8.890  0.3804  1.6490 -0.1818
   33MOL0     C 4346   6.616   8.073   8.846  0.2076  0.2048 -0.2715
   33MOL0     C 4347   6.489   8.040   8.890 -0.3997 -0.3183 -0.5781
   33MOL0     C 4348   6.422   8.120   8.986  0.2273 -0.0156  0.8750
   33MOL0     C 4349   6.283   8.094   9.019  0.2397 -0.7352 -0.7848
   33MOL0     O 4350   6.223   7.975   8.978  0.3999 -0.2236 -0.1167
   33MOL0     C 4351   6.091   7.972   8.934 -0.0720  1.0023  0.0605
   33MOL0     C 4352   6.067   7.902   8.817 -0.3357 -0.3413 -0.4670
   33MOL0     C 4353   5.933   7.889   8.765  0.2258 -0.3950  0.3575
   33MOL0     C 4354   5.821   7.920   8.838  0.1960 -0.7726 -0.2276
   33MOL0     O 4355   5.688   7.906   8.800  0.1777 -0.6397  0.5976
   33MOL0     C 4356   5.638   7.778   8.753 -1.0915 -0.1978 -0.0358
   33MOL0     C 4357   5.530   7.715   8.843  0.3974 -0.1621 -0.1890
   33MOL0     C 4358   5.412   7.816   8.853 -0.1552 -0.1288 -0.1427
   33MOL0     C 4359   5.401   7.866   8.985  0.4800 -0.1826 -0.8381
   33MOL0     C 4360   5.280   7.947   9.031  0.4448  0.0555 -0.0170
   33MOL0     C 4361   5.139   7.910   8.970 -0.8802  0.4252 -0.1369
   33MOL0     C 4362   5.033   8.020   9.000  0.0022  0.7876  0.2795
   33MOL0     C 4363   4.910   8.030   8.925  0.4965  0.0536  0.5627
   33MOL0    Cl 4364   4.794   7.887   8.954 -0.1992  0.1038 -0.6286
   33MOL0     C 4365   5.842   7.990   8.961 -2.0378 -0.5366  0.0395
   33MOL0     C 4366   5.976   8.013   9.010 -0.5214 -0.4252  0.2917
   33MOL0     O 4367   6.225   8.184   9.097  0.6472  1.5802 -0.3059
   33MOL0     C 4368   6.488   8.230   9.033 -0.1228 -0.3495 -0.6967
   33MOL0     C 4369   6.615   8.262   8.997 -0.4550  0.4873  0.0549
   33MOL0     N 4370   7.288   8.675   8.809 -0.0783  0.3496  0.8684
   33MOL0     N 4371   7.320   8.733   8.698  0.4308  0.4144  0.5765
   33MOL0     C 4372   7.668   9.483   7.988  0.2460  0.4656  0.3842
   33MOL0     C 4373   7.776   9.569   7.998 -0.0152  0.1974  0.4351
   33MOL0     C 4374   8.126   9.747   7.948 -0.4252 -0.3651 -0.2295
   33MOL0     C 4375   8.055   9.871   7.966  0.1948  0.5785  0.0938
   33MOL0     C 4376   8.082   9.981   7.886 -0.3676 -0.2622  0.0534
   33MOL0     C 4377   8.185   9.976   7.793 -0.4321  0.0222 -0.5472
   33MOL0     O 4378   8.203  10.077   7.705  0.2185 -0.5589 -0.5108
   33MOL0     C 4379   8.136  10.205   7.708 -0.2885  0.2139  0.3981
   33MOL0     C 4380   8.029  10.206   7.605  0.0590  0.1625  0.1171
   33MOL0     C 4381   8.074  10.251   7.465  0.4448  0.5843  0.2018
   33MOL0     C 4382   7.945  10.263   7.378  0.1847 -0.6496  0.0324
   33MOL0     C 4383   7.854  10.378   7.413 -0.1675 -0.1647 -0.3726
   33MOL0     C 4384   7.750  10.443   7.411 -0.0851  0.0225  0.5948
   33MOL0     C 4385   8.261   9.860   7.786 -0.3640  0.5246  0.4797
   33MOL0     C 4386   8.234   9.748   7.860 -0.0537  0.3900 -0.1801
   33MOL0     C 4387   8.337   9.636   7.829  0.6334  0.1332  0.2994
   33MOL0     H 4388   7.949   9.407   8.237 -2.0145 -0.6050  1.8556
   33MOL0     H 4389   7.767   9.287   8.252  4.0658  0.8717  0.6622
   33MOL0     H 4390   7.597   9.109   8.149  1.1103  0.6659  1.4462
   33MOL0     H 4391   7.528   9.207   8.280 -1.1251 -0.1539  0.8067
   33MOL0     H 4392   7.390   9.021   8.167  0.3932  1.0627  2.2698
   33MOL0     H 4393   7.391   9.125   8.018  0.4290 -2.5319 -0.1391
   33MOL0     H 4394   7.176   9.173   8.158 -0.4502  0.9932 -0.6597
   33MOL0     H 4395   7.284   9.303   8.112  1.4483  2.8483  1.8731
   33MOL0     H 4396   7.368   9.342   8.345  2.6176 -3.8926  1.3309
   33MOL0     H 4397   7.193   9.320   8.330  0.7563  1.4271  1.3060
   33MOL0     H 4398   7.404   9.100   8.412  0.2041  0.7684 -1.1130
   33MOL0     H 4399   7.317   9.221   8.511  0.6725  0.5218 -0.5187
   33MOL0     H 4400   7.113   9.126   8.393  0.5233  0.0851 -2.2738
   33MOL0     H 4401   7.218   8.993   8.329 -1.4025  1.3067 -1.4196
   33MOL0     H 4402   7.074   8.986   8.569 -0.1528 -1.6204  1.3038
   33MOL0     H 4403   7.252   9.016   8.602 -0.9435  2.1920  0.4034
   33MOL0     H 4404   7.098   8.799   8.455 -1.0904  1.4303 -1.0533
   33MOL0     H 4405   7.281   8.818   8.432 -1.6782  2.9617 -3.1085
   33MOL0     H 4406   7.001   8.721   8.661 -1.7728 -1.2646  1.6635
   33MOL0     H 4407   7.135   8.559   9.004  1.5889  0.3021 -1.0797
   33MOL0     H 4408   6.993   8.649   8.958  1.8898  1.3449  1.3138
   33MOL0     H 4409   6.908   8.483   8.818  0.0608 -1.9949 -0.4917
   33MOL0     H 4410   7.068   8.397   8.792  2.9159 -0.1583  1.0532
   33MOL0     H 4411   6.891   8.410   9.035  0.7512 -1.6692  3.9327
   33MOL0     H 4412   7.061   8.332   9.038  1.8759  1.2081 -2.2264
   33MOL0     H 4413   6.882   8.154   9.020  2.9419  0.0461  0.9752
   33MOL0     H 4414   6.985   8.159   8.890  0.7262  3.1801 -1.0893
   33MOL0     H 4415   6.672   8.024   8.767  2.2083  2.4020 -0.3374
   33MOL0     H 4416   6.425   7.965   8.846 -0.8222 -1.5099  1.9144
   33MOL0     H 4417   6.149   7.862   8.759  0.3489 -0.6402  0.6629
   33MOL0     H 4418   5.911   7.842   8.670  1.7696  1.5042 -0.9965
   33MOL0     H 4419   5.607   7.803   8.651  3.2885  1.4414 -1.2112
   33MOL0     H 4420   5.726   7.714   8.757 -0.8440  0.0692 -0.8517
   33MOL0     H 4421   5.497   7.618   8.805  3.3256 -1.0419 -0.7402
   33MOL0     H 4422   5.569   7.693   8.943  1.1102  2.3216  0.1496
   33MOL0     H 4423   5.427   7.888   8.772  1.9337  1.1263  1.2294
   33MOL0     H 4424   5.317   7.770   8.826  0.2747 -0.3064 -1.4328
   33MOL0     H 4425   5.496   7.912   9.015  0.7942  1.8729 -4.4570
   33MOL0     H 4426   5.390   7.771   9.038 -0.6954  0.1724 -0.4175
   33MOL0     H 4427   5.291   8.053   9.003 -1.2874  0.0454 -0.8534
   33MOL0     H 4428   5.265   7.954   9.139 -0.0502  1.6812 -0.1616
   33MOL0     H 4429   5.148   7.890   8.862  1.9953  1.8266 -0.2448
   33MOL0     H 4430   5.113   7.811   9.009  3.0518 -0.6556  0.1832
   33MOL0     H 4431   5.074   8.121   8.988 -1.2245  1.3254  0.4450
   33MOL0     H 4432   5.006   8.002   9.104 -1.8525  1.3092 -0.0686
   33MOL0     H 4433   4.855   8.118   8.958  1.9168  0.5546  1.7393
   33MOL0     H 4434   4.924   8.041   8.817 -2.2074  0.7780  0.2362
   33MOL0     H 4435   5.763   8.004   9.034 -0.5423  0.8760  1.4710
   33MOL0     H 4436   6.003   8.051   9.109 -1.1515  1.2054 -0.1229
   33MOL0     H 4437   6.443   8.301   9.102 -0.1663 -1.8365  0.8737
   33MOL0     H 4438   6.670   8.340   9.048 -0.0515  1.1667 -1.3731
   33MOL0     H 4439   7.599   9.498   7.905  3.5257  4.1494 -2.0668
   33MOL0     H 4440   7.775   9.647   7.923  0.0760 -1.6331 -1.5613
   33MOL0     H 4441   7.979   9.882   8.042  0.4896 -0.7497  0.6002
   33MOL0     H 4442   8.023  10.067   7.916 -2.7071 -2.0650  0.9501
   33MOL0     H 4443   8.213  10.281   7.693 -0.8520  0.5345 -1.0564
   33MOL0     H 4444   8.089  10.239   7.800 -0.6312  1.2679 -0.1566
   33MOL0     H 4445   7.951  10.276   7.639 -3.2485 -3.0631 -0.1685
   33MOL0     H 4446   7.979  10.109   7.596  0.0439  0.0809  0.9651
   33MOL0     H 4447   8.137  10.178   7.413  1.8500  2.0020 -0.1713
   33MOL0     H 4448   8.128  10.346   7.470 -0.9750  1.4859 -0.8800
   33MOL0     H 4449   7.964  10.274   7.271 -0.9051  2.0990  0.0457
   33MOL0     H 4450   7.896  10.167   7.396  0.8332 -1.0195 -0.1120
   33MOL0     H 4451   7.659  10.498   7.405  0.7100  1.4299  0.9917
   33MOL0     H 4452   8.343   9.865   7.715  1.4763  2.9072  2.6119
   33MOL0     H 4453   8.420   9.686   7.779  0.0761  1.4253  0.6289
   33MOL0     H 4454   8.376   9.583   7.917  1.6068 -2.5944 -1.6231
   33MOL0     H 4455   8.283   9.560   7.771 -0.9096  1.7614 -0.4927
   34MOL0     O 4456  11.099   3.886   0.391 -0.0930  0.7156  0.1955
   34MOL0     C 4457  11.122   3.982   0.315  1.1252 -0.2230  0.6909
   34MOL0     O 4458  11.096   4.108   0.341 -0.4848 -0.2929 -0.6812
   34MOL0     C 4459  11.018   4.135   0.448  1.0460 -0.6271 -0.0389
   34MOL0     C 4460  10.897   4.205   0.422  0.7065  1.0467 -0.0775
   34MOL0     C 4461  10.826   4.248   0.538  0.0328  0.1040 -0.4451
   34MOL0     C 4462  10.879   4.249   0.667  0.6319  0.5971  0.7004
   34MOL0     O 4463  10.809   4.291   0.781 -0.0050 -0.6247 -0.2080
   34MOL0     C 4464  10.714   4.400   0.769  0.5472  0.0987 -1.5901
   34MOL0     C 4465  10.664   4.453   0.901  0.6773 -0.1901 -0.0005
   34MOL0     C 4466  10.617   4.328   0.990  0.1520 -0.2640 -0.8708
   34MOL0     C 4467  10.568   4.361   1.131  1.0398  0.4056 -0.4590
   34MOL0     C 4468  10.520   4.226   1.188 -0.5672 -0.0137  0.8493
   34MOL0     C 4469  10.443   4.245   1.322 -0.2466 -0.6058 -0.6084
   34MOL0     C 4470  10.379   4.119   1.384 -0.4094 -0.1522 -0.2803
   34MOL0     C 4471  10.313   4.125   1.523  0.6421 -0.3356  0.3930
   34MOL0     N 4472  10.257   3.999   1.547 -0.1157 -0.1596 -0.6729
   34MOL0     C 4473  10.302   3.890   1.618 -0.0228 -0.2300 -0.6573
   34MOL0     C 4474  10.188   3.821   1.620  0.3003  0.5005 -0.7152
   34MOL0     C 4475  10.177   3.698   1.713 -0.4179  0.5108  0.0377
   34MOL0     C 4476  10.163   3.728   1.866 -0.1942 -0.3045 -0.2214
   34MOL0     C 4477  10.091   3.617   1.936  0.4879  0.6301  0.5431
   34MOL0     C 4478  10.084   3.642   2.085 -0.2512  0.2648  0.3320
   34MOL0     O 4479  10.017   3.541   2.154  0.6620  0.5398  0.6340
   34MOL0     C 4480   9.874   3.530   2.140  0.0957 -0.9327  1.4632
   34MOL0     C 4481   9.796   3.634   2.088 -0.6165  0.4552 -0.1532
   34MOL0     C 4482   9.655   3.628   2.081 -0.3406 -0.8269 -1.4055
   34MOL0     C 4483   9.587   3.517   2.131  0.1416  0.7932 -0.2997
   34MOL0     C 4484   9.440   3.513   2.133 -0.3421 -0.9688 -0.6319
   34MOL0     O 4485   9.381   3.392   2.167 -0.3524  0.7048 -0.4213
   34MOL0     C 4486   9.250   3.373   2.188 -0.6028  0.6387  1.0960
   34MOL0     C 4487   9.211   3.244   2.185 -0.2798 -0.7602 -0.9075
   34MOL0     C 4488   9.078   3.215   2.205  0.6142  0.0761 -0.0333
   34MOL0     C 4489   8.974   3.312   2.219 -0.9881  0.7043 -0.5619
   34MOL0     O 4490   8.841   3.279   2.240 -0.2910 -0.8766 -0.1705
   34MOL0     C 4491   8.783   3.165   2.170 -0.1272 -0.1928 -0.9053
   34MOL0     C 4492   8.671   3.118   2.260 -0.3834  0.3779 -0.1998
   34MOL0     C 4493   8.579   3.002   2.208  0.3738  0.5908  0.4641
   34MOL0     C 4494   8.646   2.873   2.163 -0.9773  0.0477  0.4490
   34MOL0     C 4495   8.620   2.753   2.251 -0.0257 -0.1946  1.5143
   34MOL0     C 4496   8.694   2.741   2.377 -0.4817 -0.1753 -0.5728
   34MOL0     C 4497   8.832   2.670   2.360 -0.5447 -0.2216 -0.5407
   34MOL0     C 4498   8.900   2.643   2.494  0.1194  0.3456 -0.3935
   34MOL0    Cl 4499   8.979   2.787   2.542  0.0718 -0.0061  0.1642
   34MOL0     C 4500   9.020   3.440   2.227  0.3416 -0.4721  0.0782
   34MOL0     C 4501   9.155   3.478   2.200 -0.0695  0.7469 -0.1798
   34MOL0     O 4502   9.380   3.622   2.103 -1.2855  0.0268  0.4989
   34MOL0     C 4503   9.665   3.416   2.186 -0.3465  0.7133 -0.2132
   34MOL0     C 4504   9.803   3.427   2.191 -0.8863 -0.5494 -0.1889
   34MOL0     N 4505  10.087   3.873   1.548 -0.1942  1.0042 -0.5756
   34MOL0     N 4506  10.127   3.988   1.514 -0.0313 -0.1221  0.1667
   34MOL0     C 4507  11.013   4.198   0.686 -0.0356  0.7264 -0.2390
   34MOL0     C 4508  11.067   4.126   0.577 -0.2252  0.4297 -0.6961
   34MOL0     C 4509  11.190   3.946   0.190 -0.5280 -1.6529 -0.2162
   34MOL0     C 4510  11.297   4.025   0.160  0.3310  0.4271  0.2346
   34MOL0     C 4511  11.368   3.995   0.044  0.2869 -1.0347 -1.0718
   34MOL0     C 4512  11.349   3.878  -0.023 -0.4832  0.4636  0.0901
   34MOL0     O 4513  11.444   3.851  -0.117 -0.3766 -0.2030 -0.1476
   34MOL0     C 4514  11.478   3.714  -0.117  0.3475  0.2876 -0.4037
   34MOL0     C 4515  11.626   3.699  -0.144  0.8093  0.7749 -0.3159
   34MOL0     C 4516  11.724   3.777  -0.051 -0.2018 -0.1450 -1.2973
   34MOL0     C 4517  11.868   3.750  -0.089 -0.4240 -0.2514 -0.1661
   34MOL0     C 4518  11.909   3.810  -0.223 -0.0306 -0.2696  0.8069
   34MOL0     C 4519  11.944   3.864  -0.330  0.6131  0.0468  0.2762
   34MOL0     C 4520  11.233   3.808  -0.002 -0.3347 -0.0925 -0.0707
   34MOL0     C 4521  11.156   3.836   0.107  0.6159 -0.2828  0.2439
   34MOL0     C 4522  11.023   3.759   0.131 -0.0492 -0.2042  0.1753
   34MOL0     H 4523  10.865   4.229   0.321  0.5346 -1.7712 -0.7796
   34MOL0     H 4524  10.733   4.299   0.516 -0.7605 -0.0656  2.2059
   34MOL0     H 4525  10.772   4.474   0.714  1.7011 -0.4580 -1.1616
   34MOL0     H 4526  10.628   4.361   0.715  0.6940 -1.8205 -0.5305
   34MOL0     H 4527  10.583   4.521   0.873  0.7910 -0.7270 -1.7288
   34MOL0     H 4528  10.737   4.518   0.950  1.6368 -2.0404  1.1325
   34MOL0     H 4529  10.712   4.274   0.993 -0.0710 -0.6850  2.7754
   34MOL0     H 4530  10.542   4.269   0.937 -0.7574 -0.2332  0.3361
   34MOL0     H 4531  10.651   4.401   1.190  0.7181  0.9640 -0.3753
   34MOL0     H 4532  10.479   4.425   1.127  2.2730  3.1833  5.1838
   34MOL0     H 4533  10.454   4.182   1.113  0.9097  1.7500 -1.6160
   34MOL0     H 4534  10.598   4.150   1.205 -2.0285 -1.4341  1.4751
   34MOL0     H 4535  10.519   4.264   1.398  0.7443 -1.8008 -1.2616
   34MOL0     H 4536  10.373   4.328   1.316 -0.0359 -0.3763  0.0780
   34MOL0     H 4537  10.463   4.049   1.388  0.5201  0.7116 -2.7194
   34MOL0     H 4538  10.307   4.095   1.306 -1.6565  2.3903 -0.0285
   34MOL0     H 4539  10.391   4.155   1.593  2.3473 -2.1636 -0.6097
   34MOL0     H 4540  10.234   4.199   1.533  1.2919  0.4027  0.1927
   34MOL0     H 4541  10.397   3.882   1.670 -0.6606 -0.3021  0.5286
   34MOL0     H 4542  10.095   3.631   1.686  1.7378 -2.3951  0.2597
   34MOL0     H 4543  10.260   3.628   1.703 -0.9320 -0.5733  2.8016
   34MOL0     H 4544  10.266   3.722   1.904 -0.3463 -2.3019  0.0119
   34MOL0     H 4545  10.112   3.820   1.892 -1.7627 -1.7663  2.2467
   34MOL0     H 4546  10.147   3.526   1.911 -0.0924  0.7469 -1.3558
   34MOL0     H 4547   9.991   3.614   1.891  1.4391  1.4384 -1.7748
   34MOL0     H 4548  10.025   3.733   2.098 -1.3700 -0.5942  1.3618
   34MOL0     H 4549  10.180   3.658   2.136  1.7650 -0.3182 -2.9328
   34MOL0     H 4550   9.846   3.726   2.057  0.1634  0.2173  0.3641
   34MOL0     H 4551   9.593   3.712   2.051  1.5322  0.1696 -2.7309
   34MOL0     H 4552   9.282   3.162   2.195  0.2226 -0.1973  0.5033
   34MOL0     H 4553   9.071   3.107   2.217  0.4597  0.2406  1.4545
   34MOL0     H 4554   8.750   3.206   2.074  1.3970  0.4520 -1.1929
   34MOL0     H 4555   8.851   3.081   2.151  0.2538 -1.0480  3.3932
   34MOL0     H 4556   8.724   3.085   2.350  0.2327  0.9117 -0.3607
   34MOL0     H 4557   8.600   3.199   2.277 -2.2399 -1.4540  1.3618
   34MOL0     H 4558   8.518   2.986   2.297 -1.6709  0.8178 -0.8340
   34MOL0     H 4559   8.517   3.047   2.130  2.8158  2.2424 -0.6699
   34MOL0     H 4560   8.755   2.885   2.165 -0.3677 -4.0661  1.9692
   34MOL0     H 4561   8.614   2.844   2.063 -0.1712  0.8731 -0.0579
   34MOL0     H 4562   8.647   2.673   2.182  2.6188  3.6576 -2.4826
   34MOL0     H 4563   8.511   2.758   2.264  0.1232  3.2178  2.5450
   34MOL0     H 4564   8.706   2.846   2.407 -0.2373 -0.5571  0.7161
   34MOL0     H 4565   8.630   2.691   2.450  1.0975  0.1066  1.0472
   34MOL0     H 4566   8.891   2.735   2.294 -1.0670  1.2831  0.4294
   34MOL0     H 4567   8.820   2.567   2.324 -0.7785 -0.9760  1.5883
   34MOL0     H 4568   8.837   2.595   2.569  0.4022  2.3513  1.2188
   34MOL0     H 4569   8.976   2.571   2.460  0.3884  0.1428  0.6018
   34MOL0     H 4570   8.949   3.519   2.250  3.6244  2.2104  2.0891
   34MOL0     H 4571   9.171   3.586   2.205 -2.5605  1.5254 -4.0800
   34MOL0     H 4572   9.629   3.325   2.233  1.6085 -0.2860 -0.5040
   34MOL0     H 4573   9.858   3.354   2.249  3.5672  2.5145 -0.1179
   34MOL0     H 4574  11.056   4.187   0.785  4.5107  2.2734 -1.7726
   34MOL0     H 4575  11.156   4.074   0.611 -1.1021 -0.5048  0.2390
   34MOL0     H 4576  11.338   4.100   0.227  2.6159 -2.7963  2.7687
   34MOL0     H 4577  11.455   4.058   0.035  0.5343 -1.1917  0.0818
   34MOL0     H 4578  11.417   3.674  -0.199 -1.9347  0.7470  0.9963
   34MOL0     H 4579  11.446   3.662  -0.026 -1.3661 -0.5945 -1.4380
   34MOL0     H 4580  11.652   3.727  -0.247  4.4590  1.5761  0.6874
   34MOL0     H 4581  11.649   3.593  -0.136  3.2946  1.2566 -0.1916
   34MOL0     H 4582  11.711   3.740   0.051  1.4137  0.0615 -0.9870
   34MOL0     H 4583  11.709   3.885  -0.063  1.8098  0.0909 -2.2301
   34MOL0     H 4584  11.937   3.802  -0.021  0.6081  1.4396 -2.3379
   34MOL0     H 4585  11.878   3.641  -0.096  1.7972 -0.1596  0.5835
   34MOL0     H 4586  11.979   3.914  -0.418  0.6296 -0.9474 -0.3055
   34MOL0     H 4587  11.210   3.720  -0.060  1.8738  0.0546 -1.2813
   34MOL0     H 4588  11.045   3.692   0.214  3.2312  0.1684 -0.2643
   34MOL0     H 4589  10.937   3.822   0.156 -2.3186 -2.4753 -1.3898
   34MOL0     H 4590  10.992   3.717   0.035  1.4500  2.2307 -1.5091
   35MOL0     O 4591   7.130   3.086   1.651 -0.3405  0.0174  0.3810
   35MOL0     C 4592   7.248   3.095   1.635  0.1474 -0.6823  0.2626
   35MOL0     O 4593   7.314   3.208   1.613  0.5058  0.0869 -0.3824
   35MOL0     C 4594   7.246   3.326   1.571 -0.2740 -0.5706  0.1014
   35MOL0     C 4595   7.274   3.383   1.453  0.3693 -1.1278 -0.4813
   35MOL0     C 4596   7.197   3.496   1.410  0.2871 -0.4353 -0.0329
   35MOL0     C 4597   7.103   3.557   1.500  0.2094  0.3898  0.5218
   35MOL0     O 4598   7.047   3.675   1.463  0.1399  0.1508  0.0101
   35MOL0     C 4599   6.996   3.753   1.574 -0.3079  0.2317 -0.0181
   35MOL0     C 4600   6.965   3.888   1.516 -0.5052  0.6515  0.4186
   35MOL0     C 4601   6.919   3.982   1.620  0.3188 -0.4174  0.9196
   35MOL0     C 4602   7.020   4.075   1.674 -0.3875  0.1569 -0.0716
   35MOL0     C 4603   6.952   4.168   1.764 -0.1508  0.7945 -0.6887
   35MOL0     C 4604   6.890   4.099   1.885  0.2939 -0.3347 -0.3643
   35MOL0     C 4605   6.873   4.194   2.005  0.2092 -0.0246  0.1496
   35MOL0     C 4606   6.755   4.286   1.971  0.0198 -0.5315 -0.5648
   35MOL0     N 4607   6.693   4.369   2.077 -0.1042  0.2219 -0.0459
   35MOL0     C 4608   6.642   4.313   2.194 -0.0518  0.4531 -0.2949
   35MOL0     C 4609   6.613   4.412   2.278 -0.8028  0.0480  0.8332
   35MOL0     C 4610   6.538   4.402   2.408  1.0358  1.0914 -0.7467
   35MOL0     C 4611   6.465   4.264   2.402  0.5785  0.3878 -0.5473
   35MOL0     C 4612   6.372   4.247   2.524  0.1018 -0.4609 -0.1293
   35MOL0     C 4613   6.254   4.349   2.523  0.4739 -0.3301 -0.5120
   35MOL0     O 4614   6.160   4.321   2.626 -0.7558 -0.5575  0.6313
   35MOL0     C 4615   6.057   4.243   2.606 -0.2837  0.1308  0.0952
   35MOL0     C 4616   5.964   4.250   2.710  0.1751  1.3157 -0.2483
   35MOL0     C 4617   5.860   4.147   2.715  0.1521 -0.1593 -0.8915
   35MOL0     C 4618   5.839   4.060   2.605 -0.0893 -1.2034  0.2559
   35MOL0     C 4619   5.723   3.977   2.595 -0.5963  0.6264  0.2830
   35MOL0     O 4620   5.673   3.931   2.713  0.2745 -0.2709 -0.5549
   35MOL0     C 4621   5.585   3.828   2.724  0.2162 -0.1613  0.0416
   35MOL0     C 4622   5.612   3.707   2.794  0.1265 -0.5800 -0.1972
   35MOL0     C 4623   5.513   3.614   2.813  0.6063  1.4664  1.0324
   35MOL0     C 4624   5.384   3.629   2.757 -0.8817  0.7530 -0.3955
   35MOL0     O 4625   5.300   3.520   2.766  1.0553 -0.1215  0.7184
   35MOL0     C 4626   5.202   3.500   2.659 -1.1868 -0.7402  1.1762
   35MOL0     C 4627   5.097   3.395   2.702 -1.0928  0.1330 -0.0543
   35MOL0     C 4628   5.136   3.251   2.656  0.1473 -0.0819  0.1074
   35MOL0     C 4629   5.232   3.174   2.744 -1.0557  0.1147  0.0086
   35MOL0     C 4630   5.243   3.018   2.724  0.3469 -0.2824  0.6317
   35MOL0     C 4631   5.265   2.970   2.580  1.1282  0.1910  0.5341
   35MOL0     C 4632   5.382   3.041   2.511  0.3571 -0.4949 -0.1168
   35MOL0     C 4633   5.384   3.007   2.363  0.0767  0.1005 -0.9109
   35MOL0    Cl 4634   5.514   3.082   2.262 -0.3076  0.1465 -0.2229
   35MOL0     C 4635   5.353   3.737   2.675  0.0997 -0.2867 -0.3173
   35MOL0     C 4636   5.457   3.837   2.668  0.4932  0.0880 -0.9354
   35MOL0     O 4637   5.680   3.948   2.486  0.1910  0.8334 -0.3626
   35MOL0     C 4638   5.924   4.073   2.499  0.2518  0.0497 -0.0099
   35MOL0     C 4639   6.040   4.151   2.493  0.0047 -0.3613  0.5643
   35MOL0     N 4640   6.643   4.530   2.210  0.4901 -0.1923 -0.9202
   35MOL0     N 4641   6.683   4.503   2.092  1.1489 -0.8592 -0.6810
   35MOL0     C 4642   7.078   3.497   1.626 -1.3150  0.2670 -0.2544
   35MOL0     C 4643   7.154   3.381   1.656  0.5816 -0.6275  0.4270
   35MOL0     C 4644   7.340   2.977   1.638  0.4703 -1.0020 -0.2212
   35MOL0     C 4645   7.456   2.989   1.557  0.1115 -0.8514  0.4183
   35MOL0     C 4646   7.555   2.888   1.545  0.5544  1.9164 -0.0016
   35MOL0     C 4647   7.536   2.761   1.595 -0.3376 -0.6211  0.6256
   35MOL0     O 4648   7.632   2.667   1.564 -0.8248 -0.3355 -0.0826
   35MOL0     C 4649   7.589   2.537   1.551  1.6851  0.1301  0.9075
   35MOL0     C 4650   7.629   2.470   1.679  0.1851 -0.1405 -0.3461
   35MOL0     C 4651   7.603   2.321   1.685 -0.5294  0.1242  0.3279
   35MOL0     C 4652   7.555   2.279   1.813  0.1299 -0.5447 -0.9825
   35MOL0     C 4653   7.669   2.283   1.909  0.5323 -0.4226  0.4065
   35MOL0     C 4654   7.761   2.276   1.985  0.4152 -0.6517 -1.3715
   35MOL0     C 4655   7.418   2.751   1.673 -0.5799  0.3325  0.2074
   35MOL0     C 4656   7.322   2.850   1.689  0.0212 -0.2140  0.7572
   35MOL0     C 4657   7.199   2.827   1.779  0.2467  0.3291  1.1266
   35MOL0     H 4658   7.337   3.328   1.385 -0.6386 -0.9847 -1.5635
   35MOL0     H 4659   7.210   3.533   1.309  0.3692 -0.3724  0.0004
   35MOL0     H 4660   6.913   3.699   1.619 -0.7077  0.2078 -0.7787
   35MOL0     H 4661   7.086   3.771   1.635  0.9896  1.3983 -2.1527
   35MOL0     H 4662   6.897   3.881   1.431  0.0107  0.2728  0.0311
   35MOL0     H 4663   7.054   3.936   1.476 -0.2275  0.2450  0.5471
   35MOL0     H 4664   6.866   3.931   1.701  0.1132  2.6822  2.9077
   35MOL0     H 4665   6.846   4.046   1.570  2.2692  0.1589 -1.3755
   35MOL0     H 4666   7.092   4.012   1.727 -1.6811 -2.0161 -0.7732
   35MOL0     H 4667   7.073   4.125   1.593  2.5118  1.4626  2.4251
   35MOL0     H 4668   7.018   4.249   1.796  1.9651 -0.3504 -1.9515
   35MOL0     H 4669   6.869   4.211   1.708 -1.9006 -3.4589 -1.7516
   35MOL0     H 4670   6.796   4.065   1.840  1.3076 -2.9869 -0.7061
   35MOL0     H 4671   6.939   4.007   1.918  1.9783  1.0417  1.1324
   35MOL0     H 4672   6.966   4.248   2.021  3.1645 -4.7078  0.7545
   35MOL0     H 4673   6.853   4.134   2.095  2.9181 -1.5513 -0.1764
   35MOL0     H 4674   6.791   4.361   1.899 -0.0493 -1.5348 -1.6662
   35MOL0     H 4675   6.670   4.236   1.924  2.4121 -2.1351 -3.5246
   35MOL0     H 4676   6.623   4.206   2.204  0.8688  0.1055 -1.9293
   35MOL0     H 4677   6.607   4.384   2.491  1.6379 -1.0753 -1.6560
   35MOL0     H 4678   6.466   4.483   2.425 -0.8166 -1.0437  3.1640
   35MOL0     H 4679   6.410   4.227   2.316  0.1245 -2.8303  0.9849
   35MOL0     H 4680   6.549   4.194   2.406  1.9441  1.9493 -0.2852
   35MOL0     H 4681   6.426   4.250   2.619 -0.0324  0.5846 -0.0774
   35MOL0     H 4682   6.320   4.150   2.530 -1.5884  0.5010  2.5260
   35MOL0     H 4683   6.202   4.338   2.428 -1.1180 -0.6334  0.3645
   35MOL0     H 4684   6.298   4.448   2.535  2.2537 -0.8642 -2.1054
   35MOL0     H 4685   5.988   4.317   2.792 -0.1476  0.0735  0.9055
   35MOL0     H 4686   5.797   4.138   2.803  3.8400  0.9762  2.1470
   35MOL0     H 4687   5.712   3.711   2.836  0.6506  2.3972 -1.4790
   35MOL0     H 4688   5.535   3.523   2.868  0.5643 -2.7727 -4.9668
   35MOL0     H 4689   5.150   3.584   2.612  3.2221  0.7389 -1.7864
   35MOL0     H 4690   5.255   3.461   2.571 -1.9908 -2.3889  1.3922
   35MOL0     H 4691   5.079   3.401   2.810 -1.8915  2.2551 -0.2473
   35MOL0     H 4692   4.998   3.419   2.661 -1.2502  0.7672  0.6484
   35MOL0     H 4693   5.038   3.205   2.671 -0.2896 -0.6611 -3.6561
   35MOL0     H 4694   5.150   3.262   2.548  1.2683 -1.9368  0.0245
   35MOL0     H 4695   5.198   3.187   2.847 -2.6108 -1.4532 -0.2663
   35MOL0     H 4696   5.333   3.213   2.733 -0.4562 -1.1587  0.7573
   35MOL0     H 4697   5.150   2.968   2.752 -1.3658  1.6100 -1.2876
   35MOL0     H 4698   5.329   2.983   2.782  2.8540  1.1559 -1.9467
   35MOL0     H 4699   5.280   2.862   2.578 -0.5105 -0.0886  1.2066
   35MOL0     H 4700   5.173   2.976   2.520  1.5519  0.0559 -0.1365
   35MOL0     H 4701   5.475   3.010   2.559 -0.4683  0.5869  2.3272
   35MOL0     H 4702   5.374   3.149   2.529  0.5269 -0.9359  3.1234
   35MOL0     H 4703   5.396   2.904   2.330  3.9613  0.5781 -1.4562
   35MOL0     H 4704   5.286   3.032   2.320 -1.6064 -1.5118  1.7085
   35MOL0     H 4705   5.255   3.750   2.630  0.9176  1.5276 -1.6735
   35MOL0     H 4706   5.443   3.922   2.602 -3.1345  2.2532  2.1387
   35MOL0     H 4707   5.898   4.008   2.416  1.2615  0.5932 -0.7847
   35MOL0     H 4708   6.112   4.132   2.415 -0.8466 -2.2672  0.1708
   35MOL0     H 4709   6.983   3.508   1.677 -1.1497  0.2854  0.0505
   35MOL0     H 4710   7.142   3.321   1.745  1.3372 -3.0760 -0.9993
   35MOL0     H 4711   7.490   3.080   1.507  1.5995 -1.5577  0.0873
   35MOL0     H 4712   7.645   2.902   1.487 -0.7400 -1.1604 -3.0936
   35MOL0     H 4713   7.629   2.492   1.460  2.1937  1.8056  0.2727
   35MOL0     H 4714   7.480   2.546   1.549  1.6689  1.0141 -3.0768
   35MOL0     H 4715   7.584   2.512   1.770 -2.1986  0.8386 -1.8996
   35MOL0     H 4716   7.738   2.480   1.690  0.3636 -2.0761 -0.0072
   35MOL0     H 4717   7.693   2.267   1.654  1.0378  2.6372  0.2288
   35MOL0     H 4718   7.522   2.307   1.612  0.0086  2.4420 -0.8270
   35MOL0     H 4719   7.477   2.350   1.840  1.3390  0.3412  0.3076
   35MOL0     H 4720   7.510   2.179   1.807  0.1842 -0.9749  2.9889
   35MOL0     H 4721   7.844   2.282   2.053  0.0563 -4.4691 -0.3830
   35MOL0     H 4722   7.395   2.659   1.725  2.1666  1.0348  3.0118
   35MOL0     H 4723   7.105   2.844   1.726  0.1524 -2.1136  0.3855
   35MOL0     H 4724   7.200   2.720   1.802  2.0657 -0.3430 -1.5540
   35MOL0     H 4725   7.195   2.895   1.865  0.8909  2.8498 -0.7045
   36MOL0     O 4726   0.227   1.379   1.223  0.3021 -0.0721 -0.7598
   36MOL0     C 4727   0.202   1.326   1.331  0.3424  0.1570 -0.7662
   36MOL0     O 4728   0.131   1.213   1.340  0.6627  0.4649 -0.9784
   36MOL0     C 4729   0.055   1.179   1.240  0.2133  0.5084 -0.3534
   36MOL0     C 4730  -0.082   1.225   1.244  0.4722  0.0894 -0.5214
   36MOL0     C 4731  -0.167   1.195   1.132  0.2393 -0.6482 -0.5746
   36MOL0     C 4732  -0.120   1.116   1.026 -0.5104  0.8383 -0.8388
   36MOL0     O 4733  -0.205   1.087   0.928  0.1804 -0.3490 -0.1216
   36MOL0     C 4734  -0.317   1.007   0.961  0.6870  0.2748 -0.0770
   36MOL0     C 4735  -0.377   0.974   0.822 -0.3143  0.3221 -0.2919
   36MOL0     C 4736  -0.496   0.875   0.819  0.3717  0.0019 -0.1180
   36MOL0     C 4737  -0.543   0.852   0.674  1.0378 -0.3780  0.0798
   36MOL0     C 4738  -0.674   0.776   0.678  1.1005  0.0354  0.1720
   36MOL0     C 4739  -0.733   0.784   0.529 -0.4113 -0.2353 -0.3519
   36MOL0     C 4740  -0.859   0.704   0.506  0.3576  0.2915  0.2936
   36MOL0     C 4741  -0.996   0.754   0.553 -0.1690 -1.2179 -0.3631
   36MOL0     N 4742  -1.102   0.656   0.534 -1.0615  0.3440  0.3811
   36MOL0     C 4743  -1.187   0.659   0.429  0.1286 -0.4004 -0.2753
   36MOL0     C 4744  -1.266   0.553   0.443  0.8531  0.3314  0.1414
   36MOL0     C 4745  -1.374   0.512   0.336  0.2570  0.6944 -0.1449
   36MOL0     C 4746  -1.455   0.387   0.382  0.0235  0.0200  0.0496
   36MOL0     C 4747  -1.396   0.253   0.367 -0.2670 -0.5574  0.0329
   36MOL0     C 4748  -1.466   0.138   0.439  1.5395  0.2271 -0.0678
   36MOL0     O 4749  -1.390   0.012   0.418 -0.1777 -0.6476  0.1780
   36MOL0     C 4750  -1.414  -0.094   0.501  0.1624  0.8069  0.7856
   36MOL0     C 4751  -1.437  -0.214   0.436  0.5363  0.4823 -1.0094
   36MOL0     C 4752  -1.461  -0.325   0.515 -0.3107 -1.1310  0.8113
   36MOL0     C 4753  -1.474  -0.317   0.649  0.7825  1.0305 -0.0277
   36MOL0     C 4754  -1.498  -0.445   0.721 -0.1664  0.0285  0.1044
   36MOL0     O 4755  -1.534  -0.414   0.853 -0.3116  0.1263  0.8211
   36MOL0     C 4756  -1.616  -0.511   0.918  0.5919 -0.1255  0.1539
   36MOL0     C 4757  -1.580  -0.648   0.928 -0.2557 -0.0998 -0.5629
   36MOL0     C 4758  -1.660  -0.742   0.989 -0.5986  0.3015  0.5980
   36MOL0     C 4759  -1.775  -0.709   1.052 -0.3998  1.0258 -0.2428
   36MOL0     O 4760  -1.859  -0.799   1.128 -0.0625  0.9246  0.6174
   36MOL0     C 4761  -1.831  -0.945   1.155  0.0111 -0.4796 -0.3136
   36MOL0     C 4762  -1.905  -1.028   1.060 -0.5668 -0.7381  0.6356
   36MOL0     C 4763  -1.891  -1.177   1.113 -1.0695 -0.5355  0.6772
   36MOL0     C 4764  -1.941  -1.286   1.023  1.0981 -1.0097 -0.5874
   36MOL0     C 4765  -1.849  -1.297   0.904  1.0011 -0.7045  0.1940
   36MOL0     C 4766  -1.901  -1.410   0.803  0.3293 -0.2417  0.1573
   36MOL0     C 4767  -1.979  -1.355   0.675 -0.8986  0.0262 -0.1307
   36MOL0     C 4768  -2.132  -1.355   0.707 -0.8683  1.0419  0.3832
   36MOL0    Cl 4769  -2.194  -1.527   0.700  0.1108 -0.4998 -0.0056
   36MOL0     C 4770  -1.818  -0.581   1.041  0.4649 -0.6034  0.9458
   36MOL0     C 4771  -1.745  -0.477   0.978  0.0727  0.1676 -0.3008
   36MOL0     O 4772  -1.498  -0.560   0.661 -1.1352 -0.1558  0.0978
   36MOL0     C 4773  -1.444  -0.202   0.713  0.0364  0.0809 -1.0623
   36MOL0     C 4774  -1.431  -0.083   0.636  0.0135 -0.2420 -0.4903
   36MOL0     N 4775  -1.232   0.491   0.560 -0.6059 -0.1772  0.1508
   36MOL0     N 4776  -1.119   0.541   0.600  0.5587 -0.1012  0.5747
   36MOL0     C 4777   0.013   1.069   1.025 -0.2039 -0.0133  0.0471
   36MOL0     C 4778   0.103   1.104   1.126  0.3992 -0.1562  0.0686
   36MOL0     C 4779   0.284   1.374   1.445  0.6681 -0.9149 -0.0717
   36MOL0     C 4780   0.296   1.515   1.447  0.9267 -1.7947 -0.6423
   36MOL0     C 4781   0.371   1.579   1.539  0.0942  0.7369  0.1589
   36MOL0     C 4782   0.422   1.504   1.648 -1.1046  1.1484 -0.5062
   36MOL0     O 4783   0.486   1.552   1.756  0.0588  0.0418  0.3532
   36MOL0     C 4784   0.554   1.684   1.735  0.2691  0.6657  0.7807
   36MOL0     C 4785   0.623   1.732   1.861 -1.1985  0.0695 -0.3772
   36MOL0     C 4786   0.731   1.837   1.849  0.1346 -0.4002  0.8256
   36MOL0     C 4787   0.678   1.977   1.822 -0.1980  0.2284  0.3209
   36MOL0     C 4788   0.781   2.080   1.781  0.1589 -1.0928  0.0584
   36MOL0     C 4789   0.863   2.164   1.741  0.3856  1.0934 -0.1903
   36MOL0     C 4790   0.421   1.366   1.640 -0.2485  0.7925 -0.2551
   36MOL0     C 4791   0.364   1.304   1.531 -0.6792  0.2239 -0.2639
   36MOL0     C 4792   0.362   1.151   1.514  0.8426 -0.6616 -0.1967
   36MOL0     H 4793  -0.115   1.292   1.322  1.4510  0.8564 -0.7422
   36MOL0     H 4794  -0.269   1.232   1.132  0.8681  1.2079 -1.5497
   36MOL0     H 4795  -0.282   0.927   1.026  1.8868  0.9633  0.1457
   36MOL0     H 4796  -0.389   1.073   1.012  1.0167  0.3279  0.3208
   36MOL0     H 4797  -0.306   0.929   0.751 -0.4431  0.9467 -0.8237
   36MOL0     H 4798  -0.403   1.069   0.774  1.9030  0.7697 -0.7096
   36MOL0     H 4799  -0.575   0.908   0.886  0.4582  1.6980 -0.8003
   36MOL0     H 4800  -0.466   0.777   0.855 -0.7538  0.1126  1.1890
   36MOL0     H 4801  -0.548   0.948   0.623  3.3336 -0.9874 -1.4243
   36MOL0     H 4802  -0.469   0.793   0.620 -0.1712 -2.0670  0.1828
   36MOL0     H 4803  -0.662   0.676   0.721  1.9063 -1.0990 -2.4793
   36MOL0     H 4804  -0.737   0.838   0.742  1.6616  1.4088 -0.5541
   36MOL0     H 4805  -0.745   0.892   0.528  0.2464 -0.1415  0.4008
   36MOL0     H 4806  -0.661   0.750   0.454  2.4407  1.1553  1.5497
   36MOL0     H 4807  -0.848   0.605   0.551  1.7850  0.1998 -0.2140
   36MOL0     H 4808  -0.881   0.696   0.399 -2.6063  0.0755  0.8350
   36MOL0     H 4809  -0.990   0.775   0.660 -0.7887 -0.8401 -0.3982
   36MOL0     H 4810  -1.013   0.845   0.496 -2.2174 -2.6555 -2.2214
   36MOL0     H 4811  -1.192   0.741   0.358  2.6882  0.7973  0.8142
   36MOL0     H 4812  -1.448   0.586   0.305 -0.5211 -0.4526 -1.0833
   36MOL0     H 4813  -1.314   0.487   0.248  1.7505 -3.1181  1.6931
   36MOL0     H 4814  -1.494   0.408   0.482  2.4151  2.6688  0.5599
   36MOL0     H 4815  -1.543   0.380   0.318 -0.0643  1.2279  0.0181
   36MOL0     H 4816  -1.294   0.271   0.404 -0.0648 -0.3836 -0.6039
   36MOL0     H 4817  -1.379   0.225   0.263  2.2049 -1.2490  0.5510
   36MOL0     H 4818  -1.572   0.129   0.415  2.1282 -0.1608 -2.7998
   36MOL0     H 4819  -1.476   0.173   0.542  2.5260  0.8863 -0.1837
   36MOL0     H 4820  -1.438  -0.233   0.329  5.6074 -0.0334 -1.2024
   36MOL0     H 4821  -1.477  -0.416   0.458  1.5537  0.0811 -1.8264
   36MOL0     H 4822  -1.490  -0.688   0.882 -0.1321 -1.2377  0.6413
   36MOL0     H 4823  -1.630  -0.846   0.979 -2.0891 -0.3708  2.4516
   36MOL0     H 4824  -1.724  -0.968   1.156 -0.3360 -2.4664  2.8603
   36MOL0     H 4825  -1.863  -0.971   1.256 -0.5825  2.9303  0.5128
   36MOL0     H 4826  -2.009  -0.996   1.061 -1.3260 -2.9526  2.6285
   36MOL0     H 4827  -1.858  -1.016   0.962 -2.5049  3.1480 -0.0031
   36MOL0     H 4828  -1.788  -1.198   1.141 -1.6608 -3.5274  0.9496
   36MOL0     H 4829  -1.939  -1.182   1.212 -1.7012 -1.5128  0.3369
   36MOL0     H 4830  -2.043  -1.262   0.991  0.6795 -2.2679 -0.2582
   36MOL0     H 4831  -1.941  -1.377   1.083 -0.2919 -0.3831  0.4107
   36MOL0     H 4832  -1.752  -1.329   0.941 -0.2561 -1.0446  3.5068
   36MOL0     H 4833  -1.848  -1.201   0.851 -1.5282  0.3246  1.8149
   36MOL0     H 4834  -1.814  -1.467   0.768  1.8244  1.6993  0.5254
   36MOL0     H 4835  -1.962  -1.479   0.863  0.2565 -4.2360 -3.9516
   36MOL0     H 4836  -1.954  -1.416   0.588 -2.5045 -2.0399  0.7666
   36MOL0     H 4837  -1.948  -1.256   0.641 -0.7038  0.3359  0.9044
   36MOL0     H 4838  -2.152  -1.328   0.811 -2.3672 -2.3331  1.1034
   36MOL0     H 4839  -2.191  -1.299   0.634  0.9117  3.4328  0.6790
   36MOL0     H 4840  -1.910  -0.548   1.089  2.3981  1.6680  3.3462
   36MOL0     H 4841  -1.785  -0.376   0.970 -2.8964 -0.9553 -1.1874
   36MOL0     H 4842  -1.451  -0.193   0.820  1.3622 -0.5539 -0.9089
   36MOL0     H 4843  -1.389   0.007   0.679 -0.4089  0.9120 -2.3938
   36MOL0     H 4844   0.062   1.014   0.945 -1.9960 -2.4342  0.4942
   36MOL0     H 4845   0.202   1.060   1.131 -0.3577 -1.9222  0.0964
   36MOL0     H 4846   0.245   1.578   1.374  1.3973  2.8420  2.5746
   36MOL0     H 4847   0.378   1.688   1.539  1.3247  0.6863 -0.9964
   36MOL0     H 4848   0.483   1.762   1.707 -1.2117 -0.9136 -0.0525
   36MOL0     H 4849   0.624   1.680   1.651 -0.0410  0.5800  0.5263
   36MOL0     H 4850   0.673   1.648   1.910  4.4510  1.5557 -2.7648
   36MOL0     H 4851   0.545   1.773   1.927 -1.6858 -1.5499  0.1079
   36MOL0     H 4852   0.804   1.809   1.773  0.2101 -0.0377  0.7640
   36MOL0     H 4853   0.792   1.850   1.939  4.1945  1.0651 -1.8210
   36MOL0     H 4854   0.604   1.985   1.742 -2.7433  3.4415  2.7616
   36MOL0     H 4855   0.626   2.013   1.911 -0.9722  0.3406 -0.1702
   36MOL0     H 4856   0.941   2.235   1.726  1.2392 -0.1353 -1.9795
   36MOL0     H 4857   0.485   1.307   1.706  2.2401  1.2573 -2.0991
   36MOL0     H 4858   0.442   1.105   1.574  0.8846  0.5598  0.7253
   36MOL0     H 4859   0.267   1.103   1.541  0.1808 -0.8959 -2.7268
   36MOL0     H 4860   0.389   1.124   1.412  2.2827  0.5397 -0.1703
   37MOL0     O 4861   3.067   3.662   0.202  0.6982 -0.0929 -0.4525
   37MOL0     C 4862   2.976   3.700   0.130 -0.0083 -0.6861 -0.3079
   37MOL0     O 4863   2.956   3.672   0.003 -1.0638  0.8955  1.0259
   37MOL0     C 4864   3.047   3.604  -0.072 -0.6648  0.5764 -0.5251
   37MOL0     C 4865   3.059   3.456  -0.078  0.8088 -0.9510  0.6167
   37MOL0     C 4866   3.137   3.406  -0.173  0.2800 -0.8255  0.0871
   37MOL0     C 4867   3.222   3.495  -0.254  1.1083  0.8067 -0.9975
   37MOL0     O 4868   3.314   3.446  -0.345  0.0476 -0.0659 -0.3547
   37MOL0     C 4869   3.286   3.304  -0.386  0.7191  0.0431 -0.8383
   37MOL0     C 4870   3.373   3.267  -0.504  0.2667  0.1804 -0.3924
   37MOL0     C 4871   3.352   3.111  -0.540  0.8095 -0.2472 -0.6953
   37MOL0     C 4872   3.459   3.049  -0.625 -0.5720  0.4278 -0.2210
   37MOL0     C 4873   3.412   2.919  -0.672 -0.6307  0.7190  0.1073
   37MOL0     C 4874   3.535   2.843  -0.732 -0.2430 -0.3277 -0.8343
   37MOL0     C 4875   3.500   2.700  -0.779  0.1657  0.2131  0.0804
   37MOL0     C 4876   3.615   2.640  -0.861  0.0361  0.6531  0.8892
   37MOL0     N 4877   3.636   2.707  -0.993 -0.3497  0.3095 -0.4698
   37MOL0     C 4878   3.540   2.778  -1.060  1.0911 -0.1824  0.5747
   37MOL0     C 4879   3.607   2.830  -1.167 -0.8382  0.8493  0.4156
   37MOL0     C 4880   3.529   2.888  -1.285 -0.2572  0.7109  0.0628
   37MOL0     C 4881   3.622   2.893  -1.407 -0.2206  0.4954 -0.6029
   37MOL0     C 4882   3.549   2.956  -1.530 -0.4094  1.0543  0.2883
   37MOL0     C 4883   3.642   2.997  -1.649  0.8600  0.4780 -0.1048
   37MOL0     O 4884   3.554   3.065  -1.745 -0.1066  0.3053  0.4469
   37MOL0     C 4885   3.611   3.144  -1.829 -0.0805 -0.5603  0.0386
   37MOL0     C 4886   3.749   3.154  -1.856  0.2186  0.7581 -0.1621
   37MOL0     C 4887   3.799   3.244  -1.956  0.0819  0.0342 -0.2028
   37MOL0     C 4888   3.695   3.316  -2.029 -0.7484 -0.2661 -0.2248
   37MOL0     C 4889   3.736   3.428  -2.108  0.3701 -0.2632  0.3649
   37MOL0     O 4890   3.646   3.488  -2.199  0.3083  0.5895  1.1486
   37MOL0     C 4891   3.668   3.613  -2.255  0.6398  0.7279  0.0218
   37MOL0     C 4892   3.694   3.615  -2.387 -0.4921 -0.5190  0.1318
   37MOL0     C 4893   3.715   3.743  -2.448  0.3796 -0.4945 -0.2088
   37MOL0     C 4894   3.683   3.858  -2.376 -0.6398 -0.0364  0.4716
   37MOL0     O 4895   3.696   3.994  -2.415 -0.8435  0.1317 -0.3888
   37MOL0     C 4896   3.815   4.031  -2.490  0.6480 -0.4177  0.6060
   37MOL0     C 4897   3.846   4.186  -2.512  0.3683 -0.2714  0.0763
   37MOL0     C 4898   3.857   4.249  -2.370 -1.3313 -0.4264  0.9272
   37MOL0     C 4899   3.935   4.383  -2.367 -0.5021 -0.2469  0.2402
   37MOL0     C 4900   3.868   4.498  -2.430  0.1446  0.1573 -0.2099
   37MOL0     C 4901   3.937   4.625  -2.378 -0.2923  1.4621 -0.4202
   37MOL0     C 4902   3.880   4.747  -2.445  0.2184  0.0113 -0.0673
   37MOL0     C 4903   3.929   4.876  -2.382 -1.0499  0.2136  0.6058
   37MOL0    Cl 4904   3.854   4.908  -2.206 -0.1042 -0.0887 -0.1559
   37MOL0     C 4905   3.665   3.847  -2.239  0.3629 -0.2329  0.2249
   37MOL0     C 4906   3.650   3.728  -2.180  0.0433  0.6560  0.4248
   37MOL0     O 4907   3.840   3.482  -2.082 -1.0705 -0.0231  0.3061
   37MOL0     C 4908   3.559   3.310  -2.006  0.1115 -0.3425  1.2636
   37MOL0     C 4909   3.521   3.225  -1.903  0.5372  1.3294  0.0662
   37MOL0     N 4910   3.746   2.801  -1.156  0.3947 -0.0544 -0.3578
   37MOL0     N 4911   3.760   2.726  -1.048  0.5425  0.3620  0.1518
   37MOL0     C 4912   3.216   3.638  -0.240 -0.2618  0.3360 -0.8939
   37MOL0     C 4913   3.130   3.689  -0.143 -0.0525  0.0866 -0.9422
   37MOL0     C 4914   2.860   3.768   0.190 -0.1681 -0.4797  0.9321
   37MOL0     C 4915   2.760   3.826   0.096  0.7160  0.8859 -0.0768
   37MOL0     C 4916   2.640   3.892   0.141  0.3864  0.4093  0.5904
   37MOL0     C 4917   2.632   3.921   0.279 -0.5288 -1.0108  0.0463
   37MOL0     O 4918   2.547   4.013   0.333 -1.5438 -0.1790  0.5682
   37MOL0     C 4919   2.484   4.104   0.242 -1.0233  0.2470 -0.0651
   37MOL0     C 4920   2.476   4.247   0.301 -0.5139  0.5210 -0.1439
   37MOL0     C 4921   2.400   4.259   0.438 -0.7571 -0.1916  0.4488
   37MOL0     C 4922   2.441   4.377   0.518  0.6169 -1.0805  0.2165
   37MOL0     C 4923   2.341   4.426   0.614 -1.0151 -0.4521  0.7896
   37MOL0     C 4924   2.260   4.452   0.694 -0.4511 -0.1933  0.2810
   37MOL0     C 4925   2.725   3.870   0.372  0.4637 -0.6161  0.6668
   37MOL0     C 4926   2.846   3.794   0.327  0.2823 -0.8687 -1.4108
   37MOL0     C 4927   2.936   3.736   0.430 -1.0967 -0.0299 -0.3958
   37MOL0     H 4928   2.977   3.398  -0.035  0.2421 -2.1618 -1.9242
   37MOL0     H 4929   3.141   3.299  -0.159 -1.8122 -1.4549 -3.1768
   37MOL0     H 4930   3.291   3.236  -0.300  0.4305  1.0570  0.0021
   37MOL0     H 4931   3.181   3.292  -0.416 -0.1020  3.5183  0.2234
   37MOL0     H 4932   3.475   3.290  -0.475  0.2420 -2.2769  2.1068
   37MOL0     H 4933   3.340   3.323  -0.592 -1.1671 -4.2291 -2.9750
   37MOL0     H 4934   3.259   3.100  -0.596  1.6661 -2.3709 -1.8209
   37MOL0     H 4935   3.351   3.050  -0.450 -0.4943  2.0348  0.9331
   37MOL0     H 4936   3.479   3.112  -0.712  0.6178 -2.2546 -2.0116
   37MOL0     H 4937   3.543   3.043  -0.555 -2.5893 -2.7144  2.1978
   37MOL0     H 4938   3.379   2.859  -0.587 -1.2824 -2.5428 -2.2385
   37MOL0     H 4939   3.324   2.929  -0.736 -1.2831  0.5218  0.9514
   37MOL0     H 4940   3.548   2.898  -0.825 -2.4061 -0.5882 -1.3654
   37MOL0     H 4941   3.617   2.833  -0.660 -0.9513 -0.5771 -0.0400
   37MOL0     H 4942   3.404   2.702  -0.831 -0.7009  2.2070  1.6575
   37MOL0     H 4943   3.470   2.639  -0.693  2.9781  0.0638  1.0641
   37MOL0     H 4944   3.703   2.639  -0.796  1.1957 -0.7471 -0.6038
   37MOL0     H 4945   3.596   2.533  -0.873 -1.6133  0.6268  3.1785
   37MOL0     H 4946   3.435   2.767  -1.035  1.1709 -3.0794 -0.0167
   37MOL0     H 4947   3.444   2.824  -1.310  1.3890 -0.8258 -2.0529
   37MOL0     H 4948   3.500   2.992  -1.270 -0.3327  0.4810  1.6680
   37MOL0     H 4949   3.717   2.947  -1.396  0.6370 -0.8501 -1.1129
   37MOL0     H 4950   3.659   2.792  -1.427  0.7604  0.6545  0.3387
   37MOL0     H 4951   3.498   3.043  -1.487  0.7634  1.6276  0.5610
   37MOL0     H 4952   3.479   2.886  -1.576  0.0800  0.6839  0.1038
   37MOL0     H 4953   3.699   2.913  -1.690 -0.4206 -0.6349  0.2740
   37MOL0     H 4954   3.718   3.066  -1.613  1.6391 -0.1533 -0.5168
   37MOL0     H 4955   3.823   3.078  -1.832  1.2712  1.0041 -2.3488
   37MOL0     H 4956   3.907   3.251  -1.963 -0.0540  2.4334 -0.8742
   37MOL0     H 4957   3.712   3.532  -2.455 -0.8070  2.0804 -3.4340
   37MOL0     H 4958   3.750   3.761  -2.549 -1.6627  0.7398 -0.7669
   37MOL0     H 4959   3.899   3.984  -2.437  0.1385  1.2010  3.0227
   37MOL0     H 4960   3.782   3.999  -2.589 -0.4756  0.0167  0.8333
   37MOL0     H 4961   3.942   4.196  -2.563 -1.4654  2.2197 -3.2987
   37MOL0     H 4962   3.762   4.234  -2.563 -1.6680 -1.3374  2.2346
   37MOL0     H 4963   3.759   4.280  -2.333 -0.7343  2.2346  0.5023
   37MOL0     H 4964   3.903   4.178  -2.301  1.0208  0.0294 -0.0810
   37MOL0     H 4965   4.029   4.376  -2.422 -1.5253  0.0686 -1.6290
   37MOL0     H 4966   3.952   4.404  -2.261  0.5799  0.1465  0.0024
   37MOL0     H 4967   3.762   4.486  -2.407  1.1103 -1.1898  4.5047
   37MOL0     H 4968   3.888   4.493  -2.537 -1.9438  2.6031 -0.8272
   37MOL0     H 4969   3.927   4.632  -2.270 -1.5139 -2.6375 -0.1138
   37MOL0     H 4970   4.044   4.620  -2.398 -0.0678  2.9751  0.2755
   37MOL0     H 4971   3.771   4.740  -2.442  0.2658 -4.1103 -1.0886
   37MOL0     H 4972   3.898   4.752  -2.553 -3.1155 -0.4597 -0.7395
   37MOL0     H 4973   4.036   4.871  -2.361 -0.4796  5.4938  0.1493
   37MOL0     H 4974   3.921   4.965  -2.445  1.4456 -1.8197 -2.9419
   37MOL0     H 4975   3.658   3.939  -2.181  1.2324  0.4493 -0.7015
   37MOL0     H 4976   3.614   3.733  -2.078 -4.2021 -0.4511 -0.8412
   37MOL0     H 4977   3.489   3.370  -2.064  3.0028  0.8508 -1.2677
   37MOL0     H 4978   3.416   3.211  -1.880  0.4642 -0.1067 -1.0451
   37MOL0     H 4979   3.277   3.713  -0.290 -0.7328  0.6141 -1.0559
   37MOL0     H 4980   3.132   3.796  -0.127 -1.2839  0.0008 -0.0783
   37MOL0     H 4981   2.772   3.831  -0.012 -1.9090 -0.7801 -0.5409
   37MOL0     H 4982   2.568   3.919   0.064 -0.7712 -1.5984  0.8869
   37MOL0     H 4983   2.381   4.065   0.239 -1.4235  1.0912  1.7932
   37MOL0     H 4984   2.520   4.111   0.139 -0.8664 -0.1035 -0.0364
   37MOL0     H 4985   2.424   4.310   0.228 -1.1053 -2.8467 -2.8879
   37MOL0     H 4986   2.574   4.291   0.319 -0.8377  0.8428  0.9587
   37MOL0     H 4987   2.425   4.174   0.503  0.3221  0.2836  0.6706
   37MOL0     H 4988   2.291   4.265   0.430 -0.8680 -2.2154 -0.1488
   37MOL0     H 4989   2.537   4.374   0.571 -0.4508  1.0503  2.4644
   37MOL0     H 4990   2.450   4.466   0.455  1.6490 -0.4170  1.2616
   37MOL0     H 4991   2.183   4.464   0.767 -1.1013  1.6688 -0.6380
   37MOL0     H 4992   2.722   3.888   0.479 -2.8271 -2.9214  1.1172
   37MOL0     H 4993   2.957   3.629   0.432  2.1502  0.4417  2.9053
   37MOL0     H 4994   3.032   3.789   0.418 -0.2034 -1.3743  0.5131
   37MOL0     H 4995   2.913   3.738   0.537  2.9902  0.0231  0.6636
   38MOL0     O 4996   8.740   5.034  10.889 -0.5119 -0.7408  0.2117
   38MOL0     C 4997   8.811   4.944  10.839  0.4360 -0.0536 -0.6696
   38MOL0     O 4998   8.922   4.957  10.761  0.0517  0.1104  0.0011
   38MOL0     C 4999   8.919   5.071  10.681  0.4608  0.0888 -0.9918
   38MOL0     C 5000   8.943   5.184  10.761  0.0311 -0.3871  0.3171
   38MOL0     C 5001   8.945   5.313  10.690  1.0152  0.7438 -1.3044
   38MOL0     C 5002   8.939   5.316  10.546 -0.3496 -0.8890 -0.1214
   38MOL0     O 5003   8.966   5.440  10.486 -0.6354 -0.3620  0.7844
   38MOL0     C 5004   8.873   5.473  10.375  0.1897  0.1307 -0.2998
   38MOL0     C 5005   8.820   5.617  10.369 -0.0142 -0.4375 -0.6487
   38MOL0     C 5006   8.938   5.708  10.330  0.2874  0.2244 -0.3961
   38MOL0     C 5007   8.893   5.853  10.355  0.3152 -0.3263  0.4384
   38MOL0     C 5008   8.976   5.972  10.292  0.1869 -0.0090  0.8913
   38MOL0     C 5009   8.942   6.118  10.349  0.4938  0.5718  1.3526
   38MOL0     C 5010   9.012   6.223  10.266 -0.0323  0.2429 -0.6621
   38MOL0     C 5011   9.005   6.377  10.321  0.1632  0.8897  0.1235
   38MOL0     N 5012   9.068   6.376  10.457  0.0908 -0.1020 -0.6668
   38MOL0     C 5013   9.201   6.382  10.482  0.1658  0.7514 -0.5924
   38MOL0     C 5014   9.211   6.392  10.616 -0.3621 -0.3771 -0.7931
   38MOL0     C 5015   9.343   6.407  10.680  0.3517  0.1057  0.0649
   38MOL0     C 5016   9.415   6.554  10.678  0.5923 -0.1560  0.4954
   38MOL0     C 5017   9.327   6.657  10.744 -0.7384  0.5852  0.4880
   38MOL0     C 5018   9.300   6.622  10.888 -0.2065  0.0295  0.6563
   38MOL0     O 5019   9.245   6.729  10.957 -0.3429 -0.1768  0.0372
   38MOL0     C 5020   9.107   6.733  10.972 -0.5912 -0.2151 -0.0892
   38MOL0     C 5021   9.063   6.782  11.095  0.0662  0.3715 -0.3941
   38MOL0     C 5022   8.925   6.811  11.111  0.2739  0.1655 -1.1622
   38MOL0     C 5023   8.832   6.779  11.021  1.0972  0.4163 -0.2533
   38MOL0     C 5024   8.688   6.788  11.054 -0.3037 -0.7396  0.4385
   38MOL0     O 5025   8.656   6.881  11.160 -0.7046  0.5732  0.2855
   38MOL0     C 5026   8.527   6.884  11.194  0.6313 -0.2950 -0.0407
   38MOL0     C 5027   8.461   6.766  11.244 -0.5306  0.8954  0.6375
   38MOL0     C 5028   8.337   6.777  11.299 -0.3907 -0.2594 -0.1108
   38MOL0     C 5029   8.275   6.905  11.324 -0.9844  0.2613  0.2244
   38MOL0     O 5030   8.161   6.930  11.395 -0.8527 -0.2507  0.9936
   38MOL0     C 5031   8.074   6.816  11.409  0.0239  0.3106  0.9926
   38MOL0     C 5032   7.934   6.883  11.401 -1.0972  0.2333  0.7659
   38MOL0     C 5033   7.834   6.776  11.427  0.7801  0.1245  0.3858
   38MOL0     C 5034   7.697   6.846  11.452  0.9914 -0.3597  0.3901
   38MOL0     C 5035   7.592   6.743  11.463 -0.6338 -0.3280 -0.1673
   38MOL0     C 5036   7.461   6.812  11.490  0.6181  0.2406  1.1077
   38MOL0     C 5037   7.336   6.735  11.528 -1.1515 -0.6374 -0.0951
   38MOL0     C 5038   7.265   6.678  11.415 -0.0716 -0.0692 -0.5101
   38MOL0    Cl 5039   7.158   6.806  11.332 -0.1730 -0.3425 -0.2806
   38MOL0     C 5040   8.345   7.023  11.275  0.5024 -0.8307  0.1761
   38MOL0     C 5041   8.465   7.010  11.211  0.4640  0.4320 -0.2673
   38MOL0     O 5042   8.598   6.739  10.991 -0.5153 -0.4871  0.2780
   38MOL0     C 5043   8.881   6.722  10.901 -0.2446  0.6386 -0.3385
   38MOL0     C 5044   9.019   6.705  10.878 -0.5320 -0.7067  0.1807
   38MOL0     N 5045   9.085   6.415  10.671 -0.2984  0.1659 -0.0355
   38MOL0     N 5046   9.003   6.406  10.573 -1.1673  0.5502 -0.8193
   38MOL0     C 5047   8.930   5.201  10.476  0.6578  0.3669 -0.0713
   38MOL0     C 5048   8.913   5.074  10.540 -0.7615  0.1408 -0.7209
   38MOL0     C 5049   8.771   4.808  10.879 -0.3286  0.8948  0.0497
   38MOL0     C 5050   8.654   4.791  10.959 -0.5126  0.6037 -0.3071
   38MOL0     C 5051   8.614   4.676  11.005 -0.1911  0.3988 -0.0165
   38MOL0     C 5052   8.692   4.560  10.979 -0.0826 -0.9508 -0.6031
   38MOL0     O 5053   8.671   4.437  11.048  0.0748 -0.7147  0.8264
   38MOL0     C 5054   8.543   4.418  11.113 -0.0939  0.4336 -0.0503
   38MOL0     C 5055   8.534   4.268  11.149  0.5724  0.3331 -0.3526
   38MOL0     C 5056   8.626   4.239  11.266 -0.1702  0.0811  0.7318
   38MOL0     C 5057   8.593   4.101  11.312  0.1013 -0.0221 -0.0259
   38MOL0     C 5058   8.689   4.059  11.422  0.8002 -1.0131  0.1698
   38MOL0     C 5059   8.748   4.030  11.528 -0.3911  0.2318 -0.1354
   38MOL0     C 5060   8.805   4.570  10.901 -0.9143 -0.0774  0.6521
   38MOL0     C 5061   8.846   4.688  10.846  0.4112 -0.2459 -0.6267
   38MOL0     C 5062   8.981   4.681  10.777 -1.0253 -0.1131  0.3443
   38MOL0     H 5063   8.951   5.168  10.868  1.3800  1.0815  0.4774
   38MOL0     H 5064   8.963   5.407  10.739 -0.9171 -0.0497  1.1212
   38MOL0     H 5065   8.929   5.451  10.284 -2.4869 -0.7096 -1.8718
   38MOL0     H 5066   8.791   5.401  10.365 -0.1878  0.5420 -0.1843
   38MOL0     H 5067   8.779   5.658  10.462 -0.3388  1.6032 -1.6406
   38MOL0     H 5068   8.742   5.619  10.292 -1.2108  4.8678  0.2958
   38MOL0     H 5069   8.974   5.699  10.227  0.8837  0.9790 -0.2628
   38MOL0     H 5070   9.022   5.686  10.396 -2.4478 -1.4123  2.8753
   38MOL0     H 5071   8.795   5.869  10.308  0.7645  2.5544  0.3165
   38MOL0     H 5072   8.878   5.877  10.460 -2.0500  1.3056 -0.1613
   38MOL0     H 5073   9.082   5.948  10.284 -0.2821 -2.1556  0.6662
   38MOL0     H 5074   8.949   5.968  10.186  0.1980 -0.0659  0.8906
   38MOL0     H 5075   8.834   6.136  10.347 -0.1269 -2.1792  3.0450
   38MOL0     H 5076   8.974   6.117  10.454 -0.6063  0.0621  1.6983
   38MOL0     H 5077   8.975   6.222  10.163 -0.7312  0.9397 -0.4276
   38MOL0     H 5078   9.116   6.189  10.268 -0.7168 -2.2067  2.7499
   38MOL0     H 5079   9.055   6.445  10.251  3.4597 -0.9636  0.4915
   38MOL0     H 5080   8.901   6.403  10.344 -0.2294 -0.3665 -0.1244
   38MOL0     H 5081   9.282   6.393  10.410 -0.3887  4.0569 -0.8435
   38MOL0     H 5082   9.351   6.367  10.782  3.7778  0.2701 -0.0321
   38MOL0     H 5083   9.410   6.336  10.631 -0.1384 -0.3357  0.0174
   38MOL0     H 5084   9.510   6.546  10.731  0.6660  0.0311  0.3916
   38MOL0     H 5085   9.428   6.575  10.571 -0.7681 -1.8216 -0.0448
   38MOL0     H 5086   9.234   6.670  10.689 -3.0178  0.9069  4.0758
   38MOL0     H 5087   9.385   6.749  10.728  1.3061 -0.2892  2.2945
   38MOL0     H 5088   9.396   6.592  10.929  1.2474  0.6368 -2.0580
   38MOL0     H 5089   9.237   6.532  10.893 -2.6444  1.5299 -0.6916
   38MOL0     H 5090   9.137   6.820  11.165 -1.8717  0.8294  1.5329
   38MOL0     H 5091   8.902   6.865  11.202  2.5725 -0.1617 -0.3277
   38MOL0     H 5092   8.508   6.669  11.237 -0.1652  1.1711 -1.2876
   38MOL0     H 5093   8.315   6.683  11.348  4.3326 -1.2683  0.5060
   38MOL0     H 5094   8.078   6.745  11.326  1.4864 -0.0372  1.3260
   38MOL0     H 5095   8.096   6.771  11.507  0.6294 -1.9214 -0.0985
   38MOL0     H 5096   7.915   6.970  11.464 -0.8276  1.4851 -0.8096
   38MOL0     H 5097   7.932   6.916  11.297  3.0575  1.7333  0.9758
   38MOL0     H 5098   7.829   6.709  11.341 -0.0287 -1.9189  1.9425
   38MOL0     H 5099   7.864   6.714  11.512  1.2910 -1.6499 -1.0315
   38MOL0     H 5100   7.674   6.910  11.366  0.1032  2.5472  2.6280
   38MOL0     H 5101   7.688   6.912  11.538 -1.0438  0.2689 -0.2517
   38MOL0     H 5102   7.616   6.678  11.548  1.0710 -1.7182 -1.6400
   38MOL0     H 5103   7.572   6.681  11.375 -0.9220 -1.0147  0.3647
   38MOL0     H 5104   7.481   6.875  11.576 -1.8220  0.1289  1.8327
   38MOL0     H 5105   7.437   6.871  11.401 -3.9484 -2.1904  0.3999
   38MOL0     H 5106   7.271   6.805  11.581 -1.1794  1.3621 -2.5561
   38MOL0     H 5107   7.376   6.654  11.589  2.8422  1.0979 -0.0492
   38MOL0     H 5108   7.333   6.644  11.337 -0.6171 -1.5355 -0.3870
   38MOL0     H 5109   7.189   6.604  11.440 -1.2636  0.7551 -1.5630
   38MOL0     H 5110   8.289   7.115  11.287 -1.6241 -2.0276 -0.0852
   38MOL0     H 5111   8.512   7.094  11.161 -0.8543 -0.2834 -2.9138
   38MOL0     H 5112   8.811   6.694  10.823 -3.2778 -2.1786  3.0328
   38MOL0     H 5113   9.043   6.648  10.789  0.7036 -2.5113  1.5972
   38MOL0     H 5114   8.930   5.210  10.368 -2.3786  0.4997 -0.1385
   38MOL0     H 5115   8.912   4.976  10.494  1.0723  0.4966 -1.5950
   38MOL0     H 5116   8.602   4.874  11.006 -0.5076  0.0390  0.7275
   38MOL0     H 5117   8.534   4.656  11.076 -1.9055  1.3425 -1.5992
   38MOL0     H 5118   8.461   4.444  11.045 -0.2763 -1.3642 -0.5658
   38MOL0     H 5119   8.518   4.473  11.204 -2.0379  0.7830 -0.7464
   38MOL0     H 5120   8.560   4.199  11.068  0.2935  1.5990 -1.5822
   38MOL0     H 5121   8.434   4.240  11.185  1.4319 -2.9571 -0.2440
   38MOL0     H 5122   8.622   4.313  11.347  2.7577 -1.5453  2.5285
   38MOL0     H 5123   8.731   4.227  11.235 -0.0061 -1.4125  1.7741
   38MOL0     H 5124   8.492   4.101  11.355  0.1098  1.1754  0.0309
   38MOL0     H 5125   8.596   4.027  11.232  0.3770 -0.8263  0.7027
   38MOL0     H 5126   8.814   4.005  11.610 -0.6484  0.2238  0.0686
   38MOL0     H 5127   8.850   4.476  10.873 -0.7731 -0.1901  1.2577
   38MOL0     H 5128   9.063   4.688  10.849  0.0087  1.0322 -0.8910
   38MOL0     H 5129   8.993   4.587  10.721 -2.1485  0.6125 -1.1911
   38MOL0     H 5130   9.002   4.755  10.700 -2.4250 -0.2277 -0.1804
   39MOL0     O 5131   6.071   3.728   3.467 -0.5832 -0.1250  0.5504
   39MOL0     C 5132   6.109   3.654   3.565  1.0373 -0.0392 -0.0805
   39MOL0     O 5133   6.153   3.521   3.559  0.4138 -0.7747 -0.7060
   39MOL0     C 5134   6.217   3.491   3.436 -0.0701  0.4685 -0.6616
   39MOL0     C 5135   6.182   3.365   3.383 -0.1765 -0.3744 -0.6582
   39MOL0     C 5136   6.232   3.336   3.258 -0.3841 -0.2000 -0.6808
   39MOL0     C 5137   6.333   3.410   3.198 -0.0759 -0.3927  0.0110
   39MOL0     O 5138   6.387   3.347   3.085 -0.3040 -0.9246 -0.4325
   39MOL0     C 5139   6.460   3.425   2.990  0.6085  0.2864 -0.2951
   39MOL0     C 5140   6.517   3.347   2.868  0.2550  0.6486  0.2885
   39MOL0     C 5141   6.415   3.250   2.807  0.8142 -0.5426 -0.6813
   39MOL0     C 5142   6.289   3.322   2.750 -0.5704 -0.6125  0.7872
   39MOL0     C 5143   6.179   3.224   2.698 -0.2748 -0.7807  0.7059
   39MOL0     C 5144   6.134   3.106   2.784 -0.5461  0.4377  0.4377
   39MOL0     C 5145   6.068   3.156   2.913  0.1981 -0.8322  0.3062
   39MOL0     C 5146   6.047   3.028   3.001  0.7769  0.5320 -0.1677
   39MOL0     N 5147   5.952   3.048   3.114  0.0661  0.1560  0.1520
   39MOL0     C 5148   5.847   2.966   3.132 -0.3437  0.2321  0.6866
   39MOL0     C 5149   5.802   3.005   3.256 -0.4097  0.5202  0.8844
   39MOL0     C 5150   5.694   2.914   3.318 -0.2769 -0.7809  0.5030
   39MOL0     C 5151   5.729   2.878   3.460 -0.9236 -0.7462  0.4500
   39MOL0     C 5152   5.660   2.765   3.529 -0.2625  0.9138  0.6068
   39MOL0     C 5153   5.714   2.618   3.494 -0.3929 -1.1447  0.1450
   39MOL0     O 5154   5.684   2.576   3.363 -0.2340  0.2024 -0.0839
   39MOL0     C 5155   5.771   2.587   3.265 -0.2866 -0.8928  0.1399
   39MOL0     C 5156   5.893   2.655   3.258 -0.4223  0.1858  0.9378
   39MOL0     C 5157   5.967   2.656   3.136 -1.3592  0.2530  0.2310
   39MOL0     C 5158   5.926   2.591   3.017 -0.5090 -0.2596 -0.0893
   39MOL0     C 5159   5.984   2.615   2.884 -0.2296  0.6727 -0.0724
   39MOL0     O 5160   6.098   2.700   2.887 -0.1541 -0.0382  0.1507
   39MOL0     C 5161   6.179   2.693   2.778 -0.3628  0.8214  0.4423
   39MOL0     C 5162   6.157   2.771   2.668  0.0269  0.5702  0.7069
   39MOL0     C 5163   6.237   2.763   2.549  0.1184  0.5993  1.0205
   39MOL0     C 5164   6.342   2.666   2.549  0.2286 -0.0300 -0.4750
   39MOL0     O 5165   6.431   2.673   2.445  0.1308 -0.0259 -0.1321
   39MOL0     C 5166   6.529   2.572   2.434  0.0502 -1.0481 -0.1991
   39MOL0     C 5167   6.562   2.560   2.287  0.2129  0.1785  0.1483
   39MOL0     C 5168   6.602   2.698   2.231  0.5182 -0.5349  0.8679
   39MOL0     C 5169   6.683   2.681   2.112  0.0727 -0.5259 -0.1025
   39MOL0     C 5170   6.715   2.824   2.059  0.3506  0.4352 -0.8205
   39MOL0     C 5171   6.775   2.817   1.918  0.6132  0.1592  0.2662
   39MOL0     C 5172   6.828   2.948   1.871 -0.3753 -0.8161 -0.7391
   39MOL0     C 5173   6.752   3.075   1.905  0.2174  0.7205  0.2169
   39MOL0    Cl 5174   6.848   3.226   1.863  0.3507 -0.3273  0.4120
   39MOL0     C 5175   6.368   2.583   2.658 -1.0755 -0.1908  0.1426
   39MOL0     C 5176   6.291   2.597   2.772  0.7502 -0.5304 -0.9817
   39MOL0     O 5177   5.939   2.559   2.791  0.2116  0.6304 -0.8783
   39MOL0     C 5178   5.807   2.533   3.027  0.2768  0.3480  0.4899
   39MOL0     C 5179   5.732   2.526   3.146 -0.0045 -1.3296  0.4085
   39MOL0     N 5180   5.856   3.126   3.290  0.0451  0.2173 -0.8161
   39MOL0     N 5181   5.950   3.148   3.206 -0.4330  0.5480  0.1181
   39MOL0     C 5182   6.374   3.535   3.257 -0.4375  0.0583 -0.5989
   39MOL0     C 5183   6.313   3.581   3.372  0.1239 -0.6221 -0.8162
   39MOL0     C 5184   6.086   3.730   3.697  0.0452  0.1684  0.7929
   39MOL0     C 5185   6.083   3.875   3.690 -0.4929  0.0364 -0.6691
   39MOL0     C 5186   6.072   3.953   3.809 -0.0271 -0.0654 -0.0436
   39MOL0     C 5187   6.062   3.890   3.936 -0.9644  0.2298  0.0070
   39MOL0     O 5188   6.065   3.979   4.031 -1.3593  0.0511 -0.3796
   39MOL0     C 5189   6.078   3.948   4.170 -0.8397  0.5413 -0.4646
   39MOL0     C 5190   6.234   3.929   4.186  0.2143  0.1999 -0.1488
   39MOL0     C 5191   6.288   3.927   4.331  0.9451 -0.2965  0.7089
   39MOL0     C 5192   6.283   4.068   4.404 -0.5933  0.5738  0.1966
   39MOL0     C 5193   6.313   4.035   4.547 -0.1638  0.0059 -0.4392
   39MOL0     C 5194   6.351   4.011   4.654  0.7580  0.2690 -0.5751
   39MOL0     C 5195   6.066   3.747   3.945  0.1496 -0.4010 -0.6250
   39MOL0     C 5196   6.077   3.669   3.820 -0.2389  0.4331 -0.7565
   39MOL0     C 5197   6.099   3.531   3.833  0.1557  0.4629 -0.3940
   39MOL0     H 5198   6.117   3.308   3.449  1.6517 -1.4646  0.2802
   39MOL0     H 5199   6.207   3.246   3.203 -2.1590 -1.6970  2.2909
   39MOL0     H 5200   6.395   3.504   2.950  0.0674  0.6290  1.2126
   39MOL0     H 5201   6.544   3.476   3.037  1.3490 -1.9608  0.9804
   39MOL0     H 5202   6.610   3.299   2.900 -0.1301 -1.1199 -1.0909
   39MOL0     H 5203   6.551   3.413   2.789  5.5723  1.1936  2.6149
   39MOL0     H 5204   6.374   3.176   2.877 -1.2014  1.3388  0.2268
   39MOL0     H 5205   6.467   3.195   2.728  2.0088 -0.5202  0.0553
   39MOL0     H 5206   6.248   3.395   2.820 -1.2015  0.0840 -0.2791
   39MOL0     H 5207   6.310   3.396   2.672 -0.2963  0.9591  2.3084
   39MOL0     H 5208   6.096   3.289   2.669 -0.4014 -1.4275 -0.4433
   39MOL0     H 5209   6.211   3.175   2.605 -3.2375 -1.3740 -0.1218
   39MOL0     H 5210   6.059   3.058   2.721  0.7718 -1.1266 -0.0099
   39MOL0     H 5211   6.208   3.032   2.814 -1.3246  0.3298  2.1932
   39MOL0     H 5212   5.965   3.190   2.901  0.8398  0.9413 -0.4585
   39MOL0     H 5213   6.125   3.234   2.966 -1.9059  0.4638  0.7893
   39MOL0     H 5214   5.992   2.965   2.931  0.3772 -0.4563  0.9887
   39MOL0     H 5215   6.137   2.970   3.024  1.8651  1.3954 -2.0229
   39MOL0     H 5216   5.819   2.885   3.066  0.1170 -0.5416  1.4197
   39MOL0     H 5217   5.587   2.936   3.315 -1.0783 -4.1958 -1.4798
   39MOL0     H 5218   5.691   2.823   3.258  1.6115 -1.1039  0.8335
   39MOL0     H 5219   5.837   2.861   3.456 -0.3055  2.5483  0.5254
   39MOL0     H 5220   5.710   2.968   3.518 -0.4898  0.4524 -1.1705
   39MOL0     H 5221   5.553   2.773   3.507  0.5749  4.4123 -3.9332
   39MOL0     H 5222   5.667   2.767   3.638 -1.7400  0.7833  0.7289
   39MOL0     H 5223   5.664   2.549   3.562 -0.3946 -1.1013  0.1884
   39MOL0     H 5224   5.822   2.612   3.512 -0.4318  0.2529  1.0197
   39MOL0     H 5225   5.938   2.713   3.339 -0.1500 -0.1213  1.0074
   39MOL0     H 5226   6.048   2.725   3.120 -1.4814 -0.0399 -1.9730
   39MOL0     H 5227   6.066   2.829   2.655 -0.5450 -0.6842 -1.5702
   39MOL0     H 5228   6.232   2.837   2.470 -4.0017  0.3353  0.8389
   39MOL0     H 5229   6.622   2.581   2.491 -1.7434 -2.1698  3.2124
   39MOL0     H 5230   6.482   2.476   2.459 -2.8782 -0.0799 -1.6218
   39MOL0     H 5231   6.635   2.483   2.259 -0.3336  0.0487 -0.9715
   39MOL0     H 5232   6.472   2.527   2.234  0.6251 -0.4694 -0.1667
   39MOL0     H 5233   6.519   2.767   2.213  0.2303 -0.9190  0.7018
   39MOL0     H 5234   6.662   2.758   2.300 -1.0543  2.6679 -0.3529
   39MOL0     H 5235   6.642   2.620   2.032  5.4247 -1.5233 -2.5309
   39MOL0     H 5236   6.779   2.644   2.149  2.0884  2.2203 -2.1440
   39MOL0     H 5237   6.770   2.877   2.137 -2.1442  0.3710  1.1174
   39MOL0     H 5238   6.623   2.884   2.054  0.4143  0.4207 -2.3995
   39MOL0     H 5239   6.856   2.743   1.918  1.2351  0.7658  2.7843
   39MOL0     H 5240   6.703   2.773   1.849  0.0375 -1.2092  1.6772
   39MOL0     H 5241   6.841   2.960   1.763 -3.6120 -1.1059 -1.2532
   39MOL0     H 5242   6.929   2.962   1.908 -1.8074  3.5839  2.2962
   39MOL0     H 5243   6.661   3.083   1.845 -0.9904 -0.3822  1.8185
   39MOL0     H 5244   6.719   3.081   2.009  3.0218 -0.7589  1.2999
   39MOL0     H 5245   6.451   2.513   2.660 -0.5896  0.3930  0.8614
   39MOL0     H 5246   6.287   2.539   2.864  0.1259  1.3829  0.2629
   39MOL0     H 5247   5.784   2.457   2.952  1.7672 -0.9314  1.2643
   39MOL0     H 5248   5.641   2.470   3.127 -0.0519 -0.9903 -0.4408
   39MOL0     H 5249   6.451   3.588   3.202 -0.6275 -0.8222 -1.7486
   39MOL0     H 5250   6.322   3.680   3.414 -3.1802 -0.6341  0.1421
   39MOL0     H 5251   6.094   3.943   3.607  0.9536  0.6150 -0.0237
   39MOL0     H 5252   6.079   4.062   3.803  1.6017  0.0983  3.1431
   39MOL0     H 5253   6.022   3.864   4.211  1.2826 -1.2805 -1.0900
   39MOL0     H 5254   6.063   4.032   4.239  1.5736 -0.1004  0.9890
   39MOL0     H 5255   6.281   4.013   4.134  0.4979  1.4267  1.9529
   39MOL0     H 5256   6.264   3.835   4.140  1.3605 -0.1344  1.2147
   39MOL0     H 5257   6.392   3.898   4.316  1.2350  0.4635  1.2017
   39MOL0     H 5258   6.250   3.845   4.393  2.4510  0.6209  3.0077
   39MOL0     H 5259   6.367   4.132   4.376 -0.5980  1.2729  1.6797
   39MOL0     H 5260   6.186   4.117   4.396  0.3847  2.2182 -2.8222
   39MOL0     H 5261   6.385   4.003   4.755  1.7789 -3.6632 -1.0897
   39MOL0     H 5262   6.084   3.693   4.037 -0.4191 -0.2109 -0.4020
   39MOL0     H 5263   6.020   3.472   3.785 -0.3859 -0.3395  1.4046
   39MOL0     H 5264   6.199   3.505   3.794 -0.6946  1.4366 -3.4755
   39MOL0     H 5265   6.099   3.497   3.937  3.1175 -0.1129 -0.4943
   40MOL0     O 5266   0.172  10.444   5.777  0.0061 -0.1165  0.9217
   40MOL0     C 5267   0.220  10.426   5.890  0.0008  1.0121 -0.1536
   40MOL0     O 5268   0.352  10.390   5.920  0.6078 -0.0761  0.3735
   40MOL0     C 5269   0.406  10.292   5.843  0.6232  0.3763 -0.6363
   40MOL0     C 5270   0.356  10.159   5.846 -0.3113 -0.4833  0.0475
   40MOL0     C 5271   0.395  10.064   5.755  0.0247 -0.7487 -0.3094
   40MOL0     C 5272   0.484  10.097   5.662 -0.4661  0.8242 -0.0999
   40MOL0     O 5273   0.507  10.009   5.561  0.1997 -0.2419 -0.3501
   40MOL0     C 5274   0.589  10.045   5.445  0.2414 -0.5137  0.2166
   40MOL0     C 5275   0.617   9.914   5.367  0.4181  0.4514  0.2600
   40MOL0     C 5276   0.762   9.893   5.313  0.6865  0.1337 -0.0743
   40MOL0     C 5277   0.785   9.960   5.177 -0.3014 -0.0591  0.3189
   40MOL0     C 5278   0.697   9.896   5.058 -0.5121 -0.5229  0.5176
   40MOL0     C 5279   0.719   9.738   5.057 -0.5851  0.5118  0.3864
   40MOL0     C 5280   0.683   9.659   4.928 -0.1522  0.0032 -0.5369
   40MOL0     C 5281   0.794   9.651   4.822 -0.0229 -0.6552  0.0658
   40MOL0     N 5282   0.786   9.759   4.713 -0.1677  0.0462  0.0127
   40MOL0     C 5283   0.884   9.846   4.676  0.1992  0.3503 -0.2886
   40MOL0     C 5284   0.838   9.910   4.569 -0.2587  0.3438 -0.9513
   40MOL0     C 5285   0.914  10.005   4.481 -0.4200 -0.6597 -0.1048
   40MOL0     C 5286   1.042   9.943   4.414 -0.4288 -0.3504 -0.4315
   40MOL0     C 5287   1.148   9.899   4.507  1.4145 -0.0063  0.0263
   40MOL0     C 5288   1.280   9.893   4.442  0.1912  0.4558  1.1329
   40MOL0     O 5289   1.386   9.863   4.524 -0.4522 -1.1845 -0.0025
   40MOL0     C 5290   1.514   9.827   4.486  0.5039  0.6415 -0.1635
   40MOL0     C 5291   1.612   9.818   4.585 -1.1905 -0.2146  0.8158
   40MOL0     C 5292   1.749   9.795   4.548 -0.3953  0.3141  0.5618
   40MOL0     C 5293   1.779   9.764   4.411 -0.2378  0.5074  0.7192
   40MOL0     C 5294   1.917   9.722   4.372 -0.1409  1.2571 -0.1971
   40MOL0     O 5295   2.013   9.712   4.466 -0.2678 -0.0899  0.3597
   40MOL0     C 5296   2.146   9.686   4.431 -0.2624 -0.1835 -0.8645
   40MOL0     C 5297   2.244   9.740   4.515  0.6071  0.7725 -0.1067
   40MOL0     C 5298   2.380   9.704   4.485  0.5502  0.3102 -0.3730
   40MOL0     C 5299   2.415   9.620   4.380  0.4693  0.2205  1.1066
   40MOL0     O 5300   2.545   9.594   4.337 -0.1042 -0.7105  0.0220
   40MOL0     C 5301   2.632   9.543   4.442 -0.3695  0.3189  1.0907
   40MOL0     C 5302   2.765   9.625   4.448  0.3615  0.1513 -0.6824
   40MOL0     C 5303   2.855   9.611   4.580  0.1916  0.4051  0.2792
   40MOL0     C 5304   2.775   9.607   4.713  0.3435 -0.5570  0.2386
   40MOL0     C 5305   2.860   9.613   4.843 -0.0266 -1.0044 -0.2983
   40MOL0     C 5306   2.936   9.750   4.863 -0.9028 -1.3061 -0.1375
   40MOL0     C 5307   2.969   9.785   5.011 -0.0520  0.9904 -0.0606
   40MOL0     C 5308   3.038   9.664   5.080 -0.9199  0.6697 -0.3855
   40MOL0    Cl 5309   3.133   9.739   5.213  0.0374  0.0828 -0.1463
   40MOL0     C 5310   2.320   9.548   4.320  0.1986 -0.2538 -0.3515
   40MOL0     C 5311   2.185   9.586   4.341 -0.2368  0.1209  0.7155
   40MOL0     O 5312   1.935   9.699   4.255  0.1779 -0.6347 -0.0265
   40MOL0     C 5313   1.678   9.764   4.315 -0.1384 -1.1846 -0.3323
   40MOL0     C 5314   1.550   9.793   4.351  0.6328  0.0988  0.1044
   40MOL0     N 5315   0.716   9.861   4.556  0.4304  0.5210  0.8150
   40MOL0     N 5316   0.671   9.770   4.644 -0.9291 -0.2125  0.3598
   40MOL0     C 5317   0.545  10.222   5.671 -0.1578  0.7287 -0.3071
   40MOL0     C 5318   0.511  10.324   5.754  0.3028  0.4423  0.2968
   40MOL0     C 5319   0.133  10.473   6.002 -0.6411  0.2532 -0.0145
   40MOL0     C 5320   0.172  10.455   6.136  0.0690  0.2347  0.1445
   40MOL0     C 5321   0.110  10.508   6.244 -1.2881  0.5905  0.8535
   40MOL0     C 5322  -0.002  10.586   6.224  0.3975  0.5244  0.0947
   40MOL0     O 5323  -0.063  10.675   6.316 -1.0061  0.6831 -0.3890
   40MOL0     C 5324  -0.060  10.651   6.456  0.4567  0.9755  0.0825
   40MOL0     C 5325  -0.130  10.755   6.546 -0.0564 -1.0704 -0.3898
   40MOL0     C 5326  -0.279  10.736   6.536 -0.2194  0.1653 -0.1981
   40MOL0     C 5327  -0.363  10.847   6.592  0.5724  0.9002  0.6815
   40MOL0     C 5328  -0.487  10.808   6.666  0.0162  0.3775  0.6779
   40MOL0     C 5329  -0.593  10.780   6.720 -0.2491 -0.8255  0.5125
   40MOL0     C 5330  -0.040  10.618   6.085  0.6875  0.5909 -0.4751
   40MOL0     C 5331   0.024  10.559   5.980 -0.8748 -0.0452 -0.7745
   40MOL0     C 5332  -0.027  10.600   5.839 -1.4024 -0.3433 -1.0441
   40MOL0     H 5333   0.267  10.139   5.905 -1.4177 -3.0476 -2.2751
   40MOL0     H 5334   0.366   9.960   5.762 -1.4887 -0.4126 -1.1351
   40MOL0     H 5335   0.520  10.105   5.385  0.9320  0.7370  0.6446
   40MOL0     H 5336   0.683  10.099   5.459 -0.0813  0.0669  0.1690
   40MOL0     H 5337   0.542   9.893   5.290  0.6609  1.8708 -0.3776
   40MOL0     H 5338   0.606   9.827   5.433 -0.6652 -1.9818 -2.8659
   40MOL0     H 5339   0.766   9.784   5.304 -2.1428  0.0596 -1.7082
   40MOL0     H 5340   0.833   9.935   5.385 -1.6391 -1.5145  3.5102
   40MOL0     H 5341   0.771  10.068   5.181  1.3979  0.1643  2.1251
   40MOL0     H 5342   0.892   9.944   5.162  0.0489 -1.6086  3.5393
   40MOL0     H 5343   0.592   9.911   5.084 -1.6278 -2.9518 -1.9922
   40MOL0     H 5344   0.715   9.939   4.959  0.7884 -3.6565 -0.7790
   40MOL0     H 5345   0.822   9.716   5.085 -1.3484 -0.1021  2.9820
   40MOL0     H 5346   0.656   9.687   5.130 -3.2594 -0.7015 -2.5201
   40MOL0     H 5347   0.584   9.685   4.889 -1.2489 -3.1418 -0.1421
   40MOL0     H 5348   0.658   9.556   4.956 -2.7085 -0.0617 -2.6060
   40MOL0     H 5349   0.888   9.675   4.872 -0.2231  2.5840 -0.9055
   40MOL0     H 5350   0.794   9.547   4.787  2.8223 -1.0794  1.0718
   40MOL0     H 5351   0.985   9.853   4.714  0.4426 -2.1123 -0.3159
   40MOL0     H 5352   0.856  10.048   4.399 -1.4319  1.0746  1.4471
   40MOL0     H 5353   0.941  10.088   4.547  0.1061  0.5190 -1.7277
   40MOL0     H 5354   1.005   9.851   4.368 -1.5001  0.9902 -2.4600
   40MOL0     H 5355   1.088  10.004   4.335  1.6774 -1.7539 -0.3350
   40MOL0     H 5356   1.129   9.799   4.547  3.4385  0.5563  2.6963
   40MOL0     H 5357   1.146   9.964   4.595 -0.3618  0.8233 -0.5846
   40MOL0     H 5358   1.298   9.987   4.388  0.7366 -0.0668  0.3918
   40MOL0     H 5359   1.279   9.810   4.371 -0.5483 -2.9738  4.8293
   40MOL0     H 5360   1.596   9.855   4.685 -2.7116  2.9795 -0.4675
   40MOL0     H 5361   1.819   9.791   4.631  0.1868  0.1133  0.0726
   40MOL0     H 5362   2.218   9.801   4.601  0.1130  0.8738 -0.3256
   40MOL0     H 5363   2.454   9.746   4.552  1.5127  1.1316 -1.9046
   40MOL0     H 5364   2.590   9.554   4.543 -0.2696  3.2956  0.9024
   40MOL0     H 5365   2.661   9.443   4.413  0.4018  0.8507 -0.0104
   40MOL0     H 5366   2.829   9.604   4.361 -1.4129 -0.8460 -1.8107
   40MOL0     H 5367   2.739   9.731   4.441  2.2370  0.7683  0.7491
   40MOL0     H 5368   2.908   9.517   4.563 -1.3172 -0.1926 -1.4857
   40MOL0     H 5369   2.934   9.686   4.577 -0.4112  1.0438 -0.0537
   40MOL0     H 5370   2.720   9.513   4.722  2.2770 -1.6490  1.3500
   40MOL0     H 5371   2.701   9.686   4.700  0.2662 -1.0126 -2.9534
   40MOL0     H 5372   2.920   9.523   4.858  1.9282 -0.0794 -1.9828
   40MOL0     H 5373   2.780   9.611   4.918 -2.2149  2.1946 -2.3148
   40MOL0     H 5374   3.026   9.766   4.803 -0.7135  0.1517  0.5125
   40MOL0     H 5375   2.874   9.830   4.821 -0.7469 -0.0924  1.8426
   40MOL0     H 5376   2.865   9.785   5.045  0.5458 -0.8841  2.0038
   40MOL0     H 5377   3.021   9.880   5.026 -2.6033  2.4391  0.2077
   40MOL0     H 5378   2.994   9.568   5.106  2.1256 -0.6149  0.5370
   40MOL0     H 5379   3.116   9.630   5.012  1.5436  0.0402  2.5249
   40MOL0     H 5380   2.353   9.469   4.253  2.3824 -1.3531  1.8429
   40MOL0     H 5381   2.111   9.526   4.289 -1.0673 -0.6071  2.6616
   40MOL0     H 5382   1.708   9.721   4.220  0.6094  2.3192 -1.8608
   40MOL0     H 5383   1.473   9.783   4.274  0.4648  2.5112 -0.1037
   40MOL0     H 5384   0.632  10.242   5.609 -0.5206  0.9215 -0.7665
   40MOL0     H 5385   0.561  10.421   5.751 -0.5016  0.9275 -4.0253
   40MOL0     H 5386   0.263  10.395   6.145 -0.1275 -0.8420 -3.5915
   40MOL0     H 5387   0.154  10.492   6.342  0.0192 -1.0641  0.0456
   40MOL0     H 5388   0.045  10.636   6.482  0.7965 -0.6126 -1.9335
   40MOL0     H 5389  -0.092  10.547   6.470  3.1990  0.2655  1.9210
   40MOL0     H 5390  -0.088  10.853   6.519 -0.4358 -0.1912  1.9469
   40MOL0     H 5391  -0.100  10.753   6.651 -0.9621  0.3806 -0.0736
   40MOL0     H 5392  -0.313  10.649   6.593 -0.7874  0.8847  0.5802
   40MOL0     H 5393  -0.303  10.731   6.429  2.7177  1.9054 -1.0408
   40MOL0     H 5394  -0.301  10.909   6.658  2.5259 -0.6014  0.3181
   40MOL0     H 5395  -0.401  10.903   6.506  0.7927  0.8971  0.5818
   40MOL0     H 5396  -0.688  10.749   6.757 -0.4741  0.1320  0.7682
   40MOL0     H 5397  -0.127  10.680   6.067  1.4859  2.0135  0.3977
   40MOL0     H 5398   0.063  10.640   5.793 -1.0632 -1.6748 -1.5783
   40MOL0     H 5399  -0.064  10.514   5.782 -1.1280 -0.0260 -1.7113
   40MOL0     H 5400  -0.097  10.684   5.832  0.9674  1.7739 -0.8768
   41MOL0     O 5401   6.283   6.896   4.849 -0.1363 -0.5031  0.0225
   41MOL0     C 5402   6.318   6.990   4.777 -0.3733 -0.8695  0.3089
   41MOL0     O 5403   6.323   6.981   4.640  0.0189  0.3795  0.1532
   41MOL0     C 5404   6.291   6.860   4.581 -0.2477  0.1474  0.3414
   41MOL0     C 5405   6.162   6.841   4.526 -0.7790  0.3442 -0.4562
   41MOL0     C 5406   6.134   6.714   4.473  0.7093  0.8948 -0.3079
   41MOL0     C 5407   6.230   6.609   4.464  0.4324  0.2048  0.0866
   41MOL0     O 5408   6.220   6.493   4.396 -0.4155 -0.7762  0.2032
   41MOL0     C 5409   6.096   6.431   4.378  0.5595 -0.0986 -0.8958
   41MOL0     C 5410   6.106   6.298   4.321 -0.1967 -0.4012  0.0052
   41MOL0     C 5411   6.181   6.289   4.189 -0.3750 -0.4553  0.7942
   41MOL0     C 5412   6.190   6.141   4.143 -1.0474  0.2091  0.2970
   41MOL0     C 5413   6.297   6.131   4.031  0.3894 -0.8660  0.6204
   41MOL0     C 5414   6.338   5.988   4.001  1.1912 -0.0363  0.0534
   41MOL0     C 5415   6.449   5.966   3.901  0.1268 -0.5822  0.0593
   41MOL0     C 5416   6.498   5.822   3.859  0.0962 -0.0061  0.3737
   41MOL0     N 5417   6.612   5.784   3.951  0.9926  0.2164  0.1838
   41MOL0     C 5418   6.744   5.747   3.930  0.8706  0.3727  1.1559
   41MOL0     C 5419   6.797   5.745   4.053  0.1530 -0.5214 -0.5789
   41MOL0     C 5420   6.945   5.692   4.053 -0.0930 -0.6199  0.2191
   41MOL0     C 5421   6.950   5.579   4.163  0.4003  0.9234 -0.0487
   41MOL0     C 5422   7.095   5.532   4.176 -1.0887  1.0470 -0.4877
   41MOL0     C 5423   7.112   5.415   4.270 -0.3799 -0.6339 -0.1260
   41MOL0     O 5424   7.097   5.462   4.402  0.4045 -0.1030 -0.6755
   41MOL0     C 5425   7.117   5.365   4.500 -0.4687 -0.2597  0.3715
   41MOL0     C 5426   7.176   5.247   4.486  0.4170 -0.7360  0.6197
   41MOL0     C 5427   7.225   5.184   4.591  0.2864  0.7797  0.2081
   41MOL0     C 5428   7.189   5.234   4.721  0.0922  0.1547 -0.6099
   41MOL0     C 5429   7.244   5.155   4.839  0.1990 -0.4154 -0.0168
   41MOL0     O 5430   7.339   5.066   4.810 -0.4663 -0.1267 -0.1189
   41MOL0     C 5431   7.391   5.001   4.913 -0.1269  0.2752  0.1644
   41MOL0     C 5432   7.360   4.867   4.905 -0.2240  0.5984 -0.1687
   41MOL0     C 5433   7.426   4.772   4.983  0.8929  0.2286 -0.5644
   41MOL0     C 5434   7.518   4.812   5.082 -0.0608 -0.4784 -0.6213
   41MOL0     O 5435   7.579   4.718   5.162  0.2323 -0.1852  0.0130
   41MOL0     C 5436   7.725   4.713   5.148  0.1746 -0.1933 -0.2194
   41MOL0     C 5437   7.774   4.638   5.271 -0.7346 -0.2376 -0.2812
   41MOL0     C 5438   7.918   4.592   5.237 -0.0233 -0.2517 -0.5718
   41MOL0     C 5439   7.999   4.558   5.361  0.4840 -0.0237 -0.5558
   41MOL0     C 5440   8.147   4.523   5.324 -0.3663 -0.1192  0.4621
   41MOL0     C 5441   8.225   4.485   5.450  0.6841 -0.0435  0.6586
   41MOL0     C 5442   8.378   4.489   5.437  0.4880 -0.8352  0.2197
   41MOL0     C 5443   8.442   4.381   5.504 -0.3362  0.6832 -0.1358
   41MOL0    Cl 5444   8.407   4.224   5.422  0.3737  0.5923 -0.8441
   41MOL0     C 5445   7.545   4.949   5.090 -0.5651 -0.4242  0.0726
   41MOL0     C 5446   7.484   5.042   5.007  0.3739  1.0026  0.5466
   41MOL0     O 5447   7.188   5.177   4.951  0.1332  0.5336 -0.0068
   41MOL0     C 5448   7.106   5.345   4.736  0.1947 -0.7605  0.6869
   41MOL0     C 5449   7.081   5.417   4.621 -1.5313  0.6772  1.0634
   41MOL0     N 5450   6.703   5.750   4.149  0.7089 -0.2274  0.5026
   41MOL0     N 5451   6.594   5.769   4.088  0.2179 -0.4457  0.5653
   41MOL0     C 5452   6.351   6.643   4.521 -0.0182 -0.8769 -1.1477
   41MOL0     C 5453   6.388   6.765   4.581  0.3751 -0.6994  0.4717
   41MOL0     C 5454   6.356   7.112   4.834  0.1965 -0.4687 -1.5106
   41MOL0     C 5455   6.297   7.156   4.951  0.5426 -0.1909  0.0731
   41MOL0     C 5456   6.333   7.277   5.012 -0.2417  0.0368  0.5617
   41MOL0     C 5457   6.432   7.359   4.951 -0.6449 -0.2811 -0.2490
   41MOL0     O 5458   6.445   7.482   5.014  0.4445  0.1344  0.1707
   41MOL0     C 5459   6.498   7.590   4.940  0.6516  0.7802  0.1785
   41MOL0     C 5460   6.397   7.629   4.827 -0.3764  0.0367  0.6467
   41MOL0     C 5461   6.409   7.776   4.772  0.4454 -0.7654 -0.1650
   41MOL0     C 5462   6.352   7.808   4.631  0.2463 -0.0157 -0.2173
   41MOL0     C 5463   6.389   7.954   4.609  0.4224 -0.2253 -0.0780
   41MOL0     C 5464   6.430   8.064   4.598 -0.1659 -0.7080  0.3225
   41MOL0     C 5465   6.492   7.309   4.829 -0.1003  0.1791 -0.1213
   41MOL0     C 5466   6.463   7.181   4.781  0.1884  0.3292 -0.0100
   41MOL0     C 5467   6.557   7.138   4.667  0.4653  0.3032  0.2985
   41MOL0     H 5468   6.089   6.919   4.506  0.8964  1.3429 -3.2195
   41MOL0     H 5469   6.037   6.699   4.425  1.8883  0.6910 -2.8009
   41MOL0     H 5470   6.041   6.425   4.472  3.1740  0.4316  0.7944
   41MOL0     H 5471   6.042   6.499   4.311 -0.4339  0.9631  0.8965
   41MOL0     H 5472   6.001   6.270   4.310  0.0235 -0.7317 -1.5161
   41MOL0     H 5473   6.149   6.227   4.393  0.1119  0.4181  0.6416
   41MOL0     H 5474   6.283   6.328   4.196  0.2385 -2.2476  4.4533
   41MOL0     H 5475   6.124   6.353   4.121  0.2822  0.8589  1.4401
   41MOL0     H 5476   6.220   6.084   4.231  1.2318  2.2705  0.9851
   41MOL0     H 5477   6.095   6.098   4.111  0.4926 -2.6450 -0.8239
   41MOL0     H 5478   6.243   6.167   3.943  0.1567 -0.8548  0.7637
   41MOL0     H 5479   6.381   6.194   4.060 -0.5727  1.1337 -0.7427
   41MOL0     H 5480   6.374   5.959   4.100 -1.1984  2.3717  1.7631
   41MOL0     H 5481   6.249   5.936   3.965  1.1815  0.1162 -0.1432
   41MOL0     H 5482   6.535   6.019   3.944  1.9120  0.7363 -4.5298
   41MOL0     H 5483   6.425   6.027   3.813  0.3518  2.7289  2.0956
   41MOL0     H 5484   6.422   5.744   3.865  0.7784 -0.6824  0.2982
   41MOL0     H 5485   6.533   5.815   3.756  1.0497 -1.5869  0.7681
   41MOL0     H 5486   6.805   5.741   3.840  0.7281  0.5943  1.0440
   41MOL0     H 5487   6.983   5.663   3.954  1.2913  0.5178  0.3789
   41MOL0     H 5488   7.004   5.778   4.087 -0.6440  0.3750 -1.2196
   41MOL0     H 5489   6.915   5.615   4.260  1.4437  0.9212  0.3440
   41MOL0     H 5490   6.896   5.487   4.137 -3.0481  2.0507  2.4612
   41MOL0     H 5491   7.157   5.612   4.218  0.8715  0.4654 -2.1220
   41MOL0     H 5492   7.135   5.506   4.078  1.0220  2.9534 -0.2363
   41MOL0     H 5493   7.208   5.364   4.258 -0.8663 -2.3851  2.6375
   41MOL0     H 5494   7.040   5.337   4.242 -0.3790 -0.2056 -1.3840
   41MOL0     H 5495   7.192   5.204   4.388 -0.4943 -0.7585  0.4710
   41MOL0     H 5496   7.281   5.091   4.586  1.5075  1.4968  0.4280
   41MOL0     H 5497   7.299   4.820   4.828  1.0050  0.8961 -1.3526
   41MOL0     H 5498   7.399   4.667   4.989 -3.0162  0.8785 -3.0090
   41MOL0     H 5499   7.758   4.654   5.062 -1.8970 -0.7876 -0.6546
   41MOL0     H 5500   7.779   4.808   5.152  0.9581 -0.6496  3.1110
   41MOL0     H 5501   7.775   4.700   5.361  4.2709  3.0356 -2.1093
   41MOL0     H 5502   7.719   4.546   5.291 -1.6150  0.7125  1.9291
   41MOL0     H 5503   7.916   4.516   5.158  5.3793 -2.0458  0.6495
   41MOL0     H 5504   7.962   4.688   5.208 -3.1894  2.5199  2.6934
   41MOL0     H 5505   7.949   4.491   5.432 -2.2382 -0.1279 -2.3869
   41MOL0     H 5506   8.004   4.657   5.407  1.4970 -1.1339  1.8734
   41MOL0     H 5507   8.195   4.608   5.275  0.3557 -0.9794 -0.3738
   41MOL0     H 5508   8.155   4.437   5.257  0.6513 -1.2738  1.9780
   41MOL0     H 5509   8.206   4.554   5.534 -0.4357  2.2693 -1.3689
   41MOL0     H 5510   8.194   4.383   5.472 -1.1545  0.3762  0.1923
   41MOL0     H 5511   8.409   4.575   5.497 -2.3220  0.9894 -0.7410
   41MOL0     H 5512   8.421   4.499   5.337 -0.1067 -1.0933 -0.0685
   41MOL0     H 5513   8.550   4.397   5.498 -0.0249 -1.2375 -0.4541
   41MOL0     H 5514   8.424   4.383   5.612  3.5556 -3.8684  0.9177
   41MOL0     H 5515   7.633   4.982   5.145  0.2465  0.1010 -1.4776
   41MOL0     H 5516   7.522   5.142   4.987 -1.5776  2.5181  3.6889
   41MOL0     H 5517   7.052   5.387   4.821 -0.1764  0.9144 -0.3296
   41MOL0     H 5518   7.047   5.519   4.637 -0.6879  0.9346  1.2616
   41MOL0     H 5519   6.427   6.566   4.530  0.8926 -0.0410 -1.5131
   41MOL0     H 5520   6.488   6.786   4.619  2.0662 -3.4916 -1.9315
   41MOL0     H 5521   6.211   7.093   4.973  1.6229 -2.3369 -1.5080
   41MOL0     H 5522   6.274   7.317   5.094 -0.1232 -2.1627  1.7914
   41MOL0     H 5523   6.600   7.576   4.904  0.9943  0.0526  1.3753
   41MOL0     H 5524   6.504   7.674   5.010 -1.7882  2.3385 -1.3394
   41MOL0     H 5525   6.294   7.596   4.843 -0.9929  1.6208  0.1371
   41MOL0     H 5526   6.412   7.561   4.743 -2.6889  0.3717 -0.1044
   41MOL0     H 5527   6.515   7.803   4.773  0.2994 -0.1951  0.5385
   41MOL0     H 5528   6.362   7.852   4.835  2.5951 -0.8691  1.6696
   41MOL0     H 5529   6.399   7.757   4.546  0.3756 -2.4445  1.2277
   41MOL0     H 5530   6.242   7.804   4.636  0.3286 -1.2216  2.3304
   41MOL0     H 5531   6.476   8.160   4.588  1.2620 -1.2767  1.2228
   41MOL0     H 5532   6.553   7.377   4.770 -1.5147 -0.7316 -2.8212
   41MOL0     H 5533   6.607   7.230   4.636  0.9646 -0.2790 -0.6503
   41MOL0     H 5534   6.631   7.065   4.701  2.0666  2.0658  0.7342
   41MOL0     H 5535   6.503   7.114   4.574  0.1541 -2.9746  1.2064
   42MOL0     O 5536   7.590  10.706   0.300  0.5342 -0.4082 -0.3298
   42MOL0     C 5537   7.528  10.607   0.254  0.8471 -0.4924 -0.2173
   42MOL0     O 5538   7.450  10.599   0.143  0.2543  0.8978  0.7764
   42MOL0     C 5539   7.460  10.687   0.043 -0.0027 -0.8637 -0.1291
   42MOL0     C 5540   7.525  10.817   0.052 -0.4033  0.0916 -0.3616
   42MOL0     C 5541   7.546  10.900  -0.060  0.1007 -0.3983 -0.9881
   42MOL0     C 5542   7.486  10.866  -0.182 -0.7412 -0.0749 -0.5561
   42MOL0     O 5543   7.497  10.933  -0.303 -0.0735  0.3331  0.6278
   42MOL0     C 5544   7.423  11.051  -0.298 -0.6195  0.3816  0.2485
   42MOL0     C 5545   7.354  11.080  -0.432  0.3179 -0.4885 -0.4654
   42MOL0     C 5546   7.248  11.195  -0.424 -1.0179  0.9340  1.0941
   42MOL0     C 5547   7.279  11.347  -0.428  0.9030  0.6552 -0.1779
   42MOL0     C 5548   7.151  11.432  -0.452  0.7901  0.8484  0.0273
   42MOL0     C 5549   7.192  11.579  -0.464  0.7920  0.1194  0.1202
   42MOL0     C 5550   7.094  11.673  -0.528  0.9588 -0.0394 -0.0191
   42MOL0     C 5551   6.955  11.649  -0.465  0.1824  1.1044  0.0796
   42MOL0     N 5552   6.857  11.723  -0.554 -0.9410  1.3418  0.1074
   42MOL0     C 5553   6.879  11.807  -0.666  1.1689  0.5312 -0.6179
   42MOL0     C 5554   6.752  11.817  -0.718 -0.6566 -0.1402 -0.0419
   42MOL0     C 5555   6.723  11.899  -0.844 -0.2284  0.3953 -0.4799
   42MOL0     C 5556   6.607  11.997  -0.815  0.2897  0.8142  0.5998
   42MOL0     C 5557   6.647  12.119  -0.723 -0.8447 -0.3509  0.5800
   42MOL0     C 5558   6.533  12.221  -0.691  1.5027  0.5673 -0.1350
   42MOL0     O 5559   6.582  12.325  -0.613  0.0124 -0.6768  0.0149
   42MOL0     C 5560   6.594  12.445  -0.675 -0.0020  0.5319 -0.1881
   42MOL0     C 5561   6.625  12.461  -0.810 -0.5848 -0.5471 -0.4644
   42MOL0     C 5562   6.655  12.582  -0.863 -0.1490 -0.4763  0.5043
   42MOL0     C 5563   6.652  12.695  -0.779 -0.1885 -0.2995 -0.9703
   42MOL0     C 5564   6.694  12.826  -0.834 -0.0707  0.3861 -0.4157
   42MOL0     O 5565   6.698  12.934  -0.748 -0.4321 -0.4041 -0.1753
   42MOL0     C 5566   6.771  13.054  -0.789 -0.5159  0.7204  0.0930
   42MOL0     C 5567   6.862  13.098  -0.692  1.8001 -0.6330 -0.1226
   42MOL0     C 5568   6.950  13.208  -0.718 -0.2864 -0.0330 -0.6230
   42MOL0     C 5569   6.962  13.260  -0.849 -0.6250  0.3141 -0.0867
   42MOL0     O 5570   7.056  13.356  -0.896 -0.4678  0.1540 -1.0092
   42MOL0     C 5571   7.159  13.425  -0.813 -0.7564  0.0683 -0.4510
   42MOL0     C 5572   7.086  13.530  -0.742 -0.2890  0.2363  0.0278
   42MOL0     C 5573   7.178  13.611  -0.642  0.8187  0.3648 -0.8931
   42MOL0     C 5574   7.178  13.545  -0.499 -0.0515  0.3420 -0.0675
   42MOL0     C 5575   7.064  13.606  -0.407  0.3524 -0.7557  0.4707
   42MOL0     C 5576   7.086  13.590  -0.263  0.1492 -0.4730  0.0799
   42MOL0     C 5577   6.966  13.651  -0.177 -0.3853  1.0713 -0.0963
   42MOL0     C 5578   7.018  13.635  -0.033  0.0923 -0.5165 -0.3815
   42MOL0    Cl 5579   7.017  13.467   0.039 -0.5540  0.2714 -0.5510
   42MOL0     C 5580   6.881  13.200  -0.939  0.8869 -0.1217 -0.5290
   42MOL0     C 5581   6.781  13.105  -0.920 -0.6577 -0.1776 -0.5310
   42MOL0     O 5582   6.761  12.812  -0.935  0.4100  1.0372  0.5428
   42MOL0     C 5583   6.626  12.682  -0.638  0.7431  0.7720 -0.5658
   42MOL0     C 5584   6.587  12.557  -0.589  0.3019 -0.2530 -0.1131
   42MOL0     N 5585   6.660  11.752  -0.642  0.0194  0.6119 -0.4620
   42MOL0     N 5586   6.721  11.699  -0.539 -0.0429 -0.5773  0.0435
   42MOL0     C 5587   7.431  10.733  -0.198 -0.3753 -0.1284  0.3183
   42MOL0     C 5588   7.414  10.649  -0.087  0.3598 -0.2929 -0.3439
   42MOL0     C 5589   7.547  10.487   0.337  1.3425 -0.4921 -0.5280
   42MOL0     C 5590   7.544  10.493   0.481  0.3900 -0.3358 -0.4383
   42MOL0     C 5591   7.570  10.388   0.565  0.6630 -0.2050  0.4180
   42MOL0     C 5592   7.572  10.261   0.506 -0.4929  0.6191 -0.0565
   42MOL0     O 5593   7.610  10.142   0.570 -0.2875  0.1977  0.7030
   42MOL0     C 5594   7.606  10.145   0.711  0.7875 -0.1413  0.0666
   42MOL0     C 5595   7.615  10.004   0.775 -0.5740  0.4303 -0.3454
   42MOL0     C 5596   7.471   9.932   0.766  0.3954  1.4226 -0.2610
   42MOL0     C 5597   7.364   9.975   0.870 -0.1154 -0.1861  1.1763
   42MOL0     C 5598   7.414   9.938   1.005  0.3885 -0.4604 -0.1260
   42MOL0     C 5599   7.459   9.902   1.107 -0.1824 -0.4038  0.6712
   42MOL0     C 5600   7.565  10.250   0.369  0.1584  0.3957 -0.1387
   42MOL0     C 5601   7.551  10.350   0.279  0.4175  0.9734 -0.1861
   42MOL0     C 5602   7.540  10.314   0.131 -0.1524  0.0573 -0.9585
   42MOL0     H 5603   7.561  10.845   0.151 -2.6565 -5.4453  2.4957
   42MOL0     H 5604   7.615  10.982  -0.044  1.4276 -1.8992  1.8515
   42MOL0     H 5605   7.344  11.049  -0.223  1.4432 -0.0968  2.5230
   42MOL0     H 5606   7.492  11.126  -0.257  3.2469 -3.3687  1.3358
   42MOL0     H 5607   7.294  10.990  -0.449  0.1345 -1.3200  3.5041
   42MOL0     H 5608   7.427  11.112  -0.507  0.9170 -0.8057 -0.0264
   42MOL0     H 5609   7.173  11.186  -0.345 -0.8709  3.4761  1.6249
   42MOL0     H 5610   7.193  11.167  -0.514 -0.6779 -1.1196  1.4928
   42MOL0     H 5611   7.324  11.365  -0.330  0.5395 -0.6946  0.2560
   42MOL0     H 5612   7.357  11.365  -0.503  2.7220 -3.7765  0.3673
   42MOL0     H 5613   7.091  11.400  -0.538 -0.6736  0.5033  1.1498
   42MOL0     H 5614   7.092  11.412  -0.362  0.5166 -0.6613 -0.4591
   42MOL0     H 5615   7.211  11.609  -0.360 -1.3536  1.3026  0.2341
   42MOL0     H 5616   7.290  11.578  -0.512  0.5106  0.4250 -0.4684
   42MOL0     H 5617   7.096  11.663  -0.637 -3.7245  1.4327 -0.4885
   42MOL0     H 5618   7.114  11.775  -0.494 -1.7869 -0.5353  3.6358
   42MOL0     H 5619   6.922  11.545  -0.465  0.9196  0.8618 -0.8629
   42MOL0     H 5620   6.951  11.675  -0.359  0.9475  0.1537  0.3514
   42MOL0     H 5621   6.970  11.839  -0.716  2.2904  0.5601  1.3561
   42MOL0     H 5622   6.801  11.964  -0.884  1.6211  0.1960  2.4490
   42MOL0     H 5623   6.690  11.827  -0.919 -0.8105 -1.0256  1.0882
   42MOL0     H 5624   6.580  12.036  -0.913  3.3168  1.0683 -0.2256
   42MOL0     H 5625   6.515  11.950  -0.777  1.4524 -1.2937  0.9529
   42MOL0     H 5626   6.727  12.170  -0.777 -0.8347  1.0928  1.8793
   42MOL0     H 5627   6.681  12.087  -0.624 -2.2318  3.3914  2.4815
   42MOL0     H 5628   6.457  12.175  -0.627  0.4637  3.5990  1.0246
   42MOL0     H 5629   6.473  12.252  -0.777  0.3147 -0.9590  0.1098
   42MOL0     H 5630   6.631  12.367  -0.865  2.6544 -3.2575  3.8786
   42MOL0     H 5631   6.668  12.590  -0.970 -3.7995 -1.0865 -0.1252
   42MOL0     H 5632   6.863  13.052  -0.593  3.3123 -1.6343 -0.5826
   42MOL0     H 5633   7.026  13.236  -0.647  1.7436 -0.5706 -2.4932
   42MOL0     H 5634   7.216  13.349  -0.758 -1.1902  0.4648  0.5755
   42MOL0     H 5635   7.235  13.474  -0.874  1.3840 -0.9256  1.2871
   42MOL0     H 5636   7.026  13.592  -0.809  0.2141 -0.6337 -1.2639
   42MOL0     H 5637   7.011  13.482  -0.678 -1.6031  3.4395  1.1203
   42MOL0     H 5638   7.279  13.625  -0.682  1.1166  0.5632 -0.0996
   42MOL0     H 5639   7.126  13.707  -0.649 -0.4456 -0.2533 -0.1885
   42MOL0     H 5640   7.273  13.558  -0.446 -0.4867  1.4892  0.4609
   42MOL0     H 5641   7.168  13.436  -0.510  3.1781 -0.0239 -0.3210
   42MOL0     H 5642   6.970  13.555  -0.428 -0.4549 -0.1837  2.4730
   42MOL0     H 5643   7.048  13.713  -0.417  3.1547 -0.0595  2.3485
   42MOL0     H 5644   7.113  13.487  -0.236 -0.0679 -0.9157 -1.3088
   42MOL0     H 5645   7.178  13.641  -0.235 -0.8614 -0.2918  3.6418
   42MOL0     H 5646   6.875  13.592  -0.189  1.0601 -1.0002 -1.7724
   42MOL0     H 5647   6.959  13.755  -0.208 -2.1986  0.0649 -3.6284
   42MOL0     H 5648   7.121  13.669  -0.016 -0.9612  2.5489  0.6473
   42MOL0     H 5649   6.955  13.697   0.033 -0.9961 -0.4481 -1.4472
   42MOL0     H 5650   6.892  13.240  -1.040  0.7729 -0.2207 -0.5811
   42MOL0     H 5651   6.718  13.060  -0.997 -1.4819 -1.8084  1.0171
   42MOL0     H 5652   6.620  12.770  -0.574  0.0462  0.6371 -0.4359
   42MOL0     H 5653   6.571  12.527  -0.486 -1.5179 -0.3668 -0.3988
   42MOL0     H 5654   7.406  10.700  -0.299 -3.2963  2.1799  0.1624
   42MOL0     H 5655   7.373  10.549  -0.102 -1.2602  0.2301  0.4421
   42MOL0     H 5656   7.531  10.593   0.522 -1.1491 -0.4232 -0.6435
   42MOL0     H 5657   7.587  10.397   0.672  1.8723 -0.7824  0.2973
   42MOL0     H 5658   7.512  10.192   0.742  1.6422  0.6265  1.6090
   42MOL0     H 5659   7.694  10.197   0.750  1.1078 -0.9307  0.3970
   42MOL0     H 5660   7.655  10.002   0.877  0.1644 -0.1101 -0.6406
   42MOL0     H 5661   7.677   9.937   0.715 -2.2002  1.0922 -2.9318
   42MOL0     H 5662   7.480   9.823   0.767 -2.1893  1.1611  0.6820
   42MOL0     H 5663   7.418   9.956   0.673  0.7116  1.2973 -0.4776
   42MOL0     H 5664   7.331  10.078   0.858 -5.8569 -1.9805 -2.1532
   42MOL0     H 5665   7.282   9.906   0.850  1.1452 -1.0689 -1.3470
   42MOL0     H 5666   7.485   9.853   1.199  1.9683 -1.5474 -0.4637
   42MOL0     H 5667   7.574  10.155   0.317  1.7832  0.0972  0.6192
   42MOL0     H 5668   7.539  10.206   0.113  0.2020 -0.0708 -0.2276
   42MOL0     H 5669   7.454  10.359   0.080  1.6262  1.8957 -2.5210
   42MOL0     H 5670   7.637  10.343   0.089  1.6126 -2.5047  0.9925
   43MOL0     O 5671   8.157   8.267   9.936  0.4515  0.1244 -0.0514
   43MOL0     C 5672   8.162   8.390   9.951 -0.2847  0.0131  0.0572
   43MOL0     O 5673   8.276   8.469   9.940  0.2947  0.3365  0.0449
   43MOL0     C 5674   8.381   8.408   9.883  0.6148 -0.2407 -0.1405
   43MOL0     C 5675   8.470   8.336   9.967 -0.0077 -0.3680  0.2785
   43MOL0     C 5676   8.583   8.274   9.917  0.6510 -0.4514  0.0180
   43MOL0     C 5677   8.621   8.292   9.788  1.2402 -0.1776  0.3261
   43MOL0     O 5678   8.735   8.225   9.739  0.2906 -0.0125 -0.6465
   43MOL0     C 5679   8.743   8.191   9.598  0.1462  0.1473 -0.5303
   43MOL0     C 5680   8.807   8.045   9.571  0.2032  0.1013  0.6684
   43MOL0     C 5681   8.707   7.945   9.638  0.2710  0.5711 -0.5635
   43MOL0     C 5682   8.745   7.808   9.610  0.3066  0.4203 -0.7098
   43MOL0     C 5683   8.741   7.760   9.466  0.7148 -0.1247  0.4620
   43MOL0     C 5684   8.614   7.811   9.398  0.5129  0.2278  0.0888
   43MOL0     C 5685   8.589   7.738   9.270 -0.5680 -0.5512 -0.0399
   43MOL0     C 5686   8.560   7.584   9.306  0.7340 -0.0934  0.0986
   43MOL0     N 5687   8.430   7.567   9.367  0.6473 -0.0995  0.3927
   43MOL0     C 5688   8.404   7.571   9.501  0.0272 -0.1468 -0.2461
   43MOL0     C 5689   8.274   7.588   9.511 -0.7036  0.8530 -0.5997
   43MOL0     C 5690   8.192   7.594   9.638  0.0403 -0.6359 -0.2158
   43MOL0     C 5691   8.128   7.733   9.657 -0.7170  0.7339  0.9658
   43MOL0     C 5692   8.240   7.841   9.658  0.2177  0.0103 -0.3379
   43MOL0     C 5693   8.199   7.985   9.671 -1.0105  0.1476 -0.4495
   43MOL0     O 5694   8.137   8.026   9.551 -0.3672 -0.2138  0.3110
   43MOL0     C 5695   8.200   8.141   9.506  0.7265 -0.0471  0.5341
   43MOL0     C 5696   8.155   8.264   9.562 -0.1372  0.9506  0.8636
   43MOL0     C 5697   8.203   8.376   9.512 -0.7868 -0.0034  0.3257
   43MOL0     C 5698   8.313   8.378   9.414  0.2193  0.4741 -0.0142
   43MOL0     C 5699   8.368   8.505   9.364 -0.1386 -0.3129  0.4414
   43MOL0     O 5700   8.508   8.511   9.346 -0.1787 -0.4451  0.2061
   43MOL0     C 5701   8.591   8.624   9.320  0.6041 -0.7352  0.0341
   43MOL0     C 5702   8.546   8.758   9.328  0.2561  0.3925  0.1377
   43MOL0     C 5703   8.627   8.865   9.309  0.8258 -0.5695  0.7253
   43MOL0     C 5704   8.766   8.840   9.290  0.0611 -0.9046  0.4200
   43MOL0     O 5705   8.850   8.948   9.281  0.2700  0.6199  0.1424
   43MOL0     C 5706   8.857   9.001   9.151  0.6001  0.0466  0.2366
   43MOL0     C 5707   8.995   8.989   9.094 -0.1517  0.0713 -0.0435
   43MOL0     C 5708   9.107   9.070   9.158  0.4142  0.3516 -0.7234
   43MOL0     C 5709   9.245   9.014   9.124  0.1142  0.2304  0.1800
   43MOL0     C 5710   9.356   9.065   9.216 -0.0262 -0.6095 -0.5936
   43MOL0     C 5711   9.367   9.213   9.222  0.2354  0.1420 -0.5090
   43MOL0     C 5712   9.352   9.295   9.099  1.0729  0.3352  0.3672
   43MOL0     C 5713   9.471   9.274   9.007  0.2712 -0.1825 -0.0448
   43MOL0    Cl 5714   9.638   9.302   9.084  0.0244  0.7824  0.2155
   43MOL0     C 5715   8.814   8.708   9.288 -0.2363  0.0369  0.8934
   43MOL0     C 5716   8.726   8.605   9.305 -0.5100  0.8114  0.0657
   43MOL0     O 5717   8.294   8.600   9.369  0.4772 -0.6640  0.1682
   43MOL0     C 5718   8.354   8.258   9.366  0.5343 -0.5308  0.1271
   43MOL0     C 5719   8.298   8.135   9.409 -1.0891 -0.7682 -0.1346
   43MOL0     N 5720   8.211   7.588   9.383 -0.7827 -0.3752  0.6723
   43MOL0     N 5721   8.306   7.580   9.306 -0.2860 -0.1943  0.5374
   43MOL0     C 5722   8.535   8.367   9.705 -0.8636 -0.7171 -0.3064
   43MOL0     C 5723   8.420   8.432   9.750 -0.7800 -0.5825  0.0142
   43MOL0     C 5724   8.041   8.466   9.990 -0.3725 -0.4536  0.5618
   43MOL0     C 5725   8.036   8.606   9.965 -0.7278 -0.1957  0.5187
   43MOL0     C 5726   7.933   8.681  10.027 -0.1247 -0.3811  1.2206
   43MOL0     C 5727   7.821   8.618  10.097 -0.2633  0.3987 -0.4207
   43MOL0     O 5728   7.714   8.685  10.151  0.0043  0.6103 -0.5260
   43MOL0     C 5729   7.755   8.814  10.203  0.4446 -1.1831 -1.4354
   43MOL0     C 5730   7.676   8.918  10.118 -0.5268 -0.1267 -0.3786
   43MOL0     C 5731   7.703   9.062  10.153 -0.2981  0.8064  0.3001
   43MOL0     C 5732   7.625   9.161  10.077 -0.6018 -0.1601 -0.0324
   43MOL0     C 5733   7.610   9.143   9.933 -0.2137 -0.5115 -0.4401
   43MOL0     C 5734   7.594   9.145   9.811 -1.1405  0.0773  0.4719
   43MOL0     C 5735   7.836   8.477  10.117 -0.1892 -0.2246  0.3675
   43MOL0     C 5736   7.938   8.398  10.057  1.0613 -0.6298  0.4108
   43MOL0     C 5737   7.918   8.248  10.077  0.1368  0.0162 -0.5609
   43MOL0     H 5738   8.443   8.308  10.069 -0.1727  0.0081  0.3425
   43MOL0     H 5739   8.660   8.233   9.981  4.8402  3.0441 -2.3009
   43MOL0     H 5740   8.647   8.189   9.545 -0.9492 -3.0656  1.3349
   43MOL0     H 5741   8.820   8.252   9.550  1.3768 -2.2212 -1.7149
   43MOL0     H 5742   8.909   8.046   9.612  1.4339  1.1337 -2.1442
   43MOL0     H 5743   8.824   8.024   9.465 -0.9395  0.0430  0.4822
   43MOL0     H 5744   8.601   7.958   9.618 -0.2350  2.3979  2.6391
   43MOL0     H 5745   8.715   7.954   9.747  3.3109  0.9774 -0.7289
   43MOL0     H 5746   8.845   7.784   9.650  0.4363  1.2963 -0.4873
   43MOL0     H 5747   8.670   7.760   9.674 -0.3275  1.0950 -0.9412
   43MOL0     H 5748   8.830   7.791   9.410  1.5399 -0.8250  1.3274
   43MOL0     H 5749   8.737   7.650   9.469 -1.4805 -0.0831  2.5912
   43MOL0     H 5750   8.534   7.801   9.472  0.8428  3.6724  1.0573
   43MOL0     H 5751   8.625   7.917   9.374  1.4606 -0.5014 -3.3107
   43MOL0     H 5752   8.680   7.755   9.212  2.3607 -0.1906  4.2425
   43MOL0     H 5753   8.498   7.768   9.217 -1.6713 -0.1418  1.9731
   43MOL0     H 5754   8.562   7.540   9.206  2.1755  0.4943 -0.1578
   43MOL0     H 5755   8.631   7.521   9.360 -1.9247 -2.3066  1.2717
   43MOL0     H 5756   8.480   7.571   9.579 -0.4251  1.7370  0.2469
   43MOL0     H 5757   8.108   7.529   9.613 -1.4337  1.9293 -2.5684
   43MOL0     H 5758   8.235   7.558   9.732 -2.6856 -1.2555  0.8957
   43MOL0     H 5759   8.059   7.756   9.575  0.9663 -0.1371 -0.8066
   43MOL0     H 5760   8.081   7.711   9.753 -0.8869 -2.8246  0.2060
   43MOL0     H 5761   8.287   7.819   9.561  1.2508 -3.7776  0.8385
   43MOL0     H 5762   8.317   7.821   9.734  0.1461  0.8438 -0.0364
   43MOL0     H 5763   8.295   8.033   9.691  0.2823 -2.5969  0.4727
   43MOL0     H 5764   8.124   7.995   9.751  0.3895  1.4108  0.7659
   43MOL0     H 5765   8.077   8.273   9.637 -1.5477  1.8939 -0.6527
   43MOL0     H 5766   8.166   8.469   9.554  0.9026  0.0230  1.8803
   43MOL0     H 5767   8.445   8.782   9.360 -0.3017  1.8854 -2.4798
   43MOL0     H 5768   8.587   8.965   9.322  2.3139  0.2313 -0.5039
   43MOL0     H 5769   8.780   8.967   9.081 -0.6861  2.5855  0.3169
   43MOL0     H 5770   8.829   9.106   9.159  0.2101 -0.0050 -0.3418
   43MOL0     H 5771   9.037   8.887   9.094  0.4042  0.2916 -0.6229
   43MOL0     H 5772   8.991   9.010   8.987 -3.7476 -2.2582 -0.5326
   43MOL0     H 5773   9.097   9.174   9.127 -1.4572  0.1602 -0.8369
   43MOL0     H 5774   9.089   9.056   9.265  0.9226 -1.2473 -0.8214
   43MOL0     H 5775   9.276   9.032   9.021  4.4166 -1.0750  1.0558
   43MOL0     H 5776   9.251   8.905   9.132  0.2978  0.0394 -1.9643
   43MOL0     H 5777   9.451   9.021   9.187  0.3687 -1.4171  1.7099
   43MOL0     H 5778   9.345   9.017   9.313  0.7434 -1.1358 -0.7580
   43MOL0     H 5779   9.284   9.228   9.291  0.3970 -3.6197  0.7692
   43MOL0     H 5780   9.450   9.245   9.285 -1.4602 -1.8373  3.0392
   43MOL0     H 5781   9.352   9.400   9.128  0.2524  0.1387  1.0962
   43MOL0     H 5782   9.254   9.272   9.056  0.9756  0.5970  0.4499
   43MOL0     H 5783   9.468   9.167   8.982  4.0980 -0.1543 -1.3572
   43MOL0     H 5784   9.459   9.336   8.918 -1.2488 -1.7071 -0.9596
   43MOL0     H 5785   8.921   8.698   9.276 -0.4538 -0.7475 -0.7428
   43MOL0     H 5786   8.769   8.506   9.300  0.0943  0.7957  3.4047
   43MOL0     H 5787   8.431   8.262   9.289  3.0507  1.4076  2.5449
   43MOL0     H 5788   8.323   8.038   9.368 -2.6924 -1.6666  0.8694
   43MOL0     H 5789   8.569   8.373   9.603 -0.7461  1.2569 -0.1972
   43MOL0     H 5790   8.351   8.497   9.697 -1.6135 -1.9512 -0.6501
   43MOL0     H 5791   8.096   8.654   9.888 -1.3336 -0.9407 -0.4513
   43MOL0     H 5792   7.918   8.788  10.012 -0.5261 -0.2740  2.2938
   43MOL0     H 5793   7.862   8.835  10.204  0.0696  1.0193 -2.0317
   43MOL0     H 5794   7.725   8.829  10.307 -1.7589 -0.4626 -2.1170
   43MOL0     H 5795   7.570   8.893  10.118 -0.4624 -0.4036  0.3142
   43MOL0     H 5796   7.714   8.907  10.016  0.4221  0.6249 -0.1314
   43MOL0     H 5797   7.809   9.078  10.132 -0.5053 -1.0191 -2.9760
   43MOL0     H 5798   7.682   9.088  10.256  2.1180 -0.9675  1.3509
   43MOL0     H 5799   7.525   9.159  10.121  0.4854  2.6707  3.0228
   43MOL0     H 5800   7.682   9.250  10.104 -1.4619  0.7516 -1.1215
   43MOL0     H 5801   7.587   9.156   9.704 -3.9226 -0.1204  0.5823
   43MOL0     H 5802   7.757   8.448  10.184 -0.0899  2.7242  1.9305
   43MOL0     H 5803   7.923   8.194   9.982 -5.5055  0.4989 -1.4602
   43MOL0     H 5804   7.999   8.200  10.133  1.9868  1.4747 -1.8614
   43MOL0     H 5805   7.820   8.228  10.121 -0.7823  1.0073 -2.0935
   44MOL0     O 5806   6.718   6.908   2.385  0.9446  0.7849 -0.2975
   44MOL0     C 5807   6.598   6.904   2.430 -0.1834 -0.7166  0.7386
   44MOL0     O 5808   6.555   6.810   2.510 -0.8691  0.6552 -0.1153
   44MOL0     C 5809   6.643   6.715   2.572  0.1933  0.2240 -0.2749
   44MOL0     C 5810   6.593   6.586   2.597 -0.1170 -0.2949  0.0248
   44MOL0     C 5811   6.661   6.499   2.677 -0.5561 -0.5400 -0.5770
   44MOL0     C 5812   6.784   6.517   2.727 -0.1336  0.6548  1.3445
   44MOL0     O 5813   6.850   6.418   2.793  0.1921  0.1099 -0.0694
   44MOL0     C 5814   6.877   6.300   2.704 -0.1227 -0.0400 -0.1859
   44MOL0     C 5815   6.995   6.218   2.747  0.6753 -0.2346  0.0070
   44MOL0     C 5816   7.009   6.074   2.693  0.3429  0.7811  0.4640
   44MOL0     C 5817   6.913   5.977   2.768  0.2697 -0.6558  0.1352
   44MOL0     C 5818   6.895   5.847   2.691  0.4010 -0.2040 -1.0945
   44MOL0     C 5819   6.766   5.773   2.740 -0.3564 -0.7798  0.2650
   44MOL0     C 5820   6.728   5.650   2.660 -0.5778 -0.1549  0.6614
   44MOL0     C 5821   6.828   5.536   2.664 -0.5614 -0.2235  0.3468
   44MOL0     N 5822   6.860   5.510   2.804 -0.5477 -0.0456 -0.1464
   44MOL0     C 5823   6.772   5.456   2.898  0.6071 -0.9726  0.8887
   44MOL0     C 5824   6.836   5.469   3.014  0.3531  0.3195  0.2790
   44MOL0     C 5825   6.800   5.398   3.140 -0.1554 -0.3822 -0.2172
   44MOL0     C 5826   6.764   5.484   3.262  0.0805 -0.4592  0.3083
   44MOL0     C 5827   6.887   5.569   3.308  0.0704  0.1032 -0.0555
   44MOL0     C 5828   6.869   5.646   3.438  0.0001 -0.2786  1.0203
   44MOL0     O 5829   6.896   5.568   3.556 -0.0744  0.2626 -0.9549
   44MOL0     C 5830   6.798   5.516   3.628 -0.6270 -0.4088  0.5211
   44MOL0     C 5831   6.835   5.446   3.747  0.0484 -0.1170 -0.6989
   44MOL0     C 5832   6.744   5.427   3.847  0.3246 -0.3141  0.4683
   44MOL0     C 5833   6.610   5.468   3.821 -0.3968  0.0956 -0.9518
   44MOL0     C 5834   6.511   5.438   3.928  0.5923 -0.0734  0.0407
   44MOL0     O 5835   6.546   5.369   4.046 -0.4285  0.4029 -1.1502
   44MOL0     C 5836   6.451   5.312   4.119 -0.3301 -0.2123 -0.3603
   44MOL0     C 5837   6.354   5.390   4.185  0.6140  0.1066  0.1412
   44MOL0     C 5838   6.248   5.333   4.250 -0.0514  1.0474 -0.3346
   44MOL0     C 5839   6.235   5.193   4.242 -0.6435  0.3100 -1.0830
   44MOL0     O 5840   6.131   5.151   4.320  0.7033 -0.1810 -0.3082
   44MOL0     C 5841   6.091   5.014   4.313  0.6326  0.9532 -1.3577
   44MOL0     C 5842   5.951   4.996   4.372 -1.1167 -0.4364 -0.5671
   44MOL0     C 5843   5.888   4.869   4.322  0.9344 -0.0377 -0.0940
   44MOL0     C 5844   5.756   4.831   4.394  0.5657  0.2075 -0.2472
   44MOL0     C 5845   5.630   4.927   4.376 -1.8989  0.2662  0.0634
   44MOL0     C 5846   5.575   4.921   4.236  0.4827 -0.6303  1.1624
   44MOL0     C 5847   5.506   5.052   4.206  1.0094  0.3077  0.6875
   44MOL0     C 5848   5.439   5.058   4.068  0.1159  1.2280  0.0351
   44MOL0    Cl 5849   5.561   5.031   3.936 -0.0712 -0.3084 -0.3215
   44MOL0     C 5850   6.327   5.125   4.174 -0.0365  0.0372  0.3250
   44MOL0     C 5851   6.436   5.181   4.114 -0.2928  0.0807  1.0157
   44MOL0     O 5852   6.404   5.479   3.900  0.6659 -0.2026 -0.0080
   44MOL0     C 5853   6.571   5.515   3.699 -0.3876 -0.2542 -0.3632
   44MOL0     C 5854   6.664   5.531   3.598 -0.2618  0.8510  0.6136
   44MOL0     N 5855   6.961   5.522   2.992  0.6440  0.4640 -0.5041
   44MOL0     N 5856   6.967   5.547   2.868 -0.4490  0.0044 -0.7285
   44MOL0     C 5857   6.843   6.642   2.700  0.4556  0.4149 -0.2215
   44MOL0     C 5858   6.771   6.736   2.623 -0.3170 -0.6097 -0.2168
   44MOL0     C 5859   6.498   6.999   2.379 -0.3703 -0.4803  0.0896
   44MOL0     C 5860   6.354   6.972   2.392 -0.4447  0.3310  0.3498
   44MOL0     C 5861   6.252   7.056   2.345 -0.3538  0.0179 -0.0612
   44MOL0     C 5862   6.287   7.170   2.267 -0.0286  0.7682 -1.1063
   44MOL0     O 5863   6.198   7.237   2.189 -0.9368 -0.7792 -1.1020
   44MOL0     C 5864   6.052   7.215   2.204  0.2241  0.6927 -0.8562
   44MOL0     C 5865   5.965   7.330   2.157 -0.7833  0.6904 -0.2686
   44MOL0     C 5866   5.971   7.444   2.261  0.4048 -0.2747 -0.0286
   44MOL0     C 5867   5.958   7.587   2.196  0.4434  0.0721  0.0589
   44MOL0     C 5868   5.819   7.584   2.157  0.4712  0.6577 -0.3256
   44MOL0     C 5869   5.708   7.592   2.099 -1.0251 -0.3640  0.0501
   44MOL0     C 5870   6.426   7.204   2.254 -0.4355  0.1933 -0.3509
   44MOL0     C 5871   6.528   7.118   2.307  0.4050 -0.3405 -0.2789
   44MOL0     C 5872   6.660   7.159   2.270 -0.2131  0.0406  0.4816
   44MOL0     H 5873   6.493   6.559   2.564  0.5631 -4.1394  0.6377
   44MOL0     H 5874   6.615   6.401   2.671 -0.6106 -0.4468 -2.7217
   44MOL0     H 5875   6.792   6.231   2.701 -0.8631  0.7527  1.5110
   44MOL0     H 5876   6.892   6.334   2.601 -1.5025 -0.9599 -0.7071
   44MOL0     H 5877   6.982   6.197   2.854 -0.8811 -6.3872 -0.9985
   44MOL0     H 5878   7.084   6.279   2.732 -0.2697  1.2841  0.2986
   44MOL0     H 5879   7.110   6.033   2.683 -0.1871 -0.0549 -2.4047
   44MOL0     H 5880   6.978   6.068   2.589 -0.0783 -0.6096  0.6413
   44MOL0     H 5881   6.947   5.950   2.868 -2.3112  1.8297  1.8710
   44MOL0     H 5882   6.811   6.018   2.776  0.5576 -0.0013  0.5037
   44MOL0     H 5883   6.882   5.874   2.586  4.1463  5.4175 -0.5555
   44MOL0     H 5884   6.973   5.773   2.710  1.2114  0.5073 -1.5833
   44MOL0     H 5885   6.776   5.754   2.847  1.2812 -1.3093  0.0513
   44MOL0     H 5886   6.679   5.838   2.725  0.7629  0.0785 -3.8440
   44MOL0     H 5887   6.711   5.677   2.556 -2.0807 -0.3520  0.8309
   44MOL0     H 5888   6.628   5.612   2.684  0.1859 -3.8365 -1.2295
   44MOL0     H 5889   6.763   5.456   2.629 -2.0487  1.2364 -0.3591
   44MOL0     H 5890   6.915   5.547   2.598  1.2412  0.7752  2.7350
   44MOL0     H 5891   6.674   5.410   2.886  1.0959 -2.0005  0.7816
   44MOL0     H 5892   6.716   5.335   3.111 -1.6482  1.6931 -0.6926
   44MOL0     H 5893   6.885   5.334   3.164 -0.6755 -1.2570 -0.6719
   44MOL0     H 5894   6.689   5.556   3.227  0.9849 -0.0757 -0.9300
   44MOL0     H 5895   6.737   5.414   3.342  0.5704  0.5862  1.4276
   44MOL0     H 5896   6.906   5.650   3.238  0.0546 -0.4337 -0.6874
   44MOL0     H 5897   6.974   5.503   3.306 -1.7767 -2.5138 -1.8474
   44MOL0     H 5898   6.775   5.701   3.441  0.2636  0.2439  0.1598
   44MOL0     H 5899   6.940   5.729   3.434 -0.2932 -0.0688 -0.2182
   44MOL0     H 5900   6.936   5.409   3.759  0.3724  1.2819  1.4652
   44MOL0     H 5901   6.765   5.382   3.944  0.0037 -0.2559  0.5645
   44MOL0     H 5902   6.377   5.496   4.188  0.3089  0.1820 -0.2450
   44MOL0     H 5903   6.180   5.392   4.311 -2.1125 -0.6923 -0.8366
   44MOL0     H 5904   6.097   4.971   4.212 -0.9475 -0.7699 -0.7877
   44MOL0     H 5905   6.154   4.952   4.377 -2.5156 -0.8829  0.2193
   44MOL0     H 5906   5.958   4.992   4.481  4.7595  3.1137 -0.3712
   44MOL0     H 5907   5.899   5.087   4.341  0.7457  0.3464 -1.5920
   44MOL0     H 5908   5.875   4.868   4.214 -2.6204 -1.4938  0.2144
   44MOL0     H 5909   5.954   4.786   4.350 -2.7080 -3.2141 -0.0896
   44MOL0     H 5910   5.773   4.827   4.502 -0.4604  3.1759  0.1101
   44MOL0     H 5911   5.721   4.736   4.351  2.2104 -1.0812  1.1142
   44MOL0     H 5912   5.661   5.030   4.399  1.8152 -0.0536 -2.6005
   44MOL0     H 5913   5.548   4.900   4.442 -1.6999  2.1873  1.1869
   44MOL0     H 5914   5.646   4.890   4.158 -1.0428 -2.8119  0.5580
   44MOL0     H 5915   5.510   4.833   4.240  0.3682 -0.4990  2.8982
   44MOL0     H 5916   5.567   5.143   4.205  0.0809  0.9827  2.5144
   44MOL0     H 5917   5.434   5.070   4.286  1.6293  1.9156  0.9311
   44MOL0     H 5918   5.354   4.993   4.046 -0.2300  1.6188  0.2140
   44MOL0     H 5919   5.400   5.160   4.059  1.0581  1.6204  0.2923
   44MOL0     H 5920   6.312   5.018   4.175 -0.7324  0.1243  1.4469
   44MOL0     H 5921   6.511   5.114   4.072 -0.1784 -0.8653  2.6674
   44MOL0     H 5922   6.468   5.534   3.671 -0.3810  0.0238 -0.2100
   44MOL0     H 5923   6.634   5.559   3.498  1.7996 -0.2606 -0.3928
   44MOL0     H 5924   6.944   6.656   2.736  0.8061 -2.1735 -0.0032
   44MOL0     H 5925   6.831   6.826   2.622  1.5336 -1.7615  0.8260
   44MOL0     H 5926   6.329   6.878   2.441  2.0388  0.4126  1.9273
   44MOL0     H 5927   6.150   7.020   2.359 -0.0481  0.0241  2.8898
   44MOL0     H 5928   6.029   7.208   2.311 -2.2550  2.3426 -1.1881
   44MOL0     H 5929   6.020   7.124   2.153  1.6515 -0.7634  0.7125
   44MOL0     H 5930   5.868   7.289   2.128  1.1227 -4.0663 -0.8859
   44MOL0     H 5931   6.012   7.363   2.065 -1.5614 -2.3349 -1.8845
   44MOL0     H 5932   6.063   7.463   2.317  1.4064  1.3109 -2.0285
   44MOL0     H 5933   5.900   7.408   2.335  0.3705  1.7930  1.0065
   44MOL0     H 5934   5.968   7.667   2.271 -2.2158  0.9207 -0.3811
   44MOL0     H 5935   6.029   7.602   2.114 -0.3294  3.0546 -0.1922
   44MOL0     H 5936   5.616   7.600   2.045  0.0268  3.2868 -1.4926
   44MOL0     H 5937   6.449   7.287   2.188 -0.6259 -0.3851 -1.1590
   44MOL0     H 5938   6.733   7.139   2.348 -1.6081  0.3928  1.9234
   44MOL0     H 5939   6.680   7.104   2.177 -0.5742 -1.7161  1.4030
   44MOL0     H 5940   6.668   7.268   2.265  1.8731 -0.0944  0.1860
   45MOL0     O 5941   5.131   7.861   4.784  0.7667  0.3297 -0.2854
   45MOL0     C 5942   5.170   7.797   4.884 -0.4412 -0.0028  0.1064
   45MOL0     O 5943   5.281   7.832   4.967  0.6040 -0.6948 -0.3895
   45MOL0     C 5944   5.393   7.887   4.900  1.0409  1.0592 -0.4625
   45MOL0     C 5945   5.431   8.008   4.947 -0.6089 -0.3631 -1.1129
   45MOL0     C 5946   5.539   8.075   4.884 -0.3276 -0.1782 -0.3411
   45MOL0     C 5947   5.606   8.014   4.778  0.3238  0.2170 -0.6670
   45MOL0     O 5948   5.718   8.086   4.743  0.4278 -0.3504  0.4543
   45MOL0     C 5949   5.810   8.047   4.651  0.3623 -0.4415  0.3120
   45MOL0     C 5950   5.929   7.987   4.741  0.7535  0.6892  0.4086
   45MOL0     C 5951   5.995   8.089   4.834  0.1416  0.3484  0.4150
   45MOL0     C 5952   6.085   8.184   4.754  0.1290  0.2686  0.8320
   45MOL0     C 5953   6.166   8.268   4.848 -0.0067  0.3085  0.1789
   45MOL0     C 5954   6.228   8.395   4.772  0.7399  0.1477  0.3204
   45MOL0     C 5955   6.329   8.366   4.663 -0.0137 -1.1601  0.3132
   45MOL0     C 5956   6.364   8.500   4.604  0.5914 -0.3095 -0.2113
   45MOL0     N 5957   6.452   8.475   4.495 -0.8684 -0.7297 -0.0032
   45MOL0     C 5958   6.429   8.404   4.380 -0.6272  0.0735  0.6064
   45MOL0     C 5959   6.550   8.416   4.321 -0.1936  0.0954 -0.1478
   45MOL0     C 5960   6.576   8.338   4.189 -0.4346  0.8435 -0.5650
   45MOL0     C 5961   6.453   8.348   4.091 -0.1477 -0.6022 -0.8647
   45MOL0     C 5962   6.444   8.485   4.029 -0.5038  0.5159  0.0242
   45MOL0     C 5963   6.348   8.477   3.915  0.8896  0.2610  0.3718
   45MOL0     O 5964   6.374   8.594   3.835  0.6677  0.4618 -0.4473
   45MOL0     C 5965   6.436   8.575   3.714  0.9342 -1.1660 -0.6218
   45MOL0     C 5966   6.527   8.473   3.687 -0.4813  0.4748 -0.2352
   45MOL0     C 5967   6.595   8.468   3.565 -0.6923 -0.3487  0.5691
   45MOL0     C 5968   6.563   8.559   3.462  0.3787 -0.2589  0.0562
   45MOL0     C 5969   6.623   8.532   3.327 -0.5109 -0.6922  0.4888
   45MOL0     O 5970   6.664   8.401   3.291 -0.1357  0.9351  0.2695
   45MOL0     C 5971   6.701   8.344   3.169  0.2867  0.1194 -0.1182
   45MOL0     C 5972   6.695   8.205   3.144  0.1102  0.0408 -0.0820
   45MOL0     C 5973   6.725   8.142   3.026  0.4993  0.1467 -1.1964
   45MOL0     C 5974   6.761   8.225   2.922 -0.4309  0.3201  0.8129
   45MOL0     O 5975   6.794   8.163   2.797  0.1448 -0.4649 -0.3603
   45MOL0     C 5976   6.869   8.243   2.705  0.0376 -0.1620  0.9473
   45MOL0     C 5977   6.999   8.291   2.758  0.6521  0.0603 -0.1587
   45MOL0     C 5978   7.106   8.308   2.644  0.3901 -0.1351  0.3353
   45MOL0     C 5979   7.250   8.357   2.683 -0.0550 -0.1840  0.2700
   45MOL0     C 5980   7.358   8.291   2.599 -0.4673 -0.0009 -0.0014
   45MOL0     C 5981   7.365   8.304   2.443  0.0989  0.4627 -0.5773
   45MOL0     C 5982   7.385   8.454   2.404 -0.4338 -0.2905 -0.4617
   45MOL0     C 5983   7.444   8.464   2.268 -0.1716 -0.1549 -1.2933
   45MOL0    Cl 5984   7.619   8.451   2.274  0.1244  0.0404 -0.3566
   45MOL0     C 5985   6.760   8.361   2.937 -0.7691 -0.3362 -0.2136
   45MOL0     C 5986   6.734   8.416   3.057 -0.3674 -0.3957 -0.1913
   45MOL0     O 5987   6.607   8.626   3.249 -0.2711 -0.1246 -0.4755
   45MOL0     C 5988   6.485   8.675   3.495 -0.0413  0.2781 -0.2102
   45MOL0     C 5989   6.416   8.680   3.616 -0.9943  0.1978 -0.8231
   45MOL0     N 5990   6.637   8.487   4.395 -0.7225  0.1768  0.7979
   45MOL0     N 5991   6.586   8.505   4.506  0.2545 -0.3088 -0.7313
   45MOL0     C 5992   5.565   7.890   4.728  0.8347  0.2695 -0.0761
   45MOL0     C 5993   5.449   7.839   4.784  0.0991 -0.8769  0.6208
   45MOL0     C 5994   5.080   7.678   4.924 -0.1156  0.8260 -0.0927
   45MOL0     C 5995   4.964   7.654   4.844 -0.4440  0.4347  0.7329
   45MOL0     C 5996   4.879   7.533   4.857  0.0584  0.0825 -0.2630
   45MOL0     C 5997   4.913   7.449   4.961  0.7047 -0.0694 -0.1602
   45MOL0     O 5998   4.845   7.329   4.990 -0.8923 -0.0084  0.3503
   45MOL0     C 5999   4.718   7.301   4.936  0.6313  0.7127 -0.4161
   45MOL0     C 6000   4.721   7.192   4.834  0.2256  0.0036 -0.2222
   45MOL0     C 6001   4.742   7.048   4.888 -0.5247 -0.4964  0.6094
   45MOL0     C 6002   4.879   7.013   4.932  1.0474  0.0304  0.8880
   45MOL0     C 6003   4.894   6.897   5.031 -0.1510  0.6093 -0.1079
   45MOL0     C 6004   4.898   6.799   5.109  0.6021 -0.5959  0.1227
   45MOL0     C 6005   5.024   7.467   5.034  0.0541 -0.9712  1.0587
   45MOL0     C 6006   5.108   7.586   5.021 -0.3862 -0.0182 -0.6265
   45MOL0     C 6007   5.225   7.597   5.121  1.1961  0.7128  0.8818
   45MOL0     H 6008   5.402   8.029   5.049  2.1726 -1.2475 -0.0431
   45MOL0     H 6009   5.567   8.169   4.930 -1.8856  1.5110 -2.6209
   45MOL0     H 6010   5.779   7.964   4.586  0.2888 -1.7544  1.9470
   45MOL0     H 6011   5.853   8.130   4.594 -0.2264  1.8225  2.9873
   45MOL0     H 6012   6.000   7.940   4.673 -0.9085  0.5827 -1.3500
   45MOL0     H 6013   5.876   7.907   4.794  1.3563 -1.4260 -1.9917
   45MOL0     H 6014   6.059   8.036   4.905 -0.9797 -0.9687  0.4853
   45MOL0     H 6015   5.924   8.145   4.896 -1.8504 -2.9362  1.3867
   45MOL0     H 6016   6.152   8.118   4.698  1.8525  1.0059  1.9524
   45MOL0     H 6017   6.020   8.239   4.685 -1.2473  1.4883  2.9800
   45MOL0     H 6018   6.100   8.308   4.926 -0.0034  1.0036 -0.1635
   45MOL0     H 6019   6.246   8.217   4.903  0.7887  0.4200 -0.8405
   45MOL0     H 6020   6.137   8.451   4.750  0.3901 -0.3317  0.5043
   45MOL0     H 6021   6.275   8.453   4.852  0.6078 -0.5356  0.9071
   45MOL0     H 6022   6.277   8.292   4.601 -0.3203 -0.8664  0.2172
   45MOL0     H 6023   6.419   8.321   4.707 -0.9727 -0.7714  2.8825
   45MOL0     H 6024   6.274   8.550   4.569  1.4827  2.5998  1.3520
   45MOL0     H 6025   6.409   8.572   4.673  1.0100  2.3504 -3.0318
   45MOL0     H 6026   6.350   8.342   4.337  1.8446 -0.9120 -3.0034
   45MOL0     H 6027   6.666   8.381   4.145  0.5508  2.1820  2.4987
   45MOL0     H 6028   6.598   8.236   4.223  0.9568  1.6207  1.0193
   45MOL0     H 6029   6.481   8.280   4.010 -0.5993 -1.3547 -0.3945
   45MOL0     H 6030   6.358   8.319   4.137 -2.5953 -1.2948 -5.6627
   45MOL0     H 6031   6.547   8.497   3.995 -0.8951  0.9665 -1.0339
   45MOL0     H 6032   6.417   8.570   4.092 -0.6954 -0.0780  0.7584
   45MOL0     H 6033   6.244   8.483   3.947  0.5718 -1.3098 -0.2649
   45MOL0     H 6034   6.358   8.382   3.861  0.9883  0.8495 -0.6620
   45MOL0     H 6035   6.553   8.401   3.764  3.1695  1.8738  0.0797
   45MOL0     H 6036   6.649   8.376   3.541 -1.5048 -1.1155  1.6080
   45MOL0     H 6037   6.678   8.149   3.236  1.5664 -0.1707  0.0787
   45MOL0     H 6038   6.702   8.037   3.013 -1.3008  0.5206 -1.3508
   45MOL0     H 6039   6.887   8.182   2.616 -0.0895 -0.7690  1.3286
   45MOL0     H 6040   6.819   8.324   2.650  3.4825 -0.4253 -3.0832
   45MOL0     H 6041   6.985   8.387   2.808 -3.1882 -2.0357  3.2820
   45MOL0     H 6042   7.029   8.236   2.847 -3.5863  2.6408  3.2563
   45MOL0     H 6043   7.111   8.218   2.582 -3.2911  0.2533 -0.7687
   45MOL0     H 6044   7.070   8.387   2.578  1.2994 -2.1761 -2.8179
   45MOL0     H 6045   7.259   8.315   2.783 -6.1246 -0.6675  0.9924
   45MOL0     H 6046   7.262   8.465   2.692  2.4233 -0.3299 -0.4803
   45MOL0     H 6047   7.337   8.184   2.614  0.4590 -0.2583 -0.4912
   45MOL0     H 6048   7.451   8.336   2.634 -1.9822  1.5360  2.2795
   45MOL0     H 6049   7.454   8.253   2.406  1.0462  1.7778 -0.1655
   45MOL0     H 6050   7.269   8.261   2.412 -1.9429  2.3107  2.5744
   45MOL0     H 6051   7.450   8.500   2.478 -1.4706  1.4044 -0.5719
   45MOL0     H 6052   7.288   8.504   2.412 -0.7037 -1.1733  3.8254
   45MOL0     H 6053   7.388   8.395   2.204  0.8889 -2.7142  0.3722
   45MOL0     H 6054   7.415   8.561   2.227 -2.8393 -0.4507 -0.2819
   45MOL0     H 6055   6.771   8.421   2.848  0.4526  1.1234  0.8737
   45MOL0     H 6056   6.738   8.524   3.044  1.0958 -0.4944 -0.8154
   45MOL0     H 6057   6.465   8.751   3.420 -2.6282 -1.8141 -1.8366
   45MOL0     H 6058   6.351   8.764   3.641  0.0035  2.2480 -4.4365
   45MOL0     H 6059   5.619   7.845   4.645  0.2957  2.5227 -1.7413
   45MOL0     H 6060   5.423   7.753   4.723  1.0319 -1.0246  0.4186
   45MOL0     H 6061   4.936   7.726   4.768 -2.9973 -2.0445 -0.8193
   45MOL0     H 6062   4.790   7.529   4.795  0.7679 -1.2939 -1.2645
   45MOL0     H 6063   4.667   7.389   4.896 -1.1561 -0.9131 -1.9319
   45MOL0     H 6064   4.658   7.257   5.016  2.2922 -1.1555 -0.1157
   45MOL0     H 6065   4.796   7.214   4.757 -0.7685 -1.0689 -1.5390
   45MOL0     H 6066   4.626   7.208   4.782  0.7732  1.6684 -0.7861
   45MOL0     H 6067   4.728   6.973   4.809  1.7275 -1.2788  0.8781
   45MOL0     H 6068   4.672   7.027   4.969 -0.4205  2.1160  1.4633
   45MOL0     H 6069   4.946   7.003   4.846 -0.2344  1.1936 -0.2887
   45MOL0     H 6070   4.930   7.096   4.983  1.3822  0.3158  0.1056
   45MOL0     H 6071   4.910   6.708   5.164  0.1441 -1.3002 -0.9083
   45MOL0     H 6072   5.048   7.381   5.095 -0.8055 -1.6363  0.4748
   45MOL0     H 6073   5.205   7.673   5.198 -0.5476 -0.2643  1.4572
   45MOL0     H 6074   5.244   7.496   5.160  3.0957  0.2196 -1.1174
   45MOL0     H 6075   5.322   7.619   5.075  1.9969  0.2468  2.2643
   46MOL0     O 6076   9.430   9.023   2.296  0.0777 -0.5489 -0.5613
   46MOL0     C 6077   9.408   9.069   2.410  0.6736  0.3920 -0.7609
   46MOL0     O 6078   9.443   8.995   2.523 -0.3139  0.2011  0.7542
   46MOL0     C 6079   9.506   8.876   2.510  0.0655  0.0449  0.0077
   46MOL0     C 6080   9.436   8.756   2.483 -0.8751  0.0658 -0.0806
   46MOL0     C 6081   9.506   8.641   2.483  0.2814  0.9786 -1.0475
   46MOL0     C 6082   9.648   8.622   2.506 -0.0807  1.1406 -0.5752
   46MOL0     O 6083   9.701   8.494   2.495 -0.5052  0.0453 -0.2863
   46MOL0     C 6084   9.842   8.484   2.512  1.0612  0.2917 -0.1607
   46MOL0     C 6085   9.886   8.364   2.429 -0.9919  0.0575  0.5956
   46MOL0     C 6086  10.031   8.335   2.459 -0.1730  0.6235 -0.6571
   46MOL0     C 6087  10.048   8.274   2.600 -0.7617 -0.1102 -0.5724
   46MOL0     C 6088  10.195   8.231   2.634 -0.0513  0.6693  0.0275
   46MOL0     C 6089  10.241   8.139   2.523 -0.3251 -0.5992  0.9760
   46MOL0     C 6090  10.377   8.079   2.530  0.4322 -0.3321  0.1023
   46MOL0     C 6091  10.410   8.024   2.673  0.5428  0.1051  0.1185
   46MOL0     N 6092  10.553   7.972   2.657 -0.0439 -0.5602  0.4546
   46MOL0     C 6093  10.600   7.844   2.655 -0.1860 -0.4747  0.1382
   46MOL0     C 6094  10.734   7.865   2.672 -0.9849 -0.2117 -0.6201
   46MOL0     C 6095  10.845   7.765   2.678 -0.5678  0.4647  0.3856
   46MOL0     C 6096  10.873   7.713   2.536  0.3546 -0.1286 -0.2629
   46MOL0     C 6097  10.995   7.616   2.540 -0.2796  0.2777  0.0329
   46MOL0     C 6098  10.956   7.472   2.554 -0.0440  0.2824 -0.0399
   46MOL0     O 6099  10.872   7.475   2.671 -0.1219 -0.0369  0.1241
   46MOL0     C 6100  10.883   7.383   2.773 -0.0599  0.3204  0.6559
   46MOL0     C 6101  10.863   7.424   2.901 -0.7661  0.6858 -0.8725
   46MOL0     C 6102  10.875   7.340   3.010  0.1473 -0.4055  0.0421
   46MOL0     C 6103  10.922   7.201   2.988 -0.2024  0.2679  0.6669
   46MOL0     C 6104  10.929   7.114   3.106 -0.5936 -0.4269 -0.9298
   46MOL0     O 6105  10.876   7.159   3.226 -0.1655 -0.2761 -0.1671
   46MOL0     C 6106  10.903   7.082   3.334 -0.6379 -0.9112  0.2049
   46MOL0     C 6107  10.792   7.057   3.411 -0.4108 -0.5851 -0.4608
   46MOL0     C 6108  10.801   6.975   3.515 -0.2311  0.3885 -0.3362
   46MOL0     C 6109  10.923   6.921   3.553 -0.1369 -0.4474 -0.0356
   46MOL0     O 6110  10.922   6.822   3.645 -0.3402 -0.6877  0.3108
   46MOL0     C 6111  10.934   6.687   3.603  0.2815 -0.0423  0.2451
   46MOL0     C 6112  10.779   6.641   3.563 -1.4268  0.1524 -0.8479
   46MOL0     C 6113  10.699   6.622   3.698 -0.5756 -0.8283  0.9805
   46MOL0     C 6114  10.565   6.546   3.676 -0.1888  0.8711 -1.0235
   46MOL0     C 6115  10.494   6.507   3.809  0.4722 -0.0558 -0.3943
   46MOL0     C 6116  10.356   6.446   3.793  0.1010  0.4657 -0.1068
   46MOL0     C 6117  10.355   6.310   3.726  0.6681 -0.6728 -0.3926
   46MOL0     C 6118  10.458   6.217   3.770  0.3577  0.9434  0.2145
   46MOL0    Cl 6119  10.416   6.062   3.700 -0.0145 -0.2323  0.6343
   46MOL0     C 6120  11.037   6.964   3.495 -0.3743  0.0668 -1.4687
   46MOL0     C 6121  11.029   7.051   3.381 -1.0034  0.4750  0.6710
   46MOL0     O 6122  10.978   7.003   3.082  0.0257 -0.1475 -0.2059
   46MOL0     C 6123  10.944   7.163   2.854 -0.4336  0.0269 -0.9903
   46MOL0     C 6124  10.933   7.256   2.753 -1.4263  0.9209  0.0422
   46MOL0     N 6125  10.764   8.005   2.680 -0.6677  0.0755  0.2297
   46MOL0     N 6126  10.651   8.070   2.677 -0.9826 -0.5350 -0.7606
   46MOL0     C 6127   9.716   8.742   2.548  0.4029  0.8809  0.2340
   46MOL0     C 6128   9.640   8.863   2.544  0.3253  0.8089  0.0155
   46MOL0     C 6129   9.329   9.189   2.430 -0.2627 -0.9900  0.1550
   46MOL0     C 6130   9.291   9.228   2.564  1.4267  0.7430  0.6097
   46MOL0     C 6131   9.178   9.304   2.591  0.9814 -0.1823  0.3788
   46MOL0     C 6132   9.108   9.362   2.485  0.4054 -1.1461 -0.7857
   46MOL0     O 6133   9.000   9.444   2.500  0.4434 -0.1518 -0.5069
   46MOL0     C 6134   8.968   9.492   2.633  1.5212  0.3933  0.3625
   46MOL0     C 6135   8.846   9.416   2.694 -0.1179 -0.6415 -0.2797
   46MOL0     C 6136   8.780   9.313   2.607 -0.1931 -0.8426 -0.2892
   46MOL0     C 6137   8.658   9.232   2.670 -0.0219 -0.3933 -0.2982
   46MOL0     C 6138   8.550   9.332   2.687  0.1800 -0.1593  0.8482
   46MOL0     C 6139   8.464   9.408   2.706  0.7740  0.9555  0.5247
   46MOL0     C 6140   9.150   9.337   2.350 -0.2486 -1.4252  0.0497
   46MOL0     C 6141   9.260   9.257   2.317  0.5733  0.3150  0.0486
   46MOL0     C 6142   9.277   9.232   2.167 -0.2561 -0.2487  0.4909
   46MOL0     H 6143   9.329   8.758   2.461 -0.6746 -1.6231 -1.2963
   46MOL0     H 6144   9.453   8.550   2.454 -0.3739  0.9567  0.1599
   46MOL0     H 6145   9.891   8.568   2.462  0.8942  0.4730 -0.0211
   46MOL0     H 6146   9.870   8.471   2.617  3.9077  1.2580 -0.7097
   46MOL0     H 6147   9.872   8.363   2.321 -1.9300 -1.4555  0.6969
   46MOL0     H 6148   9.829   8.272   2.446  0.2653 -2.0561 -4.7756
   46MOL0     H 6149  10.093   8.425   2.452 -0.3089  0.6743 -1.2432
   46MOL0     H 6150  10.065   8.262   2.384  2.3935  2.2684 -1.2245
   46MOL0     H 6151  10.017   8.348   2.674  0.9241  0.8600 -0.8138
   46MOL0     H 6152   9.984   8.185   2.603 -1.0230  0.0769 -0.5448
   46MOL0     H 6153  10.250   8.325   2.631 -0.3693  0.8403 -0.5014
   46MOL0     H 6154  10.213   8.176   2.727 -1.1895 -1.0710 -0.7176
   46MOL0     H 6155  10.169   8.061   2.495  0.3651 -1.3337  1.1983
   46MOL0     H 6156  10.248   8.217   2.447  1.7124 -0.4012  1.3216
   46MOL0     H 6157  10.448   8.158   2.504 -0.2272 -0.2400 -1.5235
   46MOL0     H 6158  10.378   7.994   2.461  0.4189 -0.8962  0.7758
   46MOL0     H 6159  10.399   8.091   2.759 -0.5645 -1.8583  1.5676
   46MOL0     H 6160  10.344   7.938   2.688  1.7205 -0.7977  0.3466
   46MOL0     H 6161  10.549   7.748   2.657  3.1157 -2.3998  1.5190
   46MOL0     H 6162  10.938   7.806   2.716  0.5688 -0.5056 -1.1975
   46MOL0     H 6163  10.810   7.690   2.749 -1.2597  0.1107 -0.3141
   46MOL0     H 6164  10.778   7.670   2.504  0.1533 -2.5619  3.1164
   46MOL0     H 6165  10.897   7.798   2.472  1.9270 -0.7413 -0.5465
   46MOL0     H 6166  11.069   7.644   2.616 -0.1398  0.8293 -0.3048
   46MOL0     H 6167  11.031   7.622   2.436  1.7441 -0.3931  0.6476
   46MOL0     H 6168  11.042   7.404   2.550 -0.2987  0.0118 -1.1981
   46MOL0     H 6169  10.912   7.445   2.458  0.7475  3.1653 -1.3433
   46MOL0     H 6170  10.821   7.522   2.919  0.3547  0.6423  2.8912
   46MOL0     H 6171  10.837   7.375   3.106 -1.3368  1.4208 -1.1349
   46MOL0     H 6172  10.700   7.095   3.368 -0.4859 -0.1067  0.1119
   46MOL0     H 6173  10.712   6.954   3.572 -0.2818  1.6734  0.0826
   46MOL0     H 6174  11.013   6.686   3.528  0.3835 -1.4398  0.3453
   46MOL0     H 6175  10.968   6.615   3.678 -2.4615 -1.6984  0.0609
   46MOL0     H 6176  10.741   6.715   3.492  3.1272  3.0520 -0.7067
   46MOL0     H 6177  10.790   6.546   3.510  0.3338  0.9748 -2.0503
   46MOL0     H 6178  10.769   6.559   3.755 -1.9085 -2.4708  0.8732
   46MOL0     H 6179  10.685   6.719   3.746  0.4346 -0.9889  1.6408
   46MOL0     H 6180  10.596   6.458   3.620 -0.1408 -2.8955  4.2470
   46MOL0     H 6181  10.514   6.617   3.610  3.2601  3.7014 -0.9528
   46MOL0     H 6182  10.471   6.601   3.860 -1.1960 -0.1385 -0.9293
   46MOL0     H 6183  10.556   6.444   3.873 -0.2105  0.3730  0.7226
   46MOL0     H 6184  10.315   6.439   3.894  2.6412  0.0124  0.9634
   46MOL0     H 6185  10.295   6.523   3.743  1.8482  0.9842 -1.5276
   46MOL0     H 6186  10.364   6.333   3.619  2.3193  1.2453  0.0836
   46MOL0     H 6187  10.263   6.252   3.740 -0.4953  1.0695 -0.4494
   46MOL0     H 6188  10.561   6.251   3.761  0.1815  1.0070 -2.4002
   46MOL0     H 6189  10.440   6.198   3.876  3.3598  3.2060  1.2558
   46MOL0     H 6190  11.134   6.922   3.520  0.3344  2.1536 -0.4294
   46MOL0     H 6191  11.123   7.080   3.336 -0.2566  2.4389  3.2798
   46MOL0     H 6192  10.982   7.064   2.830  2.0625  0.2917  1.4450
   46MOL0     H 6193  10.965   7.235   2.652 -3.5096  0.6150 -0.5964
   46MOL0     H 6194   9.820   8.752   2.577 -0.3618  3.7124  2.4467
   46MOL0     H 6195   9.686   8.956   2.574  1.1059  0.3305  0.3189
   46MOL0     H 6196   9.321   9.164   2.646 -0.2336 -1.6995 -0.5519
   46MOL0     H 6197   9.147   9.306   2.694 -3.3264  3.1353 -0.6821
   46MOL0     H 6198   8.950   9.599   2.621  1.8337  0.7240  2.4037
   46MOL0     H 6199   9.048   9.485   2.708  0.2201  1.7719  1.9738
   46MOL0     H 6200   8.777   9.488   2.739  0.4047 -0.6816  0.6007
   46MOL0     H 6201   8.896   9.352   2.767 -0.5530  0.6381  1.1998
   46MOL0     H 6202   8.856   9.241   2.576  1.7381  1.9699 -2.7136
   46MOL0     H 6203   8.749   9.338   2.505  1.1331 -0.2350 -0.5606
   46MOL0     H 6204   8.635   9.148   2.604  1.8530 -0.4758 -0.9273
   46MOL0     H 6205   8.687   9.173   2.758 -1.5934 -5.6266 -2.8933
   46MOL0     H 6206   8.377   9.471   2.716  0.6500  1.0326 -0.7975
   46MOL0     H 6207   9.103   9.397   2.273  1.6135  4.5315  2.9189
   46MOL0     H 6208   9.219   9.299   2.103  0.5635  2.2970  2.2472
   46MOL0     H 6209   9.380   9.227   2.132 -0.1320  0.5375  0.7158
   46MOL0     H 6210   9.235   9.134   2.144 -0.0160 -0.4799  1.0112
   47MOL0     O 6211   0.065   5.986  10.637 -0.7405  0.0812 -0.2065
   47MOL0     C 6212   0.008   6.015  10.743 -0.8258 -0.7523 -0.4916
   47MOL0     O 6213   0.056   5.968  10.863 -0.0719 -1.1182  0.5104
   47MOL0     C 6214   0.157   5.872  10.865  0.6679 -0.6896 -1.0509
   47MOL0     C 6215   0.137   5.744  10.910  0.3102 -0.5189 -0.6944
   47MOL0     C 6216   0.230   5.649  10.904 -0.2668 -0.3856  0.3046
   47MOL0     C 6217   0.361   5.673  10.860  0.0999 -0.0495  0.8393
   47MOL0     O 6218   0.459   5.577  10.846  0.7946  1.1137 -0.7730
   47MOL0     C 6219   0.416   5.457  10.781 -0.8288  0.6822  0.7142
   47MOL0     C 6220   0.532   5.422  10.678  1.1300 -0.9947 -0.4295
   47MOL0     C 6221   0.568   5.527  10.578 -0.4604  1.0475  0.3920
   47MOL0     C 6222   0.453   5.600  10.513  0.2131  0.1552  0.2972
   47MOL0     C 6223   0.494   5.705  10.403 -0.7868 -0.5526  0.8576
   47MOL0     C 6224   0.461   5.848  10.428  0.1189 -0.0952 -0.4456
   47MOL0     C 6225   0.584   5.926  10.481  0.1588 -0.2267 -0.4264
   47MOL0     C 6226   0.684   5.968  10.373  0.5341 -0.6882  0.3537
   47MOL0     N 6227   0.620   6.046  10.258  0.2007 -0.1778 -0.7604
   47MOL0     C 6228   0.557   6.174  10.278 -0.4409 -1.0290  0.2592
   47MOL0     C 6229   0.458   6.176  10.180  0.0960 -0.4525  0.6097
   47MOL0     C 6230   0.372   6.291  10.135  0.3324  0.0464 -0.0849
   47MOL0     C 6231   0.221   6.273  10.164  0.7396 -0.3671 -0.0278
   47MOL0     C 6232   0.136   6.407  10.122 -0.1630  0.0676 -0.3439
   47MOL0     C 6233  -0.002   6.407  10.186  0.2254 -0.6853  0.0897
   47MOL0     O 6234  -0.068   6.293  10.146  0.6157  0.1291 -0.3967
   47MOL0     C 6235  -0.211   6.286  10.158  0.4323  1.3712 -0.1663
   47MOL0     C 6236  -0.281   6.367  10.236  0.6045  0.3410 -0.1095
   47MOL0     C 6237  -0.427   6.357  10.237 -0.1514  0.2850 -0.1438
   47MOL0     C 6238  -0.498   6.265  10.149  0.0307 -0.1115 -1.0286
   47MOL0     C 6239  -0.642   6.264  10.150 -0.3494  0.7247 -0.6516
   47MOL0     O 6240  -0.708   6.202  10.048 -0.5960 -0.2190  0.4082
   47MOL0     C 6241  -0.842   6.188  10.039  1.4477  0.0858 -0.3038
   47MOL0     C 6242  -0.927   6.187  10.153 -0.8811  1.1624  0.1921
   47MOL0     C 6243  -1.064   6.172  10.143  0.3840  0.0183  0.1276
   47MOL0     C 6244  -1.118   6.145  10.016 -0.9909 -0.0077  0.0824
   47MOL0     O 6245  -1.246   6.114   9.973  0.5095 -0.1771 -0.2021
   47MOL0     C 6246  -1.359   6.128  10.061  0.4694 -0.7623  0.2065
   47MOL0     C 6247  -1.360   5.989  10.133 -0.2797 -0.0739 -0.1946
   47MOL0     C 6248  -1.439   5.965  10.257  0.1580  0.1432  0.2141
   47MOL0     C 6249  -1.412   6.062  10.374 -0.3013 -0.0695  0.3227
   47MOL0     C 6250  -1.489   6.053  10.508  0.1749  0.0157  0.9608
   47MOL0     C 6251  -1.407   6.117  10.624  0.7389 -0.4739  0.7588
   47MOL0     C 6252  -1.491   6.092  10.751  0.4488 -0.4144  0.0743
   47MOL0     C 6253  -1.603   6.199  10.764  0.5233  0.3518  0.5924
   47MOL0    Cl 6254  -1.726   6.110  10.873  0.4413 -0.3770  0.1594
   47MOL0     C 6255  -1.037   6.161   9.897 -0.1314  0.4414 -1.0908
   47MOL0     C 6256  -0.896   6.180   9.910  0.1940  0.2976  0.1057
   47MOL0     O 6257  -0.698   6.309  10.251 -0.0350 -0.0963  0.1518
   47MOL0     C 6258  -0.422   6.181  10.077 -0.5463  0.8746 -0.1584
   47MOL0     C 6259  -0.282   6.204  10.063 -0.7354  0.4221  1.0557
   47MOL0     N 6260   0.462   6.052  10.117  0.5161 -0.5093 -0.7193
   47MOL0     N 6261   0.551   5.975  10.160 -0.3525 -0.0959  0.2778
   47MOL0     C 6262   0.389   5.801  10.825 -0.3483 -0.7037 -0.1615
   47MOL0     C 6263   0.287   5.903  10.824 -0.5047  0.4087  0.1546
   47MOL0     C 6264  -0.107   6.111  10.724 -0.7968 -0.0959 -0.2236
   47MOL0     C 6265  -0.186   6.149  10.833  0.2669 -0.5055 -0.3269
   47MOL0     C 6266  -0.293   6.234  10.834 -0.6911 -0.0000 -0.3021
   47MOL0     C 6267  -0.328   6.283  10.713 -0.0094  0.0912  0.5644
   47MOL0     O 6268  -0.448   6.350  10.682 -0.1076  0.3793  0.2256
   47MOL0     C 6269  -0.576   6.309  10.735  0.2758  0.0821  0.4115
   47MOL0     C 6270  -0.666   6.294  10.617 -0.3767 -0.5023 -0.2592
   47MOL0     C 6271  -0.805   6.342  10.657  1.0520 -0.3924  0.1028
   47MOL0     C 6272  -0.883   6.348  10.527  0.6036 -0.8009  0.8965
   47MOL0     C 6273  -1.028   6.376  10.556 -0.0516 -0.0151 -0.7837
   47MOL0     C 6274  -1.139   6.405  10.595  0.9566  0.4134  0.4793
   47MOL0     C 6275  -0.264   6.242  10.592 -0.3764 -0.9383  0.1042
   47MOL0     C 6276  -0.145   6.173  10.595 -0.3775 -0.2877  0.5269
   47MOL0     C 6277  -0.064   6.164  10.467  0.5101 -0.0657  0.4674
   47MOL0     H 6278   0.040   5.725  10.956  1.7585 -1.1169  2.3036
   47MOL0     H 6279   0.217   5.552  10.951  0.2088 -0.0809  1.0799
   47MOL0     H 6280   0.401   5.381  10.858  1.4245 -0.7243 -0.1437
   47MOL0     H 6281   0.328   5.466  10.717  0.4238 -2.0585 -1.6325
   47MOL0     H 6282   0.497   5.330  10.630  1.7893 -2.2292  1.3380
   47MOL0     H 6283   0.620   5.399  10.738  0.9880 -2.0470 -0.6094
   47MOL0     H 6284   0.624   5.475  10.499  3.1231  4.4994  0.3159
   47MOL0     H 6285   0.633   5.600  10.628  0.5159  2.5766 -2.8128
   47MOL0     H 6286   0.391   5.523  10.467  1.0800 -1.4885  1.7920
   47MOL0     H 6287   0.395   5.653  10.589  0.2667  0.9373 -0.1896
   47MOL0     H 6288   0.602   5.703  10.387 -0.9926  3.0033 -2.5582
   47MOL0     H 6289   0.445   5.677  10.309  2.5652 -0.5991 -1.0300
   47MOL0     H 6290   0.417   5.878  10.333  1.8364 -1.3517 -1.7128
   47MOL0     H 6291   0.377   5.859  10.498  0.2637 -0.5885 -0.1886
   47MOL0     H 6292   0.635   5.871  10.560  0.6543  0.2795 -0.3873
   47MOL0     H 6293   0.558   6.026  10.516  2.0863  0.6550 -1.3417
   47MOL0     H 6294   0.755   6.040  10.415  0.7571  0.7784 -2.2956
   47MOL0     H 6295   0.740   5.880  10.340 -0.7540 -1.4086  0.0385
   47MOL0     H 6296   0.584   6.251  10.349 -0.9881 -2.2072  1.7813
   47MOL0     H 6297   0.408   6.379  10.190 -2.3805  0.2982  1.5001
   47MOL0     H 6298   0.390   6.289  10.027  1.6556 -0.1174  0.1277
   47MOL0     H 6299   0.174   6.199  10.100  2.2216 -0.1254 -1.4376
   47MOL0     H 6300   0.217   6.252  10.272  1.6121  2.3385  0.6133
   47MOL0     H 6301   0.130   6.427  10.015  3.8023  1.3720 -0.4929
   47MOL0     H 6302   0.169   6.504  10.159  1.7667  0.6356 -3.2185
   47MOL0     H 6303  -0.051   6.501  10.159 -1.4068 -1.7729 -0.9668
   47MOL0     H 6304   0.010   6.414  10.294  2.5152  2.5015 -0.2305
   47MOL0     H 6305  -0.230   6.443  10.294  3.4975 -1.6403  0.1549
   47MOL0     H 6306  -0.492   6.423  10.292  0.2398  0.9103 -0.4253
   47MOL0     H 6307  -0.891   6.190  10.255  0.6029  0.6397 -0.2856
   47MOL0     H 6308  -1.131   6.170  10.228  1.0694 -0.8242  0.6618
   47MOL0     H 6309  -1.350   6.214  10.127 -0.0494  0.7974 -1.6523
   47MOL0     H 6310  -1.449   6.154  10.006 -0.5694  1.7281  2.8678
   47MOL0     H 6311  -1.406   5.921  10.061 -1.8847  1.7527 -0.9640
   47MOL0     H 6312  -1.255   5.969  10.159  1.8491  1.7275 -5.9471
   47MOL0     H 6313  -1.543   5.972  10.224 -0.3487  0.2348  1.7467
   47MOL0     H 6314  -1.430   5.861  10.290 -0.8310 -0.0129  0.0180
   47MOL0     H 6315  -1.407   6.168  10.350  0.9628  0.9209  4.1610
   47MOL0     H 6316  -1.308   6.046  10.405 -0.5083  1.1441  1.7696
   47MOL0     H 6317  -1.503   5.948  10.536 -3.6222  0.1621  0.1554
   47MOL0     H 6318  -1.593   6.084  10.493  0.3387 -0.3736 -1.4879
   47MOL0     H 6319  -1.307   6.071  10.622  0.0543 -2.1080 -2.8746
   47MOL0     H 6320  -1.409   6.226  10.615 -1.3504 -0.4559  1.1030
   47MOL0     H 6321  -1.426   6.092  10.839 -3.6178  1.9643  3.4546
   47MOL0     H 6322  -1.544   5.997  10.744  3.1765 -1.9083 -3.8337
   47MOL0     H 6323  -1.554   6.285  10.811  0.0197 -0.0949  1.9864
   47MOL0     H 6324  -1.642   6.215  10.663  0.7063 -2.9596 -0.1366
   47MOL0     H 6325  -1.080   6.146   9.798 -0.0398  0.2497 -1.1016
   47MOL0     H 6326  -0.840   6.176   9.818  2.3665 -1.3694  1.4107
   47MOL0     H 6327  -0.467   6.095  10.029  2.1810 -1.4486  1.1449
   47MOL0     H 6328  -0.220   6.149   9.992 -2.0817  1.0065 -0.6531
   47MOL0     H 6329   0.490   5.824  10.794 -0.4891  1.4263  0.8261
   47MOL0     H 6330   0.308   6.003  10.787  2.8617  0.0598  0.8416
   47MOL0     H 6331  -0.133   6.132  10.926 -1.7335 -0.8772  0.8060
   47MOL0     H 6332  -0.344   6.269  10.923  1.1004 -1.0899  1.2192
   47MOL0     H 6333  -0.606   6.393  10.799  2.4690  1.8257 -0.7056
   47MOL0     H 6334  -0.551   6.217  10.788 -0.3312 -0.3396 -0.0170
   47MOL0     H 6335  -0.654   6.188  10.594  3.3007 -1.1065  3.3896
   47MOL0     H 6336  -0.627   6.359  10.537 -0.4128 -1.4373 -1.0561
   47MOL0     H 6337  -0.799   6.448  10.684 -1.0956 -1.1023  4.2593
   47MOL0     H 6338  -0.859   6.274  10.724  1.4465  0.7704  1.6613
   47MOL0     H 6339  -0.843   6.418  10.454  4.3134 -3.0119  0.5340
   47MOL0     H 6340  -0.875   6.248  10.484  0.7369 -0.6107  0.4781
   47MOL0     H 6341  -1.236   6.431  10.631  0.7019 -2.3566  2.0230
   47MOL0     H 6342  -0.297   6.285  10.498 -0.1543  1.2176  0.9575
   47MOL0     H 6343   0.041   6.194  10.483  0.8813 -1.1842  0.2087
   47MOL0     H 6344  -0.060   6.063  10.427  0.5073 -0.0889  0.5254
   47MOL0     H 6345  -0.104   6.239  10.398 -0.0392 -0.6520  0.1475
   48MOL0     O 6346   0.764   6.318   6.012  0.5699  0.1560  0.9390
   48MOL0     C 6347   0.685   6.395   6.063 -0.1437 -0.3291 -0.5285
   48MOL0     O 6348   0.687   6.536   6.035  0.1509  0.1546  0.1394
   48MOL0     C 6349   0.763   6.608   5.930  1.8127 -0.0621 -0.9477
   48MOL0     C 6350   0.832   6.539   5.826  1.6501  1.0145  0.1894
   48MOL0     C 6351   0.882   6.607   5.722 -0.5190 -0.2521  0.1444
   48MOL0     C 6352   0.871   6.751   5.711 -1.0009 -0.7064 -0.6058
   48MOL0     O 6353   0.922   6.828   5.611  0.2184 -0.4947 -0.7907
   48MOL0     C 6354   0.946   6.770   5.481 -0.1028 -0.7638 -0.5406
   48MOL0     C 6355   0.990   6.875   5.375  0.2405 -0.5013 -0.7312
   48MOL0     C 6356   1.128   6.926   5.404  0.1073  0.7069 -0.3663
   48MOL0     C 6357   1.157   7.053   5.335 -1.2480 -0.1870  0.8062
   48MOL0     C 6358   1.113   7.191   5.395 -0.2004  0.2674  0.3954
   48MOL0     C 6359   1.159   7.296   5.291 -0.6224 -0.3127  0.6430
   48MOL0     C 6360   1.145   7.439   5.353 -0.1776  0.0776 -0.6297
   48MOL0     C 6361   1.275   7.515   5.328  0.3050 -1.2787  0.8602
   48MOL0     N 6362   1.373   7.478   5.427 -0.2018 -0.4164  0.4027
   48MOL0     C 6363   1.355   7.487   5.564  0.2751  0.4955 -0.1198
   48MOL0     C 6364   1.467   7.428   5.612  0.1629 -0.3662  1.3544
   48MOL0     C 6365   1.486   7.408   5.759 -0.8637 -0.5587 -0.8823
   48MOL0     C 6366   1.591   7.495   5.833  0.7205  0.4168  1.0919
   48MOL0     C 6367   1.558   7.640   5.816 -0.0211  0.0499 -0.7872
   48MOL0     C 6368   1.613   7.726   5.922  0.2709 -0.6214 -1.1075
   48MOL0     O 6369   1.611   7.872   5.908 -0.0425  0.5196  0.0995
   48MOL0     C 6370   1.634   7.956   6.017 -1.3135  0.8257 -0.6125
   48MOL0     C 6371   1.651   7.916   6.147  0.1360 -0.3825 -0.8691
   48MOL0     C 6372   1.690   8.010   6.236 -0.4338  0.8508 -0.2462
   48MOL0     C 6373   1.727   8.140   6.208  0.8861  1.0761 -0.4417
   48MOL0     C 6374   1.777   8.236   6.306 -0.5281 -0.4871 -0.0211
   48MOL0     O 6375   1.747   8.215   6.435  0.1666  0.0322  0.0084
   48MOL0     C 6376   1.808   8.266   6.547 -1.0425 -1.6867  0.6279
   48MOL0     C 6377   1.792   8.191   6.659 -0.8049 -0.1830 -0.7875
   48MOL0     C 6378   1.835   8.217   6.790  0.6420 -0.4182  0.2339
   48MOL0     C 6379   1.908   8.339   6.804  0.3972 -0.5875  0.3588
   48MOL0     O 6380   1.954   8.384   6.918  0.5067 -0.4466  0.6152
   48MOL0     C 6381   1.871   8.386   7.039  0.4959  0.2829 -0.0526
   48MOL0     C 6382   1.955   8.335   7.148  0.4703  0.4967 -0.8741
   48MOL0     C 6383   1.961   8.173   7.155 -0.1258 -0.9044  0.8879
   48MOL0     C 6384   2.031   8.118   7.273 -0.7394 -0.1027  0.1823
   48MOL0     C 6385   1.958   8.120   7.403  0.6324 -0.2007 -0.7562
   48MOL0     C 6386   2.041   8.095   7.523 -0.9430 -0.4647 -0.2437
   48MOL0     C 6387   2.109   7.959   7.523  0.6115 -0.0115  1.0545
   48MOL0     C 6388   2.175   7.937   7.649  0.3952 -0.9178 -1.0875
   48MOL0    Cl 6389   2.300   8.060   7.697  0.2048 -0.2624 -0.1471
   48MOL0     C 6390   1.919   8.428   6.687 -0.8281  0.2795 -0.4875
   48MOL0     C 6391   1.862   8.393   6.560 -0.6676 -0.1677  0.0538
   48MOL0     O 6392   1.849   8.328   6.267  0.7529  0.2681  0.0898
   48MOL0     C 6393   1.691   8.180   6.080 -1.0368 -0.3849 -0.7670
   48MOL0     C 6394   1.653   8.092   5.982 -0.4146  0.1278 -0.5556
   48MOL0     N 6395   1.549   7.383   5.510 -0.4855 -0.9381 -0.4565
   48MOL0     N 6396   1.491   7.412   5.399 -0.0715 -0.7896 -0.0640
   48MOL0     C 6397   0.794   6.811   5.813  0.8523 -0.3330  0.6220
   48MOL0     C 6398   0.737   6.747   5.922  0.5806  0.0137 -0.5182
   48MOL0     C 6399   0.610   6.339   6.177 -0.3604 -0.4736 -0.6814
   48MOL0     C 6400   0.538   6.425   6.259  0.6936  0.0665  1.3563
   48MOL0     C 6401   0.450   6.383   6.357  0.1467 -0.0770 -0.8852
   48MOL0     C 6402   0.427   6.249   6.390  0.6368  0.0825 -0.3605
   48MOL0     O 6403   0.335   6.208   6.490 -0.5734 -0.1022  0.0645
   48MOL0     C 6404   0.400   6.145   6.601  0.1874  0.5615  0.5148
   48MOL0     C 6405   0.358   6.204   6.735  0.4643  0.5308  0.5490
   48MOL0     C 6406   0.397   6.356   6.743 -0.4571 -0.3331  0.6388
   48MOL0     C 6407   0.408   6.394   6.894  0.0043  0.5786  0.4480
   48MOL0     C 6408   0.285   6.438   6.950 -0.7215  0.2563 -0.5289
   48MOL0     C 6409   0.178   6.472   6.997  0.7419  0.7422  0.0490
   48MOL0     C 6410   0.498   6.156   6.310 -0.0901  0.4085 -0.1407
   48MOL0     C 6411   0.583   6.195   6.201  0.9055 -0.3415 -0.2798
   48MOL0     C 6412   0.646   6.086   6.121  0.4849 -0.2009  1.5714
   48MOL0     H 6413   0.839   6.431   5.823  2.9700  1.0990 -0.4088
   48MOL0     H 6414   0.927   6.563   5.633  2.5254  2.1065  0.3830
   48MOL0     H 6415   1.026   6.696   5.473  1.7064  0.8966  1.0527
   48MOL0     H 6416   0.851   6.727   5.447 -0.3266  1.4349 -2.9644
   48MOL0     H 6417   0.921   6.960   5.382  2.3288  1.1954  0.6229
   48MOL0     H 6418   0.987   6.818   5.282  1.6650 -0.8947 -0.5572
   48MOL0     H 6419   1.197   6.848   5.371 -2.5858 -2.1752  0.3606
   48MOL0     H 6420   1.134   6.938   5.513  0.0108  0.4472 -0.3323
   48MOL0     H 6421   1.266   7.059   5.346 -1.3858 -0.1093  2.2373
   48MOL0     H 6422   1.115   7.049   5.234 -1.5306 -0.1796  0.9235
   48MOL0     H 6423   1.008   7.199   5.423 -0.6031 -0.9565 -0.6670
   48MOL0     H 6424   1.171   7.193   5.488 -1.5289  1.1698  1.2340
   48MOL0     H 6425   1.262   7.275   5.261 -0.3853 -0.4879  1.5284
   48MOL0     H 6426   1.095   7.286   5.203 -0.4574 -2.2666  0.6954
   48MOL0     H 6427   1.116   7.436   5.459 -0.3097  2.4478 -0.5423
   48MOL0     H 6428   1.072   7.496   5.296 -1.3900  0.5143  1.2589
   48MOL0     H 6429   1.303   7.488   5.226  1.2701  0.0081  0.7628
   48MOL0     H 6430   1.254   7.622   5.329 -1.4282 -1.5612  0.0655
   48MOL0     H 6431   1.270   7.518   5.624  0.6807 -2.4862  2.2577
   48MOL0     H 6432   1.394   7.423   5.816  0.2212 -1.3405  1.1891
   48MOL0     H 6433   1.542   7.314   5.771 -0.1055 -0.0694 -0.5138
   48MOL0     H 6434   1.591   7.464   5.938  3.7666 -0.5662  0.9190
   48MOL0     H 6435   1.686   7.478   5.780 -0.0429  0.0336 -0.1958
   48MOL0     H 6436   1.449   7.650   5.821 -0.0625 -0.7330 -0.0510
   48MOL0     H 6437   1.585   7.674   5.715  0.8456  0.1541 -0.5279
   48MOL0     H 6438   1.718   7.701   5.941  0.0034 -2.2907 -1.6243
   48MOL0     H 6439   1.569   7.692   6.017 -3.3202 -1.3559 -2.8709
   48MOL0     H 6440   1.653   7.810   6.174  1.4200 -0.3485 -0.7981
   48MOL0     H 6441   1.722   7.975   6.334  1.8008  0.8007 -0.9594
   48MOL0     H 6442   1.739   8.097   6.656  1.1638 -1.4835  1.5273
   48MOL0     H 6443   1.822   8.142   6.866  3.4074  0.1288  1.3409
   48MOL0     H 6444   1.852   8.489   7.070  0.8581  0.5201 -0.6059
   48MOL0     H 6445   1.778   8.331   7.025  0.5660  0.8418 -3.5441
   48MOL0     H 6446   2.058   8.371   7.134  0.8998 -0.4960 -0.3983
   48MOL0     H 6447   1.921   8.372   7.245  1.3590  3.0155 -1.4495
   48MOL0     H 6448   1.859   8.134   7.167 -1.2147  2.0413  2.2468
   48MOL0     H 6449   2.007   8.134   7.063 -0.9461 -1.2179  0.6002
   48MOL0     H 6450   2.130   8.164   7.282 -1.4222  0.9873  3.7066
   48MOL0     H 6451   2.057   8.015   7.246  0.5963  0.3544 -0.3713
   48MOL0     H 6452   1.869   8.057   7.412 -0.0278  0.6954 -0.8923
   48MOL0     H 6453   1.916   8.220   7.415  0.6909 -0.4038  1.6896
   48MOL0     H 6454   2.116   8.175   7.523 -1.9273  0.4842  0.7249
   48MOL0     H 6455   1.969   8.099   7.605  1.9859 -1.4093  2.5931
   48MOL0     H 6456   2.188   7.949   7.449  1.8022  0.5950  2.1966
   48MOL0     H 6457   2.028   7.888   7.499  0.0364  1.4202 -1.5537
   48MOL0     H 6458   2.106   7.952   7.733  0.0296  3.4611 -1.9115
   48MOL0     H 6459   2.211   7.835   7.644  0.4814 -0.8337 -2.5106
   48MOL0     H 6460   1.955   8.527   6.712  0.7875 -0.0355 -1.4108
   48MOL0     H 6461   1.858   8.474   6.488  0.8321  2.4912  2.7354
   48MOL0     H 6462   1.700   8.288   6.066  0.6967 -0.5357 -1.0391
   48MOL0     H 6463   1.635   8.122   5.879  2.8836 -0.2889 -1.3436
   48MOL0     H 6464   0.765   6.915   5.805 -2.9462 -1.3792 -1.2347
   48MOL0     H 6465   0.675   6.794   5.998  0.5356 -0.5011 -0.2348
   48MOL0     H 6466   0.553   6.530   6.236 -0.7596 -0.3708 -2.2738
   48MOL0     H 6467   0.405   6.466   6.411 -1.3291 -1.0554 -0.5372
   48MOL0     H 6468   0.508   6.149   6.583  0.1533  1.0582  0.4098
   48MOL0     H 6469   0.379   6.038   6.596 -2.2068  0.9996 -0.1694
   48MOL0     H 6470   0.411   6.151   6.814  0.4591  0.9763  0.8559
   48MOL0     H 6471   0.249   6.194   6.745  0.5946  0.8246  2.5731
   48MOL0     H 6472   0.321   6.421   6.698 -0.1936  0.6090  1.4960
   48MOL0     H 6473   0.492   6.369   6.692 -0.9977  1.6251  0.0305
   48MOL0     H 6474   0.443   6.313   6.959  0.7210  0.9910  0.5833
   48MOL0     H 6475   0.479   6.476   6.906 -2.1261  2.1074  4.9111
   48MOL0     H 6476   0.092   6.510   7.048  1.2014 -2.2268  3.4455
   48MOL0     H 6477   0.494   6.048   6.321 -3.0128  0.2672 -1.7644
   48MOL0     H 6478   0.620   6.108   6.017  2.0602  0.6801  1.3216
   48MOL0     H 6479   0.755   6.076   6.121  0.4651 -0.4634  0.9637
   48MOL0     H 6480   0.614   5.988   6.158 -2.5996 -0.9081 -2.2959
   49MOL0     O 6481   0.672   3.542  11.280 -0.3792  0.1460 -0.4314
   49MOL0     C 6482   0.661   3.568  11.158  0.8045  0.9976 -0.6854
   49MOL0     O 6483   0.614   3.485  11.067 -0.7946  0.6513 -0.4543
   49MOL0     C 6484   0.534   3.371  11.103  0.5637 -0.1313  0.7511
   49MOL0     C 6485   0.453   3.375  11.215 -0.1706  0.9375 -0.2586
   49MOL0     C 6486   0.368   3.271  11.246  0.5219 -0.5855  0.1304
   49MOL0     C 6487   0.352   3.158  11.163  0.5797 -0.0420 -1.1866
   49MOL0     O 6488   0.253   3.067  11.194 -0.3591  0.4466  0.3437
   49MOL0     C 6489   0.243   3.012  11.334  0.0470  0.2027 -0.0865
   49MOL0     C 6490   0.379   2.982  11.395 -0.1121 -0.5671  0.7966
   49MOL0     C 6491   0.367   2.869  11.509 -0.3965 -1.1641 -0.8907
   49MOL0     C 6492   0.377   2.725  11.452 -0.3319 -0.4981 -0.4768
   49MOL0     C 6493   0.423   2.614  11.547 -0.8304  0.1269 -1.7689
   49MOL0     C 6494   0.368   2.485  11.490  0.5014  0.0802  0.6784
   49MOL0     C 6495   0.355   2.371  11.591  0.0736  0.0498  0.2862
   49MOL0     C 6496   0.351   2.230  11.516 -0.0254 -0.5121 -0.1398
   49MOL0     N 6497   0.225   2.216  11.439 -0.0114  0.0668  0.4884
   49MOL0     C 6498   0.113   2.136  11.464 -0.4766  0.6808  0.8296
   49MOL0     C 6499   0.040   2.146  11.351 -0.5290 -0.8520 -0.1619
   49MOL0     C 6500  -0.094   2.092  11.322 -0.5565  0.2257 -0.2542
   49MOL0     C 6501  -0.095   1.994  11.207 -0.2269 -0.1588 -0.0502
   49MOL0     C 6502  -0.081   2.050  11.071  1.2950 -0.3062  0.8930
   49MOL0     C 6503  -0.091   1.946  10.951 -0.6102  0.2791  0.0981
   49MOL0     O 6504  -0.187   1.843  10.968  0.7731  0.3816  0.4627
   49MOL0     C 6505  -0.239   1.787  10.847 -0.6434 -0.2972  0.1669
   49MOL0     C 6506  -0.351   1.703  10.855 -0.4160 -0.5075  0.5874
   49MOL0     C 6507  -0.414   1.665  10.738 -0.2117 -0.0685  0.7171
   49MOL0     C 6508  -0.343   1.701  10.621 -0.2358  0.5235 -0.3614
   49MOL0     C 6509  -0.408   1.694  10.492  0.6843 -0.1674  0.2091
   49MOL0     O 6510  -0.345   1.731  10.378 -0.6366 -0.5566 -0.3778
   49MOL0     C 6511  -0.410   1.744  10.259 -0.9096  0.5498 -0.5215
   49MOL0     C 6512  -0.504   1.839  10.230  0.5636  0.7496  0.7035
   49MOL0     C 6513  -0.581   1.833  10.113 -0.8394  0.0681 -0.0603
   49MOL0     C 6514  -0.566   1.723  10.030  0.1451  0.1556 -1.1199
   49MOL0     O 6515  -0.629   1.711   9.912 -0.0328  0.5716  0.0284
   49MOL0     C 6516  -0.549   1.680   9.796 -1.0853 -0.3250  0.8651
   49MOL0     C 6517  -0.628   1.750   9.678 -0.1844  0.4285  0.1092
   49MOL0     C 6518  -0.584   1.896   9.646  0.0094  0.1963 -0.3015
   49MOL0     C 6519  -0.623   1.977   9.772 -0.0912  1.4077  0.2736
   49MOL0     C 6520  -0.623   2.129   9.746  0.2186  0.7478  0.2491
   49MOL0     C 6521  -0.485   2.179   9.715 -0.6170  1.3618  0.8176
   49MOL0     C 6522  -0.471   2.325   9.691 -0.5491 -0.7030 -0.0752
   49MOL0     C 6523  -0.508   2.414   9.799 -0.4149 -0.4143  0.9777
   49MOL0    Cl 6524  -0.403   2.396   9.944  0.4260  0.0632 -0.5943
   49MOL0     C 6525  -0.462   1.628  10.060  0.8477  0.1953 -0.1207
   49MOL0     C 6526  -0.385   1.641  10.170 -1.2915 -1.2178 -0.1505
   49MOL0     O 6527  -0.528   1.662  10.492  0.0524 -0.8745 -1.2057
   49MOL0     C 6528  -0.217   1.755  10.616 -0.5963  0.0697 -0.0094
   49MOL0     C 6529  -0.167   1.802  10.735 -0.7461  0.3302 -0.2108
   49MOL0     N 6530   0.101   2.235  11.258  0.6709  0.5514  0.3696
   49MOL0     N 6531   0.212   2.270  11.314  0.4436 -0.2377  0.7881
   49MOL0     C 6532   0.443   3.145  11.062 -0.7588 -1.2800 -0.4865
   49MOL0     C 6533   0.524   3.255  11.016  0.5512 -0.4225  0.5748
   49MOL0     C 6534   0.710   3.692  11.109  0.4975  0.2407  0.2809
   49MOL0     C 6535   0.730   3.712  10.966  0.2988  0.3301  0.1340
   49MOL0     C 6536   0.786   3.822  10.919 -0.0254  0.2339  0.0296
   49MOL0     C 6537   0.817   3.931  11.001  0.0194  0.1156  0.3147
   49MOL0     O 6538   0.859   4.040  10.926 -0.1409 -0.6696  0.2525
   49MOL0     C 6539   0.822   4.168  10.992  0.5439 -0.4679  0.4039
   49MOL0     C 6540   0.958   4.223  11.021 -0.3696 -0.1244 -0.2607
   49MOL0     C 6541   0.962   4.357  11.089 -0.2022 -0.7709  0.5939
   49MOL0     C 6542   1.069   4.356  11.193 -0.3425  0.2789  0.1332
   49MOL0     C 6543   1.010   4.291  11.310 -0.4672  0.1158 -0.4323
   49MOL0     C 6544   0.952   4.222  11.387  1.0156  0.2346 -0.1111
   49MOL0     C 6545   0.795   3.916  11.136  0.2583  0.2144  0.3912
   49MOL0     C 6546   0.735   3.805  11.193 -0.2221 -0.8786 -0.2995
   49MOL0     C 6547   0.713   3.802  11.342  0.4874 -0.1818  0.5143
   49MOL0     H 6548   0.441   3.453  11.290 -2.4437 -0.8111  1.3724
   49MOL0     H 6549   0.313   3.290  11.338  0.8617  2.5936 -0.2195
   49MOL0     H 6550   0.187   3.077  11.402 -1.0640 -0.8608  0.0620
   49MOL0     H 6551   0.178   2.924  11.327 -1.4724  1.3129 -0.4572
   49MOL0     H 6552   0.408   3.073  11.448  3.2450 -0.3260 -1.1667
   49MOL0     H 6553   0.446   2.956  11.312  0.5949  1.3647  0.7139
   49MOL0     H 6554   0.273   2.888  11.561 -1.1951 -3.3218 -1.4372
   49MOL0     H 6555   0.440   2.896  11.587 -1.2007 -0.9160 -0.2045
   49MOL0     H 6556   0.282   2.707  11.401  0.5382 -0.3291 -2.2222
   49MOL0     H 6557   0.458   2.706  11.382  0.0862 -3.4319  0.6712
   49MOL0     H 6558   0.528   2.625  11.578 -1.0104 -1.1929 -0.6081
   49MOL0     H 6559   0.366   2.632  11.638 -0.4711 -2.9838 -0.8286
   49MOL0     H 6560   0.269   2.496  11.445 -0.2773 -1.5688  1.8791
   49MOL0     H 6561   0.449   2.456  11.422 -0.0851  2.2737 -1.0784
   49MOL0     H 6562   0.273   2.385  11.662  0.0827 -2.6776  0.9536
   49MOL0     H 6563   0.441   2.383  11.656  1.4848 -0.7657 -1.3516
   49MOL0     H 6564   0.440   2.222  11.453  1.3337 -2.2980  1.8204
   49MOL0     H 6565   0.356   2.146  11.587 -0.4525 -0.0426  0.4547
   49MOL0     H 6566   0.089   2.087  11.558  1.7060  0.6909  1.4426
   49MOL0     H 6567  -0.131   2.037  11.409 -1.5411  0.7966 -0.3012
   49MOL0     H 6568  -0.169   2.171  11.308 -0.5889  0.7012  2.1101
   49MOL0     H 6569  -0.011   1.924  11.215  0.9372  1.0424 -1.2440
   49MOL0     H 6570  -0.185   1.933  11.204  0.6674 -1.5755 -3.2224
   49MOL0     H 6571   0.009   2.107  11.047 -0.4334  1.0423 -3.5236
   49MOL0     H 6572  -0.161   2.119  11.041  1.6360 -0.3477 -0.1665
   49MOL0     H 6573   0.007   1.897  10.953 -1.0528 -0.8056 -2.0715
   49MOL0     H 6574  -0.110   2.011  10.865 -1.4855 -1.1845 -0.8570
   49MOL0     H 6575  -0.406   1.684  10.946  3.3675 -0.8889  3.0171
   49MOL0     H 6576  -0.511   1.617  10.737  0.8972 -3.4014 -5.9489
   49MOL0     H 6577  -0.516   1.926  10.293 -0.7218  1.5817 -0.6333
   49MOL0     H 6578  -0.645   1.914  10.082 -0.5403  0.5698  0.6115
   49MOL0     H 6579  -0.446   1.715   9.795 -1.9469  2.6380 -2.2136
   49MOL0     H 6580  -0.539   1.571   9.785  3.9632  0.1277 -2.6843
   49MOL0     H 6581  -0.612   1.694   9.586  0.4491  2.4638 -1.1014
   49MOL0     H 6582  -0.735   1.740   9.698  0.0019 -0.8625  0.5465
   49MOL0     H 6583  -0.478   1.889   9.619  0.7474  3.4898  1.2028
   49MOL0     H 6584  -0.625   1.938   9.554 -0.8523  0.7950  0.3422
   49MOL0     H 6585  -0.549   1.969   9.852 -1.0469  2.2154  1.2675
   49MOL0     H 6586  -0.726   1.961   9.806 -0.8458  1.3636 -1.8969
   49MOL0     H 6587  -0.657   2.168   9.843  1.1211 -3.4972  2.5172
   49MOL0     H 6588  -0.688   2.165   9.666  3.9919  3.7852 -1.7306
   49MOL0     H 6589  -0.417   2.148   9.795  1.0886  4.4219  0.7136
   49MOL0     H 6590  -0.459   2.135   9.618  0.7240  0.6685  1.4643
   49MOL0     H 6591  -0.529   2.349   9.602 -0.6138  1.2240  0.4510
   49MOL0     H 6592  -0.363   2.330   9.670 -0.4394 -1.7899  0.1550
   49MOL0     H 6593  -0.507   2.518   9.767 -4.3256 -0.8220 -1.2214
   49MOL0     H 6594  -0.613   2.390   9.821 -1.4219  3.1128  0.5587
   49MOL0     H 6595  -0.460   1.545   9.990 -0.4428  1.2077 -1.4317
   49MOL0     H 6596  -0.298   1.577  10.179  0.4417  1.2142  1.8275
   49MOL0     H 6597  -0.167   1.768  10.521 -1.5626  3.8421 -0.1879
   49MOL0     H 6598  -0.075   1.858  10.722  0.0935  0.3288  4.1143
   49MOL0     H 6599   0.442   3.057  10.998  0.2349 -3.6499  2.5086
   49MOL0     H 6600   0.592   3.250  10.932  1.7703 -1.0495  1.5783
   49MOL0     H 6601   0.706   3.636  10.892  1.2612  0.5590 -0.4207
   49MOL0     H 6602   0.789   3.830  10.811 -1.3236  2.0177  0.0772
   49MOL0     H 6603   0.757   4.154  11.079 -1.9471 -1.9540 -1.5418
   49MOL0     H 6604   0.768   4.235  10.925 -2.6162 -2.3749  0.8501
   49MOL0     H 6605   1.007   4.236  10.924 -2.2922 -1.1203 -1.4267
   49MOL0     H 6606   1.012   4.146  11.078 -3.0066 -1.5715  0.4614
   49MOL0     H 6607   0.865   4.367  11.139  0.3769  0.6237  1.5212
   49MOL0     H 6608   0.987   4.436  11.019  4.2588 -2.3839  0.0744
   49MOL0     H 6609   1.157   4.298  11.165  1.2438  1.5124  2.3044
   49MOL0     H 6610   1.109   4.456  11.213  1.1207 -0.2093 -0.2347
   49MOL0     H 6611   0.892   4.158  11.448  0.7894 -2.6358 -3.0297
   49MOL0     H 6612   0.818   4.004  11.197 -1.0175  0.0260  1.2008
   49MOL0     H 6613   0.738   3.895  11.394  2.2321 -0.2640 -0.1346
   49MOL0     H 6614   0.612   3.767  11.367  0.0800 -0.3124 -1.1801
   49MOL0     H 6615   0.784   3.729  11.383 -0.0463 -0.8208  0.3270
   50MOL0     O 6616   3.936  10.357   2.564 -0.9400  0.5221  0.4329
   50MOL0     C 6617   3.983  10.266   2.495  0.0471  0.0032  1.3365
   50MOL0     O 6618   3.988  10.268   2.361  0.4140  0.5702 -0.2602
   50MOL0     C 6619   3.965  10.382   2.293 -1.4468 -0.5417 -0.2052
   50MOL0     C 6620   4.020  10.518   2.315 -0.3058  0.2263  0.8062
   50MOL0     C 6621   3.970  10.618   2.251  0.3465 -0.0646  1.5245
   50MOL0     C 6622   3.882  10.606   2.138 -0.9108 -0.0142 -0.2603
   50MOL0     O 6623   3.844  10.711   2.061 -0.5075 -0.3917 -0.2153
   50MOL0     C 6624   3.707  10.724   2.016 -0.4166 -0.5055 -0.5842
   50MOL0     C 6625   3.653  10.866   2.019  0.4420  0.9940 -0.1305
   50MOL0     C 6626   3.718  10.980   1.943  0.2183  1.3452 -0.0039
   50MOL0     C 6627   3.608  11.080   1.902 -0.2032 -1.6124  0.0262
   50MOL0     C 6628   3.668  11.218   1.887  1.1074 -0.2543  1.2174
   50MOL0     C 6629   3.572  11.298   1.801  0.2446 -0.5610  0.3319
   50MOL0     C 6630   3.618  11.447   1.781 -1.2127  0.1758 -0.4358
   50MOL0     C 6631   3.727  11.477   1.670 -0.2115  0.7601  0.8941
   50MOL0     N 6632   3.679  11.454   1.532 -0.1968 -0.0171  0.4579
   50MOL0     C 6633   3.727  11.346   1.467  0.6139  0.6452 -0.0740
   50MOL0     C 6634   3.686  11.364   1.337  0.4030  0.3452  0.1550
   50MOL0     C 6635   3.707  11.270   1.220  0.5595 -0.4146 -0.1762
   50MOL0     C 6636   3.846  11.298   1.157  0.1300  0.8147 -0.7059
   50MOL0     C 6637   3.864  11.436   1.105 -0.0552  0.4917 -0.1592
   50MOL0     C 6638   3.998  11.426   1.026 -0.1400 -0.5890 -0.7812
   50MOL0     O 6639   3.968  11.372   0.899 -0.3685 -0.0462 -0.8672
   50MOL0     C 6640   4.068  11.336   0.825  0.4174  0.5463 -0.8090
   50MOL0     C 6641   4.066  11.378   0.693 -0.4500  0.2545  0.0577
   50MOL0     C 6642   4.175  11.359   0.609  0.5739 -0.0055 -0.4268
   50MOL0     C 6643   4.286  11.292   0.659 -0.2016  0.6137 -0.4246
   50MOL0     C 6644   4.393  11.263   0.575 -0.6847  0.6761  0.1942
   50MOL0     O 6645   4.502  11.203   0.623 -0.6375  0.2713  0.3620
   50MOL0     C 6646   4.610  11.194   0.535 -0.4114 -0.0200 -0.3619
   50MOL0     C 6647   4.680  11.075   0.536 -0.7450 -0.2593 -0.0339
   50MOL0     C 6648   4.785  11.063   0.443 -0.2638 -1.0791  0.2214
   50MOL0     C 6649   4.813  11.164   0.357 -0.7356  0.3855  0.6268
   50MOL0     O 6650   4.919  11.140   0.274  0.1289 -0.2493  0.2257
   50MOL0     C 6651   4.973  11.238   0.192  0.4519  0.0646  0.1843
   50MOL0     C 6652   5.061  11.332   0.287  1.2830  0.0031  0.3963
   50MOL0     C 6653   5.198  11.256   0.312 -0.5986  0.1526 -0.5537
   50MOL0     C 6654   5.274  11.341   0.404  0.6876 -0.4005 -0.3688
   50MOL0     C 6655   5.424  11.297   0.414  0.8804  0.4677  0.3584
   50MOL0     C 6656   5.502  11.301   0.285 -0.6201 -0.4481  0.2488
   50MOL0     C 6657   5.505  11.439   0.219 -0.2169  0.6045  0.5234
   50MOL0     C 6658   5.639  11.445   0.130  0.6686 -0.1276 -0.7187
   50MOL0    Cl 6659   5.605  11.333  -0.004  0.4195 -0.1427  0.2681
   50MOL0     C 6660   4.751  11.281   0.357  1.2925 -0.1429 -0.2136
   50MOL0     C 6661   4.647  11.300   0.443  0.1992  0.2374  0.7327
   50MOL0     O 6662   4.380  11.300   0.458 -0.0974  0.2698 -0.2616
   50MOL0     C 6663   4.282  11.243   0.794 -0.4668  0.1692  0.1763
   50MOL0     C 6664   4.179  11.265   0.871 -0.5110 -0.2211 -0.8814
   50MOL0     N 6665   3.614  11.491   1.336 -0.0933 -0.6576  0.3239
   50MOL0     N 6666   3.624  11.553   1.451 -0.0937 -0.3979  0.1265
   50MOL0     C 6667   3.844  10.477   2.109  1.0257 -0.3828  0.5736
   50MOL0     C 6668   3.889  10.365   2.179 -0.2773  0.2887 -0.2614
   50MOL0     C 6669   4.040  10.145   2.556  0.7323  0.2074 -0.1301
   50MOL0     C 6670   4.094  10.053   2.470  0.1180 -0.3133  0.8274
   50MOL0     C 6671   4.159   9.934   2.507 -0.2786  0.0322  0.5942
   50MOL0     C 6672   4.151   9.898   2.641 -0.0784  0.5176 -0.5164
   50MOL0     O 6673   4.194   9.775   2.686  0.2821 -0.2782 -0.0942
   50MOL0     C 6674   4.197   9.659   2.600  0.3719  0.2350  0.8139
   50MOL0     C 6675   4.351   9.620   2.580 -0.0295 -0.6932  1.0866
   50MOL0     C 6676   4.372   9.492   2.511  0.8521 -0.6768 -1.0409
   50MOL0     C 6677   4.319   9.491   2.376 -1.2633  0.7015 -0.9215
   50MOL0     C 6678   4.381   9.585   2.281  0.0511 -0.2491 -0.1914
   50MOL0     C 6679   4.439   9.671   2.217  0.1446 -0.8590  0.7920
   50MOL0     C 6680   4.090   9.978   2.728 -0.0330 -0.2327 -0.0116
   50MOL0     C 6681   4.025  10.098   2.690  0.4227 -0.0309 -0.8748
   50MOL0     C 6682   3.967  10.180   2.797  1.0897 -0.0805 -0.0423
   50MOL0     H 6683   4.098  10.526   2.391 -0.5923  0.5212  1.0722
   50MOL0     H 6684   4.019  10.710   2.281  1.1086 -0.3342  1.1036
   50MOL0     H 6685   3.687  10.689   1.915  0.6533  2.5460 -1.9733
   50MOL0     H 6686   3.647  10.655   2.077  0.7231  0.5857  1.9179
   50MOL0     H 6687   3.642  10.896   2.124 -4.2453 -1.0469  0.2052
   50MOL0     H 6688   3.548  10.858   1.988 -0.2363  0.7944  2.0252
   50MOL0     H 6689   3.774  10.937   1.860 -3.5329 -1.5054 -1.3537
   50MOL0     H 6690   3.788  11.034   2.007  1.2205 -2.3067  2.2991
   50MOL0     H 6691   3.567  11.062   1.803  0.0187  0.8430 -0.5789
   50MOL0     H 6692   3.512  11.087   1.954 -0.5602 -0.6195 -0.7352
   50MOL0     H 6693   3.667  11.273   1.982 -2.5091  0.6707  0.7697
   50MOL0     H 6694   3.763  11.211   1.833  0.1492 -3.0916 -0.3233
   50MOL0     H 6695   3.555  11.245   1.707 -2.7553 -0.5336  0.7378
   50MOL0     H 6696   3.472  11.304   1.847  1.0577  0.3543  2.1006
   50MOL0     H 6697   3.658  11.493   1.873 -2.9536  1.6534 -0.3588
   50MOL0     H 6698   3.527  11.502   1.755 -1.6734  0.1433  1.0188
   50MOL0     H 6699   3.766  11.580   1.672 -2.6885  2.3019 -5.4224
   50MOL0     H 6700   3.812  11.409   1.676 -1.1673 -1.1173 -3.4975
   50MOL0     H 6701   3.782  11.263   1.510  2.3432  2.1660  0.7809
   50MOL0     H 6702   3.708  11.167   1.259 -2.0045 -0.9586 -1.3226
   50MOL0     H 6703   3.631  11.268   1.141  0.2990 -0.4874  0.0764
   50MOL0     H 6704   3.919  11.282   1.236  0.9508 -2.6968 -1.9535
   50MOL0     H 6705   3.857  11.223   1.078  0.0589 -1.9585  1.7457
   50MOL0     H 6706   3.874  11.511   1.183 -2.7721  0.8734 -0.0896
   50MOL0     H 6707   3.772  11.460   1.051 -0.2801  4.1809  1.6010
   50MOL0     H 6708   4.075  11.379   1.088 -1.4257 -1.3752  0.2636
   50MOL0     H 6709   4.040  11.525   1.010  2.9427 -1.4234  1.2641
   50MOL0     H 6710   3.985  11.441   0.658 -1.3175 -0.0937  1.3663
   50MOL0     H 6711   4.159  11.399   0.510 -1.9746 -0.3759 -0.2237
   50MOL0     H 6712   4.661  11.004   0.616 -3.7083  3.5065  3.0519
   50MOL0     H 6713   4.853  10.979   0.446  1.9422  0.6401  1.3772
   50MOL0     H 6714   5.040  11.196   0.116  2.1255  1.9749  0.5307
   50MOL0     H 6715   4.900  11.295   0.133  1.5412  0.2927 -0.9722
   50MOL0     H 6716   5.084  11.416   0.221 -3.7223 -0.6191 -2.6975
   50MOL0     H 6717   4.999  11.360   0.373 -2.1552 -2.8388 -0.9126
   50MOL0     H 6718   5.183  11.156   0.354  1.5502 -0.5509 -1.2889
   50MOL0     H 6719   5.250  11.228   0.220 -0.1399 -1.9548  0.2947
   50MOL0     H 6720   5.230  11.345   0.504  2.9020  0.0617  0.6586
   50MOL0     H 6721   5.277  11.444   0.366 -1.1136 -0.6512 -1.3175
   50MOL0     H 6722   5.432  11.196   0.456  2.3973  0.4237  0.0334
   50MOL0     H 6723   5.476  11.368   0.478  1.0901  0.2087  0.4766
   50MOL0     H 6724   5.602  11.262   0.306 -1.4764 -3.3750 -0.7085
   50MOL0     H 6725   5.460  11.235   0.208 -0.6452  1.1874 -1.2227
   50MOL0     H 6726   5.537  11.513   0.293  2.7153 -0.1243  0.1196
   50MOL0     H 6727   5.414  11.452   0.160 -0.6841  1.1214  1.3499
   50MOL0     H 6728   5.647  11.545   0.086 -1.3701 -0.5550 -2.2402
   50MOL0     H 6729   5.733  11.422   0.180 -0.7566  0.6236  2.6048
   50MOL0     H 6730   4.776  11.374   0.307 -0.6294  1.6590  1.9192
   50MOL0     H 6731   4.614  11.403   0.434  2.3004  0.7923 -1.7936
   50MOL0     H 6732   4.362  11.188   0.842  0.0927 -1.1751 -2.1426
   50MOL0     H 6733   4.189  11.235   0.975 -1.5603 -0.9912 -0.9878
   50MOL0     H 6734   3.776  10.466   2.024  0.3011 -2.2218  1.3412
   50MOL0     H 6735   3.845  10.269   2.153  1.2174 -0.0284 -1.7737
   50MOL0     H 6736   4.069  10.064   2.365 -1.8831  1.4533  1.4260
   50MOL0     H 6737   4.205   9.868   2.434 -2.2144 -4.2811  2.8848
   50MOL0     H 6738   4.135   9.668   2.511 -0.2373 -0.2854  1.1790
   50MOL0     H 6739   4.159   9.575   2.658  1.4894 -0.0289  1.1914
   50MOL0     H 6740   4.411   9.634   2.670  2.1387  3.6454 -0.7668
   50MOL0     H 6741   4.387   9.696   2.512  1.8818 -1.1170  1.5684
   50MOL0     H 6742   4.328   9.415   2.574  1.3104 -0.7049 -0.7482
   50MOL0     H 6743   4.479   9.467   2.513  1.5911  2.0593  0.8877
   50MOL0     H 6744   4.343   9.397   2.324 -1.4022  0.4801 -0.5863
   50MOL0     H 6745   4.210   9.493   2.383 -1.1266  0.9256  1.9665
   50MOL0     H 6746   4.456   9.746   2.143 -2.1017 -0.9060  0.1470
   50MOL0     H 6747   4.086   9.942   2.830 -2.6953  1.1597  0.4724
   50MOL0     H 6748   3.870  10.208   2.756 -1.3501 -1.6525  4.0181
   50MOL0     H 6749   3.954  10.138   2.897 -0.1088  0.1301 -0.1007
   50MOL0     H 6750   4.029  10.269   2.811 -0.5405  1.3095 -1.2581
   51MOL0     O 6751   2.461   9.630   2.190 -0.4212 -0.1854 -0.1846
   51MOL0     C 6752   2.581   9.655   2.192 -0.3062 -0.1659  0.0383
   51MOL0     O 6753   2.672   9.594   2.274  0.3047  0.5768  0.1140
   51MOL0     C 6754   2.632   9.481   2.330 -0.4606  0.7547  0.4375
   51MOL0     C 6755   2.633   9.366   2.257  0.7110  0.3634 -0.3973
   51MOL0     C 6756   2.584   9.254   2.321 -0.5623  0.2313  0.8168
   51MOL0     C 6757   2.549   9.249   2.464 -0.0616 -0.0979 -0.3587
   51MOL0     O 6758   2.497   9.139   2.521  0.2787 -0.0382  0.5837
   51MOL0     C 6759   2.558   9.017   2.471  0.2206 -0.7613 -0.0918
   51MOL0     C 6760   2.527   8.896   2.566  0.0582 -0.7176 -0.6340
   51MOL0     C 6761   2.377   8.887   2.598  0.2807 -0.0849  0.6490
   51MOL0     C 6762   2.317   8.740   2.587 -0.0660  0.1915  0.5791
   51MOL0     C 6763   2.349   8.677   2.727  0.5984 -0.7372  0.3298
   51MOL0     C 6764   2.292   8.529   2.737  1.3858 -0.3133  0.0270
   51MOL0     C 6765   2.352   8.420   2.632 -0.9179 -1.1161 -0.7987
   51MOL0     C 6766   2.478   8.384   2.706 -0.9508  0.4887 -0.1130
   51MOL0     N 6767   2.568   8.296   2.629 -0.7577  0.6534  0.2724
   51MOL0     C 6768   2.592   8.306   2.491 -1.3288  0.8354 -0.6966
   51MOL0     C 6769   2.665   8.187   2.466  0.9747 -0.6978 -0.7484
   51MOL0     C 6770   2.702   8.141   2.327 -0.6551  0.3911 -0.3857
   51MOL0     C 6771   2.606   8.175   2.213 -0.4495  0.3438 -0.4750
   51MOL0     C 6772   2.647   8.134   2.069 -0.1194  1.3229  0.5288
   51MOL0     C 6773   2.562   8.213   1.978 -1.1199  0.2761  0.0670
   51MOL0     O 6774   2.427   8.202   2.007  0.5298  0.3565 -0.9933
   51MOL0     C 6775   2.360   8.093   1.961 -0.0609  0.4505 -0.4649
   51MOL0     C 6776   2.287   8.114   1.844 -0.2636 -2.0571 -0.4411
   51MOL0     C 6777   2.220   8.012   1.781  0.1046  0.2980  0.0560
   51MOL0     C 6778   2.213   7.886   1.834 -0.2305 -1.0131 -0.0192
   51MOL0     C 6779   2.137   7.781   1.770  0.1064 -0.0446 -0.0825
   51MOL0     O 6780   2.081   7.700   1.859 -0.0066 -0.4438  0.3511
   51MOL0     C 6781   1.990   7.604   1.819  0.4678 -0.3370  0.5559
   51MOL0     C 6782   1.980   7.490   1.899 -0.5050 -0.4693  0.7779
   51MOL0     C 6783   1.882   7.389   1.870 -0.3860  0.5259  0.4672
   51MOL0     C 6784   1.798   7.401   1.764  0.3180 -0.3746 -0.3139
   51MOL0     O 6785   1.703   7.300   1.739  0.6637 -0.1270  0.6052
   51MOL0     C 6786   1.601   7.308   1.633 -1.1727 -0.1769  0.5398
   51MOL0     C 6787   1.668   7.250   1.510  0.2320  0.6849  0.7382
   51MOL0     C 6788   1.745   7.115   1.537  1.0313 -0.1191 -0.8982
   51MOL0     C 6789   1.804   7.059   1.410  0.5821  0.4828 -0.1215
   51MOL0     C 6790   1.889   6.932   1.427  0.0791  0.6442 -0.8086
   51MOL0     C 6791   1.912   6.858   1.295 -0.4229 -0.4856 -0.5534
   51MOL0     C 6792   2.010   6.926   1.199 -0.8018  0.2508  0.1765
   51MOL0     C 6793   2.060   6.841   1.094  0.4436  0.3993 -0.0899
   51MOL0    Cl 6794   1.930   6.759   1.003  0.2863  0.2814 -0.6588
   51MOL0     C 6795   1.813   7.518   1.685  0.1399 -0.1659  0.6464
   51MOL0     C 6796   1.893   7.621   1.722 -0.2332 -0.3530  0.7685
   51MOL0     O 6797   2.129   7.773   1.645 -0.6259  0.0495 -0.1728
   51MOL0     C 6798   2.284   7.860   1.958 -0.4377 -0.4376  0.3799
   51MOL0     C 6799   2.356   7.968   2.017 -0.0712 -0.0696 -0.0327
   51MOL0     N 6800   2.674   8.116   2.584  0.0902 -0.0424  0.5547
   51MOL0     N 6801   2.622   8.185   2.679 -0.1771  0.0791  0.0121
   51MOL0     C 6802   2.565   9.363   2.540  0.3558  0.5087 -0.3527
   51MOL0     C 6803   2.613   9.476   2.474  0.3013  0.1951  0.6481
   51MOL0     C 6804   2.637   9.774   2.108  0.5698  0.1199 -0.0588
   51MOL0     C 6805   2.544   9.849   2.033 -0.4127 -0.3485 -0.1903
   51MOL0     C 6806   2.598   9.960   1.960  0.5589 -0.4480 -0.3470
   51MOL0     C 6807   2.731  10.011   1.978 -0.2039 -1.0189 -0.3004
   51MOL0     O 6808   2.789  10.117   1.935  0.5403 -0.1408 -0.0141
   51MOL0     C 6809   2.714  10.196   1.839  0.5631 -0.1051  0.0463
   51MOL0     C 6810   2.680  10.329   1.896  0.2443 -0.2738 -0.1756
   51MOL0     C 6811   2.802  10.401   1.963 -0.4515 -1.0917 -0.4780
   51MOL0     C 6812   2.766  10.523   2.050 -0.5171 -0.5912 -1.1817
   51MOL0     C 6813   2.728  10.471   2.187 -0.1770 -0.0228  0.8679
   51MOL0     C 6814   2.692  10.440   2.298 -0.4706  0.7878 -0.8474
   51MOL0     C 6815   2.813   9.940   2.054  0.1734 -0.6231  0.7565
   51MOL0     C 6816   2.776   9.821   2.115  0.3701  0.5042  0.4216
   51MOL0     C 6817   2.893   9.749   2.184 -0.4550  0.3220 -0.1381
   51MOL0     H 6818   2.659   9.367   2.151  3.7631  0.9208  0.2772
   51MOL0     H 6819   2.562   9.172   2.254  2.9851 -3.3590  3.5034
   51MOL0     H 6820   2.508   8.984   2.379 -2.0719  1.8219  0.0891
   51MOL0     H 6821   2.664   9.027   2.448  0.3687 -1.3177  0.3329
   51MOL0     H 6822   2.574   8.921   2.661 -1.2960 -1.4667  0.2707
   51MOL0     H 6823   2.575   8.801   2.541  2.1395 -0.2358  1.2067
   51MOL0     H 6824   2.330   8.944   2.517  1.5780  0.5174  0.2911
   51MOL0     H 6825   2.359   8.935   2.695 -2.9799  0.9246 -0.3207
   51MOL0     H 6826   2.209   8.744   2.566 -0.5967  0.6740  3.0210
   51MOL0     H 6827   2.365   8.696   2.499  3.3153  2.1451  1.2814
   51MOL0     H 6828   2.450   8.693   2.766 -1.1065  2.9381  4.0057
   51MOL0     H 6829   2.287   8.739   2.792 -0.4121 -0.5295 -0.7808
   51MOL0     H 6830   2.297   8.487   2.838 -2.3240 -1.5131 -0.1364
   51MOL0     H 6831   2.184   8.532   2.721  1.4725 -0.1151 -0.5403
   51MOL0     H 6832   2.370   8.477   2.540 -0.0935  1.5906  0.9047
   51MOL0     H 6833   2.287   8.333   2.618 -1.3369 -0.7280 -1.3118
   51MOL0     H 6834   2.545   8.464   2.739 -0.5064 -0.1124  0.4943
   51MOL0     H 6835   2.449   8.328   2.796  2.4196 -0.8135  0.3121
   51MOL0     H 6836   2.544   8.383   2.431 -0.7065  2.1336  0.4388
   51MOL0     H 6837   2.804   8.171   2.301  0.5978 -2.1463  1.1431
   51MOL0     H 6838   2.715   8.032   2.332 -0.7170  0.3124 -1.6079
   51MOL0     H 6839   2.521   8.110   2.235  0.7669 -0.8295  1.0265
   51MOL0     H 6840   2.573   8.279   2.219  2.0466  1.1482  3.1956
   51MOL0     H 6841   2.631   8.029   2.045  2.2085  1.0890 -0.2439
   51MOL0     H 6842   2.751   8.157   2.044 -0.0981 -1.3991 -2.6009
   51MOL0     H 6843   2.581   8.180   1.875 -2.3383  0.5028 -0.2475
   51MOL0     H 6844   2.593   8.317   1.996 -2.5502  0.4482  1.8368
   51MOL0     H 6845   2.297   8.209   1.794 -0.1183 -0.7064  2.0211
   51MOL0     H 6846   2.166   8.023   1.687  0.7997  0.0989 -0.3750
   51MOL0     H 6847   2.041   7.463   1.985  0.7895 -0.7667 -0.1909
   51MOL0     H 6848   1.862   7.306   1.937 -4.1066  1.5802  0.8581
   51MOL0     H 6849   1.518   7.245   1.664 -1.6971  0.0878 -0.3120
   51MOL0     H 6850   1.567   7.412   1.624 -0.3792  0.1636  1.2835
   51MOL0     H 6851   1.590   7.230   1.437  1.4574  0.8570 -0.6657
   51MOL0     H 6852   1.729   7.319   1.451 -0.3326  0.0925 -0.5824
   51MOL0     H 6853   1.828   7.133   1.606  1.4634  0.5046 -1.5725
   51MOL0     H 6854   1.685   7.039   1.590 -0.3534  1.0232 -0.7626
   51MOL0     H 6855   1.861   7.130   1.349  0.3799 -1.0823 -2.2545
   51MOL0     H 6856   1.719   7.032   1.347 -0.6748 -2.2741  2.5019
   51MOL0     H 6857   1.816   6.870   1.480 -0.0953  2.0750  0.7056
   51MOL0     H 6858   1.982   6.957   1.478  0.1132  2.2134 -1.6063
   51MOL0     H 6859   1.955   6.766   1.334 -0.2996 -0.6262 -1.0167
   51MOL0     H 6860   1.817   6.837   1.244 -0.3142 -1.3368 -0.4205
   51MOL0     H 6861   2.089   6.975   1.256  0.5614 -0.8816 -0.6812
   51MOL0     H 6862   1.965   7.013   1.149 -2.2560  0.9541  2.5505
   51MOL0     H 6863   2.110   6.912   1.028 -3.3761  1.2089 -2.4357
   51MOL0     H 6864   2.131   6.773   1.142 -0.6524 -1.4243 -0.9573
   51MOL0     H 6865   1.757   7.518   1.591  3.6131  1.0876 -1.6283
   51MOL0     H 6866   1.895   7.710   1.660 -1.1815 -1.5223 -1.0039
   51MOL0     H 6867   2.286   7.758   1.996 -1.2630 -2.0251 -3.3631
   51MOL0     H 6868   2.395   7.935   2.113 -1.4928 -2.1256 -0.0932
   51MOL0     H 6869   2.530   9.369   2.642 -3.5669  0.5625 -1.5205
   51MOL0     H 6870   2.620   9.573   2.524  0.8243  1.3122 -1.4781
   51MOL0     H 6871   2.443   9.810   2.027  0.3037 -2.5751  1.0390
   51MOL0     H 6872   2.528  10.017   1.900  0.5610 -1.2013 -1.0776
   51MOL0     H 6873   2.620  10.151   1.804  1.0767 -1.6987  0.6246
   51MOL0     H 6874   2.765  10.204   1.743 -2.5772 -2.2267 -1.9954
   51MOL0     H 6875   2.600  10.319   1.970 -2.1246  4.0285 -1.7791
   51MOL0     H 6876   2.635  10.384   1.813 -2.4207 -1.8704  0.0866
   51MOL0     H 6877   2.878  10.429   1.890  0.3989  3.4280  1.8253
   51MOL0     H 6878   2.849  10.332   2.033  0.2131 -2.4432 -2.1822
   51MOL0     H 6879   2.845  10.598   2.059  0.4965 -1.8528  1.6030
   51MOL0     H 6880   2.685  10.585   2.009  0.7150  3.8798  2.2826
   51MOL0     H 6881   2.661  10.428   2.400 -0.9624 -3.2097 -1.3364
   51MOL0     H 6882   2.918   9.969   2.058  1.2821 -4.0825  0.7095
   51MOL0     H 6883   2.883   9.649   2.140  0.4506  0.2950 -0.2941
   51MOL0     H 6884   2.989   9.790   2.152 -1.5476  1.2770 -2.4054
   51MOL0     H 6885   2.871   9.727   2.289 -0.0708 -1.2490 -0.3525
   52MOL0     O 6886   6.761   9.122   0.192  0.5400 -0.2782  0.5596
   52MOL0     C 6887   6.656   9.096   0.251  0.5826 -0.2035  0.3500
   52MOL0     O 6888   6.610   8.971   0.270 -0.7185  0.9456  0.0456
   52MOL0     C 6889   6.678   8.862   0.210 -0.7727  0.6664  0.1434
   52MOL0     C 6890   6.739   8.770   0.285  0.0930  1.3957 -0.1739
   52MOL0     C 6891   6.796   8.650   0.238  0.2010 -0.3032  0.5454
   52MOL0     C 6892   6.805   8.639   0.099 -0.3569  0.4127 -1.0082
   52MOL0     O 6893   6.866   8.530   0.044 -0.7970 -0.3006 -0.2825
   52MOL0     C 6894   6.864   8.398   0.114  0.0040 -0.5379 -0.5331
   52MOL0     C 6895   6.946   8.286   0.036 -0.0026 -0.2965  0.6839
   52MOL0     C 6896   6.870   8.215  -0.082 -0.4906  0.0319  0.3582
   52MOL0     C 6897   6.735   8.154  -0.053  0.6389  0.3501  1.0577
   52MOL0     C 6898   6.678   8.039  -0.141 -1.2858  0.5001 -0.4125
   52MOL0     C 6899   6.530   8.042  -0.171 -0.9525  0.4167 -0.7326
   52MOL0     C 6900   6.440   8.029  -0.038 -0.6655 -0.7350  0.4978
   52MOL0     C 6901   6.289   8.051  -0.065  0.0287  1.0806 -0.4180
   52MOL0     N 6902   6.217   7.977   0.043  0.2311 -0.9082  1.5569
   52MOL0     C 6903   6.139   7.865   0.034  0.1330  0.9103 -0.9622
   52MOL0     C 6904   6.104   7.840   0.168 -0.6227 -0.1939  0.1075
   52MOL0     C 6905   6.041   7.716   0.232  0.6726 -0.1006 -0.2283
   52MOL0     C 6906   5.889   7.758   0.269  0.0483 -0.5259 -0.7283
   52MOL0     C 6907   5.807   7.653   0.349 -0.0138 -0.6690  0.1468
   52MOL0     C 6908   5.663   7.668   0.300 -0.3403 -0.5390 -0.3683
   52MOL0     O 6909   5.644   7.604   0.182  0.6941 -0.0299  0.6382
   52MOL0     C 6910   5.614   7.466   0.179  0.7216 -0.4042 -0.5784
   52MOL0     C 6911   5.575   7.395   0.299  0.8367  0.0200 -0.3141
   52MOL0     C 6912   5.549   7.254   0.291  0.6882  0.3560  0.0770
   52MOL0     C 6913   5.561   7.188   0.164  0.4347 -0.6770 -1.0392
   52MOL0     C 6914   5.562   7.037   0.159 -0.4756 -0.1479  1.0557
   52MOL0     O 6915   5.496   6.980   0.056 -0.5031 -0.4139 -0.5296
   52MOL0     C 6916   5.537   6.848   0.028  0.2281 -0.4802  0.1605
   52MOL0     C 6917   5.439   6.752   0.019 -0.6821  0.2821  0.2025
   52MOL0     C 6918   5.478   6.615  -0.016  0.5946 -0.0822  0.7136
   52MOL0     C 6919   5.606   6.592  -0.059 -0.1694  0.6198  0.4329
   52MOL0     O 6920   5.655   6.467  -0.073  0.0263  0.7169 -0.4264
   52MOL0     C 6921   5.703   6.406   0.050  0.6935 -1.1251  0.3484
   52MOL0     C 6922   5.632   6.273   0.075 -0.4489 -0.4907 -0.0006
   52MOL0     C 6923   5.617   6.178  -0.041 -0.1173  0.2027 -0.5600
   52MOL0     C 6924   5.753   6.122  -0.074 -0.2947 -0.9081 -0.7387
   52MOL0     C 6925   5.739   6.002  -0.170  0.8274 -0.1520 -0.0292
   52MOL0     C 6926   5.876   5.952  -0.211  1.5650 -0.0556  1.0121
   52MOL0     C 6927   5.955   5.881  -0.100 -0.0670 -0.7446 -0.5843
   52MOL0     C 6928   6.019   5.749  -0.147  0.5667  0.3981  0.5940
   52MOL0    Cl 6929   6.110   5.773  -0.296  0.3062  0.3164 -0.4006
   52MOL0     C 6930   5.699   6.698  -0.065  0.0498 -0.0942  0.3196
   52MOL0     C 6931   5.671   6.818  -0.011 -0.0689 -0.1857 -0.0020
   52MOL0     O 6932   5.597   6.969   0.261 -0.4301  0.2828  0.7383
   52MOL0     C 6933   5.604   7.263   0.053  0.7855 -0.4526 -0.0116
   52MOL0     C 6934   5.622   7.397   0.061  0.3516 -0.2391  0.2482
   52MOL0     N 6935   6.137   7.943   0.240 -0.1769 -1.2053 -0.9148
   52MOL0     N 6936   6.212   8.023   0.170  0.5907  0.0231 -0.3342
   52MOL0     C 6937   6.751   8.733   0.022 -0.8164 -0.8656  0.3880
   52MOL0     C 6938   6.685   8.848   0.069 -0.7237 -1.0827  0.1806
   52MOL0     C 6939   6.569   9.199   0.314 -0.8815 -0.1208  0.0918
   52MOL0     C 6940   6.509   9.156   0.429 -0.8990  0.3129  0.1514
   52MOL0     C 6941   6.410   9.231   0.500 -0.0154 -0.1407  0.0453
   52MOL0     C 6942   6.380   9.360   0.450  0.5118 -0.9595 -0.1053
   52MOL0     O 6943   6.280   9.445   0.506  0.2451 -0.1860  0.2324
   52MOL0     C 6944   6.224   9.418   0.636  0.8512 -0.2343 -0.2724
   52MOL0     C 6945   6.097   9.331   0.630  0.6008 -0.8993  0.3389
   52MOL0     C 6946   6.063   9.260   0.761  0.6420  0.3379 -1.2528
   52MOL0     C 6947   5.920   9.205   0.751 -0.1917 -0.0223  0.3468
   52MOL0     C 6948   5.883   9.110   0.851  0.3875  0.2303 -0.8408
   52MOL0     C 6949   5.846   9.027   0.926 -0.0836  0.9001 -0.3377
   52MOL0     C 6950   6.436   9.409   0.329  0.2460 -0.1035  0.1569
   52MOL0     C 6951   6.527   9.321   0.256  0.0604 -0.7153 -0.7780
   52MOL0     C 6952   6.574   9.384   0.121  1.0348  0.0861 -1.1989
   52MOL0     H 6953   6.745   8.789   0.392 -2.5063  0.2740  0.2351
   52MOL0     H 6954   6.844   8.587   0.312 -3.2812 -0.9702  2.4534
   52MOL0     H 6955   6.923   8.406   0.206  2.6013 -2.1807 -1.9406
   52MOL0     H 6956   6.765   8.354   0.128  0.7129 -1.9692  0.1839
   52MOL0     H 6957   6.992   8.222   0.112 -0.6418  1.5681  2.7130
   52MOL0     H 6958   7.026   8.347  -0.006 -0.7243  1.6991  2.0887
   52MOL0     H 6959   6.937   8.134  -0.112 -0.4695 -0.8944  2.6731
   52MOL0     H 6960   6.872   8.293  -0.158  1.9700 -1.0303 -0.7655
   52MOL0     H 6961   6.733   8.116   0.050  1.0232 -0.9402  0.6156
   52MOL0     H 6962   6.663   8.235  -0.062  1.3398  0.9538  0.7766
   52MOL0     H 6963   6.721   8.026  -0.241 -2.6717  2.9317 -1.4195
   52MOL0     H 6964   6.697   7.948  -0.083 -1.3532 -0.5000 -1.9240
   52MOL0     H 6965   6.512   8.140  -0.215  1.1607  2.3895  2.3578
   52MOL0     H 6966   6.509   7.966  -0.247 -0.7456  0.1964 -0.5710
   52MOL0     H 6967   6.457   8.105   0.038 -0.3847  1.1398 -1.3385
   52MOL0     H 6968   6.460   7.934   0.012  0.4784  0.5990  2.7275
   52MOL0     H 6969   6.259   8.156  -0.060 -1.3704  0.6572  1.3830
   52MOL0     H 6970   6.252   7.993  -0.150 -0.4800 -0.9775  1.1426
   52MOL0     H 6971   6.111   7.800  -0.048  5.1496  0.6273 -2.8415
   52MOL0     H 6972   6.031   7.630   0.166 -2.4852 -0.7050  0.8843
   52MOL0     H 6973   6.095   7.678   0.319 -0.8287  1.4172  1.4626
   52MOL0     H 6974   5.882   7.852   0.326 -0.1159 -1.5110  0.9632
   52MOL0     H 6975   5.850   7.775   0.168  0.3955 -1.0170 -0.9459
   52MOL0     H 6976   5.810   7.671   0.457 -2.8655  0.4798  0.1476
   52MOL0     H 6977   5.841   7.550   0.337  1.5380 -0.8432  4.3249
   52MOL0     H 6978   5.637   7.774   0.293  0.3336 -0.1554  1.9138
   52MOL0     H 6979   5.605   7.627   0.384  1.1099 -3.7265 -0.7834
   52MOL0     H 6980   5.568   7.444   0.395  0.6839  1.3083 -0.9489
   52MOL0     H 6981   5.507   7.203   0.376 -1.4418  0.7250 -0.6921
   52MOL0     H 6982   5.336   6.778   0.038 -1.3600  0.6885 -3.2460
   52MOL0     H 6983   5.400   6.542  -0.002 -0.9022  1.4203  0.5516
   52MOL0     H 6984   5.811   6.393   0.038  0.5831 -0.0325 -2.4840
   52MOL0     H 6985   5.681   6.478   0.129  0.7322 -0.7225 -0.0067
   52MOL0     H 6986   5.683   6.226   0.159  0.7120  2.5873  1.1622
   52MOL0     H 6987   5.534   6.291   0.120  0.9269  3.1509  1.9888
   52MOL0     H 6988   5.536   6.115  -0.003  0.7848 -1.0452 -0.6462
   52MOL0     H 6989   5.576   6.220  -0.133 -0.6568 -0.0692 -0.4452
   52MOL0     H 6990   5.806   6.092   0.017 -0.8014 -1.3545 -0.5920
   52MOL0     H 6991   5.822   6.195  -0.118 -2.2433 -0.1840 -2.8044
   52MOL0     H 6992   5.680   6.031  -0.258 -0.7250 -2.9241 -0.0034
   52MOL0     H 6993   5.681   5.917  -0.135 -0.6766  0.3324 -1.2201
   52MOL0     H 6994   5.857   5.884  -0.295  0.2177 -1.6366  2.5300
   52MOL0     H 6995   5.935   6.033  -0.256  3.6540  0.3463  4.1659
   52MOL0     H 6996   5.886   5.867  -0.016  0.7389 -1.5525 -0.0403
   52MOL0     H 6997   6.031   5.945  -0.053 -1.0185  0.4334 -0.6141
   52MOL0     H 6998   6.083   5.701  -0.072 -1.2015 -2.0205  0.6526
   52MOL0     H 6999   5.937   5.677  -0.154  0.1054  1.1197 -3.6470
   52MOL0     H 7000   5.805   6.686  -0.087  0.4287  2.7834  0.1391
   52MOL0     H 7001   5.756   6.885  -0.006 -0.7718  0.6291  2.1114
   52MOL0     H 7002   5.606   7.212  -0.043 -1.0581 -0.6138  0.0093
   52MOL0     H 7003   5.646   7.457  -0.026 -2.4646  2.1586  0.9542
   52MOL0     H 7004   6.769   8.729  -0.085  4.0317  1.7491  0.8449
   52MOL0     H 7005   6.640   8.915  -0.003  0.5344  2.5007  2.4945
   52MOL0     H 7006   6.535   9.063   0.479 -0.4758  0.0923 -0.4794
   52MOL0     H 7007   6.368   9.192   0.592  0.5328 -1.1598 -0.1255
   52MOL0     H 7008   6.212   9.510   0.694  4.2839 -0.2802  0.7505
   52MOL0     H 7009   6.304   9.371   0.695 -1.0743 -1.7891  1.2343
   52MOL0     H 7010   6.109   9.265   0.544  4.6970  3.2799 -2.8074
   52MOL0     H 7011   6.027   9.409   0.599  3.1253  0.7712 -1.4852
   52MOL0     H 7012   6.074   9.328   0.846 -1.5134 -0.2214 -0.4642
   52MOL0     H 7013   6.136   9.178   0.768  1.2097  0.9774  0.8623
   52MOL0     H 7014   5.849   9.287   0.737  0.9605  0.8186 -0.8068
   52MOL0     H 7015   5.920   9.145   0.659  0.7183 -2.0090  1.5865
   52MOL0     H 7016   5.815   8.930   0.958 -0.5572  0.2542 -2.5478
   52MOL0     H 7017   6.398   9.505   0.297 -0.9237 -0.5771  0.0772
   52MOL0     H 7018   6.503   9.455   0.077  1.6292 -0.7246 -3.5850
   52MOL0     H 7019   6.672   9.425   0.146  1.5127 -0.6345 -1.8806
   52MOL0     H 7020   6.594   9.304   0.049 -1.5762 -1.2797 -0.5517
   53MOL0     O 7021  10.299   3.421   3.002  0.3956 -0.4813  0.1956
   53MOL0     C 7022  10.340   3.501   2.919 -0.3277  0.0048  0.3453
   53MOL0     O 7023  10.297   3.511   2.788  0.1511  0.3364 -0.2794
   53MOL0     C 7024  10.170   3.483   2.750 -0.0405  0.4447  0.4444
   53MOL0     C 7025  10.084   3.395   2.814 -0.0541 -1.1052 -0.8925
   53MOL0     C 7026   9.960   3.365   2.766 -0.0267  0.2972 -0.9991
   53MOL0     C 7027   9.914   3.422   2.651  0.1686  0.1164  0.3766
   53MOL0     O 7028   9.799   3.377   2.589 -0.1362 -0.0770  0.3140
   53MOL0     C 7029   9.678   3.442   2.627 -1.1564 -0.6519 -0.0304
   53MOL0     C 7030   9.567   3.362   2.572  0.1650  0.3298  0.1415
   53MOL0     C 7031   9.425   3.381   2.629 -0.2539  0.5778  0.3598
   53MOL0     C 7032   9.309   3.307   2.564 -0.4301 -0.2099 -0.4453
   53MOL0     C 7033   9.184   3.339   2.655 -0.4286 -0.0403 -0.3513
   53MOL0     C 7034   9.122   3.471   2.610 -0.3758 -0.5224 -0.2144
   53MOL0     C 7035   8.995   3.489   2.698  0.0241 -0.2888  0.1488
   53MOL0     C 7036   8.907   3.608   2.656 -0.1398  0.1492 -0.1469
   53MOL0     N 7037   8.784   3.600   2.732  0.3073  0.6425  1.0787
   53MOL0     C 7038   8.760   3.634   2.861 -0.9104 -0.4637  0.1504
   53MOL0     C 7039   8.630   3.634   2.888  0.8472  0.1808  0.0752
   53MOL0     C 7040   8.570   3.679   3.018 -0.2687  0.3834  0.4538
   53MOL0     C 7041   8.586   3.828   3.032  0.0608  1.2025 -1.1837
   53MOL0     C 7042   8.567   3.873   3.183  0.5448 -0.1167 -0.5565
   53MOL0     C 7043   8.456   3.974   3.178  0.5518 -0.5813 -0.1472
   53MOL0     O 7044   8.334   3.902   3.195 -0.7918 -0.8202  0.1126
   53MOL0     C 7045   8.282   3.880   3.325 -0.0735 -0.4748 -0.1769
   53MOL0     C 7046   8.336   3.925   3.448  0.0199  0.2787 -0.0492
   53MOL0     C 7047   8.261   3.917   3.571  0.2311 -1.0871  0.7223
   53MOL0     C 7048   8.137   3.846   3.576  0.6713  0.2335  1.7457
   53MOL0     C 7049   8.071   3.819   3.703 -0.4626 -0.0372 -0.9774
   53MOL0     O 7050   7.935   3.812   3.678  0.3982  0.3736 -0.6404
   53MOL0     C 7051   7.860   3.820   3.787 -0.1760  0.8819  0.1621
   53MOL0     C 7052   7.772   3.934   3.793  1.1088  0.0934 -0.0837
   53MOL0     C 7053   7.682   3.935   3.906 -0.0296  0.1243  0.1942
   53MOL0     C 7054   7.695   3.832   4.001  0.0167 -0.6256  0.0079
   53MOL0     O 7055   7.593   3.841   4.090  1.4437 -0.0427 -0.5729
   53MOL0     C 7056   7.550   3.714   4.144  0.7266  0.2392  0.2547
   53MOL0     C 7057   7.424   3.710   4.240  0.6202  0.9163  1.5371
   53MOL0     C 7058   7.292   3.728   4.155 -1.1150 -0.0794 -0.2424
   53MOL0     C 7059   7.167   3.738   4.227  1.0633 -0.2413 -0.9140
   53MOL0     C 7060   7.046   3.723   4.129 -0.1728  0.4590  0.2939
   53MOL0     C 7061   6.929   3.777   4.210 -0.3423  0.7075  0.0871
   53MOL0     C 7062   6.804   3.730   4.154  0.6703  0.1702 -1.2235
   53MOL0     C 7063   6.683   3.783   4.242 -0.2347  0.3248  0.4071
   53MOL0    Cl 7064   6.640   3.948   4.185 -0.0661 -0.7588  0.5719
   53MOL0     C 7065   7.783   3.721   3.986  0.3034  0.2499 -0.8693
   53MOL0     C 7066   7.860   3.713   3.882 -0.4804 -0.2460  0.4111
   53MOL0     O 7067   8.132   3.816   3.813 -0.0231  1.0234 -0.1944
   53MOL0     C 7068   8.091   3.790   3.447 -0.0758  0.5210  0.4213
   53MOL0     C 7069   8.163   3.809   3.319  0.1729  0.1265  0.2292
   53MOL0     N 7070   8.572   3.570   2.784  0.1610  0.2758 -0.2555
   53MOL0     N 7071   8.658   3.555   2.678  0.7306 -0.2244  0.3381
   53MOL0     C 7072   9.998   3.507   2.576  0.2316  0.4436 -0.9265
   53MOL0     C 7073  10.127   3.539   2.631  1.0961 -0.2175 -0.0598
   53MOL0     C 7074  10.466   3.578   2.971  1.2675  0.0213 -0.4905
   53MOL0     C 7075  10.547   3.531   3.071 -0.5488 -0.0519  0.9600
   53MOL0     C 7076  10.649   3.602   3.121 -1.4252  0.1711 -0.4487
   53MOL0     C 7077  10.697   3.719   3.071  0.2378 -0.2244 -0.7689
   53MOL0     O 7078  10.817   3.781   3.129  0.3323 -0.5015  0.3662
   53MOL0     C 7079  10.892   3.709   3.228 -0.8822 -0.2075  0.2982
   53MOL0     C 7080  11.008   3.806   3.263 -0.0443  0.4959 -0.0883
   53MOL0     C 7081  11.034   3.805   3.424 -1.0461  0.1370  0.4177
   53MOL0     C 7082  11.069   3.938   3.477  0.5422 -0.3079 -0.0751
   53MOL0     C 7083  11.180   4.002   3.401 -1.0327  0.0307  0.2096
   53MOL0     C 7084  11.277   4.044   3.336 -1.1215  0.2355  0.3240
   53MOL0     C 7085  10.620   3.768   2.968 -0.3427  0.4950 -1.0932
   53MOL0     C 7086  10.505   3.704   2.909 -1.0676  0.9548 -0.0065
   53MOL0     C 7087  10.446   3.748   2.780  0.1564  0.2135  1.2859
   53MOL0     H 7088  10.111   3.333   2.899  0.2533 -1.4459 -1.2315
   53MOL0     H 7089   9.888   3.298   2.812 -1.2354  1.5975 -0.9152
   53MOL0     H 7090   9.682   3.440   2.736  3.5084 -1.2225  0.0155
   53MOL0     H 7091   9.682   3.546   2.593  0.3009  0.7247  3.8114
   53MOL0     H 7092   9.601   3.258   2.578  1.1519  0.4790 -1.9424
   53MOL0     H 7093   9.564   3.387   2.465 -0.9734  0.4331  0.1807
   53MOL0     H 7094   9.401   3.486   2.609 -1.0111 -0.0351 -2.3101
   53MOL0     H 7095   9.439   3.353   2.734  0.8402 -1.1721 -0.2148
   53MOL0     H 7096   9.305   3.343   2.461  1.9987 -1.4680 -1.0386
   53MOL0     H 7097   9.325   3.199   2.562 -2.7887 -0.6357  0.4519
   53MOL0     H 7098   9.109   3.259   2.660 -0.0290 -0.5600 -2.0831
   53MOL0     H 7099   9.215   3.359   2.758  0.0882 -1.6033 -0.1728
   53MOL0     H 7100   9.196   3.548   2.635  1.8311 -2.5631 -0.1296
   53MOL0     H 7101   9.119   3.482   2.501 -2.3850  0.8030 -0.0907
   53MOL0     H 7102   9.034   3.509   2.798  1.2072  2.9158 -0.8451
   53MOL0     H 7103   8.930   3.401   2.701 -0.5753 -0.0405 -2.5849
   53MOL0     H 7104   8.959   3.705   2.657 -2.1686  1.3689 -2.5728
   53MOL0     H 7105   8.890   3.595   2.549  5.3327  0.2217 -1.3489
   53MOL0     H 7106   8.841   3.666   2.927  1.7163 -2.9455 -1.6183
   53MOL0     H 7107   8.464   3.652   3.012  0.2182 -1.6937  0.3818
   53MOL0     H 7108   8.616   3.619   3.097 -1.3313  0.3890  1.0999
   53MOL0     H 7109   8.688   3.862   3.012  1.1797  0.4374  2.5265
   53MOL0     H 7110   8.511   3.857   2.958  1.0958  1.2563 -2.2325
   53MOL0     H 7111   8.661   3.912   3.223  0.3742 -1.0119  0.7826
   53MOL0     H 7112   8.539   3.790   3.248 -0.1974  1.5808  1.3845
   53MOL0     H 7113   8.460   4.015   3.076  2.5752  1.3926  0.6519
   53MOL0     H 7114   8.463   4.055   3.250  1.5192 -1.0327  0.2772
   53MOL0     H 7115   8.438   3.964   3.454 -0.7116  2.0312  2.8487
   53MOL0     H 7116   8.293   3.957   3.667 -2.3265 -0.3708  1.3526
   53MOL0     H 7117   7.779   4.027   3.737 -1.8970 -0.2409 -1.1779
   53MOL0     H 7118   7.604   4.008   3.925  0.2080  0.0003  1.8394
   53MOL0     H 7119   7.531   3.640   4.065  1.9074 -1.1483  1.2063
   53MOL0     H 7120   7.634   3.663   4.193  2.0933 -1.8371 -3.7590
   53MOL0     H 7121   7.422   3.615   4.295  0.4338  0.5971  0.9916
   53MOL0     H 7122   7.426   3.794   4.309 -1.5518  0.3320  2.3989
   53MOL0     H 7123   7.315   3.821   4.102  3.5867 -1.5899 -1.3666
   53MOL0     H 7124   7.286   3.645   4.084  3.7267  0.2100 -1.3588
   53MOL0     H 7125   7.168   3.834   4.278 -0.5234 -0.8736  0.4067
   53MOL0     H 7126   7.161   3.669   4.312 -1.0690  2.4059  1.2500
   53MOL0     H 7127   7.010   3.627   4.093 -1.3609  0.8568  0.3720
   53MOL0     H 7128   7.050   3.788   4.041 -1.9256  1.4351  0.8897
   53MOL0     H 7129   6.934   3.727   4.307  1.5526 -2.0515 -1.3327
   53MOL0     H 7130   6.936   3.886   4.221  1.6152  0.6563 -0.4605
   53MOL0     H 7131   6.803   3.621   4.140  0.9094 -0.4663  2.5889
   53MOL0     H 7132   6.786   3.775   4.056  1.6119  1.0077 -1.0373
   53MOL0     H 7133   6.596   3.718   4.229 -0.1110  0.2547 -0.1152
   53MOL0     H 7134   6.703   3.784   4.349 -1.2310  2.3174  0.6262
   53MOL0     H 7135   7.774   3.635   4.051 -0.5245 -0.2775 -1.6469
   53MOL0     H 7136   7.926   3.628   3.864 -2.0011 -1.4220  0.1532
   53MOL0     H 7137   8.013   3.717   3.467  2.7934 -2.2129  2.6656
   53MOL0     H 7138   8.130   3.768   3.224  0.2718  0.4019  0.0763
   53MOL0     H 7139   9.942   3.549   2.493  1.1836 -3.2993 -3.7189
   53MOL0     H 7140  10.196   3.606   2.581  2.8367 -2.4706 -0.8262
   53MOL0     H 7141  10.524   3.428   3.097 -2.3419  0.0339 -0.1418
   53MOL0     H 7142  10.693   3.559   3.210  0.4800  0.6935 -1.0948
   53MOL0     H 7143  10.935   3.614   3.194 -1.1534 -0.7220  1.3688
   53MOL0     H 7144  10.819   3.690   3.306 -0.9043  0.0118  0.3333
   53MOL0     H 7145  10.985   3.905   3.221 -2.9545 -1.3649 -3.4385
   53MOL0     H 7146  11.098   3.775   3.208 -0.0670  2.4124 -1.3184
   53MOL0     H 7147  11.119   3.739   3.443 -0.9916 -0.6973 -2.3550
   53MOL0     H 7148  10.954   3.759   3.484 -2.1093  1.2759 -0.0678
   53MOL0     H 7149  10.979   3.999   3.470 -0.5916 -1.8979  0.2357
   53MOL0     H 7150  11.111   3.924   3.577  2.0165  0.0986 -0.5986
   53MOL0     H 7151  11.369   4.080   3.295  0.8339 -0.8773  3.3913
   53MOL0     H 7152  10.654   3.852   2.910 -1.6006  1.7047 -0.1580
   53MOL0     H 7153  10.466   3.673   2.704 -5.8564 -0.2908 -0.2681
   53MOL0     H 7154  10.343   3.784   2.779  1.1124  3.4471 -1.6992
   53MOL0     H 7155  10.492   3.846   2.761 -0.4184  0.7954  2.7116
   54MOL0     O 7156  10.849   7.392   8.134 -0.2069 -0.1215 -0.6464
   54MOL0     C 7157  10.857   7.433   8.014  0.7739 -0.1912 -0.8609
   54MOL0     O 7158  10.959   7.500   7.969  0.0782  0.8981 -0.5227
   54MOL0     C 7159  11.030   7.557   8.073  0.0787  0.1139 -0.5967
   54MOL0     C 7160  11.132   7.485   8.132 -0.2000 -0.3487  0.2909
   54MOL0     C 7161  11.223   7.549   8.209  0.2794 -0.1215 -0.0096
   54MOL0     C 7162  11.195   7.688   8.262  0.6751 -0.1043  0.8694
   54MOL0     O 7163  11.267   7.750   8.352  0.4930 -0.0470 -0.2660
   54MOL0     C 7164  11.334   7.670   8.440  0.4865 -0.2540 -0.9030
   54MOL0     C 7165  11.407   7.767   8.539 -0.6704 -0.8984 -0.6368
   54MOL0     C 7166  11.501   7.701   8.643 -0.4967 -0.0406 -0.3637
   54MOL0     C 7167  11.604   7.611   8.583  0.1048 -0.0192 -0.4796
   54MOL0     C 7168  11.709   7.577   8.695 -0.2797 -0.3361 -0.3919
   54MOL0     C 7169  11.803   7.476   8.639 -0.7829  0.5599 -0.4838
   54MOL0     C 7170  11.940   7.480   8.714  0.1665  0.1187 -0.3285
   54MOL0     C 7171  11.945   7.382   8.827 -0.6148  0.7163 -0.3507
   54MOL0     N 7172  12.082   7.380   8.877 -0.0984 -0.8012  0.2669
   54MOL0     C 7173  12.181   7.280   8.868  0.2284  1.2206  0.2468
   54MOL0     C 7174  12.289   7.319   8.935  0.6252 -0.2449  0.6637
   54MOL0     C 7175  12.423   7.255   8.918  0.2030 -0.4927 -0.4452
   54MOL0     C 7176  12.504   7.319   8.812  0.2205  0.1874  0.8895
   54MOL0     C 7177  12.621   7.243   8.770  0.4372 -0.4849 -0.4874
   54MOL0     C 7178  12.731   7.331   8.720 -0.3910 -0.0633  0.6965
   54MOL0     O 7179  12.678   7.422   8.622 -0.5854 -0.1754  0.3376
   54MOL0     C 7180  12.753   7.537   8.585  0.8787 -0.2495  0.3815
   54MOL0     C 7181  12.875   7.570   8.634 -0.0881 -0.0882  0.1709
   54MOL0     C 7182  12.925   7.692   8.602 -0.4078  0.4209 -0.4101
   54MOL0     C 7183  12.866   7.777   8.506 -0.6000 -0.7567  0.6263
   54MOL0     C 7184  12.933   7.903   8.469 -0.5834 -0.0490  0.2658
   54MOL0     O 7185  13.065   7.922   8.494  0.0470 -0.4049 -0.2211
   54MOL0     C 7186  13.147   7.847   8.406 -1.2752  1.0729  0.5812
   54MOL0     C 7187  13.115   7.801   8.271  0.8025 -0.2272 -0.0091
   54MOL0     C 7188  13.186   7.695   8.215 -0.4185  0.2145  0.0995
   54MOL0     C 7189  13.284   7.626   8.299  0.3789 -0.1130  0.2937
   54MOL0     O 7190  13.360   7.521   8.251  0.2945  0.6744 -0.1194
   54MOL0     C 7191  13.281   7.402   8.259  0.2565  0.1713  0.5503
   54MOL0     C 7192  13.240   7.341   8.120 -0.0940  0.8213  0.7123
   54MOL0     C 7193  13.222   7.181   8.127  0.1020  0.2000  0.9086
   54MOL0     C 7194  13.237   7.104   7.999  0.8566 -0.3383  2.4432
   54MOL0     C 7195  13.142   7.141   7.882 -0.0620 -0.2799 -0.0148
   54MOL0     C 7196  13.143   7.036   7.761 -0.8729 -1.3076 -0.3139
   54MOL0     C 7197  13.281   7.008   7.704  0.3213 -0.3219  0.0207
   54MOL0     C 7198  13.263   6.903   7.593  0.4498 -0.0838  0.8885
   54MOL0    Cl 7199  13.199   6.987   7.447  0.3287  0.0238  0.0767
   54MOL0     C 7200  13.325   7.680   8.422 -0.0379 -0.8360  0.3346
   54MOL0     C 7201  13.262   7.800   8.472  0.7272  0.2290  0.1650
   54MOL0     O 7202  12.866   7.994   8.422 -0.9085  0.1278 -0.1189
   54MOL0     C 7203  12.747   7.741   8.446 -0.3005 -1.4502 -0.8922
   54MOL0     C 7204  12.686   7.625   8.495 -0.2951 -0.2082  0.5081
   54MOL0     N 7205  12.256   7.437   8.986  0.2089 -0.1204  0.4783
   54MOL0     N 7206  12.136   7.478   8.957  0.4593  0.4879 -1.0948
   54MOL0     C 7207  11.087   7.752   8.201  0.7696  0.8059  0.3950
   54MOL0     C 7208  11.007   7.689   8.110 -0.9738 -0.7200  0.2263
   54MOL0     C 7209  10.736   7.394   7.929 -0.3261  0.7178  0.4525
   54MOL0     C 7210  10.740   7.454   7.800  0.3003 -0.2264 -0.2734
   54MOL0     C 7211  10.646   7.422   7.708 -0.4253 -0.7250 -0.6143
   54MOL0     C 7212  10.546   7.336   7.733 -0.3603  0.4777 -0.1728
   54MOL0     O 7213  10.463   7.310   7.627 -0.2951  0.3760 -0.0377
   54MOL0     C 7214  10.391   7.188   7.625  0.8629  1.1846  0.2139
   54MOL0     C 7215  10.492   7.067   7.597 -0.0389 -0.0933  0.6989
   54MOL0     C 7216  10.568   7.083   7.467  0.0252  0.2059 -0.2184
   54MOL0     C 7217  10.667   6.964   7.449  0.6015 -0.7966  0.7197
   54MOL0     C 7218  10.763   6.965   7.336 -0.8250 -0.4975  0.4269
   54MOL0     C 7219  10.855   6.984   7.259 -0.4653 -0.2451  0.1471
   54MOL0     C 7220  10.542   7.270   7.856 -0.6159 -0.3120 -1.2334
   54MOL0     C 7221  10.635   7.296   7.964  0.5828 -0.6371  1.2567
   54MOL0     C 7222  10.622   7.228   8.096  0.3283  1.0598  0.1811
   54MOL0     H 7223  11.135   7.382   8.097 -2.8255 -0.0869 -1.0209
   54MOL0     H 7224  11.299   7.481   8.245  0.7265  1.1627  1.6357
   54MOL0     H 7225  11.269   7.597   8.489 -0.6440  1.6729  0.5878
   54MOL0     H 7226  11.415   7.619   8.386 -0.9777 -3.0937 -0.6197
   54MOL0     H 7227  11.333   7.832   8.587 -0.1358  0.3469 -1.4281
   54MOL0     H 7228  11.485   7.814   8.478  0.1080 -0.3104  0.7623
   54MOL0     H 7229  11.441   7.644   8.714  3.1621  0.3766  3.4564
   54MOL0     H 7230  11.559   7.770   8.705  1.2034 -1.0133 -0.8002
   54MOL0     H 7231  11.556   7.515   8.565  0.3671 -0.7974  2.4415
   54MOL0     H 7232  11.649   7.662   8.497 -0.5392  1.4188 -0.0016
   54MOL0     H 7233  11.763   7.671   8.713  1.3470 -0.6547 -2.9838
   54MOL0     H 7234  11.675   7.529   8.787 -1.3240 -0.5909 -0.9029
   54MOL0     H 7235  11.763   7.376   8.656 -0.3587  0.5989  0.8170
   54MOL0     H 7236  11.811   7.490   8.530 -0.8399 -2.2077 -0.9271
   54MOL0     H 7237  11.950   7.580   8.758 -2.2894 -0.6856  2.3861
   54MOL0     H 7238  12.013   7.455   8.637 -0.9034  1.2553 -1.7846
   54MOL0     H 7239  11.875   7.412   8.907  1.8050 -1.3186  2.7868
   54MOL0     H 7240  11.918   7.282   8.792  1.7579  0.4518 -1.6008
   54MOL0     H 7241  12.156   7.181   8.832  0.0042  0.6345  1.9273
   54MOL0     H 7242  12.463   7.253   9.020  1.8579 -2.2402 -1.0726
   54MOL0     H 7243  12.403   7.149   8.902 -3.8480 -0.2178  1.5350
   54MOL0     H 7244  12.445   7.352   8.726  2.6312  2.9626  0.1168
   54MOL0     H 7245  12.536   7.419   8.844  0.7821 -0.4232  2.2899
   54MOL0     H 7246  12.585   7.168   8.700 -3.0503  1.2791 -0.7690
   54MOL0     H 7247  12.648   7.188   8.861 -4.5099  4.5650  4.8825
   54MOL0     H 7248  12.807   7.263   8.680 -0.5164  1.7282 -2.9664
   54MOL0     H 7249  12.776   7.384   8.805 -0.0348  1.6567 -0.5143
   54MOL0     H 7250  12.935   7.499   8.691 -2.3507 -3.1192 -0.9527
   54MOL0     H 7251  13.027   7.713   8.633 -0.8357  2.6955 -0.3778
   54MOL0     H 7252  13.025   7.846   8.228  1.7353  0.2309 -1.5560
   54MOL0     H 7253  13.171   7.655   8.115  0.5972  0.7594 -0.2843
   54MOL0     H 7254  13.334   7.321   8.309 -1.1405 -2.8014 -2.3336
   54MOL0     H 7255  13.188   7.418   8.313 -0.3836  0.6010 -0.6297
   54MOL0     H 7256  13.154   7.390   8.074 -0.5545 -2.3630 -2.2356
   54MOL0     H 7257  13.328   7.360   8.057  2.0093  0.5220  3.3736
   54MOL0     H 7258  13.310   7.144   8.180  0.5623 -0.7138 -0.4471
   54MOL0     H 7259  13.133   7.149   8.182  1.8044 -4.6319  1.2639
   54MOL0     H 7260  13.207   7.003   8.030  1.9854 -0.7784  2.1558
   54MOL0     H 7261  13.340   7.092   7.963 -0.5394 -1.0087 -1.8633
   54MOL0     H 7262  13.172   7.239   7.845 -2.8636  0.0500 -1.7394
   54MOL0     H 7263  13.039   7.152   7.917 -0.3506 -0.4901 -0.7826
   54MOL0     H 7264  13.095   6.943   7.793 -0.7074 -1.6194 -0.9650
   54MOL0     H 7265  13.086   7.070   7.674 -0.9222 -1.5503 -0.3774
   54MOL0     H 7266  13.355   6.963   7.771 -1.8321 -1.9955  1.3923
   54MOL0     H 7267  13.336   7.095   7.666  1.7995 -1.0234  0.4747
   54MOL0     H 7268  13.361   6.865   7.564 -0.0709 -1.1565  0.5008
   54MOL0     H 7269  13.202   6.817   7.621 -1.1236  1.3403  2.0513
   54MOL0     H 7270  13.405   7.623   8.470 -1.0200 -1.9501  0.7014
   54MOL0     H 7271  13.283   7.829   8.574  0.3678  2.6790 -0.4070
   54MOL0     H 7272  12.698   7.800   8.370  3.3578  0.0328 -2.2851
   54MOL0     H 7273  12.592   7.584   8.461 -0.6179 -1.6859  2.9052
   54MOL0     H 7274  11.062   7.855   8.226  4.3918  1.4430  1.9881
   54MOL0     H 7275  10.932   7.750   8.062  0.1305  1.6922  1.3805
   54MOL0     H 7276  10.816   7.530   7.783 -1.0977  1.8294  1.8658
   54MOL0     H 7277  10.653   7.473   7.612 -0.6354  0.2339 -0.1293
   54MOL0     H 7278  10.316   7.185   7.545  0.0323  2.6830  0.9075
   54MOL0     H 7279  10.343   7.169   7.721  2.1220 -0.4221  0.5552
   54MOL0     H 7280  10.464   6.961   7.602  0.4289 -0.6372 -3.7809
   54MOL0     H 7281  10.575   7.072   7.668 -0.7924  2.3625  1.4834
   54MOL0     H 7282  10.617   7.180   7.469 -0.2790  0.3604 -0.1377
   54MOL0     H 7283  10.503   7.089   7.378 -1.8011 -1.3543  0.9280
   54MOL0     H 7284  10.732   6.952   7.536  1.2352 -1.1793  0.2034
   54MOL0     H 7285  10.599   6.877   7.453  0.3947 -0.6566  0.3125
   54MOL0     H 7286  10.939   7.012   7.198  0.2683 -1.9396  0.3363
   54MOL0     H 7287  10.471   7.197   7.893 -1.5821  0.9324 -0.5731
   54MOL0     H 7288  10.544   7.154   8.075  0.1635  1.1659  0.4069
   54MOL0     H 7289  10.709   7.169   8.128 -1.1410 -1.1184  0.4131
   54MOL0     H 7290  10.588   7.292   8.178  0.6124  1.7366 -0.2202
   55MOL0     O 7291   5.567   8.546   5.394  0.1807  0.3890  0.3852
   55MOL0     C 7292   5.502   8.470   5.318 -0.7720  0.0661  0.0364
   55MOL0     O 7293   5.539   8.372   5.241  0.0034  0.3471 -0.0952
   55MOL0     C 7294   5.676   8.360   5.230 -0.8090  1.0781  0.0728
   55MOL0     C 7295   5.787   8.453   5.221  0.3606 -0.5628 -0.4879
   55MOL0     C 7296   5.920   8.410   5.214 -0.7151 -1.3016  0.3503
   55MOL0     C 7297   5.947   8.274   5.196 -0.6282 -0.9714  0.3296
   55MOL0     O 7298   6.070   8.222   5.182 -0.9157 -1.0004 -0.2609
   55MOL0     C 7299   6.183   8.302   5.217 -0.1672 -0.1651  0.3221
   55MOL0     C 7300   6.299   8.201   5.235 -0.1199 -0.0261 -0.1421
   55MOL0     C 7301   6.256   8.081   5.321 -1.0708  0.3835 -0.1996
   55MOL0     C 7302   6.364   7.982   5.354  0.7024  0.2390  0.2251
   55MOL0     C 7303   6.317   7.870   5.446 -0.0167  0.3242 -0.1770
   55MOL0     C 7304   6.413   7.758   5.465 -0.1577  1.0895  0.1329
   55MOL0     C 7305   6.435   7.683   5.324  0.0058 -0.7123 -1.1200
   55MOL0     C 7306   6.492   7.542   5.348  0.3199  0.0379 -0.5938
   55MOL0     N 7307   6.619   7.557   5.426 -0.1634  0.3095 -0.4729
   55MOL0     C 7308   6.625   7.555   5.561 -0.6017 -0.4927 -0.1239
   55MOL0     C 7309   6.755   7.536   5.587 -0.6827 -0.3961  0.4647
   55MOL0     C 7310   6.811   7.535   5.725 -0.2412 -0.4778 -0.3854
   55MOL0     C 7311   6.765   7.422   5.817  0.7052 -0.3882  0.1074
   55MOL0     C 7312   6.875   7.320   5.854  0.5243  0.0581 -0.4185
   55MOL0     C 7313   6.931   7.261   5.727 -0.2729  0.7545  0.3283
   55MOL0     O 7314   6.982   7.126   5.735  0.6289  0.7168  0.6250
   55MOL0     C 7315   7.108   7.103   5.680  0.1899  0.4112 -0.1313
   55MOL0     C 7316   7.192   7.010   5.742  0.6852 -0.5637 -0.8071
   55MOL0     C 7317   7.319   6.971   5.693  0.3540 -0.5377  0.0920
   55MOL0     C 7318   7.370   7.046   5.584 -0.6501  1.2168  0.6240
   55MOL0     C 7319   7.512   7.023   5.548  0.1795  0.0462  0.0980
   55MOL0     O 7320   7.600   7.095   5.617 -0.2164  0.5481  0.9893
   55MOL0     C 7321   7.730   7.069   5.581 -0.4621  0.5267 -0.8699
   55MOL0     C 7322   7.792   7.124   5.478 -0.6378 -0.5142  0.1639
   55MOL0     C 7323   7.922   7.094   5.443  0.7623 -0.9502  0.1299
   55MOL0     C 7324   7.996   7.016   5.531 -0.3403 -0.1482 -0.4997
   55MOL0     O 7325   8.126   7.018   5.490 -0.4265  0.4724  0.2099
   55MOL0     C 7326   8.219   6.928   5.559  0.3546 -0.4938  0.3187
   55MOL0     C 7327   8.233   6.791   5.483  0.2835  0.5794  0.3132
   55MOL0     C 7328   8.307   6.794   5.352 -0.8694 -0.3793  0.7082
   55MOL0     C 7329   8.456   6.841   5.372 -0.8170  0.3903  0.4665
   55MOL0     C 7330   8.530   6.841   5.230  0.0157  0.2809 -0.0444
   55MOL0     C 7331   8.682   6.881   5.242 -0.0093  1.3856  0.5518
   55MOL0     C 7332   8.725   6.900   5.091 -0.3204  0.2826 -0.7038
   55MOL0     C 7333   8.860   6.956   5.090  1.0127 -0.4134 -0.9590
   55MOL0    Cl 7334   8.985   6.836   5.149 -0.0415  0.2641 -0.0327
   55MOL0     C 7335   7.931   6.960   5.635 -0.3420  0.4463 -0.5489
   55MOL0     C 7336   7.804   6.987   5.664 -0.0292  0.3133 -0.7023
   55MOL0     O 7337   7.530   6.924   5.479 -0.2640 -0.0382 -0.4504
   55MOL0     C 7338   7.292   7.145   5.520 -0.3765 -0.5584 -0.2007
   55MOL0     C 7339   7.164   7.175   5.569  0.0813 -0.2391 -0.1261
   55MOL0     N 7340   6.827   7.508   5.463  0.6998 -1.0824  0.1025
   55MOL0     N 7341   6.739   7.521   5.374  1.0613 -0.8541  0.4652
   55MOL0     C 7342   5.848   8.182   5.191 -0.7306 -0.4165  0.7281
   55MOL0     C 7343   5.716   8.226   5.212 -0.2641  1.2979  0.7313
   55MOL0     C 7344   5.355   8.487   5.326 -0.1848  0.0618  0.4901
   55MOL0     C 7345   5.276   8.462   5.217  0.7875 -1.1114  0.7332
   55MOL0     C 7346   5.141   8.511   5.210 -0.1906  0.1939 -0.0286
   55MOL0     C 7347   5.075   8.569   5.314  1.3884  0.4931  0.4038
   55MOL0     O 7348   4.941   8.614   5.294  0.2639  0.2709  0.7069
   55MOL0     C 7349   4.894   8.703   5.396 -0.0389  0.4023 -0.3829
   55MOL0     C 7350   4.775   8.802   5.373 -0.5216  0.4583  0.5476
   55MOL0     C 7351   4.716   8.849   5.503 -0.1019  1.3861 -0.2284
   55MOL0     C 7352   4.786   8.941   5.600 -0.3405  0.4864 -0.5035
   55MOL0     C 7353   4.870   8.853   5.685 -0.4247 -0.2468  1.0934
   55MOL0     C 7354   4.949   8.784   5.744 -0.1772  0.8134 -0.2422
   55MOL0     C 7355   5.151   8.586   5.434  0.7260  0.1916  0.2142
   55MOL0     C 7356   5.286   8.541   5.442 -0.1121  0.2821  0.0360
   55MOL0     C 7357   5.350   8.559   5.579 -0.6776 -0.3171  0.3973
   55MOL0     H 7358   5.763   8.558   5.222  0.0278 -0.6438  0.2526
   55MOL0     H 7359   5.997   8.486   5.203 -0.0797 -2.0678 -0.6643
   55MOL0     H 7360   6.210   8.373   5.139  1.2971  0.8661  1.7055
   55MOL0     H 7361   6.164   8.350   5.314  0.5631 -0.5612  0.6680
   55MOL0     H 7362   6.392   8.254   5.255 -0.8521  2.1383 -2.0441
   55MOL0     H 7363   6.324   8.171   5.133 -1.7336  2.0192 -1.2200
   55MOL0     H 7364   6.173   8.026   5.277 -3.3768  3.8104 -0.5112
   55MOL0     H 7365   6.226   8.126   5.416  2.7301  0.5880  1.0947
   55MOL0     H 7366   6.413   7.950   5.262  4.2895 -0.3000  2.1272
   55MOL0     H 7367   6.437   8.037   5.414  0.0706  0.4135  0.8371
   55MOL0     H 7368   6.289   7.907   5.545 -0.9556 -0.8994  0.0438
   55MOL0     H 7369   6.227   7.822   5.406 -0.0571  0.5819 -0.3925
   55MOL0     H 7370   6.512   7.803   5.484  0.7896 -0.6651 -0.4698
   55MOL0     H 7371   6.368   7.694   5.541 -0.0370  0.9269  0.0664
   55MOL0     H 7372   6.505   7.743   5.266  0.7760 -0.1305  0.3594
   55MOL0     H 7373   6.339   7.693   5.273 -0.6628  1.9224  0.4353
   55MOL0     H 7374   6.427   7.481   5.411  2.4288 -1.8463 -0.1220
   55MOL0     H 7375   6.503   7.496   5.249 -0.8830 -0.5087 -0.4907
   55MOL0     H 7376   6.550   7.575   5.636 -0.3524  1.8878 -0.4283
   55MOL0     H 7377   6.920   7.536   5.712 -0.0132 -0.7201  1.3508
   55MOL0     H 7378   6.782   7.635   5.759 -0.3748 -0.9130  0.8312
   55MOL0     H 7379   6.720   7.451   5.912  0.8819  0.3891 -0.0396
   55MOL0     H 7380   6.685   7.374   5.759  1.4652  0.6687 -1.9098
   55MOL0     H 7381   6.822   7.246   5.915  2.0464 -1.9586 -1.4146
   55MOL0     H 7382   6.955   7.371   5.909  1.4450  1.6254 -3.0302
   55MOL0     H 7383   7.003   7.340   5.702  1.4891  0.6415  4.2466
   55MOL0     H 7384   6.854   7.256   5.650 -1.1339  0.6711  1.1841
   55MOL0     H 7385   7.164   6.969   5.839  0.7846 -2.1619 -1.4185
   55MOL0     H 7386   7.380   6.893   5.738  2.7918 -0.3708 -2.5749
   55MOL0     H 7387   7.752   7.209   5.423 -0.7825 -0.5152  0.2665
   55MOL0     H 7388   7.950   7.142   5.350 -3.4990 -0.0686 -0.9275
   55MOL0     H 7389   8.318   6.971   5.568 -0.3643  1.5995 -1.1117
   55MOL0     H 7390   8.189   6.912   5.663 -2.9109 -0.8139 -0.5574
   55MOL0     H 7391   8.294   6.726   5.546  2.6570 -0.0192 -2.3756
   55MOL0     H 7392   8.134   6.746   5.471 -0.9727  3.1367  0.2411
   55MOL0     H 7393   8.316   6.699   5.299  0.8067  1.0865 -1.8338
   55MOL0     H 7394   8.267   6.866   5.280 -0.6671  2.7334  3.4725
   55MOL0     H 7395   8.513   6.784   5.446 -0.2771  2.4643  1.7554
   55MOL0     H 7396   8.452   6.945   5.407 -0.5331  0.8774 -0.8774
   55MOL0     H 7397   8.488   6.931   5.185 -0.1856  0.2789  0.1406
   55MOL0     H 7398   8.508   6.744   5.185  1.1274  0.3199 -0.7176
   55MOL0     H 7399   8.693   6.972   5.301 -0.1075  3.0307 -1.8000
   55MOL0     H 7400   8.738   6.802   5.292  0.8216  0.4643 -1.6755
   55MOL0     H 7401   8.662   6.973   5.039  2.4806  4.9274  1.8097
   55MOL0     H 7402   8.718   6.804   5.038  0.1212 -0.5967  0.7618
   55MOL0     H 7403   8.892   7.010   5.001 -3.8195  1.2808 -1.9319
   55MOL0     H 7404   8.871   7.041   5.159 -0.9611 -0.3012 -0.7105
   55MOL0     H 7405   7.984   6.885   5.694 -2.2303  0.9693  2.0013
   55MOL0     H 7406   7.753   6.948   5.751  2.7771  4.9184  3.5254
   55MOL0     H 7407   7.315   7.208   5.434 -2.3087 -0.2504 -0.5268
   55MOL0     H 7408   7.113   7.252   5.513  1.8882  1.6714  0.6920
   55MOL0     H 7409   5.891   8.083   5.179 -0.0291  0.2486 -3.9603
   55MOL0     H 7410   5.639   8.155   5.241 -0.4759  2.3168  2.8901
   55MOL0     H 7411   5.317   8.422   5.125  3.2273  0.1124  1.1961
   55MOL0     H 7412   5.081   8.488   5.123  2.2670  0.3570 -1.8764
   55MOL0     H 7413   4.973   8.772   5.425 -0.3784  1.0959 -1.0550
   55MOL0     H 7414   4.872   8.634   5.478 -0.4820 -0.8959 -1.5453
   55MOL0     H 7415   4.700   8.745   5.317  3.0415 -5.1763  0.6262
   55MOL0     H 7416   4.816   8.887   5.318  0.3118  1.2438  2.3108
   55MOL0     H 7417   4.670   8.764   5.553 -1.6788  1.0550 -2.1276
   55MOL0     H 7418   4.626   8.905   5.477 -0.2267  1.2053 -0.1836
   55MOL0     H 7419   4.842   9.017   5.545 -0.5702  0.3191 -0.9736
   55MOL0     H 7420   4.711   8.981   5.668  1.5025 -0.7904  2.4697
   55MOL0     H 7421   5.007   8.715   5.801 -0.7474  0.6905  0.1844
   55MOL0     H 7422   5.108   8.643   5.515 -0.1088 -0.1150  0.0024
   55MOL0     H 7423   5.396   8.658   5.586  0.7270 -0.9384  0.3825
   55MOL0     H 7424   5.267   8.560   5.649  0.8739  2.8478  2.3799
   55MOL0     H 7425   5.421   8.479   5.606 -1.1620 -0.0185  2.6866
   56MOL0     O 7426   7.695   6.535   7.262 -1.1275  0.2300  0.6936
   56MOL0     C 7427   7.784   6.578   7.189  0.5849 -0.2732  1.2869
   56MOL0     O 7428   7.789   6.572   7.048 -0.2007 -0.9514 -0.2838
   56MOL0     C 7429   7.671   6.537   6.995  0.0429  0.1366 -0.1154
   56MOL0     C 7430   7.544   6.602   7.025 -0.1704  0.2027 -0.1420
   56MOL0     C 7431   7.426   6.550   6.952  0.0795 -0.4415 -0.2027
   56MOL0     C 7432   7.426   6.428   6.873  0.0217 -0.8319 -0.1663
   56MOL0     O 7433   7.303   6.378   6.828 -0.0442 -0.1286  1.1166
   56MOL0     C 7434   7.303   6.301   6.707  0.2010  0.3299  0.3028
   56MOL0     C 7435   7.312   6.150   6.717 -1.1205 -0.0444 -0.6353
   56MOL0     C 7436   7.196   6.085   6.776 -0.2703 -0.4794  0.9207
   56MOL0     C 7437   7.214   5.945   6.833 -0.2156  0.4347 -0.2798
   56MOL0     C 7438   7.302   5.929   6.962 -0.2161  0.4381 -0.1031
   56MOL0     C 7439   7.261   6.018   7.077 -1.0309  0.0368  0.5033
   56MOL0     C 7440   7.340   5.992   7.208 -0.5573  0.2351  0.5667
   56MOL0     C 7441   7.277   5.865   7.276 -0.3567 -0.1484 -0.0383
   56MOL0     N 7442   7.360   5.746   7.232  0.3563 -0.2407 -0.6784
   56MOL0     C 7443   7.500   5.722   7.246 -0.1609  0.2678 -0.1958
   56MOL0     C 7444   7.517   5.596   7.212 -0.1085 -0.1157 -0.5837
   56MOL0     C 7445   7.644   5.523   7.216  0.2540 -0.0820 -0.1410
   56MOL0     C 7446   7.660   5.412   7.107 -0.0859  0.5739 -0.6439
   56MOL0     C 7447   7.810   5.367   7.095 -0.0153  0.5554  0.2014
   56MOL0     C 7448   7.810   5.261   6.972  0.1832  0.1874 -0.7274
   56MOL0     O 7449   7.823   5.323   6.842 -0.0007  0.3850  0.4465
   56MOL0     C 7450   7.724   5.299   6.752  0.0097 -0.3560  0.2803
   56MOL0     C 7451   7.649   5.408   6.700  0.7253 -0.6845 -0.2824
   56MOL0     C 7452   7.561   5.384   6.593 -0.6851 -0.1701  0.6956
   56MOL0     C 7453   7.539   5.249   6.546  0.9010  0.2077 -0.5507
   56MOL0     C 7454   7.442   5.225   6.446 -1.5212 -0.2194  0.6721
   56MOL0     O 7455   7.363   5.337   6.395 -0.4386 -0.1853  0.5416
   56MOL0     C 7456   7.264   5.328   6.304  0.2355  0.0097 -0.0453
   56MOL0     C 7457   7.154   5.405   6.324  0.5002 -0.5710 -0.4368
   56MOL0     C 7458   7.044   5.399   6.242  0.1611 -0.6629  0.0246
   56MOL0     C 7459   7.043   5.317   6.135 -0.1938 -1.3288  0.3741
   56MOL0     O 7460   6.940   5.325   6.055 -0.1244 -0.3497 -0.1699
   56MOL0     C 7461   6.978   5.377   5.925  0.3447 -0.5344  1.1839
   56MOL0     C 7462   6.896   5.303   5.821 -0.2649  0.3846 -0.4759
   56MOL0     C 7463   6.750   5.344   5.825  0.2807 -0.2153  0.2215
   56MOL0     C 7464   6.653   5.233   5.787  1.1074  0.8091  0.3380
   56MOL0     C 7465   6.662   5.182   5.639  0.4672 -0.4023 -0.2269
   56MOL0     C 7466   6.557   5.084   5.606  0.0677 -0.3157  0.3151
   56MOL0     C 7467   6.575   5.015   5.472 -0.7386  0.0210  0.8647
   56MOL0     C 7468   6.467   4.904   5.438 -1.0264  0.7274 -1.0136
   56MOL0    Cl 7469   6.544   4.804   5.304  0.0628 -0.3012  0.1443
   56MOL0     C 7470   7.150   5.232   6.110  0.3018 -0.5816  0.1184
   56MOL0     C 7471   7.260   5.232   6.197  0.7082 -0.1458  0.4506
   56MOL0     O 7472   7.432   5.107   6.408 -0.0670  0.4853 -0.3373
   56MOL0     C 7473   7.618   5.139   6.594 -0.1000  1.3669  0.1216
   56MOL0     C 7474   7.710   5.170   6.698 -1.3911  0.5086  0.0302
   56MOL0     N 7475   7.396   5.540   7.194  0.1602 -0.0286  0.2899
   56MOL0     N 7476   7.301   5.626   7.207 -0.3911  0.0851 -0.0610
   56MOL0     C 7477   7.553   6.374   6.850 -0.4219 -0.1344 -0.4923
   56MOL0     C 7478   7.673   6.430   6.900  0.2252  0.7465 -0.2333
   56MOL0     C 7479   7.893   6.666   7.243  1.1365  0.0254 -0.4968
   56MOL0     C 7480   8.013   6.637   7.210  0.0488  0.0105  0.2937
   56MOL0     C 7481   8.122   6.709   7.252  0.5364 -0.5269  0.0801
   56MOL0     C 7482   8.106   6.832   7.316 -0.5548  0.0439  0.0975
   56MOL0     O 7483   8.221   6.907   7.327  0.9839 -0.0290  0.6881
   56MOL0     C 7484   8.203   7.032   7.265  0.2467 -0.4566  0.3884
   56MOL0     C 7485   8.338   7.100   7.268  0.4083 -0.1208 -0.1123
   56MOL0     C 7486   8.362   7.211   7.159 -0.0375 -0.6139 -0.5120
   56MOL0     C 7487   8.413   7.130   7.041  0.8115  0.1551 -0.0689
   56MOL0     C 7488   8.300   7.106   6.958  0.0917  0.4136  0.4212
   56MOL0     C 7489   8.217   7.080   6.876  0.0861 -0.6068  0.4447
   56MOL0     C 7490   7.973   6.864   7.364 -0.0958  0.5642  0.3245
   56MOL0     C 7491   7.868   6.777   7.331 -0.5248 -0.0728  0.3029
   56MOL0     C 7492   7.734   6.831   7.372  0.4675 -0.0089 -1.4346
   56MOL0     H 7493   7.530   6.694   7.081 -3.3397  1.3105 -2.4533
   56MOL0     H 7494   7.329   6.599   6.948 -0.8662 -1.8871  2.5457
   56MOL0     H 7495   7.219   6.323   6.640  1.4553 -0.2063 -1.5269
   56MOL0     H 7496   7.382   6.335   6.639 -1.4332 -1.5884 -2.8025
   56MOL0     H 7497   7.391   6.126   6.788 -3.2454 -0.7279  1.6745
   56MOL0     H 7498   7.327   6.113   6.616  1.4546 -1.8772  0.3044
   56MOL0     H 7499   7.130   6.072   6.690  1.5191 -0.0372 -0.6064
   56MOL0     H 7500   7.140   6.152   6.841 -2.6440 -1.3036 -0.1728
   56MOL0     H 7501   7.117   5.896   6.848 -0.3467  0.3791 -1.2247
   56MOL0     H 7502   7.263   5.902   6.745 -0.6691  0.8925 -0.7657
   56MOL0     H 7503   7.290   5.824   6.992  0.2717  0.9145  1.9292
   56MOL0     H 7504   7.407   5.941   6.936 -0.9883 -1.8839 -5.5219
   56MOL0     H 7505   7.294   6.115   7.040 -2.2498  1.5474  3.1313
   56MOL0     H 7506   7.155   6.030   7.100 -1.8093  1.5320 -3.1373
   56MOL0     H 7507   7.331   6.072   7.282 -0.7328 -1.4767  2.4977
   56MOL0     H 7508   7.445   5.988   7.179 -1.1287  3.0485 -2.4205
   56MOL0     H 7509   7.286   5.869   7.385 -0.4494  0.5181 -0.0512
   56MOL0     H 7510   7.170   5.846   7.259 -0.8629 -3.2212  4.6818
   56MOL0     H 7511   7.574   5.795   7.278  0.1623  0.1648 -0.6959
   56MOL0     H 7512   7.732   5.589   7.223  1.4866 -1.8707  3.8372
   56MOL0     H 7513   7.648   5.476   7.314  0.7401  0.2884  0.0225
   56MOL0     H 7514   7.595   5.325   7.121  0.1070 -1.0941 -6.8118
   56MOL0     H 7515   7.624   5.464   7.017  3.2961  2.4429 -1.0897
   56MOL0     H 7516   7.843   5.314   7.185 -3.0157  0.7839  1.5556
   56MOL0     H 7517   7.879   5.451   7.082 -0.2384  1.4596  3.8900
   56MOL0     H 7518   7.722   5.196   6.980  0.5439 -0.4152 -1.5540
   56MOL0     H 7519   7.893   5.197   7.001  0.6197  1.3936  0.7843
   56MOL0     H 7520   7.663   5.512   6.727  3.8885 -1.9137  3.9791
   56MOL0     H 7521   7.512   5.470   6.548  0.6466  0.1261 -0.2305
   56MOL0     H 7522   7.146   5.477   6.405 -0.6095  0.3664 -1.3365
   56MOL0     H 7523   6.967   5.475   6.254  1.3634  0.3950  1.3488
   56MOL0     H 7524   6.945   5.481   5.925  3.0180  0.4337 -0.5848
   56MOL0     H 7525   7.084   5.363   5.902 -0.5824 -1.9527 -3.1440
   56MOL0     H 7526   6.930   5.319   5.718 -2.9459 -1.8071 -1.8242
   56MOL0     H 7527   6.917   5.199   5.846 -0.6222  0.8533  1.9486
   56MOL0     H 7528   6.730   5.384   5.925 -0.4643 -0.1865  0.0668
   56MOL0     H 7529   6.727   5.432   5.764 -3.8444  0.5266  2.4557
   56MOL0     H 7530   6.549   5.258   5.809  1.0953  0.3447  0.8545
   56MOL0     H 7531   6.679   5.151   5.854  3.2206  2.0995  1.1862
   56MOL0     H 7532   6.761   5.135   5.640  1.2316  1.1425  0.5303
   56MOL0     H 7533   6.654   5.261   5.564  3.5317 -1.3945 -1.7528
   56MOL0     H 7534   6.550   5.008   5.683 -3.5156  1.9930  2.5407
   56MOL0     H 7535   6.466   5.144   5.602 -1.2107 -2.1861  0.2363
   56MOL0     H 7536   6.675   4.970   5.471 -0.6963  0.0784 -0.8370
   56MOL0     H 7537   6.576   5.095   5.397  2.0575 -0.7861 -0.0832
   56MOL0     H 7538   6.451   4.843   5.527  2.2042 -0.0394 -0.8300
   56MOL0     H 7539   6.375   4.951   5.402 -0.7683  1.4683 -0.7294
   56MOL0     H 7540   7.150   5.170   6.021  0.0895  0.8889 -0.9354
   56MOL0     H 7541   7.361   5.198   6.182  0.7305  1.1833 -4.2325
   56MOL0     H 7542   7.599   5.036   6.568  0.9211  1.1590  0.1740
   56MOL0     H 7543   7.768   5.086   6.734 -3.2875 -1.1830 -0.6494
   56MOL0     H 7544   7.563   6.283   6.793  2.8812 -0.3896  0.3310
   56MOL0     H 7545   7.767   6.379   6.886  0.3514  0.8489  0.2281
   56MOL0     H 7546   8.026   6.549   7.147 -1.2774  0.7703 -1.0994
   56MOL0     H 7547   8.220   6.674   7.221 -0.3001 -2.4520 -0.5061
   56MOL0     H 7548   8.133   7.105   7.305 -0.1272  0.0633 -1.1466
   56MOL0     H 7549   8.163   7.012   7.165 -3.0773  0.1941  1.4577
   56MOL0     H 7550   8.425   7.035   7.283  1.5161  0.9476 -1.5687
   56MOL0     H 7551   8.330   7.149   7.366 -0.9869 -2.9420  1.3113
   56MOL0     H 7552   8.440   7.283   7.184 -0.1150 -0.2073 -1.3955
   56MOL0     H 7553   8.271   7.266   7.135  1.0131  0.9195 -1.1084
   56MOL0     H 7554   8.480   7.191   6.980  0.2680  0.0308 -0.8027
   56MOL0     H 7555   8.447   7.033   7.079 -1.0717 -1.0128 -1.1780
   56MOL0     H 7556   8.150   7.037   6.805  2.7943 -2.4506 -1.2019
   56MOL0     H 7557   7.948   6.950   7.425 -6.3222 -0.6009  0.0364
   56MOL0     H 7558   7.669   6.746   7.393  3.0379 -2.4181 -2.5807
   56MOL0     H 7559   7.727   6.898   7.458 -1.6269 -1.9946  0.0673
   56MOL0     H 7560   7.689   6.888   7.289  0.6154  2.3718  0.0398
   57MOL0     O 7561   3.411   5.109   2.510 -1.6369 -0.1997  0.7502
   57MOL0     C 7562   3.511   5.159   2.461  0.2779  0.8033 -0.1161
   57MOL0     O 7563   3.589   5.085   2.367 -0.3780 -0.5835  0.0397
   57MOL0     C 7564   3.567   4.959   2.326  0.3675 -0.5793  0.4660
   57MOL0     C 7565   3.464   4.941   2.228  0.1229  0.1779 -0.0040
   57MOL0     C 7566   3.427   4.804   2.189 -0.0697 -0.2089  0.4914
   57MOL0     C 7567   3.511   4.701   2.220 -0.1692  0.7660 -0.4088
   57MOL0     O 7568   3.483   4.574   2.162  0.1073  0.9854 -0.2065
   57MOL0     C 7569   3.552   4.462   2.224 -0.2489 -0.9217 -0.3274
   57MOL0     C 7570   3.504   4.326   2.181  0.5354 -0.6500  0.3729
   57MOL0     C 7571   3.511   4.302   2.028  0.1803  0.1917 -0.5297
   57MOL0     C 7572   3.654   4.276   1.985  0.3832  0.7388 -0.0186
   57MOL0     C 7573   3.694   4.125   1.976  0.8727  0.5627 -0.1569
   57MOL0     C 7574   3.703   4.061   2.112 -0.7168  1.3338  0.0294
   57MOL0     C 7575   3.761   3.926   2.128  0.1338  0.2076  0.0321
   57MOL0     C 7576   3.897   3.910   2.051 -0.3116  0.4076  0.6859
   57MOL0     N 7577   3.968   3.777   2.094  0.3251  0.2247  0.3761
   57MOL0     C 7578   4.003   3.756   2.224 -0.3467 -0.1014 -0.3225
   57MOL0     C 7579   3.993   3.619   2.240 -0.4046 -0.8886  0.7333
   57MOL0     C 7580   4.016   3.540   2.370  0.3799 -1.5818 -0.9494
   57MOL0     C 7581   3.906   3.580   2.475 -0.6584  0.2810 -0.7079
   57MOL0     C 7582   3.888   3.471   2.588 -0.3442  0.0467  0.4779
   57MOL0     C 7583   3.923   3.533   2.721  0.1053 -0.0607  0.1026
   57MOL0     O 7584   3.851   3.645   2.759  0.0551 -0.4457 -0.3455
   57MOL0     C 7585   3.887   3.709   2.868 -0.5535 -0.0431  0.2868
   57MOL0     C 7586   3.852   3.843   2.863  0.3650 -0.9117 -0.3713
   57MOL0     C 7587   3.900   3.927   2.966  0.6444 -0.0924  0.0290
   57MOL0     C 7588   3.974   3.878   3.078  0.4758  0.3145 -0.4031
   57MOL0     C 7589   4.008   3.967   3.190  0.8394  0.8365  0.0218
   57MOL0     O 7590   4.113   3.930   3.273  0.2801  0.3224  0.3357
   57MOL0     C 7591   4.156   4.008   3.378  0.7178  0.1682  0.2468
   57MOL0     C 7592   4.114   4.136   3.421  0.2959 -1.2770 -0.4311
   57MOL0     C 7593   4.167   4.190   3.546  0.4574 -0.6219  0.3385
   57MOL0     C 7594   4.256   4.115   3.618  0.2164 -0.1703  0.6280
   57MOL0     O 7595   4.303   4.190   3.720 -0.4229 -0.2680 -1.1483
   57MOL0     C 7596   4.391   4.133   3.809  0.1077 -0.2144 -0.2455
   57MOL0     C 7597   4.358   4.177   3.955  0.7853  0.4741 -0.2390
   57MOL0     C 7598   4.468   4.182   4.048 -0.0922  0.1479 -0.9312
   57MOL0     C 7599   4.518   4.049   4.089  0.3829  0.3861  0.1950
   57MOL0     C 7600   4.656   4.049   4.160  1.2372  0.3501 -0.5846
   57MOL0     C 7601   4.645   4.129   4.297  0.1379  0.5956  1.2516
   57MOL0     C 7602   4.768   4.088   4.385 -0.6925 -0.1541  0.0598
   57MOL0     C 7603   4.793   4.187   4.490 -1.3770 -0.6573  0.7704
   57MOL0    Cl 7604   4.848   4.342   4.421 -0.5430  0.3002  0.5811
   57MOL0     C 7605   4.294   3.982   3.574 -0.0701 -0.0582 -0.3754
   57MOL0     C 7606   4.236   3.930   3.457 -0.9366 -1.3055  0.1739
   57MOL0     O 7607   3.924   4.051   3.218  0.4830 -1.0020  0.1095
   57MOL0     C 7608   4.006   3.744   3.076  0.3910  0.4309 -0.0048
   57MOL0     C 7609   3.961   3.658   2.973  0.2585 -0.2628  0.8722
   57MOL0     N 7610   3.973   3.570   2.114  0.2944 -0.1033 -0.9676
   57MOL0     N 7611   3.957   3.659   2.024  0.0874 -0.2196 -0.3825
   57MOL0     C 7612   3.627   4.727   2.294 -0.2541  0.1179 -0.4544
   57MOL0     C 7613   3.658   4.850   2.343  0.4365  0.0817 -0.8509
   57MOL0     C 7614   3.553   5.295   2.490  0.4759 -0.5090 -0.7809
   57MOL0     C 7615   3.689   5.325   2.481 -0.2856  0.7132 -0.3455
   57MOL0     C 7616   3.739   5.450   2.519 -0.7310 -0.1967 -0.6046
   57MOL0     C 7617   3.657   5.547   2.568  0.7320  0.7646  0.8128
   57MOL0     O 7618   3.693   5.658   2.631 -0.6545 -0.5334 -0.5526
   57MOL0     C 7619   3.828   5.692   2.640 -0.1317  0.1493  0.7313
   57MOL0     C 7620   3.830   5.834   2.682 -0.3281 -0.1947 -0.6093
   57MOL0     C 7621   3.953   5.870   2.773 -0.3687  0.2815 -0.8521
   57MOL0     C 7622   3.949   6.015   2.818 -0.2964 -0.1208  0.4727
   57MOL0     C 7623   4.061   6.032   2.912 -0.2857 -0.9944  0.2464
   57MOL0     C 7624   4.158   6.052   2.980  0.0891  0.7232 -0.4972
   57MOL0     C 7625   3.521   5.520   2.574  0.2673 -0.1485 -0.5259
   57MOL0     C 7626   3.464   5.401   2.518 -0.0675 -0.6094  0.6808
   57MOL0     C 7627   3.311   5.388   2.505  0.1713  0.2599 -0.2189
   57MOL0     H 7628   3.416   5.029   2.187 -1.5340  0.3003  2.0595
   57MOL0     H 7629   3.349   4.782   2.116  0.2041  0.8763 -0.1566
   57MOL0     H 7630   3.661   4.471   2.220 -0.2113 -1.6012 -0.9862
   57MOL0     H 7631   3.534   4.457   2.332  1.5481 -0.1041  0.0613
   57MOL0     H 7632   3.398   4.325   2.207  0.0869  3.3260 -0.5983
   57MOL0     H 7633   3.555   4.247   2.237  0.4488 -2.5958 -2.1102
   57MOL0     H 7634   3.478   4.387   1.967  3.1169  3.0295  1.4840
   57MOL0     H 7635   3.449   4.216   2.000  0.7459 -1.1297  2.0494
   57MOL0     H 7636   3.660   4.331   1.891 -1.0584  0.9605 -0.0185
   57MOL0     H 7637   3.726   4.322   2.054  0.5913 -0.3707  0.5162
   57MOL0     H 7638   3.624   4.066   1.917  0.5352  1.0770 -0.2862
   57MOL0     H 7639   3.794   4.124   1.933  0.7742  0.8856 -0.3962
   57MOL0     H 7640   3.740   4.136   2.181 -1.8634  1.4585  0.5324
   57MOL0     H 7641   3.602   4.043   2.149  0.6782 -3.0612  2.4207
   57MOL0     H 7642   3.690   3.849   2.098 -1.2126  1.5372 -0.3134
   57MOL0     H 7643   3.783   3.927   2.236  0.8030 -0.3337 -0.0932
   57MOL0     H 7644   3.880   3.909   1.943 -0.0757 -0.7149  0.6415
   57MOL0     H 7645   3.962   3.993   2.080 -0.3042  0.3637  0.7967
   57MOL0     H 7646   4.008   3.825   2.308  2.3465 -1.2198  0.5769
   57MOL0     H 7647   4.016   3.436   2.337  3.0021 -1.8895 -0.1637
   57MOL0     H 7648   4.115   3.550   2.416  0.9683  0.2470 -2.4956
   57MOL0     H 7649   3.958   3.665   2.521 -1.3613  1.6939 -2.4103
   57MOL0     H 7650   3.820   3.618   2.419  0.8563 -0.6262 -3.9398
   57MOL0     H 7651   3.952   3.387   2.560 -2.2242 -1.9634  1.8426
   57MOL0     H 7652   3.785   3.435   2.598 -0.6344  0.1355 -1.6786
   57MOL0     H 7653   4.026   3.570   2.722 -0.8665  2.9273 -1.1004
   57MOL0     H 7654   3.912   3.463   2.804 -0.0109  2.9389  2.7842
   57MOL0     H 7655   3.797   3.881   2.777  0.4268  1.9361  0.7189
   57MOL0     H 7656   3.874   4.032   2.952 -0.5071 -0.6528 -2.6285
   57MOL0     H 7657   4.050   4.200   3.361 -0.5667 -0.7076  1.0329
   57MOL0     H 7658   4.143   4.289   3.582  3.1809 -0.2062  1.3033
   57MOL0     H 7659   4.390   4.024   3.814  3.6714 -0.3087  1.1422
   57MOL0     H 7660   4.491   4.158   3.774 -0.6636  5.1303  0.3772
   57MOL0     H 7661   4.315   4.278   3.963 -1.6573 -0.4407 -0.9929
   57MOL0     H 7662   4.291   4.107   4.005 -2.9417  3.6761 -0.2790
   57MOL0     H 7663   4.541   4.236   3.987  0.1604  0.2775 -0.5187
   57MOL0     H 7664   4.450   4.247   4.133  1.9269 -0.0862 -0.2766
   57MOL0     H 7665   4.530   3.983   4.002 -1.6392  1.1147 -0.7014
   57MOL0     H 7666   4.449   3.990   4.149 -0.3973 -0.6060 -1.6094
   57MOL0     H 7667   4.731   4.094   4.093  0.7739  0.6140 -0.9354
   57MOL0     H 7668   4.687   3.946   4.180 -2.2590 -0.1477  3.8135
   57MOL0     H 7669   4.635   4.237   4.282 -0.3018  0.1294 -3.0330
   57MOL0     H 7670   4.548   4.104   4.342 -0.2636  1.1121  0.6851
   57MOL0     H 7671   4.851   4.092   4.314 -2.6887  2.3854 -2.3877
   57MOL0     H 7672   4.751   3.986   4.421  1.0516  0.2618  2.2472
   57MOL0     H 7673   4.706   4.206   4.553 -1.8911 -0.4093 -0.0018
   57MOL0     H 7674   4.875   4.147   4.550  0.9029  1.2380 -0.8654
   57MOL0     H 7675   4.369   3.925   3.628  3.4111  1.9322 -2.7793
   57MOL0     H 7676   4.272   3.833   3.421 -1.9563 -1.3410 -0.7839
   57MOL0     H 7677   4.065   3.713   3.162 -1.6478  2.8644  2.5124
   57MOL0     H 7678   4.003   3.558   2.978  0.4266 -0.3387 -1.1626
   57MOL0     H 7679   3.701   4.648   2.304 -0.0579  0.4414  0.9597
   57MOL0     H 7680   3.740   4.871   2.411 -3.1417 -1.3934  4.5247
   57MOL0     H 7681   3.759   5.243   2.466 -0.8052  0.0855  0.5878
   57MOL0     H 7682   3.847   5.461   2.525 -0.7990 -0.1082  3.9213
   57MOL0     H 7683   3.886   5.681   2.548 -0.3594  0.4859  0.5442
   57MOL0     H 7684   3.863   5.625   2.719 -0.6920  2.9253  3.5360
   57MOL0     H 7685   3.748   5.879   2.740  0.1808  0.5012 -0.4100
   57MOL0     H 7686   3.829   5.896   2.592  0.4840  1.1986  0.3012
   57MOL0     H 7687   4.049   5.844   2.728 -0.1577  0.7868 -0.7068
   57MOL0     H 7688   3.952   5.816   2.869  0.8394  4.0007  1.4767
   57MOL0     H 7689   3.949   6.085   2.734  0.7843  0.4507  0.9355
   57MOL0     H 7690   3.860   6.044   2.875  1.4783  3.2343  1.7966
   57MOL0     H 7691   4.248   6.069   3.035  0.5740  1.7565 -1.5445
   57MOL0     H 7692   3.461   5.605   2.603  1.0049  1.1205 -2.4772
   57MOL0     H 7693   3.248   5.465   2.552  0.2448  0.8168 -1.0191
   57MOL0     H 7694   3.286   5.384   2.399  1.3487 -1.8433 -0.4826
   57MOL0     H 7695   3.270   5.294   2.543 -0.3153  0.1135 -1.0807
   58MOL0     O 7696   8.194   7.721   5.313  0.7776  0.2874  0.5774
   58MOL0     C 7697   8.194   7.600   5.314  0.1241 -0.4765  0.0645
   58MOL0     O 7698   8.255   7.533   5.415 -0.8718  1.2280 -0.1676
   58MOL0     C 7699   8.337   7.603   5.504  1.4897  0.4395  0.3277
   58MOL0     C 7700   8.308   7.592   5.637 -0.5084 -0.8208 -0.4130
   58MOL0     C 7701   8.399   7.648   5.730 -0.2435 -0.3415 -0.0513
   58MOL0     C 7702   8.503   7.725   5.690  0.0243  0.4610  0.2765
   58MOL0     O 7703   8.587   7.772   5.773  0.1248  0.1572 -0.7382
   58MOL0     C 7704   8.535   7.886   5.844  0.4837  1.0509  1.2843
   58MOL0     C 7705   8.631   7.940   5.954 -0.3211  0.1098  0.6421
   58MOL0     C 7706   8.771   7.970   5.892  0.3048 -0.4784  0.4482
   58MOL0     C 7707   8.831   8.069   5.991 -0.1617  0.2622 -0.7831
   58MOL0     C 7708   8.986   8.081   6.018  0.3007 -0.2102 -0.3943
   58MOL0     C 7709   9.055   8.160   5.908 -0.2179  0.2186 -0.6146
   58MOL0     C 7710   9.076   8.087   5.774  0.0655  0.0707 -0.9325
   58MOL0     C 7711   9.142   8.162   5.650  0.7926 -0.4094  0.5822
   58MOL0     N 7712   9.054   8.160   5.534  0.5227  0.0174  0.2134
   58MOL0     C 7713   8.944   8.237   5.523  0.0860 -0.3306  1.4748
   58MOL0     C 7714   8.903   8.209   5.395 -0.9019 -0.1102 -0.1848
   58MOL0     C 7715   8.772   8.238   5.338 -0.5619  0.1164  0.5219
   58MOL0     C 7716   8.661   8.182   5.427  0.2574 -0.3787 -0.1187
   58MOL0     C 7717   8.514   8.228   5.386 -0.1865 -0.1001 -0.6278
   58MOL0     C 7718   8.403   8.138   5.454  0.7842  0.3670  1.1437
   58MOL0     O 7719   8.390   8.184   5.590  0.5012  0.3328  0.1474
   58MOL0     C 7720   8.294   8.114   5.653 -1.0885  0.6469 -0.7801
   58MOL0     C 7721   8.285   8.158   5.789  0.9682 -0.0204  0.4022
   58MOL0     C 7722   8.195   8.094   5.877 -0.7272 -0.0963  0.1189
   58MOL0     C 7723   8.108   7.992   5.840  0.2329 -0.0153  0.0512
   58MOL0     C 7724   8.018   7.925   5.940 -1.0861  0.0559  0.6042
   58MOL0     O 7725   7.970   7.988   6.050 -0.1335  0.2163 -0.3720
   58MOL0     C 7726   7.936   8.117   6.059  0.5861  0.6791 -0.8850
   58MOL0     C 7727   7.944   8.160   6.190  0.1452 -0.3795  0.3175
   58MOL0     C 7728   7.901   8.289   6.224  0.6425  0.1509 -0.3425
   58MOL0     C 7729   7.853   8.371   6.115  0.4900  0.3839 -1.0169
   58MOL0     O 7730   7.790   8.498   6.130  0.2310  0.2354  0.3350
   58MOL0     C 7731   7.730   8.532   6.266 -0.1654 -0.2535  0.1894
   58MOL0     C 7732   7.696   8.678   6.271 -0.7917  0.8908 -0.1065
   58MOL0     C 7733   7.572   8.720   6.188  0.1883  0.4400  0.3391
   58MOL0     C 7734   7.442   8.682   6.252 -0.9060 -0.4940 -0.7801
   58MOL0     C 7735   7.325   8.720   6.166  0.4377 -0.6576  0.7515
   58MOL0     C 7736   7.292   8.628   6.042 -0.9979  0.2384 -0.7891
   58MOL0     C 7737   7.173   8.683   5.959 -0.4832 -0.0345  0.4221
   58MOL0     C 7738   7.147   8.597   5.843  0.2543 -0.7162 -0.2649
   58MOL0    Cl 7739   7.011   8.662   5.765  0.1441  0.0226 -0.1538
   58MOL0     C 7740   7.842   8.325   5.985 -0.5907  0.2632 -0.2295
   58MOL0     C 7741   7.868   8.192   5.961  0.7674  0.4626 -0.1517
   58MOL0     O 7742   8.013   7.807   5.921  0.4451  0.5438 -0.1709
   58MOL0     C 7743   8.123   7.956   5.706  0.5437 -0.4437 -0.2990
   58MOL0     C 7744   8.211   8.006   5.613 -0.5068  0.3348  0.8083
   58MOL0     N 7745   8.997   8.130   5.331 -0.6436  0.4633 -0.0488
   58MOL0     N 7746   9.091   8.103   5.414 -1.0236 -0.9101  0.0294
   58MOL0     C 7747   8.526   7.739   5.555  0.1380 -0.3673 -0.4632
   58MOL0     C 7748   8.451   7.666   5.456  0.0245 -0.5381 -0.4105
   58MOL0     C 7749   8.112   7.522   5.224 -0.5566  0.2594  0.0138
   58MOL0     C 7750   8.128   7.382   5.233  0.3711  0.4183  0.0266
   58MOL0     C 7751   8.053   7.300   5.149  0.1982 -0.6324  0.5319
   58MOL0     C 7752   7.963   7.346   5.053 -0.0857 -0.6976 -0.7657
   58MOL0     O 7753   7.884   7.273   4.972  0.1641 -0.0034  0.0321
   58MOL0     C 7754   7.894   7.129   4.985 -0.1821 -0.1808  0.1464
   58MOL0     C 7755   7.797   7.086   5.100  0.3932 -0.3667  0.5520
   58MOL0     C 7756   7.828   6.933   5.127 -0.4753 -0.0159 -0.5236
   58MOL0     C 7757   7.710   6.860   5.198 -0.8699 -0.0914  0.1028
   58MOL0     C 7758   7.738   6.714   5.172  0.8177  0.9496 -0.6069
   58MOL0     C 7759   7.754   6.596   5.154  0.1195 -0.5370  0.4564
   58MOL0     C 7760   7.953   7.479   5.042  0.6805 -0.0634  0.2964
   58MOL0     C 7761   8.032   7.575   5.121 -0.2210  0.3282 -0.5140
   58MOL0     C 7762   7.992   7.722   5.110 -0.1597 -0.1215 -0.0447
   58MOL0     H 7763   8.212   7.545   5.657 -0.1264 -0.3913  2.9205
   58MOL0     H 7764   8.400   7.631   5.837 -0.5736 -0.0852 -0.0058
   58MOL0     H 7765   8.521   7.965   5.770 -2.2294 -0.7642 -0.3080
   58MOL0     H 7766   8.435   7.866   5.884 -0.1079  0.1530 -0.5625
   58MOL0     H 7767   8.634   7.868   6.037  0.3761  0.6876  1.1359
   58MOL0     H 7768   8.590   8.034   5.991  4.7738  3.1476 -0.3833
   58MOL0     H 7769   8.768   8.004   5.788  1.8135  0.5781  0.7137
   58MOL0     H 7770   8.826   7.875   5.898 -0.1394 -0.8904 -1.3736
   58MOL0     H 7771   8.808   8.167   5.948  0.0862  0.3128 -0.8041
   58MOL0     H 7772   8.782   8.059   6.089 -0.7594  2.3743 -0.8191
   58MOL0     H 7773   9.002   8.128   6.116 -1.0629 -2.6722  1.1167
   58MOL0     H 7774   9.030   7.981   6.024  0.9618 -0.0873 -2.5133
   58MOL0     H 7775   8.984   8.239   5.882 -2.5508 -1.9777 -1.4247
   58MOL0     H 7776   9.156   8.181   5.944 -0.4600  1.3566 -0.5763
   58MOL0     H 7777   8.983   8.051   5.729  1.4042 -0.9266 -3.0518
   58MOL0     H 7778   9.134   7.997   5.797  0.5623  0.8424  1.0167
   58MOL0     H 7779   9.160   8.269   5.664 -0.5587  0.7276 -4.4078
   58MOL0     H 7780   9.245   8.133   5.630  0.5244 -0.8455 -0.1724
   58MOL0     H 7781   8.906   8.296   5.606  1.2409 -0.0034  1.7887
   58MOL0     H 7782   8.756   8.344   5.318 -0.5454 -0.5319 -4.0429
   58MOL0     H 7783   8.772   8.189   5.240  2.7174 -1.4533  1.1705
   58MOL0     H 7784   8.671   8.075   5.411  2.2325 -0.2494  0.0207
   58MOL0     H 7785   8.686   8.212   5.529  0.1524  0.2558 -0.2693
   58MOL0     H 7786   8.508   8.214   5.277 -2.0067 -1.7088 -0.3851
   58MOL0     H 7787   8.502   8.330   5.422  3.6906  0.1910  0.2112
   58MOL0     H 7788   8.442   8.036   5.443 -0.0589  0.1769 -0.2523
   58MOL0     H 7789   8.301   8.132   5.416 -0.0931 -5.8267  3.3149
   58MOL0     H 7790   8.353   8.239   5.814  0.7824 -0.3372  2.0184
   58MOL0     H 7791   8.182   8.129   5.979  0.1771 -0.0354  0.2219
   58MOL0     H 7792   7.985   8.094   6.266  1.6498  0.7151  0.4942
   58MOL0     H 7793   7.888   8.333   6.322 -0.6077 -1.8236  0.4419
   58MOL0     H 7794   7.647   8.465   6.291 -1.1469 -1.0678 -4.4502
   58MOL0     H 7795   7.801   8.524   6.349 -2.6259 -1.4982  2.3533
   58MOL0     H 7796   7.670   8.685   6.378  0.8910 -1.6000  0.5395
   58MOL0     H 7797   7.776   8.750   6.251 -1.8538  1.5441 -2.3129
   58MOL0     H 7798   7.577   8.826   6.166 -4.3029  0.7457 -0.1921
   58MOL0     H 7799   7.584   8.679   6.087  3.6698 -1.3058  1.2818
   58MOL0     H 7800   7.432   8.743   6.343  0.1212  1.4256 -1.8714
   58MOL0     H 7801   7.427   8.575   6.263 -3.6655 -0.2658 -1.6207
   58MOL0     H 7802   7.325   8.821   6.125 -2.0376  0.1662  2.5369
   58MOL0     H 7803   7.235   8.718   6.229  0.2173  3.7564  0.8615
   58MOL0     H 7804   7.374   8.622   5.971 -0.6121 -2.4098 -0.2355
   58MOL0     H 7805   7.279   8.524   6.074 -0.0931  0.3907  0.1311
   58MOL0     H 7806   7.195   8.783   5.920 -0.6478 -0.5209 -0.9956
   58MOL0     H 7807   7.077   8.677   6.011 -1.1048  0.0632 -0.6593
   58MOL0     H 7808   7.234   8.593   5.776  1.2124  1.2256  0.7683
   58MOL0     H 7809   7.140   8.500   5.894  0.7573 -0.2920  0.6543
   58MOL0     H 7810   7.784   8.391   5.922  3.5293  5.1967  0.5109
   58MOL0     H 7811   7.848   8.137   5.869 -3.1613  1.0667  0.1419
   58MOL0     H 7812   8.065   7.874   5.663 -0.1277  0.4250 -1.0871
   58MOL0     H 7813   8.210   7.954   5.518  0.2022  1.2114  0.3019
   58MOL0     H 7814   8.605   7.803   5.516 -3.1810  2.8908 -2.4751
   58MOL0     H 7815   8.476   7.659   5.350  2.1185  3.2016 -0.3427
   58MOL0     H 7816   8.187   7.328   5.306  1.2374 -0.3701 -1.2093
   58MOL0     H 7817   8.061   7.193   5.167 -2.7303 -0.9663  0.4748
   58MOL0     H 7818   7.996   7.093   5.000  0.2875  1.2297  0.5264
   58MOL0     H 7819   7.862   7.084   4.891 -0.9390  0.4380  0.1005
   58MOL0     H 7820   7.691   7.091   5.071  0.9100  3.1400 -1.3336
   58MOL0     H 7821   7.800   7.156   5.184 -0.2719  1.4722 -0.8767
   58MOL0     H 7822   7.910   6.925   5.199 -0.7360  0.3531 -0.1830
   58MOL0     H 7823   7.867   6.878   5.041  2.6521  0.2052  0.6105
   58MOL0     H 7824   7.708   6.870   5.307  0.7117  4.1666 -0.0618
   58MOL0     H 7825   7.612   6.897   5.169 -0.2231  0.3954 -1.5631
   58MOL0     H 7826   7.759   6.489   5.149 -3.5113 -1.0770  3.4616
   58MOL0     H 7827   7.893   7.531   4.967 -0.7469  0.6376  1.8650
   58MOL0     H 7828   7.918   7.739   5.189 -1.0496  2.0073 -1.2583
   58MOL0     H 7829   8.079   7.787   5.098  0.1942 -0.9308 -2.3616
   58MOL0     H 7830   7.929   7.743   5.024  2.7215  2.7076 -1.6849
   59MOL0     O 7831   5.871   6.868   5.396 -0.1776 -0.1418  0.4732
   59MOL0     C 7832   5.776   6.882   5.472 -0.1801 -0.8683 -0.1728
   59MOL0     O 7833   5.659   6.807   5.465  0.5163  0.2734 -0.4496
   59MOL0     C 7834   5.645   6.728   5.348  0.1373 -0.5738 -0.3271
   59MOL0     C 7835   5.710   6.608   5.338 -0.0178 -0.0780  0.3694
   59MOL0     C 7836   5.715   6.537   5.223  0.9351 -0.3417 -0.6346
   59MOL0     C 7837   5.607   6.548   5.125 -0.6422 -0.4411  0.0469
   59MOL0     O 7838   5.604   6.471   5.009  0.3275 -0.3437 -1.0592
   59MOL0     C 7839   5.684   6.522   4.900  0.4649  0.0494 -0.5951
   59MOL0     C 7840   5.689   6.431   4.780 -0.5174  0.2643  0.8580
   59MOL0     C 7841   5.564   6.446   4.682 -0.9997  0.6286 -0.5625
   59MOL0     C 7842   5.565   6.342   4.574 -0.0320  0.6524  0.5886
   59MOL0     C 7843   5.439   6.352   4.482 -0.3805  0.1510 -0.8143
   59MOL0     C 7844   5.470   6.446   4.353 -0.9695  0.2860  0.0426
   59MOL0     C 7845   5.567   6.391   4.238  0.3483 -0.4105  0.0576
   59MOL0     C 7846   5.597   6.491   4.126  0.5376 -0.1643  0.3339
   59MOL0     N 7847   5.739   6.478   4.081  0.0486 -0.0109  0.3918
   59MOL0     C 7848   5.813   6.595   4.055 -0.2565 -0.0805 -0.9268
   59MOL0     C 7849   5.910   6.567   3.968 -0.3124  0.3388 -0.0231
   59MOL0     C 7850   6.031   6.648   3.931  0.0436 -1.1513  1.0467
   59MOL0     C 7851   6.079   6.743   4.038  0.3251 -0.8621 -0.4856
   59MOL0     C 7852   6.203   6.823   4.002 -0.5356 -0.6528  0.1616
   59MOL0     C 7853   6.230   6.936   4.100  0.0745 -0.3359 -0.9387
   59MOL0     O 7854   6.331   7.019   4.048  0.0047  0.9635  0.5177
   59MOL0     C 7855   6.366   7.137   4.103  0.6401  0.9782  0.1493
   59MOL0     C 7856   6.391   7.236   4.013  0.6130 -0.3629  0.1164
   59MOL0     C 7857   6.380   7.369   4.062 -0.0953 -1.1501 -0.0740
   59MOL0     C 7858   6.355   7.400   4.194 -0.5252 -0.0007  0.1778
   59MOL0     C 7859   6.367   7.547   4.239 -0.0428 -0.3351  0.3589
   59MOL0     O 7860   6.333   7.648   4.157 -0.9367  0.3881  0.2267
   59MOL0     C 7861   6.303   7.779   4.203  0.2741  1.0013 -0.7114
   59MOL0     C 7862   6.370   7.893   4.157 -0.7021  0.5071  1.4460
   59MOL0     C 7863   6.333   8.025   4.193  0.3126  0.1616 -0.0715
   59MOL0     C 7864   6.222   8.036   4.277  1.4647 -0.9855  0.1306
   59MOL0     O 7865   6.180   8.165   4.306  0.2829 -0.1278 -0.8128
   59MOL0     C 7866   6.070   8.189   4.392  0.3906  0.1190  0.8461
   59MOL0     C 7867   6.034   8.336   4.416 -0.1793  0.1426  0.4878
   59MOL0     C 7868   5.989   8.399   4.287 -0.0047  0.8769  0.4841
   59MOL0     C 7869   5.955   8.549   4.306  0.0746 -0.9411  0.8444
   59MOL0     C 7870   5.920   8.625   4.170  0.5858 -0.0913  0.0839
   59MOL0     C 7871   6.045   8.681   4.107  0.2685  0.0296  0.5522
   59MOL0     C 7872   6.019   8.764   3.982  0.1245  0.4605  0.2072
   59MOL0     C 7873   6.128   8.864   3.952 -0.7074 -0.5717 -0.1798
   59MOL0    Cl 7874   6.133   8.985   4.078  0.0827  0.4355 -0.0291
   59MOL0     C 7875   6.158   7.924   4.329 -0.7465 -0.3615  0.1003
   59MOL0     C 7876   6.207   7.798   4.302  0.4729  0.4642  0.8405
   59MOL0     O 7877   6.384   7.559   4.358  0.4354 -0.5088 -0.0046
   59MOL0     C 7878   6.349   7.290   4.290  0.0805 -1.1549  0.5332
   59MOL0     C 7879   6.347   7.159   4.242  0.0351  0.3237  1.5614
   59MOL0     N 7880   5.907   6.431   3.939  0.5680 -0.0522 -0.6064
   59MOL0     N 7881   5.801   6.380   4.010 -0.3261 -0.2592  0.5716
   59MOL0     C 7882   5.524   6.664   5.137  0.1930 -0.3629  0.3341
   59MOL0     C 7883   5.554   6.763   5.236 -0.2949 -0.5327  0.2060
   59MOL0     C 7884   5.791   6.982   5.572 -0.8050 -0.2946  0.7291
   59MOL0     C 7885   5.823   7.117   5.539 -0.4895 -0.5082 -0.1425
   59MOL0     C 7886   5.818   7.208   5.643 -0.2356 -0.5667 -0.0461
   59MOL0     C 7887   5.805   7.175   5.776  0.2933  0.3579  0.7710
   59MOL0     O 7888   5.807   7.279   5.865  0.1251 -0.1957 -1.0514
   59MOL0     C 7889   5.841   7.259   6.009 -0.1807 -0.3034 -0.1709
   59MOL0     C 7890   5.861   7.403   6.075 -0.0263 -0.1636 -0.3666
   59MOL0     C 7891   6.010   7.412   6.092 -0.2109 -0.7214  0.3778
   59MOL0     C 7892   6.055   7.547   6.142 -0.3826  0.5820  0.6144
   59MOL0     C 7893   6.033   7.544   6.287 -1.0102  0.4463 -0.4138
   59MOL0     C 7894   6.002   7.517   6.407  0.3335 -0.2251 -0.9441
   59MOL0     C 7895   5.791   7.039   5.808  0.8151  0.1527 -0.6588
   59MOL0     C 7896   5.776   6.942   5.707  0.9260 -0.2460 -0.1559
   59MOL0     C 7897   5.752   6.801   5.749 -1.1460 -0.0210 -0.2295
   59MOL0     H 7898   5.778   6.569   5.412 -0.3959  0.1418  0.8370
   59MOL0     H 7899   5.771   6.444   5.225  0.7462 -0.6703 -4.0400
   59MOL0     H 7900   5.655   6.620   4.865  1.0093  0.5413  0.2694
   59MOL0     H 7901   5.788   6.530   4.935  0.8368 -0.2395 -1.5862
   59MOL0     H 7902   5.709   6.329   4.815  1.7173 -0.1421 -1.3272
   59MOL0     H 7903   5.775   6.459   4.718 -1.1238 -1.0097 -0.6579
   59MOL0     H 7904   5.578   6.539   4.626  2.1640 -1.2307 -3.2542
   59MOL0     H 7905   5.479   6.443   4.751 -1.8320  1.7936 -1.5151
   59MOL0     H 7906   5.660   6.339   4.520 -0.1367  0.4941  0.4118
   59MOL0     H 7907   5.567   6.245   4.626  0.6767 -0.8238 -2.0332
   59MOL0     H 7908   5.411   6.254   4.442 -2.7843  0.3426  0.2486
   59MOL0     H 7909   5.346   6.381   4.530 -0.7479 -1.2491 -0.6184
   59MOL0     H 7910   5.384   6.484   4.298  0.9320 -1.1623 -4.4182
   59MOL0     H 7911   5.521   6.535   4.390 -1.8926  2.0695 -2.6216
   59MOL0     H 7912   5.526   6.297   4.199 -0.6024 -0.5752  1.3588
   59MOL0     H 7913   5.660   6.365   4.291 -0.6319  1.1494  2.7375
   59MOL0     H 7914   5.534   6.459   4.042  2.0196 -0.0712 -0.8561
   59MOL0     H 7915   5.570   6.593   4.153  0.4794  0.3123 -1.4169
   59MOL0     H 7916   5.804   6.691   4.104  3.1998  0.3104 -0.8103
   59MOL0     H 7917   6.112   6.582   3.897 -0.9554 -1.3188 -1.1993
   59MOL0     H 7918   6.007   6.707   3.843 -2.3637  0.3807  2.6130
   59MOL0     H 7919   5.999   6.812   4.065  3.3351  2.0801  1.6335
   59MOL0     H 7920   6.099   6.682   4.126  2.3197  0.6142  0.1622
   59MOL0     H 7921   6.178   6.880   3.912 -0.3873 -0.9238 -0.0511
   59MOL0     H 7922   6.288   6.758   3.979  0.2840  1.0414 -1.8272
   59MOL0     H 7923   6.257   6.899   4.199 -3.6472  0.5263  0.5566
   59MOL0     H 7924   6.145   7.000   4.127  0.0453  0.0315 -1.8423
   59MOL0     H 7925   6.418   7.210   3.911  2.0749 -0.5719  0.5332
   59MOL0     H 7926   6.424   7.445   3.997 -1.3689  1.7787  2.2521
   59MOL0     H 7927   6.451   7.878   4.086 -1.1136 -1.4746  1.3293
   59MOL0     H 7928   6.378   8.118   4.162 -0.7318  0.9270  0.6441
   59MOL0     H 7929   5.977   8.140   4.361 -0.7648  3.0474 -0.7519
   59MOL0     H 7930   6.099   8.139   4.484  4.8313  0.2559 -0.2758
   59MOL0     H 7931   5.958   8.353   4.493 -2.4986  1.5630 -1.9386
   59MOL0     H 7932   6.126   8.389   4.443  0.9119 -2.3876  2.0419
   59MOL0     H 7933   6.063   8.383   4.208  3.0883  2.5196  2.8407
   59MOL0     H 7934   5.894   8.361   4.247 -0.2201  3.1367 -1.3996
   59MOL0     H 7935   6.034   8.599   4.363  1.0863 -1.2644 -0.2569
   59MOL0     H 7936   5.871   8.547   4.376  0.4352  3.3839  1.7143
   59MOL0     H 7937   5.855   8.709   4.196  0.5247  1.5532 -4.4781
   59MOL0     H 7938   5.871   8.563   4.095  0.2183  0.5188 -0.1861
   59MOL0     H 7939   6.104   8.737   4.181 -0.3999 -0.3648  1.4024
   59MOL0     H 7940   6.107   8.597   4.076 -1.5966 -1.8254  1.5975
   59MOL0     H 7941   5.932   8.824   4.009 -0.3436 -0.2652  0.3459
   59MOL0     H 7942   6.004   8.705   3.891  1.1771 -0.1116  0.3885
   59MOL0     H 7943   6.225   8.819   3.930 -1.5200 -1.6313 -1.8490
   59MOL0     H 7944   6.100   8.925   3.865  3.0403  0.9745 -0.4959
   59MOL0     H 7945   6.073   7.928   4.396 -1.7133 -0.2136 -1.1090
   59MOL0     H 7946   6.150   7.716   4.346  0.0649  0.7873  0.9252
   59MOL0     H 7947   6.346   7.311   4.397  1.0334 -0.7268  0.4909
   59MOL0     H 7948   6.328   7.086   4.321 -1.3960  2.0654  2.8999
   59MOL0     H 7949   5.449   6.679   5.060 -2.7941 -1.4547  2.8449
   59MOL0     H 7950   5.495   6.854   5.243 -0.6577 -0.5512 -2.0213
   59MOL0     H 7951   5.845   7.149   5.438  2.3346 -1.0193  0.2122
   59MOL0     H 7952   5.828   7.314   5.619 -0.3347 -0.4504  0.4170
   59MOL0     H 7953   5.928   7.199   6.039 -0.7535  0.5364  3.6198
   59MOL0     H 7954   5.767   7.198   6.062  3.6531 -5.6949 -0.2028
   59MOL0     H 7955   5.811   7.411   6.172  0.6494  1.2239 -0.1122
   59MOL0     H 7956   5.828   7.490   6.018  0.6989 -0.6242 -1.5280
   59MOL0     H 7957   6.050   7.400   5.991 -1.8234  0.8122 -0.5172
   59MOL0     H 7958   6.049   7.329   6.151  0.3909 -0.7400 -0.0377
   59MOL0     H 7959   6.160   7.564   6.121  0.1738  2.6540  4.2994
   59MOL0     H 7960   5.990   7.621   6.094  0.8469  0.3416 -1.5130
   59MOL0     H 7961   5.985   7.495   6.510 -1.5857 -1.9354 -1.5638
   59MOL0     H 7962   5.765   7.011   5.909  2.7097 -0.3118 -0.2699
   59MOL0     H 7963   5.756   6.769   5.854 -0.6109 -4.3237 -1.3677
   59MOL0     H 7964   5.656   6.769   5.709 -0.7363 -1.2979 -0.2526
   59MOL0     H 7965   5.821   6.727   5.705  0.4122 -0.4439  2.6610
   60MOL0     O 7966   5.017   6.622   8.682 -0.4957  0.3251 -0.5011
   60MOL0     C 7967   4.978   6.736   8.721  0.0539  1.0634 -0.2570
   60MOL0     O 7968   4.967   6.774   8.843 -0.2172 -0.2724 -0.5372
   60MOL0     C 7969   5.064   6.740   8.930 -0.3649  0.0253 -0.9436
   60MOL0     C 7970   5.049   6.758   9.064 -0.3398  0.3491  0.1900
   60MOL0     C 7971   5.153   6.717   9.155  0.5404 -0.1666 -0.5750
   60MOL0     C 7972   5.269   6.662   9.108 -0.4097  1.0595  0.3270
   60MOL0     O 7973   5.372   6.618   9.185  0.0455  0.5234 -0.3376
   60MOL0     C 7974   5.374   6.667   9.320  0.2600 -0.2562 -0.0095
   60MOL0     C 7975   5.518   6.650   9.372  0.5943  0.7576  1.4521
   60MOL0     C 7976   5.528   6.686   9.510  0.4854 -0.8982 -1.1234
   60MOL0     C 7977   5.659   6.652   9.569  0.2826 -0.0622  0.2194
   60MOL0     C 7978   5.669   6.749   9.686 -0.3561  0.4972  0.1226
   60MOL0     C 7979   5.800   6.726   9.761 -0.0113  0.4300 -0.7119
   60MOL0     C 7980   5.811   6.854   9.856 -0.6691  0.8093 -0.2224
   60MOL0     C 7981   5.919   6.835   9.967 -0.4397  0.1365  1.2287
   60MOL0     N 7982   5.950   6.971  10.026 -1.2763 -0.3610 -0.0123
   60MOL0     C 7983   6.073   7.036  10.002  0.5577 -0.0894  0.4807
   60MOL0     C 7984   6.053   7.154  10.064 -0.7518 -0.2528 -0.6583
   60MOL0     C 7985   6.157   7.264  10.064  0.0263 -0.0789 -0.3483
   60MOL0     C 7986   6.305   7.231  10.018 -0.0085  0.0970  0.1329
   60MOL0     C 7987   6.405   7.350  10.025 -0.5094  0.4267  0.2811
   60MOL0     C 7988   6.553   7.291  10.023 -0.0102  1.4842 -0.1880
   60MOL0     O 7989   6.651   7.377  10.084 -0.7017 -0.0096 -0.6044
   60MOL0     C 7990   6.685   7.507  10.050  0.3247  0.0127 -0.1866
   60MOL0     C 7991   6.783   7.532   9.958  0.0309 -0.0176 -0.5429
   60MOL0     C 7992   6.814   7.664   9.923  0.5614  0.0836 -0.0323
   60MOL0     C 7993   6.741   7.777   9.976 -0.1027  1.0934 -0.2536
   60MOL0     C 7994   6.774   7.917   9.937 -0.3642 -0.2907  0.4293
   60MOL0     O 7995   6.676   8.008   9.935  0.1409  0.5492  1.0023
   60MOL0     C 7996   6.695   8.137   9.888 -0.4465  0.5243 -0.8879
   60MOL0     C 7997   6.722   8.159   9.755 -0.4721  0.3768  0.1386
   60MOL0     C 7998   6.770   8.285   9.708 -0.0641  0.3566  0.5968
   60MOL0     C 7999   6.761   8.397   9.793  0.4167 -0.4710  0.5387
   60MOL0     O 8000   6.817   8.519   9.755 -0.0275  1.3191  0.4225
   60MOL0     C 8001   6.859   8.606   9.860  0.5465 -0.4547 -0.1732
   60MOL0     C 8002   6.928   8.736   9.804 -0.3820  0.3310  0.0778
   60MOL0     C 8003   6.843   8.810   9.704 -0.1392  0.2536  0.2034
   60MOL0     C 8004   6.739   8.905   9.760 -0.3909  0.1482 -0.4545
   60MOL0     C 8005   6.696   9.011   9.647 -0.4317  0.2042 -0.6288
   60MOL0     C 8006   6.591   9.115   9.705 -1.0298  0.4957 -0.2461
   60MOL0     C 8007   6.642   9.204   9.823 -0.2235 -0.2518 -0.0827
   60MOL0     C 8008   6.534   9.302   9.859  0.2136 -0.1724 -0.3955
   60MOL0    Cl 8009   6.519   9.446   9.759 -0.3876 -0.3337  0.0139
   60MOL0     C 8010   6.720   8.378   9.922 -0.0841  0.1347  0.0427
   60MOL0     C 8011   6.693   8.253   9.965  0.0038  0.4700  0.7365
   60MOL0     O 8012   6.881   7.930   9.882 -1.3717 -0.3740 -0.2361
   60MOL0     C 8013   6.655   7.749  10.080 -0.0047 -0.1681 -0.2344
   60MOL0     C 8014   6.619   7.614  10.102 -1.0036 -1.1374  0.5164
   60MOL0     N 8015   5.925   7.152  10.128 -0.2995  0.2078  0.5785
   60MOL0     N 8016   5.871   7.041  10.103 -0.7445 -0.6125 -0.5808
   60MOL0     C 8017   5.292   6.668   8.970 -0.4666 -0.1070 -1.3549
   60MOL0     C 8018   5.191   6.693   8.883  0.7167  0.3259 -0.2637
   60MOL0     C 8019   4.915   6.813   8.615  0.7977 -0.3799  0.5808
   60MOL0     C 8020   4.815   6.759   8.535 -0.2965  0.0150  0.0242
   60MOL0     C 8021   4.741   6.842   8.451  0.0495 -0.6007 -0.2197
   60MOL0     C 8022   4.767   6.978   8.434  0.2446 -0.0675 -0.0667
   60MOL0     O 8023   4.678   7.043   8.350  0.6556 -0.4367 -0.3691
   60MOL0     C 8024   4.709   7.182   8.311  0.4539  0.0570  0.3657
   60MOL0     C 8025   4.647   7.286   8.409 -0.7764  0.5129 -0.5536
   60MOL0     C 8026   4.489   7.281   8.398 -0.1566  0.1881  0.0856
   60MOL0     C 8027   4.422   7.358   8.514 -0.4786  0.5093  0.2473
   60MOL0     C 8028   4.453   7.271   8.633  1.4295  0.7652 -0.0251
   60MOL0     C 8029   4.462   7.209   8.737  0.3380 -1.4451  0.6368
   60MOL0     C 8030   4.879   7.036   8.501  0.1812 -0.7785  0.6489
   60MOL0     C 8031   4.940   6.952   8.592 -0.9124 -0.6049 -0.0515
   60MOL0     C 8032   5.057   7.012   8.672  0.4065 -0.2258 -0.1231
   60MOL0     H 8033   4.957   6.801   9.104  0.3948  4.4871 -2.0250
   60MOL0     H 8034   5.140   6.712   9.263  1.6364 -0.6357 -0.4443
   60MOL0     H 8035   5.345   6.772   9.333  0.9468 -0.1786  1.1294
   60MOL0     H 8036   5.310   6.604   9.382 -0.7158  0.6190 -0.1111
   60MOL0     H 8037   5.587   6.703   9.305 -0.8079  2.1268  1.0320
   60MOL0     H 8038   5.553   6.547   9.362  0.0790  0.6787  0.1824
   60MOL0     H 8039   5.456   6.643   9.581  1.2440  0.8964  0.8471
   60MOL0     H 8040   5.511   6.794   9.519  1.1953 -0.9014  0.8998
   60MOL0     H 8041   5.668   6.547   9.599 -0.1217 -0.2354 -0.2638
   60MOL0     H 8042   5.734   6.669   9.492  0.5131 -0.7375  0.2868
   60MOL0     H 8043   5.677   6.854   9.656  5.3058  0.8673  1.7679
   60MOL0     H 8044   5.586   6.727   9.754 -0.6977  2.2644  0.3256
   60MOL0     H 8045   5.789   6.630   9.812 -0.6714 -0.2355 -2.0606
   60MOL0     H 8046   5.883   6.727   9.690  0.8858  1.9089  0.2867
   60MOL0     H 8047   5.721   6.845   9.918  2.2940  0.6555  4.6390
   60MOL0     H 8048   5.835   6.950   9.811  1.2323  2.1638  3.3195
   60MOL0     H 8049   5.884   6.774  10.051 -4.5088  0.2455 -0.2123
   60MOL0     H 8050   6.001   6.782   9.919 -1.3006  0.1661 -0.3290
   60MOL0     H 8051   6.161   7.005   9.946  0.2484 -1.0698  0.5158
   60MOL0     H 8052   6.122   7.336   9.989 -3.0382 -2.2505 -1.1424
   60MOL0     H 8053   6.165   7.307  10.165  0.6405 -0.2710 -0.3064
   60MOL0     H 8054   6.340   7.156  10.090  1.0672  1.0068  0.5937
   60MOL0     H 8055   6.322   7.175   9.926  0.8146  2.8284 -1.5140
   60MOL0     H 8056   6.384   7.413  10.111 -0.4158  2.5576 -1.1856
   60MOL0     H 8057   6.371   7.420   9.949 -1.4769  5.5398  4.8358
   60MOL0     H 8058   6.577   7.254   9.923  0.3615 -1.7922  0.9910
   60MOL0     H 8059   6.559   7.199  10.082  2.5065  0.9701 -1.1156
   60MOL0     H 8060   6.837   7.448   9.914 -1.0877  0.7262 -3.5770
   60MOL0     H 8061   6.893   7.684   9.851  1.5453  0.7877  1.2057
   60MOL0     H 8062   6.709   8.070   9.693 -2.2960 -0.4461  1.6174
   60MOL0     H 8063   6.805   8.302   9.607  3.0872 -0.6541  1.4213
   60MOL0     H 8064   6.775   8.637   9.923 -0.9283  1.8245 -3.0251
   60MOL0     H 8065   6.926   8.560   9.933 -2.1319 -2.3476  1.2472
   60MOL0     H 8066   6.939   8.803   9.890  0.5179  0.5763 -0.2180
   60MOL0     H 8067   7.025   8.702   9.769 -0.2270 -0.2247  0.9990
   60MOL0     H 8068   6.916   8.862   9.641  0.6987  1.9681  2.4332
   60MOL0     H 8069   6.791   8.745   9.633 -2.9888  4.0292 -1.4695
   60MOL0     H 8070   6.773   8.963   9.845 -0.9961  0.5512 -0.4809
   60MOL0     H 8071   6.650   8.844   9.780  0.4828  0.1715  5.0118
   60MOL0     H 8072   6.643   8.957   9.568 -2.4858  0.1532  0.7164
   60MOL0     H 8073   6.786   9.062   9.613 -0.2051 -0.0027 -0.3435
   60MOL0     H 8074   6.562   9.173   9.617 -2.2756 -2.2826 -1.8367
   60MOL0     H 8075   6.505   9.056   9.740  0.2767 -2.1011 -1.1447
   60MOL0     H 8076   6.724   9.270   9.791 -3.2660  4.7366  1.2854
   60MOL0     H 8077   6.663   9.138   9.908 -2.8594 -2.1646 -0.7981
   60MOL0     H 8078   6.432   9.263   9.848 -0.8068  1.6946  1.6673
   60MOL0     H 8079   6.535   9.318   9.967 -2.2663 -3.8966  0.4022
   60MOL0     H 8080   6.725   8.446  10.006  1.4711  0.8793 -0.6267
   60MOL0     H 8081   6.679   8.237  10.071 -0.7622 -2.0148  0.3345
   60MOL0     H 8082   6.608   7.827  10.139 -0.5383 -0.4297 -0.3043
   60MOL0     H 8083   6.537   7.595  10.169  1.1546 -0.4561  3.5488
   60MOL0     H 8084   5.392   6.635   8.944  1.2932  3.1190  0.5622
   60MOL0     H 8085   5.215   6.708   8.779  0.8731  4.0233  0.1806
   60MOL0     H 8086   4.792   6.654   8.549  0.8757 -0.4689 -1.4234
   60MOL0     H 8087   4.649   6.802   8.410 -0.0524  1.4374 -2.2049
   60MOL0     H 8088   4.672   7.192   8.209  0.6707 -2.4863 -0.0345
   60MOL0     H 8089   4.817   7.201   8.311  0.4958 -0.1793  0.2123
   60MOL0     H 8090   4.689   7.383   8.381  1.0058 -0.3570 -1.0427
   60MOL0     H 8091   4.679   7.258   8.510  2.4636  2.0598 -1.0405
   60MOL0     H 8092   4.451   7.178   8.397  0.8473 -0.2028  1.2994
   60MOL0     H 8093   4.448   7.324   8.305 -1.8931  0.0746  0.7702
   60MOL0     H 8094   4.472   7.455   8.521  0.2891  0.1677 -0.3685
   60MOL0     H 8095   4.318   7.369   8.482 -0.5675  1.7010  0.9157
   60MOL0     H 8096   4.466   7.165   8.834 -2.5614  1.3503  2.2053
   60MOL0     H 8097   4.907   7.140   8.495 -1.8941  0.0483  3.2284
   60MOL0     H 8098   5.036   6.983   8.775 -1.1651  0.5211 -0.2046
   60MOL0     H 8099   5.153   6.967   8.647 -0.9833 -3.9149  0.6263
   60MOL0     H 8100   5.059   7.121   8.686  1.8966  0.0884 -2.2048
   61MOL0     O 8101   8.956   7.734   3.942 -1.0931  0.1344  0.8561
   61MOL0     C 8102   8.988   7.842   3.893  0.1023 -0.4217 -0.6464
   61MOL0     O 8103   8.993   7.960   3.955  0.0031 -0.1418  0.1562
   61MOL0     C 8104   8.904   7.983   4.054  0.1605 -0.5285 -0.9631
   61MOL0     C 8105   8.769   8.004   4.022 -0.0125 -0.7127  1.0615
   61MOL0     C 8106   8.677   8.033   4.131 -0.2684 -0.6017  0.5710
   61MOL0     C 8107   8.717   8.033   4.253 -0.5529  0.5410 -0.0062
   61MOL0     O 8108   8.619   8.056   4.354 -0.2531 -0.0280  0.2470
   61MOL0     C 8109   8.628   7.969   4.461  0.4207 -1.2180 -1.1429
   61MOL0     C 8110   8.499   7.925   4.514  0.9759 -0.8939 -0.5657
   61MOL0     C 8111   8.445   8.027   4.623  1.4089 -0.0953  0.4575
   61MOL0     C 8112   8.317   7.978   4.687  0.1145  0.2764  0.2030
   61MOL0     C 8113   8.253   8.080   4.774 -0.1020 -0.1402 -0.4568
   61MOL0     C 8114   8.136   8.025   4.851  0.6959  0.2718  0.4047
   61MOL0     C 8115   8.042   8.135   4.893  0.9578 -0.6661 -0.4190
   61MOL0     C 8116   7.941   8.088   5.004 -0.9240  0.7888  0.9581
   61MOL0     N 8117   7.804   8.136   4.969  0.1682  0.4603  0.7694
   61MOL0     C 8118   7.761   8.263   4.973  0.4815 -0.8941  0.2726
   61MOL0     C 8119   7.634   8.256   4.911 -0.9994 -0.4482  1.4270
   61MOL0     C 8120   7.556   8.384   4.882 -0.0736  0.5667  0.8430
   61MOL0     C 8121   7.418   8.395   4.936 -0.4888  0.9483  0.5725
   61MOL0     C 8122   7.380   8.327   5.063 -0.5031 -0.4803  0.7968
   61MOL0     C 8123   7.256   8.383   5.131  0.1137  0.8398  0.1652
   61MOL0     O 8124   7.282   8.505   5.205  0.1413 -0.2138  0.0793
   61MOL0     C 8125   7.183   8.548   5.279  0.2806  0.0837 -0.2899
   61MOL0     C 8126   7.206   8.665   5.358 -0.3313 -0.2194  0.7806
   61MOL0     C 8127   7.110   8.741   5.415  0.0439 -0.0187  0.4194
   61MOL0     C 8128   6.983   8.696   5.411 -0.6089  0.2648  0.8711
   61MOL0     C 8129   6.872   8.768   5.466 -0.9220 -0.1715  0.6329
   61MOL0     O 8130   6.754   8.705   5.471  0.3701 -0.5459  0.0311
   61MOL0     C 8131   6.641   8.748   5.538 -0.1106  0.1439  0.1957
   61MOL0     C 8132   6.645   8.833   5.648  0.0105 -0.8451 -0.3615
   61MOL0     C 8133   6.528   8.859   5.726  0.1711 -0.6218  0.3422
   61MOL0     C 8134   6.406   8.798   5.692  0.4684 -1.5602 -0.6519
   61MOL0     O 8135   6.300   8.839   5.778 -0.8026 -0.0110 -0.2999
   61MOL0     C 8136   6.165   8.786   5.760 -0.2317  0.9181 -0.1217
   61MOL0     C 8137   6.076   8.828   5.879 -0.1415 -0.1303 -0.0235
   61MOL0     C 8138   6.028   8.971   5.858 -0.8141 -0.0579  0.8889
   61MOL0     C 8139   5.879   9.008   5.892  0.0535  0.5454 -0.0605
   61MOL0     C 8140   5.847   9.148   5.827  0.1548 -0.5868  0.6211
   61MOL0     C 8141   5.705   9.172   5.857 -0.3425  0.1460 -0.5697
   61MOL0     C 8142   5.647   9.292   5.778 -0.0815 -0.7179 -0.3271
   61MOL0     C 8143   5.513   9.344   5.838  0.6936 -0.1649 -0.9124
   61MOL0    Cl 8144   5.474   9.500   5.742  0.3191 -0.3171  0.0949
   61MOL0     C 8145   6.402   8.726   5.576 -0.1924  0.1186 -0.0911
   61MOL0     C 8146   6.518   8.690   5.506  0.7511 -0.4260  0.8394
   61MOL0     O 8147   6.892   8.883   5.495 -0.2452 -0.2735  0.1793
   61MOL0     C 8148   6.950   8.566   5.361 -0.2514  0.2363 -0.6823
   61MOL0     C 8149   7.051   8.498   5.288  0.3793  0.3434  0.7646
   61MOL0     N 8150   7.600   8.128   4.880 -0.5574  0.3538  0.5989
   61MOL0     N 8151   7.708   8.061   4.910 -0.2240 -0.7718 -0.3623
   61MOL0     C 8152   8.848   8.015   4.285 -1.3114  0.5243  0.2574
   61MOL0     C 8153   8.942   7.999   4.187 -0.5262  0.5980 -0.2091
   61MOL0     C 8154   8.996   7.850   3.744 -0.1751 -0.1821 -0.5159
   61MOL0     C 8155   8.924   7.755   3.669 -1.3598  0.5393 -0.5873
   61MOL0     C 8156   8.954   7.740   3.533 -0.1465  0.6491  0.5522
   61MOL0     C 8157   9.034   7.832   3.466 -0.1918  0.1568 -0.1623
   61MOL0     O 8158   9.037   7.814   3.329  0.6284 -0.0937  0.3621
   61MOL0     C 8159   9.108   7.907   3.248  0.2060 -1.2693 -0.9416
   61MOL0     C 8160   9.076   7.844   3.119  0.0540  0.3943  0.1103
   61MOL0     C 8161   9.165   7.918   3.023 -0.2166  1.2056 -0.2264
   61MOL0     C 8162   9.123   7.899   2.875 -0.7824  0.1552 -0.3028
   61MOL0     C 8163   8.994   7.949   2.847 -0.8029  0.1470 -0.1964
   61MOL0     C 8164   8.892   8.005   2.811  0.0204 -0.2056 -0.0177
   61MOL0     C 8165   9.112   7.926   3.546  0.0871  0.2947  0.4534
   61MOL0     C 8166   9.099   7.933   3.684  0.5064 -1.1267 -0.2365
   61MOL0     C 8167   9.210   8.005   3.762  1.5562 -0.4254 -0.2806
   61MOL0     H 8168   8.741   8.015   3.917  1.7241 -0.7018  0.5690
   61MOL0     H 8169   8.578   8.074   4.115  0.2841 -0.3532 -3.4447
   61MOL0     H 8170   8.685   7.879   4.436 -0.3964 -1.6140 -1.6453
   61MOL0     H 8171   8.680   8.026   4.538 -4.1149  0.3703  1.1094
   61MOL0     H 8172   8.511   7.831   4.570  0.8674 -1.8739 -2.1376
   61MOL0     H 8173   8.431   7.919   4.429 -0.9109  0.4012  0.7593
   61MOL0     H 8174   8.434   8.121   4.568  0.6344 -1.6354 -2.2311
   61MOL0     H 8175   8.528   8.055   4.688  0.9065  0.7191  0.7627
   61MOL0     H 8176   8.241   7.941   4.618  0.1786 -1.0672  0.8193
   61MOL0     H 8177   8.343   7.886   4.739 -0.3760 -0.0324 -0.0841
   61MOL0     H 8178   8.330   8.131   4.833 -2.9884 -0.4555  4.0523
   61MOL0     H 8179   8.212   8.155   4.706  1.0911 -0.4711 -1.5830
   61MOL0     H 8180   8.073   7.953   4.798 -0.4174  0.5649  1.2780
   61MOL0     H 8181   8.180   7.962   4.928 -0.6113  0.5522  1.4251
   61MOL0     H 8182   7.991   8.181   4.808 -0.6810  1.9813  1.8366
   61MOL0     H 8183   8.100   8.214   4.941 -0.8808 -1.3686  3.2884
   61MOL0     H 8184   7.954   7.982   5.026  3.3859  1.3627  2.1852
   61MOL0     H 8185   7.982   8.141   5.091  0.8870  2.5960 -0.9023
   61MOL0     H 8186   7.797   8.352   5.022  0.5873  0.1590 -1.6195
   61MOL0     H 8187   7.607   8.475   4.916  1.0029  0.6391 -0.8587
   61MOL0     H 8188   7.544   8.410   4.777 -6.2206 -1.8315  0.5640
   61MOL0     H 8189   7.391   8.501   4.940 -3.0927  0.3510  4.2960
   61MOL0     H 8190   7.362   8.340   4.860 -1.9260  0.0972  2.1554
   61MOL0     H 8191   7.461   8.348   5.134 -0.1309 -0.0274  0.2575
   61MOL0     H 8192   7.374   8.219   5.045  4.8504 -0.7877 -1.1858
   61MOL0     H 8193   7.220   8.312   5.206  2.9058  0.1781  0.9937
   61MOL0     H 8194   7.177   8.387   5.055 -2.3731  0.5510  2.5511
   61MOL0     H 8195   7.304   8.712   5.362  0.2586 -1.2602 -0.5548
   61MOL0     H 8196   7.128   8.843   5.448 -0.3106  0.7401 -1.5659
   61MOL0     H 8197   6.737   8.884   5.674  1.0469  1.0488 -6.2614
   61MOL0     H 8198   6.530   8.933   5.805  0.1235  0.0077 -0.2338
   61MOL0     H 8199   6.127   8.807   5.660  0.6366 -1.8835 -1.1149
   61MOL0     H 8200   6.168   8.677   5.753  1.5641  0.7959  1.4349
   61MOL0     H 8201   5.987   8.768   5.899  0.8359 -2.5644 -2.3824
   61MOL0     H 8202   6.126   8.824   5.976 -1.0847  2.6216  0.6787
   61MOL0     H 8203   6.098   9.028   5.919  1.6553 -1.2312 -0.7048
   61MOL0     H 8204   6.038   8.985   5.750 -1.3630 -3.1843  0.3218
   61MOL0     H 8205   5.875   9.010   6.001 -1.6865  0.7431 -0.1129
   61MOL0     H 8206   5.809   8.936   5.850 -0.9785 -0.0093  2.4810
   61MOL0     H 8207   5.852   9.133   5.719  1.0662 -2.3855  0.8609
   61MOL0     H 8208   5.920   9.220   5.865  0.1199  0.0945 -0.5829
   61MOL0     H 8209   5.637   9.093   5.823 -3.0306  2.3714 -0.7891
   61MOL0     H 8210   5.700   9.180   5.966 -3.4364  0.9597 -0.6530
   61MOL0     H 8211   5.630   9.264   5.673  2.9063  3.0480 -2.0685
   61MOL0     H 8212   5.706   9.384   5.784 -0.7543 -0.2861 -0.1702
   61MOL0     H 8213   5.429   9.274   5.824 -1.6557  2.3761 -0.3938
   61MOL0     H 8214   5.526   9.364   5.944  1.4293  0.7729 -1.1753
   61MOL0     H 8215   6.310   8.669   5.566 -1.5997  1.7703  2.2483
   61MOL0     H 8216   6.508   8.622   5.422 -0.8198  3.3259 -2.2905
   61MOL0     H 8217   6.850   8.526   5.346  0.8214 -1.7334 -3.4290
   61MOL0     H 8218   7.004   8.415   5.236  1.6295  0.1070 -0.0353
   61MOL0     H 8219   8.864   8.013   4.393 -0.4540  0.0841  0.1299
   61MOL0     H 8220   9.046   7.983   4.212 -0.9653 -0.5015  1.0133
   61MOL0     H 8221   8.863   7.683   3.722 -2.1256  1.8377  0.3397
   61MOL0     H 8222   8.905   7.658   3.481  2.1066 -0.0984 -0.4978
   61MOL0     H 8223   9.215   7.904   3.271 -0.0322  0.4024  0.6397
   61MOL0     H 8224   9.077   8.012   3.241 -0.7128 -1.6118 -2.8705
   61MOL0     H 8225   8.976   7.876   3.091 -1.2623 -3.4193 -0.0429
   61MOL0     H 8226   9.082   7.735   3.113 -0.4480  0.1561  2.7136
   61MOL0     H 8227   9.265   7.875   3.030 -1.9276 -2.9408  2.2836
   61MOL0     H 8228   9.168   8.026   3.043 -1.6486  1.0548  0.9138
   61MOL0     H 8229   9.200   7.939   2.808 -0.9099  1.0956  0.0956
   61MOL0     H 8230   9.117   7.795   2.843 -0.9007  0.9433 -3.1204
   61MOL0     H 8231   8.808   8.061   2.776  0.1137  1.3844  2.0826
   61MOL0     H 8232   9.185   7.989   3.496 -0.0191 -0.3101 -0.4817
   61MOL0     H 8233   9.158   8.056   3.844  0.2103 -1.3222 -0.5438
   61MOL0     H 8234   9.278   7.932   3.807 -1.1061 -1.2890  2.7253
   61MOL0     H 8235   9.256   8.089   3.709  2.2298 -0.3786  0.3512
   62MOL0     O 8236   6.535   2.244   4.926  0.3550 -0.1117 -0.2784
   62MOL0     C 8237   6.477   2.137   4.905 -0.8516 -0.4513  0.9575
   62MOL0     O 8238   6.504   2.013   4.966 -0.5202  0.6470 -0.0204
   62MOL0     C 8239   6.593   1.989   5.060 -1.0083  0.1910 -0.9831
   62MOL0     C 8240   6.671   2.084   5.126  0.3878  0.4563  0.0245
   62MOL0     C 8241   6.755   2.053   5.228 -0.0100 -0.8444 -0.7458
   62MOL0     C 8242   6.762   1.918   5.271  0.2042 -1.0534 -0.3637
   62MOL0     O 8243   6.843   1.896   5.378 -0.9215 -0.4948  0.3485
   62MOL0     C 8244   6.880   1.767   5.424 -0.1103  1.3600 -0.0595
   62MOL0     C 8245   6.983   1.703   5.331  0.5010  0.0604 -0.4037
   62MOL0     C 8246   7.022   1.566   5.382 -0.7154 -0.7973 -0.1705
   62MOL0     C 8247   7.118   1.506   5.279 -0.3101 -1.5992  0.8880
   62MOL0     C 8248   7.186   1.384   5.324 -0.7343 -0.1151 -1.1817
   62MOL0     C 8249   7.221   1.296   5.204  0.8309  0.9120 -0.4006
   62MOL0     C 8250   7.261   1.156   5.260  0.3653 -0.7017 -0.5486
   62MOL0     C 8251   7.288   1.047   5.152  0.8093 -0.7066 -0.0937
   62MOL0     N 8252   7.159   0.979   5.118 -0.0215 -0.1073 -0.5067
   62MOL0     C 8253   7.056   1.033   5.049 -0.4622 -0.2822  0.9593
   62MOL0     C 8254   6.966   0.939   5.030 -0.0168  1.4199  0.2570
   62MOL0     C 8255   6.836   0.950   4.960  0.5608 -0.0658  0.3293
   62MOL0     C 8256   6.723   0.865   5.001  0.5524 -0.3606 -0.1656
   62MOL0     C 8257   6.717   0.732   4.915 -0.4036  0.5187  0.4649
   62MOL0     C 8258   6.637   0.622   4.994  0.1114  0.4717 -0.4676
   62MOL0     O 8259   6.720   0.524   5.054 -0.1579  0.1529 -0.4330
   62MOL0     C 8260   6.657   0.444   5.148 -0.3041  0.1016 -0.6689
   62MOL0     C 8261   6.522   0.428   5.174 -0.0699  0.3057  0.1396
   62MOL0     C 8262   6.470   0.348   5.274  0.3932 -0.1113  0.5233
   62MOL0     C 8263   6.558   0.300   5.369 -1.1244 -0.4371 -0.1334
   62MOL0     C 8264   6.507   0.229   5.492 -0.3052  0.4165  0.7289
   62MOL0     O 8265   6.375   0.195   5.486  0.1258  0.5795  0.1854
   62MOL0     C 8266   6.311   0.186   5.605 -0.2662 -0.3134  0.9963
   62MOL0     C 8267   6.217   0.086   5.628  0.0276 -0.3606  0.5681
   62MOL0     C 8268   6.137   0.083   5.743 -0.7321 -0.5434  0.2488
   62MOL0     C 8269   6.158   0.172   5.844 -0.0602 -0.1726  0.3002
   62MOL0     O 8270   6.093   0.159   5.963  0.3487 -0.2664 -0.1583
   62MOL0     C 8271   6.177   0.154   6.079  0.0573 -0.4873 -0.0143
   62MOL0     C 8272   6.097   0.097   6.192  0.0546  0.2061  0.4278
   62MOL0     C 8273   6.142   0.162   6.323  0.3094  0.9723  0.5570
   62MOL0     C 8274   6.054   0.105   6.433 -0.1945  0.5343  1.0000
   62MOL0     C 8275   6.133   0.112   6.556 -0.1137  0.4382  0.3991
   62MOL0     C 8276   6.104   0.240   6.627 -0.0511 -0.4527 -0.4180
   62MOL0     C 8277   6.172   0.367   6.581  0.6958  0.1312  0.8409
   62MOL0     C 8278   6.180   0.480   6.681 -0.6075 -0.1755 -0.5335
   62MOL0    Cl 8279   6.314   0.432   6.800 -0.7938  0.2319  0.2736
   62MOL0     C 8280   6.234   0.282   5.813 -0.6136  0.4387  0.9529
   62MOL0     C 8281   6.316   0.293   5.698 -0.8150  0.2759  0.3014
   62MOL0     O 8282   6.592   0.184   5.572  0.4656 -0.0255  0.0097
   62MOL0     C 8283   6.696   0.315   5.354 -0.3521 -0.1463  0.6732
   62MOL0     C 8284   6.740   0.384   5.237  0.5561 -0.2070  0.0960
   62MOL0     N 8285   7.012   0.817   5.086 -0.2994  0.1629 -0.1626
   62MOL0     N 8286   7.119   0.849   5.151  0.1977  0.2158 -0.6867
   62MOL0     C 8287   6.677   1.820   5.211 -0.5890 -1.2313 -0.6402
   62MOL0     C 8288   6.602   1.855   5.101  0.0925 -0.7956 -0.4932
   62MOL0     C 8289   6.357   2.140   4.816 -1.5013  0.5619 -0.0130
   62MOL0     C 8290   6.309   2.268   4.785 -0.7491 -0.0163 -0.7148
   62MOL0     C 8291   6.187   2.285   4.715  0.9918  0.1547 -0.6471
   62MOL0     C 8292   6.114   2.173   4.677 -0.3446  0.9040 -0.7269
   62MOL0     O 8293   5.990   2.160   4.614 -0.8133  0.4354 -0.1148
   62MOL0     C 8294   5.914   2.272   4.576 -1.5870 -0.3132 -0.5500
   62MOL0     C 8295   5.772   2.225   4.582  0.5157  0.0454  0.8476
   62MOL0     C 8296   5.722   2.175   4.719  0.1873 -0.5420  0.6863
   62MOL0     C 8297   5.721   2.291   4.825 -1.4163 -0.3059 -0.0043
   62MOL0     C 8298   5.640   2.397   4.782 -0.2499  0.2744  0.5512
   62MOL0     C 8299   5.557   2.481   4.744  0.4730 -0.2956 -0.3710
   62MOL0     C 8300   6.170   2.046   4.702  0.1598 -0.8190  0.0278
   62MOL0     C 8301   6.287   2.023   4.773 -0.3685  0.6086  0.4881
   62MOL0     C 8302   6.325   1.878   4.799 -0.4913  0.1370 -0.1743
   62MOL0     H 8303   6.653   2.189   5.102 -3.1016 -0.5175 -2.4592
   62MOL0     H 8304   6.803   2.126   5.293 -1.5929 -1.0042  0.7008
   62MOL0     H 8305   6.918   1.783   5.525 -1.3607  1.6978  0.3695
   62MOL0     H 8306   6.791   1.704   5.431 -0.0057  1.3395  1.2846
   62MOL0     H 8307   7.073   1.764   5.346  0.9785 -0.1182 -2.3199
   62MOL0     H 8308   6.954   1.708   5.226 -3.0874  0.3970  0.4845
   62MOL0     H 8309   6.942   1.496   5.407  1.2115 -2.5365  1.5453
   62MOL0     H 8310   7.091   1.572   5.467 -0.2083  0.4566 -0.6545
   62MOL0     H 8311   7.062   1.489   5.187 -0.8324 -2.0933  1.2948
   62MOL0     H 8312   7.202   1.576   5.273 -1.8100  0.2051 -0.1116
   62MOL0     H 8313   7.281   1.406   5.373 -2.1731  0.6516  1.5062
   62MOL0     H 8314   7.118   1.325   5.387 -0.9803  0.2971 -1.0496
   62MOL0     H 8315   7.139   1.270   5.136  1.7487 -0.0495 -1.1842
   62MOL0     H 8316   7.298   1.330   5.134  2.0803 -1.7710 -0.4669
   62MOL0     H 8317   7.193   1.112   5.333  0.4906 -4.6328 -2.5700
   62MOL0     H 8318   7.354   1.171   5.316  1.0761 -0.1870 -1.8141
   62MOL0     H 8319   7.328   1.101   5.065  2.0926 -3.2407 -1.1816
   62MOL0     H 8320   7.366   0.986   5.198 -0.1402  0.8915  4.0274
   62MOL0     H 8321   7.049   1.136   5.015  1.4502  0.1588  1.7748
   62MOL0     H 8322   6.806   1.055   4.958 -0.1185 -0.2563 -1.7058
   62MOL0     H 8323   6.850   0.927   4.854 -2.9623 -2.1854  0.1673
   62MOL0     H 8324   6.735   0.842   5.107 -1.5628  0.6682  0.3644
   62MOL0     H 8325   6.631   0.925   4.991  0.1783 -0.7284  0.9101
   62MOL0     H 8326   6.817   0.690   4.901  0.6233  2.1226  2.3812
   62MOL0     H 8327   6.676   0.745   4.815  0.5278  1.9132  0.2448
   62MOL0     H 8328   6.570   0.566   4.927  1.1943 -2.9185  1.0448
   62MOL0     H 8329   6.571   0.671   5.065  1.0206  1.1987 -0.1038
   62MOL0     H 8330   6.449   0.460   5.101  0.6687  0.4296 -0.5575
   62MOL0     H 8331   6.363   0.333   5.284  0.3225 -2.4119 -2.2784
   62MOL0     H 8332   6.184   0.026   5.544 -0.2246  0.3953  0.1126
   62MOL0     H 8333   6.068  -0.000   5.753 -0.5594 -0.5520  1.5625
   62MOL0     H 8334   6.261   0.086   6.062 -1.4663 -2.3953 -0.2010
   62MOL0     H 8335   6.206   0.259   6.092 -0.2130 -0.4431  0.2383
   62MOL0     H 8336   5.993   0.129   6.178  0.8622  1.8101 -3.0353
   62MOL0     H 8337   6.123  -0.010   6.192  1.3546  0.4929  1.6637
   62MOL0     H 8338   6.250   0.155   6.340  0.3184 -1.4051 -0.0077
   62MOL0     H 8339   6.123   0.269   6.310 -2.4381  0.7142  1.6893
   62MOL0     H 8340   6.030  -0.001   6.420 -4.3285  0.8245  4.0722
   62MOL0     H 8341   5.963   0.166   6.438 -0.1401  0.5218  3.5362
   62MOL0     H 8342   6.240   0.110   6.532 -0.0547  1.8499  0.4591
   62MOL0     H 8343   6.120   0.028   6.624  2.4678  0.2508  0.7606
   62MOL0     H 8344   5.997   0.261   6.627  0.0017 -0.0702 -2.3018
   62MOL0     H 8345   6.135   0.216   6.730  0.8077 -2.6973 -1.1368
   62MOL0     H 8346   6.103   0.414   6.510  2.9442  2.3475  0.0238
   62MOL0     H 8347   6.266   0.351   6.527  2.3851  3.3121  2.5579
   62MOL0     H 8348   6.207   0.569   6.623 -2.0543 -1.3444 -3.1786
   62MOL0     H 8349   6.084   0.496   6.730 -1.0522 -2.7298 -0.4373
   62MOL0     H 8350   6.238   0.359   5.890 -1.6204 -0.6707  2.1720
   62MOL0     H 8351   6.380   0.380   5.690 -3.3420  2.1379 -1.1914
   62MOL0     H 8352   6.768   0.295   5.432  0.4335  0.4306  0.1220
   62MOL0     H 8353   6.848   0.394   5.239  0.5772  1.4091 -2.7945
   62MOL0     H 8354   6.669   1.721   5.253  2.0505 -1.3068 -0.1494
   62MOL0     H 8355   6.529   1.791   5.052 -1.8835  0.1236  1.1054
   62MOL0     H 8356   6.368   2.358   4.801 -0.0470 -0.5197 -0.3929
   62MOL0     H 8357   6.147   2.385   4.703  3.1791  1.0241 -1.2131
   62MOL0     H 8358   5.936   2.307   4.474  1.0427  1.6069  0.5570
   62MOL0     H 8359   5.940   2.362   4.631  1.0804 -0.9434 -0.6290
   62MOL0     H 8360   5.744   2.146   4.512 -2.3900  2.3332 -0.8049
   62MOL0     H 8361   5.712   2.311   4.552  0.3687 -0.0371  0.9043
   62MOL0     H 8362   5.780   2.088   4.751  2.2634  0.5978  0.1976
   62MOL0     H 8363   5.620   2.140   4.699  1.1022 -2.1426 -1.6389
   62MOL0     H 8364   5.682   2.241   4.915 -5.4248 -0.3024 -1.5533
   62MOL0     H 8365   5.824   2.328   4.831  0.1933 -4.3022 -0.0478
   62MOL0     H 8366   5.501   2.572   4.741 -1.2586 -0.8838  4.8750
   62MOL0     H 8367   6.109   1.963   4.669 -2.5105  1.2209 -0.6041
   62MOL0     H 8368   6.325   1.848   4.904  2.6459 -1.4679 -0.5246
   62MOL0     H 8369   6.244   1.818   4.756  0.3378  0.2889 -2.0460
   62MOL0     H 8370   6.418   1.851   4.749 -0.0885  1.2831 -0.0851
   63MOL0     O 8371   9.844  10.207   0.363 -0.3363 -0.1368  0.0423
   63MOL0     C 8372   9.765  10.213   0.268  0.1420 -0.6926 -0.1344
   63MOL0     O 8373   9.697  10.328   0.242 -0.0265 -0.1574  0.8332
   63MOL0     C 8374   9.620  10.335   0.122  0.1665 -0.1205 -0.1276
   63MOL0     C 8375   9.518  10.244   0.110 -0.2661  0.1107 -0.1134
   63MOL0     C 8376   9.432  10.250  -0.006  0.0993 -0.3557  0.8081
   63MOL0     C 8377   9.448  10.355  -0.095  0.0449  0.4356  1.0697
   63MOL0     O 8378   9.361  10.373  -0.197 -0.6106  0.0198  0.1059
   63MOL0     C 8379   9.409  10.449  -0.311 -0.5108 -0.8069  0.0369
   63MOL0     C 8380   9.309  10.452  -0.427 -0.0964 -0.1678 -0.5897
   63MOL0     C 8381   9.250  10.307  -0.453  0.3767  0.3190  0.3193
   63MOL0     C 8382   9.156  10.289  -0.578 -0.4347  0.3909  0.6237
   63MOL0     C 8383   9.105  10.141  -0.611 -0.0100 -0.8118  0.8492
   63MOL0     C 8384   9.225  10.064  -0.658  0.1584  0.9563  0.4666
   63MOL0     C 8385   9.192   9.919  -0.685  0.5933 -0.4372 -0.2597
   63MOL0     C 8386   9.310   9.830  -0.709  0.5686 -0.7714  0.2959
   63MOL0     N 8387   9.265   9.693  -0.703  0.1056  0.4843 -0.3561
   63MOL0     C 8388   9.311   9.592  -0.622  0.0087  0.5020  0.4007
   63MOL0     C 8389   9.243   9.484  -0.664  0.3869  0.1691 -0.9027
   63MOL0     C 8390   9.234   9.362  -0.578  0.4914 -0.9423  0.8679
   63MOL0     C 8391   9.196   9.389  -0.424  0.6038  0.7364 -0.2013
   63MOL0     C 8392   9.198   9.253  -0.348 -0.5063 -0.1332 -0.1666
   63MOL0     C 8393   9.140   9.287  -0.210 -1.1316  0.4848 -0.7209
   63MOL0     O 8394   8.996   9.298  -0.199 -0.0060 -0.5538  0.7981
   63MOL0     C 8395   8.936   9.367  -0.087  0.5187  1.3692 -0.6782
   63MOL0     C 8396   9.014   9.423   0.018  0.5581 -0.7734  1.2053
   63MOL0     C 8397   8.948   9.493   0.116  0.0934  0.3043 -0.8373
   63MOL0     C 8398   8.814   9.524   0.112 -0.4391  0.3059 -0.0429
   63MOL0     C 8399   8.733   9.606   0.212 -0.9350  0.8633  0.4263
   63MOL0     O 8400   8.800   9.649   0.331  0.0378  1.0066 -0.4179
   63MOL0     C 8401   8.729   9.701   0.431  0.0803  0.1678 -0.3861
   63MOL0     C 8402   8.723   9.840   0.447  0.0537 -0.1971 -0.3472
   63MOL0     C 8403   8.661   9.902   0.551  0.0169 -0.3351 -0.1997
   63MOL0     C 8404   8.594   9.820   0.642  0.4762 -0.8350 -0.5740
   63MOL0     O 8405   8.516   9.888   0.733  0.2902 -0.2987 -0.0794
   63MOL0     C 8406   8.519   9.845   0.865  0.6080 -0.3939  0.1077
   63MOL0     C 8407   8.440   9.948   0.956  0.8884 -0.4439 -0.0452
   63MOL0     C 8408   8.399   9.882   1.091  0.3637 -1.1434 -0.3387
   63MOL0     C 8409   8.333   9.978   1.195 -0.0890  0.1169  0.4939
   63MOL0     C 8410   8.303   9.903   1.326 -0.0227  0.2403  0.2575
   63MOL0     C 8411   8.247   9.986   1.445 -0.1949 -0.1155  0.7464
   63MOL0     C 8412   8.248   9.896   1.571 -0.2319  0.0603 -0.4258
   63MOL0     C 8413   8.215   9.978   1.693 -0.0235  0.3573  0.0022
   63MOL0    Cl 8414   8.234   9.859   1.840 -0.0485 -0.1936  0.1935
   63MOL0     C 8415   8.591   9.678   0.627 -0.1060 -0.9546  0.1174
   63MOL0     C 8416   8.664   9.617   0.525 -0.6059  0.0493  0.1380
   63MOL0     O 8417   8.611   9.618   0.194  0.9894  0.0537 -0.9037
   63MOL0     C 8418   8.738   9.464   0.011  0.8914  0.1547  0.9389
   63MOL0     C 8419   8.800   9.380  -0.086 -0.3086  0.8553 -0.9703
   63MOL0     N 8420   9.169   9.515  -0.773 -0.0105  0.0053  0.0801
   63MOL0     N 8421   9.190   9.641  -0.800  0.9476 -1.5109 -0.2410
   63MOL0     C 8422   9.563  10.430  -0.088 -0.9502  0.4616  0.3485
   63MOL0     C 8423   9.653  10.417   0.015  0.6124  0.2748 -0.2099
   63MOL0     C 8424   9.764  10.088   0.187  0.8573  0.1355 -0.1925
   63MOL0     C 8425   9.680   9.981   0.225 -0.1574 -0.2520 -0.0530
   63MOL0     C 8426   9.695   9.865   0.163 -0.1839  0.8173  0.1759
   63MOL0     C 8427   9.793   9.846   0.059  0.8442  0.0515  0.0648
   63MOL0     O 8428   9.826   9.721   0.006  0.7044  0.3112  0.1267
   63MOL0     C 8429   9.798   9.606   0.088 -0.3445  0.5029  1.1168
   63MOL0     C 8430   9.870   9.482   0.025  1.1255  0.1804 -0.6700
   63MOL0     C 8431   9.999   9.459   0.106  1.2538 -0.0155 -0.0702
   63MOL0     C 8432  10.059   9.324   0.086 -0.3712  0.4577 -1.5406
   63MOL0     C 8433  10.158   9.295   0.193  1.1185 -0.3445  0.3569
   63MOL0     C 8434  10.246   9.249   0.263 -0.5007  0.1235  1.1199
   63MOL0     C 8435   9.858   9.954   0.010 -0.1684 -0.1145 -0.2859
   63MOL0     C 8436   9.849  10.080   0.074 -1.4925 -0.1132 -0.3687
   63MOL0     C 8437   9.935  10.192   0.032 -1.0040 -0.6778  0.0692
   63MOL0     H 8438   9.500  10.168   0.185  1.2172  1.0881  1.2886
   63MOL0     H 8439   9.349  10.181   0.004 -1.6118  1.1131 -2.0242
   63MOL0     H 8440   9.422  10.554  -0.281 -3.3857 -0.8881  1.9880
   63MOL0     H 8441   9.496  10.394  -0.348 -1.7188 -2.2053 -0.8277
   63MOL0     H 8442   9.343  10.500  -0.519  0.7360  1.2593  0.4298
   63MOL0     H 8443   9.226  10.511  -0.386 -0.8963 -1.0707 -0.8464
   63MOL0     H 8444   9.196  10.276  -0.363  2.4369  1.5225  2.0319
   63MOL0     H 8445   9.336  10.241  -0.467 -0.7019 -0.9758 -0.5780
   63MOL0     H 8446   9.067  10.351  -0.565 -0.5375  1.1218 -2.7315
   63MOL0     H 8447   9.196  10.338  -0.667 -1.0674  4.2217  2.2456
   63MOL0     H 8448   9.068  10.102  -0.516 -0.9367 -2.7544 -0.2491
   63MOL0     H 8449   9.028  10.132  -0.687  0.7959 -2.6138  0.1893
   63MOL0     H 8450   9.248  10.112  -0.754  2.2372 -1.2011 -0.2088
   63MOL0     H 8451   9.317  10.074  -0.599  1.4755  2.7010 -1.7041
   63MOL0     H 8452   9.114   9.914  -0.761 -2.6003  1.2385  2.6154
   63MOL0     H 8453   9.140   9.893  -0.592  0.9755  3.2081  1.1407
   63MOL0     H 8454   9.370   9.853  -0.797  3.2596  2.1095  2.6651
   63MOL0     H 8455   9.381   9.849  -0.628  1.7146 -2.0159 -0.3914
   63MOL0     H 8456   9.364   9.617  -0.530 -1.1842  2.6926  0.5740
   63MOL0     H 8457   9.166   9.287  -0.620 -3.6801  2.3136  1.0965
   63MOL0     H 8458   9.334   9.319  -0.569 -0.5615 -3.1007  4.7968
   63MOL0     H 8459   9.264   9.462  -0.379 -1.0026  4.1200 -2.7914
   63MOL0     H 8460   9.100   9.441  -0.429  0.8563  1.2544  0.2238
   63MOL0     H 8461   9.304   9.225  -0.347 -0.3171  0.5923  0.7543
   63MOL0     H 8462   9.158   9.171  -0.409 -1.1021  0.7885 -1.0372
   63MOL0     H 8463   9.193   9.377  -0.176 -3.1767  0.3447  3.6354
   63MOL0     H 8464   9.175   9.215  -0.135  1.3879  1.3416 -0.9796
   63MOL0     H 8465   9.122   9.431   0.014  0.4568  2.3831  2.4039
   63MOL0     H 8466   9.017   9.536   0.188  1.9551 -0.8499 -1.8496
   63MOL0     H 8467   8.775   9.905   0.377 -1.9292 -0.5782 -2.3080
   63MOL0     H 8468   8.669  10.010   0.554 -0.4871 -0.2647 -1.0184
   63MOL0     H 8469   8.488   9.741   0.860  0.6233 -0.3319 -2.8590
   63MOL0     H 8470   8.622   9.831   0.899  0.6831 -0.0866  0.0098
   63MOL0     H 8471   8.509  10.032   0.968 -0.0457  0.6702 -1.9790
   63MOL0     H 8472   8.363   9.985   0.887  1.0928  1.2573  0.6123
   63MOL0     H 8473   8.345   9.788   1.082 -0.9884 -0.2549 -2.2923
   63MOL0     H 8474   8.498   9.850   1.124  1.0189 -1.6715 -2.6782
   63MOL0     H 8475   8.247  10.019   1.140  2.3940  2.4939 -1.9791
   63MOL0     H 8476   8.406  10.059   1.205 -0.9241  0.9137  0.2298
   63MOL0     H 8477   8.399   9.879   1.372 -0.2293 -1.1940 -0.0336
   63MOL0     H 8478   8.253   9.808   1.308 -0.6905  0.5618  0.3709
   63MOL0     H 8479   8.310  10.075   1.455  0.2241 -0.3397  0.1964
   63MOL0     H 8480   8.150  10.030   1.423  0.4645  1.0499  0.0741
   63MOL0     H 8481   8.340   9.839   1.588 -0.2440 -0.0315 -0.6548
   63MOL0     H 8482   8.168   9.822   1.564  1.5113 -2.0355  0.7544
   63MOL0     H 8483   8.296  10.052   1.698  2.7890 -2.5840  1.6899
   63MOL0     H 8484   8.118  10.027   1.683  0.3505  0.7910 -1.8798
   63MOL0     H 8485   8.539   9.619   0.702 -0.7644 -2.1213 -1.1924
   63MOL0     H 8486   8.653   9.512   0.502  1.4589  0.0871 -1.3280
   63MOL0     H 8487   8.634   9.491  -0.000  1.0719  0.2152 -0.8314
   63MOL0     H 8488   8.747   9.325  -0.163  0.6180 -1.3284 -0.1282
   63MOL0     H 8489   9.590  10.512  -0.153 -1.9455 -0.6707 -1.5518
   63MOL0     H 8490   9.748  10.463   0.039  1.2241 -0.6476 -0.7828
   63MOL0     H 8491   9.608   9.989   0.306  0.9076 -2.1175  1.1556
   63MOL0     H 8492   9.626   9.785   0.189  0.3097 -0.1084 -1.2255
   63MOL0     H 8493   9.690   9.584   0.086 -0.1784 -0.6988 -2.8484
   63MOL0     H 8494   9.832   9.625   0.190 -1.2199 -0.5056  1.6200
   63MOL0     H 8495   9.890   9.502  -0.081  0.6168 -0.1244 -0.8269
   63MOL0     H 8496   9.804   9.395   0.024  0.7357  0.1654  4.0758
   63MOL0     H 8497   9.963   9.467   0.209 -2.8617  0.0863 -1.3251
   63MOL0     H 8498  10.078   9.533   0.092 -0.3452  1.8332  0.2316
   63MOL0     H 8499   9.980   9.249   0.076  0.1851 -0.2538 -0.6663
   63MOL0     H 8500  10.119   9.331  -0.005  2.6001  1.9622  0.4042
   63MOL0     H 8501  10.328   9.205   0.316  0.0558  1.0282  1.0395
   63MOL0     H 8502   9.919   9.931  -0.077  1.3538  2.0211  0.1375
   63MOL0     H 8503  10.014  10.212   0.105 -0.1198 -0.4551 -0.9294
   63MOL0     H 8504   9.967  10.178  -0.072 -4.7885 -0.6780 -1.2538
   63MOL0     H 8505   9.881  10.287   0.038  0.0498 -0.1685  3.0608
   64MOL0     O 8506   5.423   4.385   0.609 -0.5451  0.1647  0.3912
   64MOL0     C 8507   5.441   4.276   0.655 -0.2801  0.8646  0.2815
   64MOL0     O 8508   5.560   4.206   0.643  0.8213  0.1618  0.1534
   64MOL0     C 8509   5.664   4.280   0.581  0.0349 -0.2765 -0.4153
   64MOL0     C 8510   5.755   4.341   0.664  0.4427 -0.2484  0.0130
   64MOL0     C 8511   5.850   4.431   0.602  0.4494 -0.2354 -0.9315
   64MOL0     C 8512   5.849   4.446   0.467 -0.2231 -0.0973 -0.6099
   64MOL0     O 8513   5.960   4.522   0.430 -1.0742  0.8750 -0.2047
   64MOL0     C 8514   5.956   4.614   0.332 -0.4014 -0.2029  0.9638
   64MOL0     C 8515   6.069   4.707   0.337 -0.0377 -0.0403 -0.1224
   64MOL0     C 8516   6.030   4.832   0.258  0.2908 -0.3750 -0.4148
   64MOL0     C 8517   6.145   4.947   0.272 -0.4715  0.8378  0.9993
   64MOL0     C 8518   6.098   5.071   0.184  0.1439  0.3655  0.4702
   64MOL0     C 8519   6.068   5.044   0.031 -0.7402 -0.4373 -0.4816
   64MOL0     C 8520   5.917   5.025  -0.001  0.5806  0.2530 -0.1774
   64MOL0     C 8521   5.898   5.027  -0.150 -0.3621  0.2444 -0.4125
   64MOL0     N 8522   5.882   5.157  -0.200  0.1875 -0.4178  0.3052
   64MOL0     C 8523   5.762   5.217  -0.243  0.5510  0.1666 -0.3919
   64MOL0     C 8524   5.784   5.346  -0.264 -0.2414  0.3726 -0.6115
   64MOL0     C 8525   5.683   5.441  -0.324 -0.2688  0.0791 -0.1679
   64MOL0     C 8526   5.635   5.535  -0.211 -1.5227  0.3936  0.4138
   64MOL0     C 8527   5.505   5.603  -0.227 -0.7205 -0.2235  0.1539
   64MOL0     C 8528   5.488   5.706  -0.347  1.0626  0.0367 -0.4921
   64MOL0     O 8529   5.349   5.743  -0.349 -0.9365 -0.2317  1.0477
   64MOL0     C 8530   5.259   5.697  -0.439 -0.7488  1.3141  0.1916
   64MOL0     C 8531   5.137   5.765  -0.469 -1.0130  0.6885 -1.2091
   64MOL0     C 8532   5.063   5.712  -0.584  0.3946 -0.2122 -0.2503
   64MOL0     C 8533   5.096   5.600  -0.654  0.3671 -0.4587  0.5547
   64MOL0     C 8534   5.018   5.571  -0.775  0.5577  0.0642  0.5594
   64MOL0     O 8535   5.036   5.438  -0.817  0.1156 -0.4950  0.5862
   64MOL0     C 8536   5.003   5.392  -0.938  0.0635 -0.8843  1.1321
   64MOL0     C 8537   4.947   5.264  -0.956  0.2694  0.5208  0.7394
   64MOL0     C 8538   4.941   5.218  -1.090  0.6335  0.6003 -0.0670
   64MOL0     C 8539   4.975   5.288  -1.198 -1.4021 -1.0219  0.3055
   64MOL0     O 8540   4.953   5.247  -1.322  0.0232  0.2801 -0.1696
   64MOL0     C 8541   4.875   5.133  -1.372 -0.1520 -0.4085  0.4789
   64MOL0     C 8542   4.958   5.000  -1.388 -0.3085  0.3751 -0.6145
   64MOL0     C 8543   4.860   4.873  -1.385  0.1028  0.3116  0.7374
   64MOL0     C 8544   4.944   4.753  -1.426 -0.1637 -0.4859 -0.1369
   64MOL0     C 8545   4.856   4.627  -1.421 -1.0439 -0.0111  1.0778
   64MOL0     C 8546   4.949   4.502  -1.420  0.0943 -0.7212 -0.2096
   64MOL0     C 8547   4.991   4.478  -1.562 -0.0053 -0.9864 -0.9059
   64MOL0     C 8548   5.088   4.368  -1.567 -0.9247 -1.4420 -0.5871
   64MOL0    Cl 8549   5.031   4.217  -1.487 -0.2654  0.2909 -0.3813
   64MOL0     C 8550   5.036   5.414  -1.188 -1.3952  1.0139 -0.7797
   64MOL0     C 8551   5.068   5.458  -1.049 -0.2566 -0.3426 -0.1651
   64MOL0     O 8552   4.953   5.657  -0.832 -0.1547 -0.4324  0.1138
   64MOL0     C 8553   5.202   5.524  -0.607  0.1921 -0.3955 -0.2861
   64MOL0     C 8554   5.284   5.574  -0.505  0.1160 -0.2109 -0.9580
   64MOL0     N 8555   5.920   5.362  -0.250  0.5891 -1.0431 -0.9500
   64MOL0     N 8556   5.982   5.256  -0.228  0.0767  0.7640 -0.0299
   64MOL0     C 8557   5.775   4.363   0.387  1.3663 -0.7640 -0.9295
   64MOL0     C 8558   5.679   4.284   0.443  0.5321  1.2850  0.2399
   64MOL0     C 8559   5.333   4.210   0.729 -0.8538 -0.1387  0.0379
   64MOL0     C 8560   5.371   4.146   0.844  1.4486  0.3065 -0.1759
   64MOL0     C 8561   5.267   4.083   0.919 -0.6771  0.3231  0.5024
   64MOL0     C 8562   5.137   4.079   0.880  0.0562 -0.5846 -0.9403
   64MOL0     O 8563   5.039   4.024   0.961 -0.8131 -0.2009 -0.1762
   64MOL0     C 8564   5.075   3.982   1.092  0.4369  0.0681  0.5623
   64MOL0     C 8565   4.941   3.932   1.162 -0.4597 -0.3080 -0.3810
   64MOL0     C 8566   4.970   3.907   1.307 -0.2411  0.9014 -1.0403
   64MOL0     C 8567   4.830   3.879   1.384  0.2155  0.2751 -0.1728
   64MOL0     C 8568   4.853   3.834   1.523 -0.5352 -0.9543  0.1556
   64MOL0     C 8569   4.867   3.802   1.646 -0.7905  0.0114  0.0298
   64MOL0     C 8570   5.106   4.141   0.764  0.9759 -0.5584 -0.0553
   64MOL0     C 8571   5.197   4.211   0.681  0.0249  0.8837 -0.2014
   64MOL0     C 8572   5.145   4.281   0.556  0.5210  1.0201 -0.7610
   64MOL0     H 8573   5.756   4.340   0.772  1.7855 -1.2905  0.0171
   64MOL0     H 8574   5.916   4.497   0.656 -1.5524  1.7347 -0.7375
   64MOL0     H 8575   5.942   4.566   0.235  0.4651  2.2341 -0.4433
   64MOL0     H 8576   5.870   4.678   0.355 -1.3186  0.3108 -3.1281
   64MOL0     H 8577   6.159   4.666   0.292  0.6365  2.0757 -0.8319
   64MOL0     H 8578   6.087   4.737   0.441 -0.4138  0.6990 -0.2578
   64MOL0     H 8579   5.936   4.877   0.292  0.3622 -2.0347  2.2740
   64MOL0     H 8580   6.018   4.811   0.152  1.4176  2.2829 -1.1683
   64MOL0     H 8581   6.167   4.970   0.377 -1.6182  0.3815  1.3630
   64MOL0     H 8582   6.236   4.903   0.231 -1.4121 -1.0569  0.8306
   64MOL0     H 8583   6.008   5.114   0.229  0.7285  0.5934  1.4506
   64MOL0     H 8584   6.188   5.132   0.192  2.6757 -3.0742  0.4178
   64MOL0     H 8585   6.111   5.126  -0.027  2.5938 -1.3172  0.4916
   64MOL0     H 8586   6.131   4.961  -0.004 -0.0324  0.3042 -1.0027
   64MOL0     H 8587   5.847   5.091   0.051 -0.6251 -1.5369  0.5676
   64MOL0     H 8588   5.901   4.919   0.021  3.1795 -1.2015 -4.2012
   64MOL0     H 8589   5.972   4.965  -0.200 -1.8240 -1.0619 -1.0471
   64MOL0     H 8590   5.798   4.994  -0.179 -0.8051  2.7736 -2.0840
   64MOL0     H 8591   5.662   5.179  -0.260 -0.6644  2.7868  0.3859
   64MOL0     H 8592   5.748   5.487  -0.399  1.6292 -0.4940  1.0463
   64MOL0     H 8593   5.596   5.384  -0.358 -0.0686  0.6597 -1.7232
   64MOL0     H 8594   5.625   5.476  -0.119 -1.9937 -0.5806 -0.2523
   64MOL0     H 8595   5.708   5.615  -0.193 -0.3184  0.0593 -2.4184
   64MOL0     H 8596   5.480   5.656  -0.135  0.2968 -1.3581  1.1194
   64MOL0     H 8597   5.433   5.520  -0.237  0.1598 -1.5902  3.6431
   64MOL0     H 8598   5.519   5.657  -0.440 -0.8350 -1.6740 -0.3029
   64MOL0     H 8599   5.553   5.793  -0.333  2.5964 -1.2881  1.1189
   64MOL0     H 8600   5.105   5.853  -0.416 -2.9083 -1.0617  0.7339
   64MOL0     H 8601   4.982   5.777  -0.615 -0.1786 -1.3587 -1.2004
   64MOL0     H 8602   4.911   5.221  -0.863  1.3454  3.4509  2.6397
   64MOL0     H 8603   4.908   5.117  -1.113  1.9046 -0.2902  1.7953
   64MOL0     H 8604   4.784   5.114  -1.314 -0.1301 -0.3518  0.5332
   64MOL0     H 8605   4.841   5.154  -1.473  0.5835 -1.1530  0.0629
   64MOL0     H 8606   5.027   5.000  -1.473 -2.5311 -0.6423 -2.5462
   64MOL0     H 8607   5.018   4.999  -1.297  2.1271  1.1886 -2.1226
   64MOL0     H 8608   4.806   4.861  -1.291  0.8816 -1.4266  0.9918
   64MOL0     H 8609   4.781   4.876  -1.461 -1.6550  1.8166  2.5268
   64MOL0     H 8610   5.022   4.740  -1.350 -0.0421 -0.3246 -0.2342
   64MOL0     H 8611   4.999   4.775  -1.517  4.4449  2.7354  2.9771
   64MOL0     H 8612   4.785   4.628  -1.505  0.2079  2.2853 -0.0618
   64MOL0     H 8613   4.795   4.622  -1.330 -0.1874  1.9143  1.8052
   64MOL0     H 8614   5.031   4.522  -1.351 -1.5199  3.9228  0.7041
   64MOL0     H 8615   4.881   4.419  -1.397 -2.2540  1.3417  0.7502
   64MOL0     H 8616   5.046   4.563  -1.603  0.2965  1.2016  3.4237
   64MOL0     H 8617   4.906   4.459  -1.627 -2.3069  2.5474  0.7236
   64MOL0     H 8618   5.100   4.359  -1.675  1.8698  1.6284 -0.6585
   64MOL0     H 8619   5.180   4.407  -1.525 -1.4699  1.6084 -2.0036
   64MOL0     H 8620   5.061   5.479  -1.271 -2.5220  1.7334 -0.5765
   64MOL0     H 8621   5.096   5.563  -1.040 -0.6326 -0.1221 -1.3597
   64MOL0     H 8622   5.218   5.422  -0.642 -4.1470 -2.2191  2.1464
   64MOL0     H 8623   5.370   5.518  -0.471  0.4209  2.1097  2.6289
   64MOL0     H 8624   5.781   4.375   0.280  0.0602  1.6931 -0.8002
   64MOL0     H 8625   5.619   4.224   0.374  3.9327 -2.7569  0.4186
   64MOL0     H 8626   5.470   4.140   0.887 -0.0700 -2.1641  3.4821
   64MOL0     H 8627   5.306   4.022   1.001  3.1560 -0.7430 -1.8410
   64MOL0     H 8628   5.116   4.067   1.148 -0.2788  1.6237 -1.1554
   64MOL0     H 8629   5.147   3.900   1.093 -0.4401 -0.7238  0.2967
   64MOL0     H 8630   4.903   3.840   1.116  1.0682 -0.9308 -0.4553
   64MOL0     H 8631   4.857   4.001   1.162  0.0307  0.4629  2.9286
   64MOL0     H 8632   5.041   3.978   1.350  0.7596 -0.5690 -0.2024
   64MOL0     H 8633   5.012   3.806   1.311 -3.9115 -0.7478  1.7271
   64MOL0     H 8634   4.766   3.968   1.386 -0.6405 -0.3349  0.7484
   64MOL0     H 8635   4.779   3.804   1.323  2.3939  0.0592 -1.8419
   64MOL0     H 8636   4.888   3.774   1.747  3.5660  2.4241  0.0485
   64MOL0     H 8637   5.008   4.128   0.720 -0.0530  5.7490 -0.5266
   64MOL0     H 8638   5.195   4.252   0.463  0.8850 -0.7537 -0.0545
   64MOL0     H 8639   5.044   4.238   0.556  0.7903  0.3701 -0.5253
   64MOL0     H 8640   5.137   4.390   0.560  1.6685  1.1019 -0.3680
   65MOL0     O 8641   7.426  11.114   4.758  0.7799  0.6866 -0.5518
   65MOL0     C 8642   7.328  11.164   4.820  0.2091  0.0479  0.1649
   65MOL0     O 8643   7.254  11.259   4.771 -0.9273 -0.9305  0.2211
   65MOL0     C 8644   7.264  11.296   4.639 -0.0123 -0.2701  0.5922
   65MOL0     C 8645   7.161  11.281   4.549 -0.0998  0.1912 -1.2751
   65MOL0     C 8646   7.172  11.322   4.418 -0.2927  0.1755  0.0963
   65MOL0     C 8647   7.294  11.383   4.368 -0.1576  0.4992  0.5639
   65MOL0     O 8648   7.296  11.420   4.236 -0.3362  0.2515  0.3945
   65MOL0     C 8649   7.347  11.551   4.202  0.3810  0.5104 -0.4453
   65MOL0     C 8650   7.268  11.585   4.076  0.5685 -0.0845 -0.6294
   65MOL0     C 8651   7.331  11.695   3.998 -0.0288  0.2903 -0.4263
   65MOL0     C 8652   7.298  11.699   3.850 -0.8296  0.1823  0.2873
   65MOL0     C 8653   7.151  11.737   3.825  0.3766 -0.2357 -0.3328
   65MOL0     C 8654   7.125  11.766   3.676 -0.3699  0.4577 -0.0182
   65MOL0     C 8655   7.178  11.905   3.641  0.8287  0.3749 -0.1213
   65MOL0     C 8656   7.057  12.007   3.633  0.0930  0.3337 -0.2878
   65MOL0     N 8657   7.011  12.042   3.770  0.0839  0.5596  0.0677
   65MOL0     C 8658   6.913  11.974   3.838  0.0527  0.3656  0.0205
   65MOL0     C 8659   6.906  12.035   3.951  0.3485 -0.5288 -0.3928
   65MOL0     C 8660   6.834  11.984   4.065  0.5084  0.3433  0.4847
   65MOL0     C 8661   6.864  11.829   4.081 -0.6188  0.7094  0.7807
   65MOL0     C 8662   6.844  11.777   4.221 -0.3076 -0.0639 -0.7599
   65MOL0     C 8663   6.865  11.621   4.222  0.4939  0.2936 -0.0362
   65MOL0     O 8664   6.772  11.547   4.303  0.4975  0.1404  0.9309
   65MOL0     C 8665   6.798  11.514   4.440  0.1568 -0.1865 -0.7091
   65MOL0     C 8666   6.907  11.554   4.511 -0.0135  0.4069  0.1650
   65MOL0     C 8667   6.912  11.527   4.649 -0.0653 -0.0416 -0.2535
   65MOL0     C 8668   6.817  11.463   4.724 -0.0254 -0.2000 -0.5253
   65MOL0     C 8669   6.836  11.451   4.871 -0.9372 -0.3817  1.3064
   65MOL0     O 8670   6.926  11.532   4.925  0.1677 -0.5094  0.0485
   65MOL0     C 8671   6.945  11.526   5.066 -1.0600  0.6711  0.7305
   65MOL0     C 8672   6.838  11.542   5.149 -0.5298 -0.7392 -0.7170
   65MOL0     C 8673   6.845  11.540   5.294 -0.3116 -0.3039 -0.5711
   65MOL0     C 8674   6.969  11.522   5.347 -0.2303 -0.8326 -0.0678
   65MOL0     O 8675   6.992  11.507   5.479  0.2932 -0.1108 -0.1257
   65MOL0     C 8676   6.920  11.597   5.562 -0.4046  0.1126  0.3423
   65MOL0     C 8677   6.896  11.543   5.700  0.9374  0.5737 -0.6206
   65MOL0     C 8678   6.817  11.401   5.701 -0.7808  0.4611  0.0697
   65MOL0     C 8679   6.666  11.422   5.696  1.1173 -0.3398 -0.3765
   65MOL0     C 8680   6.597  11.288   5.733 -0.2141 -0.5079  0.7576
   65MOL0     C 8681   6.452  11.320   5.758 -1.5445  0.4970 -0.3299
   65MOL0     C 8682   6.385  11.186   5.804 -0.4686  0.0783 -0.2434
   65MOL0     C 8683   6.232  11.203   5.813 -0.6413  0.6744 -0.2788
   65MOL0    Cl 8684   6.184  11.324   5.933  0.0670 -0.4264  0.5543
   65MOL0     C 8685   7.083  11.521   5.262 -0.2082 -0.0831 -0.3389
   65MOL0     C 8686   7.074  11.536   5.123  0.4984  0.8156 -0.0421
   65MOL0     O 8687   6.779  11.366   4.934  0.4411  0.5803  0.4875
   65MOL0     C 8688   6.715  11.407   4.646 -0.5754 -0.4336 -0.5367
   65MOL0     C 8689   6.708  11.430   4.506  1.0319 -0.1457  0.0218
   65MOL0     N 8690   7.000  12.141   3.962  0.7151  0.2172  0.1515
   65MOL0     N 8691   7.069  12.137   3.853 -0.0256  0.5184  0.6565
   65MOL0     C 8692   7.392  11.404   4.456 -0.5551 -0.2752  0.3691
   65MOL0     C 8693   7.382  11.365   4.591  0.3370 -0.1547 -1.0200
   65MOL0     C 8694   7.308  11.141   4.969 -0.1299  0.5648 -0.0993
   65MOL0     C 8695   7.210  11.220   5.027 -0.0262 -0.1679  1.2144
   65MOL0     C 8696   7.171  11.204   5.153 -0.5899 -0.0084 -0.6760
   65MOL0     C 8697   7.226  11.104   5.229  1.7973 -0.2953  0.6089
   65MOL0     O 8698   7.193  11.082   5.357  0.2674  0.5942  0.1504
   65MOL0     C 8699   7.097  11.165   5.428  0.6201  0.5695 -0.1583
   65MOL0     C 8700   7.056  11.104   5.565  0.5369 -0.0774 -0.1529
   65MOL0     C 8701   7.180  11.067   5.659  0.0032  0.1481 -0.8191
   65MOL0     C 8702   7.129  11.054   5.800 -0.0247 -0.0532  0.5282
   65MOL0     C 8703   7.104  11.179   5.856  0.4954  1.4450  0.7075
   65MOL0     C 8704   7.099  11.287   5.916  0.3419 -0.7385  0.6468
   65MOL0     C 8705   7.330  11.026   5.179 -0.6330 -0.8613 -0.4212
   65MOL0     C 8706   7.373  11.037   5.048  0.8312 -0.1789  0.3027
   65MOL0     C 8707   7.464  10.932   4.982  0.3713 -0.4537  0.0688
   65MOL0     H 8708   7.069  11.231   4.579 -0.1998  1.7943  1.4930
   65MOL0     H 8709   7.084  11.307   4.357  1.0102  0.1899 -1.8839
   65MOL0     H 8710   7.342  11.627   4.280  2.7357 -0.6320  0.9287
   65MOL0     H 8711   7.456  11.549   4.197  0.8317  0.9982  4.3183
   65MOL0     H 8712   7.168  11.617   4.106 -0.5556 -3.1313 -0.7385
   65MOL0     H 8713   7.244  11.496   4.017  0.2134 -0.3676 -0.0667
   65MOL0     H 8714   7.440  11.687   4.001  0.0940  1.0183 -2.0594
   65MOL0     H 8715   7.306  11.794   4.038  3.3962  1.7274 -1.4678
   65MOL0     H 8716   7.363  11.775   3.807 -1.7719  1.8924  1.7348
   65MOL0     H 8717   7.330  11.607   3.802  0.3019  0.0291  1.2873
   65MOL0     H 8718   7.088  11.650   3.846  1.4146 -0.5574  1.7816
   65MOL0     H 8719   7.132  11.820   3.895  1.7346 -0.8007  0.7461
   65MOL0     H 8720   7.167  11.680   3.624  3.5654  2.1160  0.1195
   65MOL0     H 8721   7.021  11.752   3.644 -1.3092 -2.1338  3.5433
   65MOL0     H 8722   7.236  11.908   3.548  1.0810 -1.0381 -0.0418
   65MOL0     H 8723   7.253  11.947   3.709  2.5201  2.6057 -3.1526
   65MOL0     H 8724   7.087  12.091   3.568 -2.6297  0.2700 -1.7642
   65MOL0     H 8725   6.967  11.965   3.588  0.4285  2.3571 -3.1143
   65MOL0     H 8726   6.861  11.887   3.799  0.2282 -0.0197  0.6331
   65MOL0     H 8727   6.867  12.038   4.154 -1.2078  1.7768  0.3027
   65MOL0     H 8728   6.727  11.994   4.047  0.1389 -1.5010  1.4900
   65MOL0     H 8729   6.801  11.774   4.012 -1.5298  2.2276  0.3511
   65MOL0     H 8730   6.971  11.814   4.065 -0.9565 -0.4678 -0.4553
   65MOL0     H 8731   6.746  11.796   4.266  0.9780 -2.4348  3.5504
   65MOL0     H 8732   6.919  11.828   4.283 -1.1781  1.2295 -0.7239
   65MOL0     H 8733   6.966  11.596   4.254 -0.4485 -0.5396  2.4971
   65MOL0     H 8734   6.855  11.571   4.125  2.8591  0.4199 -0.3920
   65MOL0     H 8735   6.992  11.606   4.469 -0.0308  1.0291  0.8743
   65MOL0     H 8736   7.003  11.567   4.694  0.1323  1.3756 -1.7817
   65MOL0     H 8737   6.738  11.545   5.107 -0.6364  0.0212 -0.4271
   65MOL0     H 8738   6.754  11.532   5.353 -0.0894  0.4598 -0.1130
   65MOL0     H 8739   6.990  11.681   5.573  2.7241 -1.6660 -3.4562
   65MOL0     H 8740   6.829  11.644   5.523 -0.3065 -0.3925 -0.5304
   65MOL0     H 8741   6.993  11.518   5.743 -0.7337 -0.2960  3.0058
   65MOL0     H 8742   6.836  11.605   5.767 -0.8329  0.2255 -1.8079
   65MOL0     H 8743   6.839  11.329   5.622 -2.9303 -0.4748  0.2546
   65MOL0     H 8744   6.843  11.357   5.798  0.2105 -0.0236 -0.3904
   65MOL0     H 8745   6.614  11.460   5.607  0.2382 -1.2767 -0.2804
   65MOL0     H 8746   6.639  11.500   5.768  3.5412  2.3595 -2.1708
   65MOL0     H 8747   6.642  11.250   5.824  0.8924  3.2954  1.9891
   65MOL0     H 8748   6.615  11.211   5.657  1.4897  0.5412  0.0132
   65MOL0     H 8749   6.440  11.405   5.826 -1.8349  0.1549  0.0554
   65MOL0     H 8750   6.402  11.353   5.667 -1.8888  1.5405  0.2216
   65MOL0     H 8751   6.429  11.159   5.900  1.2188 -1.2548 -1.3456
   65MOL0     H 8752   6.399  11.100   5.739 -0.9103  0.4902 -0.8977
   65MOL0     H 8753   6.198  11.229   5.712  1.8876  0.0378 -1.3869
   65MOL0     H 8754   6.197  11.101   5.833  4.1948 -1.4014 -1.0100
   65MOL0     H 8755   7.181  11.518   5.307  0.2219 -2.2223 -1.3043
   65MOL0     H 8756   7.164  11.542   5.062  2.7301 -0.0316  2.9419
   65MOL0     H 8757   6.639  11.347   4.696  0.8423 -1.8585 -0.0222
   65MOL0     H 8758   6.626  11.389   4.448  0.8982  3.2716 -2.5330
   65MOL0     H 8759   7.486  11.449   4.425 -1.2653  0.4475 -0.8144
   65MOL0     H 8760   7.460  11.399   4.658 -2.8516  2.1153  1.9015
   65MOL0     H 8761   7.144  11.286   4.972 -0.2307  1.7921  3.6496
   65MOL0     H 8762   7.094  11.273   5.188 -1.1295 -1.9130  2.2203
   65MOL0     H 8763   7.009  11.165   5.364 -1.3027 -2.4105  2.1948
   65MOL0     H 8764   7.129  11.269   5.439 -1.7312  1.3600 -0.3367
   65MOL0     H 8765   6.998  11.014   5.542 -2.6129  2.1233 -1.6637
   65MOL0     H 8766   6.984  11.168   5.617  2.0916 -0.1612  2.2544
   65MOL0     H 8767   7.257  11.145   5.662 -0.8622  1.1780 -3.1035
   65MOL0     H 8768   7.236  10.981   5.620  3.9044  0.3865  3.4393
   65MOL0     H 8769   7.034  11.001   5.797 -1.2244  1.8774  2.0620
   65MOL0     H 8770   7.207  11.003   5.858 -0.3523 -2.4048 -0.9727
   65MOL0     H 8771   7.102  11.391   5.939  1.9864 -0.5134 -0.4277
   65MOL0     H 8772   7.366  10.956   5.254 -1.7301 -2.2182 -1.1249
   65MOL0     H 8773   7.475  10.844   5.046  0.5654  1.0912  2.2381
   65MOL0     H 8774   7.413  10.896   4.892  0.5937  0.9656 -0.6465
   65MOL0     H 8775   7.563  10.967   4.950  0.7028 -0.9506  0.5465
   66MOL0     O 8776  10.130   9.932   1.394  0.2620 -0.2083 -0.0318
   66MOL0     C 8777  10.198   9.835   1.433 -0.0425  0.6243  0.7241
   66MOL0     O 8778  10.219   9.797   1.557  0.3400  0.1489 -0.2076
   66MOL0     C 8779  10.129   9.834   1.650 -0.0559  0.0562 -0.6462
   66MOL0     C 8780  10.018   9.758   1.654 -0.0592  0.1736 -0.9611
   66MOL0     C 8781   9.910   9.803   1.735 -0.9811  0.1245  0.4458
   66MOL0     C 8782   9.923   9.915   1.816  0.8934  0.0793  0.0798
   66MOL0     O 8783   9.833   9.961   1.912 -0.2151  0.8797  0.1230
   66MOL0     C 8784   9.700   9.907   1.895 -0.5355  0.0699  0.3583
   66MOL0     C 8785   9.592   9.974   1.975  0.5362 -0.1408  0.6478
   66MOL0     C 8786   9.570  10.114   1.917 -0.6450 -0.8386  0.5360
   66MOL0     C 8787   9.575  10.238   2.020 -0.0179  0.0032 -0.5270
   66MOL0     C 8788   9.523  10.366   1.962  0.3669 -0.6554  0.3126
   66MOL0     C 8789   9.524  10.491   2.059  0.0143  0.7717  0.3464
   66MOL0     C 8790   9.468  10.605   1.979  0.3892  0.1854 -0.5793
   66MOL0     C 8791   9.396  10.702   2.069  0.4715 -0.2945 -0.7606
   66MOL0     N 8792   9.334  10.818   1.998  0.3530 -0.1490  0.1831
   66MOL0     C 8793   9.278  10.820   1.875  0.5430  0.2793  0.4288
   66MOL0     C 8794   9.230  10.950   1.869 -0.3628  1.1851 -0.3907
   66MOL0     C 8795   9.159  11.029   1.759  0.5820  0.0399  0.0809
   66MOL0     C 8796   9.261  11.077   1.648  0.2382  0.3849  0.4647
   66MOL0     C 8797   9.373  11.172   1.680  1.0856 -0.0005  0.5007
   66MOL0     C 8798   9.430  11.259   1.565  0.0554  0.2915  0.4532
   66MOL0     O 8799   9.500  11.189   1.463 -0.1833  0.3003 -0.0977
   66MOL0     C 8800   9.593  11.266   1.390 -0.7600 -0.6205 -0.3555
   66MOL0     C 8801   9.568  11.316   1.262  1.0657 -0.0167  0.3246
   66MOL0     C 8802   9.671  11.380   1.191 -0.6741  0.2020 -0.0242
   66MOL0     C 8803   9.797  11.396   1.258  0.2265 -0.4496  0.7960
   66MOL0     C 8804   9.895  11.498   1.199 -0.1127  1.0100  0.8687
   66MOL0     O 8805   9.991  11.556   1.285  0.3201 -0.4018 -0.6533
   66MOL0     C 8806  10.082  11.637   1.233  0.1130 -0.1796 -0.4999
   66MOL0     C 8807  10.178  11.594   1.154 -0.0011 -0.1248  0.1571
   66MOL0     C 8808  10.257  11.685   1.093 -0.8881 -0.3167 -0.3469
   66MOL0     C 8809  10.250  11.823   1.102 -0.1028 -0.3873  0.1423
   66MOL0     O 8810  10.339  11.894   1.021  0.2219 -0.0592 -1.2214
   66MOL0     C 8811  10.420  11.991   1.094  1.0170  0.2494  0.6995
   66MOL0     C 8812  10.478  12.095   1.011 -0.1435  0.9739 -0.1897
   66MOL0     C 8813  10.635  12.082   1.001  0.1108 -0.3904 -0.0352
   66MOL0     C 8814  10.699  12.217   0.952  0.0063 -0.2139  0.1369
   66MOL0     C 8815  10.693  12.336   1.049  0.0288  0.9596  0.1992
   66MOL0     C 8816  10.749  12.295   1.180  0.4421 -0.4626  0.6668
   66MOL0     C 8817  10.815  12.414   1.247 -0.3265  0.1400  0.0703
   66MOL0     C 8818  10.953  12.452   1.196  0.3848  0.1288  1.1475
   66MOL0    Cl 8819  11.019  12.614   1.274 -0.1455  0.3751  0.1926
   66MOL0     C 8820  10.147  11.874   1.180  0.0754  0.3084 -0.0209
   66MOL0     C 8821  10.071  11.777   1.249  0.5923  0.2228 -1.3441
   66MOL0     O 8822   9.882  11.499   1.075 -1.0061  0.6927  0.4324
   66MOL0     C 8823   9.820  11.347   1.392  0.0626 -0.1046 -0.6488
   66MOL0     C 8824   9.719  11.269   1.447  0.2694 -0.2201 -0.9384
   66MOL0     N 8825   9.241  11.015   1.993  0.0365 -0.1693  0.7813
   66MOL0     N 8826   9.299  10.932   2.074 -0.3498  0.0116  0.6635
   66MOL0     C 8827  10.043   9.993   1.809  0.4975 -0.4349  0.5907
   66MOL0     C 8828  10.147   9.956   1.718 -0.3300 -0.2246 -1.0537
   66MOL0     C 8829  10.263   9.746   1.328 -0.4710  1.2808 -0.5933
   66MOL0     C 8830  10.187   9.649   1.262 -0.3027 -0.2206  0.0830
   66MOL0     C 8831  10.237   9.580   1.153  0.6882 -0.9837 -0.5720
   66MOL0     C 8832  10.372   9.596   1.119  1.1405 -0.0622 -0.1937
   66MOL0     O 8833  10.411   9.513   1.021 -0.3749 -0.9618  1.1634
   66MOL0     C 8834  10.550   9.523   0.971  0.3236 -0.4512 -0.0653
   66MOL0     C 8835  10.560   9.437   0.846 -0.2644  0.4541 -0.8661
   66MOL0     C 8836  10.697   9.387   0.812 -0.9068 -0.1983  0.2425
   66MOL0     C 8837  10.723   9.391   0.657  0.3222 -0.5602 -0.6634
   66MOL0     C 8838  10.863   9.360   0.645  0.2043  0.2966  0.0736
   66MOL0     C 8839  10.980   9.334   0.643  0.3615 -0.8114  0.6082
   66MOL0     C 8840  10.450   9.685   1.192 -0.3790 -1.0333 -1.0476
   66MOL0     C 8841  10.395   9.770   1.293 -0.0957  0.0639 -0.1184
   66MOL0     C 8842  10.480   9.874   1.365  0.0630  0.0723 -0.3304
   66MOL0     H 8843  10.009   9.657   1.616 -1.7949 -0.0031 -0.1964
   66MOL0     H 8844   9.818   9.746   1.749 -1.4146  1.1894  2.3236
   66MOL0     H 8845   9.676   9.899   1.789 -2.7608  0.6334  0.7732
   66MOL0     H 8846   9.707   9.804   1.931  1.2923 -0.3383 -1.0410
   66MOL0     H 8847   9.620   9.971   2.081  0.5313 -0.3598  0.6417
   66MOL0     H 8848   9.503   9.912   1.964 -0.1939  0.9242  0.4521
   66MOL0     H 8849   9.471  10.127   1.872 -0.5931  3.6645  1.2288
   66MOL0     H 8850   9.637  10.132   1.833  0.4405  0.3676  1.6212
   66MOL0     H 8851   9.533  10.225   2.119  1.5938  3.3331  0.7812
   66MOL0     H 8852   9.684  10.240   2.034 -0.1613 -1.1667  0.9709
   66MOL0     H 8853   9.580  10.371   1.869  0.0309 -0.2716  0.1216
   66MOL0     H 8854   9.421  10.337   1.934  0.6200 -0.1732 -1.1889
   66MOL0     H 8855   9.461  10.460   2.143 -0.7433  0.1082 -0.4363
   66MOL0     H 8856   9.628  10.513   2.082  0.6358  1.5457 -2.7891
   66MOL0     H 8857   9.390  10.567   1.912  1.0499  0.4863 -1.5572
   66MOL0     H 8858   9.547  10.653   1.921  0.2146 -2.0284 -2.8417
   66MOL0     H 8859   9.328  10.643   2.130  1.3466 -0.0719  0.4647
   66MOL0     H 8860   9.466  10.750   2.139  0.2503  0.0698 -0.7870
   66MOL0     H 8861   9.286  10.738   1.804  0.5137 -1.6895  2.5541
   66MOL0     H 8862   9.081  10.974   1.705  0.7003  1.7448 -1.9814
   66MOL0     H 8863   9.115  11.122   1.798  0.7613  0.3600 -0.4694
   66MOL0     H 8864   9.307  10.984   1.615 -0.4859  0.0932  0.2430
   66MOL0     H 8865   9.210  11.118   1.561  1.4235 -5.0974 -3.3407
   66MOL0     H 8866   9.454  11.118   1.730 -0.5272 -3.4365 -0.2323
   66MOL0     H 8867   9.321  11.240   1.747 -0.7873 -1.5586  0.7118
   66MOL0     H 8868   9.497  11.331   1.612  0.0420  2.6952 -2.8982
   66MOL0     H 8869   9.352  11.313   1.511  0.4840 -1.6411 -2.3046
   66MOL0     H 8870   9.484  11.286   1.200  0.5830 -2.5397  2.0610
   66MOL0     H 8871   9.639  11.428   1.100  0.7361  3.0249  0.8520
   66MOL0     H 8872  10.196  11.487   1.144 -1.2319 -0.7086  3.0272
   66MOL0     H 8873  10.341  11.633   1.046 -1.1127  0.2625 -1.4150
   66MOL0     H 8874  10.351  12.045   1.160  1.0637  0.1369  0.8413
   66MOL0     H 8875  10.494  11.937   1.154  1.2689  0.2379  0.3827
   66MOL0     H 8876  10.419  12.094   0.919 -1.8945  1.8813  0.8831
   66MOL0     H 8877  10.451  12.189   1.059 -1.3326  0.5472  0.0108
   66MOL0     H 8878  10.679  12.056   1.097 -0.1207 -1.2455 -0.1493
   66MOL0     H 8879  10.659  11.998   0.935 -2.1716  0.0228 -1.5333
   66MOL0     H 8880  10.662  12.242   0.852 -1.3207  1.3702  0.9795
   66MOL0     H 8881  10.804  12.190   0.942  0.1365 -0.9999  2.9301
   66MOL0     H 8882  10.593  12.367   1.080  0.1266 -1.0120  2.8492
   66MOL0     H 8883  10.745  12.416   0.995  1.2388  0.9581  1.3135
   66MOL0     H 8884  10.679  12.238   1.242 -0.1433  1.7475  2.1561
   66MOL0     H 8885  10.822  12.214   1.174  1.2265  0.3093 -0.6301
   66MOL0     H 8886  10.839  12.363   1.340 -0.5788  3.9616  2.4219
   66MOL0     H 8887  10.747  12.500   1.250 -1.3787 -0.5713 -1.6521
   66MOL0     H 8888  11.023  12.368   1.206  0.4442  0.1834  1.1945
   66MOL0     H 8889  10.942  12.473   1.089  1.0377 -1.9601  0.6221
   66MOL0     H 8890  10.131  11.981   1.196 -0.8204  0.0043  1.2566
   66MOL0     H 8891   9.997  11.821   1.315  2.9303 -1.1134  2.5161
   66MOL0     H 8892   9.909  11.368   1.451 -0.8670 -1.0094  1.1396
   66MOL0     H 8893   9.740  11.223   1.543 -1.4028  0.1249 -0.3605
   66MOL0     H 8894  10.063  10.082   1.866 -1.4877  1.5010 -1.5121
   66MOL0     H 8895  10.234  10.022   1.714  2.1563 -3.1313  0.8810
   66MOL0     H 8896  10.083   9.631   1.287 -0.3212  0.2596  0.3711
   66MOL0     H 8897  10.176   9.510   1.096 -0.4292 -0.1600 -0.4390
   66MOL0     H 8898  10.621   9.489   1.047 -0.1665 -1.5614 -0.0874
   66MOL0     H 8899  10.580   9.621   0.932 -0.1606 -0.4056 -0.3311
   66MOL0     H 8900  10.498   9.479   0.767  1.3731  0.2641 -2.3136
   66MOL0     H 8901  10.508   9.346   0.877 -2.5057  1.2756 -1.9604
   66MOL0     H 8902  10.709   9.285   0.851 -0.2640  0.1314  0.9250
   66MOL0     H 8903  10.774   9.448   0.859 -2.0218  2.0662 -0.7540
   66MOL0     H 8904  10.664   9.329   0.589  0.3704  0.8738 -2.0762
   66MOL0     H 8905  10.710   9.494   0.624  2.3319  0.1578  0.5622
   66MOL0     H 8906  11.082   9.309   0.621  0.1509 -0.6556 -0.6112
   66MOL0     H 8907  10.550   9.699   1.153  0.3528 -0.2375  0.9703
   66MOL0     H 8908  10.456   9.967   1.312 -5.5321 -0.7671  0.1126
   66MOL0     H 8909  10.440   9.889   1.466 -3.1416 -0.2586 -1.4383
   66MOL0     H 8910  10.588   9.856   1.362  0.0989  0.3432 -3.0361
   67MOL0     O 8911  10.805   6.169   7.471 -0.2305 -0.7931 -0.0132
   67MOL0     C 8912  10.697   6.229   7.477 -0.1913  0.3271 -0.4128
   67MOL0     O 8913  10.674   6.361   7.467 -0.5194 -0.6077 -0.1913
   67MOL0     C 8914  10.781   6.430   7.421  0.6975 -0.5164  0.2329
   67MOL0     C 8915  10.859   6.394   7.315  0.1910  0.9630  0.6323
   67MOL0     C 8916  10.962   6.469   7.265 -0.6608  0.5620  1.0315
   67MOL0     C 8917  10.971   6.601   7.311 -0.2413  1.0468  0.4527
   67MOL0     O 8918  11.078   6.682   7.267 -0.2948 -0.3964 -1.0193
   67MOL0     C 8919  11.201   6.626   7.221 -0.1743  0.2393  0.4943
   67MOL0     C 8920  11.280   6.560   7.340 -0.6032 -0.4667 -0.1146
   67MOL0     C 8921  11.409   6.496   7.288 -0.4197 -0.0179  0.2521
   67MOL0     C 8922  11.381   6.370   7.195 -0.0235 -0.3446  1.0535
   67MOL0     C 8923  11.498   6.280   7.206 -0.3897  0.0551  0.1085
   67MOL0     C 8924  11.483   6.186   7.326  0.4428 -0.4608  0.2726
   67MOL0     C 8925  11.612   6.106   7.344 -0.1554 -0.0387  0.3159
   67MOL0     C 8926  11.613   5.971   7.413  0.7616 -0.4719  1.2212
   67MOL0     N 8927  11.739   5.945   7.479  0.0778  0.0330  0.4267
   67MOL0     C 8928  11.860   6.008   7.453 -0.1792  0.0047  0.4923
   67MOL0     C 8929  11.957   5.923   7.512  0.1208  0.6442 -1.1555
   67MOL0     C 8930  12.099   5.941   7.522  1.6698 -0.1039  0.6246
   67MOL0     C 8931  12.154   5.910   7.381 -0.2363 -0.6664  0.8541
   67MOL0     C 8932  12.300   5.946   7.384 -0.4188 -0.1699  1.4375
   67MOL0     C 8933  12.386   5.879   7.265  1.4080  0.0295 -0.7384
   67MOL0     O 8934  12.377   5.742   7.263  0.2091 -0.1194 -0.4259
   67MOL0     C 8935  12.432   5.667   7.169  0.3402 -0.0297 -0.7868
   67MOL0     C 8936  12.420   5.528   7.170 -0.2497 -0.7129  0.0592
   67MOL0     C 8937  12.482   5.442   7.076  0.3953  0.5233  0.0160
   67MOL0     C 8938  12.551   5.494   6.968  0.2036 -0.8041 -0.2572
   67MOL0     C 8939  12.612   5.416   6.855  0.1809  0.8402 -0.6488
   67MOL0     O 8940  12.642   5.476   6.744  0.3222 -0.8101  0.6875
   67MOL0     C 8941  12.714   5.410   6.645  0.0968 -0.6464 -0.4489
   67MOL0     C 8942  12.678   5.426   6.510 -0.2670  0.3308  0.4691
   67MOL0     C 8943  12.736   5.348   6.410 -0.1087  0.2343 -0.2342
   67MOL0     C 8944  12.838   5.250   6.437  0.8043  0.2840 -0.5732
   67MOL0     O 8945  12.889   5.160   6.360  0.1940 -0.3215  0.7530
   67MOL0     C 8946  12.928   5.206   6.233 -0.3443 -0.4540 -0.7185
   67MOL0     C 8947  13.010   5.091   6.162 -0.6945 -0.7009  0.0987
   67MOL0     C 8948  12.923   4.973   6.142 -0.1322  0.8435 -1.6337
   67MOL0     C 8949  12.979   4.888   6.036 -0.1249 -0.7154 -0.1351
   67MOL0     C 8950  12.933   4.736   6.013  0.3061  0.4492  0.0443
   67MOL0     C 8951  12.772   4.737   6.016 -0.5944  0.8469 -1.0159
   67MOL0     C 8952  12.718   4.585   5.992 -0.4673 -0.2912  0.6055
   67MOL0     C 8953  12.569   4.585   5.978  0.0638  0.4219  0.2851
   67MOL0    Cl 8954  12.532   4.628   5.813  0.7804  0.0685  0.0823
   67MOL0     C 8955  12.874   5.250   6.576  0.0191  0.3437  0.0968
   67MOL0     C 8956  12.811   5.316   6.676 -0.2428 -0.6221 -0.1056
   67MOL0     O 8957  12.616   5.295   6.866  0.3495  0.2900  0.3119
   67MOL0     C 8958  12.560   5.638   6.962  0.1784  0.0789  0.5989
   67MOL0     C 8959  12.504   5.722   7.057 -0.0493  0.6074 -0.0773
   67MOL0     N 8960  11.886   5.806   7.560  1.0043  0.1527  0.2056
   67MOL0     N 8961  11.760   5.828   7.542 -0.0573  0.5364  0.7505
   67MOL0     C 8962  10.882   6.650   7.401 -0.4388  0.6461 -0.7265
   67MOL0     C 8963  10.785   6.559   7.458 -0.5108  1.6244 -0.1607
   67MOL0     C 8964  10.587   6.133   7.495 -0.6286  0.1816 -0.6532
   67MOL0     C 8965  10.590   6.037   7.597 -0.5156 -0.4223  0.7489
   67MOL0     C 8966  10.483   5.962   7.625  0.2078 -0.7361 -0.4018
   67MOL0     C 8967  10.373   5.956   7.543 -0.6479 -0.0335  1.2281
   67MOL0     O 8968  10.273   5.873   7.562 -0.6092  0.3593  0.1830
   67MOL0     C 8969  10.173   5.849   7.466 -0.0650  0.0156 -1.0326
   67MOL0     C 8970  10.120   5.708   7.497  1.2922  1.5976 -0.4248
   67MOL0     C 8971  10.012   5.659   7.395  0.1143  0.2063 -0.0188
   67MOL0     C 8972   9.880   5.729   7.398 -0.4853  0.1837  0.2627
   67MOL0     C 8973   9.795   5.696   7.506  0.0302  1.2003 -0.2293
   67MOL0     C 8974   9.726   5.642   7.590  0.8279 -0.1778  0.6654
   67MOL0     C 8975  10.370   6.053   7.429  0.0502 -0.1376  0.7428
   67MOL0     C 8976  10.479   6.138   7.407 -0.2157 -0.0759 -0.4459
   67MOL0     C 8977  10.486   6.207   7.285  0.1089 -0.7882  0.5943
   67MOL0     H 8978  10.850   6.296   7.269 -0.9443  1.8670 -1.2178
   67MOL0     H 8979  11.024   6.428   7.185 -2.1619 -0.7082  0.4820
   67MOL0     H 8980  11.192   6.568   7.129 -1.1353 -1.3402  1.5218
   67MOL0     H 8981  11.260   6.715   7.195 -1.7222 -0.1626 -5.7443
   67MOL0     H 8982  11.216   6.482   7.381  0.4594 -0.1291  2.3635
   67MOL0     H 8983  11.284   6.633   7.421 -5.8476 -2.1347  2.0880
   67MOL0     H 8984  11.471   6.452   7.367  5.0349  1.3337 -2.7177
   67MOL0     H 8985  11.469   6.570   7.234 -1.8359  2.0131  1.3308
   67MOL0     H 8986  11.286   6.328   7.231  0.4599 -1.8622  0.6514
   67MOL0     H 8987  11.369   6.408   7.094 -0.7937  1.4525  1.7848
   67MOL0     H 8988  11.500   6.213   7.119  0.9132 -0.4611  0.5091
   67MOL0     H 8989  11.590   6.337   7.218 -0.0118 -1.0492  3.5691
   67MOL0     H 8990  11.450   6.240   7.415  1.5412 -0.6990  0.8357
   67MOL0     H 8991  11.411   6.107   7.301  1.1892 -0.4473 -2.1187
   67MOL0     H 8992  11.678   6.178   7.393 -1.2816  0.3377  1.3082
   67MOL0     H 8993  11.651   6.085   7.244  0.4224  2.3431 -0.0081
   67MOL0     H 8994  11.534   5.972   7.488  1.7116 -1.1214  2.2654
   67MOL0     H 8995  11.583   5.896   7.339  1.3404  0.2493  0.2344
   67MOL0     H 8996  11.895   6.094   7.396 -0.7922  0.0821  0.2229
   67MOL0     H 8997  12.113   6.046   7.549 -3.5125  0.0584  4.1304
   67MOL0     H 8998  12.153   5.885   7.600  1.0055 -0.6442  0.7030
   67MOL0     H 8999  12.159   5.802   7.363  0.9093 -0.4166 -0.4657
   67MOL0     H 9000  12.095   5.951   7.299  0.1124  0.0684  0.9662
   67MOL0     H 9001  12.346   5.919   7.479  1.2841  1.5576  1.1743
   67MOL0     H 9002  12.321   6.053   7.370 -2.7424  0.0962 -0.6542
   67MOL0     H 9003  12.485   5.922   7.285  0.3460  1.5995  1.4976
   67MOL0     H 9004  12.344   5.914   7.170  0.3177  0.4686 -0.1108
   67MOL0     H 9005  12.359   5.471   7.239  0.3411 -0.4555  0.8140
   67MOL0     H 9006  12.468   5.335   7.089  0.9867 -0.0763 -3.3237
   67MOL0     H 9007  12.606   5.499   6.475 -1.4981 -2.5643 -3.9404
   67MOL0     H 9008  12.708   5.353   6.305  0.8002 -0.0025 -0.4998
   67MOL0     H 9009  12.844   5.237   6.169 -2.0565 -2.3628  0.4787
   67MOL0     H 9010  12.991   5.292   6.257 -2.3377  0.7438  0.5095
   67MOL0     H 9011  13.021   5.139   6.064  0.1352  2.6110  1.6893
   67MOL0     H 9012  13.110   5.067   6.198  2.1079  3.7421 -3.5446
   67MOL0     H 9013  12.919   4.918   6.237 -2.7208  0.8407 -1.6731
   67MOL0     H 9014  12.820   4.998   6.115 -0.9199 -0.8099 -0.3611
   67MOL0     H 9015  13.088   4.885   6.050  0.0355  0.9179 -0.7717
   67MOL0     H 9016  12.957   4.938   5.941 -0.1638  0.9873  0.7237
   67MOL0     H 9017  12.974   4.670   6.090 -0.0372 -0.2519 -0.3651
   67MOL0     H 9018  12.970   4.714   5.912 -2.1796  2.5462 -1.4577
   67MOL0     H 9019  12.746   4.772   6.117  0.9038  1.2547 -0.7547
   67MOL0     H 9020  12.718   4.798   5.943 -0.8787  0.6772 -0.9520
   67MOL0     H 9021  12.745   4.517   6.074 -0.1650 -1.3799 -0.3610
   67MOL0     H 9022  12.766   4.545   5.902 -4.1202 -2.4301 -0.6341
   67MOL0     H 9023  12.521   4.488   5.994  0.1204  0.5142  1.0537
   67MOL0     H 9024  12.532   4.661   6.048 -0.7154  3.2003 -2.8725
   67MOL0     H 9025  12.965   5.191   6.591  1.5129  2.8855  1.6685
   67MOL0     H 9026  12.863   5.308   6.771  1.2836  0.5609 -0.7897
   67MOL0     H 9027  12.606   5.694   6.881  2.7903 -2.3018  0.3111
   67MOL0     H 9028  12.526   5.826   7.037 -1.2314  0.2402 -4.1652
   67MOL0     H 9029  10.880   6.757   7.417  0.9089  0.7513 -1.1046
   67MOL0     H 9030  10.714   6.595   7.531 -1.3561 -2.8794  1.4835
   67MOL0     H 9031  10.672   6.032   7.668 -1.0725 -1.5538  1.3288
   67MOL0     H 9032  10.473   5.892   7.707 -0.4365 -3.3952 -2.5698
   67MOL0     H 9033  10.224   5.840   7.370  3.1224 -5.7133  0.7145
   67MOL0     H 9034  10.084   5.912   7.469 -0.1594 -0.0855 -1.6616
   67MOL0     H 9035  10.071   5.712   7.595 -3.4583 -1.5026 -2.3086
   67MOL0     H 9036  10.196   5.628   7.494 -2.0256 -1.8367 -3.0031
   67MOL0     H 9037  10.002   5.553   7.420 -0.0425  0.2574  0.1393
   67MOL0     H 9038  10.047   5.670   7.292 -4.4172  0.3124 -1.7843
   67MOL0     H 9039   9.898   5.837   7.395 -0.5243  0.3279  2.8763
   67MOL0     H 9040   9.826   5.702   7.306 -1.8939 -0.7966  1.3310
   67MOL0     H 9041   9.661   5.597   7.662  0.1119  0.6804  0.5649
   67MOL0     H 9042  10.295   6.057   7.351 -0.9380  1.0785  1.7183
   67MOL0     H 9043  10.400   6.192   7.219  0.6504  0.1686 -0.3644
   67MOL0     H 9044  10.492   6.315   7.302 -0.6515 -0.5101 -0.7599
   67MOL0     H 9045  10.568   6.175   7.220  0.9635  1.6643  0.3499
   68MOL0     O 9046  10.888   0.669   6.944 -0.2288 -0.7410  0.3566
   68MOL0     C 9047  10.791   0.739   6.954 -0.9625 -0.6733  0.4558
   68MOL0     O 9048  10.760   0.844   6.870  0.0957  0.3454 -0.1947
   68MOL0     C 9049  10.817   0.844   6.747  0.6977  0.1137 -0.8052
   68MOL0     C 9050  10.809   0.966   6.673  0.6119 -0.0531 -0.3058
   68MOL0     C 9051  10.851   0.981   6.533  0.6498 -0.2642  0.1261
   68MOL0     C 9052  10.899   0.867   6.467  0.0458  0.4555 -0.2514
   68MOL0     O 9053  10.933   0.864   6.340 -0.1225  0.2774  0.5578
   68MOL0     C 9054  10.987   0.983   6.271 -0.3049  0.8542 -0.5062
   68MOL0     C 9055  11.028   0.936   6.132 -1.3506  0.2197  0.6670
   68MOL0     C 9056  11.138   0.824   6.130 -0.1328 -0.6102  1.2987
   68MOL0     C 9057  11.091   0.723   6.018  0.6013 -0.3802 -0.3628
   68MOL0     C 9058  11.182   0.600   6.007  0.7996 -0.2264 -0.6348
   68MOL0     C 9059  11.191   0.508   6.132 -0.2666  0.3427  0.2764
   68MOL0     C 9060  11.062   0.460   6.198  0.2836  0.1121 -0.1753
   68MOL0     C 9061  10.973   0.383   6.105  0.0084 -0.3507  0.5415
   68MOL0     N 9062  10.863   0.302   6.170 -0.4545  0.3290  0.1983
   68MOL0     C 9063  10.764   0.365   6.229  0.1306  0.2946 -0.6158
   68MOL0     C 9064  10.682   0.263   6.269 -0.3316 -0.0261 -0.1472
   68MOL0     C 9065  10.565   0.277   6.358  0.7206  1.0893  0.0234
   68MOL0     C 9066  10.609   0.256   6.506 -0.1299  0.5868 -0.0108
   68MOL0     C 9067  10.671   0.389   6.561  0.7898  1.3769 -0.1603
   68MOL0     C 9068  10.714   0.372   6.713 -0.2997 -0.2806 -0.9219
   68MOL0     O 9069  10.621   0.457   6.797  0.1953  0.6280 -0.3119
   68MOL0     C 9070  10.513   0.402   6.858 -0.4640  0.1211 -0.6170
   68MOL0     C 9071  10.536   0.317   6.968 -0.2888 -0.5210 -0.5211
   68MOL0     C 9072  10.430   0.252   7.037 -0.5052  1.2410 -1.5452
   68MOL0     C 9073  10.297   0.268   6.995  0.8393 -0.5295  0.0769
   68MOL0     C 9074  10.178   0.216   7.074  0.0006  0.6381  1.1190
   68MOL0     O 9075  10.058   0.274   7.047  0.0446  0.3302 -0.2691
   68MOL0     C 9076   9.952   0.247   7.128  0.0799  0.0900  0.0899
   68MOL0     C 9077   9.864   0.137   7.093 -0.0375 -0.2780 -0.4087
   68MOL0     C 9078   9.750   0.139   7.166  1.9200  0.2284 -0.9496
   68MOL0     C 9079   9.708   0.221   7.268 -0.5029 -0.0002  0.2477
   68MOL0     O 9080   9.590   0.218   7.332 -0.8707  0.4437 -0.1765
   68MOL0     C 9081   9.580   0.261   7.477 -0.1146  1.0765  0.3256
   68MOL0     C 9082   9.544   0.401   7.501 -0.2160 -0.5912 -0.0744
   68MOL0     C 9083   9.449   0.464   7.398  0.1813  1.2655  0.2393
   68MOL0     C 9084   9.429   0.615   7.430 -0.4869  0.0267  0.3931
   68MOL0     C 9085   9.318   0.690   7.356 -0.2104  0.7765  0.1176
   68MOL0     C 9086   9.306   0.669   7.201  0.6152 -0.6608 -0.1941
   68MOL0     C 9087   9.351   0.784   7.117  0.5447 -0.7730 -0.4452
   68MOL0     C 9088   9.371   0.747   6.976  0.4277  0.6723  0.2622
   68MOL0    Cl 9089   9.217   0.661   6.918 -0.3430 -0.6311 -0.3441
   68MOL0     C 9090   9.813   0.320   7.310  0.5940 -0.0222  0.2628
   68MOL0     C 9091   9.937   0.330   7.242 -0.0376 -0.1982  0.2896
   68MOL0     O 9092  10.198   0.135   7.167 -1.0202 -0.2070  0.0731
   68MOL0     C 9093  10.266   0.346   6.882  0.0737  1.2972 -0.0767
   68MOL0     C 9094  10.375   0.413   6.816 -0.8268 -0.0167 -0.6246
   68MOL0     N 9095  10.748   0.144   6.252 -1.0539  0.0578 -0.8501
   68MOL0     N 9096  10.867   0.166   6.199 -0.6580 -1.4738 -1.0947
   68MOL0     C 9097  10.908   0.749   6.533 -0.6795 -0.3433 -0.1140
   68MOL0     C 9098  10.870   0.730   6.667 -0.1220 -0.6352 -0.1986
   68MOL0     C 9099  10.715   0.729   7.077 -0.6280  0.6656 -0.4016
   68MOL0     C 9100  10.624   0.832   7.112  0.0376  0.2321 -0.0586
   68MOL0     C 9101  10.568   0.833   7.238  0.2061  0.6931 -0.1269
   68MOL0     C 9102  10.585   0.729   7.331  0.2658 -0.4593 -1.0418
   68MOL0     O 9103  10.537   0.749   7.461 -0.3269  0.3023  0.6021
   68MOL0     C 9104  10.539   0.648   7.557 -0.2918  0.0885 -0.7519
   68MOL0     C 9105  10.450   0.687   7.672 -0.2573 -0.4041 -0.7815
   68MOL0     C 9106  10.516   0.618   7.807 -0.4214  1.3196  0.0288
   68MOL0     C 9107  10.492   0.469   7.816 -0.4974 -0.3660 -0.8381
   68MOL0     C 9108  10.562   0.409   7.933  0.0452  0.9969  0.8253
   68MOL0     C 9109  10.621   0.366   8.033 -0.3010 -0.7212 -0.1494
   68MOL0     C 9110  10.676   0.628   7.306 -0.2162 -1.0442  0.0337
   68MOL0     C 9111  10.729   0.615   7.171  0.6152 -0.6493 -0.3364
   68MOL0     C 9112  10.820   0.483   7.161  0.1138 -0.2205  0.1792
   68MOL0     H 9113  10.760   1.048   6.724  1.3776 -0.5676  1.3306
   68MOL0     H 9114  10.833   1.076   6.484 -1.2868 -1.3505 -1.4424
   68MOL0     H 9115  10.910   1.061   6.274 -0.9062  0.3167 -1.2959
   68MOL0     H 9116  11.078   1.021   6.318  1.1260 -0.7167 -1.8619
   68MOL0     H 9117  11.055   1.029   6.082  2.5214 -1.1614 -0.1197
   68MOL0     H 9118  10.939   0.890   6.086 -0.9366 -0.1989  0.2785
   68MOL0     H 9119  11.152   0.768   6.223  1.7198 -2.2296  0.1304
   68MOL0     H 9120  11.229   0.876   6.100 -1.0032  0.1081 -0.2054
   68MOL0     H 9121  10.996   0.680   6.052 -1.0375  1.9595 -1.7132
   68MOL0     H 9122  11.087   0.769   5.919  0.9058  0.3964 -0.0170
   68MOL0     H 9123  11.139   0.540   5.926  0.9105 -1.6291  0.3105
   68MOL0     H 9124  11.279   0.640   5.974  1.2637 -0.1514  0.7570
   68MOL0     H 9125  11.237   0.412   6.105 -3.6266 -0.4546 -3.5233
   68MOL0     H 9126  11.244   0.569   6.206  0.3011 -0.6548  0.7127
   68MOL0     H 9127  11.003   0.538   6.247 -0.0298 -0.3177  0.1364
   68MOL0     H 9128  11.108   0.396   6.275  1.5246  3.2203  1.8671
   68MOL0     H 9129  10.930   0.462   6.043  3.9017  2.4026  0.9695
   68MOL0     H 9130  11.034   0.321   6.039 -0.8090  0.9792 -1.5662
   68MOL0     H 9131  10.763   0.472   6.246  4.6738  0.8344 -2.4152
   68MOL0     H 9132  10.522   0.377   6.352  1.7420  1.8498  3.3244
   68MOL0     H 9133  10.494   0.197   6.334  1.4417  0.3613  0.2867
   68MOL0     H 9134  10.522   0.249   6.572 -0.0605 -0.0492  0.0199
   68MOL0     H 9135  10.678   0.171   6.510 -1.0688 -0.1743  0.3892
   68MOL0     H 9136  10.612   0.480   6.550  0.0098  0.8333 -0.6133
   68MOL0     H 9137  10.769   0.396   6.514  1.3326  3.1660  1.1591
   68MOL0     H 9138  10.814   0.411   6.734 -0.9237  0.1949  1.5264
   68MOL0     H 9139  10.720   0.265   6.733  1.5292 -1.0830 -4.7966
   68MOL0     H 9140  10.634   0.288   7.007  0.0335 -1.9391 -2.2404
   68MOL0     H 9141  10.460   0.192   7.122 -0.8528  0.1597 -2.1660
   68MOL0     H 9142   9.880   0.080   7.002  1.4436  0.5490 -0.6956
   68MOL0     H 9143   9.670   0.070   7.143 -1.6574  3.6786  0.1711
   68MOL0     H 9144   9.509   0.193   7.523  1.0202 -0.1705  0.2885
   68MOL0     H 9145   9.678   0.238   7.520  0.0176  0.7209 -0.1532
   68MOL0     H 9146   9.500   0.408   7.600  0.2487 -1.0156  0.1643
   68MOL0     H 9147   9.643   0.448   7.506 -0.5176  0.0067  0.4161
   68MOL0     H 9148   9.482   0.439   7.297  3.0146 -0.9816  1.5806
   68MOL0     H 9149   9.357   0.405   7.398  2.0886 -2.0725 -3.0935
   68MOL0     H 9150   9.517   0.663   7.388 -0.5395 -2.1188 -2.4926
   68MOL0     H 9151   9.419   0.626   7.538 -0.3915  2.4627  0.1978
   68MOL0     H 9152   9.318   0.799   7.369 -0.8836  0.7678  0.1769
   68MOL0     H 9153   9.225   0.652   7.399 -3.1225  1.5789 -4.7878
   68MOL0     H 9154   9.361   0.581   7.166  2.2822  1.1262 -2.3212
   68MOL0     H 9155   9.198   0.657   7.191  0.3381  0.0594  1.5675
   68MOL0     H 9156   9.446   0.825   7.153 -1.4377  1.7369  2.3236
   68MOL0     H 9157   9.275   0.862   7.113 -0.9737 -2.2075 -4.0135
   68MOL0     H 9158   9.411   0.825   6.910  0.3414 -1.9001 -3.0717
   68MOL0     H 9159   9.447   0.670   6.989  0.1236  0.1681 -0.8590
   68MOL0     H 9160   9.801   0.382   7.398 -0.8893  2.6230 -1.6490
   68MOL0     H 9161   9.996   0.417   7.269 -3.2573  2.1475  0.2219
   68MOL0     H 9162  10.168   0.374   6.846 -0.1110  0.7145 -0.0333
   68MOL0     H 9163  10.366   0.480   6.731  2.1395  0.5301 -0.6223
   68MOL0     H 9164  10.935   0.664   6.471  3.7064 -0.5379  1.6942
   68MOL0     H 9165  10.874   0.623   6.686 -1.8856 -1.0507 -1.8449
   68MOL0     H 9166  10.607   0.924   7.058  1.6444 -0.1502 -1.3196
   68MOL0     H 9167  10.520   0.928   7.261 -0.9024  0.1796 -0.2443
   68MOL0     H 9168  10.643   0.626   7.585 -0.3235 -2.6661 -2.4427
   68MOL0     H 9169  10.503   0.552   7.518 -0.1113 -1.8854  3.3846
   68MOL0     H 9170  10.352   0.640   7.663  1.2962 -3.8940 -0.9924
   68MOL0     H 9171  10.444   0.796   7.685  2.9072 -0.4495  2.1460
   68MOL0     H 9172  10.480   0.664   7.899  1.8200  2.3451  0.4503
   68MOL0     H 9173  10.624   0.633   7.806  0.0336 -1.0882 -3.3488
   68MOL0     H 9174  10.386   0.449   7.834 -0.4645  0.4495  0.4157
   68MOL0     H 9175  10.539   0.427   7.728 -2.5882 -1.0915 -1.6808
   68MOL0     H 9176  10.676   0.331   8.119 -0.4180  3.7096  2.0004
   68MOL0     H 9177  10.711   0.549   7.372  1.2914 -1.7799 -1.5694
   68MOL0     H 9178  10.763   0.394   7.189 -0.4454 -0.4342 -1.5269
   68MOL0     H 9179  10.844   0.454   7.059  3.7570  1.3192  0.4407
   68MOL0     H 9180  10.917   0.491   7.211  1.5532 -3.4113 -1.8108
   69MOL0     O 9181   3.141   0.298   1.241  0.3853  0.5436  0.5501
   69MOL0     C 9182   3.123   0.269   1.120  0.2668 -0.1651  0.6020
   69MOL0     O 9183   3.027   0.312   1.029 -0.0465 -0.4452  0.1361
   69MOL0     C 9184   2.923   0.388   1.075 -0.0881  0.0575  0.0662
   69MOL0     C 9185   2.933   0.533   1.064  0.5133  0.2728  0.3688
   69MOL0     C 9186   2.821   0.607   1.092 -0.2558  1.7947  0.1042
   69MOL0     C 9187   2.704   0.548   1.145 -0.0208 -0.0104  0.3049
   69MOL0     O 9188   2.602   0.637   1.178 -0.3687 -0.1811  0.7030
   69MOL0     C 9189   2.480   0.581   1.227  0.1838 -0.1970  0.5346
   69MOL0     C 9190   2.379   0.694   1.255 -0.4070 -0.0940  0.2509
   69MOL0     C 9191   2.234   0.648   1.263 -0.3549 -1.1853  0.3238
   69MOL0     C 9192   2.205   0.549   1.378  0.3299 -0.1594 -0.6151
   69MOL0     C 9193   2.059   0.501   1.384  0.0253 -0.4412 -0.8131
   69MOL0     C 9194   2.022   0.445   1.523 -0.8813 -0.9261  0.3397
   69MOL0     C 9195   1.925   0.340   1.515  0.0171  0.6427  0.4328
   69MOL0     C 9196   1.932   0.251   1.646 -0.1096 -1.3656  0.6859
   69MOL0     N 9197   1.904   0.325   1.764 -0.5057 -0.3495  0.3395
   69MOL0     C 9198   1.983   0.329   1.879 -0.0247  0.3940  1.0069
   69MOL0     C 9199   1.898   0.389   1.972 -0.0067  0.1746 -0.2814
   69MOL0     C 9200   1.940   0.433   2.116 -0.2297  0.3330 -0.5363
   69MOL0     C 9201   2.006   0.325   2.204  0.6131  0.5539  0.8818
   69MOL0     C 9202   2.044   0.365   2.349 -0.6483 -0.2485  1.0984
   69MOL0     C 9203   1.920   0.368   2.439 -0.9183 -1.1197  0.4121
   69MOL0     O 9204   1.961   0.406   2.572  0.6229 -0.3124 -0.8803
   69MOL0     C 9205   2.034   0.313   2.648  0.0337 -0.0749  1.2145
   69MOL0     C 9206   2.050   0.177   2.619  0.7641 -0.9053  0.0017
   69MOL0     C 9207   2.109   0.092   2.718 -0.5101 -0.0605 -1.0936
   69MOL0     C 9208   2.142   0.131   2.846 -0.2908  0.3995 -1.0590
   69MOL0     C 9209   2.183   0.035   2.948  0.2139 -0.5903 -0.6266
   69MOL0     O 9210   2.153   0.069   3.071 -0.4940  0.1689 -0.1288
   69MOL0     C 9211   2.146  -0.031   3.163 -1.2777  0.9450  0.0152
   69MOL0     C 9212   2.271  -0.100   3.200  0.6979  0.4263  0.6338
   69MOL0     C 9213   2.283  -0.182   3.314  0.0530  0.3619 -0.1032
   69MOL0     C 9214   2.170  -0.198   3.395  0.0963  0.2612 -0.2680
   69MOL0     O 9215   2.154  -0.280   3.508  0.2734 -0.2391 -0.0283
   69MOL0     C 9216   2.245  -0.238   3.617 -0.0170  0.0629 -0.3106
   69MOL0     C 9217   2.367  -0.339   3.619  0.4373 -0.2904  1.1158
   69MOL0     C 9218   2.309  -0.477   3.659  0.4242 -0.9130  0.3515
   69MOL0     C 9219   2.423  -0.581   3.676 -1.2816  0.6610 -0.7764
   69MOL0     C 9220   2.360  -0.719   3.650  0.2834 -0.1385 -0.3543
   69MOL0     C 9221   2.352  -0.748   3.496  0.5038 -0.9382 -0.2416
   69MOL0     C 9222   2.243  -0.852   3.481  0.6970 -0.9985 -0.3834
   69MOL0     C 9223   2.233  -0.916   3.340  0.4972 -0.1073  1.0241
   69MOL0    Cl 9224   2.135  -0.801   3.239  0.3716  0.6968  0.0823
   69MOL0     C 9225   2.043  -0.144   3.351 -0.0715  0.0016  0.3389
   69MOL0     C 9226   2.038  -0.056   3.240  0.2332 -0.1601 -0.5001
   69MOL0     O 9227   2.219  -0.075   2.908  0.9141  0.5415  0.1550
   69MOL0     C 9228   2.113   0.264   2.877  0.2378 -0.6543  0.1592
   69MOL0     C 9229   2.072   0.361   2.784 -0.3315 -0.3180  1.0451
   69MOL0     N 9230   1.772   0.406   1.925 -0.1469  0.6389  0.0748
   69MOL0     N 9231   1.777   0.364   1.802 -0.4312  0.7720 -0.2879
   69MOL0     C 9232   2.712   0.418   1.189  0.9077 -0.4389  1.0797
   69MOL0     C 9233   2.813   0.340   1.141 -1.3594  0.9909 -0.5515
   69MOL0     C 9234   3.204   0.150   1.079  0.8671  0.1371 -0.9807
   69MOL0     C 9235   3.162   0.084   0.970 -0.5476  0.5126  0.0181
   69MOL0     C 9236   3.236  -0.022   0.910  0.3398 -0.5050  0.5638
   69MOL0     C 9237   3.368  -0.052   0.952  0.5192 -0.2694 -0.5209
   69MOL0     O 9238   3.424  -0.162   0.897 -0.1032  0.7300  0.0370
   69MOL0     C 9239   3.485  -0.130   0.773 -0.1276  0.5790 -0.0676
   69MOL0     C 9240   3.616  -0.214   0.770 -0.4783 -0.1615 -0.7133
   69MOL0     C 9241   3.576  -0.360   0.732  0.2955  0.0750 -0.2273
   69MOL0     C 9242   3.587  -0.361   0.585  1.0084  0.0988 -0.4066
   69MOL0     C 9243   3.718  -0.392   0.530 -0.8958  0.6256 -1.6007
   69MOL0     C 9244   3.819  -0.459   0.496 -0.3660  0.1412  0.7821
   69MOL0     C 9245   3.416   0.015   1.072 -0.0144 -0.7604  0.5139
   69MOL0     C 9246   3.335   0.108   1.136 -0.4319  0.0585  0.7726
   69MOL0     C 9247   3.399   0.182   1.260 -0.2667  0.4065 -0.0955
   69MOL0     H 9248   3.017   0.579   1.014  1.0105 -0.3712  0.5958
   69MOL0     H 9249   2.829   0.715   1.097  0.2148  1.7549  0.2539
   69MOL0     H 9250   2.449   0.514   1.146  0.2496 -0.1432  0.4651
   69MOL0     H 9251   2.508   0.524   1.316  0.8169 -1.7840 -0.6222
   69MOL0     H 9252   2.381   0.760   1.167  0.3635 -1.2448 -0.6196
   69MOL0     H 9253   2.418   0.753   1.338  1.1295 -1.6549  0.6807
   69MOL0     H 9254   2.200   0.595   1.174  2.1063 -4.8427  1.3362
   69MOL0     H 9255   2.176   0.733   1.300 -0.5205  0.3215 -3.0749
   69MOL0     H 9256   2.262   0.457   1.364  0.4608 -0.4661  1.6285
   69MOL0     H 9257   2.226   0.596   1.475 -1.3663 -1.2442  0.3350
   69MOL0     H 9258   1.986   0.576   1.352  0.5768  0.9223  1.0085
   69MOL0     H 9259   2.052   0.428   1.302  3.7960  0.8577 -2.5155
   69MOL0     H 9260   2.116   0.410   1.565  1.1911 -1.6542 -4.2383
   69MOL0     H 9261   1.982   0.526   1.585  0.7461  0.3569 -0.2085
   69MOL0     H 9262   1.957   0.274   1.434  0.0750  1.7231 -0.4480
   69MOL0     H 9263   1.827   0.383   1.492 -0.4982  0.0892  1.5385
   69MOL0     H 9264   1.856   0.175   1.629 -3.2040  1.9164 -1.7805
   69MOL0     H 9265   2.034   0.210   1.638  1.6047  2.7028 -1.0870
   69MOL0     H 9266   2.088   0.320   1.905  0.3518  3.0431  0.6501
   69MOL0     H 9267   2.021   0.506   2.112  0.0596 -0.0120 -1.1094
   69MOL0     H 9268   1.858   0.471   2.178  2.0095  1.2814  2.0677
   69MOL0     H 9269   1.939   0.239   2.196 -3.1013  3.3538 -1.5286
   69MOL0     H 9270   2.093   0.291   2.146 -0.1599 -1.1323  0.6266
   69MOL0     H 9271   2.109   0.453   2.355  0.6569 -1.1883  1.2917
   69MOL0     H 9272   2.118   0.290   2.381  1.0459  0.8300 -0.1079
   69MOL0     H 9273   1.878   0.267   2.437 -0.1315 -1.5797 -4.0493
   69MOL0     H 9274   1.841   0.434   2.402  1.2535  1.3378 -0.1539
   69MOL0     H 9275   2.021   0.124   2.529 -1.3263  1.9527 -1.1766
   69MOL0     H 9276   2.134  -0.013   2.704  0.4067  0.0738 -0.4902
   69MOL0     H 9277   2.365  -0.078   3.151 -0.0737  0.3692 -0.9663
   69MOL0     H 9278   2.378  -0.230   3.333  0.0387  0.6776  0.7925
   69MOL0     H 9279   2.282  -0.136   3.606 -2.0243  0.9712  0.7817
   69MOL0     H 9280   2.193  -0.247   3.713  0.1054  1.8743 -0.0490
   69MOL0     H 9281   2.414  -0.351   3.521  0.3856 -3.2809  1.3758
   69MOL0     H 9282   2.435  -0.311   3.700  1.8566  0.7533 -0.3555
   69MOL0     H 9283   2.266  -0.472   3.759  0.6806  0.7364  0.4211
   69MOL0     H 9284   2.244  -0.515   3.581 -1.1218  1.9973  0.0812
   69MOL0     H 9285   2.461  -0.580   3.779  2.7693  4.4809 -1.9977
   69MOL0     H 9286   2.516  -0.563   3.622 -0.9745  1.5744  0.0222
   69MOL0     H 9287   2.262  -0.727   3.699 -0.5611 -2.0689 -2.1897
   69MOL0     H 9288   2.432  -0.795   3.680  4.1769  2.8341 -1.3980
   69MOL0     H 9289   2.334  -0.651   3.448 -1.9974 -0.1213  2.1120
   69MOL0     H 9290   2.449  -0.783   3.459  1.4962 -0.0316  1.3834
   69MOL0     H 9291   2.145  -0.814   3.512  0.8164 -1.3059  0.3952
   69MOL0     H 9292   2.283  -0.922   3.555  0.0648 -0.6583  0.2980
   69MOL0     H 9293   2.336  -0.930   3.307  0.1076 -1.3337  0.2573
   69MOL0     H 9294   2.182  -1.012   3.353  0.3725  0.0883  2.0800
   69MOL0     H 9295   1.947  -0.166   3.398 -0.7021  0.2924 -0.7688
   69MOL0     H 9296   1.947  -0.008   3.207 -0.4219 -2.9834 -3.2708
   69MOL0     H 9297   2.138   0.307   2.974 -0.9741  0.3055  0.0700
   69MOL0     H 9298   2.060   0.467   2.806 -1.6041  0.0666 -1.1911
   69MOL0     H 9299   2.626   0.370   1.235  1.9044 -1.9837  1.4146
   69MOL0     H 9300   2.807   0.233   1.159 -0.1656  0.6362 -2.1057
   69MOL0     H 9301   3.065   0.108   0.927 -0.0053  3.9658  0.4310
   69MOL0     H 9302   3.204  -0.065   0.816 -0.3588  0.2536  0.4420
   69MOL0     H 9303   3.499  -0.022   0.764 -0.0700  0.5098 -0.8467
   69MOL0     H 9304   3.420  -0.154   0.689  0.0381  5.9688 -2.1574
   69MOL0     H 9305   3.669  -0.207   0.865 -1.2547 -1.2393 -0.1902
   69MOL0     H 9306   3.679  -0.159   0.700 -2.0913  0.3781 -1.8085
   69MOL0     H 9307   3.473  -0.378   0.764  0.9627 -1.7777  1.0188
   69MOL0     H 9308   3.633  -0.442   0.777  0.6435  0.1992 -0.4338
   69MOL0     H 9309   3.521  -0.445   0.562 -0.1299  0.3881  1.5689
   69MOL0     H 9310   3.531  -0.285   0.529  0.6281 -1.8917 -2.8803
   69MOL0     H 9311   3.906  -0.518   0.477 -1.2898 -1.0222  0.0212
   69MOL0     H 9312   3.502  -0.030   1.121  0.5535 -1.4278 -1.0207
   69MOL0     H 9313   3.389   0.291   1.259  1.2495  0.5643 -1.1192
   69MOL0     H 9314   3.351   0.131   1.343 -0.1843 -2.8075 -1.8424
   69MOL0     H 9315   3.506   0.164   1.256  0.3841  3.7004 -1.1738
   70MOL0     O 9316   6.845   1.539   9.441 -0.6422  0.5375 -0.0777
   70MOL0     C 9317   6.762   1.521   9.349 -0.0387  0.2679 -0.4077
   70MOL0     O 9318   6.729   1.605   9.236 -0.7884 -0.4886  0.8286
   70MOL0     C 9319   6.822   1.700   9.218 -0.7536  0.2825  0.5611
   70MOL0     C 9320   6.899   1.687   9.100 -0.2050 -0.2928 -0.5040
   70MOL0     C 9321   6.995   1.779   9.073 -0.0364 -0.0751 -1.2943
   70MOL0     C 9322   7.026   1.882   9.171 -0.3207 -0.0399 -0.5657
   70MOL0     O 9323   7.133   1.966   9.144 -0.1532  0.6025  0.6804
   70MOL0     C 9324   7.101   2.101   9.102 -0.2079 -0.2476 -0.0615
   70MOL0     C 9325   7.140   2.122   8.951  0.8064 -0.0769 -0.1287
   70MOL0     C 9326   7.289   2.128   8.928 -0.4262 -0.3876 -0.0131
   70MOL0     C 9327   7.325   2.167   8.784  0.5217  1.3466 -0.2510
   70MOL0     C 9328   7.305   2.318   8.750  0.5299 -0.9333  0.8246
   70MOL0     C 9329   7.358   2.330   8.606 -0.0753  0.9608 -0.2340
   70MOL0     C 9330   7.335   2.461   8.522  0.6104  0.9869  0.1222
   70MOL0     C 9331   7.370   2.434   8.373 -1.1143  0.7705  0.0519
   70MOL0     N 9332   7.343   2.547   8.288 -0.0156 -0.1948  0.2618
   70MOL0     C 9333   7.220   2.611   8.276  0.2002  0.0879 -0.0482
   70MOL0     C 9334   7.236   2.694   8.166 -0.1843 -0.2575 -0.3697
   70MOL0     C 9335   7.124   2.775   8.096  0.1492 -0.5519  1.3670
   70MOL0     C 9336   7.172   2.846   7.967  0.4605  0.4849 -0.3913
   70MOL0     C 9337   7.091   2.951   7.902  1.0957 -0.3704 -0.2368
   70MOL0     C 9338   7.165   3.035   7.798  0.0100 -0.0101 -0.2545
   70MOL0     O 9339   7.199   2.950   7.696  0.5359 -0.0276 -0.6781
   70MOL0     C 9340   7.288   3.000   7.604  0.9148 -0.0427  0.3225
   70MOL0     C 9341   7.312   2.922   7.490 -1.3318  0.1481 -0.2843
   70MOL0     C 9342   7.407   2.970   7.401  0.6760 -0.2523  0.9758
   70MOL0     C 9343   7.465   3.099   7.404  0.3099  0.0651 -0.4596
   70MOL0     C 9344   7.577   3.130   7.312  0.3125 -0.2266  1.2443
   70MOL0     O 9345   7.611   3.031   7.216  0.3688 -0.0551  0.1820
   70MOL0     C 9346   7.717   3.067   7.130  0.0542 -0.9993  0.1894
   70MOL0     C 9347   7.829   2.981   7.139  0.3600  0.3261  0.0824
   70MOL0     C 9348   7.925   2.979   7.043  0.5270 -0.2759  0.4337
   70MOL0     C 9349   7.909   3.055   6.923  0.9750  0.6086  0.0766
   70MOL0     O 9350   8.001   3.047   6.820  0.5343  0.5623 -0.0174
   70MOL0     C 9351   8.065   2.923   6.801 -0.5595  0.0558  0.2958
   70MOL0     C 9352   8.149   2.915   6.677 -0.1649  0.6663 -0.3939
   70MOL0     C 9353   8.074   2.856   6.557  0.1280  0.6958 -0.6945
   70MOL0     C 9354   7.956   2.943   6.515 -0.2705  0.7939  0.0141
   70MOL0     C 9355   7.890   2.853   6.408 -0.1084 -0.7794  0.3619
   70MOL0     C 9356   7.752   2.908   6.371  0.0376  0.0082  0.0901
   70MOL0     C 9357   7.749   3.059   6.340 -0.3219 -0.2123 -0.0694
   70MOL0     C 9358   7.635   3.094   6.249 -0.1657 -0.2351 -0.1819
   70MOL0    Cl 9359   7.642   3.273   6.221  0.0332  0.5548 -0.3817
   70MOL0     C 9360   7.804   3.146   6.913 -0.0273 -1.2406  0.6570
   70MOL0     C 9361   7.703   3.141   7.015 -0.0533  0.7121 -0.1561
   70MOL0     O 9362   7.636   3.240   7.329 -0.5925 -0.4149  0.6462
   70MOL0     C 9363   7.432   3.174   7.515  0.2737  1.0180  0.6772
   70MOL0     C 9364   7.345   3.128   7.612  0.8305 -0.6746 -0.3338
   70MOL0     N 9365   7.363   2.681   8.121  0.3638 -0.1176  0.3002
   70MOL0     N 9366   7.430   2.591   8.198  0.0790 -0.4236  0.3018
   70MOL0     C 9367   6.953   1.899   9.285  1.2684  0.3164  0.3103
   70MOL0     C 9368   6.847   1.810   9.303 -0.8255  0.7008 -0.3948
   70MOL0     C 9369   6.672   1.402   9.346  0.9576  1.0849  0.5245
   70MOL0     C 9370   6.542   1.416   9.280  0.6466  0.3741 -0.1274
   70MOL0     C 9371   6.451   1.311   9.281 -0.4295  0.4022  1.2709
   70MOL0     C 9372   6.476   1.195   9.348 -0.3407  0.6584 -0.7316
   70MOL0     O 9373   6.387   1.081   9.357  0.0719 -0.6197  0.2642
   70MOL0     C 9374   6.264   1.075   9.286 -0.0512  0.1160  0.4311
   70MOL0     C 9375   6.154   1.100   9.386  0.0132  0.0672 -0.8851
   70MOL0     C 9376   6.097   1.247   9.393 -0.2662 -0.0234 -0.2048
   70MOL0     C 9377   5.964   1.256   9.445  0.9426 -0.2962  0.3331
   70MOL0     C 9378   5.950   1.213   9.585  0.5999 -0.9187  1.1854
   70MOL0     C 9379   5.944   1.193   9.701  0.0183  0.3719  0.2992
   70MOL0     C 9380   6.596   1.175   9.418 -0.4336 -0.3411  0.6283
   70MOL0     C 9381   6.698   1.274   9.411  0.5008 -0.7168 -0.4373
   70MOL0     C 9382   6.824   1.238   9.484 -0.2423 -1.3766 -0.1417
   70MOL0     H 9383   6.889   1.609   9.025 -1.3816 -1.2132  0.5674
   70MOL0     H 9384   7.066   1.759   8.994  0.4714 -2.1803 -0.3712
   70MOL0     H 9385   6.994   2.116   9.117 -0.2195 -0.3022 -0.0897
   70MOL0     H 9386   7.158   2.173   9.162  1.1965 -3.3054  2.6435
   70MOL0     H 9387   7.082   2.206   8.913  0.9963 -1.3063 -3.4843
   70MOL0     H 9388   7.103   2.038   8.892  2.1073 -2.2846  1.9932
   70MOL0     H 9389   7.320   2.025   8.943 -1.1296 -0.4448  1.1739
   70MOL0     H 9390   7.353   2.181   8.999  1.5937 -1.4359 -0.9787
   70MOL0     H 9391   7.424   2.125   8.764 -0.3613 -1.2864  0.4799
   70MOL0     H 9392   7.270   2.102   8.715 -1.0042  1.6229  0.6739
   70MOL0     H 9393   7.199   2.346   8.751  0.6265 -0.4437 -0.4128
   70MOL0     H 9394   7.347   2.384   8.826 -0.3026  1.8099 -0.9236
   70MOL0     H 9395   7.466   2.316   8.597 -0.5018 -1.8560 -1.9144
   70MOL0     H 9396   7.318   2.247   8.547 -0.8718  2.4937 -1.9371
   70MOL0     H 9397   7.389   2.549   8.558  0.6378  0.2938  1.8621
   70MOL0     H 9398   7.228   2.485   8.519 -0.0377 -1.6968 -1.1774
   70MOL0     H 9399   7.477   2.411   8.377 -0.4806  3.2243 -0.9269
   70MOL0     H 9400   7.322   2.349   8.324  2.9084 -1.3595 -0.6544
   70MOL0     H 9401   7.126   2.601   8.330 -0.6911  2.4493 -1.0290
   70MOL0     H 9402   7.048   2.700   8.074  0.7846 -0.6837 -0.5369
   70MOL0     H 9403   7.078   2.850   8.161 -1.0339 -1.3923  1.5253
   70MOL0     H 9404   7.272   2.882   7.991 -1.3342  3.7584  3.4486
   70MOL0     H 9405   7.174   2.762   7.897  1.0791  1.8350 -2.0339
   70MOL0     H 9406   7.039   3.013   7.976  1.2797 -0.8930  0.3357
   70MOL0     H 9407   7.011   2.895   7.853 -1.3254  0.9314  2.0081
   70MOL0     H 9408   7.253   3.076   7.849 -0.2150  0.5798 -0.3335
   70MOL0     H 9409   7.115   3.125   7.762  1.8594  1.8489  1.5255
   70MOL0     H 9410   7.269   2.822   7.495 -3.1047  0.8495 -0.7304
   70MOL0     H 9411   7.440   2.899   7.326 -1.4285 -0.9139  0.5982
   70MOL0     H 9412   7.828   2.908   7.220 -0.4495  0.3733  0.1272
   70MOL0     H 9413   8.010   2.913   7.061  3.1496  1.7483 -3.2233
   70MOL0     H 9414   8.134   2.912   6.885 -1.6152  0.9431  1.3150
   70MOL0     H 9415   7.993   2.841   6.800 -1.2128  0.5762 -2.3916
   70MOL0     H 9416   8.194   3.012   6.654  1.4744  0.2241  0.7873
   70MOL0     H 9417   8.229   2.842   6.692  0.0412  0.4492 -2.2778
   70MOL0     H 9418   8.135   2.817   6.475 -0.7730 -1.1598 -0.5379
   70MOL0     H 9419   8.040   2.756   6.585  0.8051  0.7834  0.5168
   70MOL0     H 9420   7.988   3.040   6.476  1.9466 -0.5241 -1.6698
   70MOL0     H 9421   7.891   2.969   6.599  1.3240 -2.4119  2.4725
   70MOL0     H 9422   7.888   2.754   6.453  0.1966 -0.6895  0.5756
   70MOL0     H 9423   7.948   2.847   6.315 -1.5004  1.8960 -0.8228
   70MOL0     H 9424   7.716   2.853   6.284  3.8770 -3.2448  0.2818
   70MOL0     H 9425   7.686   2.887   6.456  1.2926  1.7097  1.5836
   70MOL0     H 9426   7.851   3.083   6.310  1.0989  0.5702  4.5773
   70MOL0     H 9427   7.727   3.119   6.429  0.6592  0.1584 -0.0656
   70MOL0     H 9428   7.649   3.041   6.154  1.3412 -0.9505  0.4284
   70MOL0     H 9429   7.540   3.063   6.294  2.2659 -3.4118  3.2263
   70MOL0     H 9430   7.790   3.205   6.823 -2.0929  0.6399  2.0928
   70MOL0     H 9431   7.619   3.209   7.015  1.7569  3.1939  2.3800
   70MOL0     H 9432   7.488   3.267   7.521  0.8019  1.4470 -5.0026
   70MOL0     H 9433   7.335   3.197   7.696  3.3232  1.2127 -1.4532
   70MOL0     H 9434   6.966   1.985   9.350  1.3285  2.3118 -2.1782
   70MOL0     H 9435   6.802   1.834   9.398 -1.2121 -1.2358 -0.0414
   70MOL0     H 9436   6.492   1.505   9.244 -0.6756 -0.9482 -1.8108
   70MOL0     H 9437   6.358   1.326   9.227  1.3457  1.8236 -1.6774
   70MOL0     H 9438   6.260   0.981   9.231 -0.0599  1.7600 -2.5800
   70MOL0     H 9439   6.264   1.151   9.207 -0.5211  0.4494  0.7435
   70MOL0     H 9440   6.173   1.063   9.487 -1.7483 -0.7615 -0.8161
   70MOL0     H 9441   6.078   1.033   9.345  1.6655 -0.1469 -3.8595
   70MOL0     H 9442   6.107   1.278   9.289  1.1623 -0.0455 -0.0885
   70MOL0     H 9443   6.176   1.299   9.448  2.9301 -2.0411 -2.5107
   70MOL0     H 9444   5.932   1.360   9.439  0.3981 -0.3568  1.8519
   70MOL0     H 9445   5.903   1.194   9.379 -1.4494 -0.3115  2.4278
   70MOL0     H 9446   5.934   1.158   9.802 -3.5282  0.5921  0.1481
   70MOL0     H 9447   6.613   1.095   9.489  0.6623  0.0840  0.8670
   70MOL0     H 9448   6.865   1.319   9.546  0.1194 -1.0932 -0.7398
   70MOL0     H 9449   6.813   1.146   9.541  0.1641 -0.3097  1.7308
   70MOL0     H 9450   6.907   1.227   9.413  0.8248 -0.7145  0.9723
   71MOL0     O 9451   9.536   9.702  10.034  0.4826  0.3304  0.0418
   71MOL0     C 9452   9.449   9.617  10.043  0.4462 -0.4132  0.8939
   71MOL0     O 9453   9.469   9.477  10.047 -0.0569 -0.7971  0.5946
   71MOL0     C 9454   9.587   9.422   9.997  0.1267  0.2169 -0.5395
   71MOL0     C 9455   9.674   9.495   9.918  0.1494  0.6477  0.8577
   71MOL0     C 9456   9.802   9.439   9.881  0.3447  0.2487  0.6134
   71MOL0     C 9457   9.830   9.303   9.911  0.5491  0.2445  0.5833
   71MOL0     O 9458   9.942   9.230   9.888 -0.6462  0.1983 -0.7219
   71MOL0     C 9459  10.061   9.320   9.880 -0.5624  0.1995  0.1048
   71MOL0     C 9460  10.177   9.231   9.887  0.6778  0.5834 -0.4378
   71MOL0     C 9461  10.201   9.182  10.031 -0.0568 -0.1261  0.0783
   71MOL0     C 9462  10.299   9.266  10.099 -0.4072  0.7098 -1.3011
   71MOL0     C 9463  10.433   9.233  10.050  0.0139  0.7048  0.5860
   71MOL0     C 9464  10.552   9.327  10.087 -0.6353  0.4285  0.3488
   71MOL0     C 9465  10.679   9.315   9.993 -0.1262  0.0051 -0.3938
   71MOL0     C 9466  10.708   9.437   9.905  0.1420 -0.3353  0.3708
   71MOL0     N 9467  10.840   9.419   9.834 -0.2083 -0.0665 -0.4384
   71MOL0     C 9468  10.965   9.431   9.899 -0.8502  0.4655  0.7667
   71MOL0     C 9469  11.052   9.380   9.801  0.4251  0.5029  0.3369
   71MOL0     C 9470  11.203   9.401   9.812  0.4525  0.5498 -0.9117
   71MOL0     C 9471  11.250   9.443   9.955 -0.5175 -1.4355  0.0549
   71MOL0     C 9472  11.236   9.597   9.968 -0.3329 -0.0226 -0.1843
   71MOL0     C 9473  11.243   9.627  10.114  0.7471 -0.2526  0.1260
   71MOL0     O 9474  11.131   9.591  10.201  0.5418  0.5311 -0.9512
   71MOL0     C 9475  11.012   9.662  10.183  0.2473 -0.1301 -0.2908
   71MOL0     C 9476  10.979   9.788  10.130 -0.3685 -0.1826  0.1120
   71MOL0     C 9477  10.846   9.829  10.127  0.7965  0.6138 -1.0436
   71MOL0     C 9478  10.743   9.741  10.180  0.2143 -0.5317 -0.4865
   71MOL0     C 9479  10.603   9.779  10.169  0.6605  0.2215  0.5078
   71MOL0     O 9480  10.559   9.835  10.048  0.2688  0.0683 -0.6203
   71MOL0     C 9481  10.423   9.832  10.014 -0.7184 -0.7989  0.6799
   71MOL0     C 9482  10.350   9.711   9.998 -0.2905  0.5862  0.5865
   71MOL0     C 9483  10.210   9.714   9.958  0.3626 -0.3880 -0.7257
   71MOL0     C 9484  10.143   9.833   9.951  0.7128 -0.4251  0.7998
   71MOL0     O 9485  10.008   9.833   9.913  0.3144  0.7345  0.0291
   71MOL0     C 9486   9.919   9.823  10.024  0.4234 -0.8663 -0.2956
   71MOL0     C 9487   9.904   9.937  10.112  0.4969 -0.3630 -0.1606
   71MOL0     C 9488   9.756   9.945  10.156 -0.5039 -0.5712 -0.9275
   71MOL0     C 9489   9.731  10.053  10.272  0.6012 -0.0170  0.5094
   71MOL0     C 9490   9.584  10.065  10.320  0.6715 -0.1682  0.0729
   71MOL0     C 9491   9.520   9.937  10.362  0.0247 -0.5511  1.2697
   71MOL0     C 9492   9.379   9.968  10.409  1.3497 -0.1784  0.7210
   71MOL0     C 9493   9.310   9.834  10.448  0.0166 -0.5832  0.5123
   71MOL0    Cl 9494   9.139   9.859  10.479  0.5382 -0.2391 -0.0848
   71MOL0     C 9495  10.210   9.951   9.962 -0.1807  0.3220  0.6397
   71MOL0     C 9496  10.344   9.951   9.990  0.0392 -0.3352 -0.5793
   71MOL0     O 9497  10.527   9.733  10.257 -0.3860  0.6740  0.3010
   71MOL0     C 9498  10.779   9.623  10.237 -0.5766  1.0224  0.7151
   71MOL0     C 9499  10.912   9.582  10.242 -0.2810 -0.0843  0.2902
   71MOL0     N 9500  10.977   9.328   9.692 -0.1860  0.2676 -0.0127
   71MOL0     N 9501  10.851   9.365   9.716 -0.1284  1.7343 -0.0617
   71MOL0     C 9502   9.729   9.232   9.976 -0.4012  0.3555 -0.1934
   71MOL0     C 9503   9.614   9.289  10.024  0.3257 -0.3885 -0.5962
   71MOL0     C 9504   9.312   9.671  10.085  0.0542  0.5320 -1.1762
   71MOL0     C 9505   9.239   9.589  10.170 -0.0139  0.3037  0.1375
   71MOL0     C 9506   9.111   9.623  10.202  1.1666 -0.0526 -0.8748
   71MOL0     C 9507   9.051   9.749  10.158 -0.4229  0.6377  1.0570
   71MOL0     O 9508   8.934   9.811  10.211  0.0493  0.5351 -0.0040
   71MOL0     C 9509   8.869   9.738  10.322 -1.0913 -1.0794  0.1363
   71MOL0     C 9510   8.759   9.650  10.270 -0.1021 -0.4378 -0.2127
   71MOL0     C 9511   8.629   9.738  10.254  0.4936 -0.3476  0.8580
   71MOL0     C 9512   8.653   9.870  10.173  0.1866 -0.3438  0.1946
   71MOL0     C 9513   8.510   9.927  10.172  1.1387  0.4024 -0.6021
   71MOL0     C 9514   8.391   9.949  10.169  0.4006 -0.4104 -1.8454
   71MOL0     C 9515   9.133   9.831  10.078 -0.1184  0.3914  0.1247
   71MOL0     C 9516   9.259   9.792  10.031  0.0669 -0.0631 -1.1474
   71MOL0     C 9517   9.326   9.896   9.935  1.0641  0.5886  0.2272
   71MOL0     H 9518   9.646   9.596   9.888 -1.2164  0.5996  1.9076
   71MOL0     H 9519   9.874   9.481   9.812 -0.6766 -0.0353 -0.6488
   71MOL0     H 9520  10.057   9.370   9.783  2.2007 -1.0753 -0.7660
   71MOL0     H 9521  10.078   9.379   9.970 -0.4571 -2.4243  1.9369
   71MOL0     H 9522  10.268   9.266   9.838 -0.0200  0.7049 -1.6789
   71MOL0     H 9523  10.160   9.139   9.830  2.4874  0.7331 -1.2918
   71MOL0     H 9524  10.246   9.082  10.024  3.6371  1.1045  2.9777
   71MOL0     H 9525  10.107   9.163  10.084  0.2402 -1.4160  0.1940
   71MOL0     H 9526  10.292   9.374  10.080  0.1375  0.4603 -3.0957
   71MOL0     H 9527  10.299   9.246  10.206 -3.4998  2.1681 -0.9289
   71MOL0     H 9528  10.447   9.128  10.075 -1.5483 -0.4444 -2.7739
   71MOL0     H 9529  10.433   9.243   9.941 -0.6264  0.3955  0.5533
   71MOL0     H 9530  10.506   9.427  10.083 -0.8999  0.3721  1.5296
   71MOL0     H 9531  10.581   9.311  10.192  0.2109  1.3401  0.2639
   71MOL0     H 9532  10.652   9.228   9.932 -0.9720  0.9190 -1.3450
   71MOL0     H 9533  10.769   9.293  10.052 -0.3288 -4.6994 -1.4362
   71MOL0     H 9534  10.627   9.437   9.831  0.6396 -0.1154 -0.1765
   71MOL0     H 9535  10.706   9.530   9.962  5.1931  1.2996 -1.6335
   71MOL0     H 9536  10.987   9.473   9.996 -2.1803  1.4047  0.6978
   71MOL0     H 9537  11.266   9.321   9.770  0.6567 -0.3620  1.0283
   71MOL0     H 9538  11.212   9.489   9.747  1.0206  1.7514  0.7345
   71MOL0     H 9539  11.190   9.391  10.030  0.0467 -0.9199  0.8843
   71MOL0     H 9540  11.353   9.409   9.971 -1.0906 -3.5299 -0.4491
   71MOL0     H 9541  11.140   9.633   9.928  0.5761  0.7140 -1.8416
   71MOL0     H 9542  11.315   9.643   9.908  3.2765 -2.1326  2.5606
   71MOL0     H 9543  11.258   9.735  10.116  2.5883 -0.3407 -2.7136
   71MOL0     H 9544  11.337   9.592  10.158 -0.7764 -2.6968  1.6966
   71MOL0     H 9545  11.056   9.855  10.093  0.4922 -1.0135  0.3929
   71MOL0     H 9546  10.816   9.920  10.077 -1.0473 -0.9072 -2.8920
   71MOL0     H 9547  10.399   9.615  10.009  0.9540  1.4170  2.9363
   71MOL0     H 9548  10.168   9.614   9.954 -0.1716 -0.5099  3.3619
   71MOL0     H 9549   9.821   9.800   9.980 -0.0664  3.8051 -2.3538
   71MOL0     H 9550   9.946   9.733  10.078 -2.6698 -1.8336 -0.1518
   71MOL0     H 9551   9.963   9.931  10.204 -0.6187  2.0845  0.7924
   71MOL0     H 9552   9.943  10.031  10.071  0.7268  1.1283  3.1661
   71MOL0     H 9553   9.699   9.985  10.072 -1.1828  3.0190  1.0621
   71MOL0     H 9554   9.714   9.845  10.173 -2.7867  0.3475 -0.8808
   71MOL0     H 9555   9.776  10.150  10.248  2.6813 -0.9063  0.5825
   71MOL0     H 9556   9.791  10.013  10.354  1.8838 -3.1908 -1.7754
   71MOL0     H 9557   9.527  10.100  10.233 -0.8255 -0.1109  1.0267
   71MOL0     H 9558   9.572  10.148  10.390 -2.3921  0.9163 -1.5473
   71MOL0     H 9559   9.536   9.864  10.282  1.3882 -0.1801  1.1845
   71MOL0     H 9560   9.568   9.890  10.449 -0.7759 -3.0355  0.4672
   71MOL0     H 9561   9.318  10.007  10.326  1.6855 -1.6528 -0.2543
   71MOL0     H 9562   9.367  10.040  10.490 -3.8106  0.4513 -0.2559
   71MOL0     H 9563   9.325   9.769  10.361 -0.0347  0.4975 -0.3229
   71MOL0     H 9564   9.361   9.796  10.537 -0.6143 -0.7709  0.7941
   71MOL0     H 9565  10.166  10.050   9.969 -0.5135  0.1293  1.2723
   71MOL0     H 9566  10.396  10.045  10.004  2.3317 -1.7714  1.2425
   71MOL0     H 9567  10.705   9.547  10.259  2.2326 -1.7068  1.5318
   71MOL0     H 9568  10.935   9.484  10.284 -2.5370 -2.2945 -3.0856
   71MOL0     H 9569   9.744   9.125   9.986  0.5167  0.5123  0.2547
   71MOL0     H 9570   9.552   9.215  10.075  1.2876 -0.4671  0.4990
   71MOL0     H 9571   9.272   9.494  10.210  1.7798  2.5378  4.6578
   71MOL0     H 9572   9.058   9.574  10.284 -0.6586  2.2255 -0.5819
   71MOL0     H 9573   8.836   9.826  10.379  2.1178  0.9620 -0.8781
   71MOL0     H 9574   8.935   9.686  10.392 -2.3340 -1.4529  1.0646
   71MOL0     H 9575   8.738   9.564  10.334  0.5494 -0.4191  0.0293
   71MOL0     H 9576   8.792   9.600  10.178  1.2975  0.3794 -0.1834
   71MOL0     H 9577   8.594   9.771  10.352 -1.7831  1.6493 -0.5185
   71MOL0     H 9578   8.546   9.680  10.211 -0.8051  1.7417  0.4110
   71MOL0     H 9579   8.729   9.939  10.210 -0.1606  0.4475 -0.5476
   71MOL0     H 9580   8.681   9.842  10.071  0.5166 -1.0100  0.4580
   71MOL0     H 9581   8.291   9.984  10.185  0.9662 -0.1756  2.4918
   71MOL0     H 9582   9.087   9.919  10.035  0.2976  0.2018 -0.7220
   71MOL0     H 9583   9.396   9.953   9.998 -0.8114  0.2058  2.8501
   71MOL0     H 9584   9.379   9.853   9.850 -2.7315 -0.0528 -2.0304
   71MOL0     H 9585   9.249   9.957   9.888  0.4982 -0.3625 -0.1124
   72MOL0     O 9586   7.455   3.054   4.279  0.1968 -0.5180 -0.6697
   72MOL0     C 9587   7.466   3.107   4.168 -0.3693 -0.7919  0.0584
   72MOL0     O 9588   7.388   3.202   4.109 -0.0721 -0.2006 -0.2974
   72MOL0     C 9589   7.268   3.225   4.168  1.0326  0.3650  0.4985
   72MOL0     C 9590   7.229   3.356   4.194 -0.7239  0.1803 -0.4648
   72MOL0     C 9591   7.089   3.389   4.232 -0.1747 -0.0247  0.3691
   72MOL0     C 9592   6.993   3.291   4.263  0.5137 -0.1002  0.0338
   72MOL0     O 9593   6.869   3.325   4.308  1.2202 -0.9208  0.3420
   72MOL0     C 9594   6.864   3.395   4.433 -1.0284 -0.6106 -0.3693
   72MOL0     C 9595   6.895   3.294   4.549  0.2688  0.6249  0.4640
   72MOL0     C 9596   7.034   3.301   4.605 -0.2752  0.4705  0.8450
   72MOL0     C 9597   7.053   3.198   4.722 -0.2968  1.2859  0.4825
   72MOL0     C 9598   7.177   3.229   4.805  0.2121  0.1466 -0.6206
   72MOL0     C 9599   7.225   3.111   4.899  0.4514 -0.0195 -0.8898
   72MOL0     C 9600   7.343   3.151   4.989  0.1883 -0.4141 -0.2278
   72MOL0     C 9601   7.333   3.236   5.122 -0.5761 -0.1693 -0.3104
   72MOL0     N 9602   7.449   3.211   5.218 -0.9704 -0.5813 -0.1197
   72MOL0     C 9603   7.539   3.308   5.269  1.0907 -0.4391 -0.0708
   72MOL0     C 9604   7.638   3.244   5.336  0.1391  0.3076  0.7313
   72MOL0     C 9605   7.759   3.308   5.406  1.2349 -0.1672 -0.1907
   72MOL0     C 9606   7.849   3.383   5.312 -0.2782 -0.7520  0.4673
   72MOL0     C 9607   7.989   3.410   5.369 -0.1281  0.2515  0.8645
   72MOL0     C 9608   8.063   3.514   5.292  0.5052  0.1700 -0.4608
   72MOL0     O 9609   8.094   3.468   5.161  0.4401  0.2850  0.0399
   72MOL0     C 9610   8.212   3.495   5.109 -0.4295  0.1903 -0.5627
   72MOL0     C 9611   8.261   3.623   5.124  0.7508 -0.0456  0.6375
   72MOL0     C 9612   8.388   3.647   5.086 -0.0172 -0.2755 -0.5467
   72MOL0     C 9613   8.470   3.554   5.012  0.3027  1.0931 -0.0316
   72MOL0     C 9614   8.608   3.580   4.973 -0.5099 -0.1160 -0.3889
   72MOL0     O 9615   8.672   3.679   5.030 -0.1272 -0.0606 -0.4675
   72MOL0     C 9616   8.796   3.726   5.000 -0.7600  0.2050 -0.2301
   72MOL0     C 9617   8.896   3.667   4.914  0.2152 -0.0886 -0.7346
   72MOL0     C 9618   9.026   3.718   4.927  0.7713  1.0088  0.7263
   72MOL0     C 9619   9.069   3.825   5.011  1.2335  0.0184 -0.0010
   72MOL0     O 9620   9.199   3.869   5.030  0.5176  0.3216  0.6570
   72MOL0     C 9621   9.295   3.785   5.090  0.7763 -0.1401 -0.8781
   72MOL0     C 9622   9.288   3.795   5.239 -1.1188  0.2045 -0.2591
   72MOL0     C 9623   9.302   3.941   5.291 -0.3657  1.0088 -0.1250
   72MOL0     C 9624   9.214   3.968   5.417 -0.1230  0.7464  0.0342
   72MOL0     C 9625   9.229   4.120   5.444 -0.1100 -0.4415 -0.3847
   72MOL0     C 9626   9.122   4.166   5.540 -0.0353  0.8224 -0.6212
   72MOL0     C 9627   9.159   4.126   5.686 -1.0053  0.2105 -0.3297
   72MOL0     C 9628   9.086   4.191   5.800 -0.4873  0.3603 -0.0137
   72MOL0    Cl 9629   8.914   4.213   5.754  0.3103 -0.2808 -0.4496
   72MOL0     C 9630   8.966   3.882   5.082  0.2017  0.2949  0.4375
   72MOL0     C 9631   8.832   3.836   5.075 -0.1597  0.4676 -0.9973
   72MOL0     O 9632   8.669   3.491   4.909  0.3286  0.4135  0.9722
   72MOL0     C 9633   8.411   3.422   4.990 -0.3266  0.6801 -0.3047
   72MOL0     C 9634   8.281   3.392   5.044  0.0957  0.0617  0.5311
   72MOL0     N 9635   7.596   3.109   5.340  0.3209  0.3008  0.2762
   72MOL0     N 9636   7.490   3.090   5.264 -0.5232 -0.6104 -0.1411
   72MOL0     C 9637   7.023   3.164   4.218  0.0498 -0.2733 -0.4853
   72MOL0     C 9638   7.161   3.138   4.166 -0.3691  0.1320 -0.4666
   72MOL0     C 9639   7.581   3.061   4.096 -0.0593  0.3048 -0.4287
   72MOL0     C 9640   7.667   3.151   4.044  0.1267  0.6209 -0.2757
   72MOL0     C 9641   7.783   3.113   3.976 -0.3248 -0.8868  0.0699
   72MOL0     C 9642   7.820   2.982   3.967  1.1602  0.3898  0.8019
   72MOL0     O 9643   7.924   2.970   3.876  0.1608 -1.3245 -1.0750
   72MOL0     C 9644   7.998   2.854   3.846 -0.0812  0.4632  1.1003
   72MOL0     C 9645   7.961   2.836   3.693 -0.6083 -0.1763 -0.3966
   72MOL0     C 9646   8.018   2.710   3.642 -0.6304 -0.7337 -0.5860
   72MOL0     C 9647   7.922   2.620   3.554 -0.7723 -1.1472 -0.1866
   72MOL0     C 9648   7.992   2.490   3.525  0.2577 -0.6415  0.0911
   72MOL0     C 9649   8.065   2.397   3.519 -0.3764 -0.1831  1.3485
   72MOL0     C 9650   7.742   2.890   4.019  0.8478 -0.1840 -0.4569
   72MOL0     C 9651   7.621   2.922   4.088 -1.7072 -0.4876 -0.0870
   72MOL0     C 9652   7.543   2.808   4.144  0.2071  0.8627  0.2282
   72MOL0     H 9653   7.311   3.425   4.181  2.0730 -3.2877 -3.5551
   72MOL0     H 9654   7.075   3.495   4.251  0.9062  0.2173 -0.0846
   72MOL0     H 9655   6.946   3.467   4.441  0.5955 -2.5095  1.4764
   72MOL0     H 9656   6.762   3.433   4.440 -2.0413 -3.2372  0.6270
   72MOL0     H 9657   6.868   3.195   4.511 -2.3912  1.4194  0.0935
   72MOL0     H 9658   6.818   3.310   4.624 -3.2790 -0.0141 -2.7263
   72MOL0     H 9659   7.043   3.404   4.640 -1.4899  0.4840  1.1888
   72MOL0     H 9660   7.101   3.278   4.522  0.4315  0.9188  1.2771
   72MOL0     H 9661   6.968   3.205   4.789 -0.8024 -3.1550  0.6048
   72MOL0     H 9662   7.061   3.100   4.675  0.6676  1.3371  0.5075
   72MOL0     H 9663   7.253   3.256   4.731 -0.2638  0.6286 -0.9439
   72MOL0     H 9664   7.177   3.316   4.871  4.7889 -0.1995  0.1669
   72MOL0     H 9665   7.142   3.086   4.965  0.6069  0.4567 -0.5113
   72MOL0     H 9666   7.261   3.024   4.842  0.8169 -0.4791  0.0110
   72MOL0     H 9667   7.423   3.192   4.925  1.3068 -0.6106  1.0005
   72MOL0     H 9668   7.379   3.054   5.025 -2.0204 -1.1939  0.0243
   72MOL0     H 9669   7.320   3.342   5.098 -0.2164  0.6251  2.6889
   72MOL0     H 9670   7.247   3.202   5.179  0.8674 -0.3791  1.8558
   72MOL0     H 9671   7.520   3.415   5.266  2.5753 -0.1610 -0.3961
   72MOL0     H 9672   7.723   3.377   5.483 -2.5181  0.3192 -2.1595
   72MOL0     H 9673   7.821   3.226   5.446  1.9175 -0.0319 -0.9450
   72MOL0     H 9674   7.860   3.322   5.222 -3.4580 -3.5248  1.7624
   72MOL0     H 9675   7.803   3.476   5.279 -1.0765 -1.2302  0.2022
   72MOL0     H 9676   8.043   3.315   5.374  0.1350  0.2813 -0.6987
   72MOL0     H 9677   7.964   3.436   5.472 -1.1135  0.0714  0.6766
   72MOL0     H 9678   8.156   3.542   5.342 -0.6561  3.5438  0.0839
   72MOL0     H 9679   8.008   3.608   5.279  1.2140  0.7889  0.8188
   72MOL0     H 9680   8.215   3.704   5.179 -2.1384  0.0368 -1.6604
   72MOL0     H 9681   8.430   3.745   5.105  4.7565 -2.4637  1.7563
   72MOL0     H 9682   8.885   3.584   4.846  1.0065  0.5942 -1.7345
   72MOL0     H 9683   9.099   3.661   4.871 -1.0622  1.2503 -2.1183
   72MOL0     H 9684   9.288   3.686   5.046  0.7907  0.6581 -2.7747
   72MOL0     H 9685   9.391   3.827   5.058  3.1846 -2.9097  2.0523
   72MOL0     H 9686   9.192   3.753   5.273 -1.3237  1.3303  0.6101
   72MOL0     H 9687   9.368   3.730   5.274  1.9881  3.3185 -1.0570
   72MOL0     H 9688   9.407   3.950   5.320 -0.7600 -1.1343  2.3523
   72MOL0     H 9689   9.283   4.017   5.214 -2.6851 -0.4038 -1.0487
   72MOL0     H 9690   9.263   3.912   5.497 -1.7579 -0.9718 -0.1083
   72MOL0     H 9691   9.122   3.910   5.408  1.2810 -1.3142 -2.5162
   72MOL0     H 9692   9.217   4.183   5.355 -0.7334 -2.9412 -2.1756
   72MOL0     H 9693   9.327   4.149   5.484 -0.3992  0.1675 -0.1018
   72MOL0     H 9694   9.124   4.275   5.535 -1.5447  0.8182 -2.4800
   72MOL0     H 9695   9.018   4.146   5.513 -0.6594  2.8253  0.0780
   72MOL0     H 9696   9.264   4.133   5.717 -0.4131 -0.8052 -1.9807
   72MOL0     H 9697   9.139   4.020   5.704 -1.1062  0.6204  2.4188
   72MOL0     H 9698   9.100   4.130   5.889  0.9120  3.6978  2.2516
   72MOL0     H 9699   9.123   4.290   5.830 -1.3174  0.2738  1.3819
   72MOL0     H 9700   8.987   3.961   5.154  0.2820  1.2858 -0.6371
   72MOL0     H 9701   8.754   3.884   5.133  0.6123  0.4600  0.0748
   72MOL0     H 9702   8.470   3.351   4.934 -0.7096  1.4746 -1.7734
   72MOL0     H 9703   8.237   3.298   5.010  3.4845 -1.7168  0.6358
   72MOL0     H 9704   6.956   3.083   4.246  0.6096  0.4334  3.6427
   72MOL0     H 9705   7.185   3.035   4.142 -0.5725  0.3107 -1.5268
   72MOL0     H 9706   7.636   3.253   4.026  2.5064  1.4643  0.0274
   72MOL0     H 9707   7.838   3.188   3.920 -0.5483  1.6782  2.9735
   72MOL0     H 9708   7.966   2.772   3.911  0.6444 -1.0302 -0.3592
   72MOL0     H 9709   8.103   2.879   3.864  0.0351 -1.0781  2.8636
   72MOL0     H 9710   8.009   2.916   3.636  2.9128 -0.4691  1.8689
   72MOL0     H 9711   7.853   2.825   3.679 -0.4529 -3.2198  0.0348
   72MOL0     H 9712   8.047   2.652   3.730 -1.4007  1.1547  1.0045
   72MOL0     H 9713   8.107   2.731   3.582 -1.2603  1.8148 -0.7590
   72MOL0     H 9714   7.825   2.611   3.603 -1.5399  1.2577 -1.1094
   72MOL0     H 9715   7.900   2.686   3.470 -1.6817  2.3054  2.4973
   72MOL0     H 9716   8.125   2.315   3.486  0.3229  1.3475 -1.5217
   72MOL0     H 9717   7.776   2.787   4.021  3.1158  0.4918  1.4979
   72MOL0     H 9718   7.484   2.773   4.059 -0.2029 -0.9512  1.2170
   72MOL0     H 9719   7.599   2.727   4.192 -3.3520 -2.2484 -0.4361
   72MOL0     H 9720   7.467   2.832   4.220 -1.6486 -3.5303  0.0487
   73MOL0     O 9721   9.228   1.797   3.376 -0.0791 -0.1243 -0.2575
   73MOL0     C 9722   9.156   1.700   3.400  0.0586  0.4614  0.2364
   73MOL0     O 9723   9.104   1.666   3.523  0.0239 -0.0344  0.2212
   73MOL0     C 9724   9.141   1.743   3.638 -0.4784 -1.0626 -0.2745
   73MOL0     C 9725   9.164   1.885   3.641  0.2183 -0.5903 -0.8890
   73MOL0     C 9726   9.183   1.948   3.764  0.1677  0.1428  0.3891
   73MOL0     C 9727   9.190   1.871   3.884 -1.0557  0.2835 -0.2797
   73MOL0     O 9728   9.215   1.916   4.009  0.1718  0.7606 -0.1478
   73MOL0     C 9729   9.241   2.059   4.021 -0.0276 -0.2674 -1.0517
   73MOL0     C 9730   9.247   2.091   4.170 -0.5744  0.1479  1.0605
   73MOL0     C 9731   9.177   2.225   4.211  0.1705 -0.8830 -0.3315
   73MOL0     C 9732   9.021   2.226   4.204  0.1455  0.1358  0.6178
   73MOL0     C 9733   8.955   2.183   4.337  0.2247  0.0852 -0.4955
   73MOL0     C 9734   8.953   2.038   4.373  0.1206 -0.1513  0.7506
   73MOL0     C 9735   8.874   1.991   4.502 -0.1749 -0.7164  0.5521
   73MOL0     C 9736   8.886   1.839   4.515 -0.4397  0.0794 -0.2484
   73MOL0     N 9737   8.868   1.805   4.648  0.1975  0.1678 -0.4498
   73MOL0     C 9738   8.748   1.803   4.710 -0.0888  0.5879 -0.7792
   73MOL0     C 9739   8.782   1.812   4.842 -0.1175 -0.5689 -0.3814
   73MOL0     C 9740   8.694   1.839   4.972  0.5809  0.0701 -0.3360
   73MOL0     C 9741   8.621   1.709   4.997  0.2105  0.3055 -0.4644
   73MOL0     C 9742   8.478   1.698   4.960 -0.1595  0.6073  0.2335
   73MOL0     C 9743   8.372   1.800   5.020  0.2744 -0.6315  0.5871
   73MOL0     O 9744   8.232   1.759   4.986  0.1512  0.7103 -1.0501
   73MOL0     C 9745   8.134   1.826   5.059  0.1933 -0.4074 -0.2690
   73MOL0     C 9746   8.150   1.950   5.126  0.9497 -0.0441 -1.0312
   73MOL0     C 9747   8.047   2.003   5.202 -0.8212 -0.5064  0.3901
   73MOL0     C 9748   7.923   1.953   5.204 -0.2208  0.0082  0.3677
   73MOL0     C 9749   7.815   2.026   5.282  0.3421 -0.2261  0.6009
   73MOL0     O 9750   7.686   1.978   5.270 -0.0464 -0.1565  0.5789
   73MOL0     C 9751   7.584   2.002   5.361 -1.4618  0.1923 -0.4904
   73MOL0     C 9752   7.588   2.079   5.481 -0.1762  0.0350 -0.7154
   73MOL0     C 9753   7.466   2.105   5.547  0.0194  0.2565  0.3587
   73MOL0     C 9754   7.341   2.063   5.498 -0.7080 -0.5816  1.2490
   73MOL0     O 9755   7.239   2.112   5.587 -0.2661  0.0130  0.7486
   73MOL0     C 9756   7.146   2.007   5.617  0.1719  0.2414 -0.4625
   73MOL0     C 9757   7.192   1.945   5.754 -0.1125  0.6059 -0.1435
   73MOL0     C 9758   7.258   1.817   5.735 -1.1595  0.1869 -0.5545
   73MOL0     C 9759   7.324   1.778   5.876 -0.8791  0.6623 -0.2107
   73MOL0     C 9760   7.423   1.663   5.846  0.4122 -0.2584  0.1255
   73MOL0     C 9761   7.496   1.612   5.967  0.4735 -0.1520 -0.0357
   73MOL0     C 9762   7.414   1.505   6.047 -0.1570  0.2178 -0.1447
   73MOL0     C 9763   7.492   1.458   6.171 -0.4748  0.9257  0.2523
   73MOL0    Cl 9764   7.392   1.324   6.243  0.2995  0.1871  0.2016
   73MOL0     C 9765   7.335   1.978   5.385  0.0723 -0.6772 -0.5957
   73MOL0     C 9766   7.456   1.951   5.320  0.7159  0.8934 -0.2146
   73MOL0     O 9767   7.849   2.125   5.348  0.1862 -0.1556  0.1169
   73MOL0     C 9768   7.898   1.840   5.131 -0.1897 -0.2125  0.5247
   73MOL0     C 9769   8.004   1.771   5.056  0.4327 -0.6333 -0.1686
   73MOL0     N 9770   8.922   1.802   4.857  0.5578 -0.8200 -0.1356
   73MOL0     N 9771   8.968   1.800   4.740 -0.2691 -0.4841 -0.6362
   73MOL0     C 9772   9.172   1.739   3.876 -0.7153 -0.6612  0.1534
   73MOL0     C 9773   9.145   1.679   3.758 -0.3026 -0.9075  0.3618
   73MOL0     C 9774   9.126   1.619   3.276  0.7821 -0.5306 -0.3423
   73MOL0     C 9775   9.013   1.526   3.288 -1.0651 -0.4797 -0.3601
   73MOL0     C 9776   8.972   1.445   3.188  0.7134 -0.3494 -0.3963
   73MOL0     C 9777   9.053   1.427   3.073  0.5065 -0.1160  0.0039
   73MOL0     O 9778   9.039   1.347   2.963 -0.3507 -0.3296  0.3012
   73MOL0     C 9779   8.945   1.243   2.969  0.2964  0.5105  0.0571
   73MOL0     C 9780   8.979   1.150   2.848  0.2752 -0.3220 -0.1932
   73MOL0     C 9781   9.129   1.102   2.860  0.1228 -1.0202 -0.6545
   73MOL0     C 9782   9.162   1.017   2.743  0.6712  0.2213  0.1468
   73MOL0     C 9783   9.280   0.937   2.779  0.5001 -1.1527 -0.3054
   73MOL0     C 9784   9.366   0.870   2.821 -0.7825 -0.5260 -0.1857
   73MOL0     C 9785   9.155   1.518   3.059  0.5001 -0.7341  0.1642
   73MOL0     C 9786   9.204   1.608   3.157  0.3800  0.3457 -0.2641
   73MOL0     C 9787   9.320   1.690   3.110  0.0716  0.4696  0.6295
   73MOL0     H 9788   9.167   1.951   3.555 -0.1252 -0.1466 -0.5651
   73MOL0     H 9789   9.192   2.055   3.746 -2.4067  1.2008  4.1592
   73MOL0     H 9790   9.339   2.079   3.976  2.3248  1.0358  3.9596
   73MOL0     H 9791   9.164   2.118   3.972 -2.2764 -2.0170  0.1759
   73MOL0     H 9792   9.353   2.097   4.198  0.2368 -0.7328 -1.5397
   73MOL0     H 9793   9.184   2.019   4.224 -3.0462  2.7658  1.9377
   73MOL0     H 9794   9.211   2.304   4.142  2.0517 -1.2035  0.1797
   73MOL0     H 9795   9.208   2.256   4.311 -1.8886  1.8724 -0.4219
   73MOL0     H 9796   8.969   2.319   4.182  1.0054  0.7660  1.2224
   73MOL0     H 9797   8.990   2.163   4.120  1.2434  0.4546 -0.0478
   73MOL0     H 9798   8.993   2.243   4.421 -1.4265  0.9181 -0.2922
   73MOL0     H 9799   8.850   2.210   4.321  0.7128  1.5579 -1.4499
   73MOL0     H 9800   8.919   1.978   4.289  1.5584  0.2005 -0.1008
   73MOL0     H 9801   9.056   2.005   4.389 -0.8473 -3.4429  0.7984
   73MOL0     H 9802   8.768   2.019   4.495  0.0463  0.0813  0.2437
   73MOL0     H 9803   8.914   2.051   4.584  0.0074 -0.3536  0.2012
   73MOL0     H 9804   8.803   1.799   4.456 -1.4264 -0.0060  1.1304
   73MOL0     H 9805   8.975   1.787   4.480 -1.5375 -1.8872 -0.2805
   73MOL0     H 9806   8.647   1.804   4.672  0.2918 -0.0779 -1.8327
   73MOL0     H 9807   8.753   1.873   5.058 -0.6626  0.5573  0.3554
   73MOL0     H 9808   8.620   1.915   4.946  0.0886 -0.4050 -0.3505
   73MOL0     H 9809   8.676   1.618   4.969  1.6269  0.9872 -0.0002
   73MOL0     H 9810   8.606   1.702   5.105 -2.0590  1.5885 -0.6349
   73MOL0     H 9811   8.448   1.599   4.997  0.7839 -0.4091 -1.5726
   73MOL0     H 9812   8.469   1.693   4.851  1.4903  0.5240  0.0696
   73MOL0     H 9813   8.384   1.902   4.985  4.3429 -1.7213 -1.7680
   73MOL0     H 9814   8.384   1.816   5.128  0.0829  0.3934  0.4653
   73MOL0     H 9815   8.244   2.002   5.113  0.1750  1.9949  0.8987
   73MOL0     H 9816   8.061   2.100   5.249 -0.4430 -1.0809  1.4877
   73MOL0     H 9817   7.679   2.104   5.535  0.9405 -0.4547 -2.2753
   73MOL0     H 9818   7.475   2.166   5.636 -0.8849  1.2318 -0.2000
   73MOL0     H 9819   7.046   2.051   5.630  0.2581  0.5168 -0.7304
   73MOL0     H 9820   7.138   1.933   5.537  1.6515  0.1474 -0.5406
   73MOL0     H 9821   7.260   2.014   5.805  0.3940  1.3274 -1.7309
   73MOL0     H 9822   7.100   1.938   5.813  0.2500 -0.2767  0.3429
   73MOL0     H 9823   7.189   1.741   5.698  1.6456 -2.3966 -0.9750
   73MOL0     H 9824   7.341   1.826   5.664 -0.3823  1.2463  0.4522
   73MOL0     H 9825   7.240   1.744   5.938  1.2875  0.4977  2.8463
   73MOL0     H 9826   7.371   1.864   5.923  3.0998 -0.5944 -1.5247
   73MOL0     H 9827   7.500   1.682   5.769 -0.9318  1.9232 -0.7789
   73MOL0     H 9828   7.366   1.574   5.815 -0.7087  0.8696 -1.2108
   73MOL0     H 9829   7.594   1.579   5.931  1.7110  3.0109  0.0882
   73MOL0     H 9830   7.515   1.697   6.033 -1.1025 -0.0651  0.3624
   73MOL0     H 9831   7.390   1.431   5.970 -5.7099  2.0624 -0.5982
   73MOL0     H 9832   7.321   1.547   6.085 -0.6260 -2.7055  2.3298
   73MOL0     H 9833   7.592   1.422   6.149 -0.5610  0.9062 -0.1131
   73MOL0     H 9834   7.494   1.542   6.241 -1.2650 -2.2855  4.5501
   73MOL0     H 9835   7.235   1.940   5.367  0.2273 -1.0216 -0.7390
   73MOL0     H 9836   7.464   1.879   5.239  1.5462 -1.0985  1.5388
   73MOL0     H 9837   7.803   1.788   5.123  0.6600 -1.7682 -0.0778
   73MOL0     H 9838   7.985   1.677   5.005 -1.4211 -0.1976 -0.3773
   73MOL0     H 9839   9.168   1.684   3.969 -0.3101  4.0248  3.2459
   73MOL0     H 9840   9.129   1.571   3.763 -3.4997 -0.5958 -0.4847
   73MOL0     H 9841   8.950   1.532   3.376 -0.4431  2.6976 -0.0381
   73MOL0     H 9842   8.874   1.399   3.196  0.5204  0.2486  0.9061
   73MOL0     H 9843   8.842   1.278   2.962 -0.4296 -1.5270 -0.1245
   73MOL0     H 9844   8.946   1.191   3.065 -3.7515  0.0165 -0.0302
   73MOL0     H 9845   8.962   1.207   2.756 -2.0606 -1.4588 -0.5517
   73MOL0     H 9846   8.906   1.069   2.853 -1.7612  1.4542  0.1190
   73MOL0     H 9847   9.153   1.053   2.955  1.8314  2.2163  0.7665
   73MOL0     H 9848   9.199   1.185   2.844  2.8745 -3.2020 -0.7065
   73MOL0     H 9849   9.080   0.948   2.721  1.8184 -0.6954 -1.4589
   73MOL0     H 9850   9.165   1.067   2.646 -0.0376 -2.1635 -1.1922
   73MOL0     H 9851   9.431   0.793   2.856 -0.1128 -0.3311 -0.9590
   73MOL0     H 9852   9.204   1.515   2.962  2.0496  0.9711  0.8150
   73MOL0     H 9853   9.297   1.775   3.045  2.2306  1.9596  1.6889
   73MOL0     H 9854   9.376   1.720   3.199  3.0848  0.0617 -0.9804
   73MOL0     H 9855   9.383   1.622   3.052 -0.4262  0.7622 -0.2791
   74MOL0     O 9856   4.572   4.270   0.655 -0.4965 -0.1843 -0.6385
   74MOL0     C 9857   4.659   4.221   0.722 -0.8515 -0.1507 -0.9246
   74MOL0     O 9858   4.775   4.284   0.757  0.8230 -0.0190  0.1149
   74MOL0     C 9859   4.803   4.420   0.739 -0.1975 -0.9749  0.4222
   74MOL0     C 9860   4.923   4.465   0.798 -0.5486 -0.1197  1.5163
   74MOL0     C 9861   4.959   4.601   0.817 -0.2112  0.2560  0.1813
   74MOL0     C 9862   4.873   4.697   0.770  0.5362  0.5462 -1.3195
   74MOL0     O 9863   4.893   4.833   0.752 -0.5334  0.0505 -0.7049
   74MOL0     C 9864   5.022   4.899   0.771 -0.1652  0.5732  0.2399
   74MOL0     C 9865   4.999   4.996   0.882 -0.4068 -0.7931  0.6092
   74MOL0     C 9866   5.103   5.109   0.891 -0.6982 -0.8785  0.0517
   74MOL0     C 9867   5.248   5.047   0.931  0.2441  0.1308 -0.4041
   74MOL0     C 9868   5.347   5.161   0.966  0.0128  0.6777 -0.3663
   74MOL0     C 9869   5.457   5.099   1.047 -0.4048 -0.3279 -0.3681
   74MOL0     C 9870   5.599   5.136   0.992 -1.3622 -0.0541 -0.8630
   74MOL0     C 9871   5.717   5.072   1.055 -0.2175 -0.6384 -0.0273
   74MOL0     N 9872   5.857   5.132   1.028  0.6313  1.1951 -0.5070
   74MOL0     C 9873   5.898   5.218   0.931  0.5883  0.5927 -0.3012
   74MOL0     C 9874   6.032   5.230   0.949  0.3338  0.5549  0.0894
   74MOL0     C 9875   6.130   5.309   0.862 -0.2834  0.2986 -0.1333
   74MOL0     C 9876   6.075   5.352   0.727 -0.0231 -0.7341  0.3221
   74MOL0     C 9877   6.052   5.240   0.623 -0.0055  0.6456  0.1066
   74MOL0     C 9878   6.001   5.314   0.501 -1.0797 -0.6307  0.5327
   74MOL0     O 9879   5.868   5.363   0.523  0.2522  0.0439  0.1788
   74MOL0     C 9880   5.764   5.274   0.538  1.0010  1.0281 -0.7469
   74MOL0     C 9881   5.656   5.324   0.609 -0.1429 -0.5119 -1.2337
   74MOL0     C 9882   5.535   5.247   0.615 -0.6033 -0.4233 -0.2410
   74MOL0     C 9883   5.524   5.125   0.542 -0.0153  0.7869  0.1327
   74MOL0     C 9884   5.398   5.044   0.537  0.1788 -0.8547  0.3972
   74MOL0     O 9885   5.410   4.927   0.475  0.0217  0.4585 -0.0093
   74MOL0     C 9886   5.279   4.862   0.434 -0.7868 -0.5763 -0.5453
   74MOL0     C 9887   5.225   4.895   0.312  0.5694  0.1409  0.2098
   74MOL0     C 9888   5.104   4.824   0.279 -0.5846 -0.1118 -0.6049
   74MOL0     C 9889   5.032   4.742   0.360 -0.0927  0.3190 -0.5931
   74MOL0     O 9890   4.910   4.688   0.313 -0.5608  0.9523  0.5489
   74MOL0     C 9891   4.825   4.631   0.410  0.1517  0.0808  0.3744
   74MOL0     C 9892   4.683   4.609   0.372 -0.3249  0.1455 -0.9080
   74MOL0     C 9893   4.648   4.473   0.324 -0.7839 -0.1904 -0.3653
   74MOL0     C 9894   4.508   4.456   0.267  0.7629 -0.2931  0.6149
   74MOL0     C 9895   4.474   4.315   0.223  0.8041  0.4894 -0.8980
   74MOL0     C 9896   4.527   4.285   0.082  1.2457  1.1145  0.8407
   74MOL0     C 9897   4.492   4.151   0.023  0.2039  0.1395  0.0871
   74MOL0     C 9898   4.354   4.140  -0.035  0.6198  0.2979 -0.4096
   74MOL0    Cl 9899   4.330   4.274  -0.157  0.3928  0.2678  0.3361
   74MOL0     C 9900   5.098   4.705   0.482 -0.2349 -0.3562  1.0766
   74MOL0     C 9901   5.216   4.776   0.517 -0.0015 -0.3084  0.2564
   74MOL0     O 9902   5.296   5.086   0.594 -0.5623  0.3034 -0.2596
   74MOL0     C 9903   5.640   5.080   0.472 -0.2651  0.0882  0.9904
   74MOL0     C 9904   5.763   5.144   0.479 -0.2217 -0.1677  0.4003
   74MOL0     N 9905   6.069   5.146   1.053 -0.5010 -0.1234  1.2835
   74MOL0     N 9906   5.967   5.082   1.092  0.0755  0.2592  0.9280
   74MOL0     C 9907   4.751   4.656   0.719 -0.7488 -0.4694  0.4991
   74MOL0     C 9908   4.705   4.521   0.709  0.6477  0.1504 -0.7393
   74MOL0     C 9909   4.650   4.082   0.744  0.8057 -0.1349  0.4515
   74MOL0     C 9910   4.649   3.992   0.635  0.3761 -0.6071  0.4152
   74MOL0     C 9911   4.681   3.860   0.658 -0.5944  0.5704  0.8082
   74MOL0     C 9912   4.701   3.808   0.782  0.1288  0.2097  0.6672
   74MOL0     O 9913   4.726   3.663   0.771  0.2352  0.2484 -0.1343
   74MOL0     C 9914   4.729   3.590   0.893  0.2067  0.4894 -0.3506
   74MOL0     C 9915   4.815   3.469   0.887 -0.4036  0.7120 -0.7286
   74MOL0     C 9916   4.956   3.498   0.819  0.1848 -0.3565 -0.5126
   74MOL0     C 9917   5.039   3.609   0.891  0.6939  0.2876  0.7864
   74MOL0     C 9918   5.053   3.565   1.028  0.8809 -0.6420 -0.5846
   74MOL0     C 9919   5.072   3.563   1.144 -0.4606  0.5510 -0.0850
   74MOL0     C 9920   4.700   3.890   0.893  0.1138  0.2641  0.1604
   74MOL0     C 9921   4.674   4.033   0.877  0.0722 -0.5308 -0.4143
   74MOL0     C 9922   4.640   4.115   0.999 -0.8319 -0.2986 -0.1433
   74MOL0     H 9923   4.992   4.386   0.825  0.0880  0.2774  1.0796
   74MOL0     H 9924   5.061   4.625   0.844  0.2231  0.3084 -1.3759
   74MOL0     H 9925   5.101   4.824   0.783  2.1135  1.8837 -4.1141
   74MOL0     H 9926   5.054   4.937   0.673  1.4564 -2.6648 -0.6553
   74MOL0     H 9927   4.980   4.947   0.978  1.2755 -0.6397  1.0415
   74MOL0     H 9928   4.910   5.048   0.845 -0.8407 -2.1000 -0.2760
   74MOL0     H 9929   5.070   5.177   0.970 -2.7387 -1.2361 -0.4562
   74MOL0     H 9930   5.113   5.167   0.799  1.0164 -0.2538  0.5860
   74MOL0     H 9931   5.207   4.977   1.005  0.3381 -1.7515 -2.0341
   74MOL0     H 9932   5.294   4.989   0.850 -1.1456  0.9125 -1.8104
   74MOL0     H 9933   5.389   5.208   0.876 -1.5707  2.1424 -0.3808
   74MOL0     H 9934   5.292   5.242   1.015  0.9852  2.1959 -1.6726
   74MOL0     H 9935   5.438   5.129   1.151 -1.6928 -0.3812 -0.5749
   74MOL0     H 9936   5.447   4.990   1.040 -0.6765 -0.4737  1.6522
   74MOL0     H 9937   5.617   5.243   1.010  2.3906 -0.6709 -0.0022
   74MOL0     H 9938   5.591   5.101   0.889  1.6275 -3.7052 -0.0830
   74MOL0     H 9939   5.700   5.077   1.163 -1.8843  0.6034 -0.3065
   74MOL0     H 9940   5.722   4.963   1.045  0.4945 -0.7007  0.8622
   74MOL0     H 9941   5.844   5.276   0.856  2.3551  1.2460 -1.1350
   74MOL0     H 9942   6.174   5.387   0.924  0.4882  0.7607 -1.2352
   74MOL0     H 9943   6.210   5.237   0.843 -0.8488 -0.0930 -1.1320
   74MOL0     H 9944   5.993   5.417   0.761  0.3812 -0.8131  1.5161
   74MOL0     H 9945   6.151   5.420   0.687 -3.4849  3.1355 -0.4028
   74MOL0     H 9946   5.983   5.166   0.665 -0.0541  0.7928  0.2893
   74MOL0     H 9947   6.147   5.195   0.593  1.6204  4.0092 -0.2932
   74MOL0     H 9948   6.002   5.241   0.419 -0.2122  0.0211 -0.0479
   74MOL0     H 9949   6.081   5.382   0.472 -0.7389 -1.1643  0.1911
   74MOL0     H 9950   5.660   5.417   0.664  0.0561 -0.7461 -0.8488
   74MOL0     H 9951   5.440   5.286   0.651 -0.0577  3.2225 -2.3344
   74MOL0     H 9952   5.260   4.979   0.254 -1.4067  2.8420  2.5992
   74MOL0     H 9953   5.041   4.842   0.192  0.2575  1.8601 -0.8606
   74MOL0     H 9954   4.863   4.540   0.456  0.1755  0.1747  0.5429
   74MOL0     H 9955   4.833   4.707   0.488  0.5913  0.8864 -0.4319
   74MOL0     H 9956   4.620   4.643   0.455 -1.9393 -0.7255 -1.7200
   74MOL0     H 9957   4.657   4.674   0.287 -2.3146  0.4360 -0.1418
   74MOL0     H 9958   4.721   4.434   0.252 -1.1100 -1.3937 -0.0776
   74MOL0     H 9959   4.646   4.411   0.414  1.5862 -0.6088 -0.5157
   74MOL0     H 9960   4.498   4.520   0.178  0.8611 -0.1543  0.7028
   74MOL0     H 9961   4.433   4.483   0.341 -2.5569 -0.6507 -2.3426
   74MOL0     H 9962   4.366   4.303   0.223  0.9032 -0.5379 -1.4677
   74MOL0     H 9963   4.519   4.242   0.290  0.5036  0.2391 -0.9679
   74MOL0     H 9964   4.474   4.359   0.021  3.2910  2.0881  0.1575
   74MOL0     H 9965   4.632   4.313   0.069  1.6180 -0.6055 -0.1824
   74MOL0     H 9966   4.508   4.071   0.096  2.5861 -0.4472 -0.9864
   74MOL0     H 9967   4.553   4.131  -0.065 -0.4088 -0.7529 -0.1544
   74MOL0     H 9968   4.333   4.044  -0.083 -0.4123 -1.1216  2.5664
   74MOL0     H 9969   4.275   4.143   0.041 -0.3482  4.0099 -1.3502
   74MOL0     H 9970   5.046   4.638   0.550  0.9197 -1.6119  0.7511
   74MOL0     H 9971   5.261   4.762   0.614  0.5351 -1.9734 -0.1864
   74MOL0     H 9972   5.636   4.989   0.413  0.1267  1.6683 -1.6302
   74MOL0     H 9973   5.843   5.093   0.427 -0.8902 -0.0686 -0.7668
   74MOL0     H 9974   4.684   4.741   0.715  1.7653  1.7885  2.4004
   74MOL0     H 9975   4.602   4.498   0.682 -0.5790  0.8546  2.7999
   74MOL0     H 9976   4.632   4.046   0.542 -1.9968 -2.0410 -0.0720
   74MOL0     H 9977   4.672   3.803   0.566 -0.7150 -0.2109  1.2990
   74MOL0     H 9978   4.627   3.553   0.907  0.8836 -1.0727  0.8230
   74MOL0     H 9979   4.773   3.656   0.969 -0.1885  2.1823 -1.5379
   74MOL0     H 9980   4.776   3.381   0.836 -0.0420 -0.5362  1.0617
   74MOL0     H 9981   4.834   3.418   0.982 -2.7162  0.1458 -0.5225
   74MOL0     H 9982   4.938   3.532   0.717 -3.4199 -3.2220 -1.0408
   74MOL0     H 9983   5.014   3.405   0.819  1.4382  0.4057  0.2797
   74MOL0     H 9984   5.138   3.621   0.845  0.5896  0.8832  0.7106
   74MOL0     H 9985   4.983   3.703   0.888 -1.3235 -0.8961 -1.2084
   74MOL0     H 9986   5.094   3.560   1.249 -3.7018  0.2933  0.6846
   74MOL0     H 9987   4.704   3.845   0.991 -1.3931 -1.9410 -0.7144
   74MOL0     H 9988   4.578   4.064   1.074 -0.3226 -0.9421 -0.1554
   74MOL0     H 9989   4.727   4.155   1.051 -1.0928  0.0648  0.0208
   74MOL0     H 9990   4.594   4.212   0.977 -6.2281 -2.3895  0.5191
   75MOL0     O 9991   1.231   8.859   0.910 -0.1563 -0.5628 -0.5210
   75MOL0     C 9992   1.177   8.872   0.806 -0.6089  0.6236 -0.0729
   75MOL0     O 9993   1.224   8.958   0.709 -0.1743  0.0437 -0.8453
   75MOL0     C 9994   1.315   9.051   0.753 -0.1015  0.3949  0.8137
   75MOL0     C 9995   1.275   9.171   0.805  1.0413 -0.1597  0.4277
   75MOL0     C 9996   1.373   9.255   0.856  0.0891  0.6046  0.5266
   75MOL0     C 9997   1.509   9.218   0.827 -1.1170  0.3644  0.0161
   75MOL0     O 9998   1.602   9.315   0.844  0.1953 -0.2046  0.8621
   75MOL0     C 9999   1.586   9.429   0.754  0.1938  0.8157  0.5002
   75MOL0     C10000   1.710   9.516   0.798 -0.3413  0.4282 -0.5220
   75MOL0     C10001   1.697   9.662   0.749  0.0771  0.5412 -0.1637
   75MOL0     C10002   1.700   9.678   0.591  0.4307 -0.3164  0.1583
   75MOL0     C10003   1.838   9.613   0.548  0.3056  0.0073 -0.9354
   75MOL0     C10004   1.892   9.698   0.434  0.8822 -0.2578  0.5895
   75MOL0     C10005   1.826   9.666   0.295 -1.2166 -0.1544 -0.2495
   75MOL0     C10006   1.890   9.769   0.198 -0.2460 -0.3642  1.1384
   75MOL0     N10007   1.914   9.732   0.053 -0.2597 -0.0034 -0.0986
   75MOL0     C10008   1.956   9.607   0.000 -0.8382 -0.2252 -0.4525
   75MOL0     C10009   1.951   9.624  -0.125 -0.4536 -0.1721 -0.1033
   75MOL0     C10010   1.976   9.510  -0.224  0.1922  0.4304  0.4698
   75MOL0     C10011   2.122   9.491  -0.265 -0.3564 -1.2321 -0.8891
   75MOL0     C10012   2.199   9.428  -0.145  0.2566  0.2259 -0.1938
   75MOL0     C10013   2.349   9.407  -0.184  0.2939 -0.6675 -1.1472
   75MOL0     O10014   2.396   9.292  -0.102  0.2608 -0.1900  0.2066
   75MOL0     C10015   2.518   9.232  -0.146  0.2625 -0.5138 -0.8616
   75MOL0     C10016   2.568   9.227  -0.280  0.0371  0.2302 -0.2230
   75MOL0     C10017   2.689   9.157  -0.312  1.5466  0.1264  0.3921
   75MOL0     C10018   2.746   9.078  -0.213  1.1891  0.2299  0.4007
   75MOL0     C10019   2.844   8.975  -0.257  0.2959 -0.7037  0.4613
   75MOL0     O10020   2.831   8.853  -0.208  0.8217  0.5294 -0.0928
   75MOL0     C10021   2.882   8.750  -0.283  0.4428 -0.1877  0.8815
   75MOL0     C10022   2.793   8.687  -0.368  0.0498  0.2426  0.0793
   75MOL0     C10023   2.828   8.571  -0.433  0.2529  0.1815  0.6811
   75MOL0     C10024   2.964   8.525  -0.430 -0.0233  0.0431 -0.5559
   75MOL0     O10025   3.012   8.418  -0.497  0.8445 -1.0294 -0.3231
   75MOL0     C10026   2.933   8.295  -0.485 -0.3830 -0.1269  0.5834
   75MOL0     C10027   2.895   8.261  -0.630  0.2673  0.2449  0.0144
   75MOL0     C10028   2.859   8.117  -0.662  0.6324 -0.2789 -0.3018
   75MOL0     C10029   2.979   8.028  -0.670 -0.1479  0.1440 -0.2576
   75MOL0     C10030   2.929   7.889  -0.691  0.2834 -0.5277  0.1516
   75MOL0     C10031   3.035   7.779  -0.700 -0.1453 -0.6388  0.4958
   75MOL0     C10032   2.967   7.648  -0.740  0.0507 -0.3885 -0.6805
   75MOL0     C10033   3.081   7.538  -0.748  0.2045  0.2136 -0.5346
   75MOL0    Cl10034   3.167   7.570  -0.901  0.1134  0.3488  0.2504
   75MOL0     C10035   3.058   8.594  -0.356 -0.2495  0.0219 -0.0720
   75MOL0     C10036   3.013   8.707  -0.285 -0.2064 -0.2607 -0.0187
   75MOL0     O10037   2.917   9.009  -0.353  0.3602  0.4319 -0.5532
   75MOL0     C10038   2.701   9.088  -0.081 -0.5839 -0.9781 -0.6852
   75MOL0     C10039   2.591   9.167  -0.041 -0.2637 -0.6009  0.2715
   75MOL0     N10040   1.889   9.751  -0.153  0.1685  0.4294  0.4175
   75MOL0     N10041   1.884   9.823  -0.045 -0.2310 -0.0525 -0.0094
   75MOL0     C10042   1.550   9.100   0.761 -0.3084 -0.0843 -0.0357
   75MOL0     C10043   1.445   9.017   0.728 -0.8734  0.6433 -0.3896
   75MOL0     C10044   1.060   8.779   0.765 -0.8009 -0.3883 -0.3523
   75MOL0     C10045   1.037   8.763   0.625  1.0463 -0.0274  0.2527
   75MOL0     C10046   0.948   8.659   0.574 -0.1038  0.1793 -0.3692
   75MOL0     C10047   0.862   8.596   0.664 -0.0583  0.8475  1.2122
   75MOL0     O10048   0.784   8.496   0.611  0.4375 -0.0839  0.6423
   75MOL0     C10049   0.654   8.474   0.663  0.1686  0.4802  0.3746
   75MOL0     C10050   0.576   8.391   0.563  0.2351 -0.2661  0.4665
   75MOL0     C10051   0.440   8.338   0.612  0.3622  0.2455 -0.1913
   75MOL0     C10052   0.371   8.239   0.523 -0.3575  0.3161  0.3652
   75MOL0     C10053   0.411   8.246   0.377  0.8306 -0.4749  0.2926
   75MOL0     C10054   0.464   8.256   0.267  0.0258 -0.0574  1.0746
   75MOL0     C10055   0.884   8.615   0.801  1.0780 -0.1020 -0.6396
   75MOL0     C10056   0.984   8.701   0.861 -0.2002 -1.1171 -0.6446
   75MOL0     C10057   1.013   8.696   1.015 -0.1559 -0.4793 -0.3638
   75MOL0     H10058   1.172   9.200   0.824  0.8936 -0.4484  0.0806
   75MOL0     H10059   1.353   9.349   0.908 -1.2509  0.3453  0.5004
   75MOL0     H10060   1.590   9.413   0.646  0.6464  2.5090  0.2284
   75MOL0     H10061   1.488   9.471   0.779  0.6976  2.1329  0.3533
   75MOL0     H10062   1.804   9.468   0.773  0.1788  0.7188  0.7842
   75MOL0     H10063   1.714   9.526   0.907  2.0482  0.2124 -0.5544
   75MOL0     H10064   1.784   9.715   0.788  0.2160  1.7220 -1.9540
   75MOL0     H10065   1.611   9.713   0.793 -0.7865 -1.2018  0.2261
   75MOL0     H10066   1.618   9.630   0.535  0.7885 -0.7462 -0.0042
   75MOL0     H10067   1.696   9.783   0.560  0.5526  0.0337  1.3131
   75MOL0     H10068   1.916   9.624   0.624  0.0980  1.3440 -0.8820
   75MOL0     H10069   1.818   9.510   0.517  1.1411 -0.6353  0.5220
   75MOL0     H10070   1.878   9.805   0.450  0.5365  0.1083 -1.8847
   75MOL0     H10071   2.001   9.697   0.422  0.9284 -2.2852  0.7613
   75MOL0     H10072   1.719   9.692   0.302 -0.1839  4.7678  2.2051
   75MOL0     H10073   1.841   9.563   0.264 -1.3304  0.3092 -1.9716
   75MOL0     H10074   1.826   9.858   0.192 -1.8459 -1.5424 -0.5858
   75MOL0     H10075   1.983   9.804   0.244 -0.3481  0.4885  0.7254
   75MOL0     H10076   1.993   9.524   0.060 -0.3927 -0.5453 -1.1692
   75MOL0     H10077   1.927   9.417  -0.193 -0.6555  1.0757  1.1070
   75MOL0     H10078   1.925   9.537  -0.317  0.5078 -0.0937  0.1382
   75MOL0     H10079   2.136   9.432  -0.356  0.2177 -2.4436 -0.0499
   75MOL0     H10080   2.169   9.590  -0.271 -1.3597 -0.5480  1.4792
   75MOL0     H10081   2.149   9.334  -0.123 -1.2492  1.0889  0.1991
   75MOL0     H10082   2.204   9.490  -0.056  1.5021 -2.9756  2.1501
   75MOL0     H10083   2.412   9.497  -0.181  0.3126 -0.6889  1.8218
   75MOL0     H10084   2.349   9.374  -0.288 -1.2903 -0.3029 -1.2736
   75MOL0     H10085   2.517   9.278  -0.361 -0.2930  2.4746  1.2818
   75MOL0     H10086   2.702   9.149  -0.419 -1.4233 -0.5845 -0.0129
   75MOL0     H10087   2.688   8.716  -0.365 -0.0649 -0.2089  0.5843
   75MOL0     H10088   2.767   8.519  -0.506  1.8570 -1.8899  0.7403
   75MOL0     H10089   3.010   8.225  -0.450  1.5457 -0.6241 -3.9811
   75MOL0     H10090   2.841   8.313  -0.428  0.0830  3.2447  0.4547
   75MOL0     H10091   2.815   8.333  -0.650 -0.8979 -0.4183  2.0117
   75MOL0     H10092   2.974   8.278  -0.704  1.9971 -0.6134  1.5835
   75MOL0     H10093   2.788   8.082  -0.586 -2.6821 -1.2631 -3.5889
   75MOL0     H10094   2.817   8.106  -0.762 -1.4752 -0.7241  0.5785
   75MOL0     H10095   3.029   8.040  -0.573 -0.6651  2.2224 -0.1919
   75MOL0     H10096   3.054   8.057  -0.744 -0.1004  1.8949  0.4145
   75MOL0     H10097   2.860   7.886  -0.775  0.3585  0.0020  0.0655
   75MOL0     H10098   2.856   7.863  -0.614  0.7415 -1.4900  0.2824
   75MOL0     H10099   3.112   7.803  -0.774 -0.7771  0.6335  0.2118
   75MOL0     H10100   3.079   7.765  -0.602  1.5106 -3.8647 -0.5868
   75MOL0     H10101   2.922   7.664  -0.838 -0.3051  2.8883 -0.0790
   75MOL0     H10102   2.900   7.620  -0.658  1.2891  1.4264  1.0372
   75MOL0     H10103   3.153   7.514  -0.670  1.8811  0.7423 -1.8612
   75MOL0     H10104   3.030   7.443  -0.766  3.0949 -0.9547 -3.7348
   75MOL0     H10105   3.157   8.554  -0.340  1.0164  2.7022 -0.6985
   75MOL0     H10106   3.088   8.762  -0.229  1.8715 -3.3702  0.5560
   75MOL0     H10107   2.753   9.027  -0.007  1.8925  3.1162  1.2768
   75MOL0     H10108   2.557   9.181   0.061  2.5392  0.4653  1.1322
   75MOL0     H10109   1.656   9.081   0.743  0.0449  0.0027  1.8228
   75MOL0     H10110   1.476   8.921   0.689  1.2194  0.1479  2.1695
   75MOL0     H10111   1.096   8.825   0.558  4.0152 -0.6973  2.0595
   75MOL0     H10112   0.958   8.618   0.474  3.0191 -0.8922  0.2676
   75MOL0     H10113   0.597   8.567   0.671  0.2612  0.7804 -1.8261
   75MOL0     H10114   0.673   8.433   0.763 -2.6214 -0.3011  0.6790
   75MOL0     H10115   0.640   8.308   0.532 -0.0275  0.6771 -3.0277
   75MOL0     H10116   0.543   8.451   0.478 -1.1024 -0.3323  0.9075
   75MOL0     H10117   0.369   8.417   0.640 -1.3789 -1.9344  2.1046
   75MOL0     H10118   0.457   8.296   0.712  1.0830  1.8897  0.4083
   75MOL0     H10119   0.408   8.141   0.556 -0.2126  0.1506 -0.2831
   75MOL0     H10120   0.262   8.236   0.536 -0.0738 -3.0384  4.0669
   75MOL0     H10121   0.534   8.297   0.198  2.8812  0.0960  3.8246
   75MOL0     H10122   0.828   8.549   0.866 -3.3632  1.3669 -2.6139
   75MOL0     H10123   0.971   8.597   1.036 -3.6053  0.4551 -2.0736
   75MOL0     H10124   1.119   8.708   1.036 -0.3378  2.4512 -0.7912
   75MOL0     H10125   0.952   8.754   1.085  1.6875 -1.3871  2.1265
   76MOL0     O10126  11.482   4.915   3.363  1.0006 -0.8542  0.2872
   76MOL0     C10127  11.391   4.903   3.274  0.3653 -0.1220 -1.0760
   76MOL0     O10128  11.381   4.814   3.174  0.6701 -0.1017 -0.0288
   76MOL0     C10129  11.457   4.700   3.174  0.4180  0.1867  0.4245
   76MOL0     C10130  11.443   4.628   3.058 -0.4056  0.7333  0.2647
   76MOL0     C10131  11.524   4.518   3.021  0.9107 -0.9599 -0.4570
   76MOL0     C10132  11.631   4.478   3.109  0.3272  0.3404  0.7757
   76MOL0     O10133  11.715   4.381   3.062 -0.4064  0.2895  0.8675
   76MOL0     C10134  11.691   4.309   2.941 -0.0291  0.5105 -0.1869
   76MOL0     C10135  11.578   4.210   2.950  0.7139  0.3434  1.0641
   76MOL0     C10136  11.585   4.124   3.074 -0.7101 -0.4873 -0.8541
   76MOL0     C10137  11.685   4.007   3.064 -0.2165 -0.4549  0.7373
   76MOL0     C10138  11.718   3.935   3.188  0.5105  0.9263  0.5441
   76MOL0     C10139  11.786   4.006   3.301  0.4065 -0.5948  0.5958
   76MOL0     C10140  11.902   4.085   3.254 -0.0033 -0.5837 -1.0790
   76MOL0     C10141  11.981   4.143   3.375  0.3250 -0.0702  0.3697
   76MOL0     N10142  12.075   4.045   3.438  0.5847 -0.5555  0.5409
   76MOL0     C10143  12.180   4.085   3.527 -0.4307  1.0295  0.2827
   76MOL0     C10144  12.232   3.969   3.562 -0.3418  0.1384 -0.5335
   76MOL0     C10145  12.356   3.957   3.658 -0.2795 -0.4285  0.8779
   76MOL0     C10146  12.317   3.984   3.801  0.2342 -0.4981  0.7991
   76MOL0     C10147  12.445   3.973   3.903  0.6474  0.7780  0.0803
   76MOL0     C10148  12.411   4.008   4.048 -0.0287  0.4390 -0.3548
   76MOL0     O10149  12.537   4.046   4.109 -0.2023 -0.1019  0.0049
   76MOL0     C10150  12.558   4.155   4.198  0.4688  0.0753 -0.1454
   76MOL0     C10151  12.461   4.191   4.297  0.5795 -0.6916  1.3078
   76MOL0     C10152  12.487   4.290   4.398  0.1579 -0.0119  0.7552
   76MOL0     C10153  12.608   4.366   4.396 -0.1827  0.3690 -0.7926
   76MOL0     C10154  12.643   4.466   4.503  0.3750 -0.4672 -0.3964
   76MOL0     O10155  12.764   4.521   4.498 -1.1551  0.3032  0.4199
   76MOL0     C10156  12.793   4.619   4.596  1.1395 -0.2383  0.1271
   76MOL0     C10157  12.767   4.754   4.557 -0.0895 -0.0403 -1.5011
   76MOL0     C10158  12.785   4.852   4.648 -0.8681 -0.4711 -1.0715
   76MOL0     C10159  12.819   4.818   4.781  0.3304  0.4827 -0.4607
   76MOL0     O10160  12.843   4.903   4.877 -0.4600 -0.1860 -0.7147
   76MOL0     C10161  12.725   4.951   4.945  0.7686 -0.0690 -0.1335
   76MOL0     C10162  12.762   5.057   5.047  0.3305 -0.5653 -0.2088
   76MOL0     C10163  12.811   5.189   4.980  0.6810  0.4100  0.4688
   76MOL0     C10164  12.772   5.306   5.071  0.6895  0.0476  0.0122
   76MOL0     C10165  12.774   5.438   4.988  0.9537  0.4870  0.5025
   76MOL0     C10166  12.723   5.560   5.056 -0.2892  0.2231 -0.4645
   76MOL0     C10167  12.801   5.600   5.185  0.2256 -0.9469  0.4022
   76MOL0     C10168  12.901   5.711   5.143  0.3908  0.9744  0.9574
   76MOL0    Cl10169  13.025   5.752   5.272  0.3790  0.2854 -0.6918
   76MOL0     C10170  12.846   4.679   4.817  0.1444 -0.2197 -0.1117
   76MOL0     C10171  12.832   4.577   4.723 -0.2134  0.0026 -1.0506
   76MOL0     O10172  12.554   4.497   4.584 -0.6791  0.1313 -0.0521
   76MOL0     C10173  12.702   4.324   4.299 -0.4103 -0.5535 -0.8515
   76MOL0     C10174  12.679   4.230   4.200 -0.5603  0.0126  0.7076
   76MOL0     N10175  12.183   3.871   3.479 -0.3481  0.5016 -0.5306
   76MOL0     N10176  12.086   3.916   3.402 -0.3748  0.0408 -0.1210
   76MOL0     C10177  11.628   4.538   3.234  0.3651 -0.0292 -0.3596
   76MOL0     C10178  11.550   4.651   3.271  0.1447 -0.2794  0.9852
   76MOL0     C10179  11.273   5.006   3.276 -0.7354  1.0628 -0.3724
   76MOL0     C10180  11.181   4.990   3.166  0.1576 -0.2839  0.5603
   76MOL0     C10181  11.083   5.082   3.145  0.7653 -0.4105 -0.1985
   76MOL0     C10182  11.073   5.197   3.227  0.2351 -0.9175  0.5707
   76MOL0     O10183  10.981   5.300   3.212 -1.0543  0.0494 -0.8659
   76MOL0     C10184  10.936   5.324   3.075 -0.1793 -1.0880  0.1636
   76MOL0     C10185  10.872   5.462   3.077  0.1471  0.9219 -0.2177
   76MOL0     C10186  10.939   5.559   3.179 -0.8203 -0.7486 -0.0507
   76MOL0     C10187  11.083   5.596   3.154 -0.3032 -0.8352  0.1463
   76MOL0     C10188  11.132   5.699   3.246 -0.2873 -0.1898 -0.2281
   76MOL0     C10189  11.178   5.787   3.316  0.3425  0.5112 -1.3144
   76MOL0     C10190  11.155   5.213   3.340 -1.0323  0.8512  1.2529
   76MOL0     C10191  11.254   5.112   3.370  0.4719  0.2254  0.5569
   76MOL0     C10192  11.349   5.137   3.484 -1.3780 -0.8333  0.1276
   76MOL0     H10193  11.378   4.669   2.982  0.4492  0.7928 -0.4443
   76MOL0     H10194  11.495   4.477   2.925 -1.1419  0.0391 -0.3154
   76MOL0     H10195  11.680   4.376   2.856  0.9809  2.0838  0.8591
   76MOL0     H10196  11.779   4.251   2.913  0.2988  1.5184 -1.3095
   76MOL0     H10197  11.563   4.155   2.856 -0.5733 -1.4009  2.2305
   76MOL0     H10198  11.483   4.265   2.952 -1.1097 -2.3031  6.6898
   76MOL0     H10199  11.483   4.097   3.102 -1.0074  1.1614 -0.2215
   76MOL0     H10200  11.612   4.196   3.152 -1.0725 -1.2532 -0.0167
   76MOL0     H10201  11.650   3.934   2.991 -0.2163 -0.4175  0.6999
   76MOL0     H10202  11.778   4.042   3.017 -0.6209 -2.2983 -1.6426
   76MOL0     H10203  11.623   3.889   3.219  1.1373  0.2069  1.4610
   76MOL0     H10204  11.772   3.849   3.149 -0.0623  0.3380  1.0261
   76MOL0     H10205  11.722   4.082   3.347 -2.9765 -1.0326 -2.8432
   76MOL0     H10206  11.816   3.926   3.370 -0.8071 -2.4673 -0.9587
   76MOL0     H10207  11.878   4.175   3.198  4.8936  2.1676  0.6475
   76MOL0     H10208  11.970   4.022   3.195  3.3490 -0.3633  2.1630
   76MOL0     H10209  12.028   4.240   3.360 -1.3313  0.9073  1.1823
   76MOL0     H10210  11.907   4.177   3.448  1.2780  1.1716  0.7940
   76MOL0     H10211  12.201   4.184   3.567  1.1233  2.4446 -3.5804
   76MOL0     H10212  12.387   3.852   3.662 -0.5157 -0.4580  2.6350
   76MOL0     H10213  12.440   4.013   3.614 -1.0161  0.7160  0.8963
   76MOL0     H10214  12.281   4.087   3.807 -0.8189 -0.9143  3.4494
   76MOL0     H10215  12.243   3.909   3.831 -3.2075  2.1824 -0.3205
   76MOL0     H10216  12.523   4.039   3.864  1.3767 -0.3381 -0.4054
   76MOL0     H10217  12.477   3.868   3.905 -0.7135  0.3512  1.9072
   76MOL0     H10218  12.380   3.925   4.112 -1.7935  1.2026 -0.1688
   76MOL0     H10219  12.343   4.093   4.039  0.5569  0.8923 -0.5369
   76MOL0     H10220  12.369   4.134   4.286  0.3475  0.0019 -0.9006
   76MOL0     H10221  12.403   4.321   4.459 -2.3713  0.2180 -2.5786
   76MOL0     H10222  12.720   4.773   4.461 -0.7722  0.3312 -1.0995
   76MOL0     H10223  12.781   4.958   4.627 -2.3752 -0.7923 -2.5785
   76MOL0     H10224  12.651   4.969   4.867  1.4433 -2.8357 -1.5472
   76MOL0     H10225  12.677   4.872   5.005  1.2744 -0.0826  0.2637
   76MOL0     H10226  12.673   5.065   5.111  0.0147 -0.7192 -0.6263
   76MOL0     H10227  12.856   5.023   5.092  1.2233  1.2173 -0.6279
   76MOL0     H10228  12.919   5.196   4.962  0.4136 -0.3194 -1.7861
   76MOL0     H10229  12.757   5.191   4.885  0.1812 -1.8495  0.6572
   76MOL0     H10230  12.848   5.317   5.148  0.3541 -0.2871  0.3967
   76MOL0     H10231  12.672   5.306   5.117  0.7266 -1.3615  0.1328
   76MOL0     H10232  12.714   5.433   4.897  1.7270  1.4657 -0.0780
   76MOL0     H10233  12.876   5.462   4.960 -0.1940  2.7063 -2.2752
   76MOL0     H10234  12.732   5.641   4.984  0.0655 -0.4731 -1.2192
   76MOL0     H10235  12.618   5.542   5.078 -0.0955 -2.1591 -1.1327
   76MOL0     H10236  12.853   5.517   5.234  4.3388 -0.1004 -2.0574
   76MOL0     H10237  12.728   5.645   5.254 -3.2840  1.7100 -4.4343
   76MOL0     H10238  12.946   5.668   5.053  1.2381  0.8415  1.4361
   76MOL0     H10239  12.842   5.802   5.126 -0.9710  0.6230  3.2857
   76MOL0     H10240  12.889   4.659   4.915 -1.6545  1.2701  1.0569
   76MOL0     H10241  12.851   4.475   4.755  2.3577  1.3282  2.2933
   76MOL0     H10242  12.800   4.372   4.301  0.3626 -2.0656 -1.2020
   76MOL0     H10243  12.747   4.187   4.128  1.0599  1.0419  1.5777
   76MOL0     H10244  11.709   4.515   3.302  0.1365 -2.9636 -0.9633
   76MOL0     H10245  11.576   4.705   3.362  0.3963 -1.3739  1.5801
   76MOL0     H10246  11.189   4.911   3.092  2.1268 -0.5407  0.9969
   76MOL0     H10247  11.003   5.056   3.076 -0.9418  4.9920 -0.7701
   76MOL0     H10248  10.873   5.240   3.043 -4.2948  1.0611  1.8255
   76MOL0     H10249  11.023   5.332   3.008  0.9039  2.6267  1.7312
   76MOL0     H10250  10.771   5.458   3.117 -0.0681 -0.4065 -0.8349
   76MOL0     H10251  10.846   5.497   2.976 -2.2943 -0.9889 -0.3285
   76MOL0     H10252  10.931   5.533   3.285  2.4736  0.9666  0.7293
   76MOL0     H10253  10.884   5.653   3.177  0.9593  0.3182 -0.8963
   76MOL0     H10254  11.147   5.508   3.166  1.3376 -0.1321 -2.6489
   76MOL0     H10255  11.088   5.644   3.056 -3.2265  0.9517  0.7557
   76MOL0     H10256  11.220   5.851   3.391 -3.2393 -0.2399  1.5999
   76MOL0     H10257  11.146   5.305   3.398 -2.9550  0.0733  2.2884
   76MOL0     H10258  11.456   5.138   3.465 -0.6043 -0.0808  3.7692
   76MOL0     H10259  11.322   5.229   3.536  1.3294  0.7532 -1.1378
   76MOL0     H10260  11.334   5.051   3.551 -2.0475  0.7616  2.1153
   77MOL0     O10261   8.384  11.377   0.359  0.0184  0.5973  0.9569
   77MOL0     C10262   8.360  11.318   0.463 -0.1724  0.1962 -0.0905
   77MOL0     O10263   8.306  11.190   0.469 -0.3052 -0.1771 -0.0110
   77MOL0     C10264   8.315  11.103   0.361 -0.9375 -0.5114  0.8437
   77MOL0     C10265   8.237  10.991   0.359  0.7639  1.2813  0.8675
   77MOL0     C10266   8.258  10.889   0.267  0.3137 -0.1067  0.6075
   77MOL0     C10267   8.360  10.891   0.177  0.4980  0.7336 -0.2326
   77MOL0     O10268   8.367  10.797   0.083 -0.2373  0.4041 -0.0367
   77MOL0     C10269   8.490  10.729   0.073  0.9362 -1.1111 -0.4527
   77MOL0     C10270   8.483  10.573   0.047 -0.4168 -0.6822 -0.5673
   77MOL0     C10271   8.370  10.521   0.133  0.6607  0.4650  0.7740
   77MOL0     C10272   8.382  10.370   0.149 -0.4791 -0.1103  0.1528
   77MOL0     C10273   8.296  10.314   0.253  0.4061 -0.0751  0.2228
   77MOL0     C10274   8.342  10.189   0.308  0.4480  1.5609  0.0060
   77MOL0     C10275   8.337  10.073   0.208 -0.5570 -0.1266  0.2338
   77MOL0     C10276   8.390   9.936   0.264 -0.1901 -0.4277 -0.4139
   77MOL0     N10277   8.289   9.863   0.344  0.4828  0.5544  0.5183
   77MOL0     C10278   8.317   9.764   0.434 -0.7488  0.7745  0.5157
   77MOL0     C10279   8.208   9.690   0.452 -0.3563 -0.5169 -0.1604
   77MOL0     C10280   8.206   9.556   0.514 -0.2645 -0.4129 -0.0110
   77MOL0     C10281   8.327   9.469   0.468  1.0625  0.1210 -0.7291
   77MOL0     C10282   8.310   9.444   0.307 -0.0379  0.5615 -0.8375
   77MOL0     C10283   8.394   9.328   0.250 -0.7254  0.3368 -0.0664
   77MOL0     O10284   8.311   9.211   0.228 -0.5481 -0.5677  0.9815
   77MOL0     C10285   8.303   9.152   0.104  0.1789  0.4661 -0.2739
   77MOL0     C10286   8.403   9.153   0.008 -0.4927 -0.0569 -0.2055
   77MOL0     C10287   8.399   9.075  -0.105 -0.3171  0.9639 -0.7404
   77MOL0     C10288   8.286   8.989  -0.132 -1.0708 -0.0644 -0.7808
   77MOL0     C10289   8.271   8.905  -0.252  0.3086  0.3857  0.0448
   77MOL0     O10290   8.164   8.814  -0.249  0.5020  0.1484  0.1989
   77MOL0     C10291   8.149   8.727  -0.360 -0.2429  0.1141  0.3055
   77MOL0     C10292   8.146   8.599  -0.331  0.4561 -0.2691 -0.4405
   77MOL0     C10293   8.129   8.496  -0.429 -0.3180  0.7080  0.0131
   77MOL0     C10294   8.118   8.528  -0.561 -0.5386  0.4050 -0.3513
   77MOL0     O10295   8.113   8.430  -0.669 -0.5302 -0.1863  0.7557
   77MOL0     C10296   8.155   8.298  -0.637  0.1924  0.4316 -0.3371
   77MOL0     C10297   8.290   8.279  -0.591  0.2397  0.2371 -0.3154
   77MOL0     C10298   8.383   8.279  -0.709  0.2317 -1.0333  0.3122
   77MOL0     C10299   8.528   8.306  -0.676 -0.6150 -0.5628 -0.7052
   77MOL0     C10300   8.631   8.299  -0.794  0.7042 -0.2218  0.5412
   77MOL0     C10301   8.748   8.394  -0.764  0.5087  0.6903 -0.1882
   77MOL0     C10302   8.866   8.369  -0.864 -0.5081  0.4848 -0.3378
   77MOL0     C10303   8.970   8.481  -0.863  0.1856  0.2177  0.1226
   77MOL0    Cl10304   9.098   8.449  -0.985  0.1308 -0.2250  0.0456
   77MOL0     C10305   8.146   8.667  -0.593  1.0848  0.1030 -0.1313
   77MOL0     C10306   8.141   8.774  -0.495  0.0754  0.4028  0.0744
   77MOL0     O10307   8.354   8.928  -0.339 -0.0385 -0.8131  0.3415
   77MOL0     C10308   8.177   8.997  -0.037  0.6777 -0.2234  1.0523
   77MOL0     C10309   8.191   9.077   0.080  0.0500  0.2282  0.5793
   77MOL0     N10310   8.105   9.754   0.383 -0.3304  1.0436  0.6456
   77MOL0     N10311   8.156   9.850   0.320  0.3222 -0.3331  0.4200
   77MOL0     C10312   8.451  10.996   0.187  0.6286 -0.2562  0.4740
   77MOL0     C10313   8.432  11.100   0.283 -0.9864  0.7390  0.8807
   77MOL0     C10314   8.389  11.381   0.595  0.1784 -0.2010 -0.2645
   77MOL0     C10315   8.372  11.297   0.708 -0.2195 -0.9690 -0.3603
   77MOL0     C10316   8.404  11.352   0.829 -0.3679  0.0660  0.1373
   77MOL0     C10317   8.465  11.475   0.849  0.6343 -0.4892 -1.1977
   77MOL0     O10318   8.500  11.533   0.976  0.0607  0.2671  0.1538
   77MOL0     C10319   8.505  11.445   1.092  0.8885 -0.4615  1.9997
   77MOL0     C10320   8.647  11.391   1.107 -0.2414 -0.2958 -0.5150
   77MOL0     C10321   8.665  11.323   1.239 -0.3283  0.4174 -0.0961
   77MOL0     C10322   8.806  11.255   1.248  0.4347 -0.9488  1.1428
   77MOL0     C10323   8.914  11.354   1.242  0.1671 -0.7069 -0.4720
   77MOL0     C10324   9.009  11.432   1.242 -0.6739  0.4000 -1.2268
   77MOL0     C10325   8.489  11.547   0.734 -0.0044 -0.2180  0.2314
   77MOL0     C10326   8.449  11.509   0.611 -0.1005 -0.0845  0.1299
   77MOL0     C10327   8.467  11.604   0.497  0.0892  0.1186  0.1533
   77MOL0     H10328   8.145  10.981   0.416 -0.9249 -1.0813 -1.9433
   77MOL0     H10329   8.180  10.816   0.288  1.1472 -0.2774  3.4440
   77MOL0     H10330   8.554  10.779  -0.001 -0.2979 -0.1742 -0.9161
   77MOL0     H10331   8.537  10.744   0.171 -3.8464  2.1404  1.7132
   77MOL0     H10332   8.584  10.540   0.070 -0.1747  1.3818  1.7102
   77MOL0     H10333   8.447  10.554  -0.055 -2.0950  1.0112 -0.3358
   77MOL0     H10334   8.271  10.535   0.089  1.8037 -1.3886 -2.6772
   77MOL0     H10335   8.366  10.572   0.230 -1.1960 -2.5742  2.4376
   77MOL0     H10336   8.371  10.317   0.055 -0.1303  0.0998 -0.0070
   77MOL0     H10337   8.482  10.350   0.189 -0.6434 -0.6088  0.3190
   77MOL0     H10338   8.293  10.385   0.336 -2.1519 -1.2060  1.1945
   77MOL0     H10339   8.195  10.308   0.212 -0.0862  3.1580  0.6453
   77MOL0     H10340   8.442  10.202   0.351  1.0038 -2.0283  0.1088
   77MOL0     H10341   8.272  10.170   0.390 -1.7213 -1.4265 -2.3461
   77MOL0     H10342   8.406  10.105   0.130 -1.5501  0.7849 -0.3030
   77MOL0     H10343   8.232  10.075   0.178 -1.1921 -0.6824  2.2383
   77MOL0     H10344   8.431   9.874   0.185  0.1806 -2.2460  1.1274
   77MOL0     H10345   8.472   9.954   0.334 -1.9218  1.2699  1.3262
   77MOL0     H10346   8.416   9.727   0.458 -0.8610  0.7483  0.9342
   77MOL0     H10347   8.218   9.578   0.620 -1.3428  0.9960 -0.1375
   77MOL0     H10348   8.112   9.501   0.504 -2.5323  1.9869  4.6073
   77MOL0     H10349   8.418   9.527   0.482 -0.3681  1.9016  2.0374
   77MOL0     H10350   8.315   9.377   0.527 -1.9887  1.9508  1.8747
   77MOL0     H10351   8.347   9.533   0.254  2.4529 -0.1879 -0.4680
   77MOL0     H10352   8.205   9.436   0.277 -1.1710  1.6273  2.4336
   77MOL0     H10353   8.472   9.306   0.323 -1.7476  3.0649  2.0469
   77MOL0     H10354   8.443   9.371   0.163 -0.8830  0.0652 -0.2899
   77MOL0     H10355   8.491   9.214   0.024  2.0070 -3.5330  0.6581
   77MOL0     H10356   8.469   9.078  -0.188 -0.9280 -0.6389 -1.3694
   77MOL0     H10357   8.149   8.563  -0.229 -0.9897  0.1332 -0.2266
   77MOL0     H10358   8.097   8.396  -0.405 -0.3711 -0.0859 -2.9365
   77MOL0     H10359   8.091   8.264  -0.555  2.6718 -1.3316  1.0100
   77MOL0     H10360   8.131   8.233  -0.722 -2.5190 -0.5009  1.0253
   77MOL0     H10361   8.304   8.362  -0.522 -1.0245  0.5902 -0.4555
   77MOL0     H10362   8.299   8.187  -0.533  3.1989 -0.0607 -1.0807
   77MOL0     H10363   8.372   8.184  -0.763  1.8693  0.1731 -2.3542
   77MOL0     H10364   8.365   8.361  -0.779  4.1728 -2.1215 -2.3262
   77MOL0     H10365   8.567   8.227  -0.611  2.5096 -0.7815 -2.6322
   77MOL0     H10366   8.532   8.400  -0.621  0.1772 -1.7870  1.4625
   77MOL0     H10367   8.581   8.326  -0.887  2.7847 -0.0989 -0.6060
   77MOL0     H10368   8.671   8.197  -0.800 -2.2003 -1.5004  1.3148
   77MOL0     H10369   8.707   8.495  -0.756 -1.7059 -0.2732  2.2954
   77MOL0     H10370   8.782   8.372  -0.662 -2.7945  1.8116  1.2983
   77MOL0     H10371   8.826   8.365  -0.965  0.1172  0.3392 -0.5826
   77MOL0     H10372   8.910   8.270  -0.851 -1.0876  0.2802  0.1470
   77MOL0     H10373   8.926   8.578  -0.891  2.1041  1.9571  2.6230
   77MOL0     H10374   9.016   8.491  -0.765 -1.4417  0.5674  0.8955
   77MOL0     H10375   8.175   8.692  -0.695  1.5301 -1.7875 -0.5051
   77MOL0     H10376   8.162   8.878  -0.520  2.6192 -0.9697 -4.3685
   77MOL0     H10377   8.081   8.950  -0.061 -0.9219  2.4159  1.8816
   77MOL0     H10378   8.106   9.078   0.147 -0.7276 -2.2393 -0.2518
   77MOL0     H10379   8.538  10.993   0.121  1.3064  4.1119  0.8656
   77MOL0     H10380   8.505  11.180   0.272  2.1489 -2.2315 -2.3786
   77MOL0     H10381   8.313  11.206   0.709 -4.6759  1.5217  3.8594
   77MOL0     H10382   8.383  11.289   0.915 -1.9893 -1.3738 -1.2349
   77MOL0     H10383   8.424  11.373   1.098 -2.3332  2.5837 -0.6091
   77MOL0     H10384   8.494  11.519   1.172 -0.2603  1.3334  0.2578
   77MOL0     H10385   8.714  11.477   1.102 -1.5310  0.6932 -1.4803
   77MOL0     H10386   8.672  11.314   1.033  0.0794 -1.5074  0.8135
   77MOL0     H10387   8.594  11.241   1.243  1.0846 -0.8093  1.6727
   77MOL0     H10388   8.672  11.389   1.326  0.6865  3.5329 -2.3374
   77MOL0     H10389   8.816  11.211   1.348 -0.0897 -1.9682  0.7649
   77MOL0     H10390   8.812  11.179   1.169 -1.5472 -1.5908  1.5618
   77MOL0     H10391   9.106  11.476   1.249 -0.0770 -1.0421 -0.0122
   77MOL0     H10392   8.543  11.641   0.746 -0.9316  0.2839  0.5604
   77MOL0     H10393   8.495  11.705   0.528  3.1461 -1.3066  2.5474
   77MOL0     H10394   8.544  11.558   0.434  1.0840  2.5526 -0.5383
   77MOL0     H10395   8.370  11.614   0.446 -2.5406 -0.4090  4.5402
   78MOL0     O10396   3.732   8.862  11.347  0.2539 -0.7819  0.0454
   78MOL0     C10397   3.761   8.784  11.263  0.1778  0.2177  0.8744
   78MOL0     O10398   3.752   8.813  11.123  0.3401  0.9963 -0.3419
   78MOL0     C10399   3.646   8.893  11.093  0.1894 -0.3672  1.0846
   78MOL0     C10400   3.524   8.908  11.154 -0.0056  0.5664 -0.3254
   78MOL0     C10401   3.410   8.980  11.111  0.4664 -0.8068 -0.1593
   78MOL0     C10402   3.415   9.043  10.986  0.2675 -0.5186 -0.4684
   78MOL0     O10403   3.301   9.101  10.937 -0.4815 -0.0503 -0.2198
   78MOL0     C10404   3.295   9.137  10.802  0.3734  0.6713 -0.5163
   78MOL0     C10405   3.184   9.229  10.772 -0.5980  0.6219  1.0547
   78MOL0     C10406   3.234   9.291  10.632  0.9002  0.3940 -0.0643
   78MOL0     C10407   3.148   9.407  10.580  0.3282 -0.8932  0.2423
   78MOL0     C10408   3.145   9.417  10.420 -0.3759 -0.1594 -1.0173
   78MOL0     C10409   3.111   9.565  10.393 -0.2686 -0.3055  0.9847
   78MOL0     C10410   3.072   9.566  10.244  0.2942  0.9038 -0.6178
   78MOL0     C10411   3.032   9.707  10.199 -0.7272 -0.5872  0.2479
   78MOL0     N10412   2.986   9.706  10.060  0.5224 -0.3960 -0.5933
   78MOL0     C10413   2.874   9.775  10.012 -0.2055 -0.0588  0.7429
   78MOL0     C10414   2.903   9.784   9.881  0.1317  0.1823  0.6117
   78MOL0     C10415   2.813   9.840   9.775  0.2923 -0.2111  0.2631
   78MOL0     C10416   2.841   9.989   9.757 -0.2190 -0.4183  0.0991
   78MOL0     C10417   2.931  10.016   9.639  0.5103  0.2146  0.9327
   78MOL0     C10418   2.944  10.166   9.613  0.1619  1.0355 -0.3238
   78MOL0     O10419   3.034  10.172   9.507 -0.7908  0.8975  0.1395
   78MOL0     C10420   3.085  10.293   9.479  0.3049 -1.5325  0.1183
   78MOL0     C10421   3.220  10.297   9.453  0.3428 -0.9964 -0.2300
   78MOL0     C10422   3.271  10.410   9.386 -0.1229 -1.4072  0.3469
   78MOL0     C10423   3.201  10.528   9.376 -0.5245 -0.2819  0.8745
   78MOL0     C10424   3.256  10.649   9.312 -0.1482 -0.2566  0.5182
   78MOL0     O10425   3.387  10.636   9.286 -0.2607  0.4922 -0.1298
   78MOL0     C10426   3.446  10.755   9.244  0.2918  0.1245 -0.6744
   78MOL0     C10427   3.489  10.849   9.337 -0.6495 -0.1407  0.5585
   78MOL0     C10428   3.558  10.970   9.293 -0.0582  0.5894 -0.4981
   78MOL0     C10429   3.582  10.984   9.159 -0.7931  0.4317  0.0557
   78MOL0     O10430   3.635  11.087   9.094  0.2065  0.2892  0.0968
   78MOL0     C10431   3.730  11.167   9.156  0.1323 -0.1953  0.2252
   78MOL0     C10432   3.780  11.285   9.065 -0.4764 -0.2840  0.3076
   78MOL0     C10433   3.665  11.385   9.043 -0.5890  0.7696  0.3348
   78MOL0     C10434   3.724  11.489   8.939  1.2579 -0.6580 -0.2480
   78MOL0     C10435   3.618  11.586   8.894  0.0611  0.7398 -0.0281
   78MOL0     C10436   3.579  11.682   9.003 -0.4087 -0.2602 -0.2436
   78MOL0     C10437   3.491  11.787   8.946 -0.8733  0.4321 -0.4335
   78MOL0     C10438   3.433  11.869   9.069  0.0218 -0.0822  0.4717
   78MOL0    Cl10439   3.544  11.962   9.153  0.0233  0.0271 -0.3321
   78MOL0     C10440   3.526  10.901   9.066 -0.9732 -0.4712  0.0871
   78MOL0     C10441   3.464  10.780   9.107  0.1604  0.3299  0.0997
   78MOL0     O10442   3.190  10.752   9.297  0.5470 -0.2396 -1.2887
   78MOL0     C10443   3.069  10.530   9.431 -0.0832 -1.0612  1.2425
   78MOL0     C10444   3.015  10.415   9.471 -0.7477  0.2288 -0.3193
   78MOL0     N10445   3.024   9.732   9.849  0.0576  0.1546 -0.8873
   78MOL0     N10446   3.072   9.692   9.959 -0.0925  0.4131  0.4349
   78MOL0     C10447   3.539   9.030  10.908 -0.2937 -0.1818  0.2460
   78MOL0     C10448   3.650   8.962  10.971  0.0529  0.0543  0.8070
   78MOL0     C10449   3.825   8.652  11.292  0.2633  0.0552 -0.2219
   78MOL0     C10450   3.849   8.564  11.184 -0.9020 -0.0620  0.1222
   78MOL0     C10451   3.909   8.433  11.200  0.1943 -0.0801  0.2944
   78MOL0     C10452   3.958   8.398  11.326 -0.0983  0.3066 -0.1035
   78MOL0     O10453   4.022   8.277  11.324  0.0155 -0.3681  0.2796
   78MOL0     C10454   3.999   8.190  11.436 -0.2668  0.0427 -0.0991
   78MOL0     C10455   3.893   8.082  11.395 -0.3382 -0.7017  0.6782
   78MOL0     C10456   3.870   7.971  11.503 -0.2707 -0.3571 -0.6279
   78MOL0     C10457   3.763   8.013  11.600 -0.2174  0.1853 -0.1474
   78MOL0     C10458   3.818   8.111  11.704 -0.0425  0.4532  0.9138
   78MOL0     C10459   3.858   8.182  11.794  0.2084  0.3990  0.6417
   78MOL0     C10460   3.934   8.488  11.429 -0.5914  0.0596 -0.5437
   78MOL0     C10461   3.873   8.607  11.416 -0.0956  0.9645 -0.7135
   78MOL0     C10462   3.849   8.671  11.548  0.0945 -0.9231 -0.4906
   78MOL0     H10463   3.507   8.853  11.246 -3.9174  0.5637 -0.8776
   78MOL0     H10464   3.327   8.966  11.179 -0.7968  1.3969 -1.1269
   78MOL0     H10465   3.391   9.185  10.783  1.3816 -1.1097 -0.1273
   78MOL0     H10466   3.294   9.046  10.743 -1.6335 -0.3133  0.9092
   78MOL0     H10467   3.175   9.302  10.852 -1.1630 -1.4310  2.9642
   78MOL0     H10468   3.092   9.170  10.765 -0.6714  0.8849 -0.6052
   78MOL0     H10469   3.227   9.212  10.556 -4.2142 -2.2670  2.5841
   78MOL0     H10470   3.335   9.331  10.624  1.1502 -0.2139 -0.0153
   78MOL0     H10471   3.045   9.395  10.616  0.2151 -0.8659 -0.0747
   78MOL0     H10472   3.184   9.504  10.615 -2.2457 -0.5074  2.1531
   78MOL0     H10473   3.243   9.398  10.376  0.3042  1.8194 -0.4479
   78MOL0     H10474   3.074   9.339  10.389 -1.2160 -0.4692  1.4136
   78MOL0     H10475   3.022   9.613  10.435 -0.2321  0.7110 -0.0522
   78MOL0     H10476   3.204   9.619  10.410  0.4815 -1.8504  2.0010
   78MOL0     H10477   2.987   9.500  10.223  1.4206 -1.7222  2.2811
   78MOL0     H10478   3.162   9.529  10.194  1.7198  1.2336  1.5664
   78MOL0     H10479   2.950   9.742  10.263 -0.2960  0.4847  0.2337
   78MOL0     H10480   3.119   9.772  10.213 -0.1809 -1.7652  2.9023
   78MOL0     H10481   2.791   9.826  10.060  1.5846  4.5160 -0.4134
   78MOL0     H10482   2.817   9.779   9.685  2.8120 -1.5755  1.1946
   78MOL0     H10483   2.710   9.839   9.812  0.9937  0.5212  2.4044
   78MOL0     H10484   2.752  10.053   9.754  0.5511  0.9955  3.2219
   78MOL0     H10485   2.900  10.029   9.840  0.7687  1.8366 -1.5894
   78MOL0     H10486   2.894   9.970   9.547 -0.6206 -1.3902  2.1475
   78MOL0     H10487   3.032   9.973   9.647 -0.1254 -1.8094 -0.9552
   78MOL0     H10488   2.975  10.224   9.700 -1.8084  3.1623 -0.9212
   78MOL0     H10489   2.848  10.203   9.576 -0.3875 -0.5020 -0.5357
   78MOL0     H10490   3.271  10.201   9.463  0.7732 -0.8128 -0.6567
   78MOL0     H10491   3.372  10.412   9.345 -0.8867 -3.9504 -1.9716
   78MOL0     H10492   3.484  10.819   9.442  2.0898  1.7265  1.3119
   78MOL0     H10493   3.593  11.038   9.371  2.0409  0.4592 -1.2438
   78MOL0     H10494   3.681  11.220   9.238  0.6568 -0.6642  0.8558
   78MOL0     H10495   3.818  11.106   9.176  0.2291 -0.0347  0.2941
   78MOL0     H10496   3.869  11.337   9.101 -0.6206  0.7460 -0.7849
   78MOL0     H10497   3.807  11.244   8.968 -0.6742  0.9701 -0.2985
   78MOL0     H10498   3.588  11.326   8.992  1.7452 -1.0291 -1.3299
   78MOL0     H10499   3.623  11.427   9.135 -3.3626 -2.3334  0.6968
   78MOL0     H10500   3.769  11.451   8.847  3.0265  1.2599 -0.2372
   78MOL0     H10501   3.807  11.539   8.989  2.5113 -0.1297 -2.6901
   78MOL0     H10502   3.533  11.531   8.852  1.1726  0.0729 -1.4786
   78MOL0     H10503   3.660  11.631   8.803  1.2257 -1.7817 -0.8409
   78MOL0     H10504   3.521  11.626   9.076 -1.3382  0.4021 -0.4571
   78MOL0     H10505   3.671  11.721   9.047  0.7897  0.9468 -3.4736
   78MOL0     H10506   3.415  11.751   8.877 -1.0387 -2.2431  1.0320
   78MOL0     H10507   3.565  11.853   8.899 -0.6754 -0.1024 -0.8754
   78MOL0     H10508   3.354  11.934   9.029  0.5636  0.5532  0.4260
   78MOL0     H10509   3.391  11.797   9.140 -2.8676 -0.5523 -1.5178
   78MOL0     H10510   3.554  10.918   8.962  2.8861  0.4778  1.1222
   78MOL0     H10511   3.438  10.697   9.041  3.3642  0.0713 -0.9929
   78MOL0     H10512   3.004  10.617   9.437 -0.4225 -1.2065 -0.1051
   78MOL0     H10513   2.914  10.416   9.512  0.6168 -1.1721  3.4738
   78MOL0     H10514   3.549   9.078  10.811 -0.3400 -1.6548 -0.5195
   78MOL0     H10515   3.750   8.958  10.928 -0.5331 -1.7816 -0.5022
   78MOL0     H10516   3.802   8.578  11.088  2.0566  0.2164 -1.3928
   78MOL0     H10517   3.916   8.362  11.118  1.6373  0.0707  0.2612
   78MOL0     H10518   3.960   8.243  11.523  2.6616  0.9039  0.7845
   78MOL0     H10519   4.095   8.146  11.464 -0.5962 -2.2087 -2.1177
   78MOL0     H10520   3.936   8.039  11.304  0.1393  0.8742  0.1371
   78MOL0     H10521   3.806   8.146  11.380 -0.4998 -0.8197  1.0822
   78MOL0     H10522   3.955   7.922  11.552 -3.4401 -1.6352  4.2842
   78MOL0     H10523   3.827   7.877  11.468  1.5273 -2.8138  3.0329
   78MOL0     H10524   3.673   8.050  11.551 -3.5868 -4.8506  1.3987
   78MOL0     H10525   3.725   7.933  11.664 -1.2210  0.1682 -0.7617
   78MOL0     H10526   3.885   8.237  11.882 -1.1197  0.2251  1.1756
   78MOL0     H10527   3.971   8.458  11.527  0.3077  0.5299 -0.7261
   78MOL0     H10528   3.892   8.625  11.637 -1.3996 -1.0284  0.2128
   78MOL0     H10529   3.884   8.773  11.533 -1.9906  0.0071  0.5524
   78MOL0     H10530   3.740   8.685  11.551  0.1261 -0.8429  0.4743
   79MOL0     O10531   0.579   7.340   1.792  0.2283 -0.7381  0.0887
   79MOL0     C10532   0.597   7.291   1.684  0.1372 -0.8489  0.3260
   79MOL0     O10533   0.500   7.288   1.583 -0.2732  0.2706 -0.2077
   79MOL0     C10534   0.379   7.341   1.604  1.7647 -0.1842 -0.8842
   79MOL0     C10535   0.262   7.271   1.652  0.3169 -0.5568  0.2768
   79MOL0     C10536   0.147   7.323   1.712 -0.5198 -0.5149 -0.1153
   79MOL0     C10537   0.135   7.467   1.704  0.0561  0.4734  0.2806
   79MOL0     O10538   0.022   7.538   1.745 -0.6184  0.1456 -0.4820
   79MOL0     C10539  -0.034   7.611   1.643 -0.1590 -0.0907 -0.1711
   79MOL0     C10540  -0.042   7.755   1.682 -0.3544  0.5415 -0.1075
   79MOL0     C10541  -0.117   7.783   1.810  0.3676  0.0965  0.0835
   79MOL0     C10542  -0.058   7.897   1.885  1.1509 -0.6048  0.7657
   79MOL0     C10543   0.052   7.855   1.982  0.4610  0.6648  0.0532
   79MOL0     C10544   0.107   7.968   2.057 -0.6497 -0.0116 -0.4316
   79MOL0     C10545   0.233   7.932   2.151 -0.3783 -0.0508  0.6405
   79MOL0     C10546   0.290   8.064   2.225  0.2628  0.3640 -1.1538
   79MOL0     N10547   0.385   8.145   2.154 -0.3772 -0.0570 -0.2777
   79MOL0     C10548   0.389   8.161   2.017 -0.1491 -0.6612 -0.5430
   79MOL0     C10549   0.482   8.255   1.985  1.7571  0.4990  0.1228
   79MOL0     C10550   0.548   8.315   1.865 -0.2100 -0.4327 -0.3852
   79MOL0     C10551   0.484   8.451   1.834  1.0471  0.3698  0.2831
   79MOL0     C10552   0.551   8.531   1.728  0.6661 -0.5180 -0.4095
   79MOL0     C10553   0.482   8.655   1.684 -0.0866 -0.7764  0.4028
   79MOL0     O10554   0.457   8.762   1.777  0.0793 -0.0122  0.1076
   79MOL0     C10555   0.366   8.858   1.751  1.2596 -0.5891 -1.0709
   79MOL0     C10556   0.330   8.950   1.853 -0.3310  0.3986 -0.3641
   79MOL0     C10557   0.227   9.042   1.836  0.0813  0.1190 -0.1436
   79MOL0     C10558   0.177   9.064   1.706 -0.2954  0.5053  0.2505
   79MOL0     C10559   0.095   9.189   1.689 -0.9061 -0.4660  0.8617
   79MOL0     O10560   0.077   9.228   1.561  0.2343 -0.3903 -0.3013
   79MOL0     C10561  -0.021   9.318   1.524  0.5167 -0.4219 -0.4842
   79MOL0     C10562   0.002   9.387   1.406 -0.1011 -0.2727 -0.1049
   79MOL0     C10563  -0.083   9.491   1.366  0.7902 -0.3458 -0.7208
   79MOL0     C10564  -0.201   9.514   1.432 -1.0084  0.4694 -0.9475
   79MOL0     O10565  -0.277   9.619   1.390 -0.8491  0.2971  0.2065
   79MOL0     C10566  -0.410   9.649   1.444  0.1892  0.7482 -0.4105
   79MOL0     C10567  -0.512   9.541   1.405 -0.0318 -0.2880 -0.4595
   79MOL0     C10568  -0.643   9.583   1.468 -0.5937  0.3676 -0.6410
   79MOL0     C10569  -0.749   9.477   1.423 -0.0926 -0.5629  0.5186
   79MOL0     C10570  -0.870   9.498   1.514 -0.3017 -0.4731 -0.3716
   79MOL0     C10571  -0.988   9.414   1.491 -0.5038  0.3488  0.1193
   79MOL0     C10572  -1.099   9.456   1.583 -0.9896 -0.9358 -1.8971
   79MOL0     C10573  -1.221   9.374   1.574  0.3496  0.0365 -0.2673
   79MOL0    Cl10574  -1.328   9.433   1.722 -0.0169 -0.1053  0.4635
   79MOL0     C10575  -0.237   9.432   1.546 -0.1010  0.1369  0.0343
   79MOL0     C10576  -0.145   9.338   1.592 -1.1742 -0.4427  0.5854
   79MOL0     O10577   0.058   9.257   1.784 -0.2785 -0.3108  0.5074
   79MOL0     C10578   0.206   8.973   1.601 -0.0677 -0.0559 -0.2654
   79MOL0     C10579   0.304   8.877   1.620  0.2515  1.0143 -0.3422
   79MOL0     N10580   0.504   8.315   2.108 -0.8362  0.2952  0.0431
   79MOL0     N10581   0.452   8.248   2.204 -0.1425  0.2389  0.1258
   79MOL0     C10582   0.243   7.538   1.640  0.1655 -0.1313 -0.4947
   79MOL0     C10583   0.358   7.473   1.591  0.2169  0.0060  0.2931
   79MOL0     C10584   0.735   7.252   1.635 -0.5194  0.0086 -0.9287
   79MOL0     C10585   0.758   7.252   1.493 -0.5371 -0.3429  0.2814
   79MOL0     C10586   0.891   7.239   1.444 -0.0084  0.5420  0.5754
   79MOL0     C10587   1.002   7.232   1.534  0.4405 -0.2925  0.0964
   79MOL0     O10588   1.130   7.233   1.485 -0.0328 -0.2586  0.8076
   79MOL0     C10589   1.167   7.157   1.372  0.2180  0.4401  0.3125
   79MOL0     C10590   1.158   7.004   1.390 -0.6917 -0.3913 -0.2763
   79MOL0     C10591   1.265   6.953   1.474  0.4267  0.5432  0.4249
   79MOL0     C10592   1.379   6.903   1.390  0.0515 -0.5913 -0.4519
   79MOL0     C10593   1.432   6.993   1.278  0.7520 -0.5982 -0.1335
   79MOL0     C10594   1.490   7.051   1.189  0.4048  0.3604 -0.3765
   79MOL0     C10595   0.975   7.239   1.672 -0.0930 -0.3763 -1.0630
   79MOL0     C10596   0.845   7.245   1.725 -0.0843 -0.2021 -1.0940
   79MOL0     C10597   0.843   7.290   1.869 -0.7212 -0.2947  0.5217
   79MOL0     H10598   0.279   7.164   1.659 -1.2184 -0.8875 -0.5388
   79MOL0     H10599   0.072   7.261   1.759 -1.4832  0.0751 -0.8305
   79MOL0     H10600   0.022   7.596   1.550  0.6237 -1.0808  0.4401
   79MOL0     H10601  -0.136   7.577   1.625 -0.4714  1.7017 -2.2599
   79MOL0     H10602  -0.085   7.817   1.603 -2.3208  1.5564  1.6408
   79MOL0     H10603   0.059   7.791   1.704  0.2647 -0.7323 -0.7922
   79MOL0     H10604  -0.141   7.695   1.869 -0.4052 -2.1298 -3.2271
   79MOL0     H10605  -0.219   7.806   1.776 -0.1189 -3.7668 -1.5858
   79MOL0     H10606  -0.020   7.964   1.807 -4.3696 -0.6793 -2.5919
   79MOL0     H10607  -0.135   7.962   1.928 -0.1761 -0.5036 -1.5736
   79MOL0     H10608   0.018   7.783   2.057  2.4352  2.6733  3.1662
   79MOL0     H10609   0.131   7.809   1.923  1.0521  3.0940 -1.2037
   79MOL0     H10610   0.146   8.046   1.990 -0.5143  1.0801  0.8840
   79MOL0     H10611   0.021   8.012   2.108 -0.5198  1.1468 -1.1704
   79MOL0     H10612   0.304   7.873   2.094 -1.4984 -1.2896  0.4764
   79MOL0     H10613   0.198   7.871   2.235 -2.3115  1.3937  0.9791
   79MOL0     H10614   0.198   8.121   2.241 -0.7852 -1.2597 -1.1046
   79MOL0     H10615   0.343   8.027   2.313 -0.1061  1.2155 -0.5619
   79MOL0     H10616   0.352   8.099   1.936 -0.9408  0.2612 -0.8992
   79MOL0     H10617   0.657   8.320   1.872 -0.1468 -0.8811 -0.9707
   79MOL0     H10618   0.524   8.246   1.783 -0.1823 -1.9039  0.8118
   79MOL0     H10619   0.377   8.441   1.815  1.1769  1.8605 -1.4314
   79MOL0     H10620   0.496   8.514   1.922 -0.5008  1.7777 -0.4740
   79MOL0     H10621   0.578   8.465   1.646  0.4870 -1.3076  0.1523
   79MOL0     H10622   0.648   8.566   1.766 -0.1595 -1.5500  3.0057
   79MOL0     H10623   0.392   8.620   1.632 -0.6916  0.2504  0.7286
   79MOL0     H10624   0.547   8.716   1.620 -1.1711 -0.8242 -0.8016
   79MOL0     H10625   0.365   8.925   1.953 -1.7879 -1.3450 -0.2346
   79MOL0     H10626   0.181   9.092   1.920 -3.2110 -2.1077 -0.4323
   79MOL0     H10627   0.100   9.376   1.361 -1.1956  0.7491 -2.9850
   79MOL0     H10628  -0.056   9.552   1.280 -1.8132  0.5767 -0.9632
   79MOL0     H10629  -0.407   9.659   1.552 -0.0730  1.6409 -0.4790
   79MOL0     H10630  -0.448   9.746   1.410 -0.7347  0.5355 -0.0218
   79MOL0     H10631  -0.508   9.545   1.295 -2.6420  0.1998 -0.5877
   79MOL0     H10632  -0.489   9.438   1.435 -1.7629 -1.5798 -3.1988
   79MOL0     H10633  -0.633   9.583   1.577  0.8316  0.0024 -0.7559
   79MOL0     H10634  -0.680   9.681   1.437 -1.7741  0.6248  1.3677
   79MOL0     H10635  -0.722   9.371   1.433  0.5102 -0.4222  0.4208
   79MOL0     H10636  -0.765   9.495   1.316  0.4245  1.6444  0.7764
   79MOL0     H10637  -0.889   9.604   1.498 -0.9900 -1.0038 -4.2034
   79MOL0     H10638  -0.833   9.483   1.616 -0.3202 -0.2057 -0.3263
   79MOL0     H10639  -1.015   9.413   1.385 -0.1807 -1.7984 -0.0021
   79MOL0     H10640  -0.966   9.310   1.518  3.2491  1.0828  0.4495
   79MOL0     H10641  -1.123   9.558   1.552 -3.4294 -0.2553  1.5988
   79MOL0     H10642  -1.067   9.470   1.687 -0.4574  0.4462 -2.2265
   79MOL0     H10643  -1.274   9.395   1.480 -0.9086 -0.4519  0.3121
   79MOL0     H10644  -1.189   9.270   1.583  0.3857  0.0788  0.0855
   79MOL0     H10645  -0.327   9.454   1.602  1.0175  0.9805  1.5925
   79MOL0     H10646  -0.161   9.279   1.682  1.4625 -0.1125  1.3681
   79MOL0     H10647   0.161   8.990   1.503  0.3385 -0.4307 -0.5196
   79MOL0     H10648   0.334   8.816   1.535 -0.6016  0.4316 -0.2445
   79MOL0     H10649   0.223   7.645   1.631 -1.6872 -0.4737 -0.8067
   79MOL0     H10650   0.437   7.528   1.541 -0.0934  1.0890  0.9793
   79MOL0     H10651   0.671   7.264   1.429 -1.4051  2.0732  1.7923
   79MOL0     H10652   0.924   7.228   1.341  1.1701 -2.2647  1.1637
   79MOL0     H10653   1.270   7.187   1.352  0.3681 -0.1554  0.1522
   79MOL0     H10654   1.108   7.184   1.284  0.2089 -1.4845 -0.3312
   79MOL0     H10655   1.176   6.967   1.289  1.6372  3.1603 -1.3439
   79MOL0     H10656   1.060   6.973   1.428  0.9906 -3.4367  1.9986
   79MOL0     H10657   1.215   6.873   1.530 -2.4535  2.6950  1.1858
   79MOL0     H10658   1.299   7.030   1.543  3.1905 -1.1671  1.1408
   79MOL0     H10659   1.459   6.882   1.462 -0.4672 -2.3275 -0.3376
   79MOL0     H10660   1.347   6.807   1.349 -1.5514  0.0727 -0.7996
   79MOL0     H10661   1.534   7.068   1.093  1.3434 -1.7796 -0.3843
   79MOL0     H10662   1.062   7.256   1.735  0.1326  2.7881 -2.0774
   79MOL0     H10663   0.930   7.252   1.925  1.7911  1.1596 -2.1093
   79MOL0     H10664   0.853   7.399   1.875 -0.2222 -0.2665 -0.5526
   79MOL0     H10665   0.754   7.244   1.912 -1.1021 -1.4647 -1.3852
   80MOL0     O10666   1.055  11.035   7.354  0.4076 -0.7063  0.1961
   80MOL0     C10667   1.066  11.158   7.360 -0.0191  0.5502 -0.0863
   80MOL0     O10668   1.010  11.236   7.461  0.6624  0.3935  0.1106
   80MOL0     C10669   0.942  11.168   7.562 -0.0469  0.1462  0.3855
   80MOL0     C10670   0.804  11.193   7.579 -0.5045  0.9770  0.6689
   80MOL0     C10671   0.731  11.134   7.678  0.0020  0.6979  0.1581
   80MOL0     C10672   0.796  11.038   7.757  0.8865  0.3522  0.8020
   80MOL0     O10673   0.728  10.967   7.857  1.2219  0.7965  0.2843
   80MOL0     C10674   0.589  10.974   7.862 -0.5916 -0.6562  0.1463
   80MOL0     C10675   0.533  10.867   7.955 -0.2383 -0.3535 -0.5298
   80MOL0     C10676   0.562  10.727   7.900  0.1422 -0.2255  0.4797
   80MOL0     C10677   0.504  10.612   7.982  0.2149 -0.5474  0.2618
   80MOL0     C10678   0.584  10.482   7.945 -0.5349  1.0217 -0.2917
   80MOL0     C10679   0.551  10.422   7.806  1.1511 -0.2224 -0.6216
   80MOL0     C10680   0.589  10.273   7.789  0.0775  0.4711 -0.1689
   80MOL0     C10681   0.729  10.258   7.744  1.0216 -1.0304  0.2779
   80MOL0     N10682   0.764  10.126   7.702 -0.1437  0.5341 -0.2183
   80MOL0     C10683   0.778  10.080   7.573 -0.0549  0.1952 -0.3647
   80MOL0     C10684   0.841   9.956   7.584  0.7240 -0.2640  0.6139
   80MOL0     C10685   0.864   9.860   7.474 -0.5215 -1.7003 -0.1142
   80MOL0     C10686   0.826   9.910   7.334 -0.2001 -0.3339  0.2810
   80MOL0     C10687   0.900   9.815   7.248 -0.2101 -0.4404  0.0353
   80MOL0     C10688   0.869   9.843   7.104  1.3945  0.4307  0.0741
   80MOL0     O10689   0.726   9.822   7.067  0.1335  0.5808  0.1458
   80MOL0     C10690   0.685   9.920   6.980 -0.4249  0.9107  0.5154
   80MOL0     C10691   0.661   9.878   6.845 -0.3842 -0.0348 -0.6387
   80MOL0     C10692   0.603   9.968   6.747 -0.8628  0.4780 -0.6090
   80MOL0     C10693   0.586  10.103   6.785  1.0976 -0.1727  0.2163
   80MOL0     C10694   0.545  10.203   6.683  0.3574 -0.2954 -0.6464
   80MOL0     O10695   0.572  10.171   6.558  0.9722  0.4979 -0.1206
   80MOL0     C10696   0.573  10.260   6.450  0.4289  0.8628 -0.7483
   80MOL0     C10697   0.505  10.218   6.333 -0.1243 -0.3443 -0.6159
   80MOL0     C10698   0.502  10.304   6.223  1.5379  1.4651  0.2328
   80MOL0     C10699   0.560  10.430   6.230 -0.8618 -0.0937 -0.7095
   80MOL0     O10700   0.543  10.499   6.111  0.0699  0.1117  0.1205
   80MOL0     C10701   0.580  10.639   6.098  0.6301  0.6669 -1.3507
   80MOL0     C10702   0.597  10.672   5.953  0.2701  0.9072  1.1567
   80MOL0     C10703   0.668  10.807   5.934  0.1764  0.6381  0.5873
   80MOL0     C10704   0.699  10.828   5.783 -0.7443 -0.3155 -0.4112
   80MOL0     C10705   0.696  10.984   5.755 -1.1879 -0.3411 -0.8716
   80MOL0     C10706   0.721  10.991   5.608 -0.2479 -0.0756 -0.6214
   80MOL0     C10707   0.760  11.133   5.568 -1.3980 -0.7360 -0.3300
   80MOL0     C10708   0.783  11.137   5.417  1.1294  0.1415 -0.4112
   80MOL0    Cl10709   0.941  11.066   5.395 -0.1488  0.0411 -0.1960
   80MOL0     C10710   0.620  10.472   6.347  0.0626 -0.7252 -0.0158
   80MOL0     C10711   0.626  10.389   6.460  0.5414 -0.0696 -0.8223
   80MOL0     O10712   0.496  10.314   6.723  0.0739  0.4106 -0.2983
   80MOL0     C10713   0.613  10.143   6.918 -0.3916 -0.4932  0.3715
   80MOL0     C10714   0.657  10.047   7.012  1.1894  0.4723 -0.3931
   80MOL0     N10715   0.841   9.935   7.724 -0.2429 -0.4166  0.2528
   80MOL0     N10716   0.795  10.032   7.794 -0.9923  0.5273 -0.0544
   80MOL0     C10717   0.927  11.011   7.741 -0.3575 -0.9845 -0.6969
   80MOL0     C10718   1.001  11.080   7.650 -0.4725  0.2711  0.2371
   80MOL0     C10719   1.171  11.215   7.279  0.2437  0.3761 -0.7747
   80MOL0     C10720   1.229  11.324   7.328  0.5678 -0.3431 -0.2930
   80MOL0     C10721   1.302  11.410   7.250 -1.2452 -0.8317  0.6196
   80MOL0     C10722   1.311  11.391   7.109 -0.7372 -0.1995 -0.3363
   80MOL0     O10723   1.377  11.491   7.042  0.2758 -0.3104  0.2573
   80MOL0     C10724   1.430  11.469   6.910  0.5252  0.8919  0.8213
   80MOL0     C10725   1.542  11.570   6.880  1.0310  0.0714 -0.1744
   80MOL0     C10726   1.663  11.559   6.977 -0.8697  0.0324  0.4296
   80MOL0     C10727   1.766  11.680   6.971 -0.9589 -1.0966  1.0816
   80MOL0     C10728   1.795  11.739   6.839  0.0896  0.1599 -0.0677
   80MOL0     C10729   1.802  11.773   6.727  0.0053  0.6590  0.1241
   80MOL0     C10730   1.257  11.266   7.064  0.2781  0.0601  0.1873
   80MOL0     C10731   1.182  11.179   7.141 -0.4690  0.0924 -0.3783
   80MOL0     C10732   1.115  11.067   7.074  0.0873  0.0539  0.4283
   80MOL0     H10733   0.750  11.270   7.524  1.2591  1.7577 -0.0294
   80MOL0     H10734   0.623  11.148   7.682 -0.4135 -2.0745  2.3224
   80MOL0     H10735   0.557  11.066   7.913  2.7637  1.3715 -1.0656
   80MOL0     H10736   0.550  10.952   7.763  3.3156 -1.7359 -1.3364
   80MOL0     H10737   0.424  10.880   7.957 -0.4280 -1.6305 -1.3493
   80MOL0     H10738   0.571  10.867   8.057 -1.5084  1.8224  0.0087
   80MOL0     H10739   0.672  10.720   7.902  0.1804 -1.5266 -2.1954
   80MOL0     H10740   0.527  10.718   7.797  1.3209  1.2689 -0.0960
   80MOL0     H10741   0.520  10.637   8.087  2.4711 -0.7690  0.0261
   80MOL0     H10742   0.397  10.598   7.965 -1.0334 -0.4067  5.9304
   80MOL0     H10743   0.691  10.495   7.927  0.6453 -2.5862  2.7861
   80MOL0     H10744   0.580  10.412   8.029  2.1713 -0.0764 -0.9665
   80MOL0     H10745   0.443  10.434   7.798  1.2966  0.7593 -1.3358
   80MOL0     H10746   0.595  10.478   7.723 -0.7868  1.8834 -0.3390
   80MOL0     H10747   0.533  10.221   7.711 -0.4896 -0.6190  0.9284
   80MOL0     H10748   0.574  10.220   7.883  1.6112  1.1104  0.4665
   80MOL0     H10749   0.750  10.330   7.665 -2.4340  1.6051  1.5041
   80MOL0     H10750   0.800  10.281   7.824  1.5930 -0.0159 -0.4981
   80MOL0     H10751   0.771  10.133   7.478 -1.0156 -1.1738 -1.0939
   80MOL0     H10752   0.970   9.833   7.471  0.1144  0.6591 -1.6916
   80MOL0     H10753   0.807   9.769   7.490  0.5096 -2.4976 -0.8091
   80MOL0     H10754   0.717   9.902   7.322 -0.2594  0.5158  0.2593
   80MOL0     H10755   0.859  10.013   7.324  0.7462 -0.3059  3.0356
   80MOL0     H10756   0.882   9.709   7.271  0.6513 -0.5582  0.2168
   80MOL0     H10757   1.009   9.820   7.252 -0.1425  0.3411 -1.8985
   80MOL0     H10758   0.937   9.779   7.047  2.8617  1.3950  0.6812
   80MOL0     H10759   0.898   9.947   7.085 -0.2530  0.7499 -0.9650
   80MOL0     H10760   0.686   9.777   6.815  0.6808 -1.6338  4.6101
   80MOL0     H10761   0.594   9.931   6.646  1.6739 -0.7926 -0.4364
   80MOL0     H10762   0.448  10.127   6.314  0.4937 -1.1493  1.1640
   80MOL0     H10763   0.443  10.283   6.134  1.5303  0.2880  0.5065
   80MOL0     H10764   0.504  10.702   6.146  0.8733  0.5603 -0.8195
   80MOL0     H10765   0.671  10.656   6.156  0.9155 -0.1108 -1.5611
   80MOL0     H10766   0.659  10.592   5.912 -3.0769 -0.6109 -1.4171
   80MOL0     H10767   0.500  10.680   5.903  0.0907  1.0527  1.5225
   80MOL0     H10768   0.612  10.888   5.982  0.3007 -0.1049  2.0284
   80MOL0     H10769   0.760  10.804   5.994 -0.1637 -0.1420  1.0845
   80MOL0     H10770   0.620  10.788   5.719 -1.1319  0.6253 -0.5330
   80MOL0     H10771   0.790  10.779   5.749 -0.3981 -0.0835  0.1576
   80MOL0     H10772   0.780  11.026   5.811  0.0463 -1.8743 -1.5042
   80MOL0     H10773   0.607  11.040   5.782 -1.8786 -1.0701 -1.5932
   80MOL0     H10774   0.812  10.933   5.592  0.5123  1.2586 -1.2925
   80MOL0     H10775   0.633  10.958   5.552 -3.1290  5.9357 -0.4727
   80MOL0     H10776   0.849  11.161   5.625 -1.5388  0.6207 -0.7392
   80MOL0     H10777   0.691  11.213   5.598  0.8933  0.1640  3.2957
   80MOL0     H10778   0.704  11.082   5.365 -1.6575  1.7982  1.8224
   80MOL0     H10779   0.787  11.238   5.376  0.8974  0.0594 -0.6380
   80MOL0     H10780   0.649  10.575   6.367 -2.4804 -0.0825  0.8150
   80MOL0     H10781   0.667  10.425   6.554  0.7478  4.4220 -2.3741
   80MOL0     H10782   0.595  10.247   6.945 -0.0081  0.7415 -3.4841
   80MOL0     H10783   0.667  10.090   7.111 -1.8704  0.7166 -0.1054
   80MOL0     H10784   0.972  10.929   7.796  0.8428 -1.1787 -1.9360
   80MOL0     H10785   1.107  11.058   7.643 -0.7453 -1.1079  0.0410
   80MOL0     H10786   1.219  11.338   7.435  4.2005 -4.4367  0.8795
   80MOL0     H10787   1.353  11.494   7.296  0.7476 -0.2239 -2.4437
   80MOL0     H10788   1.346  11.498   6.847 -0.4255 -2.0551  0.5759
   80MOL0     H10789   1.463  11.366   6.895 -0.4080  0.7396 -0.2153
   80MOL0     H10790   1.504  11.672   6.896  0.2615 -0.0189 -1.3089
   80MOL0     H10791   1.587  11.568   6.781  2.6439  0.1463  0.5292
   80MOL0     H10792   1.710  11.465   6.947 -1.5420  0.8821 -3.9503
   80MOL0     H10793   1.630  11.573   7.081 -0.3309  3.7002  0.2178
   80MOL0     H10794   1.739  11.762   7.038 -0.1482 -1.2175  1.5661
   80MOL0     H10795   1.863  11.657   7.016  0.3156  3.8970  1.4648
   80MOL0     H10796   1.795  11.798   6.623  1.1154  0.4893 -0.0018
   80MOL0     H10797   1.271  11.241   6.959 -0.7563 -0.2289  0.1064
   80MOL0     H10798   1.106  10.981   7.141 -3.5927  1.6219  2.2333
   80MOL0     H10799   1.018  11.102   7.038 -0.0081 -0.2661  0.3664
   80MOL0     H10800   1.169  11.042   6.982  2.1821  2.5369  0.8720
   81MOL0     O10801   5.140   7.061  10.190 -0.3995  0.1227 -0.2054
   81MOL0     C10802   5.127   7.053  10.312 -0.4250  0.2380 -0.0389
   81MOL0     O10803   5.040   6.970  10.375 -0.2853  0.5797 -0.3002
   81MOL0     C10804   4.981   6.879  10.291  1.1196  0.3401  0.6850
   81MOL0     C10805   4.895   6.914  10.185  0.1161 -0.6278  0.1350
   81MOL0     C10806   4.820   6.822  10.109 -0.0458  0.0392 -0.3975
   81MOL0     C10807   4.833   6.685  10.149  0.6429 -1.8729 -0.5120
   81MOL0     O10808   4.777   6.584  10.078  0.2548  0.1746 -0.3635
   81MOL0     C10809   4.691   6.618   9.965  0.7059  0.3748 -0.2686
   81MOL0     C10810   4.758   6.633   9.833  0.2410  0.3068  0.5755
   81MOL0     C10811   4.669   6.644   9.704 -0.3199  0.3814 -0.0744
   81MOL0     C10812   4.617   6.516   9.653  0.3521 -0.1102  0.0062
   81MOL0     C10813   4.499   6.532   9.567  0.1322 -0.4054 -0.0928
   81MOL0     C10814   4.536   6.605   9.432 -0.2912  0.0534  0.6031
   81MOL0     C10815   4.425   6.584   9.319  0.1699  0.2624  0.1193
   81MOL0     C10816   4.465   6.672   9.190 -0.9611  0.4497  0.2534
   81MOL0     N10817   4.567   6.591   9.109  1.1355 -0.4307  0.5091
   81MOL0     C10818   4.526   6.518   8.997  1.2249  0.4395 -0.1579
   81MOL0     C10819   4.637   6.514   8.912 -0.9999  0.3790 -0.3488
   81MOL0     C10820   4.643   6.463   8.772  0.1493  0.2665 -1.3344
   81MOL0     C10821   4.672   6.316   8.752 -0.2401  0.8451 -1.6303
   81MOL0     C10822   4.811   6.272   8.792  0.4674 -0.5949 -0.2193
   81MOL0     C10823   4.833   6.248   8.947  0.2718 -0.1502  0.3532
   81MOL0     O10824   4.732   6.161   8.994  0.2735 -0.3791  1.2531
   81MOL0     C10825   4.707   6.163   9.130 -0.3458 -0.9945  0.5143
   81MOL0     C10826   4.585   6.204   9.185  0.2767 -0.1484 -0.4874
   81MOL0     C10827   4.572   6.183   9.325  0.9492  0.1573  0.2074
   81MOL0     C10828   4.661   6.113   9.404 -0.3019  1.2216  0.5825
   81MOL0     C10829   4.630   6.090   9.550  0.3537 -0.0523  0.2091
   81MOL0     O10830   4.588   6.202   9.616  0.3106  0.3833 -0.1568
   81MOL0     C10831   4.577   6.183   9.752 -0.7520  0.5441 -0.7142
   81MOL0     C10832   4.669   6.255   9.838  0.7179 -0.2774 -0.0707
   81MOL0     C10833   4.658   6.244   9.977  0.0807  0.8417 -0.7566
   81MOL0     C10834   4.551   6.177  10.035 -0.4003  0.2069 -0.0911
   81MOL0     O10835   4.526   6.181  10.174 -0.2259  0.4956 -0.3112
   81MOL0     C10836   4.608   6.264  10.253 -0.0477  0.4173 -0.3940
   81MOL0     C10837   4.572   6.225  10.391  0.2216  0.0495 -1.0761
   81MOL0     C10838   4.687   6.263  10.497 -0.0153  0.8054  0.4000
   81MOL0     C10839   4.662   6.221  10.637  0.2222  0.1937  0.8171
   81MOL0     C10840   4.735   6.302  10.748  0.5411  0.2604  0.4992
   81MOL0     C10841   4.886   6.306  10.744  0.2435 -0.0756 -0.0307
   81MOL0     C10842   4.928   6.368  10.872  0.0859 -0.4440  1.0703
   81MOL0     C10843   5.082   6.366  10.884  0.3492 -0.7270 -0.0846
   81MOL0    Cl10844   5.138   6.441  11.041 -0.2615 -0.2729 -0.1528
   81MOL0     C10845   4.467   6.101   9.954 -0.4389 -0.9693  0.7204
   81MOL0     C10846   4.481   6.100   9.807  0.4668  0.6218 -0.8131
   81MOL0     O10847   4.657   5.980   9.596  0.2014 -0.1401  0.0642
   81MOL0     C10848   4.777   6.064   9.346 -1.3465 -0.5525 -0.4370
   81MOL0     C10849   4.804   6.098   9.212 -0.4879 -0.0890 -0.1467
   81MOL0     N10850   4.737   6.583   8.978 -0.4224 -0.1023 -0.1799
   81MOL0     N10851   4.694   6.615   9.095  0.1778 -0.2632 -0.0299
   81MOL0     C10852   4.910   6.653  10.253 -0.0754 -0.3877  0.1905
   81MOL0     C10853   4.981   6.745  10.319 -0.1600 -0.2168  0.7564
   81MOL0     C10854   5.211   7.141  10.392  0.7262 -0.1105 -0.0421
   81MOL0     C10855   5.269   7.250  10.330 -0.0534  0.6195 -0.9081
   81MOL0     C10856   5.356   7.334  10.395 -0.2643 -0.3774 -1.0982
   81MOL0     C10857   5.404   7.311  10.524 -0.0988  0.2421  0.4038
   81MOL0     O10858   5.508   7.390  10.576  0.5780  0.1059  0.2375
   81MOL0     C10859   5.589   7.336  10.681 -0.3506 -1.8337  0.1677
   81MOL0     C10860   5.687   7.243  10.632 -0.6260  0.2202 -0.6146
   81MOL0     C10861   5.794   7.230  10.739 -0.0821  0.9292 -0.1017
   81MOL0     C10862   5.888   7.127  10.691 -0.4812  0.4273  0.5219
   81MOL0     C10863   6.002   7.119  10.782  0.1285  0.4215 -0.4529
   81MOL0     C10864   6.093   7.141  10.864  1.0430 -0.9261 -1.2040
   81MOL0     C10865   5.349   7.200  10.596  0.0496  0.0946  0.1400
   81MOL0     C10866   5.253   7.119  10.530  0.2735 -0.0337 -0.1464
   81MOL0     C10867   5.189   7.011  10.611 -0.2669 -0.9257 -0.3127
   81MOL0     H10868   4.889   7.021  10.170 -3.8086 -0.5758  0.9506
   81MOL0     H10869   4.776   6.860  10.018 -1.2715  2.0546  0.9803
   81MOL0     H10870   4.616   6.539   9.952  0.7421  0.1335  0.8131
   81MOL0     H10871   4.625   6.703   9.988  0.7526  0.5133 -0.6445
   81MOL0     H10872   4.824   6.546   9.823  0.8914  0.9350 -0.9049
   81MOL0     H10873   4.815   6.727   9.840  0.5543  0.2665 -1.0005
   81MOL0     H10874   4.746   6.681   9.635 -0.0909  2.0760  1.0412
   81MOL0     H10875   4.593   6.720   9.722 -0.9413 -0.2277 -0.0990
   81MOL0     H10876   4.685   6.455   9.594  1.4813 -0.1825  1.3450
   81MOL0     H10877   4.579   6.462   9.740 -0.1281  0.4840  0.1745
   81MOL0     H10878   4.462   6.433   9.538 -0.2246  0.0332 -1.2029
   81MOL0     H10879   4.418   6.586   9.617  2.1831 -1.5446  5.1226
   81MOL0     H10880   4.555   6.712   9.440 -1.8357  0.8704 -3.8060
   81MOL0     H10881   4.620   6.559   9.379 -0.6666  1.2704 -1.1630
   81MOL0     H10882   4.333   6.621   9.366  1.0405  0.7449  1.4894
   81MOL0     H10883   4.433   6.475   9.315 -0.8586 -0.3002  5.5892
   81MOL0     H10884   4.380   6.696   9.125 -2.3160  0.1474  1.8539
   81MOL0     H10885   4.521   6.757   9.230  2.0823 -2.2091  2.1704
   81MOL0     H10886   4.430   6.483   8.960 -0.1879  3.4851  0.3551
   81MOL0     H10887   4.553   6.504   8.727  1.0372  1.2932 -2.2308
   81MOL0     H10888   4.729   6.510   8.723  1.9367  1.0232  2.1975
   81MOL0     H10889   4.604   6.255   8.812 -1.7640  3.3623 -0.6774
   81MOL0     H10890   4.667   6.293   8.645 -4.8441  0.3650 -1.5247
   81MOL0     H10891   4.883   6.338   8.743  0.6388  4.0486  5.3070
   81MOL0     H10892   4.823   6.172   8.749 -2.5267 -0.8596 -0.6654
   81MOL0     H10893   4.839   6.342   9.003  0.9486  0.2931 -0.4421
   81MOL0     H10894   4.929   6.198   8.960 -0.8708 -3.0514 -1.4819
   81MOL0     H10895   4.520   6.256   9.115  2.7509  2.5933 -0.9554
   81MOL0     H10896   4.491   6.222   9.386  1.1013 -0.5832  0.8925
   81MOL0     H10897   4.744   6.320   9.794  1.1332 -1.2199 -0.7833
   81MOL0     H10898   4.719   6.309  10.039 -1.4777  2.2747 -0.6400
   81MOL0     H10899   4.714   6.248  10.230 -0.3646  0.8437 -2.3015
   81MOL0     H10900   4.590   6.371  10.244 -0.2039  0.5586  1.2086
   81MOL0     H10901   4.472   6.261  10.415 -0.7665 -2.2461 -1.4486
   81MOL0     H10902   4.562   6.116  10.396 -0.0117  0.1112  0.2458
   81MOL0     H10903   4.784   6.228  10.461 -0.7574  1.9339 -3.0589
   81MOL0     H10904   4.699   6.372  10.492 -3.0761  1.2524  0.6668
   81MOL0     H10905   4.697   6.117  10.632  0.4423  0.3166 -0.6505
   81MOL0     H10906   4.556   6.215  10.662  0.1938 -0.7282  0.5020
   81MOL0     H10907   4.710   6.260  10.846  5.2591  3.2404  3.4062
   81MOL0     H10908   4.697   6.404  10.738 -0.3101 -0.0184  0.8905
   81MOL0     H10909   4.933   6.208  10.739 -0.7185 -0.4994 -0.9424
   81MOL0     H10910   4.912   6.374  10.662 -5.2995  1.7020 -0.6735
   81MOL0     H10911   4.898   6.303  10.955  2.2800 -3.1525 -0.1050
   81MOL0     H10912   4.910   6.475  10.879  3.4777  0.4108 -1.0631
   81MOL0     H10913   5.111   6.261  10.876 -0.3566 -0.9739  0.5135
   81MOL0     H10914   5.117   6.428  10.801 -0.0480 -2.4046 -1.5668
   81MOL0     H10915   4.389   6.044  10.003  0.5977 -3.8381 -0.7040
   81MOL0     H10916   4.407   6.043   9.751  0.9738  0.5059 -1.3660
   81MOL0     H10917   4.845   6.017   9.416  1.5403 -0.0744 -2.7356
   81MOL0     H10918   4.900   6.072   9.169 -0.4812  1.1335 -0.9060
   81MOL0     H10919   4.906   6.550  10.285 -2.0780 -1.0659 -2.0309
   81MOL0     H10920   5.047   6.706  10.396  1.7359 -2.1636 -1.6639
   81MOL0     H10921   5.230   7.280  10.233  2.1896  1.6244 -1.5791
   81MOL0     H10922   5.403   7.411  10.336  1.0006  0.0018  0.3178
   81MOL0     H10923   5.536   7.292  10.766 -0.5671  0.2676  1.1818
   81MOL0     H10924   5.649   7.411  10.733 -2.9562  0.8389 -0.4316
   81MOL0     H10925   5.738   7.273  10.540  1.6301 -2.1445 -0.2659
   81MOL0     H10926   5.640   7.145  10.614 -2.0167  0.4561  1.4324
   81MOL0     H10927   5.754   7.223  10.840  1.3791 -1.5409  0.3700
   81MOL0     H10928   5.853   7.323  10.740 -1.2213  1.7123  2.8869
   81MOL0     H10929   5.840   7.029  10.691  1.3356 -0.5052  0.8544
   81MOL0     H10930   5.923   7.162  10.594 -0.7116  2.3165  1.0772
   81MOL0     H10931   6.180   7.159  10.925  1.1834  2.7588 -2.2121
   81MOL0     H10932   5.373   7.192  10.701 -1.2286 -0.5205  0.4084
   81MOL0     H10933   5.080   7.021  10.611 -0.2099 -0.1006  0.7195
   81MOL0     H10934   5.218   6.908  10.590 -0.3905 -1.8162  3.1315
   81MOL0     H10935   5.205   7.029  10.718  1.6233 -0.0972 -0.6977
   82MOL0     O10936   0.752   2.833   1.174  0.3940  0.0367 -0.2101
   82MOL0     C10937   0.778   2.757   1.265  0.3482 -0.0920 -0.9697
   82MOL0     O10938   0.847   2.788   1.382 -0.1467  0.8992 -0.0042
   82MOL0     C10939   0.894   2.913   1.388  0.5173 -0.1130 -0.6115
   82MOL0     C10940   0.986   2.924   1.491  0.5238 -0.0091  0.1380
   82MOL0     C10941   1.026   3.051   1.543  0.6842 -0.7100  0.4721
   82MOL0     C10942   0.979   3.175   1.499 -0.4708  0.3141 -0.3652
   82MOL0     O10943   1.009   3.299   1.567  0.7191  0.4805 -0.4966
   82MOL0     C10944   0.903   3.402   1.568  0.7912  0.1247 -0.2889
   82MOL0     C10945   0.945   3.527   1.665  0.3415 -0.0561 -0.0976
   82MOL0     C10946   0.994   3.477   1.801 -0.6073  0.5469  0.1406
   82MOL0     C10947   1.000   3.599   1.889 -0.0122  0.1000  0.8474
   82MOL0     C10948   1.101   3.597   2.003 -0.2525 -0.0033 -0.5575
   82MOL0     C10949   1.065   3.488   2.106 -1.3768 -0.3460  0.0082
   82MOL0     C10950   1.191   3.481   2.204  0.3553  0.5724  0.6551
   82MOL0     C10951   1.176   3.357   2.290  0.1906  0.2950  0.1957
   82MOL0     N10952   1.053   3.361   2.365  0.2785  0.0344  0.3247
   82MOL0     C10953   1.029   3.463   2.455 -0.3270 -0.6577 -0.2262
   82MOL0     C10954   0.897   3.444   2.489  0.2056 -0.0677 -0.4233
   82MOL0     C10955   0.829   3.530   2.595  0.1491  0.8778  0.3802
   82MOL0     C10956   0.801   3.455   2.731 -0.8443  0.0588 -0.7406
   82MOL0     C10957   0.931   3.447   2.817  0.4023  0.1703 -0.6377
   82MOL0     C10958   1.002   3.315   2.806 -0.5794  0.7166  0.1158
   82MOL0     O10959   0.928   3.205   2.856  0.6024  0.0508  0.5360
   82MOL0     C10960   0.926   3.181   2.991  0.8205  0.4524 -0.2389
   82MOL0     C10961   0.834   3.089   3.049 -0.3902  1.0763  0.6196
   82MOL0     C10962   0.828   3.061   3.189 -0.2574  0.5804 -0.4839
   82MOL0     C10963   0.914   3.123   3.281 -0.3683 -0.1682  0.3809
   82MOL0     C10964   0.897   3.098   3.422 -0.0698  0.3365  0.0470
   82MOL0     O10965   0.805   3.001   3.468  0.7382 -0.1335 -0.1283
   82MOL0     C10966   0.824   2.955   3.598 -0.3854 -0.2258  0.2148
   82MOL0     C10967   0.850   2.817   3.604 -0.1875 -0.2549 -0.8955
   82MOL0     C10968   0.874   2.761   3.729  0.1899  0.2175 -0.2514
   82MOL0     C10969   0.859   2.843   3.841  0.5388 -0.0981  0.4185
   82MOL0     O10970   0.863   2.795   3.971 -0.4392  0.7142  0.5550
   82MOL0     C10971   0.900   2.658   4.006 -0.0979  0.1806  0.7657
   82MOL0     C10972   0.946   2.650   4.151  0.0774  0.2702 -0.6290
   82MOL0     C10973   1.024   2.522   4.174 -0.4432  0.2725  0.3111
   82MOL0     C10974   1.025   2.482   4.327 -0.2609  0.0554 -0.1837
   82MOL0     C10975   1.145   2.380   4.349 -0.9109 -1.3960 -0.5972
   82MOL0     C10976   1.190   2.384   4.492  0.6904 -0.0821  0.2904
   82MOL0     C10977   1.082   2.409   4.604 -0.4745  1.0409  0.5336
   82MOL0     C10978   1.133   2.350   4.740 -0.3452 -0.1776 -0.2317
   82MOL0    Cl10979   1.309   2.342   4.764 -0.2909 -0.2666  0.0754
   82MOL0     C10980   0.831   2.979   3.833  0.8571 -0.1480  1.3383
   82MOL0     C10981   0.800   3.032   3.712  0.4429  0.0048  0.4120
   82MOL0     O10982   0.978   3.156   3.496 -0.8396  0.2838  1.0580
   82MOL0     C10983   0.984   3.232   3.231  0.6510  0.0523 -0.3950
   82MOL0     C10984   1.006   3.252   3.086  0.3787  0.0776 -0.8481
   82MOL0     N10985   0.855   3.323   2.430 -1.6015 -0.1972 -0.1281
   82MOL0     N10986   0.941   3.288   2.345 -0.9404  0.5356 -0.6450
   82MOL0     C10987   0.890   3.158   1.390 -0.2534 -0.4752  0.1636
   82MOL0     C10988   0.853   3.039   1.332  1.1861 -0.0409 -0.9851
   82MOL0     C10989   0.729   2.618   1.249  0.1701 -0.4992 -0.0483
   82MOL0     C10990   0.701   2.554   1.372 -1.5498  1.1231  0.0311
   82MOL0     C10991   0.665   2.419   1.371 -1.1545 -0.3490 -0.2400
   82MOL0     C10992   0.659   2.345   1.256  0.3456  0.0945 -0.3295
   82MOL0     O10993   0.616   2.212   1.290 -0.4284  0.0437  0.8565
   82MOL0     C10994   0.701   2.105   1.246  0.0313 -0.3730 -0.7819
   82MOL0     C10995   0.718   2.008   1.372 -0.0179 -0.5868 -0.1565
   82MOL0     C10996   0.789   1.885   1.330 -0.1164  0.7354 -0.8530
   82MOL0     C10997   0.861   1.809   1.443 -0.1259  0.5796 -0.6325
   82MOL0     C10998   0.958   1.897   1.512 -0.2946  0.6194 -0.9801
   82MOL0     C10999   1.050   1.944   1.571 -0.9850 -0.3732 -0.3913
   82MOL0     C11000   0.688   2.410   1.136  0.5611 -0.0458  1.8827
   82MOL0     C11001   0.712   2.549   1.130 -0.3428  0.1979 -0.2085
   82MOL0     C11002   0.740   2.609   1.000  0.5578 -0.0828  0.7436
   82MOL0     H11003   1.019   2.828   1.528 -0.0404  0.3872  1.7987
   82MOL0     H11004   1.112   3.043   1.608 -0.7545 -2.4342  2.3077
   82MOL0     H11005   0.896   3.449   1.470  0.1102  4.5590  1.6529
   82MOL0     H11006   0.805   3.367   1.601 -1.2514  2.2238 -3.5814
   82MOL0     H11007   0.860   3.592   1.688 -1.2117 -1.5710 -1.2987
   82MOL0     H11008   1.028   3.578   1.613  0.9341  1.2036  1.9530
   82MOL0     H11009   1.089   3.425   1.786 -0.2530  0.5345  2.1064
   82MOL0     H11010   0.923   3.411   1.851  0.2068  0.2555  0.9374
   82MOL0     H11011   1.032   3.674   1.816  4.7277 -2.1518  0.2415
   82MOL0     H11012   0.902   3.631   1.927  0.6091  0.4959  2.1544
   82MOL0     H11013   1.201   3.583   1.961  0.0148  0.6983 -0.1706
   82MOL0     H11014   1.094   3.698   2.046 -1.1354  0.2263 -1.2253
   82MOL0     H11015   0.972   3.514   2.158 -0.1080  1.1193  1.6944
   82MOL0     H11016   1.048   3.397   2.048 -2.4108  2.0618 -3.8379
   82MOL0     H11017   1.199   3.566   2.272  1.2632  1.4876 -0.5404
   82MOL0     H11018   1.281   3.483   2.142  0.2118 -0.2477  0.3983
   82MOL0     H11019   1.177   3.262   2.237  1.2685 -0.4071  1.4020
   82MOL0     H11020   1.264   3.352   2.356  2.1377  1.0087 -2.1980
   82MOL0     H11021   1.100   3.538   2.490 -1.4055  0.4900 -0.4351
   82MOL0     H11022   0.890   3.621   2.604  1.4793 -0.0626  1.3661
   82MOL0     H11023   0.731   3.548   2.550 -0.1515  2.2627  1.5145
   82MOL0     H11024   0.726   3.501   2.795 -1.0798 -2.6722  1.0901
   82MOL0     H11025   0.765   3.356   2.701  0.5849 -0.4173 -0.9725
   82MOL0     H11026   0.898   3.463   2.920 -1.3784 -0.0614 -1.1260
   82MOL0     H11027   0.999   3.528   2.788  1.3969 -0.1090  0.8523
   82MOL0     H11028   1.099   3.317   2.856  0.9544 -1.1635 -2.5230
   82MOL0     H11029   1.027   3.300   2.701  0.8716  1.1319  0.3751
   82MOL0     H11030   0.776   3.028   2.981  3.4234 -4.1055  1.4164
   82MOL0     H11031   0.759   2.983   3.222  1.8082 -1.0112  0.3181
   82MOL0     H11032   0.872   2.765   3.511 -1.7005  1.3318 -2.2012
   82MOL0     H11033   0.904   2.657   3.738  2.6006  0.8203 -0.6814
   82MOL0     H11034   0.820   2.591   3.973 -1.7907  3.5790 -2.9709
   82MOL0     H11035   0.992   2.631   3.954  0.3948  1.4060  0.9485
   82MOL0     H11036   1.001   2.740   4.179  1.4589 -0.7296 -0.0247
   82MOL0     H11037   0.867   2.660   4.225  2.7268  2.8615  2.1196
   82MOL0     H11038   0.978   2.446   4.110  0.6961 -0.3004  0.1524
   82MOL0     H11039   1.129   2.537   4.146 -0.1908 -2.1248 -0.1910
   82MOL0     H11040   0.932   2.437   4.361 -1.6091 -0.1786 -3.6894
   82MOL0     H11041   1.049   2.570   4.387 -2.4312  1.8684 -1.7772
   82MOL0     H11042   1.238   2.399   4.294  0.0476  1.8953  1.8616
   82MOL0     H11043   1.118   2.279   4.317 -1.5948 -0.6047 -2.7398
   82MOL0     H11044   1.238   2.288   4.510  2.0314  0.9649  2.7672
   82MOL0     H11045   1.266   2.462   4.507 -2.0098  2.4720  1.8405
   82MOL0     H11046   0.989   2.356   4.582  0.8972 -1.9573  1.3227
   82MOL0     H11047   1.062   2.516   4.617  2.8828  1.9472 -0.6222
   82MOL0     H11048   1.095   2.411   4.823 -0.1383 -2.2104  1.4355
   82MOL0     H11049   1.098   2.247   4.747  1.3374 -0.7760 -0.1134
   82MOL0     H11050   0.823   3.041   3.921 -0.1395  1.5753  0.1189
   82MOL0     H11051   0.774   3.137   3.698 -0.5206 -0.1963  0.6328
   82MOL0     H11052   1.038   3.292   3.303  2.3371 -0.8519 -0.8536
   82MOL0     H11053   1.088   3.322   3.074  2.5164 -2.3297 -0.9537
   82MOL0     H11054   0.845   3.246   1.344  2.5102 -0.7165 -3.4758
   82MOL0     H11055   0.765   3.052   1.269 -0.9486  3.0081  2.2514
   82MOL0     H11056   0.706   2.612   1.463 -0.8159 -0.3863  0.9799
   82MOL0     H11057   0.659   2.367   1.466  0.3594  1.6293  1.0092
   82MOL0     H11058   0.798   2.141   1.211 -0.0869  2.4996  1.4840
   82MOL0     H11059   0.662   2.060   1.154 -0.7349 -0.2210 -0.5418
   82MOL0     H11060   0.621   1.970   1.404  0.5359 -1.9195  0.0111
   82MOL0     H11061   0.771   2.059   1.452 -1.9669 -0.6412  1.2377
   82MOL0     H11062   0.849   1.884   1.239  0.9077 -0.3065 -0.1971
   82MOL0     H11063   0.711   1.817   1.295  0.3265 -0.2187 -0.0372
   82MOL0     H11064   0.784   1.778   1.513  0.2823  1.6172  0.3042
   82MOL0     H11065   0.903   1.714   1.408  0.1641  0.9925 -1.4645
   82MOL0     H11066   1.126   1.989   1.632 -0.1475 -0.3901 -1.4064
   82MOL0     H11067   0.686   2.350   1.046  0.5445 -3.2635  3.8411
   82MOL0     H11068   0.833   2.665   1.005  0.5718  0.0066 -0.1917
   82MOL0     H11069   0.740   2.538   0.916 -1.4001 -0.1676  0.7805
   82MOL0     H11070   0.673   2.689   0.967  1.4295  0.1504 -0.5679
   83MOL0     O11071   9.771   0.210  10.119  0.1989  0.3227 -0.1938
   83MOL0     C11072   9.696   0.180  10.034  0.5326 -0.7037 -0.2685
   83MOL0     O11073   9.694   0.058   9.972  0.2274  0.6922  0.3079
   83MOL0     C11074   9.796  -0.025  10.003  0.0261 -0.2722  0.4142
   83MOL0     C11075   9.919  -0.014   9.938  0.6482 -0.3996 -0.3281
   83MOL0     C11076  10.033  -0.087   9.974  0.1855  0.7688  0.0656
   83MOL0     C11077  10.020  -0.193  10.061  0.0141  0.2205 -0.7994
   83MOL0     O11078  10.117  -0.286  10.095  0.3442 -0.7035 -0.0369
   83MOL0     C11079  10.246  -0.288  10.032 -0.2522 -0.4757  0.7330
   83MOL0     C11080  10.353  -0.365  10.110 -0.6307  0.3246  0.0630
   83MOL0     C11081  10.502  -0.335  10.070 -0.4497 -0.5199  0.1799
   83MOL0     C11082  10.523  -0.362   9.916 -0.5347  0.2963 -0.4204
   83MOL0     C11083  10.671  -0.416   9.883 -0.1561  0.5562 -1.0268
   83MOL0     C11084  10.685  -0.440   9.732 -0.2698  0.1104  0.2687
   83MOL0     C11085  10.823  -0.509   9.698 -0.7676 -0.5675 -0.6640
   83MOL0     C11086  10.818  -0.607   9.580 -0.0218  0.3653  0.0722
   83MOL0     N11087  10.796  -0.531   9.456  0.0646 -1.0922  0.6795
   83MOL0     C11088  10.870  -0.419   9.404 -0.0306 -0.1450 -0.7283
   83MOL0     C11089  10.801  -0.374   9.301  0.0241  0.1465 -0.9369
   83MOL0     C11090  10.832  -0.236   9.235  0.2057  0.6246  0.0380
   83MOL0     C11091  10.748  -0.207   9.112  0.4362  0.2138  1.7837
   83MOL0     C11092  10.801  -0.077   9.035 -0.3942 -0.5896 -0.0064
   83MOL0     C11093  10.812   0.045   9.124 -0.2122  0.3569 -0.1268
   83MOL0     O11094  10.811   0.165   9.038 -0.2484  0.1673 -0.2104
   83MOL0     C11095  10.804   0.292   9.101 -0.3543  0.6351  0.4686
   83MOL0     C11096  10.783   0.404   9.018  0.2411  0.3226  0.1376
   83MOL0     C11097  10.776   0.529   9.082  0.1564 -0.1561  0.0680
   83MOL0     C11098  10.804   0.544   9.224 -0.3224  0.1012  0.4365
   83MOL0     C11099  10.804   0.679   9.281 -0.1154  0.3135  0.4365
   83MOL0     O11100  10.869   0.698   9.399 -0.1894  0.5400 -0.0071
   83MOL0     C11101  10.845   0.821   9.469  0.7809  0.4985 -0.6698
   83MOL0     C11102  10.728   0.872   9.523  0.1157 -0.4224  0.3493
   83MOL0     C11103  10.726   0.984   9.598  1.0924 -0.3808 -0.4583
   83MOL0     C11104  10.844   1.064   9.629  1.0100  0.7983 -0.1786
   83MOL0     O11105  10.838   1.190   9.683  0.5603 -0.3519 -0.7740
   83MOL0     C11106  10.713   1.229   9.745  0.0887 -0.1267 -0.0058
   83MOL0     C11107  10.720   1.363   9.817 -0.2590 -0.3669 -0.4075
   83MOL0     C11108  10.833   1.360   9.921  0.3809  0.4117 -0.3442
   83MOL0     C11109  10.840   1.238  10.016 -0.5683  0.2554 -0.6446
   83MOL0     C11110  10.934   1.246  10.142  0.3044  0.0297  0.0616
   83MOL0     C11111  10.887   1.357  10.238 -0.8402  1.1923 -0.3176
   83MOL0     C11112  10.930   1.340  10.382 -0.7331  0.4281  0.4115
   83MOL0     C11113  11.075   1.310  10.382  0.2151 -0.7998 -0.3829
   83MOL0    Cl11114  11.150   1.333  10.550  0.2535  0.2212 -0.0236
   83MOL0     C11115  10.960   1.012   9.569 -0.2426 -0.5559 -0.5238
   83MOL0     C11116  10.962   0.901   9.492 -0.2404  0.4901  0.2495
   83MOL0     O11117  10.748   0.773   9.212 -0.0360 -0.7022 -0.2777
   83MOL0     C11118  10.826   0.433   9.294  0.4304  0.4187  0.2206
   83MOL0     C11119  10.817   0.305   9.242 -0.8684  0.1996  0.6980
   83MOL0     N11120  10.693  -0.466   9.280  0.0069 -0.5156 -0.1823
   83MOL0     N11121  10.687  -0.555   9.374 -0.6484  0.4589 -1.0271
   83MOL0     C11122   9.886  -0.224  10.105 -0.4257  0.6550 -0.2803
   83MOL0     C11123   9.782  -0.131  10.086 -0.2121 -0.0177 -1.2467
   83MOL0     C11124   9.587   0.274   9.990  0.3440  0.7735 -0.8324
   83MOL0     C11125   9.509   0.239   9.876  0.5384  1.0006  0.0856
   83MOL0     C11126   9.403   0.317   9.838 -0.2157 -0.3744  0.3238
   83MOL0     C11127   9.367   0.428   9.912  0.5804  0.3837 -0.5200
   83MOL0     O11128   9.264   0.500   9.852 -0.6957  0.1573  0.1155
   83MOL0     C11129   9.210   0.604   9.931  0.2435 -0.1211  0.3300
   83MOL0     C11130   9.109   0.671   9.828  0.3705  0.9243 -0.1859
   83MOL0     C11131   9.183   0.747   9.719  0.1774 -0.4998  1.1427
   83MOL0     C11132   9.273   0.870   9.762 -0.7073  0.1072 -0.1427
   83MOL0     C11133   9.185   0.975   9.802 -0.5189  1.5820 -0.1251
   83MOL0     C11134   9.123   1.065   9.843 -0.2347  0.3490 -0.2915
   83MOL0     C11135   9.444   0.466  10.026 -0.1163  0.1806  0.7433
   83MOL0     C11136   9.543   0.382  10.073 -0.6029  0.0201  1.1519
   83MOL0     C11137   9.606   0.430  10.200 -0.4820  0.3361 -0.5019
   83MOL0     H11138   9.934   0.067   9.868 -0.7354 -0.9556 -1.3017
   83MOL0     H11139  10.128  -0.053   9.935 -1.2331  1.1759 -3.3802
   83MOL0     H11140  10.227  -0.315   9.928  0.8939  0.8215  0.1648
   83MOL0     H11141  10.274  -0.183  10.021 -0.5197 -0.0465  3.3926
   83MOL0     H11142  10.330  -0.472  10.100  1.3838 -0.4304  2.4661
   83MOL0     H11143  10.351  -0.331  10.213 -0.6597 -0.2607  0.2588
   83MOL0     H11144  10.578  -0.396  10.122  0.1061 -2.7291 -2.9550
   83MOL0     H11145  10.521  -0.229  10.088 -1.5917 -0.2318 -0.2983
   83MOL0     H11146  10.458  -0.436   9.868 -0.4409 -1.9879  2.6399
   83MOL0     H11147  10.507  -0.263   9.871  2.0462  1.7551  1.5567
   83MOL0     H11148  10.744  -0.338   9.907  1.8865 -1.4836 -0.1179
   83MOL0     H11149  10.694  -0.513   9.930  0.0715  0.5539 -1.1420
   83MOL0     H11150  10.607  -0.514   9.709  1.4420 -1.6625 -0.0281
   83MOL0     H11151  10.680  -0.346   9.676  1.4520 -0.7737 -1.4860
   83MOL0     H11152  10.859  -0.563   9.786 -0.6814  1.6906  0.7531
   83MOL0     H11153  10.899  -0.431   9.684 -0.6248 -0.0357  2.3818
   83MOL0     H11154  10.901  -0.678   9.570  0.8921  1.7626 -4.9941
   83MOL0     H11155  10.739  -0.682   9.592 -1.0551  1.1610 -1.4520
   83MOL0     H11156  10.964  -0.377   9.439  0.1025  0.9799 -2.3197
   83MOL0     H11157  10.817  -0.161   9.313  2.4826  0.4759  0.6860
   83MOL0     H11158  10.937  -0.244   9.206  0.2026  1.4672 -0.2208
   83MOL0     H11159  10.760  -0.294   9.047 -2.0455 -0.6351  2.3631
   83MOL0     H11160  10.639  -0.200   9.110  0.3426 -0.3488 -1.3175
   83MOL0     H11161  10.740  -0.053   8.948 -1.7631 -0.7002  0.9024
   83MOL0     H11162  10.899  -0.101   8.992  0.0945 -1.6515  1.6177
   83MOL0     H11163  10.901   0.047   9.188  0.7335 -2.0502 -1.2477
   83MOL0     H11164  10.726   0.051   9.191  0.3452  0.5330  0.5884
   83MOL0     H11165  10.761   0.397   8.912 -5.4262 -1.9954  1.0862
   83MOL0     H11166  10.741   0.612   9.022  2.1757 -0.2911 -1.3985
   83MOL0     H11167  10.640   0.812   9.501 -0.1359  0.4917 -1.2813
   83MOL0     H11168  10.627   1.012   9.632  1.4667  0.9590 -0.4044
   83MOL0     H11169  10.636   1.249   9.669 -2.1373 -1.3816  1.8185
   83MOL0     H11170  10.669   1.159   9.816 -0.7940  0.9372  0.5454
   83MOL0     H11171  10.750   1.440   9.744  1.3587 -0.6793 -0.1125
   83MOL0     H11172  10.627   1.391   9.867 -1.5135 -1.9558 -1.7300
   83MOL0     H11173  10.929   1.358   9.868  1.3547 -2.5577  1.2975
   83MOL0     H11174  10.818   1.445   9.989 -3.4373  0.2240 -0.7186
   83MOL0     H11175  10.865   1.152   9.954  2.0760 -0.1084  0.7691
   83MOL0     H11176  10.740   1.232  10.061 -0.2100 -0.5256  0.0697
   83MOL0     H11177  11.039   1.259  10.113  0.6172 -1.1876  0.5809
   83MOL0     H11178  10.935   1.150  10.195 -0.7588  0.4142  0.8270
   83MOL0     H11179  10.908   1.452  10.188 -0.6119  0.7041 -1.1708
   83MOL0     H11180  10.778   1.359  10.247 -0.7556  2.8851  0.8086
   83MOL0     H11181  10.880   1.264  10.443  2.0605 -0.8474  1.2253
   83MOL0     H11182  10.915   1.436  10.434 -2.4098  0.6097 -0.3330
   83MOL0     H11183  11.094   1.209  10.346  0.4315 -1.4563  1.5175
   83MOL0     H11184  11.128   1.377  10.313  3.8051 -0.8925  2.0197
   83MOL0     H11185  11.052   1.069   9.582 -0.2407 -0.7119  0.1485
   83MOL0     H11186  11.058   0.864   9.457 -1.5477 -1.5712 -1.4564
   83MOL0     H11187  10.857   0.444   9.397 -1.0027 -2.9092  1.1468
   83MOL0     H11188  10.843   0.223   9.307  2.0502  1.4032  1.1941
   83MOL0     H11189   9.865  -0.315  10.160  3.6909 -1.1897 -1.4089
   83MOL0     H11190   9.698  -0.150  10.152  1.0175  3.5552  1.6609
   83MOL0     H11191   9.544   0.152   9.821  0.5213 -0.5035  2.3133
   83MOL0     H11192   9.322   0.285   9.775 -0.1742  2.1423 -1.1572
   83MOL0     H11193   9.282   0.679   9.966  2.2425 -1.0941 -1.4343
   83MOL0     H11194   9.172   0.562  10.024  3.9727 -0.4061  1.9047
   83MOL0     H11195   9.038   0.726   9.889 -0.8283 -1.6315  0.8814
   83MOL0     H11196   9.050   0.596   9.774  2.5075  0.7315 -2.4168
   83MOL0     H11197   9.108   0.782   9.647  0.2777  1.1548  1.7971
   83MOL0     H11198   9.245   0.673   9.669 -0.4234  0.3577 -0.9772
   83MOL0     H11199   9.348   0.843   9.837 -0.2025  2.3437  0.2337
   83MOL0     H11200   9.339   0.898   9.680  2.3494  0.6834  2.3237
   83MOL0     H11201   9.062   1.145   9.880 -0.8325  1.1117 -2.7078
   83MOL0     H11202   9.414   0.560  10.071  1.8005  0.3341  1.7837
   83MOL0     H11203   9.585   0.364  10.284 -1.3371  0.1008 -0.8957
   83MOL0     H11204   9.711   0.457  10.190 -1.6170  4.8362 -2.7820
   83MOL0     H11205   9.557   0.524  10.226 -2.1998 -0.9886  1.3644
   84MOL0     O11206   7.833   1.004  11.267 -0.7518 -0.3584  0.6491
   84MOL0     C11207   7.738   0.938  11.225 -0.4203 -0.1022  0.3769
   84MOL0     O11208   7.632   0.896  11.295 -0.5463 -0.9422 -0.2688
   84MOL0     C11209   7.644   0.891  11.430 -0.6569  0.1771 -0.0457
   84MOL0     C11210   7.614   1.007  11.503 -0.3905 -0.7458 -0.7050
   84MOL0     C11211   7.608   0.999  11.642  0.0775 -0.5460 -0.5814
   84MOL0     C11212   7.649   0.877  11.708 -0.0737 -1.1257 -0.3965
   84MOL0     O11213   7.648   0.865  11.846 -0.5596 -0.0883 -0.4758
   84MOL0     C11214   7.551   0.934  11.926  0.9200 -1.5230 -0.3100
   84MOL0     C11215   7.445   0.831  11.981 -0.1156  1.0014  0.9594
   84MOL0     C11216   7.318   0.790  11.898 -0.5513  0.4431 -0.4806
   84MOL0     C11217   7.351   0.701  11.778 -0.4507 -0.2573  0.4738
   84MOL0     C11218   7.237   0.609  11.740 -1.3273 -0.1156 -0.0964
   84MOL0     C11219   7.126   0.685  11.673 -0.2131  0.1256 -0.2566
   84MOL0     C11220   7.000   0.602  11.672  0.6126 -0.2355  0.4728
   84MOL0     C11221   6.890   0.682  11.590 -0.8261  1.0517 -0.6541
   84MOL0     N11222   6.834   0.789  11.669 -0.9047 -0.2468  0.4682
   84MOL0     C11223   6.771   0.790  11.791  0.2427 -0.3966 -0.9462
   84MOL0     C11224   6.699   0.909  11.804  1.5643  0.1362 -0.7614
   84MOL0     C11225   6.608   0.938  11.917 -0.2034 -1.0253  0.9793
   84MOL0     C11226   6.482   1.011  11.879  0.1032  0.1283  0.8029
   84MOL0     C11227   6.433   1.089  12.009 -1.4850 -0.1202 -0.7784
   84MOL0     C11228   6.421   1.018  12.148 -0.5609  0.7298  0.8933
   84MOL0     O11229   6.374   1.132  12.225 -0.1667 -0.3773  0.2809
   84MOL0     C11230   6.379   1.128  12.361 -0.7054  0.0842 -0.6048
   84MOL0     C11231   6.363   1.249  12.433  0.0077 -0.6215 -0.6554
   84MOL0     C11232   6.382   1.255  12.572 -0.0585 -0.6240  0.1425
   84MOL0     C11233   6.399   1.126  12.646 -0.2197 -0.5603  1.1357
   84MOL0     C11234   6.413   1.130  12.796  0.1609 -1.5659  0.7017
   84MOL0     O11235   6.343   1.035  12.862  0.6224 -0.7570  0.6211
   84MOL0     C11236   6.407   0.992  12.976  0.6386 -0.3823  0.2308
   84MOL0     C11237   6.432   1.073  13.089  1.1662  0.1712 -0.6897
   84MOL0     C11238   6.485   1.014  13.211 -1.1654  0.1115 -1.1901
   84MOL0     C11239   6.519   0.882  13.227  0.6545  0.4933 -0.3110
   84MOL0     O11240   6.551   0.831  13.349 -0.3842 -0.2809  1.0278
   84MOL0     C11241   6.421   0.809  13.409 -0.1022 -0.0175 -0.4640
   84MOL0     C11242   6.417   0.675  13.486 -0.1668  0.1932  0.2055
   84MOL0     C11243   6.265   0.633  13.529  0.8643  0.1451 -1.0406
   84MOL0     C11244   6.183   0.607  13.403 -0.7071 -0.1445  0.0676
   84MOL0     C11245   6.065   0.518  13.427 -0.1821  0.4593 -0.2434
   84MOL0     C11246   5.984   0.496  13.311  0.2864  0.0846  0.7644
   84MOL0     C11247   6.061   0.424  13.200 -0.3051  0.3233  0.3638
   84MOL0     C11248   5.956   0.405  13.096  0.9651  0.3862  0.4891
   84MOL0    Cl11249   5.836   0.274  13.151 -0.4186  0.3546  0.1320
   84MOL0     C11250   6.495   0.800  13.108  0.5955 -0.2426 -0.2519
   84MOL0     C11251   6.436   0.855  12.994  1.3256 -0.4898  0.0368
   84MOL0     O11252   6.505   1.205  12.847  0.2360  0.6631  0.4407
   84MOL0     C11253   6.385   1.001  12.573  0.0277 -0.6521 -0.0952
   84MOL0     C11254   6.394   1.006  12.433 -0.6322  0.7816 -0.1100
   84MOL0     N11255   6.737   0.979  11.695 -0.4064  0.1191  0.6634
   84MOL0     N11256   6.815   0.909  11.625 -0.9687 -0.4587 -0.2744
   84MOL0     C11257   7.683   0.763  11.634  0.1528  0.9921 -0.2203
   84MOL0     C11258   7.673   0.773  11.502 -0.1434 -0.5051 -0.0658
   84MOL0     C11259   7.734   0.917  11.075  0.4996  0.0994 -0.4061
   84MOL0     C11260   7.857   0.928  11.007  0.2680  0.2890 -1.2771
   84MOL0     C11261   7.870   0.909  10.868 -0.2971 -0.2399 -0.1399
   84MOL0     C11262   7.765   0.877  10.787  0.4433 -0.4174 -0.2147
   84MOL0     O11263   7.782   0.878  10.652 -0.3908 -0.7644  0.0432
   84MOL0     C11264   7.675   0.846  10.574  1.0513  0.3999 -0.1525
   84MOL0     C11265   7.717   0.797  10.431 -0.2578 -0.5204 -0.3118
   84MOL0     C11266   7.830   0.697  10.442  0.3560  0.1656 -0.0408
   84MOL0     C11267   7.874   0.634  10.305  0.6617 -0.0141  0.5331
   84MOL0     C11268   7.766   0.548  10.256 -0.0109  0.5149 -0.2213
   84MOL0     C11269   7.681   0.464  10.222  0.7072 -0.0991  0.3380
   84MOL0     C11270   7.637   0.863  10.858  0.4567 -0.0528  0.6300
   84MOL0     C11271   7.617   0.878  11.000  0.1733 -0.4710 -0.7669
   84MOL0     C11272   7.477   0.862  11.054 -0.1011  1.0687 -0.1058
   84MOL0     H11273   7.570   1.095  11.459 -2.6594 -2.4098 -1.9578
   84MOL0     H11274   7.574   1.083  11.700 -1.9171 -0.4740 -1.7461
   84MOL0     H11275   7.597   0.985  12.011  0.4937  0.6952 -1.3351
   84MOL0     H11276   7.490   1.015  11.885  2.7127  1.5498  2.5726
   84MOL0     H11277   7.414   0.876  12.076  1.3542 -0.6056  2.2768
   84MOL0     H11278   7.503   0.739  11.995 -1.4008 -0.6391 -3.1014
   84MOL0     H11279   7.292   0.881  11.844 -1.0410  1.1214  0.8577
   84MOL0     H11280   7.245   0.742  11.964  0.6570 -2.3684 -1.0153
   84MOL0     H11281   7.363   0.755  11.683 -0.8657 -2.3502 -0.8543
   84MOL0     H11282   7.446   0.648  11.787 -0.4729 -0.3170  0.3686
   84MOL0     H11283   7.278   0.541  11.664  2.0590 -1.2653  2.5121
   84MOL0     H11284   7.205   0.551  11.827 -2.0225  3.2494  2.0471
   84MOL0     H11285   7.105   0.781  11.721  0.5776  0.9477 -1.4942
   84MOL0     H11286   7.162   0.714  11.574  1.8771  1.7186  0.9057
   84MOL0     H11287   6.974   0.587  11.777  0.4862  1.5332  0.7365
   84MOL0     H11288   7.018   0.504  11.627  4.1183  0.5631 -0.1624
   84MOL0     H11289   6.916   0.726  11.493  1.8381  0.0045 -0.5130
   84MOL0     H11290   6.815   0.606  11.568 -1.7442  1.1520  1.8414
   84MOL0     H11291   6.762   0.704  11.856 -1.6108  2.7951  3.5614
   84MOL0     H11292   6.582   0.845  11.968 -1.1468  0.3153  3.0730
   84MOL0     H11293   6.666   1.000  11.985  1.4684 -0.2741 -1.0170
   84MOL0     H11294   6.492   1.072  11.789 -0.1126 -0.1963  0.5554
   84MOL0     H11295   6.396   0.945  11.867  1.0528 -1.1980  0.9619
   84MOL0     H11296   6.337   1.137  11.989 -0.8753  2.1263  1.2155
   84MOL0     H11297   6.510   1.167  12.016 -2.4588  0.7199  4.1491
   84MOL0     H11298   6.523   1.001  12.184 -0.3559  0.3007  0.1265
   84MOL0     H11299   6.355   0.931  12.152 -0.1695  0.0910 -2.8827
   84MOL0     H11300   6.335   1.340  12.380 -3.9045 -0.3902  1.4572
   84MOL0     H11301   6.365   1.348  12.625 -2.4766 -1.2776  0.6147
   84MOL0     H11302   6.412   1.180  13.085 -0.3308 -0.0934 -0.6509
   84MOL0     H11303   6.517   1.080  13.291  2.8132  1.4681 -3.6360
   84MOL0     H11304   6.405   0.883  13.488 -0.2866 -3.7919  3.3636
   84MOL0     H11305   6.334   0.817  13.343 -0.1026 -1.2050 -0.6231
   84MOL0     H11306   6.453   0.595  13.421  0.7137 -0.2424  1.2004
   84MOL0     H11307   6.493   0.677  13.564  1.0024 -3.6602 -0.6360
   84MOL0     H11308   6.274   0.547  13.596 -2.7515  1.5818  1.6064
   84MOL0     H11309   6.213   0.717  13.576 -0.7997  0.2290 -2.9186
   84MOL0     H11310   6.250   0.561  13.330  1.0922  0.3582  1.3215
   84MOL0     H11311   6.134   0.691  13.354  1.2372  0.6563 -0.6171
   84MOL0     H11312   5.994   0.547  13.505  1.1067 -0.2288  1.2417
   84MOL0     H11313   6.100   0.418  13.452  1.4062  1.2976  1.0945
   84MOL0     H11314   5.888   0.446  13.329 -1.1347  1.5993 -1.9552
   84MOL0     H11315   5.962   0.595  13.271  0.9503  0.3301  1.0029
   84MOL0     H11316   6.105   0.329  13.234 -1.0765 -1.8824 -4.0618
   84MOL0     H11317   6.142   0.477  13.151 -0.1490 -0.8090 -0.6528
   84MOL0     H11318   5.900   0.498  13.085 -2.4563 -1.2836  2.2099
   84MOL0     H11319   5.993   0.377  12.997 -3.0735 -2.3989 -0.4919
   84MOL0     H11320   6.507   0.693  13.126 -3.0468 -1.1088 -2.0928
   84MOL0     H11321   6.394   0.789  12.918  0.2828 -2.4512  2.1914
   84MOL0     H11322   6.384   0.904  12.623 -0.4330 -2.0408 -2.6174
   84MOL0     H11323   6.418   0.909  12.391  3.4113  1.1380  0.9650
   84MOL0     H11324   7.713   0.668  11.675 -1.9670  0.1577 -0.4769
   84MOL0     H11325   7.680   0.676  11.453 -3.3773 -0.3758 -0.9942
   84MOL0     H11326   7.944   0.969  11.057  0.8439 -3.1763  0.8665
   84MOL0     H11327   7.963   0.930  10.816  0.0190 -1.7121 -0.1912
   84MOL0     H11328   7.601   0.927  10.565  0.6578  0.1026  0.3650
   84MOL0     H11329   7.627   0.759  10.621 -2.7847  2.2531 -0.2169
   84MOL0     H11330   7.759   0.872  10.363  1.7400 -1.7071 -0.4641
   84MOL0     H11331   7.633   0.752  10.378 -2.0477  2.1777  0.0479
   84MOL0     H11332   7.799   0.621  10.514 -1.9284 -0.0053 -1.1029
   84MOL0     H11333   7.905   0.757  10.494 -1.2502  2.9298 -0.7040
   84MOL0     H11334   7.898   0.713  10.234  0.1482 -1.4393 -1.2935
   84MOL0     H11335   7.952   0.559  10.320  0.9373 -0.8897 -3.8737
   84MOL0     H11336   7.603   0.395  10.196  1.0685 -0.1488 -0.6235
   84MOL0     H11337   7.541   0.845  10.811 -0.7634  0.5054  2.7824
   84MOL0     H11338   7.471   0.761  11.097 -1.1647  1.0320 -0.2995
   84MOL0     H11339   7.455   0.927  11.139  2.2753  0.4031  1.0936
   84MOL0     H11340   7.405   0.861  10.971 -0.7804 -0.0807  0.4648
   85MOL0     O11341   6.384   8.202   6.695 -0.5215 -0.2200  0.4575
   85MOL0     C11342   6.384   8.083   6.721 -0.4413 -0.0126 -0.4383
   85MOL0     O11343   6.310   7.974   6.666  0.6863 -0.4746  0.2690
   85MOL0     C11344   6.238   7.995   6.546 -0.3567  0.0298 -0.1706
   85MOL0     C11345   6.192   7.882   6.481 -0.6526 -0.5274  0.5751
   85MOL0     C11346   6.127   7.902   6.359 -0.4309  0.5004  0.3765
   85MOL0     C11347   6.114   8.018   6.295  0.0798 -0.9289  0.2938
   85MOL0     O11348   6.045   8.029   6.185 -0.5341  0.3621 -0.0616
   85MOL0     C11349   6.084   8.096   6.060 -0.4790  0.0855 -0.3270
   85MOL0     C11350   5.962   8.083   5.967 -0.2940  0.2555  0.1424
   85MOL0     C11351   5.950   7.942   5.919 -0.6955  1.4505  0.4131
   85MOL0     C11352   6.055   7.878   5.832 -0.3626 -0.9132 -0.0730
   85MOL0     C11353   5.992   7.749   5.773 -0.1319  0.6312 -0.9572
   85MOL0     C11354   6.085   7.663   5.687 -0.1510  0.8499  0.7183
   85MOL0     C11355   6.018   7.531   5.659  0.0209 -0.8279  0.0019
   85MOL0     C11356   6.094   7.436   5.559  0.2278 -0.3359 -0.4446
   85MOL0     N11357   6.200   7.377   5.626 -0.1756 -0.7115  0.0946
   85MOL0     C11358   6.205   7.252   5.679  0.7693  0.0550  0.4680
   85MOL0     C11359   6.328   7.239   5.734 -1.1821  0.8154 -0.7513
   85MOL0     C11360   6.388   7.132   5.820 -0.0874  0.3783  0.4961
   85MOL0     C11361   6.364   6.996   5.776 -0.1266  0.3743  0.2768
   85MOL0     C11362   6.405   6.883   5.876  0.2389 -0.2748  0.1711
   85MOL0     C11363   6.409   6.751   5.797  0.1779 -0.4232  0.1065
   85MOL0     O11364   6.282   6.729   5.729  0.2926 -0.0112 -0.6425
   85MOL0     C11365   6.287   6.672   5.608  0.1894  0.3532  1.2852
   85MOL0     C11366   6.389   6.595   5.543 -0.2680 -0.2746 -0.5495
   85MOL0     C11367   6.373   6.559   5.405  1.1794  0.2139 -0.9419
   85MOL0     C11368   6.262   6.609   5.335  0.0280 -0.6381  0.0117
   85MOL0     C11369   6.259   6.550   5.196  0.4807 -0.3858 -0.8972
   85MOL0     O11370   6.128   6.555   5.142 -0.8522  0.2378  0.2800
   85MOL0     C11371   6.110   6.477   5.030 -0.0689 -0.4148  0.6374
   85MOL0     C11372   6.026   6.369   5.039 -0.1214  0.8787  0.0835
   85MOL0     C11373   5.988   6.295   4.924 -0.2173 -0.2795 -0.4308
   85MOL0     C11374   6.050   6.312   4.795  0.2745  0.7510 -0.4479
   85MOL0     O11375   6.030   6.234   4.681  0.2926  0.5069 -0.4292
   85MOL0     C11376   5.914   6.149   4.685 -0.5324 -0.4152 -0.2179
   85MOL0     C11377   5.916   6.056   4.560 -0.3423  0.5556  1.0452
   85MOL0     C11378   5.784   6.064   4.484 -0.2661  0.1807  0.7954
   85MOL0     C11379   5.784   5.969   4.365 -0.0602  0.6637 -0.0069
   85MOL0     C11380   5.685   6.032   4.270 -0.8479  0.0803  0.7532
   85MOL0     C11381   5.672   5.951   4.141 -0.7469 -0.6828  1.4402
   85MOL0     C11382   5.538   5.877   4.116 -0.0432 -0.3939  0.2636
   85MOL0     C11383   5.560   5.743   4.040  0.4423 -0.5344  1.3171
   85MOL0    Cl11384   5.587   5.773   3.863 -0.2069 -0.8296  0.1430
   85MOL0     C11385   6.142   6.422   4.796  0.5548 -0.2295  0.1786
   85MOL0     C11386   6.161   6.509   4.901 -0.1830  0.0764  0.1802
   85MOL0     O11387   6.353   6.488   5.147 -0.5047  0.3420  0.2678
   85MOL0     C11388   6.153   6.676   5.406 -0.4074 -0.3623 -0.2268
   85MOL0     C11389   6.180   6.714   5.534  0.4754 -0.1687 -0.3310
   85MOL0     N11390   6.408   7.343   5.689  1.0174  0.0835  0.6316
   85MOL0     N11391   6.330   7.422   5.621  0.3616  0.1064 -0.1233
   85MOL0     C11392   6.151   8.136   6.359  0.4769  0.6483  0.8103
   85MOL0     C11393   6.209   8.118   6.491  0.4141 -0.7120  0.4799
   85MOL0     C11394   6.479   8.044   6.822 -0.5808  0.4004 -0.1893
   85MOL0     C11395   6.549   7.931   6.795  0.1129 -0.0805  0.2595
   85MOL0     C11396   6.640   7.874   6.888  0.3634  0.5244  0.4764
   85MOL0     C11397   6.667   7.934   7.005 -0.1970  0.3520  0.5510
   85MOL0     O11398   6.778   7.890   7.072  0.9503 -0.3044  0.4058
   85MOL0     C11399   6.809   7.936   7.196 -0.3931 -0.2128  0.0755
   85MOL0     C11400   6.950   7.884   7.237 -0.0853 -0.0792 -0.3957
   85MOL0     C11401   6.959   7.738   7.282 -0.5513  0.1583  1.1314
   85MOL0     C11402   7.091   7.705   7.339  1.0327  0.2671  0.0053
   85MOL0     C11403   7.088   7.566   7.370  0.0364 -0.4599  0.6273
   85MOL0     C11404   7.088   7.449   7.374  1.3433  0.4001  0.8966
   85MOL0     C11405   6.583   8.053   7.033 -0.6628 -0.7941 -0.6783
   85MOL0     C11406   6.495   8.113   6.942 -0.4419 -1.0895 -0.4397
   85MOL0     C11407   6.419   8.235   6.980 -0.3048 -0.2131 -0.0387
   85MOL0     H11408   6.211   7.779   6.510  0.3863 -0.5276 -0.0348
   85MOL0     H11409   6.084   7.817   6.308 -1.6307  0.2579  1.7225
   85MOL0     H11410   6.096   8.205   6.066 -2.0473  0.2849 -0.3264
   85MOL0     H11411   6.171   8.052   6.011  0.1681  2.7064 -1.7660
   85MOL0     H11412   5.988   8.138   5.877 -1.2408  0.2969 -0.1144
   85MOL0     H11413   5.870   8.121   6.011 -0.2659 -0.6705  1.0535
   85MOL0     H11414   5.854   7.928   5.868  0.2787 -0.4272 -1.0605
   85MOL0     H11415   5.946   7.870   6.001 -1.2978  0.5523 -0.3895
   85MOL0     H11416   6.099   7.944   5.757 -2.5422  0.5297 -0.1550
   85MOL0     H11417   6.136   7.849   5.900  1.2068  3.2624  0.1619
   85MOL0     H11418   5.945   7.685   5.849 -4.7394  0.9005 -3.2010
   85MOL0     H11419   5.908   7.777   5.709 -1.2271 -1.1207 -0.3713
   85MOL0     H11420   6.109   7.708   5.590 -0.6922 -1.0013 -0.3369
   85MOL0     H11421   6.183   7.658   5.735  1.1065  1.7246 -1.5704
   85MOL0     H11422   5.923   7.546   5.607  2.1243  3.2692 -3.2624
   85MOL0     H11423   6.004   7.475   5.752  2.5138 -1.1216  0.2801
   85MOL0     H11424   6.028   7.361   5.514 -0.6811 -0.5593  1.1658
   85MOL0     H11425   6.140   7.502   5.486  1.4188  0.2906  0.8253
   85MOL0     H11426   6.126   7.178   5.685  0.8528  0.0651  2.0782
   85MOL0     H11427   6.497   7.146   5.815 -0.0694 -0.0728 -1.0365
   85MOL0     H11428   6.353   7.149   5.922 -3.2319 -1.1126 -0.2339
   85MOL0     H11429   6.260   7.000   5.742  0.4468 -1.0544 -1.8371
   85MOL0     H11430   6.420   6.992   5.682 -0.3948  1.5884  0.0497
   85MOL0     H11431   6.333   6.873   5.957  0.6287 -0.8622  0.4512
   85MOL0     H11432   6.494   6.895   5.938  0.7043 -2.1020 -0.0923
   85MOL0     H11433   6.425   6.673   5.873 -3.3265 -0.0772  1.3721
   85MOL0     H11434   6.486   6.763   5.721  2.6930 -1.0872  2.3743
   85MOL0     H11435   6.485   6.573   5.590 -0.3863  1.2121  0.4715
   85MOL0     H11436   6.448   6.497   5.357  0.5248  1.0861 -3.2250
   85MOL0     H11437   5.958   6.346   5.121 -2.9579  2.0124 -1.7910
   85MOL0     H11438   5.923   6.210   4.939 -2.2483  1.4753  1.2133
   85MOL0     H11439   5.911   6.076   4.768 -1.0994 -2.7618 -2.1863
   85MOL0     H11440   5.830   6.219   4.684 -0.0755  0.3398 -4.7209
   85MOL0     H11441   6.001   6.086   4.498 -1.9326  2.0036 -0.5635
   85MOL0     H11442   5.930   5.958   4.605  1.8601  1.6010  2.8390
   85MOL0     H11443   5.708   6.038   4.558  0.8753 -4.6306  0.6489
   85MOL0     H11444   5.774   6.165   4.443  0.1958 -0.6021 -1.4099
   85MOL0     H11445   5.762   5.866   4.392  2.3656  0.2256  0.5935
   85MOL0     H11446   5.880   5.951   4.315 -1.9987 -3.4615 -2.8232
   85MOL0     H11447   5.715   6.129   4.230 -4.7254  0.6721 -1.2687
   85MOL0     H11448   5.590   6.053   4.321 -2.3658  1.4233 -2.3384
   85MOL0     H11449   5.704   6.017   4.060 -1.5617 -0.7958  1.0157
   85MOL0     H11450   5.744   5.868   4.145  2.2403  1.7067  1.0133
   85MOL0     H11451   5.477   5.943   4.053  0.3163  0.6679  0.9868
   85MOL0     H11452   5.488   5.859   4.211 -0.7885  0.6743  0.0931
   85MOL0     H11453   5.640   5.682   4.084 -1.1544 -4.5820 -0.8022
   85MOL0     H11454   5.462   5.696   4.055  0.7948 -0.4326  4.7664
   85MOL0     H11455   6.187   6.443   4.700 -0.3515 -0.7123 -0.3615
   85MOL0     H11456   6.228   6.594   4.889 -1.1796  0.7297 -1.0512
   85MOL0     H11457   6.053   6.688   5.366 -0.2661  1.9745 -0.0152
   85MOL0     H11458   6.092   6.767   5.570  0.1834  0.1565 -1.4665
   85MOL0     H11459   6.122   8.234   6.323 -0.7921 -0.4398 -1.3238
   85MOL0     H11460   6.225   8.212   6.544  2.1515 -1.0353  0.5934
   85MOL0     H11461   6.515   7.873   6.710 -1.3500  0.6784  0.2967
   85MOL0     H11462   6.698   7.791   6.849  1.1244  0.5130  1.5869
   85MOL0     H11463   6.738   7.901   7.272  2.3550 -2.7886  1.6485
   85MOL0     H11464   6.811   8.045   7.192  1.0465 -0.2284  0.0243
   85MOL0     H11465   6.971   7.932   7.334 -0.9335  0.3268 -0.4041
   85MOL0     H11466   7.027   7.912   7.164 -1.4129 -1.8910 -2.6035
   85MOL0     H11467   6.959   7.687   7.185 -2.4219  3.2251 -0.6540
   85MOL0     H11468   6.866   7.701   7.326 -1.6062 -0.8384 -1.7166
   85MOL0     H11469   7.182   7.728   7.283  3.1372  0.0627  3.0981
   85MOL0     H11470   7.099   7.757   7.435  2.3127  0.8892 -0.4115
   85MOL0     H11471   7.105   7.343   7.382  1.7318  0.6123  3.6198
   85MOL0     H11472   6.606   8.113   7.120 -2.4295 -1.9305  0.6450
   85MOL0     H11473   6.372   8.234   7.079 -0.6954 -1.7994 -0.2141
   85MOL0     H11474   6.475   8.328   6.985 -1.5948  0.8655 -3.1538
   85MOL0     H11475   6.329   8.252   6.920  0.3015  0.6646 -0.7173
   86MOL0     O11476   4.725   6.707   5.376 -0.1727 -0.1915 -0.1283
   86MOL0     C11477   4.616   6.771   5.392 -0.6260 -0.4616  0.1342
   86MOL0     O11478   4.500   6.706   5.439 -1.0372  0.4880 -0.3360
   86MOL0     C11479   4.509   6.569   5.446  0.7803  0.7870 -0.0525
   86MOL0     C11480   4.503   6.480   5.338  0.2798  0.6263  0.1472
   86MOL0     C11481   4.499   6.341   5.359 -0.2294 -0.1169  0.2140
   86MOL0     C11482   4.501   6.284   5.493  1.3858 -0.8024  0.5337
   86MOL0     O11483   4.468   6.151   5.495 -0.9175 -0.1426  0.1746
   86MOL0     C11484   4.506   6.089   5.623  0.8208  0.7753  0.8060
   86MOL0     C11485   4.487   5.935   5.620  0.5978  0.2465 -0.5630
   86MOL0     C11486   4.489   5.858   5.753  0.2931  0.4917 -0.3077
   86MOL0     C11487   4.481   5.704   5.737 -0.4970 -0.6544  0.6162
   86MOL0     C11488   4.352   5.625   5.721 -0.2857 -0.2673  0.5745
   86MOL0     C11489   4.343   5.600   5.579 -0.1730  0.4511  0.4286
   86MOL0     C11490   4.198   5.570   5.525 -0.8731  0.4651  0.4786
   86MOL0     C11491   4.176   5.422   5.539 -0.1190  0.4106 -0.1415
   86MOL0     N11492   4.259   5.348   5.441  0.6316 -0.0348 -0.1831
   86MOL0     C11493   4.286   5.381   5.306  0.2696  1.0492  0.1456
   86MOL0     C11494   4.379   5.290   5.273 -0.8477 -0.3453 -0.0889
   86MOL0     C11495   4.446   5.288   5.141 -0.1910  0.2255 -0.3470
   86MOL0     C11496   4.599   5.278   5.129  0.9855 -0.4237 -0.0613
   86MOL0     C11497   4.663   5.142   5.146  0.2058  0.8232  0.8881
   86MOL0     C11498   4.604   5.034   5.055 -0.1395 -0.7780  0.3493
   86MOL0     O11499   4.592   5.061   4.916 -0.3044 -0.5737 -0.1495
   86MOL0     C11500   4.480   5.020   4.847  0.2362  0.2322 -0.5247
   86MOL0     C11501   4.379   5.101   4.783  0.7423 -0.4266 -0.0476
   86MOL0     C11502   4.271   5.039   4.714 -0.5099 -0.4433 -0.0507
   86MOL0     C11503   4.272   4.896   4.697  0.5655  0.9370  0.7781
   86MOL0     C11504   4.154   4.828   4.627 -0.8419 -0.7778 -0.5299
   86MOL0     O11505   4.137   4.693   4.650 -0.4588  0.0058 -0.2017
   86MOL0     C11506   4.031   4.618   4.592  0.1405 -0.5856 -0.6259
   86MOL0     C11507   4.005   4.600   4.458 -0.9630  0.0465  0.8163
   86MOL0     C11508   3.897   4.521   4.413 -0.4976  0.1893  0.7819
   86MOL0     C11509   3.812   4.452   4.504 -0.8577 -0.0550 -0.3769
   86MOL0     O11510   3.730   4.365   4.439  0.4861 -0.5375 -0.0106
   86MOL0     C11511   3.625   4.301   4.519 -0.2435  1.1976 -0.3082
   86MOL0     C11512   3.522   4.229   4.425 -0.2391 -0.2349 -0.2265
   86MOL0     C11513   3.447   4.325   4.326 -0.3538 -0.7112 -1.2004
   86MOL0     C11514   3.354   4.237   4.234 -1.1774 -0.7210  0.2471
   86MOL0     C11515   3.308   4.324   4.117  0.5341  0.5558 -0.3697
   86MOL0     C11516   3.224   4.230   4.018  0.0390  0.5246 -1.1255
   86MOL0     C11517   3.103   4.164   4.085  0.0511  0.2632 -0.0508
   86MOL0     C11518   2.999   4.110   3.984  0.4637 -1.1250  0.1225
   86MOL0    Cl11519   2.847   4.208   3.992 -0.0694 -0.1469 -0.1836
   86MOL0     C11520   3.843   4.469   4.638 -0.3910  0.7465 -0.1264
   86MOL0     C11521   3.949   4.550   4.679  0.4773 -0.6096 -0.0751
   86MOL0     O11522   4.093   4.900   4.558  0.5800 -0.5707 -0.1285
   86MOL0     C11523   4.372   4.817   4.759 -0.0066 -0.5895  0.1856
   86MOL0     C11524   4.472   4.877   4.833 -0.7188  1.2786  0.3665
   86MOL0     N11525   4.413   5.210   5.385 -0.1088 -0.1624  0.3818
   86MOL0     N11526   4.331   5.240   5.474 -0.1408 -0.0325 -0.7052
   86MOL0     C11527   4.504   6.379   5.599 -0.2931 -0.8103 -0.0854
   86MOL0     C11528   4.522   6.520   5.571 -0.5969 -0.1992 -0.2656
   86MOL0     C11529   4.606   6.914   5.347 -0.4013 -0.3872  0.5533
   86MOL0     C11530   4.720   6.994   5.331 -0.1672 -0.0638 -1.0008
   86MOL0     C11531   4.719   7.124   5.296  0.7253  0.0932 -0.0173
   86MOL0     C11532   4.605   7.197   5.283  0.0447  0.1643  0.1784
   86MOL0     O11533   4.606   7.326   5.252  0.6068 -0.2043 -1.0046
   86MOL0     C11534   4.671   7.427   5.329  0.2420 -0.4799 -0.5182
   86MOL0     C11535   4.643   7.573   5.295  0.6766 -0.3164 -0.6061
   86MOL0     C11536   4.725   7.606   5.165  0.1269 -0.2526  0.7113
   86MOL0     C11537   4.711   7.750   5.109  0.3430  1.0456 -0.7584
   86MOL0     C11538   4.752   7.840   5.214 -0.0621 -0.7161  0.1074
   86MOL0     C11539   4.795   7.921   5.287  0.0311 -0.4166  0.1604
   86MOL0     C11540   4.484   7.122   5.289 -0.0369 -0.0690  0.7049
   86MOL0     C11541   4.481   6.989   5.326 -0.8285  0.3427 -0.4624
   86MOL0     C11542   4.343   6.926   5.358 -0.1930 -0.3522 -0.2147
   86MOL0     H11543   4.495   6.515   5.235 -2.1095 -0.3780 -0.0887
   86MOL0     H11544   4.500   6.273   5.274  1.0426 -0.4557  0.4763
   86MOL0     H11545   4.612   6.109   5.636  1.5955 -1.2782 -1.5059
   86MOL0     H11546   4.439   6.123   5.702 -4.0671 -3.6972 -0.7971
   86MOL0     H11547   4.563   5.891   5.554  0.9025  1.7814 -1.2833
   86MOL0     H11548   4.387   5.917   5.581  0.8676  0.6788 -1.4964
   86MOL0     H11549   4.413   5.901   5.819  2.7478  4.0679  0.4962
   86MOL0     H11550   4.589   5.878   5.793  0.8894 -2.4530 -0.1609
   86MOL0     H11551   4.558   5.667   5.669 -0.6458 -0.6878  0.4642
   86MOL0     H11552   4.514   5.661   5.832  0.7013  0.1895  0.6187
   86MOL0     H11553   4.352   5.537   5.787 -1.8649  0.5740  1.7783
   86MOL0     H11554   4.260   5.677   5.749 -1.9973 -1.4405 -2.4161
   86MOL0     H11555   4.361   5.697   5.530  0.3164 -0.8749 -2.2118
   86MOL0     H11556   4.428   5.536   5.553  3.0409  3.9702  1.2968
   86MOL0     H11557   4.196   5.595   5.418 -0.2012 -1.7924 -0.1308
   86MOL0     H11558   4.124   5.629   5.579 -2.9771 -0.2877 -1.3988
   86MOL0     H11559   4.202   5.393   5.641  1.0191  0.4813 -0.4064
   86MOL0     H11560   4.071   5.415   5.508 -0.2503  2.1213 -0.1820
   86MOL0     H11561   4.230   5.437   5.232 -0.7649 -1.5283 -1.1412
   86MOL0     H11562   4.417   5.210   5.071  0.9185  0.1317 -0.7227
   86MOL0     H11563   4.410   5.373   5.083 -0.9274  0.3891  0.3272
   86MOL0     H11564   4.615   5.313   5.027 -0.6273 -2.6265 -1.1632
   86MOL0     H11565   4.661   5.341   5.192  1.8480 -0.7002 -0.6201
   86MOL0     H11566   4.651   5.105   5.248  3.9637 -0.9875  0.8517
   86MOL0     H11567   4.770   5.150   5.125  0.0355  3.4025  0.6608
   86MOL0     H11568   4.505   5.012   5.095 -1.6621 -0.0720 -2.7550
   86MOL0     H11569   4.672   4.951   5.078 -2.7339 -3.6784 -1.6337
   86MOL0     H11570   4.381   5.209   4.792 -1.2731 -0.3316 -0.3268
   86MOL0     H11571   4.204   5.109   4.664 -0.9841 -1.6549 -1.1710
   86MOL0     H11572   4.070   4.651   4.388 -0.0872 -0.9826  0.8609
   86MOL0     H11573   3.896   4.508   4.306  0.4595  0.5303  0.7173
   86MOL0     H11574   3.673   4.228   4.584  1.2781  2.9402  0.6194
   86MOL0     H11575   3.580   4.370   4.592 -0.5537  1.5353 -0.8126
   86MOL0     H11576   3.578   4.148   4.378  1.3303 -0.2024  1.5004
   86MOL0     H11577   3.455   4.190   4.501  1.5460  1.0429  2.1259
   86MOL0     H11578   3.390   4.402   4.380  1.5256  0.3697 -0.6776
   86MOL0     H11579   3.519   4.375   4.261  3.0685 -3.2595  0.3246
   86MOL0     H11580   3.261   4.197   4.275 -2.3062  0.3072 -1.1821
   86MOL0     H11581   3.407   4.152   4.191 -1.0919  0.3272 -1.8467
   86MOL0     H11582   3.390   4.365   4.056 -0.5646  3.4864 -0.0547
   86MOL0     H11583   3.234   4.400   4.140 -1.5131 -1.8565  1.5671
   86MOL0     H11584   3.180   4.294   3.940 -1.8999  2.6094  1.4794
   86MOL0     H11585   3.288   4.150   3.981  0.6103  0.0761  0.7343
   86MOL0     H11586   3.048   4.232   4.150  0.1142 -0.8920  1.2455
   86MOL0     H11587   3.142   4.081   4.145 -1.7163  0.7904  1.9285
   86MOL0     H11588   3.035   4.108   3.880  4.2019 -3.3339  1.2619
   86MOL0     H11589   2.983   4.004   4.006  1.9148 -1.1010  1.4945
   86MOL0     H11590   3.785   4.418   4.713  0.0739  0.3472 -0.0341
   86MOL0     H11591   3.969   4.558   4.785  0.9337  2.1476 -0.3013
   86MOL0     H11592   4.374   4.711   4.736  0.0872 -0.4993 -0.2459
   86MOL0     H11593   4.533   4.796   4.872  0.2292  0.8488 -1.8253
   86MOL0     H11594   4.496   6.336   5.699  1.3180 -3.6357 -1.0672
   86MOL0     H11595   4.514   6.589   5.654  5.1004  2.2210 -1.2719
   86MOL0     H11596   4.817   6.946   5.339 -0.1745 -0.1451 -1.3700
   86MOL0     H11597   4.815   7.173   5.283 -0.2652  2.8797  2.2460
   86MOL0     H11598   4.779   7.408   5.324  0.6103  0.0927  2.7327
   86MOL0     H11599   4.660   7.404   5.436  1.7441 -0.9382 -0.4422
   86MOL0     H11600   4.678   7.633   5.380 -0.1202 -0.7865  0.0755
   86MOL0     H11601   4.534   7.576   5.286  0.2854 -2.7451  1.8790
   86MOL0     H11602   4.690   7.542   5.083 -0.3697  0.4059  0.4038
   86MOL0     H11603   4.831   7.590   5.186  0.0122  0.3011  1.7784
   86MOL0     H11604   4.787   7.766   5.033 -1.0680  1.0384 -2.2388
   86MOL0     H11605   4.609   7.776   5.079 -1.1145 -2.0039  0.9804
   86MOL0     H11606   4.819   7.990   5.365 -3.2629  1.8449 -0.6380
   86MOL0     H11607   4.389   7.170   5.267 -2.3411 -3.6573  1.9881
   86MOL0     H11608   4.341   6.819   5.337  3.1238 -0.4331 -0.6945
   86MOL0     H11609   4.321   6.939   5.464 -0.4611 -0.6754 -0.2300
   86MOL0     H11610   4.264   6.961   5.290 -3.8740 -3.3402  2.1458
   87MOL0     O11611   1.682   9.641   9.485 -0.6293 -0.3436 -0.6009
   87MOL0     C11612   1.782   9.623   9.568  0.8672 -0.7678 -0.5156
   87MOL0     O11613   1.909   9.586   9.528 -0.0271  0.4021 -0.1994
   87MOL0     C11614   1.953   9.576   9.393  0.5569  0.6001 -0.2784
   87MOL0     C11615   1.866   9.534   9.291 -0.7918  0.4479  0.1727
   87MOL0     C11616   1.904   9.549   9.156  0.1158  0.3385 -0.7234
   87MOL0     C11617   2.039   9.591   9.119 -0.4386  0.4369  0.2281
   87MOL0     O11618   2.095   9.609   8.991 -0.0971 -0.2060 -0.2740
   87MOL0     C11619   1.990   9.607   8.892 -0.3923  0.4223  0.0764
   87MOL0     C11620   2.056   9.606   8.755  0.6392  0.2262 -0.7635
   87MOL0     C11621   1.953   9.596   8.640  0.1170  0.8950 -0.2692
   87MOL0     C11622   1.925   9.443   8.613 -0.0509 -0.3294 -0.3298
   87MOL0     C11623   1.791   9.423   8.546  1.1221  0.0703 -0.7281
   87MOL0     C11624   1.762   9.492   8.415 -0.4914  0.0739 -0.1765
   87MOL0     C11625   1.631   9.458   8.351  0.2632 -0.5238  0.7303
   87MOL0     C11626   1.503   9.487   8.432  0.4833 -0.0209 -0.2647
   87MOL0     N11627   1.495   9.617   8.499  0.5020  0.4946  0.5487
   87MOL0     C11628   1.523   9.642   8.630 -0.3779  0.3688 -0.0431
   87MOL0     C11629   1.481   9.763   8.666  0.3644  0.3171  0.6358
   87MOL0     C11630   1.470   9.813   8.798 -0.2191 -0.1911 -0.1798
   87MOL0     C11631   1.446   9.967   8.810 -0.5127  0.9043 -0.4425
   87MOL0     C11632   1.554  10.056   8.740  0.3160 -0.3423 -1.8316
   87MOL0     C11633   1.580  10.185   8.822  0.4331 -0.5316  0.0253
   87MOL0     O11634   1.681  10.264   8.749  0.0163  0.5054 -0.4755
   87MOL0     C11635   1.733  10.367   8.839 -0.1520  0.9281  0.4852
   87MOL0     C11636   1.739  10.495   8.792  1.1440  0.0955  0.1592
   87MOL0     C11637   1.777  10.600   8.875 -0.1823  0.2340 -0.3872
   87MOL0     C11638   1.826  10.582   9.007 -0.5972  0.5176  1.1268
   87MOL0     C11639   1.879  10.693   9.087  0.7051  0.3755  0.3246
   87MOL0     O11640   1.880  10.814   9.032  0.3923  0.3361  0.1381
   87MOL0     C11641   1.886  10.919   9.116  0.3443 -0.4902  0.0911
   87MOL0     C11642   1.798  10.930   9.228 -0.9280  0.6872  0.7400
   87MOL0     C11643   1.788  11.036   9.313  0.0274 -0.3150  0.5102
   87MOL0     C11644   1.859  11.148   9.284 -0.5953 -0.5094  0.5892
   87MOL0     O11645   1.849  11.263   9.365  0.7963 -0.4025 -0.0469
   87MOL0     C11646   1.938  11.376   9.353  0.2415  0.1315  0.8774
   87MOL0     C11647   1.902  11.462   9.468 -0.2338 -0.5952 -0.1934
   87MOL0     C11648   1.917  11.408   9.606  0.4406  0.4598  0.2747
   87MOL0     C11649   2.056  11.355   9.644 -0.2114  0.3695  0.3169
   87MOL0     C11650   2.162  11.461   9.638  0.8435 -0.6594 -0.4791
   87MOL0     C11651   2.294  11.393   9.666 -0.2088  0.4761 -0.6970
   87MOL0     C11652   2.409  11.489   9.667  0.1819  0.3478 -0.4245
   87MOL0     C11653   2.410  11.569   9.533 -0.3924 -0.4657 -0.0908
   87MOL0    Cl11654   2.589  11.625   9.522  0.6876  0.0287  0.1465
   87MOL0     C11655   1.937  11.152   9.169  0.7672 -0.8837  0.3990
   87MOL0     C11656   1.943  11.038   9.083  0.8903 -0.3220 -0.3453
   87MOL0     O11657   1.898  10.660   9.203  0.2346 -0.4737  0.1691
   87MOL0     C11658   1.817  10.452   9.058  0.0102  0.9463  0.5655
   87MOL0     C11659   1.773  10.347   8.970  0.3159  0.3354  0.0002
   87MOL0     N11660   1.402   9.801   8.554 -0.2544  0.4102 -0.0706
   87MOL0     N11661   1.419   9.712   8.455 -0.5483 -0.5822  0.8052
   87MOL0     C11662   2.121   9.624   9.222  0.3213 -0.5708 -0.6463
   87MOL0     C11663   2.079   9.614   9.355 -0.5257 -0.3250 -0.3581
   87MOL0     C11664   1.762   9.673   9.711 -0.2518 -0.3161  0.0852
   87MOL0     C11665   1.880   9.677   9.791  0.1115 -0.7813 -0.2633
   87MOL0     C11666   1.879   9.714   9.922  0.3328  1.1353 -0.0200
   87MOL0     C11667   1.757   9.755   9.981  0.0561 -0.4897  0.3071
   87MOL0     O11668   1.756   9.765  10.118  0.4030 -0.1672  0.2525
   87MOL0     C11669   1.695   9.880  10.172 -0.0043  0.1583 -0.4283
   87MOL0     C11670   1.798   9.924  10.276 -0.5272 -0.3763 -0.3247
   87MOL0     C11671   1.821   9.837  10.393 -0.4298  0.8164  0.3138
   87MOL0     C11672   1.914   9.899  10.502  0.6625 -0.2171  1.2461
   87MOL0     C11673   1.889   9.841  10.634  0.8605  0.4609 -0.2681
   87MOL0     C11674   1.886   9.813  10.754 -1.1933  0.0642  0.0488
   87MOL0     C11675   1.642   9.754   9.899 -0.0653  0.4394  0.1689
   87MOL0     C11676   1.642   9.721   9.766 -0.2369 -0.0128  0.0489
   87MOL0     C11677   1.511   9.723   9.691 -0.0390  0.2237  0.2423
   87MOL0     H11678   1.764   9.504   9.313 -0.6883 -0.7747 -0.8970
   87MOL0     H11679   1.827   9.527   9.082 -0.3535  2.1707 -0.8519
   87MOL0     H11680   1.930   9.516   8.901  1.7702 -0.9546  1.4831
   87MOL0     H11681   1.930   9.696   8.908  0.2947  0.4690  2.9842
   87MOL0     H11682   2.121   9.519   8.745  1.1518  0.4742  0.3063
   87MOL0     H11683   2.119   9.696   8.749  2.2058 -0.7916 -0.1144
   87MOL0     H11684   1.998   9.648   8.555  1.7413  0.4798  0.2973
   87MOL0     H11685   1.862   9.652   8.665  0.3240 -0.2732  3.8903
   87MOL0     H11686   1.999   9.421   8.535 -0.8997 -0.8334 -0.9988
   87MOL0     H11687   1.933   9.376   8.699  1.4085  0.8189  0.4906
   87MOL0     H11688   1.771   9.317   8.529 -0.9040 -0.1511  2.1523
   87MOL0     H11689   1.708   9.451   8.612  0.0885 -1.8902 -1.1394
   87MOL0     H11690   1.763   9.601   8.427 -0.8495  0.2631 -1.6174
   87MOL0     H11691   1.835   9.472   8.336  1.0127  1.5251  0.7931
   87MOL0     H11692   1.622   9.351   8.328  1.0212 -1.4052  4.0039
   87MOL0     H11693   1.626   9.529   8.268  1.2326 -1.1773  0.0855
   87MOL0     H11694   1.418   9.477   8.363  1.5454  1.0363 -1.7843
   87MOL0     H11695   1.481   9.408   8.505 -3.0883 -0.3910 -1.5079
   87MOL0     H11696   1.570   9.563   8.687 -1.7494 -0.8831 -0.5651
   87MOL0     H11697   1.389   9.764   8.853  0.5556 -2.1296 -0.7133
   87MOL0     H11698   1.568   9.790   8.842  0.9936  1.7043 -1.7098
   87MOL0     H11699   1.350   9.991   8.764  0.4395  2.8007 -1.5911
   87MOL0     H11700   1.447   9.989   8.917  2.7370  2.6876 -0.7110
   87MOL0     H11701   1.516  10.089   8.643  0.5254 -2.0130 -2.5189
   87MOL0     H11702   1.644   9.994   8.727  0.2106 -0.7119 -0.8756
   87MOL0     H11703   1.612  10.158   8.923  1.1977 -1.8596 -0.5350
   87MOL0     H11704   1.489  10.245   8.821  1.1708  0.6169 -0.2684
   87MOL0     H11705   1.721  10.515   8.687  0.5802 -0.1384  0.2094
   87MOL0     H11706   1.788  10.699   8.834  0.8881  0.7786  1.1270
   87MOL0     H11707   1.750  10.836   9.255  1.6130 -0.4399  1.6488
   87MOL0     H11708   1.718  11.045   9.396  0.1665  1.8593  0.4321
   87MOL0     H11709   2.042  11.342   9.359 -0.5792 -2.3748  2.2525
   87MOL0     H11710   1.931  11.433   9.260  2.1687 -1.9097 -0.6218
   87MOL0     H11711   1.960  11.552   9.450 -2.6335  0.6919 -2.1511
   87MOL0     H11712   1.798  11.494   9.458  0.2067  1.0988  0.3443
   87MOL0     H11713   1.893  11.481   9.685 -0.6307  1.9644 -1.3659
   87MOL0     H11714   1.844  11.327   9.617  1.3327 -0.5512 -0.9654
   87MOL0     H11715   2.076  11.274   9.573 -0.6185  1.8049 -1.5325
   87MOL0     H11716   2.059  11.307   9.742  2.3723  1.0901  0.6579
   87MOL0     H11717   2.136  11.544   9.705 -1.4654 -2.0243  0.4637
   87MOL0     H11718   2.152  11.505   9.539 -0.9459  3.5956  1.2941
   87MOL0     H11719   2.282  11.336   9.759  0.6978  2.7784  0.9162
   87MOL0     H11720   2.325  11.332   9.581  3.4717  1.9433 -0.5934
   87MOL0     H11721   2.495  11.422   9.669 -0.8787 -1.0862  2.2106
   87MOL0     H11722   2.408  11.556   9.753 -1.9493  0.5341 -0.5316
   87MOL0     H11723   2.388  11.502   9.449  0.8251  1.0526 -1.6952
   87MOL0     H11724   2.337  11.650   9.528 -0.7793 -0.8988 -2.6906
   87MOL0     H11725   1.995  11.242   9.155  0.4979 -0.4984  1.6495
   87MOL0     H11726   2.009  11.036   8.997  2.2121  0.5824  0.6077
   87MOL0     H11727   1.841  10.412   9.156  2.3602  0.1499 -0.2444
   87MOL0     H11728   1.766  10.247   9.011 -0.8865  0.5448  0.3343
   87MOL0     H11729   2.207   9.686   9.198 -1.2066  1.9889  0.1864
   87MOL0     H11730   2.131   9.641   9.447 -0.8411 -4.3354  1.1852
   87MOL0     H11731   1.980   9.650   9.757  0.6665 -0.0186  0.6909
   87MOL0     H11732   1.972   9.714   9.978  3.6540  1.3414 -4.9568
   87MOL0     H11733   1.606   9.871  10.235 -0.4248  1.0087 -0.8773
   87MOL0     H11734   1.684   9.972  10.114  1.2541  2.0829  2.1654
   87MOL0     H11735   1.763  10.019  10.318 -1.4348 -0.9929  0.3465
   87MOL0     H11736   1.892   9.943  10.223 -0.0720  0.7616  0.8069
   87MOL0     H11737   1.869   9.742  10.365 -0.6921  0.2176  1.7617
   87MOL0     H11738   1.721   9.820  10.434 -0.5710  1.4942  0.2648
   87MOL0     H11739   2.017   9.894  10.464 -0.4769  0.0098 -2.1708
   87MOL0     H11740   1.891  10.006  10.512 -3.2953 -0.6576 -1.0130
   87MOL0     H11741   1.898   9.804  10.860  0.0607 -1.3399 -0.1809
   87MOL0     H11742   1.548   9.768   9.950 -0.6112 -1.1692 -0.3347
   87MOL0     H11743   1.490   9.634   9.631 -2.9037  1.5796 -0.9796
   87MOL0     H11744   1.434   9.739   9.767  1.7622  1.3275  1.9480
   87MOL0     H11745   1.514   9.809   9.623  0.9521  2.5937  3.0589
   88MOL0     O11746   8.530   7.552   0.571  0.1372  0.0047 -0.3322
   88MOL0     C11747   8.613   7.593   0.481  0.0962  0.5405  0.4963
   88MOL0     O11748   8.720   7.668   0.513 -0.4729  0.1599 -0.5741
   88MOL0     C11749   8.732   7.692   0.651 -0.0297  0.1649 -0.1466
   88MOL0     C11750   8.825   7.611   0.722  0.2908  0.2823 -0.9992
   88MOL0     C11751   8.853   7.634   0.856 -0.3998  0.0329  0.1748
   88MOL0     C11752   8.780   7.739   0.923 -0.2078  0.0383 -0.4612
   88MOL0     O11753   8.845   7.765   1.048  0.2574  1.1081  1.1849
   88MOL0     C11754   8.760   7.800   1.153  0.1828  0.0811 -0.7167
   88MOL0     C11755   8.719   7.664   1.208  0.8597  0.1679 -0.1855
   88MOL0     C11756   8.663   7.673   1.357 -0.0229 -0.3770  0.3894
   88MOL0     C11757   8.622   7.540   1.421  0.2612  0.3035  0.5437
   88MOL0     C11758   8.735   7.444   1.446  0.6310  0.0647 -0.0010
   88MOL0     C11759   8.675   7.301   1.470 -0.1788  0.0418 -0.4193
   88MOL0     C11760   8.792   7.207   1.487 -0.8983  0.2139 -0.2069
   88MOL0     C11761   8.744   7.060   1.491  0.2725 -0.8686 -1.0451
   88MOL0     N11762   8.671   7.002   1.374  0.8915  0.0976  0.2087
   88MOL0     C11763   8.733   6.949   1.273  0.1715  0.2773 -0.3205
   88MOL0     C11764   8.642   6.937   1.177  0.0284  0.4060  0.5230
   88MOL0     C11765   8.642   6.865   1.046 -0.4580  0.4002 -0.2564
   88MOL0     C11766   8.774   6.894   0.965 -0.3397  0.2338  0.2649
   88MOL0     C11767   8.768   6.830   0.827  0.2371  0.6519  0.1307
   88MOL0     C11768   8.627   6.826   0.761 -1.6012  1.2363 -1.4588
   88MOL0     O11769   8.646   6.831   0.629 -1.3556 -0.5162  0.3918
   88MOL0     C11770   8.685   6.946   0.569  0.7010 -0.0693 -1.1091
   88MOL0     C11771   8.726   7.065   0.643 -0.3518  0.4195 -1.4879
   88MOL0     C11772   8.768   7.182   0.586 -0.0228  0.0522  0.4620
   88MOL0     C11773   8.789   7.180   0.450  0.7788  0.0642 -0.2208
   88MOL0     C11774   8.846   7.302   0.388  0.9241 -0.7617 -0.0849
   88MOL0     O11775   8.860   7.308   0.245 -0.1837 -0.0429  0.4084
   88MOL0     C11776   8.910   7.425   0.191 -0.1910  0.6821 -0.1326
   88MOL0     C11777   8.869   7.452   0.058 -0.6397 -0.4258  0.8583
   88MOL0     C11778   8.925   7.564  -0.012  0.5652 -0.5153 -0.3186
   88MOL0     C11779   9.024   7.646   0.052  0.0110  0.0396  1.0155
   88MOL0     O11780   9.082   7.758  -0.007  0.8498  1.0359 -0.8381
   88MOL0     C11781   9.033   7.793  -0.138 -0.3949  0.2503 -0.0813
   88MOL0     C11782   9.086   7.937  -0.176  0.4314  0.3707 -0.7446
   88MOL0     C11783   9.050   7.987  -0.310  0.2227 -0.3643  0.3908
   88MOL0     C11784   9.063   8.142  -0.315  0.3310  0.4225  0.3629
   88MOL0     C11785   9.041   8.179  -0.462  0.2898  0.2037  0.5026
   88MOL0     C11786   9.020   8.332  -0.475 -0.4370 -0.2434 -0.2617
   88MOL0     C11787   9.155   8.413  -0.452 -0.2536  0.1960 -0.2783
   88MOL0     C11788   9.125   8.566  -0.465 -0.5028  0.0616  0.5581
   88MOL0    Cl11789   8.944   8.595  -0.484 -0.1249 -0.1974 -0.3487
   88MOL0     C11790   9.070   7.612   0.178  0.3401  1.0279 -0.1445
   88MOL0     C11791   9.011   7.504   0.247 -0.3967  0.3668 -0.1461
   88MOL0     O11792   8.870   7.396   0.463 -0.0434 -0.9367 -1.1035
   88MOL0     C11793   8.752   7.065   0.368  0.7369  0.2349 -0.2228
   88MOL0     C11794   8.705   6.951   0.425 -0.0181 -0.5352 -1.0607
   88MOL0     N11795   8.520   6.988   1.231 -0.3451  0.2171 -0.4252
   88MOL0     N11796   8.540   7.019   1.346 -0.3306  0.7120 -0.5548
   88MOL0     C11797   8.680   7.814   0.855 -0.4284 -0.3551  0.2009
   88MOL0     C11798   8.668   7.792   0.719 -0.1658  0.3137 -0.1549
   88MOL0     C11799   8.588   7.582   0.334  0.6160  0.5547 -0.7934
   88MOL0     C11800   8.604   7.697   0.256  0.1964  0.6582 -0.1104
   88MOL0     C11801   8.553   7.710   0.131 -0.2101 -0.0853  1.1576
   88MOL0     C11802   8.499   7.594   0.069 -0.5085 -0.1767 -0.2206
   88MOL0     O11803   8.466   7.582  -0.071 -0.4101 -0.9532 -1.0049
   88MOL0     C11804   8.527   7.692  -0.148 -0.0707 -0.8706 -1.0767
   88MOL0     C11805   8.527   7.657  -0.301  0.2347  0.6518 -0.2268
   88MOL0     C11806   8.394   7.665  -0.377  0.4271  0.4133  0.0281
   88MOL0     C11807   8.296   7.784  -0.339 -0.1185  0.2686 -0.8915
   88MOL0     C11808   8.375   7.909  -0.360 -0.3420  0.5377 -0.7374
   88MOL0     C11809   8.450   8.008  -0.363 -0.2445 -0.0377 -0.5143
   88MOL0     C11810   8.468   7.480   0.145 -0.5733 -0.6746  0.1781
   88MOL0     C11811   8.514   7.478   0.276 -0.2248 -0.2121 -0.5269
   88MOL0     C11812   8.475   7.351   0.354  0.7958 -0.7523  0.5494
   88MOL0     H11813   8.876   7.532   0.668 -0.1826 -1.1395  0.5436
   88MOL0     H11814   8.929   7.581   0.913  0.3641  3.0992  2.2853
   88MOL0     H11815   8.813   7.850   1.235  0.2049  1.2392 -1.4032
   88MOL0     H11816   8.680   7.870   1.129  3.1126  4.3962  0.8143
   88MOL0     H11817   8.817   7.615   1.208  0.6869 -0.1841 -0.4450
   88MOL0     H11818   8.644   7.612   1.147  0.8094 -0.6654  0.5703
   88MOL0     H11819   8.578   7.741   1.373  1.2291  1.3879 -0.2171
   88MOL0     H11820   8.742   7.733   1.403 -0.6966  2.0097 -1.3935
   88MOL0     H11821   8.569   7.554   1.516  1.3850  0.2204  1.1942
   88MOL0     H11822   8.541   7.506   1.355 -0.6913  3.4176 -0.0360
   88MOL0     H11823   8.794   7.432   1.354 -0.7041  0.3869 -0.9361
   88MOL0     H11824   8.806   7.478   1.521  0.5365 -0.2720  0.2414
   88MOL0     H11825   8.610   7.305   1.558 -0.0536 -0.4268 -0.3015
   88MOL0     H11826   8.617   7.279   1.380 -0.8776  1.4600 -0.3423
   88MOL0     H11827   8.857   7.234   1.572 -1.0079  0.2602 -0.1383
   88MOL0     H11828   8.859   7.209   1.401  1.1517  2.6703  1.2956
   88MOL0     H11829   8.824   6.997   1.533 -0.6214  0.2070  2.6610
   88MOL0     H11830   8.675   7.045   1.574  0.5910  3.4928  0.2926
   88MOL0     H11831   8.837   6.920   1.261 -0.1300 -0.4855 -1.1938
   88MOL0     H11832   8.624   6.758   1.050  0.2016  0.2857 -0.2065
   88MOL0     H11833   8.548   6.900   1.002 -0.8663 -2.1442 -1.5646
   88MOL0     H11834   8.788   7.002   0.961 -0.4724  0.3369  2.0510
   88MOL0     H11835   8.864   6.853   1.012  1.1724 -0.3256 -2.8503
   88MOL0     H11836   8.790   6.727   0.858 -1.0036  0.1721 -0.5333
   88MOL0     H11837   8.847   6.876   0.768  1.2463  0.3438  1.1876
   88MOL0     H11838   8.574   6.915   0.798  0.9844  2.5709 -0.7310
   88MOL0     H11839   8.584   6.730   0.789  0.5447  0.5395 -0.3265
   88MOL0     H11840   8.716   7.070   0.751 -3.9552  2.9917 -1.7733
   88MOL0     H11841   8.777   7.270   0.649 -1.6336 -0.9779  2.2246
   88MOL0     H11842   8.809   7.383  -0.001  0.1412  0.7030 -1.3810
   88MOL0     H11843   8.895   7.588  -0.114  2.4787  2.5188 -0.2967
   88MOL0     H11844   9.063   7.725  -0.219 -1.1120  0.3448 -0.4386
   88MOL0     H11845   8.924   7.798  -0.136 -0.5675 -2.0659  2.3925
   88MOL0     H11846   9.055   8.004  -0.095  0.8659 -1.1408  0.7311
   88MOL0     H11847   9.195   7.927  -0.178  0.4453 -1.6547  2.6897
   88MOL0     H11848   9.127   7.952  -0.380  2.2573  2.0293  1.2746
   88MOL0     H11849   8.951   7.963  -0.349 -1.1526  3.2300  1.3351
   88MOL0     H11850   9.165   8.171  -0.290  0.4138  1.3529 -0.9451
   88MOL0     H11851   8.996   8.198  -0.250  0.6615 -1.4865  2.4557
   88MOL0     H11852   8.955   8.122  -0.499 -2.7929  3.6010  1.7914
   88MOL0     H11853   9.130   8.148  -0.518  0.3872  0.5379  0.4740
   88MOL0     H11854   8.984   8.354  -0.577  2.8001  0.5176 -1.3520
   88MOL0     H11855   8.956   8.359  -0.391  0.3771 -3.4478  1.5394
   88MOL0     H11856   9.234   8.374  -0.516  0.5169  0.9348  0.1943
   88MOL0     H11857   9.187   8.410  -0.348 -0.9219  6.6237  0.5407
   88MOL0     H11858   9.175   8.611  -0.378  0.2671 -0.4054  0.3618
   88MOL0     H11859   9.180   8.596  -0.554  0.0671 -0.0016  0.8806
   88MOL0     H11860   9.138   7.679   0.230  2.0317 -0.6643 -0.0819
   88MOL0     H11861   9.069   7.475   0.334  1.3789  0.5501 -1.2233
   88MOL0     H11862   8.748   7.075   0.260 -0.5470 -0.6956 -0.2820
   88MOL0     H11863   8.667   6.865   0.372  1.0239 -2.1102  0.6367
   88MOL0     H11864   8.631   7.908   0.878  1.5740  1.1002 -1.1819
   88MOL0     H11865   8.602   7.858   0.662  1.6011  0.7236 -1.8342
   88MOL0     H11866   8.670   7.776   0.292  3.1483 -2.7085  2.8305
   88MOL0     H11867   8.569   7.798   0.070  1.9030 -1.3489 -0.2482
   88MOL0     H11868   8.630   7.705  -0.116  0.1114 -2.1209 -1.1363
   88MOL0     H11869   8.473   7.785  -0.125 -1.7643 -2.4251  1.8059
   88MOL0     H11870   8.555   7.551  -0.300 -3.1858 -0.3836  0.3609
   88MOL0     H11871   8.600   7.725  -0.347 -1.1367  2.2584 -0.1246
   88MOL0     H11872   8.350   7.569  -0.349 -2.1391  2.1658  2.5603
   88MOL0     H11873   8.407   7.668  -0.486  1.4606  1.6749  0.1634
   88MOL0     H11874   8.201   7.780  -0.392 -1.3619 -4.1254  1.1969
   88MOL0     H11875   8.272   7.768  -0.233 -0.1255 -2.3721 -1.2126
   88MOL0     H11876   8.492   8.103  -0.388 -2.1572  1.4903  1.6378
   88MOL0     H11877   8.409   7.399   0.104  1.1846 -1.4169 -0.9983
   88MOL0     H11878   8.366   7.346   0.364  0.3277  3.1667 -0.7584
   88MOL0     H11879   8.505   7.266   0.292 -0.3647  0.5801 -1.9824
   88MOL0     H11880   8.527   7.351   0.450  2.7508  3.0720 -0.3004
   89MOL0     O11881   1.429   2.351   3.911  0.6886  0.9257  0.3393
   89MOL0     C11882   1.395   2.293   4.010 -0.4506  0.0587 -0.2678
   89MOL0     O11883   1.284   2.224   4.023 -0.2049  0.6743 -0.0193
   89MOL0     C11884   1.178   2.238   3.934 -0.6251  0.2206 -0.0455
   89MOL0     C11885   1.134   2.364   3.896 -0.5351 -0.1785 -0.5943
   89MOL0     C11886   1.020   2.382   3.814 -0.1019  0.5245 -0.0864
   89MOL0     C11887   0.938   2.278   3.769  0.0780  0.6790  0.5012
   89MOL0     O11888   0.842   2.306   3.690  0.6830 -0.3251  0.7630
   89MOL0     C11889   0.881   2.314   3.551 -0.3054 -0.0521 -0.0513
   89MOL0     C11890   0.765   2.413   3.490  0.4544  0.0546 -0.0003
   89MOL0     C11891   0.800   2.448   3.352  0.8110 -0.1164 -1.1021
   89MOL0     C11892   0.689   2.536   3.274  0.4369 -0.2121 -0.4861
   89MOL0     C11893   0.731   2.578   3.127 -0.3168 -0.9409 -1.0440
   89MOL0     C11894   0.629   2.560   3.023  1.5151  0.2954  0.0955
   89MOL0     C11895   0.507   2.655   3.037  0.1077  0.8608  0.3399
   89MOL0     C11896   0.413   2.661   2.921  0.5606 -0.8186  0.5372
   89MOL0     N11897   0.465   2.710   2.794  0.3712 -0.2570 -0.0440
   89MOL0     C11898   0.546   2.819   2.768 -0.3533  0.1037  0.3504
   89MOL0     C11899   0.605   2.795   2.648  0.0313 -0.1130  0.3559
   89MOL0     C11900   0.713   2.880   2.589  0.3092 -0.5777  0.5284
   89MOL0     C11901   0.715   2.894   2.439  0.1387 -0.2200  0.0089
   89MOL0     C11902   0.614   3.006   2.381  0.3382  0.1218 -0.0876
   89MOL0     C11903   0.646   3.043   2.235  0.1424  0.0168  0.9620
   89MOL0     O11904   0.532   3.088   2.167 -0.7251 -0.7358 -0.9583
   89MOL0     C11905   0.435   3.001   2.119  1.1972  0.2089  0.5599
   89MOL0     C11906   0.333   3.063   2.044  0.8720  0.1738  0.5737
   89MOL0     C11907   0.241   2.972   1.976 -0.6224  0.3945 -1.1121
   89MOL0     C11908   0.249   2.836   1.993 -0.4740  0.0430  0.1439
   89MOL0     C11909   0.173   2.743   1.906 -0.2272 -0.5290 -0.1102
   89MOL0     O11910   0.189   2.760   1.775 -0.3713 -0.2193 -0.7664
   89MOL0     C11911   0.097   2.703   1.698  0.3358 -0.1143 -0.7439
   89MOL0     C11912   0.147   2.590   1.629  0.4412 -1.1197 -0.0359
   89MOL0     C11913   0.064   2.526   1.539 -1.2279  0.4382  0.0884
   89MOL0     C11914  -0.066   2.566   1.520  0.2455  0.1588  0.6246
   89MOL0     O11915  -0.132   2.497   1.415 -0.1009  0.6528 -0.7905
   89MOL0     C11916  -0.184   2.575   1.313  0.1164 -0.4013  0.4911
   89MOL0     C11917  -0.076   2.612   1.215  0.0617 -0.0232 -0.5438
   89MOL0     C11918   0.002   2.481   1.168  0.0139 -0.4715 -0.3049
   89MOL0     C11919   0.142   2.528   1.106  0.0652  1.3049  0.2148
   89MOL0     C11920   0.254   2.488   1.197  0.0667  0.6422 -0.5441
   89MOL0     C11921   0.278   2.340   1.218  0.6743  0.3423 -0.8038
   89MOL0     C11922   0.326   2.253   1.105  0.0786 -0.5605  0.6185
   89MOL0     C11923   0.208   2.200   1.020  0.3286 -0.6243  0.5545
   89MOL0    Cl11924   0.161   2.038   1.077 -0.0470  0.1564  0.2866
   89MOL0     C11925  -0.120   2.676   1.592  0.4497  0.5037  1.1032
   89MOL0     C11926  -0.035   2.746   1.675 -0.9046  0.1631 -0.3102
   89MOL0     O11927   0.112   2.646   1.958  0.2914 -0.4785  0.1135
   89MOL0     C11928   0.346   2.779   2.077  0.0311  0.1471 -0.0185
   89MOL0     C11929   0.433   2.860   2.138  0.5798  0.3838 -0.4059
   89MOL0     N11930   0.554   2.677   2.602  0.5448  0.4960  0.2517
   89MOL0     N11931   0.472   2.627   2.682 -0.0840  0.2722 -0.3692
   89MOL0     C11932   0.979   2.151   3.817 -0.0765  0.0196  1.0854
   89MOL0     C11933   1.092   2.132   3.898 -0.6834 -0.5836  0.2416
   89MOL0     C11934   1.488   2.290   4.138  0.6021  0.4585  0.4219
   89MOL0     C11935   1.435   2.231   4.258  0.4100  0.3446  0.0906
   89MOL0     C11936   1.507   2.235   4.380 -0.5111 -0.7091  0.0164
   89MOL0     C11937   1.621   2.314   4.400  0.4531  0.4815 -0.0745
   89MOL0     O11938   1.672   2.314   4.533 -0.5974  0.4615  0.7526
   89MOL0     C11939   1.784   2.396   4.551  0.7145  0.2681  0.0544
   89MOL0     C11940   1.832   2.368   4.693  1.6119  0.8207 -0.1675
   89MOL0     C11941   1.733   2.402   4.805 -0.0948  0.8300  0.3757
   89MOL0     C11942   1.807   2.360   4.938  0.6893 -0.2308 -0.3831
   89MOL0     C11943   1.704   2.399   5.043 -0.0746  0.3079 -0.0308
   89MOL0     C11944   1.634   2.420   5.138  0.1482 -0.2232 -0.2972
   89MOL0     C11945   1.678   2.366   4.280 -0.0342 -0.7413  0.7616
   89MOL0     C11946   1.614   2.356   4.156  0.0323  0.2823  0.1817
   89MOL0     C11947   1.672   2.436   4.047 -0.3979  0.6244 -0.1437
   89MOL0     H11948   1.189   2.451   3.929  2.6951 -1.9284 -0.8490
   89MOL0     H11949   0.997   2.484   3.784  2.2805  1.2496  0.3811
   89MOL0     H11950   0.982   2.355   3.538  0.2695 -0.9166  1.4565
   89MOL0     H11951   0.874   2.219   3.498  2.9572 -0.2557 -0.3405
   89MOL0     H11952   0.771   2.506   3.547 -2.5950 -1.6531  3.5305
   89MOL0     H11953   0.665   2.376   3.517 -0.5212  2.6421  0.1721
   89MOL0     H11954   0.823   2.360   3.290 -1.5867 -2.3035  0.9258
   89MOL0     H11955   0.893   2.506   3.340  2.6907 -3.0009 -1.6270
   89MOL0     H11956   0.599   2.476   3.263  0.0487  0.1995  0.3607
   89MOL0     H11957   0.665   2.623   3.335 -0.4803  0.7671 -2.1932
   89MOL0     H11958   0.752   2.685   3.138 -0.5283 -1.0518  0.6208
   89MOL0     H11959   0.825   2.528   3.103 -0.5206  0.2335 -5.0796
   89MOL0     H11960   0.665   2.579   2.921 -0.3548 -0.6434 -0.7931
   89MOL0     H11961   0.596   2.456   3.019  0.9002  0.5026 -0.3603
   89MOL0     H11962   0.538   2.760   3.044 -1.3410  1.8212 -4.0605
   89MOL0     H11963   0.453   2.632   3.129  2.3034  1.0492  1.7368
   89MOL0     H11964   0.357   2.567   2.915 -0.6097 -0.1393  0.3714
   89MOL0     H11965   0.334   2.735   2.939 -0.1318 -1.6740  1.0971
   89MOL0     H11966   0.569   2.904   2.832  2.7284  1.2069 -1.9597
   89MOL0     H11967   0.706   2.982   2.628 -0.6820 -1.6635  3.4987
   89MOL0     H11968   0.806   2.832   2.621  1.1949 -0.6970 -2.0285
   89MOL0     H11969   0.821   2.911   2.419 -0.0293 -1.1633 -1.9747
   89MOL0     H11970   0.690   2.801   2.386 -1.9652  0.2279  0.1132
   89MOL0     H11971   0.610   3.096   2.442  0.9306 -0.0298  0.1812
   89MOL0     H11972   0.509   2.976   2.389  0.3309 -1.4525 -3.7838
   89MOL0     H11973   0.679   2.950   2.187 -1.9270 -0.6386  0.6890
   89MOL0     H11974   0.728   3.114   2.225  1.5309 -1.4536  1.3922
   89MOL0     H11975   0.337   3.168   2.017  1.5186  0.1859  0.6950
   89MOL0     H11976   0.157   3.005   1.915 -2.2404 -1.6709 -0.1463
   89MOL0     H11977   0.239   2.542   1.659  1.1452  0.3026  0.1724
   89MOL0     H11978   0.110   2.453   1.473  3.7808  2.7311  0.5787
   89MOL0     H11979  -0.257   2.514   1.259  0.3644 -1.7206  1.5939
   89MOL0     H11980  -0.231   2.660   1.363 -2.8863 -0.8762 -1.2550
   89MOL0     H11981  -0.130   2.656   1.131 -1.0352 -1.2764 -0.5215
   89MOL0     H11982  -0.007   2.688   1.254 -0.5287  0.6294 -0.7645
   89MOL0     H11983   0.013   2.401   1.242  2.2066 -0.2521 -0.3285
   89MOL0     H11984  -0.067   2.441   1.092 -0.7955 -2.3047  1.2992
   89MOL0     H11985   0.143   2.637   1.092  1.5677  1.1912 -0.8058
   89MOL0     H11986   0.173   2.478   1.014 -0.2141 -4.0455  2.6936
   89MOL0     H11987   0.235   2.545   1.288  0.2148  2.2498 -1.4803
   89MOL0     H11988   0.353   2.522   1.165  1.6311  0.5262  3.5487
   89MOL0     H11989   0.347   2.339   1.303  0.4524  0.5919 -0.6188
   89MOL0     H11990   0.191   2.295   1.266  2.7671  0.4928  3.5727
   89MOL0     H11991   0.390   2.171   1.138  2.3200  1.7096  2.2567
   89MOL0     H11992   0.395   2.307   1.039 -0.1023 -3.4821 -2.2239
   89MOL0     H11993   0.118   2.262   1.024 -0.4589 -1.5116 -1.6346
   89MOL0     H11994   0.238   2.186   0.915 -0.0531 -0.3666  0.4088
   89MOL0     H11995  -0.218   2.723   1.587 -0.2836 -1.1065 -0.6844
   89MOL0     H11996  -0.064   2.829   1.738 -3.6161 -2.1481  1.7829
   89MOL0     H11997   0.358   2.672   2.085  1.9478  0.1992 -1.5323
   89MOL0     H11998   0.505   2.811   2.203 -1.2415  0.3728  1.7395
   89MOL0     H11999   0.920   2.065   3.785  0.6076 -0.9467  2.3337
   89MOL0     H12000   1.112   2.030   3.929 -0.9510 -0.0622  2.2900
   89MOL0     H12001   1.340   2.180   4.254 -0.6840  2.3502 -1.0771
   89MOL0     H12002   1.478   2.208   4.481  0.2889  2.7881  1.3133
   89MOL0     H12003   1.780   2.502   4.522  2.9668  0.5977  0.7575
   89MOL0     H12004   1.854   2.348   4.482  0.6229 -4.4009  2.8515
   89MOL0     H12005   1.927   2.415   4.719  0.9671  0.0199  4.5892
   89MOL0     H12006   1.858   2.262   4.695  2.7505  1.0558 -1.5645
   89MOL0     H12007   1.643   2.339   4.796 -0.6130  1.4884  0.8878
   89MOL0     H12008   1.699   2.506   4.809 -2.6423  0.0465  0.9914
   89MOL0     H12009   1.838   2.256   4.934 -1.7114 -1.0091 -0.4125
   89MOL0     H12010   1.894   2.425   4.952 -1.1785  1.8004  3.5802
   89MOL0     H12011   1.550   2.430   5.203 -0.5595 -1.4411 -0.9804
   89MOL0     H12012   1.775   2.415   4.287  0.3262 -1.2195 -0.5138
   89MOL0     H12013   1.614   2.529   4.045  1.4052  1.8528  1.4598
   89MOL0     H12014   1.770   2.479   4.071 -0.9462  0.6897  2.1714
   89MOL0     H12015   1.674   2.377   3.955 -1.4250 -3.2053  2.0717
   90MOL0     O12016  10.018   7.374   1.096 -0.6300  0.8454 -0.6861
   90MOL0     C12017  10.022   7.461   1.178  0.3123 -0.8128 -0.2923
   90MOL0     O12018   9.980   7.450   1.309 -0.1212  0.3877  0.5947
   90MOL0     C12019   9.920   7.324   1.353 -0.7468 -0.1056 -0.4836
   90MOL0     C12020   9.967   7.282   1.476  0.5932 -0.4668  0.0767
   90MOL0     C12021   9.915   7.167   1.533  0.0911  0.4355 -0.1376
   90MOL0     C12022   9.816   7.088   1.470  0.2746 -0.0228  0.2353
   90MOL0     O12023   9.779   6.976   1.536 -0.3551  0.4666  1.4026
   90MOL0     C12024   9.646   6.915   1.499  0.3005 -0.0246 -0.4973
   90MOL0     C12025   9.614   6.834   1.629 -0.1024  0.1193 -1.1163
   90MOL0     C12026   9.554   6.923   1.746  0.0309  0.5344 -0.0323
   90MOL0     C12027   9.648   6.943   1.863  0.6664 -0.5052  0.8983
   90MOL0     C12028   9.714   7.081   1.873 -0.2994  0.0236 -0.6558
   90MOL0     C12029   9.856   7.068   1.929 -0.4593  0.0361  0.7070
   90MOL0     C12030   9.859   7.017   2.074  0.8117 -0.4815 -0.5264
   90MOL0     C12031   9.985   7.073   2.152 -0.6202 -0.9880  0.1246
   90MOL0     N12032   9.981   7.212   2.195  0.0373  0.5407  0.1273
   90MOL0     C12033   9.906   7.261   2.306  0.9049  1.0048  1.1706
   90MOL0     C12034   9.906   7.389   2.289  0.2734 -0.3493 -0.4640
   90MOL0     C12035   9.836   7.502   2.359  0.1055 -0.0888  0.5296
   90MOL0     C12036   9.694   7.528   2.320  1.0140 -1.0248 -1.0175
   90MOL0     C12037   9.668   7.493   2.168 -0.4672  0.1098  0.7308
   90MOL0     C12038   9.540   7.567   2.129  0.3790  0.8233  0.1500
   90MOL0     O12039   9.514   7.532   1.992 -0.2446  0.2372 -0.7656
   90MOL0     C12040   9.475   7.638   1.914  0.0911  0.8567  0.4696
   90MOL0     C12041   9.389   7.739   1.955  0.4583 -0.4804 -0.1826
   90MOL0     C12042   9.350   7.839   1.872  0.3666 -0.5657  0.2745
   90MOL0     C12043   9.392   7.848   1.742  0.6171  0.2830 -0.0754
   90MOL0     C12044   9.348   7.955   1.652  1.0391  0.2184 -0.3787
   90MOL0     O12045   9.398   7.948   1.529 -0.2434  0.0077  0.2091
   90MOL0     C12046   9.384   8.053   1.440  0.4834  0.2868 -0.2571
   90MOL0     C12047   9.335   8.021   1.314  0.6900  0.4702  0.7901
   90MOL0     C12048   9.301   8.114   1.221 -0.6510  0.8138  0.4409
   90MOL0     C12049   9.310   8.251   1.257 -0.3719  0.5478 -0.1680
   90MOL0     O12050   9.279   8.360   1.171 -1.2915 -0.1975  0.0892
   90MOL0     C12051   9.244   8.339   1.032 -0.8120 -0.3434  0.0484
   90MOL0     C12052   9.267   8.468   0.962 -0.6437  0.8505 -0.1211
   90MOL0     C12053   9.197   8.592   1.029 -0.5954  0.3823  0.0123
   90MOL0     C12054   9.149   8.688   0.917 -0.8298  1.2212 -0.1315
   90MOL0     C12055   9.015   8.635   0.858  0.2686 -0.2363  0.0375
   90MOL0     C12056   8.956   8.733   0.751  0.3519 -0.1664 -0.2693
   90MOL0     C12057   8.894   8.857   0.807 -0.6702 -0.0954  0.8006
   90MOL0     C12058   8.773   8.841   0.905 -0.1201  0.4190 -0.1270
   90MOL0    Cl12059   8.646   8.958   0.884  0.5244  0.0235 -0.9207
   90MOL0     C12060   9.374   8.281   1.374 -0.6668 -0.4070 -0.3678
   90MOL0     C12061   9.402   8.188   1.462  0.9447  1.3676 -1.0266
   90MOL0     O12062   9.291   8.053   1.701 -0.3465 -0.6493  0.2884
   90MOL0     C12063   9.473   7.737   1.693 -0.0378 -0.4751  0.5588
   90MOL0     C12064   9.513   7.636   1.778 -0.5015 -0.2377 -1.1072
   90MOL0     N12065   9.997   7.421   2.187 -0.3884 -0.4713 -0.0896
   90MOL0     N12066  10.038   7.321   2.127  0.1816  0.1997  0.3693
   90MOL0     C12067   9.771   7.139   1.350  0.4645  0.3759  0.2771
   90MOL0     C12068   9.822   7.250   1.284  0.8044 -0.0649 -0.1676
   90MOL0     C12069  10.119   7.573   1.160  0.1825 -0.3103 -0.1810
   90MOL0     C12070  10.143   7.649   1.270  0.5792 -0.5109 -0.9814
   90MOL0     C12071  10.228   7.767   1.267  0.3325 -1.3851  1.4352
   90MOL0     C12072  10.282   7.807   1.147 -0.5851  0.0610  0.3340
   90MOL0     O12073  10.373   7.916   1.131  0.7423  0.3548  0.0992
   90MOL0     C12074  10.450   7.960   1.238  0.9452 -0.8870 -1.1851
   90MOL0     C12075  10.586   7.999   1.175  0.3621 -0.6744  0.2946
   90MOL0     C12076  10.641   7.869   1.093  0.6200 -0.3320 -0.0896
   90MOL0     C12077  10.638   7.745   1.175 -0.0697 -0.7410  0.4659
   90MOL0     C12078  10.739   7.645   1.121 -0.2176 -0.9480  0.4280
   90MOL0     C12079  10.787   7.542   1.071 -0.5029 -0.4036  0.6971
   90MOL0     C12080  10.254   7.723   1.034  0.1374 -0.5123  0.5226
   90MOL0     C12081  10.169   7.613   1.036 -1.0639 -0.7276  0.6657
   90MOL0     C12082  10.141   7.539   0.906 -0.0384  0.3081  0.4316
   90MOL0     H12083  10.040   7.347   1.523 -0.2961  0.0318  0.8064
   90MOL0     H12084   9.932   7.147   1.639 -0.2756  0.4178 -0.0816
   90MOL0     H12085   9.577   6.992   1.465  0.6411  0.5663  0.1199
   90MOL0     H12086   9.653   6.840   1.419  1.5291  0.9284 -1.3052
   90MOL0     H12087   9.692   6.760   1.652  0.7596  0.6498 -2.2319
   90MOL0     H12088   9.521   6.786   1.599  0.4107 -1.4355 -0.3225
   90MOL0     H12089   9.466   6.881   1.795 -0.3563  0.8839 -0.4158
   90MOL0     H12090   9.519   7.019   1.706  0.7351 -0.2721 -2.8006
   90MOL0     H12091   9.603   6.912   1.959  0.5040  0.6502  1.2021
   90MOL0     H12092   9.725   6.865   1.858 -1.3002 -2.6393  1.6496
   90MOL0     H12093   9.714   7.128   1.774 -2.7294 -1.9270 -1.6807
   90MOL0     H12094   9.655   7.148   1.937  0.2589  1.6535 -1.7595
   90MOL0     H12095   9.924   7.005   1.870  0.4397  0.7365  0.9601
   90MOL0     H12096   9.897   7.170   1.926  0.3193 -0.2579 -2.7256
   90MOL0     H12097   9.856   6.908   2.073 -3.5200 -0.5233 -1.7273
   90MOL0     H12098   9.765   7.034   2.127 -0.5495 -1.4103 -2.4839
   90MOL0     H12099  10.021   7.013   2.236  0.8761 -1.0330 -0.5243
   90MOL0     H12100  10.068   7.063   2.082 -1.3088  2.9928 -1.5518
   90MOL0     H12101   9.841   7.209   2.375  0.5246  0.5710  0.4945
   90MOL0     H12102   9.831   7.485   2.467 -1.6117 -1.3965  0.2906
   90MOL0     H12103   9.899   7.591   2.353 -0.1723  0.1056  0.5013
   90MOL0     H12104   9.620   7.481   2.386 -3.2589  1.6915 -3.4337
   90MOL0     H12105   9.684   7.636   2.335  1.4060 -1.2476  1.3496
   90MOL0     H12106   9.655   7.386   2.150 -0.2930  0.5235 -2.3012
   90MOL0     H12107   9.752   7.534   2.111 -0.4478  1.4311  1.6759
   90MOL0     H12108   9.558   7.674   2.144  0.4441  1.0893 -1.6213
   90MOL0     H12109   9.459   7.524   2.189  0.5439 -2.4754 -1.7790
   90MOL0     H12110   9.359   7.730   2.059 -2.1189 -1.7659 -0.9716
   90MOL0     H12111   9.273   7.903   1.913 -1.6712 -1.7556 -1.4371
   90MOL0     H12112   9.322   7.915   1.294 -1.7806  0.2547  2.9209
   90MOL0     H12113   9.262   8.070   1.130 -2.9932  2.0593  0.7803
   90MOL0     H12114   9.298   8.256   0.987 -0.5537 -0.4394  0.5291
   90MOL0     H12115   9.137   8.315   1.035 -1.3133  1.7087  2.8391
   90MOL0     H12116   9.376   8.482   0.965 -0.2812 -1.6413  2.3409
   90MOL0     H12117   9.252   8.461   0.854  3.2894 -2.9700 -0.7224
   90MOL0     H12118   9.109   8.574   1.091 -1.3062  2.6452 -0.2590
   90MOL0     H12119   9.276   8.639   1.089 -1.4011  0.1945  1.2515
   90MOL0     H12120   9.223   8.700   0.838 -0.5537 -0.9411 -0.2712
   90MOL0     H12121   9.150   8.786   0.965  2.0656  0.3645  1.8138
   90MOL0     H12122   8.951   8.625   0.946  2.8700  2.0779  2.4141
   90MOL0     H12123   9.024   8.543   0.800  1.5358 -0.4415  0.5246
   90MOL0     H12124   9.035   8.759   0.680 -0.1214  0.4081 -0.6048
   90MOL0     H12125   8.865   8.687   0.710 -1.5237 -0.8295  4.1149
   90MOL0     H12126   8.847   8.915   0.727  1.1897  0.6729  0.2187
   90MOL0     H12127   8.969   8.926   0.846  1.1744 -1.4663 -0.1664
   90MOL0     H12128   8.741   8.736   0.907 -0.2297  0.3382  4.2071
   90MOL0     H12129   8.808   8.861   1.007 -0.4847 -1.9917  0.5349
   90MOL0     H12130   9.405   8.379   1.408  2.1671 -1.3102 -0.0560
   90MOL0     H12131   9.458   8.223   1.549 -0.7712  2.9039 -0.4820
   90MOL0     H12132   9.511   7.757   1.593  1.0345  0.2264  1.0850
   90MOL0     H12133   9.571   7.554   1.736  2.3859 -0.0937  2.1226
   90MOL0     H12134   9.700   7.076   1.296  0.0479  0.7011  0.4374
   90MOL0     H12135   9.781   7.269   1.186 -0.9749  0.8006  0.6947
   90MOL0     H12136  10.110   7.615   1.367 -1.8759  0.6824 -1.3375
   90MOL0     H12137  10.233   7.833   1.353  1.2256  0.4980  0.0096
   90MOL0     H12138  10.462   7.905   1.331  0.5162  2.6173  1.1460
   90MOL0     H12139  10.397   8.047   1.278 -2.3441 -2.6891 -1.3645
   90MOL0     H12140  10.659   8.028   1.251 -0.9783  0.2957  1.2565
   90MOL0     H12141  10.559   8.082   1.108 -0.2582 -0.3116  0.9801
   90MOL0     H12142  10.743   7.900   1.066 -0.4564  3.1638 -0.6452
   90MOL0     H12143  10.597   7.862   0.993 -1.9340  1.2044  0.8225
   90MOL0     H12144  10.682   7.769   1.272 -1.0307 -2.1259  1.2691
   90MOL0     H12145  10.542   7.694   1.181 -0.1291 -0.5532  1.1546
   90MOL0     H12146  10.825   7.460   1.014 -0.2692  0.2530 -0.1226
   90MOL0     H12147  10.316   7.734   0.946 -0.2690  1.0392  0.3916
   90MOL0     H12148  10.195   7.444   0.908 -1.6686 -0.6757 -0.1448
   90MOL0     H12149  10.033   7.523   0.894 -0.4194  0.8625  2.6145
   90MOL0     H12150  10.174   7.606   0.827 -0.1961  0.7495  0.7353
   91MOL0     O12151   2.846  10.050  10.155 -0.2302  0.1850  0.1222
   91MOL0     C12152   2.776  10.051  10.254  0.1612 -0.3715 -0.7900
   91MOL0     O12153   2.644  10.021  10.255 -0.0671 -0.2976  0.0348
   91MOL0     C12154   2.581   9.970  10.147  0.5756  0.6218 -0.0315
   91MOL0     C12155   2.559  10.038  10.030 -0.7837 -1.3899  0.4810
   91MOL0     C12156   2.491   9.980   9.925  0.1712 -0.1790  0.4620
   91MOL0     C12157   2.419   9.865   9.933 -0.0011  0.9437 -0.0627
   91MOL0     O12158   2.334   9.815   9.841  0.1161 -0.4348  0.1968
   91MOL0     C12159   2.365   9.825   9.695 -0.5604 -0.8698 -0.1587
   91MOL0     C12160   2.372   9.691   9.628  0.0512  0.3032 -0.4985
   91MOL0     C12161   2.412   9.679   9.478  0.1322 -0.5957 -0.4977
   91MOL0     C12162   2.408   9.810   9.406 -0.3811  0.3086  0.2023
   91MOL0     C12163   2.462   9.797   9.259 -0.3780 -0.0034 -0.7468
   91MOL0     C12164   2.608   9.757   9.251  0.8469 -0.1364  0.4187
   91MOL0     C12165   2.701   9.814   9.351 -0.4061 -0.2047  0.6151
   91MOL0     C12166   2.837   9.833   9.276  0.3544  0.1109 -0.7309
   91MOL0     N12167   2.869   9.951   9.188  0.3649  0.0220 -0.0829
   91MOL0     C12168   2.903  10.072   9.235  0.0200  0.4552  0.1246
   91MOL0     C12169   2.938  10.149   9.132  0.2413  0.7761  0.5561
   91MOL0     C12170   2.953  10.296   9.144  1.1244 -0.6715  1.5577
   91MOL0     C12171   3.021  10.357   9.020 -1.3762 -0.0592 -0.0047
   91MOL0     C12172   3.021  10.506   9.036 -0.4006 -0.7449 -0.1116
   91MOL0     C12173   3.078  10.604   8.939  0.8448 -0.0538 -1.0497
   91MOL0     O12174   3.090  10.555   8.812 -0.7764  0.3875  0.2341
   91MOL0     C12175   2.969  10.543   8.753  0.5025 -0.3332  0.8553
   91MOL0     C12176   2.979  10.491   8.630  0.1524 -0.8507  0.0402
   91MOL0     C12177   2.875  10.493   8.534  0.0174 -0.3571  1.1655
   91MOL0     C12178   2.749  10.536   8.564 -0.1632  0.2992 -0.9167
   91MOL0     C12179   2.653  10.548   8.458 -0.6383 -0.1532  0.0000
   91MOL0     O12180   2.554  10.632   8.477  0.2904 -0.0870 -0.2522
   91MOL0     C12181   2.469  10.671   8.372 -0.5212 -1.2507 -0.3157
   91MOL0     C12182   2.446  10.806   8.365 -0.2675  0.0852 -0.2685
   91MOL0     C12183   2.340  10.855   8.269 -0.4530  0.9527 -0.0983
   91MOL0     C12184   2.262  10.763   8.201  0.4675  0.1306 -0.0540
   91MOL0     O12185   2.174  10.801   8.111  0.4711 -0.2512 -0.4727
   91MOL0     C12186   2.080  10.714   8.051 -1.2539  0.6210  0.6553
   91MOL0     C12187   1.960  10.775   7.982 -0.1570 -1.0228  0.3518
   91MOL0     C12188   1.883  10.676   7.892 -0.6506 -0.0389  0.2321
   91MOL0     C12189   1.953  10.644   7.756 -1.5326 -0.3301  0.4937
   91MOL0     C12190   1.961  10.770   7.667 -0.0945 -0.2192  0.1010
   91MOL0     C12191   2.072  10.753   7.572 -0.3061 -0.4229 -0.0274
   91MOL0     C12192   2.078  10.867   7.470  0.2395  0.3624 -0.1027
   91MOL0     C12193   1.983  10.852   7.353 -0.6423 -0.3956  0.0592
   91MOL0    Cl12194   2.042  10.940   7.214 -0.5705 -0.0297  0.1453
   91MOL0     C12195   2.288  10.631   8.221  0.4303  0.8066 -0.6917
   91MOL0     C12196   2.389  10.586   8.306  0.3352 -0.1878  0.2322
   91MOL0     O12197   2.669  10.479   8.360 -0.5582 -1.0540 -0.0320
   91MOL0     C12198   2.734  10.583   8.697 -0.2547 -0.8595  0.5150
   91MOL0     C12199   2.837  10.587   8.792 -0.3242 -0.1403  0.0021
   91MOL0     N12200   2.928  10.064   9.021 -0.0629 -0.1390 -0.0098
   91MOL0     N12201   2.879   9.955   9.053  0.4270  0.5247 -0.6885
   91MOL0     C12202   2.433   9.796  10.052 -0.4409  0.2212 -1.0821
   91MOL0     C12203   2.512   9.848  10.159 -0.0354  0.5288 -0.6143
   91MOL0     C12204   2.847  10.088  10.373  0.1600 -0.1170  0.6311
   91MOL0     C12205   2.831   9.987  10.474 -0.2082 -0.0529  0.0028
   91MOL0     C12206   2.899  10.011  10.588  0.9674 -0.1046 -0.1838
   91MOL0     C12207   2.983  10.111  10.609  0.4139 -0.0613  0.2249
   91MOL0     O12208   3.041  10.102  10.734 -0.3901 -0.3466 -0.1151
   91MOL0     C12209   3.150  10.190  10.773  0.3677 -0.9157 -0.5498
   91MOL0     C12210   3.258  10.108  10.834  0.1411  1.0421  0.4898
   91MOL0     C12211   3.309  10.005  10.730  0.6838 -0.3897 -0.4412
   91MOL0     C12212   3.425   9.931  10.791 -0.6556  0.4209 -0.1690
   91MOL0     C12213   3.547  10.020  10.798  0.1565 -0.2021 -0.3133
   91MOL0     C12214   3.639  10.096  10.790 -0.3051  0.6575  0.2271
   91MOL0     C12215   2.996  10.209  10.510 -0.2500  1.0612 -0.4228
   91MOL0     C12216   2.915  10.201  10.389 -0.8379 -0.2203 -0.7505
   91MOL0     C12217   2.920  10.306  10.284  0.0045 -0.2778 -1.1794
   91MOL0     H12218   2.631  10.116  10.011  0.3519 -3.0544 -2.8780
   91MOL0     H12219   2.496  10.048   9.840 -0.8947  1.7294  1.8456
   91MOL0     H12220   2.303   9.896   9.640  0.5660  1.5643  1.5051
   91MOL0     H12221   2.464   9.873   9.690 -0.7236 -0.4798  0.3018
   91MOL0     H12222   2.282   9.634   9.656  0.2102 -0.0291 -0.6591
   91MOL0     H12223   2.441   9.619   9.671 -1.1928 -3.3275 -3.9578
   91MOL0     H12224   2.357   9.599   9.427  0.0238  0.4786 -2.1246
   91MOL0     H12225   2.516   9.645   9.472  0.4624  0.5463 -1.5160
   91MOL0     H12226   2.302   9.833   9.396 -0.4539  0.2814  0.8504
   91MOL0     H12227   2.450   9.891   9.467  1.1960 -0.5638  0.3237
   91MOL0     H12228   2.401   9.734   9.193 -0.7305  1.8828 -2.3083
   91MOL0     H12229   2.446   9.902   9.231 -2.7121  1.1196  3.8477
   91MOL0     H12230   2.612   9.648   9.241  1.5381  0.0884 -2.5875
   91MOL0     H12231   2.641   9.792   9.153  2.4051  1.5621  1.4926
   91MOL0     H12232   2.714   9.744   9.434 -1.5000  0.2156  1.1608
   91MOL0     H12233   2.673   9.910   9.396  2.9607  0.6715  1.1188
   91MOL0     H12234   2.916   9.836   9.351  0.4260 -1.1565 -0.7249
   91MOL0     H12235   2.852   9.749   9.207  0.7517  0.0508 -0.5772
   91MOL0     H12236   2.902  10.112   9.336  1.7934 -4.2608  2.3435
   91MOL0     H12237   2.854  10.339   9.155  0.7925 -0.4498 -1.5508
   91MOL0     H12238   3.013  10.308   9.236  1.1824 -3.0267  1.8867
   91MOL0     H12239   3.122  10.321   8.998 -0.8552  2.6918 -2.8571
   91MOL0     H12240   2.955  10.345   8.934 -4.0149 -0.5570  1.9407
   91MOL0     H12241   3.069  10.528   9.131  3.3129  0.3602 -2.0653
   91MOL0     H12242   2.915  10.532   9.042 -0.3308 -0.2814 -0.7457
   91MOL0     H12243   3.174  10.626   8.988  0.5446  0.1135 -0.5306
   91MOL0     H12244   3.014  10.693   8.942 -3.1386 -2.7033 -0.0612
   91MOL0     H12245   3.080  10.460   8.603  1.1646  0.1095  2.4061
   91MOL0     H12246   2.906  10.460   8.435  0.2739 -1.1103  1.4896
   91MOL0     H12247   2.492  10.879   8.430 -0.0434  0.3521 -0.7229
   91MOL0     H12248   2.318  10.959   8.251 -2.3453  1.3653  3.5891
   91MOL0     H12249   2.135  10.653   7.980 -2.5014  0.9470 -0.6344
   91MOL0     H12250   2.036  10.655   8.133  0.3209  1.6063  2.2864
   91MOL0     H12251   1.884  10.804   8.056  3.0311 -0.4595  3.6856
   91MOL0     H12252   1.999  10.863   7.929  4.1143 -1.3913  2.4919
   91MOL0     H12253   1.849  10.586   7.943 -1.8396 -1.2402 -2.4898
   91MOL0     H12254   1.787  10.725   7.875 -1.6096 -1.1950  2.0072
   91MOL0     H12255   1.889  10.582   7.692 -0.6458  0.6360 -1.4302
   91MOL0     H12256   2.053  10.600   7.769 -0.5572  1.8771  0.9326
   91MOL0     H12257   1.979  10.862   7.723 -2.1357 -0.4081  1.1951
   91MOL0     H12258   1.863  10.791   7.623 -1.7078 -3.4040  1.7840
   91MOL0     H12259   2.163  10.764   7.631 -0.6825 -2.1902  0.9514
   91MOL0     H12260   2.086  10.659   7.518 -0.4906 -1.6427  1.9518
   91MOL0     H12261   2.181  10.873   7.434 -0.3491  0.9594 -1.7796
   91MOL0     H12262   2.055  10.963   7.516 -1.4266 -0.8261  1.6910
   91MOL0     H12263   1.975  10.747   7.321 -0.3638 -0.9617  1.7385
   91MOL0     H12264   1.883  10.891   7.374 -0.3393  1.0933 -1.0667
   91MOL0     H12265   2.228  10.553   8.174  3.7897 -1.2205 -2.0140
   91MOL0     H12266   2.416  10.480   8.308 -1.5470 -0.8176 -2.2237
   91MOL0     H12267   2.634  10.615   8.724 -0.2276 -4.1351  5.8582
   91MOL0     H12268   2.809  10.630   8.887  1.4108  1.3405 -0.1090
   91MOL0     H12269   2.386   9.699  10.063 -3.5918  1.7557  0.1731
   91MOL0     H12270   2.525   9.788  10.248  0.2364  0.6170 -0.5932
   91MOL0     H12271   2.772   9.898  10.458 -1.0773  0.2820  1.2333
   91MOL0     H12272   2.899   9.940  10.670 -1.0736  0.2295  0.1747
   91MOL0     H12273   3.100  10.260  10.840 -1.5893 -1.6763 -1.1139
   91MOL0     H12274   3.193  10.255  10.696  2.5986  2.4704  3.2049
   91MOL0     H12275   3.205  10.063  10.917  1.0761  0.8234  0.9790
   91MOL0     H12276   3.340  10.173  10.867  3.6147 -3.2772  1.3536
   91MOL0     H12277   3.346  10.041  10.633 -2.4313 -2.7738 -2.7487
   91MOL0     H12278   3.223   9.939  10.716  1.8354 -3.1467  3.5799
   91MOL0     H12279   3.402   9.903  10.894 -2.4015  0.8975 -0.3991
   91MOL0     H12280   3.463   9.846  10.732 -0.6939 -1.2589  2.0990
   91MOL0     H12281   3.711  10.173  10.768  0.2171 -0.1421 -0.9995
   91MOL0     H12282   3.063  10.293  10.523  3.5473 -1.6398 -0.7232
   91MOL0     H12283   2.980  10.393  10.313  1.0290 -1.7907  1.5857
   91MOL0     H12284   2.962  10.273  10.188  3.6853 -1.9376  0.7544
   91MOL0     H12285   2.817  10.340  10.273 -1.1842 -2.8095  0.9859
   92MOL0     O12286   3.215   1.702   0.788 -0.3284  0.9441 -0.0145
   92MOL0     C12287   3.263   1.594   0.758  0.1123  0.8532  0.0269
   92MOL0     O12288   3.186   1.473   0.735 -0.1824 -0.9062 -0.1978
   92MOL0     C12289   3.051   1.499   0.722 -0.5669  0.9917 -0.9547
   92MOL0     C12290   2.969   1.445   0.817 -0.8498  0.5529  0.7981
   92MOL0     C12291   2.830   1.477   0.807  0.0591  0.1911  0.6645
   92MOL0     C12292   2.774   1.526   0.680 -0.1306  0.2214  0.2136
   92MOL0     O12293   2.639   1.510   0.666 -0.2850  0.3990 -0.6338
   92MOL0     C12294   2.573   1.610   0.587  0.3011  0.7572  0.6676
   92MOL0     C12295   2.422   1.572   0.593  0.4968 -0.4984 -0.6696
   92MOL0     C12296   2.349   1.625   0.716 -0.3009 -0.3471  1.0687
   92MOL0     C12297   2.196   1.605   0.706  0.7646 -0.0521  0.2930
   92MOL0     C12298   2.116   1.659   0.831 -0.3268 -0.3055  0.6920
   92MOL0     C12299   2.149   1.798   0.874  0.4760 -0.2416 -0.6095
   92MOL0     C12300   2.032   1.872   0.965 -0.3446 -0.4793  0.7288
   92MOL0     C12301   1.930   1.917   0.856  0.7436  0.4582  0.2260
   92MOL0     N12302   1.891   2.053   0.887 -0.3604  0.4041 -0.2925
   92MOL0     C12303   1.779   2.091   0.961  0.3995 -0.2357  1.0731
   92MOL0     C12304   1.760   2.226   0.938 -0.4268 -0.5582  0.9033
   92MOL0     C12305   1.638   2.304   0.964 -0.5512 -0.3769  0.1253
   92MOL0     C12306   1.510   2.278   0.879  0.2145 -0.0956 -0.0826
   92MOL0     C12307   1.531   2.269   0.723  0.2434 -0.0616 -0.0037
   92MOL0     C12308   1.602   2.397   0.665 -1.0201 -1.0814  0.0702
   92MOL0     O12309   1.539   2.525   0.703  0.0980 -0.1502  0.2641
   92MOL0     C12310   1.414   2.554   0.651 -0.2647  0.4530  0.2593
   92MOL0     C12311   1.357   2.518   0.527  0.2851 -0.4847 -1.1851
   92MOL0     C12312   1.224   2.546   0.494 -0.5175 -0.4762  0.1046
   92MOL0     C12313   1.149   2.631   0.575  0.2491 -0.0890  0.3118
   92MOL0     C12314   1.004   2.661   0.551  0.0980  0.8938  0.1038
   92MOL0     O12315   0.962   2.669   0.419  0.7818 -0.0326 -0.2212
   92MOL0     C12316   0.831   2.708   0.402  0.6056 -0.5216  0.0951
   92MOL0     C12317   0.791   2.833   0.356 -0.5736  0.3319 -0.3509
   92MOL0     C12318   0.655   2.862   0.326  0.1138  0.4867  0.7620
   92MOL0     C12319   0.555   2.772   0.352  0.5315 -0.1234  0.7666
   92MOL0     O12320   0.420   2.792   0.329  0.3362  0.1020  0.2472
   92MOL0     C12321   0.355   2.887   0.415  0.3002  0.2517  0.0197
   92MOL0     C12322   0.227   2.904   0.339 -0.1745 -0.1871 -0.0359
   92MOL0     C12323   0.131   3.002   0.410  0.7656  0.5283  0.0402
   92MOL0     C12324   0.055   2.945   0.525  1.0913 -0.7040  0.4256
   92MOL0     C12325  -0.033   3.055   0.599 -0.3397 -0.1764  0.0939
   92MOL0     C12326  -0.099   2.995   0.716 -0.2790 -0.9263  0.5155
   92MOL0     C12327  -0.175   3.105   0.794  0.2808  0.4021  0.5771
   92MOL0     C12328  -0.149   3.079   0.946  0.9546 -0.6338 -0.1934
   92MOL0    Cl12329  -0.248   3.197   1.035  0.6972  0.0423 -0.1066
   92MOL0     C12330   0.592   2.642   0.394 -0.4608 -0.3154  0.2884
   92MOL0     C12331   0.734   2.610   0.419  0.4248 -0.0804  1.3151
   92MOL0     O12332   0.932   2.696   0.636 -0.3363  0.8153 -0.6808
   92MOL0     C12333   1.209   2.674   0.689 -0.1766  0.3591 -0.0956
   92MOL0     C12334   1.337   2.637   0.730  0.4507 -0.4011 -0.2975
   92MOL0     N12335   1.874   2.270   0.868 -1.2317  0.5378  0.3538
   92MOL0     N12336   1.955   2.163   0.839 -0.2009 -1.1004  0.0350
   92MOL0     C12337   2.869   1.557   0.581 -0.4926  0.2836  0.2434
   92MOL0     C12338   3.010   1.553   0.606  0.7251 -0.8856 -1.3682
   92MOL0     C12339   3.413   1.591   0.763 -0.4721 -0.0775  0.2171
   92MOL0     C12340   3.488   1.715   0.758  0.5259  0.2921 -0.0873
   92MOL0     C12341   3.626   1.720   0.766 -0.9895 -0.2881 -0.4954
   92MOL0     C12342   3.704   1.602   0.762  0.4102  0.1426 -0.7506
   92MOL0     O12343   3.843   1.614   0.746 -0.3213  0.7691  0.2795
   92MOL0     C12344   3.915   1.738   0.751  0.3043 -0.1094 -0.2528
   92MOL0     C12345   4.070   1.730   0.747  0.9377 -0.8381  0.2959
   92MOL0     C12346   4.162   1.860   0.711 -1.0299 -0.5422  0.1526
   92MOL0     C12347   4.119   1.996   0.764  0.1313  0.2640 -0.2641
   92MOL0     C12348   4.096   2.010   0.907  0.0276  0.5403  0.3741
   92MOL0     C12349   4.070   2.039   1.020  0.3324 -0.2253  0.4878
   92MOL0     C12350   3.639   1.483   0.748  0.1930 -0.0352  0.5776
   92MOL0     C12351   3.495   1.471   0.757  0.3354 -0.1377 -0.6169
   92MOL0     C12352   3.428   1.338   0.752  0.0065  0.0437 -0.7099
   92MOL0     H12353   3.011   1.385   0.897  0.3205 -2.1870 -1.7178
   92MOL0     H12354   2.771   1.427   0.883 -0.2298 -0.9998 -0.2970
   92MOL0     H12355   2.595   1.714   0.613 -1.1966  1.4296 -0.6294
   92MOL0     H12356   2.583   1.592   0.480 -0.9413  0.6041  0.5608
   92MOL0     H12357   2.400   1.466   0.585 -1.5130 -0.1809  0.1363
   92MOL0     H12358   2.373   1.622   0.509 -0.6307  0.9263  0.7530
   92MOL0     H12359   2.382   1.728   0.730  0.0104 -0.1913 -0.6033
   92MOL0     H12360   2.392   1.574   0.803  1.2836  1.3678  1.3356
   92MOL0     H12361   2.166   1.664   0.619  2.0570 -2.1729 -1.6946
   92MOL0     H12362   2.167   1.501   0.688 -0.3017 -0.6041  4.1528
   92MOL0     H12363   2.012   1.654   0.796 -0.2145  0.1973  0.2789
   92MOL0     H12364   2.128   1.576   0.901  1.0411 -3.3565 -2.8364
   92MOL0     H12365   2.245   1.790   0.926 -0.1771 -1.9130  0.4156
   92MOL0     H12366   2.158   1.861   0.785 -3.1284 -0.6935 -1.4148
   92MOL0     H12367   2.085   1.954   1.014  0.3072  0.6137 -1.6864
   92MOL0     H12368   1.986   1.795   1.029  2.4069 -2.4944  0.4437
   92MOL0     H12369   1.963   1.895   0.755 -2.8202 -2.3549 -0.5457
   92MOL0     H12370   1.837   1.859   0.846  0.0085  1.7905 -1.1593
   92MOL0     H12371   1.695   2.036   1.000 -0.2479 -0.7020 -0.8763
   92MOL0     H12372   1.602   2.290   1.067 -4.2886  2.5608 -0.5361
   92MOL0     H12373   1.669   2.409   0.961  1.6105 -0.9032  1.5454
   92MOL0     H12374   1.470   2.188   0.926  0.5697  0.1319  0.6661
   92MOL0     H12375   1.435   2.352   0.903 -0.5974 -0.6769 -0.7473
   92MOL0     H12376   1.433   2.254   0.677  1.0154  0.3983 -1.9001
   92MOL0     H12377   1.592   2.182   0.697 -0.5295 -0.4567 -0.4955
   92MOL0     H12378   1.617   2.394   0.556 -0.0159  1.4524  0.0692
   92MOL0     H12379   1.699   2.414   0.713 -2.4975  3.1650  2.0300
   92MOL0     H12380   1.429   2.467   0.464  4.5857  1.6525  1.4846
   92MOL0     H12381   1.193   2.514   0.396 -0.0686  1.2551 -0.6529
   92MOL0     H12382   0.852   2.918   0.326 -1.0373  1.5917  2.0065
   92MOL0     H12383   0.638   2.963   0.290 -0.6120 -0.1959 -0.9362
   92MOL0     H12384   0.340   2.847   0.516 -3.4627 -0.1097 -0.5088
   92MOL0     H12385   0.403   2.984   0.426 -0.5179  0.4321  2.4696
   92MOL0     H12386   0.248   2.932   0.236 -1.1469 -1.3616 -0.5762
   92MOL0     H12387   0.186   2.803   0.339 -2.8991  0.8262  0.2711
   92MOL0     H12388   0.184   3.091   0.446  0.7909 -0.0483  1.4998
   92MOL0     H12389   0.061   3.042   0.337 -1.8641  0.2781  2.2456
   92MOL0     H12390   0.111   2.879   0.592 -0.5242 -2.0930  0.4835
   92MOL0     H12391  -0.015   2.872   0.483 -2.7490  1.9750  1.5301
   92MOL0     H12392  -0.116   3.086   0.534 -0.7188  1.5953  1.3506
   92MOL0     H12393   0.027   3.140   0.632 -1.2620  1.3756 -2.0112
   92MOL0     H12394  -0.170   2.925   0.672 -0.5044 -0.3691 -0.0211
   92MOL0     H12395  -0.023   2.947   0.778  2.9991  0.8236 -1.8493
   92MOL0     H12396  -0.282   3.102   0.773  0.0339 -1.0464  1.8439
   92MOL0     H12397  -0.125   3.199   0.771  1.1221 -0.5804 -1.9471
   92MOL0     H12398  -0.172   2.977   0.977  2.7118 -1.5914 -1.7936
   92MOL0     H12399  -0.048   3.101   0.980 -0.8049  1.4802  4.4513
   92MOL0     H12400   0.525   2.558   0.380  1.3766 -1.4855 -2.3041
   92MOL0     H12401   0.743   2.509   0.457  1.7962 -0.2336  0.6607
   92MOL0     H12402   1.149   2.740   0.750 -1.3649  1.2581 -2.1432
   92MOL0     H12403   1.380   2.679   0.821  1.5469  1.3300 -1.5550
   92MOL0     H12404   2.824   1.582   0.485  1.4914 -2.2652 -1.4555
   92MOL0     H12405   3.084   1.578   0.530 -0.0282 -1.6280 -2.3872
   92MOL0     H12406   3.443   1.814   0.754 -0.1003 -0.0298 -1.6212
   92MOL0     H12407   3.668   1.820   0.767  2.5411 -1.6241 -0.3380
   92MOL0     H12408   3.883   1.801   0.834  2.7564 -0.6253  1.1901
   92MOL0     H12409   3.885   1.796   0.663 -0.3469 -0.4600 -0.2672
   92MOL0     H12410   4.091   1.658   0.668 -1.3797 -0.0281 -1.1612
   92MOL0     H12411   4.105   1.684   0.840  0.0210  0.6406  1.4157
   92MOL0     H12412   4.156   1.898   0.609  0.1116  1.2092  0.6877
   92MOL0     H12413   4.266   1.840   0.738  0.1915 -0.2421 -3.6613
   92MOL0     H12414   4.188   2.076   0.736 -1.5157  1.0512 -2.3727
   92MOL0     H12415   4.024   2.029   0.719 -0.7965 -3.4028 -1.4036
   92MOL0     H12416   4.034   2.080   1.113 -1.4995  2.0727 -1.1235
   92MOL0     H12417   3.692   1.389   0.735  2.3191  1.1146  0.3969
   92MOL0     H12418   3.353   1.336   0.832  0.1526 -3.7097 -0.4742
   92MOL0     H12419   3.371   1.304   0.665 -3.7164  0.1805  1.4385
   92MOL0     H12420   3.507   1.268   0.781  1.1179  1.6449  0.3118
   93MOL0     O12421   2.994   3.785   3.795 -0.1044  0.2594 -0.6280
   93MOL0     C12422   2.893   3.748   3.731 -0.5361  0.1468  1.0175
   93MOL0     O12423   2.799   3.657   3.786  0.1017 -0.4344 -0.3936
   93MOL0     C12424   2.829   3.614   3.910 -0.1590  1.3231 -0.4841
   93MOL0     C12425   2.821   3.699   4.019 -0.0277 -0.2110 -0.0338
   93MOL0     C12426   2.833   3.651   4.150  0.5636  0.3549  0.9769
   93MOL0     C12427   2.850   3.508   4.176 -0.3573 -0.3283 -0.8676
   93MOL0     O12428   2.870   3.457   4.301 -0.5217  0.2204  0.3307
   93MOL0     C12429   2.988   3.506   4.370  0.9306 -0.0793  0.0238
   93MOL0     C12430   3.040   3.399   4.456 -0.5456  0.0789  0.1386
   93MOL0     C12431   2.943   3.353   4.575 -0.7119  0.1688 -0.0276
   93MOL0     C12432   3.039   3.328   4.704  0.4312  0.1595 -0.5635
   93MOL0     C12433   2.983   3.267   4.835  0.2289 -0.0380 -0.1478
   93MOL0     C12434   3.093   3.212   4.935 -0.5888 -0.6684  0.4124
   93MOL0     C12435   3.121   3.059   4.929  0.6869 -0.0273 -0.6157
   93MOL0     C12436   3.211   3.036   5.057  0.0332  0.0144  0.4895
   93MOL0     N12437   3.223   2.899   5.095  0.0409  0.3032  0.4950
   93MOL0     C12438   3.285   2.812   5.006 -1.0084 -0.0917 -0.8261
   93MOL0     C12439   3.311   2.705   5.077 -0.0784  0.8228 -0.7649
   93MOL0     C12440   3.379   2.579   5.035 -0.4416  0.1255 -0.1285
   93MOL0     C12441   3.528   2.589   5.039  0.5291  0.4418 -0.5152
   93MOL0     C12442   3.577   2.606   5.186  0.5875 -0.0747 -0.4057
   93MOL0     C12443   3.516   2.513   5.301  0.2081  0.3840 -0.9518
   93MOL0     O12444   3.566   2.380   5.281 -0.7291  0.4904 -0.7137
   93MOL0     C12445   3.677   2.332   5.343 -0.2551 -0.3492 -0.8847
   93MOL0     C12446   3.693   2.191   5.327  0.4222  0.0970  0.6045
   93MOL0     C12447   3.811   2.136   5.366 -0.2989  1.0084  0.3252
   93MOL0     C12448   3.907   2.197   5.449 -0.9029  0.1649 -0.5857
   93MOL0     C12449   4.033   2.124   5.495  0.0911 -0.0674  0.2759
   93MOL0     O12450   4.105   2.200   5.592 -0.1756  0.3961 -0.0663
   93MOL0     C12451   4.238   2.178   5.624  0.4793  0.1961  0.2569
   93MOL0     C12452   4.291   2.215   5.748  0.0453 -0.3175  0.1251
   93MOL0     C12453   4.431   2.213   5.778  0.2245 -0.3372 -1.4981
   93MOL0     C12454   4.512   2.166   5.674 -0.0789  0.6464 -0.6765
   93MOL0     O12455   4.655   2.162   5.690 -0.5024  0.2412  0.2438
   93MOL0     C12456   4.730   2.035   5.666  0.6293 -0.0807 -0.2743
   93MOL0     C12457   4.833   2.019   5.779 -0.5152  0.2867  0.0320
   93MOL0     C12458   4.942   2.131   5.787 -0.3281  0.2438 -0.9015
   93MOL0     C12459   5.035   2.104   5.910  0.6925 -0.7509 -0.3983
   93MOL0     C12460   5.126   2.215   5.900 -0.3334 -0.5755 -1.0735
   93MOL0     C12461   5.243   2.200   5.995 -0.3145 -0.5163 -0.2015
   93MOL0     C12462   5.319   2.335   6.028  0.5622  0.1904  0.5767
   93MOL0     C12463   5.427   2.311   6.143 -0.3643 -0.4945 -0.7138
   93MOL0    Cl12464   5.341   2.279   6.298  0.2188 -0.2573 -0.2579
   93MOL0     C12465   4.465   2.128   5.547 -0.4830 -0.1376 -0.4275
   93MOL0     C12466   4.331   2.140   5.520 -0.0255  0.0498 -0.4650
   93MOL0     O12467   4.067   2.015   5.444  0.2627  0.2902 -0.0638
   93MOL0     C12468   3.883   2.333   5.477 -0.8545  0.2975 -0.3960
   93MOL0     C12469   3.773   2.404   5.410  0.2814  0.6586  0.2912
   93MOL0     N12470   3.279   2.736   5.208  0.3814  0.2118 -0.4203
   93MOL0     N12471   3.219   2.846   5.220 -0.2849 -0.1615  0.0195
   93MOL0     C12472   2.843   3.427   4.066 -0.1315  0.2577  1.0641
   93MOL0     C12473   2.836   3.474   3.935  0.1633 -0.7679  0.3422
   93MOL0     C12474   2.862   3.784   3.588 -0.0761  0.2317 -0.0776
   93MOL0     C12475   2.788   3.698   3.511 -0.6465  0.9042 -0.3432
   93MOL0     C12476   2.750   3.738   3.389  0.7957 -0.2566  0.3739
   93MOL0     C12477   2.789   3.860   3.321 -0.0669  0.4485  0.9074
   93MOL0     O12478   2.756   3.884   3.183 -0.2940 -0.3807 -0.5937
   93MOL0     C12479   2.849   3.956   3.097 -0.0093 -0.1239 -0.0575
   93MOL0     C12480   2.837   3.909   2.955  0.3809  0.9072  1.3273
   93MOL0     C12481   2.925   3.773   2.936  0.4559  0.3926  0.1600
   93MOL0     C12482   2.876   3.643   2.989 -0.3729  0.4054 -0.4149
   93MOL0     C12483   2.733   3.623   2.957  0.5976  0.0590 -0.0236
   93MOL0     C12484   2.617   3.619   2.929 -0.4975 -0.0579  0.9191
   93MOL0     C12485   2.856   3.943   3.406 -0.4095 -0.2833  0.2032
   93MOL0     C12486   2.900   3.912   3.536  0.6523  0.0812 -0.6965
   93MOL0     C12487   2.973   4.022   3.611 -1.4984 -0.0803  0.0103
   93MOL0     H12488   2.802   3.805   4.004  1.3870 -0.0285 -0.6809
   93MOL0     H12489   2.848   3.708   4.241  3.9079  1.9717 -0.3877
   93MOL0     H12490   3.067   3.540   4.303  1.7098  0.5615  1.2169
   93MOL0     H12491   2.965   3.596   4.428  1.3041 -1.4499  2.4628
   93MOL0     H12492   3.141   3.414   4.495  0.0203  1.2138 -1.6459
   93MOL0     H12493   3.057   3.316   4.386 -0.4208  2.1857 -2.4855
   93MOL0     H12494   2.893   3.262   4.543  0.1983  0.1400 -1.4550
   93MOL0     H12495   2.865   3.427   4.599 -1.9723 -1.8244  2.4814
   93MOL0     H12496   3.128   3.271   4.677 -0.0324 -0.2855 -1.1845
   93MOL0     H12497   3.078   3.425   4.736  0.1358  0.4548 -1.0769
   93MOL0     H12498   2.930   3.344   4.891 -0.6449 -1.5181  1.1408
   93MOL0     H12499   2.910   3.187   4.826 -1.0705  1.1659 -0.6486
   93MOL0     H12500   3.184   3.262   4.898 -1.8585  1.1507 -0.3890
   93MOL0     H12501   3.063   3.242   5.036 -1.4505  0.2130 -0.0845
   93MOL0     H12502   3.156   3.023   4.831  0.8562  0.7206 -0.8392
   93MOL0     H12503   3.025   3.010   4.949  0.6962 -0.5895 -1.8418
   93MOL0     H12504   3.304   3.084   5.026 -0.6008  1.0373  0.1290
   93MOL0     H12505   3.193   3.087   5.152  1.8586 -0.5066  1.1525
   93MOL0     H12506   3.304   2.818   4.899 -1.4292 -0.4005 -0.9203
   93MOL0     H12507   3.353   2.507   5.113  2.8972  0.2939  1.2750
   93MOL0     H12508   3.343   2.556   4.934  0.8451  3.7978 -1.6034
   93MOL0     H12509   3.563   2.497   4.992 -0.4368  1.0899 -2.6124
   93MOL0     H12510   3.560   2.664   4.966  1.3105 -0.5364 -1.1895
   93MOL0     H12511   3.581   2.712   5.212  0.8922  0.3068 -1.8927
   93MOL0     H12512   3.683   2.583   5.193  0.5303 -0.4558 -0.7469
   93MOL0     H12513   3.407   2.519   5.302  0.1864  1.1309 -3.1894
   93MOL0     H12514   3.552   2.548   5.398 -2.7196  0.1131  0.3279
   93MOL0     H12515   3.608   2.135   5.288 -1.2167  1.5857  1.8782
   93MOL0     H12516   3.828   2.030   5.351  0.9277  0.9349  1.8782
   93MOL0     H12517   4.232   2.250   5.833 -0.2166 -2.6828  0.9989
   93MOL0     H12518   4.463   2.224   5.881  0.8702 -3.2627 -1.2976
   93MOL0     H12519   4.674   1.941   5.674 -0.8998  0.9637  2.7595
   93MOL0     H12520   4.793   2.043   5.577 -1.2219  2.5594 -1.4775
   93MOL0     H12521   4.783   2.001   5.875 -1.4718 -3.3406 -0.9860
   93MOL0     H12522   4.890   1.928   5.758 -1.0327 -0.0769  0.1749
   93MOL0     H12523   4.993   2.133   5.691  0.3210  1.0203 -0.5557
   93MOL0     H12524   4.893   2.228   5.796  0.3893  0.4414  2.1300
   93MOL0     H12525   5.097   2.014   5.914 -0.5821 -1.7008 -1.2317
   93MOL0     H12526   4.969   2.103   5.997  1.3339  1.0317  0.1400
   93MOL0     H12527   5.073   2.301   5.942  3.2164  0.5550  1.6723
   93MOL0     H12528   5.168   2.229   5.800  1.1023  0.1700 -0.4061
   93MOL0     H12529   5.214   2.164   6.094 -2.7646  0.9050 -0.3276
   93MOL0     H12530   5.315   2.142   5.937  1.3392  0.7760  0.4699
   93MOL0     H12531   5.262   2.427   6.047 -0.1654 -0.5181  1.9695
   93MOL0     H12532   5.375   2.360   5.937 -1.0789 -3.6122 -1.7122
   93MOL0     H12533   5.494   2.226   6.131  0.6777  0.2838 -0.6101
   93MOL0     H12534   5.495   2.396   6.152  0.6183 -1.3935  0.7217
   93MOL0     H12535   4.550   2.115   5.481  0.9057  1.5651  0.9178
   93MOL0     H12536   4.302   2.144   5.416 -3.4407  4.3380  0.3738
   93MOL0     H12537   3.950   2.395   5.536 -2.6012  1.6898  0.2087
   93MOL0     H12538   3.759   2.512   5.418 -4.2146  0.4273 -1.7743
   93MOL0     H12539   2.836   3.320   4.083 -0.0120  0.1099  0.2090
   93MOL0     H12540   2.844   3.400   3.856  1.2370 -1.3972  1.0251
   93MOL0     H12541   2.776   3.601   3.558  1.2020  0.6454 -0.3406
   93MOL0     H12542   2.696   3.667   3.327  2.1837  0.0362 -1.2757
   93MOL0     H12543   2.951   3.951   3.138 -0.4584  0.1392  1.1563
   93MOL0     H12544   2.818   4.059   3.114  0.1788 -0.2275  1.0290
   93MOL0     H12545   2.871   3.985   2.884 -2.2402 -0.5105 -1.7139
   93MOL0     H12546   2.733   3.892   2.924  0.9271 -0.8421  0.2953
   93MOL0     H12547   3.026   3.802   2.967 -0.1859  2.9916  0.0443
   93MOL0     H12548   2.937   3.758   2.828  0.0089  0.2271  0.1297
   93MOL0     H12549   2.940   3.559   2.960  0.4400  0.1844  1.7984
   93MOL0     H12550   2.882   3.644   3.099 -0.0133 -0.8503 -0.4077
   93MOL0     H12551   2.516   3.611   2.895  0.3450 -2.1805 -1.3614
   93MOL0     H12552   2.882   4.039   3.365  1.0315  0.5798  2.8683
   93MOL0     H12553   3.075   3.983   3.620 -0.3991  2.9924  2.3942
   93MOL0     H12554   2.979   4.114   3.551  0.9527  0.1736  0.5202
   93MOL0     H12555   2.934   4.047   3.710  1.4995 -1.2308  1.6151
   94MOL0     O12556   1.152   1.379   2.407 -0.4083 -0.0014 -0.5319
   94MOL0     C12557   1.081   1.462   2.458 -0.1442  0.2853 -0.6677
   94MOL0     O12558   1.101   1.600   2.464  0.8734 -0.0424  0.7637
   94MOL0     C12559   1.224   1.646   2.438  1.1086 -0.1760  0.2296
   94MOL0     C12560   1.341   1.586   2.495  0.2939 -0.1708  0.2600
   94MOL0     C12561   1.474   1.632   2.476 -0.3973 -0.5547  1.3031
   94MOL0     C12562   1.490   1.739   2.384  0.3962 -0.5381  0.0201
   94MOL0     O12563   1.621   1.782   2.350 -0.3902  0.0591 -0.7380
   94MOL0     C12564   1.640   1.856   2.230 -0.8664  0.6066  0.1064
   94MOL0     C12565   1.791   1.866   2.182 -1.0964 -0.1757  0.6789
   94MOL0     C12566   1.860   1.995   2.234  0.5544  0.4870  0.3286
   94MOL0     C12567   1.920   2.091   2.120 -0.0278  0.1089 -0.2597
   94MOL0     C12568   1.997   2.203   2.202  1.3937  0.0014 -0.2408
   94MOL0     C12569   2.044   2.307   2.110 -0.2292  0.8989  1.1305
   94MOL0     C12570   2.115   2.425   2.173  0.1508 -0.1675  0.4574
   94MOL0     C12571   2.265   2.391   2.195 -0.2959 -0.7433 -1.1108
   94MOL0     N12572   2.342   2.494   2.264  0.0192  1.1204 -0.8170
   94MOL0     C12573   2.319   2.529   2.400 -0.8330  0.1693 -0.4801
   94MOL0     C12574   2.412   2.625   2.422 -0.6584  0.6636  0.1144
   94MOL0     C12575   2.445   2.711   2.552  0.3708  0.5624 -0.3467
   94MOL0     C12576   2.415   2.639   2.683  0.9312 -0.1362 -0.1714
   94MOL0     C12577   2.513   2.524   2.693  0.2413  0.2369  0.7307
   94MOL0     C12578   2.436   2.398   2.747 -0.2135 -0.0974 -0.1255
   94MOL0     O12579   2.331   2.354   2.661  0.4925  0.6322 -0.4958
   94MOL0     C12580   2.271   2.227   2.689  0.3545  0.2552  0.1248
   94MOL0     C12581   2.296   2.150   2.806  0.4110 -0.7143  0.1091
   94MOL0     C12582   2.228   2.029   2.830  1.7208  0.8558  0.0994
   94MOL0     C12583   2.128   1.973   2.747  1.7078 -0.1150 -0.0379
   94MOL0     C12584   2.056   1.857   2.785  0.0866  0.7434  0.0625
   94MOL0     O12585   1.944   1.823   2.709  0.1154 -0.0142  0.2135
   94MOL0     C12586   1.863   1.719   2.754 -0.3560  0.9486  0.5745
   94MOL0     C12587   1.756   1.731   2.855 -0.2418 -0.4906  0.8327
   94MOL0     C12588   1.663   1.634   2.869  0.2687  0.4224 -0.0676
   94MOL0     C12589   1.684   1.508   2.807 -0.0569  0.0175  0.7250
   94MOL0     O12590   1.604   1.400   2.816 -0.5229  0.3648 -0.8175
   94MOL0     C12591   1.483   1.409   2.895 -0.5250 -0.3139 -0.2474
   94MOL0     C12592   1.380   1.305   2.861  0.6039  0.7752  0.7117
   94MOL0     C12593   1.229   1.320   2.923  0.3965 -0.1190 -0.3353
   94MOL0     C12594   1.211   1.286   3.067  0.2604 -0.1881  0.4980
   94MOL0     C12595   1.077   1.297   3.138  0.6907 -0.5583 -0.2977
   94MOL0     C12596   1.027   1.441   3.140 -0.6781 -0.2788 -0.3095
   94MOL0     C12597   0.941   1.471   3.256  0.0022  0.0117 -0.9986
   94MOL0     C12598   0.813   1.548   3.230 -0.2345  0.4811  0.4749
   94MOL0    Cl12599   0.690   1.451   3.155 -0.7894  0.5527 -0.0199
   94MOL0     C12600   1.792   1.501   2.719 -0.1391  0.3387 -0.7818
   94MOL0     C12601   1.879   1.603   2.683  0.6107 -0.5860 -0.5730
   94MOL0     O12602   2.093   1.796   2.887  0.4775 -0.0778 -0.3995
   94MOL0     C12603   2.112   2.043   2.628  0.1448 -0.0100 -0.1596
   94MOL0     C12604   2.173   2.176   2.606  0.8777  0.8317 -0.7485
   94MOL0     N12605   2.483   2.643   2.302  0.0778 -0.0617  0.0214
   94MOL0     N12606   2.432   2.571   2.205  0.3187 -0.5433 -0.2819
   94MOL0     C12607   1.376   1.803   2.331 -0.2182  0.1482  0.9553
   94MOL0     C12608   1.245   1.756   2.354  0.3634 -0.7786 -0.0507
   94MOL0     C12609   0.966   1.408   2.530 -0.1280  0.3700 -0.3390
   94MOL0     C12610   0.937   1.450   2.660 -0.4123  0.1659 -1.1487
   94MOL0     C12611   0.838   1.390   2.735 -0.8224  0.6183 -0.6802
   94MOL0     C12612   0.755   1.288   2.678  0.4620 -0.6888  0.0103
   94MOL0     O12613   0.650   1.242   2.749  0.5346 -0.1962  0.5786
   94MOL0     C12614   0.554   1.337   2.789 -0.4611 -0.6942 -0.9550
   94MOL0     C12615   0.458   1.367   2.668 -0.2326 -0.9218 -0.4648
   94MOL0     C12616   0.363   1.254   2.625 -0.0960  0.5592  0.6099
   94MOL0     C12617   0.250   1.316   2.539  0.1625 -0.2311 -0.0622
   94MOL0     C12618   0.178   1.208   2.462 -0.6993  0.2936 -0.5571
   94MOL0     C12619   0.113   1.135   2.386 -0.0131  0.5698 -0.1028
   94MOL0     C12620   0.781   1.250   2.545 -0.7293 -0.1768  0.5326
   94MOL0     C12621   0.891   1.302   2.472  1.2859  1.2567  0.3814
   94MOL0     C12622   0.915   1.230   2.346 -0.3954 -0.0980  0.3495
   94MOL0     H12623   1.327   1.505   2.566 -0.8618  1.4215  1.9424
   94MOL0     H12624   1.553   1.591   2.538  0.5281  0.5649  0.9073
   94MOL0     H12625   1.584   1.804   2.152 -4.2226 -0.9834  3.2878
   94MOL0     H12626   1.594   1.954   2.244 -1.0393  0.3488  1.5082
   94MOL0     H12627   1.796   1.868   2.073 -1.1296  2.4526  0.6550
   94MOL0     H12628   1.834   1.772   2.216 -1.8603 -0.6688  0.3006
   94MOL0     H12629   1.945   1.956   2.291  2.1885  4.0141  0.5171
   94MOL0     H12630   1.789   2.043   2.302 -1.7169 -0.6843 -1.0834
   94MOL0     H12631   1.974   2.031   2.046 -1.5960 -1.9094  0.1182
   94MOL0     H12632   1.831   2.133   2.072  0.4453 -0.0580 -1.3168
   94MOL0     H12633   1.937   2.262   2.273  3.3273 -0.8523  2.2632
   94MOL0     H12634   2.072   2.149   2.261  0.3878 -1.3185 -0.1125
   94MOL0     H12635   2.120   2.259   2.048  2.1591  3.5498  1.7982
   94MOL0     H12636   1.972   2.343   2.036  0.0559  1.1300  0.9657
   94MOL0     H12637   2.061   2.460   2.261 -1.4259  3.6885 -1.7715
   94MOL0     H12638   2.124   2.503   2.097  2.3249  1.2127  2.0033
   94MOL0     H12639   2.274   2.292   2.240  0.7810 -1.1340 -2.1116
   94MOL0     H12640   2.318   2.362   2.103  3.0517 -2.4485  1.1520
   94MOL0     H12641   2.253   2.498   2.480  0.8581  2.4175  1.9667
   94MOL0     H12642   2.549   2.741   2.568  0.2745 -0.1598  2.1568
   94MOL0     H12643   2.390   2.806   2.549 -0.7408  0.0329  1.3845
   94MOL0     H12644   2.418   2.703   2.772 -0.6046 -1.5832  0.9732
   94MOL0     H12645   2.311   2.607   2.677  0.3605  1.6311 -0.2223
   94MOL0     H12646   2.605   2.544   2.749  1.4312  2.1779 -1.7589
   94MOL0     H12647   2.553   2.495   2.595 -1.1966 -4.3031  1.2573
   94MOL0     H12648   2.400   2.424   2.847 -0.6782  0.0789 -0.3380
   94MOL0     H12649   2.505   2.313   2.750 -1.3934 -1.2882 -3.0374
   94MOL0     H12650   2.368   2.182   2.881 -0.2275 -1.7349  1.1931
   94MOL0     H12651   2.247   1.981   2.925  1.0672  0.2820 -0.0503
   94MOL0     H12652   1.761   1.829   2.902  2.7922  0.0526 -0.3703
   94MOL0     H12653   1.576   1.657   2.930  1.0118  3.2155  0.0679
   94MOL0     H12654   1.504   1.383   2.999  1.6066 -0.1933 -0.5877
   94MOL0     H12655   1.448   1.510   2.875 -2.2910 -0.9800 -0.7580
   94MOL0     H12656   1.363   1.320   2.754  0.3433 -2.0163  0.2831
   94MOL0     H12657   1.423   1.205   2.866 -0.3996  0.3412  1.0772
   94MOL0     H12658   1.206   1.426   2.913  1.1086 -0.0526 -1.5891
   94MOL0     H12659   1.159   1.264   2.861  0.5789  0.0268 -0.6768
   94MOL0     H12660   1.286   1.337   3.129  0.4791 -0.9847  0.9047
   94MOL0     H12661   1.244   1.183   3.080  2.0338  0.6190  3.4586
   94MOL0     H12662   1.085   1.257   3.240  1.7555 -1.0958 -0.5803
   94MOL0     H12663   1.006   1.225   3.096  0.4578  0.4734 -1.7515
   94MOL0     H12664   1.108   1.512   3.163 -0.7144 -0.5867  0.8431
   94MOL0     H12665   0.977   1.470   3.048  0.4204 -0.1922 -0.8943
   94MOL0     H12666   1.004   1.507   3.337  1.1162 -2.8194 -0.4852
   94MOL0     H12667   0.907   1.376   3.297 -1.6822 -0.0687 -2.4583
   94MOL0     H12668   0.782   1.571   3.333  2.7807 -2.8848  2.3830
   94MOL0     H12669   0.828   1.642   3.176 -0.8771 -0.1713 -0.8881
   94MOL0     H12670   1.805   1.411   2.659 -1.9078 -2.7156  2.9264
   94MOL0     H12671   1.972   1.598   2.626  0.2582  2.0750 -1.4776
   94MOL0     H12672   2.047   2.009   2.547 -2.2116  3.6151  0.0246
   94MOL0     H12673   2.153   2.245   2.525 -2.8505  2.0325  0.9402
   94MOL0     H12674   1.388   1.879   2.253  0.1307 -1.1244 -0.2696
   94MOL0     H12675   1.164   1.813   2.309 -0.2132  0.8447  2.8683
   94MOL0     H12676   0.980   1.545   2.692 -0.5122  0.4292 -1.7771
   94MOL0     H12677   0.826   1.418   2.839  1.0759  2.7104 -0.9411
   94MOL0     H12678   0.603   1.432   2.813 -0.0768  0.1075 -4.3962
   94MOL0     H12679   0.487   1.309   2.870 -0.8282  0.2331 -0.9208
   94MOL0     H12680   0.523   1.402   2.586  2.1417 -2.0293  0.8493
   94MOL0     H12681   0.398   1.453   2.698 -1.1732 -1.9801  0.7363
   94MOL0     H12682   0.344   1.208   2.722  1.1466 -2.5050 -0.4795
   94MOL0     H12683   0.409   1.175   2.565 -3.1046 -1.4421  0.7334
   94MOL0     H12684   0.179   1.372   2.600  2.8073  2.8943  0.4352
   94MOL0     H12685   0.290   1.393   2.472  1.6630 -0.2079  0.8159
   94MOL0     H12686   0.075   1.070   2.311  3.1395 -2.3757  0.5828
   94MOL0     H12687   0.699   1.186   2.513  0.4611 -1.5059  0.0209
   94MOL0     H12688   0.826   1.228   2.283  1.1585 -0.2590 -1.9557
   94MOL0     H12689   1.000   1.258   2.283 -0.4001  0.6133  0.6461
   94MOL0     H12690   0.926   1.123   2.365  0.7491  0.1426  1.1339
   95MOL0     O12691   3.920  10.544   1.411  0.3382 -0.4333 -0.6155
   95MOL0     C12692   3.884  10.517   1.531  0.3417  0.4723 -0.0411
   95MOL0     O12693   3.859  10.607   1.633  0.6576 -0.3854  1.0364
   95MOL0     C12694   3.915  10.730   1.602 -0.2830  0.3500 -0.7518
   95MOL0     C12695   3.833  10.834   1.552  0.3488 -0.3691  0.1295
   95MOL0     C12696   3.904  10.947   1.515  0.0580 -0.6150 -0.2428
   95MOL0     C12697   4.037  10.969   1.525 -0.3579 -0.0368 -0.6301
   95MOL0     O12698   4.074  11.102   1.496 -0.9803 -0.1495 -0.2234
   95MOL0     C12699   4.210  11.119   1.436 -0.7602  1.2488  0.1681
   95MOL0     C12700   4.246  11.041   1.308 -0.9364 -0.2223  0.2236
   95MOL0     C12701   4.350  11.108   1.219 -0.3009  0.4841 -0.9618
   95MOL0     C12702   4.385  11.012   1.106 -0.4257 -0.4997  0.3621
   95MOL0     C12703   4.520  11.049   1.040  0.6677  0.5896  0.0498
   95MOL0     C12704   4.557  10.961   0.918  0.2872 -0.4555 -0.5083
   95MOL0     C12705   4.702  10.918   0.909 -1.1792  0.1631 -0.1649
   95MOL0     C12706   4.785  11.048   0.868 -0.0619  0.0638  0.3606
   95MOL0     N12707   4.920  11.007   0.821  0.5649  0.4408  0.7634
   95MOL0     C12708   5.039  11.028   0.883 -0.4219  0.1839  0.2192
   95MOL0     C12709   5.122  10.982   0.790 -0.4406  1.0655 -0.1250
   95MOL0     C12710   5.276  10.989   0.790  0.4579  0.7445 -0.6804
   95MOL0     C12711   5.329  11.097   0.705  0.0585  0.0548 -0.1383
   95MOL0     C12712   5.360  11.219   0.793  0.0668  0.4012 -0.0624
   95MOL0     C12713   5.239  11.283   0.873 -0.2186  0.3034  0.5878
   95MOL0     O12714   5.130  11.298   0.787  0.4193  0.4212 -0.0555
   95MOL0     C12715   5.003  11.333   0.844 -0.2124 -0.9291 -0.3675
   95MOL0     C12716   4.994  11.366   0.977 -0.2039  0.3145  0.2003
   95MOL0     C12717   4.863  11.406   1.033 -1.4702  0.1958 -0.7921
   95MOL0     C12718   4.747  11.411   0.949 -0.1905 -0.5402  0.1986
   95MOL0     C12719   4.622  11.453   1.005 -1.3123 -0.2066 -1.2846
   95MOL0     O12720   4.631  11.504   1.128  0.0119  0.3309  0.2553
   95MOL0     C12721   4.512  11.559   1.184 -0.6930 -0.8037 -0.7606
   95MOL0     C12722   4.452  11.666   1.114 -0.0732  0.4333 -1.5019
   95MOL0     C12723   4.344  11.738   1.165  0.0592  0.3135 -0.2300
   95MOL0     C12724   4.288  11.690   1.290 -0.4052  0.0706 -0.3751
   95MOL0     O12725   4.176  11.742   1.342 -0.9928 -0.0406  0.2080
   95MOL0     C12726   4.118  11.870   1.288  0.3088  0.1052 -0.3381
   95MOL0     C12727   4.028  11.929   1.395  0.2877  0.6185 -0.2887
   95MOL0     C12728   3.902  11.841   1.408  0.5801  0.3011  0.2217
   95MOL0     C12729   3.773  11.907   1.359 -0.2506 -0.1860  0.7292
   95MOL0     C12730   3.772  11.952   1.201 -0.3437  0.1225  0.4982
   95MOL0     C12731   3.641  12.025   1.166 -0.3380  0.0899 -0.1330
   95MOL0     C12732   3.620  12.159   1.246 -0.6460  0.0755  0.3377
   95MOL0     C12733   3.516  12.246   1.193  0.3794  0.3003 -0.1825
   95MOL0    Cl12734   3.358  12.164   1.217 -0.5368  0.2078  0.1864
   95MOL0     C12735   4.348  11.585   1.362 -0.3833  0.8850  0.5649
   95MOL0     C12736   4.453  11.513   1.302 -0.3909  1.0762  0.5885
   95MOL0     O12737   4.523  11.423   0.951 -0.6079  0.9167 -0.1468
   95MOL0     C12738   4.761  11.364   0.820 -0.1498  1.0230  0.3777
   95MOL0     C12739   4.885  11.332   0.769 -1.0738 -1.1649 -0.0614
   95MOL0     N12740   5.056  10.915   0.699 -0.4471  0.3057  0.3897
   95MOL0     N12741   4.933  10.924   0.712  0.2953 -0.3283  0.4661
   95MOL0     C12742   4.115  10.865   1.589 -1.1677 -0.1486 -0.9903
   95MOL0     C12743   4.054  10.744   1.632 -0.5648  0.2365  0.0158
   95MOL0     C12744   3.821  10.385   1.557  0.2022  0.4164  0.2827
   95MOL0     C12745   3.738  10.333   1.451  1.7062  0.0857 -0.4485
   95MOL0     C12746   3.698  10.206   1.467  0.6627  0.2703  0.9071
   95MOL0     C12747   3.722  10.133   1.584  0.3871 -0.2750  0.5388
   95MOL0     O12748   3.661  10.006   1.580 -0.0750 -0.8229 -0.0278
   95MOL0     C12749   3.660   9.950   1.705  0.5155 -0.0461  0.0160
   95MOL0     C12750   3.596   9.812   1.700 -0.3065 -0.1933 -0.0425
   95MOL0     C12751   3.467   9.804   1.607 -0.1982 -0.0371  0.4384
   95MOL0     C12752   3.361   9.905   1.647  0.2461  0.0090 -0.3605
   95MOL0     C12753   3.330   9.886   1.791  0.2655  0.2906  0.1351
   95MOL0     C12754   3.278   9.866   1.896 -0.0746  0.2292  0.3111
   95MOL0     C12755   3.816  10.174   1.669  0.0629 -0.4237 -0.5663
   95MOL0     C12756   3.868  10.302   1.658 -0.3935 -0.9262  0.9039
   95MOL0     C12757   3.965  10.343   1.765 -0.9103  0.0696  0.1831
   95MOL0     H12758   3.728  10.809   1.535  1.3756 -3.8134 -2.3433
   95MOL0     H12759   3.849  11.029   1.471  0.5835  0.4350  1.0023
   95MOL0     H12760   4.229  11.224   1.416  3.6442  0.7480  0.7060
   95MOL0     H12761   4.285  11.082   1.507  1.8876 -1.7609 -3.7551
   95MOL0     H12762   4.154  11.026   1.250 -2.1147  2.0658  1.3794
   95MOL0     H12763   4.276  10.945   1.352 -2.3955  0.8841  4.1211
   95MOL0     H12764   4.436  11.123   1.286  0.1101 -1.2904 -1.0322
   95MOL0     H12765   4.327  11.209   1.185  3.0276  0.8218 -2.6814
   95MOL0     H12766   4.396  10.910   1.143  0.4974 -1.2017 -1.7052
   95MOL0     H12767   4.301  11.016   1.036  0.5683 -0.8340 -0.8899
   95MOL0     H12768   4.508  11.155   1.019 -0.1809  0.2715 -1.1678
   95MOL0     H12769   4.601  11.036   1.113  0.9345 -0.1721 -0.3730
   95MOL0     H12770   4.499  10.869   0.934 -1.8391  0.8002 -0.5498
   95MOL0     H12771   4.522  11.002   0.823 -0.9592 -1.7066 -0.6317
   95MOL0     H12772   4.708  10.852   0.823  4.4711  1.1248 -0.8415
   95MOL0     H12773   4.737  10.864   0.998 -1.5825  1.2958  0.7109
   95MOL0     H12774   4.735  11.117   0.800 -0.9703  1.8247  2.7028
   95MOL0     H12775   4.808  11.095   0.964 -1.7846 -0.1369  0.8892
   95MOL0     H12776   5.058  11.075   0.979 -1.5153 -0.0960  0.5929
   95MOL0     H12777   5.322  11.006   0.888 -3.0668  1.9729  0.9464
   95MOL0     H12778   5.307  10.891   0.752 -0.7761  0.7155 -1.6564
   95MOL0     H12779   5.423  11.065   0.661 -0.3957 -0.4009 -0.8003
   95MOL0     H12780   5.261  11.129   0.626 -2.5188  0.0412  1.9060
   95MOL0     H12781   5.396  11.299   0.728  4.0384 -1.7142 -0.7837
   95MOL0     H12782   5.437  11.206   0.870 -0.0175  0.7886  0.0886
   95MOL0     H12783   5.275  11.378   0.912  0.1965 -0.0356  1.0350
   95MOL0     H12784   5.225  11.215   0.958  1.6977 -0.9052 -0.0089
   95MOL0     H12785   5.072  11.356   1.051 -0.6836  0.9261  0.8048
   95MOL0     H12786   4.861  11.428   1.139 -2.8379 -0.4892 -0.6513
   95MOL0     H12787   4.501  11.712   1.028  0.7281 -1.0147 -1.8635
   95MOL0     H12788   4.291  11.811   1.105  0.2527  2.7868  2.3841
   95MOL0     H12789   4.204  11.930   1.256  2.3563 -3.1443 -1.3838
   95MOL0     H12790   4.064  11.846   1.196  1.0688 -3.0054 -0.0643
   95MOL0     H12791   4.086  11.935   1.488 -0.2995  1.5006  0.0325
   95MOL0     H12792   3.992  12.024   1.355  1.4050  0.2838 -2.2533
   95MOL0     H12793   3.912  11.746   1.355  2.3437  0.9380 -0.6832
   95MOL0     H12794   3.888  11.814   1.513 -0.5611 -1.0535 -0.2468
   95MOL0     H12795   3.762  11.993   1.426  0.2999 -0.7939  1.6291
   95MOL0     H12796   3.690  11.843   1.390 -0.8860  1.2054  2.0525
   95MOL0     H12797   3.771  11.860   1.141 -3.6222 -0.9933  2.0401
   95MOL0     H12798   3.857  12.014   1.170 -1.6600  1.5513 -0.4123
   95MOL0     H12799   3.655  12.047   1.060  2.0223 -0.9995 -0.0904
   95MOL0     H12800   3.551  11.965   1.184 -1.9418  2.3698 -0.0860
   95MOL0     H12801   3.715  12.212   1.228  0.1501 -1.6918 -0.9300
   95MOL0     H12802   3.595  12.137   1.350 -3.3006  2.2963  0.2571
   95MOL0     H12803   3.512  12.333   1.259 -0.5693  0.1810 -0.0650
   95MOL0     H12804   3.528  12.271   1.087  2.1255  2.8574  0.5222
   95MOL0     H12805   4.306  11.559   1.458 -4.2564  2.1260 -0.6085
   95MOL0     H12806   4.509  11.431   1.346 -2.0972  0.7902  2.4178
   95MOL0     H12807   4.671  11.371   0.759  0.5197 -0.2588 -0.8269
   95MOL0     H12808   4.883  11.301   0.665 -0.5284 -2.5132  0.3115
   95MOL0     H12809   4.223  10.876   1.581 -1.3115  2.9577 -0.1759
   95MOL0     H12810   4.131  10.682   1.677 -0.0587  1.7650  1.3373
   95MOL0     H12811   3.711  10.386   1.360  0.7616 -3.4302 -2.3910
   95MOL0     H12812   3.632  10.172   1.388 -0.1555  2.7609  0.4398
   95MOL0     H12813   3.592  10.012   1.763 -0.2962  3.2540 -3.9623
   95MOL0     H12814   3.757   9.938   1.754 -0.3490 -0.5398  1.6570
   95MOL0     H12815   3.564   9.787   1.801 -1.3517  0.0211 -0.3147
   95MOL0     H12816   3.665   9.732   1.669 -1.2457 -1.3201  0.6930
   95MOL0     H12817   3.423   9.704   1.602 -4.1472  1.5062  0.5642
   95MOL0     H12818   3.509   9.833   1.510  5.9527  2.0648  3.2167
   95MOL0     H12819   3.397  10.007   1.631  3.5375 -1.4653 -4.0799
   95MOL0     H12820   3.271   9.881   1.590  0.4886 -2.5718  0.2114
   95MOL0     H12821   3.227   9.847   1.988 -2.3847  2.4074 -0.4149
   95MOL0     H12822   3.856  10.111   1.748 -0.8632 -2.0021 -1.3301
   95MOL0     H12823   4.051  10.277   1.778  1.9290  2.9995 -2.0054
   95MOL0     H12824   4.012  10.437   1.735  0.8037 -0.9240 -0.3843
   95MOL0     H12825   3.920  10.359   1.863  2.1582  0.9814  1.5743
   96MOL0     O12826   2.940   8.960   7.264 -0.0020  0.0096 -0.0779
   96MOL0     C12827   2.823   8.928   7.243 -0.3908  0.6617  0.0587
   96MOL0     O12828   2.741   9.002   7.153  0.1551 -0.4654  0.2577
   96MOL0     C12829   2.795   9.114   7.097 -0.1030  0.3336 -0.0460
   96MOL0     C12830   2.907   9.093   7.015 -1.3584 -0.3569 -0.4864
   96MOL0     C12831   2.973   9.193   6.941 -0.4419  0.5529 -0.1178
   96MOL0     C12832   2.912   9.317   6.937  0.4101  0.5463 -0.0771
   96MOL0     O12833   2.947   9.413   6.841 -0.4390  0.2856 -0.6339
   96MOL0     C12834   2.934   9.365   6.708  0.4842  0.1672 -0.3781
   96MOL0     C12835   2.870   9.476   6.621 -0.7243  0.2243  0.7450
   96MOL0     C12836   2.954   9.615   6.630  0.2134  1.2016 -0.6759
   96MOL0     C12837   3.017   9.633   6.486  0.1833  0.8877  0.4379
   96MOL0     C12838   3.094   9.760   6.477 -0.1516  0.3425  0.0739
   96MOL0     C12839   3.152   9.778   6.337 -0.7582 -0.0166  0.2555
   96MOL0     C12840   3.215   9.919   6.308  0.4546  0.2834  1.6348
   96MOL0     C12841   3.332   9.948   6.396  0.7381  0.3368  0.1349
   96MOL0     N12842   3.400  10.074   6.371 -0.3440 -0.1390  0.3302
   96MOL0     C12843   3.518  10.124   6.429  0.4214 -0.4444 -0.8112
   96MOL0     C12844   3.575  10.210   6.352 -0.5739 -0.0312  0.2773
   96MOL0     C12845   3.706  10.286   6.367  0.1747 -0.4450  0.3270
   96MOL0     C12846   3.705  10.408   6.461 -0.3549 -0.3817  0.0722
   96MOL0     C12847   3.833  10.493   6.443 -0.2204  0.0407 -0.0347
   96MOL0     C12848   3.826  10.641   6.487  0.2885 -0.3350 -1.2298
   96MOL0     O12849   3.794  10.657   6.630  1.0956 -0.2522  0.3341
   96MOL0     C12850   3.816  10.771   6.697  0.9920 -0.5284  0.5514
   96MOL0     C12851   3.803  10.897   6.639 -0.2517  0.1008 -0.0317
   96MOL0     C12852   3.836  11.009   6.716 -1.9087  1.6749 -0.0837
   96MOL0     C12853   3.860  10.992   6.856  0.1658 -0.6678  0.2824
   96MOL0     C12854   3.860  11.107   6.943  0.4808 -0.0321 -0.7381
   96MOL0     O12855   3.813  11.230   6.899  0.3644  0.5151 -0.7596
   96MOL0     C12856   3.789  11.311   7.001 -0.3174 -0.2947  0.1646
   96MOL0     C12857   3.877  11.418   7.043 -0.1395  0.5270  0.5682
   96MOL0     C12858   3.844  11.496   7.151  0.1212  0.0671 -0.5816
   96MOL0     C12859   3.716  11.482   7.222  0.8850 -0.0313  0.0719
   96MOL0     O12860   3.695  11.561   7.327 -0.5089 -0.5906  0.8885
   96MOL0     C12861   3.598  11.663   7.318 -0.5705  1.3623  0.2094
   96MOL0     C12862   3.596  11.756   7.431  0.8460 -0.4483 -0.7997
   96MOL0     C12863   3.719  11.846   7.451  0.7038  0.2790  0.1743
   96MOL0     C12864   3.788  11.901   7.315  0.3900 -0.2395 -0.6401
   96MOL0     C12865   3.902  11.997   7.341 -0.0612 -1.0477  0.2862
   96MOL0     C12866   4.012  11.914   7.419 -0.8705 -0.0642  0.9333
   96MOL0     C12867   4.147  12.000   7.414 -0.1248 -0.3574  0.7684
   96MOL0     C12868   4.158  12.110   7.522 -0.6581  0.2349 -1.0015
   96MOL0    Cl12869   4.188  12.026   7.682 -0.0223 -0.1255  0.1032
   96MOL0     C12870   3.622  11.390   7.184 -0.2677 -0.0694  0.1348
   96MOL0     C12871   3.666  11.304   7.070 -0.0757 -0.0854  1.1960
   96MOL0     O12872   3.888  11.082   7.059  0.7894  0.2324 -0.4233
   96MOL0     C12873   3.874  10.860   6.910 -0.4248  0.6937 -0.0358
   96MOL0     C12874   3.862  10.750   6.825  0.4722  0.4339 -0.8237
   96MOL0     N12875   3.490  10.222   6.242  0.1925  0.3402 -0.7562
   96MOL0     N12876   3.390  10.147   6.250  0.9973 -0.1072  0.0761
   96MOL0     C12877   2.798   9.345   7.015  0.9588 -0.0562  0.8522
   96MOL0     C12878   2.743   9.245   7.104  1.3653 -1.7268  0.1552
   96MOL0     C12879   2.768   8.814   7.313 -0.3718  0.7776 -0.0593
   96MOL0     C12880   2.633   8.787   7.312  0.2761 -0.9895 -0.3750
   96MOL0     C12881   2.574   8.678   7.384 -0.0880  0.5034  0.7813
   96MOL0     C12882   2.648   8.572   7.430 -1.1466  0.9240 -0.9360
   96MOL0     O12883   2.579   8.464   7.477 -0.3595 -0.4604  0.4897
   96MOL0     C12884   2.612   8.347   7.391  0.2494 -0.2714  0.0207
   96MOL0     C12885   2.525   8.227   7.425  0.5884 -0.1131  0.6766
   96MOL0     C12886   2.551   8.104   7.337  0.4304  0.3450  1.4877
   96MOL0     C12887   2.461   7.981   7.378 -0.1732 -0.3238 -0.9367
   96MOL0     C12888   2.537   7.909   7.491  0.2847 -0.6536 -0.6679
   96MOL0     C12889   2.605   7.853   7.574  0.5343 -0.1058 -0.2658
   96MOL0     C12890   2.785   8.596   7.425  0.8203 -0.4747  0.4271
   96MOL0     C12891   2.855   8.701   7.373 -0.3354 -0.7937  0.0164
   96MOL0     C12892   2.997   8.714   7.419  0.6687 -0.9451  0.3232
   96MOL0     H12893   2.951   8.995   7.030  1.5657  0.7827 -0.8567
   96MOL0     H12894   3.058   9.168   6.877  0.2452  3.3389 -0.4403
   96MOL0     H12895   3.037   9.346   6.675  0.8151 -1.1841  1.3183
   96MOL0     H12896   2.881   9.270   6.698 -0.9520  0.9661 -0.6465
   96MOL0     H12897   2.767   9.498   6.652 -0.1555  2.4442  1.2352
   96MOL0     H12898   2.862   9.442   6.518 -3.7396  0.6980  0.7213
   96MOL0     H12899   3.031   9.623   6.708 -1.7130  0.3253  1.4410
   96MOL0     H12900   2.877   9.690   6.650  0.3226  1.8207 -2.4102
   96MOL0     H12901   3.079   9.543   6.474 -1.0937  0.0531 -0.0861
   96MOL0     H12902   2.944   9.628   6.405  1.9986  2.3260 -1.4024
   96MOL0     H12903   3.026   9.846   6.478 -1.5431 -0.6743 -1.5135
   96MOL0     H12904   3.170   9.765   6.555  2.4390  0.7597 -2.3067
   96MOL0     H12905   3.223   9.699   6.311 -3.1693 -2.4284  0.5824
   96MOL0     H12906   3.068   9.764   6.270 -0.7887 -1.8074  0.6350
   96MOL0     H12907   3.143  10.001   6.317  0.7552  0.8760 -0.7191
   96MOL0     H12908   3.246   9.917   6.203  3.0677 -2.0979  2.3166
   96MOL0     H12909   3.295   9.955   6.499 -1.4606  2.7134 -0.7042
   96MOL0     H12910   3.410   9.874   6.378 -0.0598  0.2039 -3.5224
   96MOL0     H12911   3.541  10.092   6.531  0.7507 -0.5040 -0.9041
   96MOL0     H12912   3.786  10.215   6.392  1.8003  0.8238 -1.0102
   96MOL0     H12913   3.736  10.330   6.271 -0.1354  1.3626  1.0315
   96MOL0     H12914   3.615  10.467   6.442 -0.3951 -1.1778 -2.5977
   96MOL0     H12915   3.704  10.358   6.558 -1.4216  2.5826  1.7128
   96MOL0     H12916   3.865  10.496   6.338 -0.8849 -1.8857 -0.3385
   96MOL0     H12917   3.912  10.435   6.491 -0.4742  0.3528  0.7813
   96MOL0     H12918   3.744  10.679   6.426 -2.5629 -3.2526  0.4565
   96MOL0     H12919   3.917  10.701   6.472  0.8292 -1.2073 -1.4889
   96MOL0     H12920   3.769  10.888   6.536  0.3254 -2.1649 -0.0893
   96MOL0     H12921   3.803  11.105   6.679 -2.8734  0.9617 -1.1534
   96MOL0     H12922   3.967  11.432   6.983  0.9881  2.3172  2.5238
   96MOL0     H12923   3.919  11.556   7.201 -1.8544  0.5433  2.0672
   96MOL0     H12924   3.601  11.717   7.224 -1.4139 -1.6849 -1.7106
   96MOL0     H12925   3.499  11.616   7.311 -0.9972  2.2712  0.0599
   96MOL0     H12926   3.504  11.816   7.424  1.2089  0.1349 -0.6060
   96MOL0     H12927   3.592  11.699   7.524  0.9277 -0.7917 -1.0043
   96MOL0     H12928   3.691  11.933   7.511 -0.1264 -0.2772  0.6090
   96MOL0     H12929   3.796  11.789   7.503  1.6186  0.7595 -0.6177
   96MOL0     H12930   3.726  11.955   7.244 -0.2299  1.4412  1.0831
   96MOL0     H12931   3.827  11.811   7.265  0.3935 -1.7089  1.7972
   96MOL0     H12932   3.859  12.082   7.395 -1.6582 -0.3793 -1.8655
   96MOL0     H12933   3.952  12.028   7.249 -0.8311  2.7620  0.9724
   96MOL0     H12934   3.987  11.885   7.522  0.0729 -5.9529 -0.1478
   96MOL0     H12935   4.038  11.821   7.368  0.0545  0.7469 -0.1271
   96MOL0     H12936   4.153  12.058   7.322  4.9958 -0.3767  0.8381
   96MOL0     H12937   4.231  11.931   7.408  0.5108  0.5071 -0.5157
   96MOL0     H12938   4.243  12.179   7.513  0.8555 -1.2692  0.8368
   96MOL0     H12939   4.065  12.166   7.510 -2.2322 -2.1138 -0.4714
   96MOL0     H12940   3.525  11.382   7.232 -0.1570 -0.0904  0.3578
   96MOL0     H12941   3.596  11.229   7.033  0.5609 -0.8189  1.4511
   96MOL0     H12942   3.902  10.833   7.011  0.3741 -1.1294 -0.7108
   96MOL0     H12943   3.861  10.651   6.870 -1.9565  0.7002 -0.1373
   96MOL0     H12944   2.755   9.444   7.006  2.2622  0.4830  0.2401
   96MOL0     H12945   2.656   9.264   7.167  1.1161  1.0386 -0.8635
   96MOL0     H12946   2.555   8.858   7.286 -1.0961 -2.4442 -0.4566
   96MOL0     H12947   2.468   8.664   7.403 -0.4521 -2.1129 -2.3217
   96MOL0     H12948   2.717   8.322   7.405  0.8301  1.4553 -0.9684
   96MOL0     H12949   2.602   8.373   7.286  2.2504 -4.3738 -1.3982
   96MOL0     H12950   2.419   8.253   7.416  0.9775  0.7894 -2.7280
   96MOL0     H12951   2.538   8.188   7.526 -0.1716 -1.7764  0.1638
   96MOL0     H12952   2.660   8.099   7.342  0.6398  2.9168  0.8547
   96MOL0     H12953   2.510   8.122   7.237 -0.1741 -0.5272  1.5688
   96MOL0     H12954   2.368   8.025   7.415  2.5526  4.5639  0.9813
   96MOL0     H12955   2.441   7.919   7.289  3.8426 -0.8384 -1.6731
   96MOL0     H12956   2.650   7.798   7.654  1.0308 -0.6771 -0.9239
   96MOL0     H12957   2.827   8.517   7.487  3.8569  1.0295  0.4883
   96MOL0     H12958   3.067   8.722   7.335  0.9383 -1.5679  0.4869
   96MOL0     H12959   3.008   8.782   7.503  0.0265 -1.2563  0.6604
   96MOL0     H12960   3.014   8.617   7.466  0.3956 -0.6324  1.0699
   97MOL0     O12961   4.001   8.843   4.623  0.3260 -0.0704 -0.0965
   97MOL0     C12962   4.101   8.909   4.629  0.3814 -0.0991 -0.8268
   97MOL0     O12963   4.132   9.008   4.732  0.2335  0.5054 -0.6084
   97MOL0     C12964   4.045   9.067   4.809  0.3176 -0.1738 -0.6586
   97MOL0     C12965   4.086   9.143   4.914  0.7380 -0.3461  1.2713
   97MOL0     C12966   3.989   9.218   4.989 -0.7891 -0.2448 -0.2255
   97MOL0     C12967   3.856   9.224   4.948 -0.1293 -0.4973 -0.7748
   97MOL0     O12968   3.775   9.294   5.029  0.0465 -0.4150 -0.1105
   97MOL0     C12969   3.679   9.382   4.960  0.4416  0.0241 -0.5402
   97MOL0     C12970   3.668   9.521   5.026  0.7050  0.6324  0.3066
   97MOL0     C12971   3.622   9.510   5.176  0.1643 -0.3316 -0.0281
   97MOL0     C12972   3.472   9.495   5.179 -0.1634 -0.5287 -0.2672
   97MOL0     C12973   3.428   9.455   5.316 -0.3087 -0.1837 -1.6220
   97MOL0     C12974   3.447   9.564   5.426 -0.0060 -0.4226 -0.5497
   97MOL0     C12975   3.405   9.490   5.558 -0.5987  0.4935  0.4234
   97MOL0     C12976   3.477   9.550   5.682 -0.7751 -0.0498 -1.5247
   97MOL0     N12977   3.619   9.538   5.682  0.3414 -0.8718 -0.8892
   97MOL0     C12978   3.700   9.634   5.639  0.2717 -0.4160 -0.3918
   97MOL0     C12979   3.816   9.566   5.636  1.1121  0.3968  0.1537
   97MOL0     C12980   3.944   9.632   5.596 -0.6382  0.3681 -0.5919
   97MOL0     C12981   4.001   9.573   5.463  0.6757 -0.5593  0.0388
   97MOL0     C12982   4.156   9.610   5.468  0.5596 -0.1206  0.1047
   97MOL0     C12983   4.225   9.488   5.423 -0.2143  0.1297 -0.1389
   97MOL0     O12984   4.354   9.539   5.416  0.3648 -1.0525 -0.0773
   97MOL0     C12985   4.454   9.455   5.379  0.0645 -0.1806 -0.9967
   97MOL0     C12986   4.586   9.507   5.403 -0.5598  0.2046  0.3126
   97MOL0     C12987   4.693   9.424   5.376  0.7294 -0.8648  0.8518
   97MOL0     C12988   4.675   9.303   5.312 -0.8726  0.6562  0.0140
   97MOL0     C12989   4.787   9.226   5.247  1.1366 -0.1972  0.5322
   97MOL0     O12990   4.907   9.291   5.247 -0.2523 -0.3379  0.6358
   97MOL0     C12991   5.009   9.210   5.199  0.3651 -0.7075 -0.0084
   97MOL0     C12992   5.082   9.118   5.280 -0.1403 -0.0009 -0.0411
   97MOL0     C12993   5.168   9.019   5.230 -0.0617 -0.8476  0.7422
   97MOL0     C12994   5.187   9.011   5.089  0.7575  0.1125  0.0615
   97MOL0     O12995   5.254   8.907   5.028  0.7993  1.2600  0.6037
   97MOL0     C12996   5.387   8.894   5.074 -0.0643 -0.6185  0.8426
   97MOL0     C12997   5.489   8.935   4.960  0.3727 -0.6229 -0.2689
   97MOL0     C12998   5.475   9.074   4.919  0.5674 -1.0451 -0.1289
   97MOL0     C12999   5.584   9.121   4.827  0.2851  0.2394  0.0444
   97MOL0     C13000   5.560   9.268   4.802  1.1841 -0.9061  0.5350
   97MOL0     C13001   5.497   9.294   4.668  0.6794  0.4351  0.3892
   97MOL0     C13002   5.341   9.301   4.672  0.0339  0.1790 -0.4471
   97MOL0     C13003   5.296   9.336   4.533  0.1251 -0.3426  0.6420
   97MOL0    Cl13004   5.148   9.441   4.540  0.0750  0.1784  0.2096
   97MOL0     C13005   5.128   9.104   5.013 -0.1703  0.7676 -0.0083
   97MOL0     C13006   5.038   9.202   5.059 -0.1928 -0.5667  0.0429
   97MOL0     O13007   4.762   9.111   5.203 -0.5471 -0.1851 -0.5205
   97MOL0     C13008   4.545   9.257   5.292 -0.9193  0.1046 -0.1684
   97MOL0     C13009   4.436   9.333   5.316 -0.3643  0.6255  0.3167
   97MOL0     N13010   3.793   9.434   5.663 -0.4298  1.1453 -0.5142
   97MOL0     N13011   3.675   9.417   5.701 -1.3350  0.4156  0.8948
   97MOL0     C13012   3.818   9.156   4.837  0.5148 -0.1028  1.0472
   97MOL0     C13013   3.910   9.082   4.771 -0.1668 -1.1539 -0.2893
   97MOL0     C13014   4.185   8.904   4.502  0.3261  0.0395 -0.0471
   97MOL0     C13015   4.308   8.985   4.513  0.1066  1.0055 -0.4119
   97MOL0     C13016   4.398   8.978   4.409 -0.4219 -0.3443  0.5901
   97MOL0     C13017   4.365   8.901   4.294 -0.1929 -0.2606 -0.9498
   97MOL0     O13018   4.451   8.894   4.187 -0.5677  0.5370  0.2668
   97MOL0     C13019   4.576   8.953   4.209 -0.2333 -0.3009 -1.1185
   97MOL0     C13020   4.659   8.930   4.096 -0.8684  0.4791 -0.4123
   97MOL0     C13021   4.603   8.992   3.961  0.3579  0.3485  0.4768
   97MOL0     C13022   4.710   8.980   3.858 -0.2715 -0.0211 -0.3665
   97MOL0     C13023   4.663   9.022   3.724  0.2127  0.1082 -0.6599
   97MOL0     C13024   4.629   9.056   3.613  0.4672 -1.7810 -0.9664
   97MOL0     C13025   4.248   8.831   4.281  1.1528  0.3582 -0.3640
   97MOL0     C13026   4.148   8.830   4.381 -0.3299  0.7412 -0.2467
   97MOL0     C13027   4.027   8.732   4.342 -1.3945 -0.2531 -0.4395
   97MOL0     H13028   4.190   9.149   4.944  1.0915  1.1914 -0.1333
   97MOL0     H13029   4.034   9.266   5.075  0.1064 -2.2553  0.5105
   97MOL0     H13030   3.707   9.398   4.855  2.4427 -0.5524 -0.1379
   97MOL0     H13031   3.589   9.321   4.972  0.1619  0.9041  3.0216
   97MOL0     H13032   3.589   9.574   4.972  1.7600  3.5889  1.4463
   97MOL0     H13033   3.764   9.574   5.020  1.4599 -0.8044 -1.6426
   97MOL0     H13034   3.658   9.604   5.221 -0.0887 -0.4618  0.4535
   97MOL0     H13035   3.667   9.419   5.217 -1.4870 -1.5847 -0.8937
   97MOL0     H13036   3.435   9.596   5.158  0.1073  0.0837  1.8846
   97MOL0     H13037   3.442   9.413   5.113  4.1572 -1.7975 -0.9243
   97MOL0     H13038   3.323   9.427   5.324 -0.0620 -1.0089 -1.1628
   97MOL0     H13039   3.480   9.365   5.351 -2.3025 -0.8771 -0.2641
   97MOL0     H13040   3.552   9.592   5.436  0.5881 -2.3572 -1.0753
   97MOL0     H13041   3.387   9.655   5.412  1.7643  0.8739 -0.0888
   97MOL0     H13042   3.433   9.384   5.551 -0.1674  0.5553  1.0960
   97MOL0     H13043   3.297   9.506   5.570 -0.3848  1.9257  0.6337
   97MOL0     H13044   3.451   9.651   5.715  0.7492 -1.0149  3.3872
   97MOL0     H13045   3.447   9.489   5.767 -1.2771  0.9850 -0.9297
   97MOL0     H13046   3.683   9.741   5.631 -0.9539 -0.6310 -0.7170
   97MOL0     H13047   3.949   9.742   5.593 -2.3728  0.8070  4.2747
   97MOL0     H13048   4.009   9.611   5.681 -0.7074 -0.6250 -0.7716
   97MOL0     H13049   3.976   9.467   5.477  1.4784 -1.2868 -3.3620
   97MOL0     H13050   3.954   9.606   5.370  1.5535  2.0842  0.4467
   97MOL0     H13051   4.190   9.662   5.558  2.1955  0.8318 -1.0125
   97MOL0     H13052   4.179   9.692   5.399 -0.1470 -0.7084 -0.8498
   97MOL0     H13053   4.194   9.454   5.324  3.1819 -0.7086 -1.0602
   97MOL0     H13054   4.209   9.405   5.492  0.1977  0.7248  0.6848
   97MOL0     H13055   4.610   9.603   5.447  1.2628  0.8927 -1.9844
   97MOL0     H13056   4.796   9.459   5.383  0.3900  0.7563 -1.3516
   97MOL0     H13057   5.055   9.115   5.385 -1.3833  2.0183 -0.2490
   97MOL0     H13058   5.230   8.955   5.292 -1.0015 -0.8820  1.6757
   97MOL0     H13059   5.415   8.948   5.165 -1.3155 -1.4007  1.7202
   97MOL0     H13060   5.406   8.792   5.107 -2.1901 -1.7569 -1.1404
   97MOL0     H13061   5.585   8.930   5.011  0.5591 -3.7420 -0.7549
   97MOL0     H13062   5.480   8.869   4.873 -0.8646 -0.3509 -0.3677
   97MOL0     H13063   5.383   9.100   4.866  0.3025 -2.2649 -0.2980
   97MOL0     H13064   5.474   9.131   5.012 -0.3005  0.7568 -1.2027
   97MOL0     H13065   5.600   9.067   4.733  0.4485 -1.1695  0.8582
   97MOL0     H13066   5.662   9.129   4.902  0.1743 -0.9669  0.3137
   97MOL0     H13067   5.656   9.321   4.798  0.7159  0.1042  1.9659
   97MOL0     H13068   5.502   9.318   4.879  1.5274 -0.3480  0.4330
   97MOL0     H13069   5.527   9.389   4.625 -2.0523  0.8072 -0.9196
   97MOL0     H13070   5.528   9.211   4.603  1.3737  0.0299  1.2083
   97MOL0     H13071   5.315   9.383   4.739  0.1360 -0.0847 -0.0828
   97MOL0     H13072   5.296   9.209   4.708  1.1626  0.6431  2.4101
   97MOL0     H13073   5.377   9.398   4.493  3.0806 -0.0896  6.0607
   97MOL0     H13074   5.284   9.242   4.478 -1.4787 -0.2205  0.7128
   97MOL0     H13075   5.140   9.102   4.905  0.2518  1.0207  0.0308
   97MOL0     H13076   4.983   9.268   4.994 -1.8363 -2.0681 -0.1581
   97MOL0     H13077   4.530   9.164   5.240 -2.7980  0.5946 -0.6130
   97MOL0     H13078   4.342   9.289   5.284  1.1055 -2.8729  0.3046
   97MOL0     H13079   3.716   9.164   4.800  0.3957  0.1395  1.4241
   97MOL0     H13080   3.873   9.039   4.679  1.7277  0.8115 -2.0937
   97MOL0     H13081   4.347   9.043   4.596  1.1831 -0.8874  0.4675
   97MOL0     H13082   4.480   9.046   4.428  0.1975 -0.2519 -2.0292
   97MOL0     H13083   4.626   8.905   4.294  2.3363 -0.1061 -2.4483
   97MOL0     H13084   4.559   9.054   4.248 -2.9567 -2.0785  2.9523
   97MOL0     H13085   4.655   8.821   4.090  4.0022 -0.0574  1.2250
   97MOL0     H13086   4.763   8.954   4.120  0.4028 -5.2536  1.2435
   97MOL0     H13087   4.566   9.094   3.978 -0.6388 -0.1484  1.4086
   97MOL0     H13088   4.510   8.943   3.930  0.9265  0.6562 -1.9285
   97MOL0     H13089   4.796   9.044   3.881 -0.0230 -0.9403  1.4997
   97MOL0     H13090   4.739   8.874   3.853  0.2088  0.1588 -1.5328
   97MOL0     H13091   4.615   9.106   3.520  0.9126 -1.2956 -0.7819
   97MOL0     H13092   4.241   8.787   4.182 -0.4351 -1.7864  0.6183
   97MOL0     H13093   4.075   8.635   4.355  0.4720  0.7805  0.9972
   97MOL0     H13094   3.939   8.740   4.408 -1.8367  2.7944 -1.2192
   97MOL0     H13095   3.996   8.754   4.240 -0.2113  3.1045 -0.2066
   98MOL0     O13096   3.549   2.794   3.655 -0.1368  0.1031  0.0269
   98MOL0     C13097   3.612   2.731   3.565 -0.0884  0.1025  0.5443
   98MOL0     O13098   3.675   2.616   3.592 -0.3563  0.2798 -0.1930
   98MOL0     C13099   3.661   2.547   3.710  1.1820  0.5245  0.9488
   98MOL0     C13100   3.599   2.422   3.706 -0.4658  0.1549 -0.2325
   98MOL0     C13101   3.569   2.352   3.828  0.0347 -0.4008  0.8146
   98MOL0     C13102   3.613   2.406   3.948  1.1314 -0.2812 -0.1081
   98MOL0     O13103   3.575   2.353   4.070 -0.4786 -0.2827 -0.7795
   98MOL0     C13104   3.525   2.221   4.076 -0.0640 -0.4831  0.4180
   98MOL0     C13105   3.506   2.174   4.223 -0.3457  0.0018  0.7661
   98MOL0     C13106   3.404   2.258   4.295  0.1331  0.6999 -0.4826
   98MOL0     C13107   3.357   2.182   4.421 -0.4211 -0.5996 -0.3224
   98MOL0     C13108   3.245   2.253   4.486  1.5552  0.6115 -0.3552
   98MOL0     C13109   3.124   2.291   4.385  0.3721 -0.4428 -0.1363
   98MOL0     C13110   3.004   2.335   4.473 -0.7433  0.9035 -0.2913
   98MOL0     C13111   2.891   2.400   4.378 -0.1879  0.7613 -0.1692
   98MOL0     N13112   2.933   2.530   4.320  0.3628 -0.6777  0.6441
   98MOL0     C13113   2.934   2.560   4.183 -0.4497 -0.2768 -1.6475
   98MOL0     C13114   2.872   2.683   4.174 -0.5901 -0.2712 -0.5521
   98MOL0     C13115   2.834   2.774   4.048  0.4632 -0.6369  0.8589
   98MOL0     C13116   2.699   2.787   4.002  1.0282  0.2668 -0.6251
   98MOL0     C13117   2.600   2.863   4.108 -0.6348  0.2650 -1.1288
   98MOL0     C13118   2.582   3.007   4.080  0.4284 -0.1883  0.5246
   98MOL0     O13119   2.484   3.027   3.976  0.1379  0.1441  0.7350
   98MOL0     C13120   2.457   3.156   3.938 -0.4895 -0.2889 -0.3745
   98MOL0     C13121   2.421   3.183   3.810 -0.0361  0.1882 -0.2436
   98MOL0     C13122   2.425   3.312   3.747 -0.6781  0.3533 -0.1742
   98MOL0     C13123   2.468   3.422   3.828 -0.3542 -1.2670 -0.3903
   98MOL0     C13124   2.497   3.555   3.767 -0.0674 -0.5579  0.4120
   98MOL0     O13125   2.444   3.649   3.841  0.4065 -0.1606  0.5731
   98MOL0     C13126   2.438   3.774   3.787 -0.2928 -0.6636  0.1837
   98MOL0     C13127   2.341   3.822   3.698 -0.3559 -0.1681 -0.5426
   98MOL0     C13128   2.332   3.956   3.662 -0.7406 -0.8369 -0.1587
   98MOL0     C13129   2.435   4.039   3.704 -0.6544  0.4687 -0.5061
   98MOL0     O13130   2.439   4.167   3.663 -1.0571 -0.4153 -0.4102
   98MOL0     C13131   2.401   4.209   3.533 -0.3745 -0.3704 -0.1891
   98MOL0     C13132   2.464   4.345   3.494  0.2793 -0.8733  1.0802
   98MOL0     C13133   2.593   4.332   3.417 -0.0699 -0.3172  0.1845
   98MOL0     C13134   2.676   4.458   3.403  0.7044  0.2277 -0.1129
   98MOL0     C13135   2.805   4.447   3.323  0.3891 -0.7655  0.0344
   98MOL0     C13136   2.904   4.350   3.384  0.6511 -0.2930  0.5454
   98MOL0     C13137   3.041   4.391   3.365  0.3310  0.5948  0.3556
   98MOL0     C13138   3.074   4.391   3.219  0.2738  0.4214  0.4736
   98MOL0    Cl13139   3.103   4.218   3.186  0.4148 -0.0781 -0.2312
   98MOL0     C13140   2.540   3.994   3.783 -0.3353  0.0187  0.0613
   98MOL0     C13141   2.541   3.862   3.817  0.5297  0.9710 -1.2651
   98MOL0     O13142   2.514   3.568   3.644 -0.1451 -0.1834  0.0930
   98MOL0     C13143   2.509   3.400   3.965  1.1314 -0.3222 -0.0091
   98MOL0     C13144   2.500   3.264   4.013  0.9249 -0.2447 -0.3850
   98MOL0     N13145   2.820   2.718   4.294 -0.5226 -0.1847  0.2228
   98MOL0     N13146   2.867   2.637   4.376 -0.5926  0.0757 -1.2172
   98MOL0     C13147   3.672   2.533   3.949  0.8106 -1.1911  0.9485
   98MOL0     C13148   3.695   2.606   3.834 -0.1017 -0.5143 -0.1476
   98MOL0     C13149   3.630   2.773   3.421  0.0307 -0.2468  0.6861
   98MOL0     C13150   3.708   2.701   3.326  0.2498  0.2926  0.0625
   98MOL0     C13151   3.713   2.734   3.189  0.3960  0.2878 -0.4714
   98MOL0     C13152   3.634   2.844   3.136  0.1243  0.4615 -0.2236
   98MOL0     O13153   3.627   2.880   3.002 -0.0965  0.5400  0.1290
   98MOL0     C13154   3.752   2.873   2.925 -0.2597  1.2236 -0.9156
   98MOL0     C13155   3.751   2.984   2.823  0.1023  1.2245 -0.0395
   98MOL0     C13156   3.721   3.120   2.896  1.3068 -0.4734 -0.0196
   98MOL0     C13157   3.805   3.249   2.871 -0.6966  0.0115  0.4724
   98MOL0     C13158   3.945   3.214   2.903 -0.0464 -0.1181  0.4398
   98MOL0     C13159   4.060   3.182   2.922 -0.0775  0.8106  1.0638
   98MOL0     C13160   3.562   2.909   3.229  1.1884  0.3377  0.6114
   98MOL0     C13161   3.557   2.884   3.364 -0.0153 -0.0269  0.3410
   98MOL0     C13162   3.459   2.967   3.449  0.4725 -0.3979  0.1515
   98MOL0     H13163   3.579   2.372   3.611 -0.2099 -0.5456  0.0761
   98MOL0     H13164   3.514   2.259   3.821 -3.0018  1.4020 -1.8427
   98MOL0     H13165   3.428   2.223   4.026  1.4116 -1.4830 -2.7317
   98MOL0     H13166   3.590   2.152   4.021  3.8716  2.9347  0.2718
   98MOL0     H13167   3.602   2.198   4.269 -0.7648  0.7417  1.2823
   98MOL0     H13168   3.476   2.069   4.216 -4.1516  0.8987  1.3973
   98MOL0     H13169   3.321   2.292   4.232 -1.2331 -0.8828  0.3877
   98MOL0     H13170   3.455   2.348   4.330 -3.2611  3.3334 -1.7681
   98MOL0     H13171   3.337   2.079   4.389  0.6647 -0.7202 -0.6240
   98MOL0     H13172   3.441   2.181   4.490 -0.1050 -0.4825 -0.7008
   98MOL0     H13173   3.220   2.197   4.577  3.3413 -0.9477 -0.7789
   98MOL0     H13174   3.279   2.353   4.515 -1.3518  1.7014 -0.3798
   98MOL0     H13175   3.166   2.377   4.331  1.3436 -0.8315 -0.0192
   98MOL0     H13176   3.092   2.209   4.321 -1.2336  1.4498 -1.9090
   98MOL0     H13177   3.036   2.402   4.553 -1.6577  1.1310 -0.0997
   98MOL0     H13178   2.963   2.250   4.528 -1.7244  1.9988  0.7468
   98MOL0     H13179   2.867   2.328   4.299 -0.3269  3.1130 -2.4076
   98MOL0     H13180   2.797   2.410   4.435 -1.5101  0.8497 -2.2532
   98MOL0     H13181   2.976   2.496   4.106 -2.4926 -0.1732 -2.9332
   98MOL0     H13182   2.870   2.874   4.074 -1.3618 -0.3083  2.3502
   98MOL0     H13183   2.900   2.736   3.969 -2.4973  2.7471 -3.6951
   98MOL0     H13184   2.699   2.847   3.911 -0.3874  3.1952  1.1448
   98MOL0     H13185   2.657   2.688   3.978 -0.4393  0.3925  1.2329
   98MOL0     H13186   2.640   2.848   4.209  1.5316  0.4019 -1.9257
   98MOL0     H13187   2.503   2.812   4.098 -0.8097  0.2341  0.4428
   98MOL0     H13188   2.679   3.052   4.054 -0.6343  2.1073  0.2593
   98MOL0     H13189   2.543   3.062   4.166 -0.1997  3.0970 -1.6711
   98MOL0     H13190   2.411   3.102   3.739  2.3001  1.5685 -2.3173
   98MOL0     H13191   2.410   3.331   3.641  0.5333  2.6036 -0.0184
   98MOL0     H13192   2.251   3.771   3.666 -2.4064  1.8637  1.5592
   98MOL0     H13193   2.246   3.988   3.605 -0.2424  1.0929  0.1162
   98MOL0     H13194   2.426   4.142   3.450  1.1970 -0.8472  0.6264
   98MOL0     H13195   2.294   4.233   3.537 -0.1600  0.4446  1.2906
   98MOL0     H13196   2.404   4.408   3.428  1.7651  1.4015  1.8198
   98MOL0     H13197   2.479   4.402   3.586 -1.8594  3.0720 -0.7864
   98MOL0     H13198   2.648   4.255   3.471 -0.2239 -0.9456 -0.5492
   98MOL0     H13199   2.560   4.292   3.321 -1.2067 -1.3181  0.9674
   98MOL0     H13200   2.702   4.509   3.497 -0.5582 -2.4344  1.8157
   98MOL0     H13201   2.604   4.520   3.350 -1.9910 -0.3189  2.6036
   98MOL0     H13202   2.856   4.541   3.298  0.1037  0.4729  3.5554
   98MOL0     H13203   2.790   4.412   3.221 -1.1721  4.4927 -1.8664
   98MOL0     H13204   2.895   4.339   3.492 -3.3271 -0.1951  0.3509
   98MOL0     H13205   2.870   4.254   3.344 -0.7215 -1.2180  3.6386
   98MOL0     H13206   3.109   4.326   3.421  0.7502  1.3214  0.7077
   98MOL0     H13207   3.057   4.490   3.408  0.2263  1.4136 -1.3868
   98MOL0     H13208   2.998   4.418   3.145  0.1801 -2.5048 -0.6108
   98MOL0     H13209   3.162   4.454   3.200 -2.2404  3.9361 -0.6749
   98MOL0     H13210   2.611   4.073   3.805 -2.0510  1.1234  2.1278
   98MOL0     H13211   2.605   3.820   3.894 -1.1169 -0.3840 -0.5684
   98MOL0     H13212   2.528   3.487   4.027 -1.2477 -0.0065  0.3586
   98MOL0     H13213   2.525   3.255   4.118  1.8260 -1.2290 -0.6728
   98MOL0     H13214   3.697   2.580   4.044  0.2560 -0.5807  0.8014
   98MOL0     H13215   3.752   2.698   3.819 -1.4509 -0.0919 -3.5983
   98MOL0     H13216   3.764   2.613   3.357  0.6051  1.2115  2.2338
   98MOL0     H13217   3.774   2.675   3.121 -0.6342 -0.5730 -0.6846
   98MOL0     H13218   3.772   2.774   2.884 -0.1013 -0.5022  2.8689
   98MOL0     H13219   3.830   2.881   3.001  1.2523 -0.9478 -2.1262
   98MOL0     H13220   3.676   2.965   2.746 -2.2758  5.1992  0.9856
   98MOL0     H13221   3.852   2.973   2.782  0.6474 -1.5592  1.7736
   98MOL0     H13222   3.723   3.112   3.005  1.2497  0.2252  0.0429
   98MOL0     H13223   3.616   3.142   2.875  0.8231  0.3532  2.8612
   98MOL0     H13224   3.802   3.271   2.764 -1.9320 -0.1578  0.4623
   98MOL0     H13225   3.770   3.331   2.934 -0.8241 -0.5874  1.1861
   98MOL0     H13226   4.159   3.144   2.930 -0.2219 -1.6973 -4.7747
   98MOL0     H13227   3.492   2.979   3.184  0.0302 -1.2195 -0.0925
   98MOL0     H13228   3.446   3.067   3.407  3.3063  0.2164  0.5573
   98MOL0     H13229   3.368   2.908   3.460  0.9117 -1.3518 -1.1072
   98MOL0     H13230   3.502   2.999   3.544  0.6872  0.8670 -0.3470
   99MOL0     O13231   2.282   0.613   6.500  0.1360 -0.1560 -0.1133
   99MOL0     C13232   2.370   0.686   6.535 -0.8454  0.8663 -0.1994
   99MOL0     O13233   2.366   0.785   6.637 -0.0961  0.9371  0.7235
   99MOL0     C13234   2.260   0.779   6.728  0.7178 -0.3681 -0.3397
   99MOL0     C13235   2.189   0.896   6.757 -0.1236 -0.2969 -1.3937
   99MOL0     C13236   2.088   0.903   6.858 -0.4512 -0.1581  0.3721
   99MOL0     C13237   2.050   0.785   6.922  0.5495  0.0147 -0.7204
   99MOL0     O13238   1.948   0.767   7.014 -0.3842  0.2444 -0.1113
   99MOL0     C13239   1.840   0.861   6.992  0.1281  0.9767 -0.3278
   99MOL0     C13240   1.757   0.868   7.127 -0.4843 -0.0878 -0.9166
   99MOL0     C13241   1.650   0.978   7.124 -0.3510 -0.2261 -0.7199
   99MOL0     C13242   1.586   1.031   7.250  1.0723  0.6103 -0.8482
   99MOL0     C13243   1.515   1.174   7.228  1.0985  0.6246  0.1583
   99MOL0     C13244   1.376   1.161   7.146  0.1686  0.8796  0.2378
   99MOL0     C13245   1.245   1.216   7.206 -0.2240  0.0574  0.4370
   99MOL0     C13246   1.205   1.145   7.336 -0.4568 -0.1084  0.6592
   99MOL0     N13247   1.092   1.200   7.410 -0.5562 -1.1222 -0.0667
   99MOL0     C13248   1.049   1.328   7.399  0.2030 -0.1067  0.1493
   99MOL0     C13249   0.960   1.347   7.499 -0.4218  0.2674  0.6636
   99MOL0     C13250   0.902   1.472   7.546 -0.3212  0.5529 -0.9772
   99MOL0     C13251   1.019   1.569   7.584  0.5759  0.5549  0.7104
   99MOL0     C13252   0.988   1.710   7.511 -0.4160 -0.1269  0.5642
   99MOL0     C13253   0.875   1.783   7.577 -1.1117  0.2502  0.3810
   99MOL0     O13254   0.750   1.724   7.536 -0.2562  0.2248  0.7375
   99MOL0     C13255   0.632   1.781   7.587  0.2075 -0.3097  0.5996
   99MOL0     C13256   0.621   1.911   7.659  0.8741  0.2218 -0.4222
   99MOL0     C13257   0.487   1.950   7.681 -0.2960  0.7921 -0.8873
   99MOL0     C13258   0.376   1.876   7.660  1.5923  0.0353  0.5916
   99MOL0     C13259   0.245   1.909   7.712 -1.0274 -0.9630 -0.6028
   99MOL0     O13260   0.143   1.830   7.691 -0.0127  0.0475 -0.3729
   99MOL0     C13261   0.023   1.876   7.738 -0.1555 -0.9379  0.5163
   99MOL0     C13262  -0.036   1.836   7.854 -0.4413 -0.5245 -1.0089
   99MOL0     C13263  -0.159   1.880   7.898  0.1808 -0.5152  0.0204
   99MOL0     C13264  -0.234   1.967   7.827 -0.3864 -0.1066 -0.5997
   99MOL0     O13265  -0.354   2.001   7.882 -0.0784  0.1748  0.2604
   99MOL0     C13266  -0.431   2.123   7.859 -0.3726  0.6982  1.3753
   99MOL0     C13267  -0.577   2.118   7.898 -0.5347  0.2308 -0.0061
   99MOL0     C13268  -0.674   2.217   7.845 -1.2516 -1.1103 -0.7302
   99MOL0     C13269  -0.731   2.314   7.946  0.5933  0.1312  0.1912
   99MOL0     C13270  -0.846   2.247   8.023  0.0115  0.0938  0.1619
   99MOL0     C13271  -0.894   2.331   8.142  0.3776  0.2155  0.3117
   99MOL0     C13272  -0.991   2.253   8.229 -0.1769  0.5152 -0.0927
   99MOL0     C13273  -1.057   2.349   8.330  0.0943  0.2002  0.0106
   99MOL0    Cl13274  -0.937   2.404   8.448 -0.5592  0.2341  0.2490
   99MOL0     C13275  -0.179   2.020   7.710 -0.3970  0.2664  0.1057
   99MOL0     C13276  -0.063   1.972   7.657 -0.4323 -0.8556 -0.9629
   99MOL0     O13277   0.240   2.013   7.780  0.2077  0.0905 -0.0855
   99MOL0     C13278   0.392   1.760   7.603  0.1921  0.3169 -0.4472
   99MOL0     C13279   0.513   1.709   7.562 -0.8057 -0.2317  0.9047
   99MOL0     N13280   0.940   1.230   7.554  0.2702  0.7645  0.1353
   99MOL0     N13281   1.012   1.141   7.505 -0.5803 -0.6564  0.5805
   99MOL0     C13282   2.129   0.669   6.908 -0.3651  0.9959  0.9565
   99MOL0     C13283   2.227   0.667   6.800  0.2363 -0.1982 -0.9786
   99MOL0     C13284   2.503   0.665   6.475  0.4148 -0.6423  0.7089
   99MOL0     C13285   2.622   0.661   6.551 -0.8448  0.1645  0.5615
   99MOL0     C13286   2.749   0.639   6.488 -0.2152  1.2258  0.9284
   99MOL0     C13287   2.754   0.610   6.354 -0.1391  0.3994  0.4103
   99MOL0     O13288   2.878   0.570   6.302  0.7535 -0.3332  0.4062
   99MOL0     C13289   2.886   0.520   6.166  0.3094 -0.7247 -0.8817
   99MOL0     C13290   3.029   0.486   6.147  0.0026  0.4138  0.6635
   99MOL0     C13291   3.046   0.445   5.993  0.1401 -0.1795 -0.6635
   99MOL0     C13292   3.117   0.537   5.901  0.2000  0.7157  0.3188
   99MOL0     C13293   3.058   0.677   5.901  0.5401  0.3726 -0.7305
   99MOL0     C13294   3.017   0.793   5.924  0.1367  0.6004  1.0296
   99MOL0     C13295   2.642   0.616   6.277 -0.1853 -0.3673  0.5475
   99MOL0     C13296   2.517   0.644   6.331  0.5886 -0.4883 -0.8255
   99MOL0     C13297   2.409   0.662   6.225  0.2381 -0.9023 -0.3018
   99MOL0     H13298   2.191   0.999   6.722 -0.7529  1.0005  2.0034
   99MOL0     H13299   2.053   1.005   6.864  1.8069  0.9277 -2.7601
   99MOL0     H13300   1.879   0.962   6.978 -0.9465  0.9986 -4.3347
   99MOL0     H13301   1.767   0.826   6.919 -1.4590 -4.4275  3.2236
   99MOL0     H13302   1.830   0.882   7.208 -0.1046  0.5933 -1.3675
   99MOL0     H13303   1.716   0.771   7.156 -1.5486  0.3108 -1.0612
   99MOL0     H13304   1.576   0.956   7.046  0.0710  1.2415 -1.5840
   99MOL0     H13305   1.702   1.070   7.094 -3.4595  2.0917  0.5410
   99MOL0     H13306   1.517   0.949   7.271 -1.0413  2.0469 -1.8519
   99MOL0     H13307   1.656   1.047   7.332  0.1620  1.8301 -0.2770
   99MOL0     H13308   1.501   1.221   7.326 -0.1825  1.2529 -0.2994
   99MOL0     H13309   1.586   1.232   7.169  1.0056 -1.5726 -2.2553
   99MOL0     H13310   1.391   1.205   7.047 -1.0920  0.5841 -0.0996
   99MOL0     H13311   1.367   1.056   7.116 -2.0680  2.2805 -5.1879
   99MOL0     H13312   1.172   1.196   7.127  0.2303 -3.2636  0.7023
   99MOL0     H13313   1.277   1.320   7.216  3.3300 -0.9387  0.9959
   99MOL0     H13314   1.194   1.041   7.306  2.0677  0.4530 -2.9235
   99MOL0     H13315   1.298   1.142   7.392  1.8342  0.5132 -2.7828
   99MOL0     H13316   1.097   1.388   7.322 -2.9038 -0.7655 -2.5247
   99MOL0     H13317   0.839   1.504   7.462  1.3634  0.0298 -2.4900
   99MOL0     H13318   0.842   1.442   7.633  2.7942 -0.5884  0.9722
   99MOL0     H13319   1.018   1.585   7.692  0.8269  3.0610  0.3951
   99MOL0     H13320   1.117   1.535   7.547  1.2154  1.2249  1.7284
   99MOL0     H13321   0.988   1.705   7.402 -1.0258 -1.0645  0.5970
   99MOL0     H13322   1.076   1.769   7.540  0.7444 -1.9651  0.9830
   99MOL0     H13323   0.875   1.892   7.567  1.5680  0.2906  0.0352
   99MOL0     H13324   0.886   1.773   7.685  0.4774  0.1924  0.2356
   99MOL0     H13325   0.703   1.972   7.696 -0.6580  1.7920  0.5530
   99MOL0     H13326   0.462   2.046   7.726 -4.7901 -0.1785 -0.8267
   99MOL0     H13327   0.014   1.773   7.927 -2.2222 -3.6865 -2.2834
   99MOL0     H13328  -0.201   1.829   7.984 -1.3810 -0.3690 -0.6120
   99MOL0     H13329  -0.400   2.212   7.914  1.4528  1.0288 -0.0894
   99MOL0     H13330  -0.419   2.159   7.757 -1.1248  0.3148  1.1429
   99MOL0     H13331  -0.613   2.028   7.847  1.1512  0.6247 -2.0350
   99MOL0     H13332  -0.607   2.114   8.003 -0.6380 -0.2995 -0.0548
   99MOL0     H13333  -0.625   2.281   7.771  1.9038 -0.0512  2.0785
   99MOL0     H13334  -0.751   2.162   7.789 -2.6162  0.1060 -0.1241
   99MOL0     H13335  -0.773   2.397   7.888 -0.0230 -0.4417 -0.1939
   99MOL0     H13336  -0.653   2.351   8.014 -0.5427  3.0243  0.0372
   99MOL0     H13337  -0.808   2.154   8.068  1.4038  1.2205  1.4345
   99MOL0     H13338  -0.929   2.219   7.957 -0.9050 -0.8258  1.6373
   99MOL0     H13339  -0.813   2.350   8.213  0.8019 -1.2861  0.2509
   99MOL0     H13340  -0.941   2.425   8.112 -2.6034 -1.8188 -1.9701
   99MOL0     H13341  -0.939   2.167   8.272  1.4161 -1.3352 -4.9828
   99MOL0     H13342  -1.068   2.216   8.161  0.3907 -0.9948  0.0375
   99MOL0     H13343  -1.088   2.441   8.280  1.4597  0.2920 -0.7139
   99MOL0     H13344  -1.143   2.308   8.383  0.1765 -1.3875 -1.0292
   99MOL0     H13345  -0.235   2.101   7.664 -1.6026 -0.2197  0.6646
   99MOL0     H13346  -0.026   2.007   7.561 -0.2661 -0.0022 -0.6034
   99MOL0     H13347   0.314   1.685   7.593  0.1375  0.0917  1.3232
   99MOL0     H13348   0.509   1.613   7.512 -1.4880  0.4848 -0.4926
   99MOL0     H13349   2.105   0.578   6.961  0.8338  0.8545  1.3023
   99MOL0     H13350   2.291   0.581   6.783  2.2545  1.0415 -0.0214
   99MOL0     H13351   2.605   0.670   6.658 -0.7201 -0.8738  0.6702
   99MOL0     H13352   2.839   0.644   6.549 -0.0524 -1.4277  1.0178
   99MOL0     H13353   2.849   0.597   6.098 -0.8193 -2.3658 -2.2159
   99MOL0     H13354   2.817   0.435   6.158 -2.1803  1.2483 -1.5878
   99MOL0     H13355   3.054   0.402   6.213 -0.3395  0.1845  0.5047
   99MOL0     H13356   3.096   0.568   6.177  2.1404 -1.0966  0.2562
   99MOL0     H13357   2.947   0.414   5.958  0.5625 -2.0441 -0.3621
   99MOL0     H13358   3.099   0.349   5.980 -0.1406 -0.0623 -3.2078
   99MOL0     H13359   3.224   0.532   5.924  0.8195 -1.0690 -2.4273
   99MOL0     H13360   3.110   0.508   5.795  5.6953 -0.1836 -0.0956
   99MOL0     H13361   2.995   0.896   5.941  0.2480  0.5989  1.1777
   99MOL0     H13362   2.632   0.608   6.169 -0.3566 -0.1446  0.5449
   99MOL0     H13363   2.329   0.728   6.259  1.9602 -0.2196  2.8725
   99MOL0     H13364   2.454   0.702   6.134 -2.2639  0.4098 -1.0663
   99MOL0     H13365   2.360   0.570   6.191  2.3228 -1.5991 -1.5860
  100MOL0     O13366  11.384   7.153   1.900  0.6454 -0.3336 -0.4205
  100MOL0     C13367  11.325   7.261   1.912  0.5636 -0.1459 -0.2557
  100MOL0     O13368  11.359   7.362   1.997  0.2722 -0.0562  0.5313
  100MOL0     C13369  11.486   7.355   2.055  0.0884 -0.1547 -0.6096
  100MOL0     C13370  11.558   7.472   2.063  0.2996 -0.7824 -0.0916
  100MOL0     C13371  11.675   7.467   2.139  0.1356 -0.8249 -0.1094
  100MOL0     C13372  11.728   7.357   2.204 -0.2631  0.4612  0.0821
  100MOL0     O13373  11.854   7.347   2.261 -1.0071 -0.3120  0.0148
  100MOL0     C13374  11.940   7.252   2.193  0.8487  0.4429  0.4102
  100MOL0     C13375  12.080   7.269   2.237 -0.9703 -1.1137 -0.0280
  100MOL0     C13376  12.124   7.241   2.389 -1.1116  0.3824 -0.1228
  100MOL0     C13377  12.256   7.316   2.412  0.7156  0.5037  0.1028
  100MOL0     C13378  12.369   7.268   2.334 -0.8644 -0.6732  0.2914
  100MOL0     C13379  12.502   7.343   2.367 -0.9773  0.1694 -0.0660
  100MOL0     C13380  12.482   7.497   2.413  0.0694 -0.2710  0.8055
  100MOL0     C13381  12.626   7.572   2.421  0.4152 -0.8510  0.1256
  100MOL0     N13382  12.739   7.511   2.493  0.7613 -1.1011 -0.2284
  100MOL0     C13383  12.784   7.563   2.617  0.3783 -0.5192  1.1887
  100MOL0     C13384  12.908   7.516   2.631 -0.9191  0.3070 -0.1974
  100MOL0     C13385  13.008   7.534   2.740  0.0931  0.4331 -0.3188
  100MOL0     C13386  13.142   7.603   2.687  0.6198 -0.0140 -1.1901
  100MOL0     C13387  13.113   7.728   2.606 -0.2758 -1.0733 -0.3850
  100MOL0     C13388  13.093   7.849   2.696 -0.1577 -0.3294  0.6545
  100MOL0     O13389  12.974   7.833   2.778  0.2635  0.4264 -0.2446
  100MOL0     C13390  12.942   7.919   2.879  0.2520 -0.5052  1.1536
  100MOL0     C13391  12.820   7.900   2.942 -0.1951 -0.1491 -0.0063
  100MOL0     C13392  12.790   7.984   3.047  0.1632 -0.3893  0.3430
  100MOL0     C13393  12.864   8.096   3.088  0.3613 -0.1612 -0.7912
  100MOL0     C13394  12.805   8.167   3.213  0.2997 -0.0480 -0.8797
  100MOL0     O13395  12.859   8.282   3.248  0.1790 -0.6570 -0.6976
  100MOL0     C13396  12.796   8.358   3.338  1.4711 -0.9314 -0.0108
  100MOL0     C13397  12.869   8.397   3.449 -1.0458  0.0060  0.1859
  100MOL0     C13398  12.814   8.495   3.540  0.9605  0.0953 -1.0676
  100MOL0     C13399  12.687   8.543   3.530 -0.2394 -1.4165  0.7031
  100MOL0     O13400  12.640   8.635   3.623  0.2096 -0.6084 -0.1862
  100MOL0     C13401  12.521   8.708   3.598 -0.3401  0.5904  0.5904
  100MOL0     C13402  12.381   8.657   3.645  0.0677 -0.7771 -0.4741
  100MOL0     C13403  12.378   8.597   3.788 -0.0481 -0.0875  0.2084
  100MOL0     C13404  12.242   8.537   3.817 -0.2653  0.1036  0.0268
  100MOL0     C13405  12.210   8.507   3.963  0.2589 -1.0342 -0.2007
  100MOL0     C13406  12.326   8.414   4.017  0.1726  0.3393 -0.0080
  100MOL0     C13407  12.283   8.341   4.144 -1.1004  0.2810  0.7070
  100MOL0     C13408  12.292   8.432   4.258  0.0604 -0.7262  0.2580
  100MOL0    Cl13409  12.464   8.426   4.314 -0.4614 -0.3177 -0.2943
  100MOL0     C13410  12.607   8.485   3.422  0.6743  0.0947 -0.6207
  100MOL0     C13411  12.663   8.408   3.328  0.7670 -0.6760 -0.0236
  100MOL0     O13412  12.713   8.112   3.281  0.3678  0.0505  0.4713
  100MOL0     C13413  12.979   8.121   3.013  0.2688 -0.1703 -0.6498
  100MOL0     C13414  13.018   8.029   2.914  0.3329 -0.2499 -0.0187
  100MOL0     N13415  12.946   7.441   2.521  0.9795 -0.4145 -0.2537
  100MOL0     N13416  12.837   7.423   2.456  0.8707 -0.6777  0.3715
  100MOL0     C13417  11.656   7.238   2.195 -0.2623  1.1232  0.6790
  100MOL0     C13418  11.531   7.242   2.129  0.0030 -0.1883 -1.1100
  100MOL0     C13419  11.208   7.293   1.816 -0.7075  0.1677  0.8824
  100MOL0     C13420  11.188   7.434   1.792  0.5431 -0.3875 -0.1370
  100MOL0     C13421  11.080   7.471   1.723  0.5643 -0.7276  0.1306
  100MOL0     C13422  10.997   7.380   1.657 -0.4482 -0.2563  0.7448
  100MOL0     O13423  10.894   7.436   1.583  0.8244  0.0210 -0.3949
  100MOL0     C13424  10.846   7.367   1.463  0.7036 -0.3946  0.4730
  100MOL0     C13425  10.736   7.453   1.403 -1.6204 -0.0767  0.3621
  100MOL0     C13426  10.614   7.458   1.500  0.0470  0.9357  0.0636
  100MOL0     C13427  10.497   7.513   1.436 -0.5926 -0.1811 -0.2640
  100MOL0     C13428  10.389   7.516   1.530 -0.6426 -0.8819  0.4857
  100MOL0     C13429  10.296   7.518   1.607  0.5766  1.0170  0.2956
  100MOL0     C13430  11.026   7.248   1.669 -0.4621 -0.2402 -0.4812
  100MOL0     C13431  11.130   7.203   1.742  0.0791 -0.9576 -0.1861
  100MOL0     C13432  11.144   7.057   1.764 -0.3546  0.2168  0.3668
  100MOL0     H13433  11.515   7.569   2.038 -0.3301 -0.9812  0.1939
  100MOL0     H13434  11.729   7.560   2.130 -2.2445  0.7856  1.1876
  100MOL0     H13435  11.924   7.147   2.219  3.1221  0.0503  0.4319
  100MOL0     H13436  11.943   7.267   2.084  2.3200 -2.2089 -0.0022
  100MOL0     H13437  12.112   7.371   2.215 -0.6428 -0.4053  3.2750
  100MOL0     H13438  12.127   7.195   2.171  1.8095  0.7086 -0.2471
  100MOL0     H13439  12.131   7.133   2.404  2.8650  0.3893 -0.7591
  100MOL0     H13440  12.050   7.284   2.457  0.1404  3.1496 -0.3820
  100MOL0     H13441  12.237   7.419   2.383 -0.2354  0.4040  0.3502
  100MOL0     H13442  12.283   7.310   2.518 -0.9200 -3.3941  0.4658
  100MOL0     H13443  12.370   7.159   2.345 -2.5902 -0.6496  1.0132
  100MOL0     H13444  12.339   7.296   2.232 -0.6411  2.1935  0.9288
  100MOL0     H13445  12.550   7.288   2.448 -2.8671  0.9943  1.7041
  100MOL0     H13446  12.571   7.351   2.283  0.5985  1.0970  1.2395
  100MOL0     H13447  12.425   7.509   2.506 -1.7820 -0.3145 -0.2835
  100MOL0     H13448  12.430   7.545   2.330 -1.1931 -1.5034  0.8456
  100MOL0     H13449  12.670   7.586   2.321 -1.7881  1.3444 -0.6394
  100MOL0     H13450  12.614   7.665   2.476 -2.2379 -0.1771 -1.4358
  100MOL0     H13451  12.752   7.646   2.680  1.0786  2.8414 -2.5023
  100MOL0     H13452  12.966   7.603   2.814 -1.9317  1.5447 -2.3564
  100MOL0     H13453  13.023   7.442   2.796  1.5251 -0.8942 -2.6865
  100MOL0     H13454  13.209   7.629   2.770 -0.5623 -1.1899  0.1875
  100MOL0     H13455  13.189   7.523   2.630 -0.0177 -0.6775 -0.8094
  100MOL0     H13456  13.034   7.728   2.531  0.9382  0.4688 -1.7437
  100MOL0     H13457  13.198   7.757   2.543 -1.5084  1.1941 -1.1172
  100MOL0     H13458  13.080   7.936   2.630 -1.3431 -0.0491  1.2233
  100MOL0     H13459  13.183   7.858   2.757 -0.9535 -6.1202  3.3487
  100MOL0     H13460  12.746   7.821   2.931  1.9379 -2.1594 -0.5606
  100MOL0     H13461  12.695   7.953   3.089 -1.1467  1.9433 -0.6612
  100MOL0     H13462  12.968   8.356   3.464 -0.2657  1.3742 -1.0414
  100MOL0     H13463  12.865   8.532   3.629  4.4892 -0.1486 -2.7932
  100MOL0     H13464  12.532   8.804   3.647  0.5963  1.8196 -1.8270
  100MOL0     H13465  12.525   8.746   3.495 -0.5412  0.9690  0.7229
  100MOL0     H13466  12.332   8.754   3.643 -2.8767 -2.0965 -4.3104
  100MOL0     H13467  12.329   8.593   3.573 -0.4063  0.8963 -1.6807
  100MOL0     H13468  12.458   8.523   3.793  0.7076  0.5610 -1.4885
  100MOL0     H13469  12.411   8.668   3.864  1.4165  0.1149 -0.5877
  100MOL0     H13470  12.229   8.451   3.750 -0.4646 -1.9206  2.5164
  100MOL0     H13471  12.157   8.601   3.791  0.1626 -0.2531 -2.5934
  100MOL0     H13472  12.112   8.460   3.973 -0.2478 -0.4506 -2.0118
  100MOL0     H13473  12.197   8.596   4.026  0.5608 -1.1176 -0.0175
  100MOL0     H13474  12.340   8.332   3.946 -1.9957 -1.3061  1.3340
  100MOL0     H13475  12.422   8.467   4.026  0.5583 -0.7192  5.0029
  100MOL0     H13476  12.348   8.255   4.161  1.0238  1.5264 -0.6235
  100MOL0     H13477  12.184   8.305   4.115  0.6445 -1.5668 -3.7719
  100MOL0     H13478  12.263   8.533   4.228 -1.7138 -1.5951 -1.1407
  100MOL0     H13479  12.217   8.409   4.334 -1.9171  2.0998 -0.6837
  100MOL0     H13480  12.510   8.530   3.406 -0.2474 -0.3074  2.8762
  100MOL0     H13481  12.620   8.387   3.230  0.6962 -1.7048  0.2110
  100MOL0     H13482  13.055   8.194   3.042  0.4463 -0.1268 -1.2108
  100MOL0     H13483  13.108   8.043   2.855  0.6808 -3.6381 -0.4805
  100MOL0     H13484  11.690   7.147   2.243 -0.5361 -0.7588 -2.4111
  100MOL0     H13485  11.477   7.149   2.143 -0.4724  0.5362  3.4259
  100MOL0     H13486  11.244   7.517   1.835 -0.3450  0.1292  0.0620
  100MOL0     H13487  11.072   7.577   1.702 -0.7185 -0.5856  1.1818
  100MOL0     H13488  10.814   7.264   1.477  0.1534 -0.3696 -0.5150
  100MOL0     H13489  10.925   7.363   1.387 -1.4881 -0.1441 -1.9592
  100MOL0     H13490  10.701   7.401   1.313  0.1367 -5.0398  2.1713
  100MOL0     H13491  10.775   7.553   1.384 -3.8680  1.2443  2.1339
  100MOL0     H13492  10.655   7.520   1.580  0.3718  1.4349 -0.4773
  100MOL0     H13493  10.586   7.356   1.528  0.1322  0.6646 -0.7879
  100MOL0     H13494  10.520   7.618   1.414 -2.6584  0.5324  0.6375
  100MOL0     H13495  10.477   7.465   1.340  0.6653 -1.9234  0.3109
  100MOL0     H13496  10.209   7.524   1.669 -0.8611 -3.9247 -0.8539
  100MOL0     H13497  10.984   7.170   1.606  2.0770 -1.5370 -0.7229
  100MOL0     H13498  11.102   6.999   1.682 -1.7612 -0.3878  1.4697
  100MOL0     H13499  11.243   7.015   1.786 -0.8611  0.2589  3.0990
  100MOL0     H13500  11.067   7.040   1.840 -1.5983  2.0839 -0.4073
  101MOL0     O13501   5.341   7.820   2.118  0.1842 -0.1834 -0.1182
  101MOL0     C13502   5.273   7.745   2.185 -0.0125 -0.7983 -0.3974
  101MOL0     O13503   5.280   7.730   2.316 -0.7366  0.6800 -0.1527
  101MOL0     C13504   5.396   7.762   2.370  0.4727  0.2254  1.3004
  101MOL0     C13505   5.396   7.866   2.468 -0.2261  0.1568 -0.6368
  101MOL0     C13506   5.507   7.860   2.564 -0.3519 -0.8116  0.3941
  101MOL0     C13507   5.615   7.777   2.553  0.2240  0.0026  0.7999
  101MOL0     O13508   5.725   7.768   2.644  0.5317  0.3654  0.6454
  101MOL0     C13509   5.703   7.847   2.764  0.0640 -0.6989 -0.4613
  101MOL0     C13510   5.837   7.824   2.839  0.1638  1.4972  0.3774
  101MOL0     C13511   5.955   7.863   2.760 -0.2531 -0.5659 -0.0375
  101MOL0     C13512   6.086   7.835   2.834  1.1264 -0.3866 -0.7798
  101MOL0     C13513   6.218   7.857   2.762 -0.2067 -0.4153  0.5827
  101MOL0     C13514   6.251   8.007   2.753  0.4159  0.8953 -0.6681
  101MOL0     C13515   6.397   8.022   2.714 -0.1352 -0.0050 -0.4413
  101MOL0     C13516   6.439   8.169   2.715 -0.4090  0.5136  0.9434
  101MOL0     N13517   6.355   8.261   2.633  0.9815 -0.0929  0.1213
  101MOL0     C13518   6.336   8.257   2.495  0.0179 -0.0698 -0.1594
  101MOL0     C13519   6.245   8.358   2.479  0.5418  0.6216  0.4594
  101MOL0     C13520   6.192   8.392   2.352 -0.2414  0.8581  0.1940
  101MOL0     C13521   6.285   8.459   2.248  0.3190 -0.4125  0.3624
  101MOL0     C13522   6.224   8.538   2.131 -0.5964 -0.3431  0.7762
  101MOL0     C13523   6.318   8.640   2.074 -0.2584 -0.5290 -0.0256
  101MOL0     O13524   6.444   8.572   2.029  0.5718 -0.5237 -0.1857
  101MOL0     C13525   6.553   8.648   1.983 -0.3407  0.4703 -0.4642
  101MOL0     C13526   6.660   8.572   1.936  0.4226 -0.3564  0.3008
  101MOL0     C13527   6.764   8.640   1.865 -0.1345 -0.9752  0.7266
  101MOL0     C13528   6.758   8.785   1.846 -0.6618  0.1906  0.3418
  101MOL0     C13529   6.856   8.856   1.759 -0.5772 -0.0700  0.3516
  101MOL0     O13530   6.971   8.782   1.733 -0.7282 -1.2383  0.3897
  101MOL0     C13531   7.076   8.835   1.657  0.2226  0.3361  0.2200
  101MOL0     C13532   7.199   8.826   1.715  0.8253 -0.4146  0.5712
  101MOL0     C13533   7.318   8.855   1.648  0.7709  0.6226  0.6226
  101MOL0     C13534   7.317   8.913   1.521  0.4349 -0.0768 -0.3136
  101MOL0     O13535   7.434   8.938   1.458 -0.2348  0.8189  0.2813
  101MOL0     C13536   7.426   8.958   1.318  0.3546 -0.2002 -0.9908
  101MOL0     C13537   7.566   8.958   1.256  0.4114 -0.2200 -1.4712
  101MOL0     C13538   7.631   8.825   1.276 -0.0901 -0.0715 -0.2972
  101MOL0     C13539   7.591   8.722   1.166  1.0964  0.3055  0.4094
  101MOL0     C13540   7.649   8.583   1.189  0.2371 -0.5668 -0.9029
  101MOL0     C13541   7.619   8.473   1.079 -0.5967  0.2656  0.7524
  101MOL0     C13542   7.629   8.335   1.137  0.0784  0.3074  0.5344
  101MOL0     C13543   7.649   8.222   1.029 -0.0983 -0.3570 -0.4669
  101MOL0    Cl13544   7.491   8.195   0.955 -0.0091  0.4248 -0.0029
  101MOL0     C13545   7.194   8.937   1.464 -1.4870 -0.0168  1.0316
  101MOL0     C13546   7.078   8.890   1.521  0.0422  0.3267 -0.3121
  101MOL0     O13547   6.842   8.969   1.726 -0.4397  0.3410 -0.1427
  101MOL0     C13548   6.656   8.853   1.916 -0.7914 -0.1759 -0.0387
  101MOL0     C13549   6.548   8.788   1.965 -0.3130  0.9329  0.5250
  101MOL0     N13550   6.213   8.418   2.605  0.1679  0.1477 -0.4892
  101MOL0     N13551   6.269   8.357   2.695 -0.3122  0.2645 -0.0330
  101MOL0     C13552   5.619   7.689   2.448  0.4348 -0.4145  0.1342
  101MOL0     C13553   5.507   7.675   2.369  0.8350  0.6265 -0.0268
  101MOL0     C13554   5.165   7.677   2.110 -0.3294  0.4965  0.0845
  101MOL0     C13555   5.137   7.719   1.973 -0.6344 -0.3342 -0.3438
  101MOL0     C13556   5.055   7.656   1.882  0.1567  0.3010 -0.9539
  101MOL0     C13557   5.003   7.530   1.918  0.3708  0.5619  0.6881
  101MOL0     O13558   4.939   7.428   1.847 -0.0716  0.7114 -0.1171
  101MOL0     C13559   4.896   7.456   1.721  0.4462  0.2824 -0.6477
  101MOL0     C13560   4.767   7.528   1.714  0.7118  0.0924 -0.9549
  101MOL0     C13561   4.722   7.555   1.568  0.5347 -0.3769  0.7295
  101MOL0     C13562   4.617   7.450   1.511 -0.2706  0.1313  0.8726
  101MOL0     C13563   4.682   7.322   1.510  0.3832 -0.3986  1.0858
  101MOL0     C13564   4.710   7.206   1.515  0.0205  0.3324 -0.1872
  101MOL0     C13565   5.027   7.492   2.048  0.2281 -0.1960 -0.9289
  101MOL0     C13566   5.111   7.554   2.141 -0.3172 -0.3270  0.6875
  101MOL0     C13567   5.142   7.478   2.267 -0.1711  0.2359  0.1270
  101MOL0     H13568   5.311   7.930   2.489  0.6739  0.5968  1.9461
  101MOL0     H13569   5.499   7.939   2.638  0.0938  0.0520 -0.4574
  101MOL0     H13570   5.692   7.955   2.749  1.2299 -0.2277  1.6687
  101MOL0     H13571   5.614   7.814   2.818  0.9142 -1.6468  0.4152
  101MOL0     H13572   5.847   7.716   2.855 -0.1982  1.6292  1.5777
  101MOL0     H13573   5.850   7.868   2.938 -4.2020  2.1467  0.8257
  101MOL0     H13574   5.941   7.964   2.722  0.6521 -0.5187 -0.2854
  101MOL0     H13575   5.950   7.805   2.667 -1.8833  0.8356 -0.8772
  101MOL0     H13576   6.082   7.887   2.930 -1.2444 -1.0822 -0.4269
  101MOL0     H13577   6.084   7.727   2.848 -0.3521 -0.3173 -0.2918
  101MOL0     H13578   6.294   7.805   2.820  0.3369  2.4245  2.6424
  101MOL0     H13579   6.225   7.819   2.660 -0.2362  4.1216 -1.3511
  101MOL0     H13580   6.186   8.045   2.675  2.7063  4.2323 -1.1479
  101MOL0     H13581   6.230   8.056   2.849  0.4008  0.2858 -0.3535
  101MOL0     H13582   6.418   7.971   2.620  1.1290 -0.3414  0.0031
  101MOL0     H13583   6.454   7.974   2.794  0.3849 -1.0682 -1.4263
  101MOL0     H13584   6.447   8.198   2.820 -1.8605  0.0732  1.2016
  101MOL0     H13585   6.540   8.162   2.674 -2.0879 -0.4021 -3.6810
  101MOL0     H13586   6.390   8.193   2.425  0.8359  0.4647 -0.0351
  101MOL0     H13587   6.153   8.311   2.290 -0.1273  1.3170 -0.4907
  101MOL0     H13588   6.112   8.460   2.381  0.4639  1.5631  0.5013
  101MOL0     H13589   6.340   8.532   2.307  1.7049  0.0179 -1.3725
  101MOL0     H13590   6.359   8.388   2.208 -1.1868 -1.2471 -1.1033
  101MOL0     H13591   6.139   8.589   2.176  0.0219  0.1246  1.4516
  101MOL0     H13592   6.195   8.469   2.051  1.0971 -1.8652  1.3923
  101MOL0     H13593   6.342   8.713   2.151 -1.6816 -1.2306  1.1293
  101MOL0     H13594   6.264   8.693   1.995  0.6448  0.3813 -0.0604
  101MOL0     H13595   6.656   8.465   1.950 -2.2163 -0.3935 -0.2335
  101MOL0     H13596   6.848   8.593   1.814  2.8923  4.4316  0.0317
  101MOL0     H13597   7.207   8.790   1.817 -1.7769 -1.2035  0.5870
  101MOL0     H13598   7.409   8.844   1.706  0.2110 -0.0385  1.4191
  101MOL0     H13599   7.363   8.881   1.271 -1.0102  0.0347  0.3706
  101MOL0     H13600   7.378   9.055   1.298 -0.1239  0.1035  1.3616
  101MOL0     H13601   7.544   8.978   1.151 -0.1453  0.8525 -1.1750
  101MOL0     H13602   7.638   9.038   1.281  0.2067 -0.4652  0.0225
  101MOL0     H13603   7.738   8.847   1.275 -0.3758  1.4758 -0.1403
  101MOL0     H13604   7.601   8.787   1.374 -2.5820 -1.6569 -1.5962
  101MOL0     H13605   7.620   8.765   1.070  2.2971  2.2987  1.5996
  101MOL0     H13606   7.482   8.713   1.176  1.2605  0.3514  2.9883
  101MOL0     H13607   7.606   8.555   1.286 -0.6989  0.3089 -1.0391
  101MOL0     H13608   7.757   8.577   1.202  0.3652 -1.4186 -2.2676
  101MOL0     H13609   7.520   8.502   1.044 -2.5924 -3.2968  2.9003
  101MOL0     H13610   7.695   8.495   1.004 -1.0940  1.4894  0.5897
  101MOL0     H13611   7.541   8.307   1.194 -0.3650 -1.7934 -1.0543
  101MOL0     H13612   7.723   8.336   1.193  1.9526 -1.3814 -2.2950
  101MOL0     H13613   7.728   8.261   0.964 -0.1670 -3.3166 -2.4768
  101MOL0     H13614   7.685   8.130   1.076  0.1426  0.0571  0.1768
  101MOL0     H13615   7.187   8.990   1.369 -2.7076 -2.1457 -0.1171
  101MOL0     H13616   6.983   8.910   1.472 -0.7813  0.4891  1.2726
  101MOL0     H13617   6.652   8.961   1.904 -0.0381 -0.3137 -1.8228
  101MOL0     H13618   6.470   8.859   1.988 -1.7791  0.2737 -1.9953
  101MOL0     H13619   5.707   7.632   2.418  1.4265  1.5012 -0.7355
  101MOL0     H13620   5.510   7.595   2.295 -0.4300  0.9829 -0.4967
  101MOL0     H13621   5.180   7.812   1.938 -2.8746  1.4324  1.2616
  101MOL0     H13622   5.067   7.688   1.779  2.9725 -2.5599 -1.6841
  101MOL0     H13623   4.868   7.361   1.676 -1.0377  1.2497 -1.8771
  101MOL0     H13624   4.977   7.507   1.667  1.8050 -0.8285  0.2654
  101MOL0     H13625   4.776   7.615   1.779 -2.7282 -0.4858  0.4985
  101MOL0     H13626   4.690   7.476   1.772 -0.3820  0.3020 -2.1631
  101MOL0     H13627   4.806   7.548   1.498 -0.7392  0.2635 -0.9359
  101MOL0     H13628   4.674   7.653   1.571 -0.0321 -0.6621  1.1357
  101MOL0     H13629   4.532   7.442   1.579 -0.4225 -2.3394  0.4917
  101MOL0     H13630   4.589   7.476   1.409  3.8657  1.4874 -0.1097
  101MOL0     H13631   4.713   7.099   1.524 -1.5742  0.4171  2.2952
  101MOL0     H13632   4.988   7.397   2.085 -2.9287  1.0483 -0.7345
  101MOL0     H13633   5.250   7.465   2.282 -0.1154  0.7064  0.1727
  101MOL0     H13634   5.123   7.533   2.360  2.2277 -2.1242  2.1783
  101MOL0     H13635   5.088   7.383   2.265 -3.1580  1.6228  3.4682
  102MOL0     O13636  10.108   5.863   5.014 -0.0172  0.0432  0.3873
  102MOL0     C13637  10.197   5.939   5.067 -0.4228 -0.9535 -0.2157
  102MOL0     O13638  10.215   5.958   5.197  0.1808  0.7826 -0.1018
  102MOL0     C13639  10.133   5.874   5.281 -0.8198  0.3389 -0.7072
  102MOL0     C13640  10.191   5.796   5.383 -0.7518 -1.6553  0.0625
  102MOL0     C13641  10.109   5.732   5.478 -0.1171  0.1430 -0.0502
  102MOL0     C13642   9.970   5.717   5.460  0.7374 -0.4083 -0.4960
  102MOL0     O13643   9.907   5.632   5.550 -0.3667 -0.4534  0.5135
  102MOL0     C13644   9.786   5.567   5.504 -0.2442  1.1095  0.4726
  102MOL0     C13645   9.669   5.652   5.553  0.5731  0.5367 -1.2733
  102MOL0     C13646   9.528   5.611   5.504 -0.1069 -0.2780 -0.6605
  102MOL0     C13647   9.412   5.658   5.601 -0.5142 -0.0892 -0.1923
  102MOL0     C13648   9.282   5.618   5.561  0.9590  0.6095  0.3250
  102MOL0     C13649   9.255   5.468   5.557  0.8200  0.3669  0.3388
  102MOL0     C13650   9.129   5.418   5.493 -0.4763 -0.0121  0.2944
  102MOL0     C13651   9.010   5.411   5.588 -0.3742 -0.0652 -1.0016
  102MOL0     N13652   8.896   5.432   5.498  0.1521 -0.0894 -0.0636
  102MOL0     C13653   8.879   5.362   5.379  1.1469  0.5455  0.0099
  102MOL0     C13654   8.762   5.411   5.333 -0.6861  0.1821  0.4739
  102MOL0     C13655   8.708   5.353   5.202  0.9240  0.0443 -0.4215
  102MOL0     C13656   8.589   5.432   5.137  0.1216 -0.3060 -0.1358
  102MOL0     C13657   8.630   5.568   5.077  1.1862  0.5662  0.6907
  102MOL0     C13658   8.543   5.619   4.963  1.1408 -0.3643 -0.5337
  102MOL0     O13659   8.536   5.511   4.867  0.4688  0.1577  1.0645
  102MOL0     C13660   8.467   5.535   4.746  0.7535 -0.9272 -0.2601
  102MOL0     C13661   8.410   5.666   4.713 -0.1864  0.4430  0.7330
  102MOL0     C13662   8.356   5.677   4.589 -0.2770 -0.2934  0.4518
  102MOL0     C13663   8.348   5.583   4.484 -0.5392 -0.8388 -0.6735
  102MOL0     C13664   8.299   5.617   4.350  0.2870 -0.0586  0.0522
  102MOL0     O13665   8.216   5.718   4.347 -0.0537  0.7548  0.4122
  102MOL0     C13666   8.156   5.771   4.231 -0.5023 -1.2636  1.0226
  102MOL0     C13667   8.218   5.763   4.098  0.3272 -0.7143  0.3599
  102MOL0     C13668   8.152   5.811   3.981  0.8097  0.8659  0.9404
  102MOL0     C13669   8.019   5.861   3.986 -0.3991  0.6203  0.3825
  102MOL0     O13670   7.940   5.905   3.885  0.1573 -0.2984 -0.2589
  102MOL0     C13671   8.003   5.942   3.760 -0.2825 -0.0638  0.1775
  102MOL0     C13672   7.903   5.978   3.661 -0.6704  0.2943 -0.3765
  102MOL0     C13673   7.834   6.109   3.676  0.3345  0.0231  0.0777
  102MOL0     C13674   7.771   6.148   3.541  0.7266 -0.3715  0.1652
  102MOL0     C13675   7.872   6.215   3.445 -1.7014  0.3872 -1.5082
  102MOL0     C13676   7.819   6.284   3.315 -0.4935  0.4871  0.1607
  102MOL0     C13677   7.800   6.175   3.213  0.6891 -0.0273  0.4141
  102MOL0     C13678   7.720   6.220   3.099 -0.4090  0.0825 -0.5965
  102MOL0    Cl13679   7.827   6.350   3.032 -0.1013  0.6094  0.1596
  102MOL0     C13680   7.947   5.843   4.114 -0.9271 -0.9132  0.2033
  102MOL0     C13681   8.021   5.800   4.229 -0.1563  0.3799 -0.8313
  102MOL0     O13682   8.326   5.557   4.252  0.2220  1.1252  0.3363
  102MOL0     C13683   8.390   5.453   4.517 -0.4454  0.3655 -0.0589
  102MOL0     C13684   8.453   5.440   4.642  0.0559 -0.4785 -0.3755
  102MOL0     N13685   8.722   5.518   5.402 -0.2554 -0.2026  0.0918
  102MOL0     N13686   8.810   5.533   5.492  0.0704  0.1565  1.2178
  102MOL0     C13687   9.909   5.809   5.360 -1.0116 -0.6046  1.1253
  102MOL0     C13688   9.998   5.884   5.280 -0.0485  0.8502  0.3143
  102MOL0     C13689  10.280   6.039   4.990  0.0285 -0.2238 -0.7666
  102MOL0     C13690  10.343   6.148   5.061  0.1042 -0.7496  0.4069
  102MOL0     C13691  10.411   6.253   4.993 -0.0559 -0.2481 -0.3680
  102MOL0     C13692  10.398   6.265   4.862  0.2085  0.4099  0.1848
  102MOL0     O13693  10.445   6.371   4.786  0.0225 -0.9343 -0.4092
  102MOL0     C13694  10.400   6.506   4.820  0.9544  0.0363  0.4025
  102MOL0     C13695  10.278   6.562   4.751  0.4206 -0.9216 -0.0806
  102MOL0     C13696  10.260   6.707   4.802  0.3341 -0.2837 -0.3601
  102MOL0     C13697  10.132   6.778   4.750 -0.5284  0.3490  0.6369
  102MOL0     C13698   9.998   6.708   4.777 -0.3410  0.5757 -0.0227
  102MOL0     C13699   9.880   6.686   4.806 -0.8221  0.3889  0.2838
  102MOL0     C13700  10.341   6.148   4.783 -1.0940  0.0170 -0.3996
  102MOL0     C13701  10.279   6.037   4.856 -0.2393  0.3680  0.2395
  102MOL0     C13702  10.229   5.924   4.764  1.1404  1.0623 -0.0190
  102MOL0     H13703  10.299   5.794   5.394 -0.9645 -1.9576  2.6609
  102MOL0     H13704  10.169   5.690   5.558  1.4660  1.3484 -0.5454
  102MOL0     H13705   9.793   5.560   5.395  2.4401  1.6482  0.5290
  102MOL0     H13706   9.774   5.465   5.543  0.2423  1.5218  1.7681
  102MOL0     H13707   9.682   5.760   5.543 -2.0845  1.1922  1.0009
  102MOL0     H13708   9.668   5.652   5.662 -1.4073 -0.5956 -1.2483
  102MOL0     H13709   9.526   5.502   5.495 -1.9050 -0.2141 -1.4208
  102MOL0     H13710   9.511   5.646   5.402  4.3665  0.1647 -1.4377
  102MOL0     H13711   9.438   5.611   5.697  4.7819 -2.5737 -2.4586
  102MOL0     H13712   9.401   5.766   5.615 -1.6639 -0.3267  0.9306
  102MOL0     H13713   9.216   5.665   5.635  1.2201  0.8960  0.3812
  102MOL0     H13714   9.256   5.652   5.460 -0.3910 -3.9991 -1.1360
  102MOL0     H13715   9.327   5.407   5.501 -4.9559 -3.7804 -3.8385
  102MOL0     H13716   9.252   5.425   5.657  1.2489 -3.7536 -1.2248
  102MOL0     H13717   9.147   5.316   5.460  1.2230  0.7992 -1.4428
  102MOL0     H13718   9.108   5.477   5.404 -1.2182 -2.0334 -0.9384
  102MOL0     H13719   9.013   5.313   5.638  0.7393  0.2084 -0.5043
  102MOL0     H13720   9.010   5.489   5.665 -3.1607 -0.8818 -0.0512
  102MOL0     H13721   8.939   5.281   5.338 -0.2970 -0.7547  0.3843
  102MOL0     H13722   8.790   5.341   5.130  1.2377 -0.2648 -0.0109
  102MOL0     H13723   8.667   5.254   5.224 -1.9752  1.7219  2.5868
  102MOL0     H13724   8.558   5.367   5.055 -0.7824 -1.1038  0.8126
  102MOL0     H13725   8.501   5.437   5.201 -0.4110 -3.1491 -0.5143
  102MOL0     H13726   8.733   5.562   5.040  1.0493 -0.0939  0.4144
  102MOL0     H13727   8.626   5.641   5.159  0.4780  0.3814  0.8230
  102MOL0     H13728   8.576   5.713   4.919  0.8983  0.0905  0.2254
  102MOL0     H13729   8.442   5.639   5.001  1.8643  5.0672 -0.7374
  102MOL0     H13730   8.402   5.748   4.784  0.9198  2.4303 -1.2823
  102MOL0     H13731   8.315   5.773   4.559  0.6710 -0.2299 -0.7175
  102MOL0     H13732   8.320   5.729   4.083  2.1974  4.5023 -0.6806
  102MOL0     H13733   8.211   5.805   3.890 -0.5205 -0.6567  0.1325
  102MOL0     H13734   8.078   6.020   3.777  0.3574 -0.2207 -1.6358
  102MOL0     H13735   8.059   5.850   3.740  2.3284  1.4939 -0.1647
  102MOL0     H13736   7.962   5.982   3.570  1.7203 -3.2794  0.7944
  102MOL0     H13737   7.831   5.895   3.654  2.3178 -2.7472  1.5859
  102MOL0     H13738   7.749   6.105   3.744  0.0748  2.4850 -0.0155
  102MOL0     H13739   7.902   6.187   3.713 -0.5677  0.7761  0.1944
  102MOL0     H13740   7.691   6.213   3.577  0.7106  0.5660 -1.4502
  102MOL0     H13741   7.717   6.069   3.487 -0.7744  0.2076  0.7708
  102MOL0     H13742   7.944   6.141   3.406  1.7140  3.3653 -1.3576
  102MOL0     H13743   7.932   6.284   3.504 -0.9140 -0.9884 -0.6324
  102MOL0     H13744   7.725   6.336   3.337  0.9424  2.4264  2.2346
  102MOL0     H13745   7.892   6.358   3.281  1.0129 -1.4177 -0.9696
  102MOL0     H13746   7.744   6.099   3.268  0.6832 -0.0976  0.3106
  102MOL0     H13747   7.899   6.133   3.194  0.9503  0.9172 -0.3701
  102MOL0     H13748   7.704   6.139   3.026  1.1013 -0.5774 -0.2216
  102MOL0     H13749   7.629   6.271   3.132 -0.6723 -0.3724 -0.6122
  102MOL0     H13750   7.845   5.881   4.123  0.3485  3.0615 -0.2653
  102MOL0     H13751   7.968   5.789   4.323 -2.0240  0.4292 -1.8434
  102MOL0     H13752   8.412   5.372   4.449  1.6090  0.8724 -0.0658
  102MOL0     H13753   8.486   5.343   4.677  1.3972 -0.8650 -2.5073
  102MOL0     H13754   9.804   5.829   5.339 -0.2302  1.3181 -1.5077
  102MOL0     H13755   9.969   5.939   5.191 -1.6088 -3.2889 -2.0590
  102MOL0     H13756  10.331   6.164   5.168  0.6105 -2.5675  0.7568
  102MOL0     H13757  10.460   6.330   5.051 -2.6640  1.9854 -0.9418
  102MOL0     H13758  10.483   6.572   4.792  2.3856 -2.2598 -1.1344
  102MOL0     H13759  10.390   6.516   4.929  3.1200  1.1350  0.5631
  102MOL0     H13760  10.196   6.496   4.779 -1.6221  2.1036  1.6625
  102MOL0     H13761  10.284   6.555   4.642 -1.8536  0.8767 -0.3997
  102MOL0     H13762  10.339   6.779   4.779  0.1359  1.2150  3.0223
  102MOL0     H13763  10.261   6.705   4.911  2.3518 -0.0781 -0.3497
  102MOL0     H13764  10.115   6.882   4.778  0.8248  1.3209 -1.8743
  102MOL0     H13765  10.143   6.771   4.642 -1.1207 -3.1160  0.6918
  102MOL0     H13766   9.784   6.694   4.852 -0.4471  2.3145  0.8614
  102MOL0     H13767  10.325   6.154   4.676 -0.0281 -0.5436 -0.6035
  102MOL0     H13768  10.302   5.844   4.780  0.7676  1.0259  1.6214
  102MOL0     H13769  10.129   5.891   4.789  1.8851 -1.8669 -0.5857
  102MOL0     H13770  10.226   5.948   4.657 -1.1469 -2.9069 -1.0233
  103MOL0     O13771   6.864   2.676   2.999 -0.3761 -0.3751  0.5776
  103MOL0     C13772   6.846   2.680   3.114 -0.3789  0.8356 -0.7450
  103MOL0     O13773   6.947   2.672   3.212  0.9236  0.5001 -0.0404
  103MOL0     C13774   7.079   2.652   3.180 -0.0298  0.4067  0.1988
  103MOL0     C13775   7.149   2.579   3.278 -0.3452 -1.7815 -0.0957
  103MOL0     C13776   7.289   2.548   3.260 -1.1426  0.5304 -0.4652
  103MOL0     C13777   7.357   2.600   3.148 -0.5318  0.6402 -0.3342
  103MOL0     O13778   7.490   2.599   3.123 -0.8129 -0.1052  0.7516
  103MOL0     C13779   7.588   2.544   3.204  0.1617  0.7490  0.1354
  103MOL0     C13780   7.729   2.573   3.149  0.6076  0.1324  0.3538
  103MOL0     C13781   7.815   2.449   3.132  0.0766 -0.8694 -0.4691
  103MOL0     C13782   7.957   2.485   3.089  0.1182 -0.2199 -0.6545
  103MOL0     C13783   8.050   2.369   3.056  0.9043 -0.1665  0.6687
  103MOL0     C13784   8.037   2.250   3.159  0.0108  0.0054  0.8051
  103MOL0     C13785   8.133   2.136   3.135 -0.9400 -0.4190 -0.4159
  103MOL0     C13786   8.128   2.041   3.247 -0.1173  0.0256  0.1854
  103MOL0     N13787   8.011   1.947   3.247  0.0135  0.8513  0.1104
  103MOL0     C13788   7.983   1.853   3.147 -0.1862 -0.6912  0.0822
  103MOL0     C13789   7.872   1.790   3.192  0.0289  0.1924  0.3888
  103MOL0     C13790   7.806   1.660   3.137  0.2943  0.6795 -0.3212
  103MOL0     C13791   7.894   1.567   3.047  0.6405  0.6423  0.0849
  103MOL0     C13792   7.906   1.619   2.899 -1.4309  0.9120  0.0570
  103MOL0     C13793   7.996   1.524   2.813 -0.3676  1.0411  0.7294
  103MOL0     O13794   7.912   1.413   2.775  0.3652  0.1103 -0.1322
  103MOL0     C13795   7.968   1.335   2.675  0.3924  0.3752 -0.3739
  103MOL0     C13796   8.097   1.280   2.677 -0.6556 -0.0278 -0.5737
  103MOL0     C13797   8.150   1.211   2.566  0.2995  0.3817 -0.5743
  103MOL0     C13798   8.073   1.173   2.458  0.1275 -0.1363  0.2094
  103MOL0     C13799   8.118   1.093   2.341 -0.1671 -0.1257  0.7238
  103MOL0     O13800   8.198   0.985   2.380 -0.9703 -0.3378  0.5663
  103MOL0     C13801   8.230   0.880   2.293 -0.3811 -0.3890  0.2881
  103MOL0     C13802   8.240   0.901   2.158  0.6865 -0.4656  1.1897
  103MOL0     C13803   8.241   0.795   2.067 -0.1628  0.2640  0.6222
  103MOL0     C13804   8.252   0.658   2.107  0.2207 -0.3447 -0.8143
  103MOL0     O13805   8.239   0.534   2.045 -0.3996  0.5811 -0.5414
  103MOL0     C13806   8.153   0.537   1.933  0.8620  0.7347  0.7540
  103MOL0     C13807   8.122   0.399   1.878 -0.3252  0.2145  0.3893
  103MOL0     C13808   8.232   0.366   1.775  0.3632 -0.4961 -0.6717
  103MOL0     C13809   8.239   0.220   1.720  0.1495  0.9880  0.0351
  103MOL0     C13810   8.381   0.184   1.654 -0.6069  0.0780 -0.7257
  103MOL0     C13811   8.408   0.038   1.626  0.1138  0.1233  0.0505
  103MOL0     C13812   8.547   0.027   1.562 -0.7080  0.4518  1.3415
  103MOL0     C13813   8.615  -0.105   1.608 -0.4582  1.1707 -0.5302
  103MOL0    Cl13814   8.519  -0.244   1.559 -0.0260 -0.0382  0.4690
  103MOL0     C13815   8.248   0.642   2.247  0.9708  0.5137 -0.6556
  103MOL0     C13816   8.247   0.746   2.338  0.5599  0.2676 -0.4877
  103MOL0     O13817   8.068   1.105   2.229 -0.8883  0.1481  0.5266
  103MOL0     C13818   7.939   1.219   2.466  0.2884 -0.3465  0.6253
  103MOL0     C13819   7.885   1.303   2.563 -0.9448 -1.0120  0.3153
  103MOL0     N13820   7.844   1.841   3.319  0.4256  0.6478  0.5337
  103MOL0     N13821   7.918   1.940   3.351 -0.9987 -0.4436 -0.4861
  103MOL0     C13822   7.281   2.667   3.054 -1.2573 -0.6042  1.3530
  103MOL0     C13823   7.145   2.695   3.058  0.2658  0.0656  0.1382
  103MOL0     C13824   6.706   2.706   3.164  0.0923 -0.6548 -0.1710
  103MOL0     C13825   6.692   2.725   3.300 -0.4117  0.5306 -0.2166
  103MOL0     C13826   6.561   2.737   3.353 -0.6598  0.9360 -0.5632
  103MOL0     C13827   6.454   2.738   3.266  0.0876 -0.0042 -0.9368
  103MOL0     O13828   6.319   2.757   3.308  0.4582  0.9910 -0.4442
  103MOL0     C13829   6.273   2.890   3.297  0.8498  0.3864 -0.3808
  103MOL0     C13830   6.294   2.961   3.431  0.0453 -0.2247  0.3255
  103MOL0     C13831   6.230   2.874   3.544 -0.7654  0.1574  0.6885
  103MOL0     C13832   6.258   2.934   3.679 -0.6194  0.2400 -0.4562
  103MOL0     C13833   6.196   3.060   3.713  0.7962 -0.0688  0.2763
  103MOL0     C13834   6.131   3.161   3.732  0.4336 -0.6903  0.1798
  103MOL0     C13835   6.470   2.727   3.132 -0.1265 -0.2288  1.3151
  103MOL0     C13836   6.592   2.703   3.074 -1.7516 -1.0313 -1.2370
  103MOL0     C13837   6.598   2.706   2.921  0.0864 -0.4233  0.5382
  103MOL0     H13838   7.094   2.543   3.363 -2.6783  0.5570 -0.4808
  103MOL0     H13839   7.350   2.491   3.330 -0.2731  1.4509 -0.4492
  103MOL0     H13840   7.572   2.587   3.303  0.1202 -1.2609  1.0585
  103MOL0     H13841   7.573   2.438   3.224 -0.3289  0.6633 -0.6280
  103MOL0     H13842   7.773   2.633   3.229  0.5823  2.2149 -1.0991
  103MOL0     H13843   7.723   2.640   3.062  0.6878  0.5846  0.6956
  103MOL0     H13844   7.779   2.387   3.049  3.1706  0.0458 -2.6930
  103MOL0     H13845   7.817   2.395   3.227  4.7376 -1.7031 -0.8256
  103MOL0     H13846   7.944   2.542   2.997  0.5269  1.3549  0.2254
  103MOL0     H13847   8.004   2.559   3.153  2.6463 -0.3455 -2.2282
  103MOL0     H13848   8.013   2.340   2.957  0.3045  1.1406  0.4895
  103MOL0     H13849   8.150   2.412   3.061  0.6809  0.6430 -1.1961
  103MOL0     H13850   8.051   2.297   3.257  0.6839 -1.0591  1.2289
  103MOL0     H13851   7.934   2.215   3.154  0.3412 -1.2002  2.1082
  103MOL0     H13852   8.230   2.187   3.131 -1.6409  1.1631  1.1466
  103MOL0     H13853   8.107   2.093   3.038 -1.0669  0.6418 -0.8744
  103MOL0     H13854   8.218   1.983   3.226  0.5424  0.8525  0.6761
  103MOL0     H13855   8.148   2.087   3.344 -3.2748  2.7344 -0.2625
  103MOL0     H13856   8.052   1.842   3.064 -0.9125  0.8113 -0.7634
  103MOL0     H13857   7.777   1.598   3.223  0.9146  0.2389 -0.4190
  103MOL0     H13858   7.713   1.685   3.086 -0.2306  2.0580  1.2269
  103MOL0     H13859   7.991   1.540   3.090  1.1799 -2.1835 -2.5570
  103MOL0     H13860   7.848   1.468   3.050 -1.2998  1.4997  1.0255
  103MOL0     H13861   7.954   1.717   2.887  1.6268 -0.7968 -3.5837
  103MOL0     H13862   7.805   1.623   2.857 -0.9820 -0.7148 -1.2593
  103MOL0     H13863   8.082   1.487   2.870 -2.1209 -0.2210  2.7227
  103MOL0     H13864   8.043   1.580   2.732  3.8103 -1.0024  1.4626
  103MOL0     H13865   8.163   1.277   2.763 -0.2034 -1.9267 -0.9455
  103MOL0     H13866   8.255   1.184   2.575 -0.2050 -0.9197  5.3253
  103MOL0     H13867   8.243   1.002   2.116  2.8399 -0.9362  0.0791
  103MOL0     H13868   8.255   0.832   1.966  0.2191  3.0649  1.6312
  103MOL0     H13869   8.055   0.580   1.954  0.0059 -0.2079 -1.0837
  103MOL0     H13870   8.195   0.608   1.861 -4.0193  0.8758 -2.4216
  103MOL0     H13871   8.112   0.335   1.966 -0.0629 -0.4069 -0.0250
  103MOL0     H13872   8.020   0.408   1.838 -0.2756 -0.8343 -0.0017
  103MOL0     H13873   8.218   0.441   1.697  1.7034  1.6588  1.0313
  103MOL0     H13874   8.331   0.382   1.819  0.5363  0.0895 -1.2515
  103MOL0     H13875   8.152   0.207   1.655 -0.0692  2.9552 -0.1171
  103MOL0     H13876   8.220   0.148   1.800 -0.8934  0.6774 -0.4677
  103MOL0     H13877   8.460   0.208   1.726 -1.5245 -3.3265  1.6289
  103MOL0     H13878   8.391   0.256   1.572  1.5177 -1.3009 -1.7750
  103MOL0     H13879   8.407  -0.015   1.722  0.9628  3.6612  2.1905
  103MOL0     H13880   8.335   0.002   1.553 -0.7467  0.3545  0.7879
  103MOL0     H13881   8.611   0.111   1.589  1.2062  1.3274 -4.5111
  103MOL0     H13882   8.531   0.041   1.455 -2.2329  2.0198  1.7438
  103MOL0     H13883   8.710  -0.124   1.556 -0.5188 -1.2958  0.1699
  103MOL0     H13884   8.620  -0.106   1.717  0.6830 -2.1722 -0.4868
  103MOL0     H13885   8.240   0.539   2.282 -1.0456 -0.1892 -2.9345
  103MOL0     H13886   8.252   0.715   2.442  1.7736 -1.3637 -1.0034
  103MOL0     H13887   7.884   1.202   2.374  1.4342 -1.7515  0.1781
  103MOL0     H13888   7.789   1.352   2.551  0.2698  0.7127 -3.8574
  103MOL0     H13889   7.336   2.699   2.966  0.2367  1.8175  3.0313
  103MOL0     H13890   7.091   2.744   2.977 -1.2486 -1.2665  0.3015
  103MOL0     H13891   6.775   2.719   3.369  0.6544 -0.0327 -1.4952
  103MOL0     H13892   6.547   2.737   3.461  0.3975 -0.3258 -0.3908
  103MOL0     H13893   6.167   2.891   3.267  0.7816 -1.9502 -0.3844
  103MOL0     H13894   6.328   2.953   3.227 -0.5947  0.6807 -1.2979
  103MOL0     H13895   6.233   3.053   3.432 -0.1036 -0.3093 -0.3075
  103MOL0     H13896   6.400   2.979   3.450  0.0750  0.7525 -0.6560
  103MOL0     H13897   6.270   2.773   3.539  1.2566  0.9578 -1.6846
  103MOL0     H13898   6.121   2.874   3.528 -0.8593 -3.1902  0.7108
  103MOL0     H13899   6.225   2.867   3.759 -1.8265  1.6916  0.3189
  103MOL0     H13900   6.367   2.946   3.683 -0.8082  1.9370  1.0198
  103MOL0     H13901   6.071   3.247   3.751 -1.4099 -1.4517 -1.8437
  103MOL0     H13902   6.384   2.730   3.066  1.6028  0.3123 -1.0386
  103MOL0     H13903   6.651   2.800   2.903  1.3020 -0.6967  2.3478
  103MOL0     H13904   6.653   2.622   2.877  0.0279  0.8182 -2.0918
  103MOL0     H13905   6.504   2.720   2.868 -0.6903  2.0608  2.3995
  104MOL0     O13906   1.612   2.467   2.435  0.1006 -0.9879 -0.4216
  104MOL0     C13907   1.589   2.487   2.313 -0.1890  1.2797 -0.0618
  104MOL0     O13908   1.472   2.462   2.245 -0.2695 -0.0536  0.4301
  104MOL0     C13909   1.367   2.401   2.314 -0.4931 -0.0437  1.0928
  104MOL0     C13910   1.268   2.481   2.378 -0.3548  0.4111  0.1189
  104MOL0     C13911   1.171   2.420   2.455  0.7959 -0.4815 -0.0704
  104MOL0     C13912   1.157   2.286   2.463  0.2627  0.2757 -0.9206
  104MOL0     O13913   1.047   2.243   2.539 -1.2643 -0.5615 -0.7850
  104MOL0     C13914   1.067   2.123   2.618  0.3110 -0.2684  0.4988
  104MOL0     C13915   0.989   2.008   2.550 -0.6547  0.3637 -1.1815
  104MOL0     C13916   1.022   1.880   2.636 -0.3472  0.6606  0.4637
  104MOL0     C13917   0.958   1.867   2.779 -0.1506 -0.2828 -0.2176
  104MOL0     C13918   1.067   1.866   2.891 -0.5076  0.7360 -0.5213
  104MOL0     C13919   1.014   1.817   3.027  0.3412 -0.3210  0.9308
  104MOL0     C13920   1.132   1.810   3.128 -0.6554  0.0349 -0.3073
  104MOL0     C13921   1.271   1.763   3.065 -0.6006 -0.8440 -0.0343
  104MOL0     N13922   1.364   1.713   3.171 -0.6629 -0.3036  0.1836
  104MOL0     C13923   1.450   1.781   3.247  0.0145 -1.1071 -1.0927
  104MOL0     C13924   1.528   1.684   3.311 -0.8788 -0.7022 -0.5323
  104MOL0     C13925   1.642   1.712   3.411  0.5466  0.3622 -0.5945
  104MOL0     C13926   1.723   1.839   3.384 -0.3454  0.0401 -0.3270
  104MOL0     C13927   1.792   1.822   3.241  0.4819 -0.5670  0.3196
  104MOL0     C13928   1.846   1.951   3.166 -0.8078  0.8554  0.1081
  104MOL0     O13929   1.975   2.002   3.225  0.1206  0.3077 -0.1461
  104MOL0     C13930   2.022   2.121   3.171 -0.6135 -0.1667 -0.2793
  104MOL0     C13931   1.988   2.184   3.052  0.6648 -0.8806 -0.1528
  104MOL0     C13932   2.050   2.300   3.013  0.1067  0.2457  1.0869
  104MOL0     C13933   2.143   2.374   3.095 -0.1721  0.1754  0.4733
  104MOL0     C13934   2.197   2.511   3.064 -0.1967 -0.6705  0.1187
  104MOL0     O13935   2.293   2.571   3.149 -0.0516  0.5741 -0.3634
  104MOL0     C13936   2.313   2.711   3.157 -0.1209 -0.0636 -0.2171
  104MOL0     C13937   2.440   2.763   3.180  0.2175  0.3691  0.3261
  104MOL0     C13938   2.456   2.897   3.178 -0.6577 -0.5046  0.2836
  104MOL0     C13939   2.350   2.987   3.170 -0.0969 -0.3485 -0.6252
  104MOL0     O13940   2.359   3.116   3.188  0.5045  0.0040  0.0062
  104MOL0     C13941   2.435   3.189   3.092 -0.0904 -0.0259  0.1688
  104MOL0     C13942   2.487   3.311   3.155  0.1297  0.5021  1.3013
  104MOL0     C13943   2.603   3.286   3.247 -1.3201  0.0372  0.1568
  104MOL0     C13944   2.599   3.352   3.391 -0.6204 -0.0831  0.6859
  104MOL0     C13945   2.711   3.308   3.491  0.3645  0.2066  0.5911
  104MOL0     C13946   2.709   3.155   3.513  0.4138 -0.1165  0.1267
  104MOL0     C13947   2.794   3.127   3.639 -0.2513 -0.2231  0.0646
  104MOL0     C13948   2.851   2.986   3.616  0.3569  0.0264 -0.0152
  104MOL0    Cl13949   2.941   2.933   3.762 -0.5113  0.0840 -0.0434
  104MOL0     C13950   2.224   2.936   3.158 -0.4434 -0.8112 -0.3383
  104MOL0     C13951   2.207   2.804   3.150 -0.6675  0.1779  0.0917
  104MOL0     O13952   2.154   2.562   2.970  0.5780 -0.3842 -0.4017
  104MOL0     C13953   2.168   2.313   3.220  0.7149  0.2511  1.0492
  104MOL0     C13954   2.112   2.185   3.255 -0.3896 -0.3732  0.4914
  104MOL0     N13955   1.486   1.561   3.274  0.9060  0.6996  0.2568
  104MOL0     N13956   1.400   1.584   3.183 -1.2358 -0.6613  0.6107
  104MOL0     C13957   1.258   2.201   2.407  0.2410 -0.1926  0.0319
  104MOL0     C13958   1.364   2.255   2.334 -0.3784  0.7637  0.1010
  104MOL0     C13959   1.688   2.560   2.234 -0.2891 -0.2031  0.2886
  104MOL0     C13960   1.710   2.528   2.100 -0.2759 -0.6366 -0.0347
  104MOL0     C13961   1.813   2.582   2.027 -0.8087  0.2607  0.3967
  104MOL0     C13962   1.893   2.689   2.073 -0.4271  0.4361  0.2296
  104MOL0     O13963   2.002   2.720   2.000  0.1313 -0.0656  0.4240
  104MOL0     C13964   2.114   2.778   2.068  0.2435  0.6411  0.1784
  104MOL0     C13965   2.247   2.784   1.998  0.2013  0.4751  0.1056
  104MOL0     C13966   2.341   2.851   2.101 -0.7338  0.0307  0.7833
  104MOL0     C13967   2.343   3.012   2.085  0.9363  0.0685 -0.5136
  104MOL0     C13968   2.388   3.054   1.954 -0.8309  0.7435 -0.1480
  104MOL0     C13969   2.405   3.094   1.841 -0.1063 -0.0897 -1.1216
  104MOL0     C13970   1.864   2.739   2.199 -0.7849  0.6119 -0.8901
  104MOL0     C13971   1.765   2.674   2.275 -0.6372 -0.5068 -0.5938
  104MOL0     C13972   1.736   2.745   2.407  0.3821  0.4062  0.2506
  104MOL0     H13973   1.258   2.587   2.358 -1.9742  0.1172 -0.7935
  104MOL0     H13974   1.095   2.482   2.503  1.8711  0.8990 -0.1024
  104MOL0     H13975   1.175   2.108   2.632  0.5607 -0.8395 -1.5918
  104MOL0     H13976   1.019   2.130   2.715 -1.9949 -0.3356 -0.5737
  104MOL0     H13977   1.021   1.992   2.447 -1.2923 -3.3796 -0.9454
  104MOL0     H13978   0.884   2.035   2.558 -1.1476 -1.0653 -2.3110
  104MOL0     H13979   1.130   1.866   2.646 -0.6244 -0.4400  2.2871
  104MOL0     H13980   0.984   1.799   2.572  1.8565 -2.0510  2.3664
  104MOL0     H13981   0.904   1.960   2.798 -0.6822 -1.2570  4.1571
  104MOL0     H13982   0.886   1.786   2.793 -2.1075  1.8319  3.4658
  104MOL0     H13983   1.137   1.791   2.852 -0.7505  0.8072 -1.1112
  104MOL0     H13984   1.131   1.955   2.889  1.2242 -0.4533 -2.4028
  104MOL0     H13985   0.931   1.877   3.065  0.3375 -0.3756  1.0096
  104MOL0     H13986   0.979   1.716   3.006 -0.5228  0.0280  0.6513
  104MOL0     H13987   1.114   1.740   3.210  1.3145  0.5326  0.6280
  104MOL0     H13988   1.152   1.905   3.180  3.5970 -1.1648  0.6917
  104MOL0     H13989   1.262   1.687   2.987 -2.0846 -0.1791 -0.5318
  104MOL0     H13990   1.325   1.850   3.026  0.2365 -0.0892  2.5552
  104MOL0     H13991   1.451   1.889   3.260 -1.9576 -0.8334 -2.8080
  104MOL0     H13992   1.593   1.730   3.507 -0.9573 -1.0103 -1.0499
  104MOL0     H13993   1.713   1.628   3.417  2.2124  1.7032 -0.8444
  104MOL0     H13994   1.655   1.924   3.371  0.1287  0.3601 -0.7730
  104MOL0     H13995   1.789   1.848   3.470 -1.2128  2.9103  0.1569
  104MOL0     H13996   1.726   1.776   3.168  0.0402  1.2057 -0.4529
  104MOL0     H13997   1.870   1.745   3.243  1.8410  0.5402 -2.9856
  104MOL0     H13998   1.782   2.040   3.169  0.4232  1.7527  2.1216
  104MOL0     H13999   1.847   1.922   3.061  0.5216 -0.9683  0.5793
  104MOL0     H14000   1.927   2.125   2.985  1.3295 -1.0439 -0.6326
  104MOL0     H14001   2.043   2.333   2.910 -1.0654 -3.7272 -0.2906
  104MOL0     H14002   2.518   2.695   3.210 -0.6393 -1.1939 -0.8210
  104MOL0     H14003   2.553   2.945   3.189 -0.8712  0.0170 -0.0702
  104MOL0     H14004   2.525   3.139   3.055  0.1950  0.2351  0.5050
  104MOL0     H14005   2.375   3.222   3.006  1.0058  2.4840  0.3146
  104MOL0     H14006   2.523   3.362   3.066 -0.4462 -1.7841 -0.3303
  104MOL0     H14007   2.411   3.369   3.210 -1.2463 -0.8303  0.8713
  104MOL0     H14008   2.617   3.178   3.260  0.2878  0.3572  1.3735
  104MOL0     H14009   2.692   3.326   3.199 -1.0669  1.9191  2.0030
  104MOL0     H14010   2.511   3.322   3.448  0.0605 -0.3699  1.6305
  104MOL0     H14011   2.598   3.462   3.394 -2.1774  0.0545 -1.9337
  104MOL0     H14012   2.706   3.359   3.588 -0.2130 -0.7499  1.0815
  104MOL0     H14013   2.807   3.331   3.444 -0.0976 -1.9074 -1.5524
  104MOL0     H14014   2.609   3.114   3.527  0.9417 -1.1175  1.1877
  104MOL0     H14015   2.762   3.122   3.422 -2.6443  1.6805 -2.5061
  104MOL0     H14016   2.741   3.122   3.734  0.5012 -2.9161  0.4343
  104MOL0     H14017   2.876   3.199   3.650 -1.1607  0.7149  0.9282
  104MOL0     H14018   2.765   2.921   3.598 -3.5312  4.6225 -0.1973
  104MOL0     H14019   2.921   2.990   3.532 -0.0367 -0.5364 -0.3819
  104MOL0     H14020   2.140   3.004   3.166 -0.7351 -1.1861 -0.1770
  104MOL0     H14021   2.107   2.762   3.152 -0.5111 -0.1595  1.2833
  104MOL0     H14022   2.248   2.354   3.280 -1.3789  2.7070  2.3671
  104MOL0     H14023   2.164   2.133   3.334  0.7974 -0.3210 -0.2379
  104MOL0     H14024   1.267   2.093   2.415  2.3632 -0.0788 -0.3862
  104MOL0     H14025   1.436   2.184   2.294  1.5600  3.2409 -1.1013
  104MOL0     H14026   1.648   2.456   2.048  0.4429 -0.3228 -1.3944
  104MOL0     H14027   1.833   2.548   1.926  0.4111  1.7251  0.1134
  104MOL0     H14028   2.124   2.716   2.157 -2.0271 -0.6315 -0.3647
  104MOL0     H14029   2.087   2.879   2.102  1.0284 -0.0830  3.2385
  104MOL0     H14030   2.261   2.826   1.898  1.4228 -2.1023 -0.9072
  104MOL0     H14031   2.289   2.685   1.979 -1.1677 -0.3827  1.3175
  104MOL0     H14032   2.438   2.810   2.072  0.7729  4.4202 -1.2702
  104MOL0     H14033   2.321   2.824   2.205  0.3828 -0.6470  0.8368
  104MOL0     H14034   2.242   3.053   2.096  1.3095  1.4220 -1.7900
  104MOL0     H14035   2.403   3.063   2.162 -2.0972  2.3821  0.5062
  104MOL0     H14036   2.400   3.130   1.740 -0.0862  2.4314 -0.2996
  104MOL0     H14037   1.917   2.816   2.254 -0.5714 -0.0348 -0.1728
  104MOL0     H14038   1.777   2.687   2.489 -0.6281 -1.6082 -0.5882
  104MOL0     H14039   1.770   2.848   2.392  3.0823 -0.2862  1.1589
  104MOL0     H14040   1.627   2.754   2.408  0.3105  0.5933 -2.4207
  105MOL0     O14041  11.158   8.452   9.421  0.1047  0.1897  0.1509
  105MOL0     C14042  11.071   8.363   9.440  0.2143 -0.0804 -0.1270
  105MOL0     O14043  11.101   8.237   9.470  0.2578  0.1964 -1.0710
  105MOL0     C14044  11.224   8.182   9.488 -0.4553  0.5995 -0.5536
  105MOL0     C14045  11.227   8.046   9.482 -0.5147  0.8078 -0.5763
  105MOL0     C14046  11.348   7.979   9.524  0.9170  0.7657 -0.1279
  105MOL0     C14047  11.461   8.049   9.559  0.2614 -0.1081  1.2792
  105MOL0     O14048  11.575   7.978   9.575  0.1103 -0.5333  0.0672
  105MOL0     C14049  11.709   8.034   9.551  0.8795  0.7200  0.1324
  105MOL0     C14050  11.793   8.073   9.670  0.2406  0.1252 -0.3936
  105MOL0     C14051  11.931   8.129   9.638  0.0704 -0.8155  1.1613
  105MOL0     C14052  11.916   8.258   9.557 -1.0841  0.3338  0.5796
  105MOL0     C14053  12.042   8.328   9.536  0.1112  0.3562  0.1809
  105MOL0     C14054  12.003   8.433   9.433 -0.4941 -0.4526  1.1030
  105MOL0     C14055  12.109   8.547   9.432 -0.9995  0.5832 -0.9070
  105MOL0     C14056  12.241   8.495   9.385  1.0090 -0.8911  0.0518
  105MOL0     N14057  12.333   8.609   9.366 -0.0355 -0.4973 -0.0490
  105MOL0     C14058  12.405   8.640   9.257 -0.6786  0.6515  0.6475
  105MOL0     C14059  12.487   8.732   9.303 -0.7724  0.2654  0.2529
  105MOL0     C14060  12.585   8.811   9.222 -0.1793 -0.1834  0.4309
  105MOL0     C14061  12.735   8.796   9.258 -0.5174  0.9310 -0.3060
  105MOL0     C14062  12.774   8.645   9.256  0.0972  0.3264 -0.1627
  105MOL0     C14063  12.923   8.624   9.222  0.1118  0.4614 -0.3268
  105MOL0     O14064  12.954   8.486   9.233  0.8530 -0.5230  0.1990
  105MOL0     C14065  12.975   8.450   9.366 -0.5474  0.4517 -0.2730
  105MOL0     C14066  13.074   8.511   9.440  0.8216  0.5044 -0.6854
  105MOL0     C14067  13.086   8.475   9.571 -0.0984  1.1241 -0.5314
  105MOL0     C14068  13.008   8.383   9.634  0.1836  0.3186 -0.3081
  105MOL0     C14069  13.030   8.354   9.776  0.4608 -0.3457  0.7059
  105MOL0     O14070  12.964   8.238   9.816  0.0321 -0.3943  0.5912
  105MOL0     C14071  12.994   8.188   9.945 -0.2552  0.0126 -0.3778
  105MOL0     C14072  13.128   8.169   9.986  0.8514 -0.0031 -0.3204
  105MOL0     C14073  13.150   8.109  10.111 -0.0561  0.6843 -0.4314
  105MOL0     C14074  13.039   8.066  10.197  1.0135  0.2839  0.3916
  105MOL0     O14075  13.049   7.995  10.316  0.6110 -0.1219  0.7946
  105MOL0     C14076  13.182   7.967  10.360  0.2216  0.2368 -0.5648
  105MOL0     C14077  13.195   7.931  10.501  0.8406  0.3757 -0.8886
  105MOL0     C14078  13.146   8.048  10.597 -0.1576 -0.1282 -0.4281
  105MOL0     C14079  13.180   8.038  10.743 -0.9589  1.6587 -0.1234
  105MOL0     C14080  13.167   8.166  10.827 -0.1459 -0.7978  0.1300
  105MOL0     C14081  13.021   8.219  10.832 -0.0014 -1.0515  0.0522
  105MOL0     C14082  12.979   8.327  10.945 -0.1032 -1.1684 -0.2631
  105MOL0     C14083  12.913   8.269  11.066  0.4497  0.6181  0.0329
  105MOL0    Cl14084  13.009   8.143  11.144  0.0008 -0.0276 -0.1516
  105MOL0     C14085  12.908   8.088  10.156  0.1601  0.0380 -0.5861
  105MOL0     C14086  12.884   8.138  10.017 -0.0709 -1.0594 -1.2162
  105MOL0     O14087  13.087   8.431   9.853  0.6984  0.2434  0.0118
  105MOL0     C14088  12.912   8.318   9.556 -1.4608  0.7960  0.6407
  105MOL0     C14089  12.892   8.347   9.422  0.6748 -0.1628 -0.1979
  105MOL0     N14090  12.474   8.752   9.434 -0.0647 -0.0619 -0.2534
  105MOL0     N14091  12.380   8.683   9.473  0.7963  0.3105 -0.1872
  105MOL0     C14092  11.456   8.182   9.557 -0.2873 -0.9181  0.5416
  105MOL0     C14093  11.339   8.257   9.522 -0.1383 -0.0547 -0.5050
  105MOL0     C14094  10.947   8.416   9.471  0.5542  0.3062 -0.5134
  105MOL0     C14095  10.854   8.331   9.540  0.2688 -0.5962  0.0935
  105MOL0     C14096  10.725   8.370   9.557 -0.9840 -0.5315  0.5394
  105MOL0     C14097  10.672   8.476   9.483 -0.1114  0.7734 -1.0373
  105MOL0     O14098  10.535   8.509   9.481  0.6224 -0.5857 -0.7193
  105MOL0     C14099  10.432   8.413   9.529 -0.4766 -0.2745  0.1680
  105MOL0     C14100  10.413   8.291   9.434 -0.1692 -0.4690 -0.2403
  105MOL0     C14101  10.295   8.207   9.486  1.0500 -1.0849 -0.2724
  105MOL0     C14102  10.267   8.090   9.388  0.8219 -1.2075  0.9619
  105MOL0     C14103  10.369   7.985   9.394  0.6290 -0.0584 -0.0900
  105MOL0     C14104  10.452   7.896   9.398  0.4803 -0.2342 -0.8947
  105MOL0     C14105  10.765   8.561   9.418  0.4298 -0.1277  0.9847
  105MOL0     C14106  10.903   8.533   9.420 -0.1649 -0.0340  0.0441
  105MOL0     C14107  10.983   8.652   9.368  0.3808  0.9576 -0.5656
  105MOL0     H14108  11.145   7.981   9.454 -1.1601  1.1806  0.3772
  105MOL0     H14109  11.344   7.871   9.530 -2.7691  0.8232  0.7802
  105MOL0     H14110  11.764   7.957   9.497 -1.5592  1.1964 -3.3561
  105MOL0     H14111  11.691   8.119   9.484  1.2144  1.3213  0.7888
  105MOL0     H14112  11.804   7.978   9.723 -1.0975  1.0027  1.5800
  105MOL0     H14113  11.744   8.142   9.740  1.7939 -1.0900  2.0185
  105MOL0     H14114  11.987   8.051   9.585  3.1988  0.4766  2.3725
  105MOL0     H14115  11.979   8.153   9.733  2.2723 -2.7477  0.6443
  105MOL0     H14116  11.869   8.238   9.460 -2.3413 -0.1582  1.2567
  105MOL0     H14117  11.855   8.324   9.619 -0.4591  0.6903  0.8252
  105MOL0     H14118  12.077   8.387   9.621  0.5233  4.8609 -2.8059
  105MOL0     H14119  12.108   8.244   9.511 -0.7758 -1.9657  4.4722
  105MOL0     H14120  12.014   8.386   9.335  1.6607  1.7576  0.1819
  105MOL0     H14121  11.902   8.473   9.419  0.0594  0.6677  0.1170
  105MOL0     H14122  12.106   8.604   9.525  1.2644 -0.5746 -0.0509
  105MOL0     H14123  12.074   8.622   9.361  0.6263  1.3611 -0.9285
  105MOL0     H14124  12.277   8.420   9.457 -1.6051 -0.4788  1.9305
  105MOL0     H14125  12.210   8.441   9.295 -4.4014  2.5478 -0.5988
  105MOL0     H14126  12.396   8.609   9.153  3.3908  0.6208  0.1551
  105MOL0     H14127  12.567   8.782   9.118 -1.8855  1.5885  0.1707
  105MOL0     H14128  12.559   8.918   9.222  1.8168  0.4004  2.4799
  105MOL0     H14129  12.793   8.861   9.192 -0.2056  1.6198  0.6145
  105MOL0     H14130  12.756   8.834   9.359 -0.9562 -0.4206  0.3233
  105MOL0     H14131  12.719   8.596   9.175  1.3224  2.0446 -2.1111
  105MOL0     H14132  12.737   8.611   9.354  0.2905  0.6609  0.0253
  105MOL0     H14133  12.994   8.680   9.283  1.3563 -0.5113 -0.8361
  105MOL0     H14134  12.928   8.666   9.121  0.8772  1.3385  0.0637
  105MOL0     H14135  13.146   8.579   9.394 -0.9612  2.9562 -0.0477
  105MOL0     H14136  13.172   8.523   9.615  1.1328 -0.2280 -1.3446
  105MOL0     H14137  13.219   8.197   9.933  1.3802  1.2846  1.1837
  105MOL0     H14138  13.253   8.099  10.145 -1.0700 -0.0010  2.7510
  105MOL0     H14139  13.228   7.892  10.296  0.6974  0.8507 -0.9613
  105MOL0     H14140  13.244   8.056  10.342 -1.5456  1.3059 -1.6580
  105MOL0     H14141  13.127   7.851  10.530  2.1270 -0.4817 -0.1163
  105MOL0     H14142  13.300   7.914  10.525  0.7419 -0.4246 -1.0143
  105MOL0     H14143  13.195   8.142  10.570 -2.5787  1.6301  0.8857
  105MOL0     H14144  13.037   8.056  10.585 -0.5175 -0.6613  1.9008
  105MOL0     H14145  13.282   7.998  10.742 -1.8851 -0.9583  0.9853
  105MOL0     H14146  13.116   7.958  10.780  1.0197 -0.5147 -1.1277
  105MOL0     H14147  13.225   8.251  10.790  0.9452 -2.8104 -3.2339
  105MOL0     H14148  13.207   8.152  10.929  2.4761 -1.6687 -0.9208
  105MOL0     H14149  12.998   8.256  10.732 -3.1238 -1.9323  0.3533
  105MOL0     H14150  12.963   8.128  10.850 -0.3556 -0.6542  0.9794
  105MOL0     H14151  12.911   8.404  10.904 -0.4730 -0.0350  2.2656
  105MOL0     H14152  13.071   8.369  10.985  2.4055 -4.4727 -2.1342
  105MOL0     H14153  12.873   8.346  11.133 -0.1522  1.5473 -1.3400
  105MOL0     H14154  12.830   8.210  11.028  0.8469  0.8521 -1.2300
  105MOL0     H14155  12.830   8.048  10.219  0.8389 -3.2371 -1.6251
  105MOL0     H14156  12.785   8.139   9.972 -0.2890  1.3523 -0.8414
  105MOL0     H14157  12.858   8.237   9.603  3.2207 -2.7688  0.7014
  105MOL0     H14158  12.817   8.289   9.371 -0.1753  1.4333 -0.8258
  105MOL0     H14159  11.540   8.246   9.580 -1.5474  2.1365 -2.5437
  105MOL0     H14160  11.353   8.364   9.537 -0.9199 -0.2492  1.8774
  105MOL0     H14161  10.890   8.244   9.594  4.4951 -1.0202 -2.9480
  105MOL0     H14162  10.662   8.306   9.618 -0.8065  0.9170  2.3135
  105MOL0     H14163  10.334   8.461   9.522  0.2776  1.3678  0.3483
  105MOL0     H14164  10.453   8.375   9.629 -0.7037 -1.2436 -0.1453
  105MOL0     H14165  10.508   8.238   9.439 -1.3085 -2.4813  2.4630
  105MOL0     H14166  10.399   8.317   9.329 -0.1450  0.3442 -0.0508
  105MOL0     H14167  10.211   8.277   9.497  1.2865 -0.4245 -2.3006
  105MOL0     H14168  10.306   8.158   9.583 -1.9715 -3.2307 -0.8600
  105MOL0     H14169  10.165   8.064   9.419  1.1915  1.5829  5.4404
  105MOL0     H14170  10.268   8.122   9.283  2.2860  0.8518  1.5378
  105MOL0     H14171  10.526   7.820   9.419  1.9706  1.8295  2.0746
  105MOL0     H14172  10.730   8.651   9.368  2.9938  1.4877  1.8571
  105MOL0     H14173  11.013   8.630   9.265  0.8529 -0.6674 -0.1153
  105MOL0     H14174  10.920   8.741   9.375 -0.3953  0.3862 -0.0398
  105MOL0     H14175  11.064   8.678   9.437 -0.3086 -0.8889  1.0245
  106MOL0     O14176   6.611   8.903   2.369  0.0946  0.1744 -0.2431
  106MOL0     C14177   6.623   9.024   2.354 -1.1284 -0.2592 -0.2508
  106MOL0     O14178   6.733   9.092   2.296 -0.7110  0.5647  0.0636
  106MOL0     C14179   6.842   9.012   2.251 -1.6042 -0.3023 -0.3196
  106MOL0     C14180   6.919   8.914   2.324  0.6605 -0.4898  0.4688
  106MOL0     C14181   7.043   8.864   2.274  0.3810 -1.0216 -0.9383
  106MOL0     C14182   7.078   8.899   2.143  0.2053  0.4079 -0.1098
  106MOL0     O14183   7.179   8.849   2.065 -0.5162 -0.3273  0.5323
  106MOL0     C14184   7.301   8.789   2.113 -0.0106  0.4494  0.0818
  106MOL0     C14185   7.395   8.916   2.105  0.6296 -0.0676  0.4351
  106MOL0     C14186   7.529   8.882   2.041  0.5521  0.2371 -1.0295
  106MOL0     C14187   7.613   9.010   2.010  0.4072  0.1213 -0.1738
  106MOL0     C14188   7.745   8.983   1.946 -0.4808  1.1222  0.2407
  106MOL0     C14189   7.840   9.097   1.926 -0.5136  0.4739  0.0705
  106MOL0     C14190   7.927   9.090   1.800  0.0130  0.7028 -0.0025
  106MOL0     C14191   7.854   9.145   1.678  0.9705 -0.3668 -0.1388
  106MOL0     N14192   7.922   9.110   1.556 -0.4388 -0.6550 -0.0169
  106MOL0     C14193   8.056   9.141   1.535  0.8484 -0.0631 -0.7690
  106MOL0     C14194   8.082   9.090   1.415 -0.6397 -0.3370 -1.0615
  106MOL0     C14195   8.220   9.094   1.340 -0.5910 -0.1315  0.2878
  106MOL0     C14196   8.323   9.192   1.382  0.1544  0.7543 -0.9529
  106MOL0     C14197   8.266   9.332   1.369  0.0619 -0.2274  0.7172
  106MOL0     C14198   8.360   9.453   1.403  0.0200  0.2159 -0.5189
  106MOL0     O14199   8.389   9.466   1.547  0.0615  0.6474  0.4836
  106MOL0     C14200   8.294   9.486   1.643  1.2244  0.5332  0.0722
  106MOL0     C14201   8.166   9.540   1.620 -1.0009 -0.2758  0.0825
  106MOL0     C14202   8.075   9.552   1.719 -0.3154 -0.3881 -0.1457
  106MOL0     C14203   8.096   9.508   1.851 -0.6398  0.3046 -0.3677
  106MOL0     C14204   7.984   9.531   1.959  0.0988  0.6063  0.6623
  106MOL0     O14205   7.984   9.445   2.070  0.1519 -0.5242 -0.8704
  106MOL0     C14206   7.905   9.476   2.180 -0.2744 -0.1003  0.6730
  106MOL0     C14207   7.898   9.599   2.227 -0.2737  0.6817 -0.4611
  106MOL0     C14208   7.825   9.637   2.332 -0.8477  0.0356 -0.2099
  106MOL0     C14209   7.749   9.550   2.398  0.0168  0.1982 -0.3245
  106MOL0     O14210   7.671   9.604   2.492 -0.0358 -0.4868 -0.7840
  106MOL0     C14211   7.625   9.531   2.608 -0.7886 -0.4941  1.1397
  106MOL0     C14212   7.620   9.613   2.740  0.0841 -0.0706 -1.2487
  106MOL0     C14213   7.499   9.676   2.780  0.7969  0.5989  0.0492
  106MOL0     C14214   7.423   9.744   2.663  1.1708 -0.8381  0.9620
  106MOL0     C14215   7.326   9.856   2.717  0.1641  0.2787 -0.3264
  106MOL0     C14216   7.196   9.808   2.784 -1.3344 -0.8284  1.4598
  106MOL0     C14217   7.121   9.938   2.810 -0.5794  0.7721  0.6984
  106MOL0     C14218   7.001   9.904   2.907 -0.6307  0.2382 -1.2494
  106MOL0    Cl14219   6.885   9.839   2.795 -0.0281 -0.5048  0.5085
  106MOL0     C14220   7.757   9.410   2.353  0.1183 -0.5204 -0.4475
  106MOL0     C14221   7.831   9.379   2.243  0.6397 -0.5224  0.1850
  106MOL0     O14222   7.904   9.624   1.934 -0.2186  0.1484  0.7844
  106MOL0     C14223   8.222   9.446   1.869  0.8005  0.2450 -0.2127
  106MOL0     C14224   8.311   9.432   1.771 -0.6449  0.0238  1.2138
  106MOL0     N14225   7.972   9.023   1.368  0.9165  0.1332 -0.5467
  106MOL0     N14226   7.873   9.030   1.458 -0.2271  0.1237  0.5213
  106MOL0     C14227   7.002   8.996   2.072 -0.1553 -1.4496 -0.5369
  106MOL0     C14228   6.891   9.056   2.127  0.8004 -0.2463  0.0930
  106MOL0     C14229   6.501   9.099   2.387 -0.5155 -0.5623 -0.1824
  106MOL0     C14230   6.479   9.219   2.315  0.3730  0.4082  0.4345
  106MOL0     C14231   6.366   9.283   2.327 -0.2336 -0.9421 -1.0868
  106MOL0     C14232   6.270   9.242   2.424  0.2289 -0.0879  0.1010
  106MOL0     O14233   6.154   9.309   2.441  0.3659 -0.3035  0.6401
  106MOL0     C14234   6.079   9.390   2.348 -1.1227  0.7200  0.1969
  106MOL0     C14235   6.067   9.537   2.388 -0.6875 -0.9472 -0.6667
  106MOL0     C14236   6.206   9.619   2.417  0.3403  0.2354  0.8991
  106MOL0     C14237   6.186   9.757   2.469  0.2704  0.0741 -1.3410
  106MOL0     C14238   6.154   9.851   2.359 -0.4505 -0.6434 -0.3829
  106MOL0     C14239   6.132   9.946   2.283 -0.2556  0.2765  0.6804
  106MOL0     C14240   6.285   9.127   2.490 -0.2410 -0.4893 -0.5731
  106MOL0     C14241   6.404   9.052   2.480  0.1903 -0.6172 -0.4859
  106MOL0     C14242   6.443   8.944   2.579 -0.5015  0.3112  0.1664
  106MOL0     H14243   6.881   8.888   2.423  1.8857 -0.6901  0.9050
  106MOL0     H14244   7.096   8.784   2.324 -1.4043 -1.4660  0.3601
  106MOL0     H14245   7.288   8.767   2.220 -0.5063  0.3905  0.0123
  106MOL0     H14246   7.347   8.709   2.055  0.6974  1.4841 -0.8066
  106MOL0     H14247   7.416   8.963   2.202 -2.0122  3.4217 -0.4605
  106MOL0     H14248   7.346   8.981   2.032 -1.4017 -1.8291  0.1194
  106MOL0     H14249   7.496   8.831   1.950 -1.1627  1.0059 -0.8816
  106MOL0     H14250   7.587   8.818   2.108 -1.3540 -2.1901 -1.5393
  106MOL0     H14251   7.551   9.068   1.941  0.6103  2.8000  1.7392
  106MOL0     H14252   7.627   9.071   2.100 -1.9782  0.5198 -0.0100
  106MOL0     H14253   7.792   8.904   2.005  0.2280  2.3218  1.3144
  106MOL0     H14254   7.719   8.943   1.847 -1.2125 -2.7322  1.8026
  106MOL0     H14255   7.775   9.184   1.909 -1.2260 -0.0951 -0.1996
  106MOL0     H14256   7.896   9.102   2.019 -1.2878  0.5885  0.5395
  106MOL0     H14257   7.950   8.984   1.787 -3.7418 -0.0500 -1.9835
  106MOL0     H14258   8.024   9.136   1.820 -0.2357  1.8191 -1.1910
  106MOL0     H14259   7.753   9.102   1.669  0.7856  0.3168 -1.8794
  106MOL0     H14260   7.847   9.253   1.688  3.1079 -0.0333 -1.5918
  106MOL0     H14261   8.113   9.208   1.599 -1.5446  2.6273 -1.2359
  106MOL0     H14262   8.274   9.000   1.347  0.8530  0.7661  2.0691
  106MOL0     H14263   8.192   9.109   1.235  2.1301 -3.0570 -1.0165
  106MOL0     H14264   8.364   9.161   1.479  2.1771 -1.1677 -2.3247
  106MOL0     H14265   8.402   9.183   1.307 -1.5086 -2.4319 -2.5123
  106MOL0     H14266   8.178   9.354   1.429 -0.6780  1.1541 -0.7979
  106MOL0     H14267   8.240   9.346   1.264  0.2084  1.6957  0.9033
  106MOL0     H14268   8.304   9.544   1.380 -0.1642 -0.1161 -1.4202
  106MOL0     H14269   8.457   9.440   1.353  0.5009  2.6382 -0.3546
  106MOL0     H14270   8.149   9.587   1.523  0.2280 -2.4930 -1.2877
  106MOL0     H14271   7.976   9.584   1.686 -0.6051 -0.7879  0.3241
  106MOL0     H14272   7.960   9.676   2.182 -2.2597  2.1095 -0.8866
  106MOL0     H14273   7.828   9.740   2.364  0.5720 -0.3756  1.0739
  106MOL0     H14274   7.526   9.495   2.578  0.6632 -2.7532 -1.3738
  106MOL0     H14275   7.695   9.447   2.618  1.1266  1.0433  1.1364
  106MOL0     H14276   7.649   9.550   2.824 -2.3814 -0.8829 -0.9314
  106MOL0     H14277   7.697   9.686   2.716  0.0602  0.3378 -0.0969
  106MOL0     H14278   7.436   9.596   2.819  0.8552  0.6640  0.2753
  106MOL0     H14279   7.542   9.752   2.847  1.5972  1.1760 -1.0864
  106MOL0     H14280   7.371   9.670   2.602 -1.5454  1.8023 -0.2043
  106MOL0     H14281   7.488   9.807   2.602  1.8061 -0.6462  1.8270
  106MOL0     H14282   7.301   9.914   2.628 -2.3983  0.0336  0.1515
  106MOL0     H14283   7.387   9.913   2.788  1.0506  0.7008 -1.3921
  106MOL0     H14284   7.142   9.750   2.709 -2.7400 -1.9797  3.2843
  106MOL0     H14285   7.222   9.757   2.877 -1.7765 -1.1373  1.4179
  106MOL0     H14286   7.071   9.982   2.723  0.8378 -1.5105 -1.4073
  106MOL0     H14287   7.190  10.005   2.862  2.3445 -0.1351 -1.6861
  106MOL0     H14288   7.038   9.833   2.981 -3.0667  0.6699  0.5076
  106MOL0     H14289   6.963   9.991   2.962 -0.4326 -0.3421 -0.1634
  106MOL0     H14290   7.714   9.323   2.402  2.8310 -0.3429  2.6251
  106MOL0     H14291   7.834   9.276   2.208  1.9293  0.3410 -2.4592
  106MOL0     H14292   8.248   9.406   1.966  1.6026 -3.2076 -1.6845
  106MOL0     H14293   8.411   9.395   1.792 -0.0571  0.2709 -0.9620
  106MOL0     H14294   7.034   9.027   1.973 -0.0101 -0.8397 -0.3049
  106MOL0     H14295   6.835   9.128   2.067 -0.6572 -0.5894  1.0080
  106MOL0     H14296   6.556   9.264   2.253 -1.3200  1.9435 -0.6836
  106MOL0     H14297   6.353   9.382   2.285  0.0389 -0.2252  0.4284
  106MOL0     H14298   5.977   9.350   2.339 -0.5371 -0.4091 -1.7939
  106MOL0     H14299   6.123   9.379   2.249 -0.5833  1.3571  0.3645
  106MOL0     H14300   6.013   9.548   2.483  1.0408 -0.7085  0.3366
  106MOL0     H14301   6.017   9.586   2.304  0.6812  1.2277 -0.2850
  106MOL0     H14302   6.262   9.611   2.324  1.2114  0.0111  1.4380
  106MOL0     H14303   6.269   9.551   2.474  3.7899  1.3546 -1.3070
  106MOL0     H14304   6.115   9.766   2.552 -0.9657 -0.7566 -2.2761
  106MOL0     H14305   6.277   9.801   2.512 -0.0846  0.8599 -1.3721
  106MOL0     H14306   6.123  10.024   2.211  1.6308  0.5181  0.6402
  106MOL0     H14307   6.221   9.108   2.575  0.4835 -1.4890 -0.2325
  106MOL0     H14308   6.385   8.950   2.672 -1.6983  2.7334 -0.6471
  106MOL0     H14309   6.435   8.839   2.549  0.2826  0.7220 -1.5822
  106MOL0     H14310   6.549   8.966   2.596 -0.6619  1.6225 -0.4279
  107MOL0     O14311   7.663   2.238   7.605  0.7618  0.2104  0.2603
  107MOL0     C14312   7.677   2.126   7.655  0.2291  1.1297 -0.9670
  107MOL0     O14313   7.578   2.034   7.688 -0.1907 -0.2414 -0.0394
  107MOL0     C14314   7.465   2.043   7.612  0.7683 -0.1731  0.8177
  107MOL0     C14315   7.346   2.104   7.646 -0.4042  0.2139 -0.3034
  107MOL0     C14316   7.238   2.110   7.558  0.2260 -0.1786 -0.4058
  107MOL0     C14317   7.246   2.072   7.428  0.1202  0.3107 -0.7053
  107MOL0     O14318   7.135   2.087   7.356  0.1963  0.0471  0.4139
  107MOL0     C14319   7.164   2.169   7.239  0.5253  0.2048 -0.1733
  107MOL0     C14320   7.118   2.311   7.250  0.1579  0.1727 -0.2702
  107MOL0     C14321   7.235   2.410   7.248  0.3716  0.6856 -0.3542
  107MOL0     C14322   7.295   2.451   7.391  0.1695 -0.4464  0.2060
  107MOL0     C14323   7.410   2.555   7.380  0.5031  0.0071  0.3009
  107MOL0     C14324   7.536   2.504   7.311  0.1171  0.5562 -0.7018
  107MOL0     C14325   7.652   2.607   7.324 -0.3708 -1.1277 -0.3188
  107MOL0     C14326   7.787   2.571   7.255  1.1885 -0.5425  0.4546
  107MOL0     N14327   7.782   2.553   7.104 -0.5514  0.3967 -0.0662
  107MOL0     C14328   7.710   2.622   7.009 -0.0414 -0.0020  0.4520
  107MOL0     C14329   7.746   2.570   6.887  0.3329  0.8107 -0.6386
  107MOL0     C14330   7.685   2.605   6.756 -1.1360 -1.2128  0.0495
  107MOL0     C14331   7.636   2.484   6.674 -0.1463  0.7651 -0.1729
  107MOL0     C14332   7.576   2.517   6.539  0.9164  0.0036 -0.1383
  107MOL0     C14333   7.521   2.388   6.475 -0.9023 -0.1578  0.4799
  107MOL0     O14334   7.461   2.432   6.356  0.3748  0.7767  0.1443
  107MOL0     C14335   7.333   2.487   6.361 -0.6116  0.4467  0.1173
  107MOL0     C14336   7.264   2.490   6.232  0.3948 -0.0716  0.5405
  107MOL0     C14337   7.127   2.510   6.222 -0.4314  0.4820  0.6018
  107MOL0     C14338   7.050   2.541   6.330  0.0277 -0.0973 -0.5525
  107MOL0     C14339   6.909   2.563   6.312  1.1513 -0.0860  0.5967
  107MOL0     O14340   6.858   2.564   6.180 -0.4898 -0.2227 -0.2692
  107MOL0     C14341   6.724   2.570   6.180 -0.0204 -0.3002  0.5542
  107MOL0     C14342   6.661   2.674   6.101  0.5411 -0.0281 -1.0048
  107MOL0     C14343   6.516   2.687   6.083 -0.7697 -0.6080  0.1556
  107MOL0     C14344   6.436   2.587   6.131  0.2377  0.7015  0.7492
  107MOL0     O14345   6.302   2.572   6.107 -0.2205 -0.1331  0.2524
  107MOL0     C14346   6.227   2.697   6.069 -0.6406  0.5323  0.8066
  107MOL0     C14347   6.089   2.705   6.120  0.2270  0.6686 -0.0664
  107MOL0     C14348   6.012   2.848   6.108  0.3330 -0.1455  1.0205
  107MOL0     C14349   5.962   2.864   5.966 -0.6321 -0.6373  0.0598
  107MOL0     C14350   5.910   3.001   5.945 -0.9057 -0.4141 -0.1926
  107MOL0     C14351   5.855   3.016   5.809  0.6138  0.1239  0.1927
  107MOL0     C14352   5.785   3.154   5.787  0.8193  0.7857  0.3185
  107MOL0     C14353   5.764   3.202   5.642 -1.1180  0.0338  0.2449
  107MOL0    Cl14354   5.686   3.355   5.663  0.1021  0.0184  0.2619
  107MOL0     C14355   6.499   2.478   6.199  0.3203 -1.0934  0.0680
  107MOL0     C14356   6.636   2.474   6.230  0.6654  1.2761 -0.0605
  107MOL0     O14357   6.841   2.570   6.415 -1.1036  0.1990  0.4445
  107MOL0     C14358   7.112   2.534   6.455  0.7735  0.3066 -0.4179
  107MOL0     C14359   7.249   2.505   6.470  0.3147  0.1422  0.4862
  107MOL0     N14360   7.837   2.467   6.909 -0.5781 -0.6667  0.3878
  107MOL0     N14361   7.858   2.456   7.038 -0.7696 -0.3687  0.4853
  107MOL0     C14362   7.373   2.020   7.387  0.0593 -0.4606 -0.0120
  107MOL0     C14363   7.479   2.004   7.480  0.4021  1.1791  0.1243
  107MOL0     C14364   7.813   2.090   7.695 -0.3983 -0.1788 -1.3013
  107MOL0     C14365   7.835   1.952   7.735 -0.7810 -0.7711  0.1864
  107MOL0     C14366   7.951   1.904   7.804 -0.5982 -0.0442 -0.6370
  107MOL0     C14367   8.059   1.987   7.818  0.9449 -0.7692  0.5405
  107MOL0     O14368   8.182   1.941   7.857  0.0243 -0.4981 -0.5344
  107MOL0     C14369   8.216   1.801   7.861 -0.3778 -0.5143  0.8662
  107MOL0     C14370   8.367   1.792   7.850 -0.5311  0.8949 -0.5778
  107MOL0     C14371   8.422   1.790   7.705  0.8538 -0.1017 -0.3353
  107MOL0     C14372   8.570   1.806   7.696  0.7689  0.7194 -0.1232
  107MOL0     C14373   8.621   1.930   7.757  0.2272  0.5195  0.6841
  107MOL0     C14374   8.656   2.032   7.805 -1.1001 -0.0285  0.7098
  107MOL0     C14375   8.043   2.131   7.785  0.0632 -0.5966  0.5866
  107MOL0     C14376   7.918   2.182   7.737 -0.1081  0.1305  0.6377
  107MOL0     C14377   7.924   2.336   7.715 -0.0851  0.2834 -0.9397
  107MOL0     H14378   7.327   2.127   7.751 -0.0220 -1.0534  0.0646
  107MOL0     H14379   7.148   2.150   7.604  0.5610  0.2333 -0.0978
  107MOL0     H14380   7.267   2.165   7.205  0.2018 -0.2192 -1.1368
  107MOL0     H14381   7.111   2.118   7.158  0.7645 -2.2231  1.0984
  107MOL0     H14382   7.050   2.321   7.335 -0.9389 -4.8270 -0.2607
  107MOL0     H14383   7.068   2.352   7.161  2.2028  3.1860 -0.1809
  107MOL0     H14384   7.208   2.502   7.195 -1.7827  0.4727  0.2994
  107MOL0     H14385   7.317   2.374   7.185 -1.2491 -0.3962 -1.9235
  107MOL0     H14386   7.213   2.499   7.446  0.7696  0.6986  0.1462
  107MOL0     H14387   7.324   2.367   7.454  1.5227  0.4682  0.8489
  107MOL0     H14388   7.366   2.642   7.329 -1.8425 -2.2787 -1.9518
  107MOL0     H14389   7.447   2.585   7.478  4.7038 -4.2081  0.3509
  107MOL0     H14390   7.567   2.403   7.337 -0.7666  0.0126 -1.6927
  107MOL0     H14391   7.502   2.498   7.207 -2.2690  1.5173 -0.0436
  107MOL0     H14392   7.675   2.631   7.428 -0.2302  2.1079 -0.9738
  107MOL0     H14393   7.611   2.707   7.308  2.2037  0.4007  1.7352
  107MOL0     H14394   7.861   2.646   7.284  1.1221 -1.2924  2.7273
  107MOL0     H14395   7.827   2.481   7.304  2.1356 -1.9975 -2.7063
  107MOL0     H14396   7.643   2.707   7.015 -0.0704  0.0882 -0.7777
  107MOL0     H14397   7.609   2.683   6.767  1.2666  1.8167 -2.6738
  107MOL0     H14398   7.767   2.645   6.696  0.3999 -1.2038  2.0711
  107MOL0     H14399   7.707   2.401   6.667 -2.3405 -1.0684 -2.1513
  107MOL0     H14400   7.545   2.448   6.724  0.5147 -0.1142  0.4321
  107MOL0     H14401   7.667   2.541   6.483  0.6555 -2.0451 -1.5451
  107MOL0     H14402   7.490   2.582   6.554 -1.8885 -3.5237  0.2381
  107MOL0     H14403   7.450   2.330   6.534  1.3506 -4.2094 -0.4228
  107MOL0     H14404   7.603   2.318   6.456 -0.0103  1.5070 -2.4749
  107MOL0     H14405   7.325   2.459   6.147  0.1313 -0.1546  0.3816
  107MOL0     H14406   7.087   2.523   6.122  2.1184 -0.0027 -0.5664
  107MOL0     H14407   6.725   2.746   6.050  0.8706  2.0443  2.0623
  107MOL0     H14408   6.478   2.771   6.027 -1.2825 -1.7703 -1.3118
  107MOL0     H14409   6.271   2.788   6.112  1.2952  0.1417 -0.2383
  107MOL0     H14410   6.200   2.707   5.964  0.6380 -1.3866  0.2378
  107MOL0     H14411   6.014   2.637   6.080  1.0240  0.2210 -0.8071
  107MOL0     H14412   6.106   2.666   6.221  1.0867 -2.3120 -1.2731
  107MOL0     H14413   5.927   2.847   6.177 -0.2376 -2.9698  0.4039
  107MOL0     H14414   6.083   2.926   6.138  4.4179 -2.6542 -1.2431
  107MOL0     H14415   5.872   2.802   5.957  0.2665 -1.8199 -1.1088
  107MOL0     H14416   6.048   2.847   5.901 -0.8066  2.2769 -1.0772
  107MOL0     H14417   5.983   3.080   5.968  0.3446 -1.6771  0.3097
  107MOL0     H14418   5.830   3.018   6.017  1.2661  1.6019  1.9438
  107MOL0     H14419   5.931   3.001   5.732  0.3347 -3.7454  0.4735
  107MOL0     H14420   5.779   2.940   5.788  1.3838 -0.3989 -0.7809
  107MOL0     H14421   5.842   3.231   5.840  1.7473 -2.0825  3.9705
  107MOL0     H14422   5.697   3.147   5.850  0.7415 -1.0540  0.0700
  107MOL0     H14423   5.859   3.227   5.594 -0.8901 -2.7835 -0.9418
  107MOL0     H14424   5.713   3.128   5.580 -3.3351  1.6040  0.0695
  107MOL0     H14425   6.431   2.420   6.260  0.9463 -1.1228  0.7447
  107MOL0     H14426   6.677   2.401   6.298 -0.5391  0.4935 -0.1343
  107MOL0     H14427   7.047   2.556   6.539  1.1679 -0.8950  0.2195
  107MOL0     H14428   7.285   2.491   6.572 -1.5396 -2.3271  0.8757
  107MOL0     H14429   7.398   1.990   7.286  1.6542  0.4300  0.0843
  107MOL0     H14430   7.565   1.952   7.439 -0.7176 -3.3622  2.7542
  107MOL0     H14431   7.756   1.880   7.718  1.7992 -3.7761 -0.0958
  107MOL0     H14432   7.954   1.800   7.836 -5.2452  0.1041  0.9862
  107MOL0     H14433   8.171   1.743   7.780 -2.6060  1.5698  0.4948
  107MOL0     H14434   8.175   1.761   7.955 -4.4839  1.0706 -0.0272
  107MOL0     H14435   8.394   1.697   7.896  0.9255  0.8327 -1.5048
  107MOL0     H14436   8.418   1.864   7.914 -0.6978  1.2384 -0.8238
  107MOL0     H14437   8.382   1.875   7.648 -1.0292 -1.4654 -1.1639
  107MOL0     H14438   8.382   1.697   7.662 -2.4490  0.2122  1.6726
  107MOL0     H14439   8.618   1.727   7.754  0.2672  1.9973  2.1312
  107MOL0     H14440   8.612   1.807   7.595 -1.0544  0.1945 -0.9207
  107MOL0     H14441   8.704   2.125   7.825 -1.0270 -0.3483  2.1508
  107MOL0     H14442   8.133   2.192   7.789 -0.7824  0.6003  1.6310
  107MOL0     H14443   7.959   2.362   7.614  0.4378 -0.2194 -0.8927
  107MOL0     H14444   7.827   2.385   7.727 -0.7952 -0.5330 -2.8947
  107MOL0     H14445   7.982   2.381   7.795 -2.7684 -0.9454  1.9104
  108MOL0     O14446  10.582   3.273   7.532 -0.1535 -0.1965 -0.3549
  108MOL0     C14447  10.584   3.170   7.465 -1.2413 -0.2139  0.8950
  108MOL0     O14448  10.701   3.098   7.437 -0.2656  0.0124  0.2993
  108MOL0     C14449  10.822   3.151   7.480 -0.1333 -0.8909 -0.0626
  108MOL0     C14450  10.928   3.151   7.384  1.1559 -0.9853  0.4759
  108MOL0     C14451  11.049   3.207   7.431 -0.0431 -0.0206 -0.5324
  108MOL0     C14452  11.074   3.257   7.562  0.0850  0.6154  0.8264
  108MOL0     O14453  11.191   3.327   7.577  0.6236 -0.7971 -0.2261
  108MOL0     C14454  11.223   3.375   7.712 -0.2751  0.7329  0.3266
  108MOL0     C14455  11.370   3.394   7.734 -0.6438  0.5381  0.2284
  108MOL0     C14456  11.394   3.489   7.855  1.1582  0.2668 -0.0478
  108MOL0     C14457  11.529   3.480   7.911 -0.2022 -0.0791  0.4013
  108MOL0     C14458  11.547   3.562   8.038  0.7687 -0.2631  0.1669
  108MOL0     C14459  11.613   3.703   8.016 -0.2226  0.1970 -0.0049
  108MOL0     C14460  11.658   3.767   8.149 -0.6635  0.0232 -0.2739
  108MOL0     C14461  11.774   3.860   8.107 -0.6257 -0.1384  0.3648
  108MOL0     N14462  11.814   3.946   8.222  0.0227 -0.3147 -0.3294
  108MOL0     C14463  11.722   4.012   8.305  1.4803  0.8211  1.1304
  108MOL0     C14464  11.784   4.119   8.363 -0.4263  0.3569  0.8442
  108MOL0     C14465  11.713   4.214   8.446  0.0680 -0.3953 -0.5762
  108MOL0     C14466  11.788   4.232   8.575  0.3761  0.6585 -0.3703
  108MOL0     C14467  11.707   4.335   8.654  0.6481  0.6827 -0.4863
  108MOL0     C14468  11.760   4.362   8.804  0.3632  0.4314  0.3010
  108MOL0     O14469  11.831   4.486   8.815 -0.4526  0.0164 -0.4800
  108MOL0     C14470  11.823   4.527   8.945 -0.3543  0.9926  0.2768
  108MOL0     C14471  11.866   4.443   9.049  0.3732 -0.0903  0.2752
  108MOL0     C14472  11.886   4.497   9.176 -0.0436 -0.1536 -0.7365
  108MOL0     C14473  11.864   4.634   9.210  0.1286  0.4271 -0.1342
  108MOL0     C14474  11.890   4.686   9.342  0.1990  1.1574  0.3031
  108MOL0     O14475  11.944   4.605   9.435 -0.5833  0.2745 -0.0394
  108MOL0     C14476  11.945   4.652   9.565 -0.5142  0.1783 -0.7262
  108MOL0     C14477  11.832   4.712   9.629  0.8589 -0.4401  0.1599
  108MOL0     C14478  11.839   4.746   9.765  0.5344 -0.0685  0.9595
  108MOL0     C14479  11.956   4.739   9.836 -0.4769 -0.4841  0.0037
  108MOL0     O14480  11.981   4.778   9.970 -0.0177  0.6072  0.4982
  108MOL0     C14481  11.877   4.842  10.046 -0.2955  0.2322 -0.0747
  108MOL0     C14482  11.912   4.825  10.191  0.5880 -0.2865  0.1177
  108MOL0     C14483  11.788   4.837  10.277  0.5690  0.3122 -0.1826
  108MOL0     C14484  11.721   4.974  10.254 -0.7367  0.0880  0.7404
  108MOL0     C14485  11.583   4.985  10.323  0.3449 -0.0689 -0.8175
  108MOL0     C14486  11.592   5.012  10.473 -0.3148  1.2238  0.4675
  108MOL0     C14487  11.453   5.031  10.528  0.7661  0.1165 -1.6698
  108MOL0     C14488  11.445   5.006  10.678  0.4616 -0.5775 -0.5631
  108MOL0    Cl14489  11.588   5.082  10.766 -0.0498 -0.0341  0.2389
  108MOL0     C14490  12.068   4.687   9.768  0.0119  0.5582 -0.2186
  108MOL0     C14491  12.064   4.631   9.636  0.2140  0.5856 -0.0157
  108MOL0     O14492  11.863   4.805   9.356  0.0786  0.3048 -0.3213
  108MOL0     C14493  11.814   4.711   9.101  0.2710 -0.5338 -0.4868
  108MOL0     C14494  11.785   4.652   8.980  0.3554 -1.2509 -0.3234
  108MOL0     N14495  11.921   4.116   8.331 -0.0011  1.3574  0.3142
  108MOL0     N14496  11.937   4.007   8.251  0.3188  0.4493 -0.8233
  108MOL0     C14497  10.970   3.251   7.652 -0.2862  0.4186 -0.2134
  108MOL0     C14498  10.846   3.197   7.610  0.6969  0.0705  0.2608
  108MOL0     C14499  10.467   3.096   7.420 -0.1878  0.8785 -0.0735
  108MOL0     C14500  10.484   2.967   7.356 -0.3194 -0.9159 -0.5840
  108MOL0     C14501  10.373   2.900   7.296 -0.2328 -0.2826 -0.6426
  108MOL0     C14502  10.239   2.954   7.310  0.1326 -0.0714 -0.2687
  108MOL0     O14503  10.120   2.903   7.267 -0.3354  0.3401 -0.0913
  108MOL0     C14504  10.137   2.811   7.154 -0.5541 -0.5305 -0.6008
  108MOL0     C14505  10.005   2.785   7.082 -0.0391 -0.4247  0.7770
  108MOL0     C14506   9.898   2.741   7.187 -0.3863  0.2220  0.1506
  108MOL0     C14507   9.764   2.711   7.110 -0.9012  0.6704  0.9525
  108MOL0     C14508   9.708   2.792   7.007  0.0724 -0.5175  0.1215
  108MOL0     C14509   9.664   2.866   6.923  0.3642  0.8213  0.0383
  108MOL0     C14510  10.220   3.075   7.373 -0.0057 -0.1462 -0.2517
  108MOL0     C14511  10.331   3.140   7.434  0.6627  1.3179 -0.0056
  108MOL0     C14512  10.300   3.268   7.509 -0.2168  0.4152 -0.0747
  108MOL0     H14513  10.907   3.125   7.281 -0.3235  0.3906  0.3741
  108MOL0     H14514  11.129   3.210   7.357 -1.2930 -1.0227 -1.9757
  108MOL0     H14515  11.154   3.457   7.731 -0.9922  0.0762  0.5917
  108MOL0     H14516  11.204   3.291   7.780 -1.6016  1.7517  1.2664
  108MOL0     H14517  11.411   3.446   7.647  3.6531 -0.1684  1.5894
  108MOL0     H14518  11.417   3.296   7.738  0.2552  0.9646  0.4677
  108MOL0     H14519  11.320   3.449   7.924 -0.5699 -0.2443 -2.0860
  108MOL0     H14520  11.370   3.592   7.826  1.9467 -0.3523 -3.3505
  108MOL0     H14521  11.549   3.373   7.923 -1.1365 -0.0317  2.8792
  108MOL0     H14522  11.595   3.517   7.831  0.4897  1.0051  1.4413
  108MOL0     H14523  11.453   3.591   8.087  1.6458 -0.2864  1.9532
  108MOL0     H14524  11.613   3.510   8.107  0.8151  0.7026  0.8843
  108MOL0     H14525  11.685   3.699   7.934 -0.1367  0.1894  0.0705
  108MOL0     H14526  11.534   3.770   7.980 -2.1121 -1.6606  0.4963
  108MOL0     H14527  11.686   3.685   8.216  1.5146  0.0766 -1.0377
  108MOL0     H14528  11.571   3.821   8.187  0.7593 -0.3242  4.0361
  108MOL0     H14529  11.867   3.809   8.081  0.2518  2.3780 -1.8120
  108MOL0     H14530  11.735   3.917   8.023  1.0789 -4.5573 -3.8667
  108MOL0     H14531  11.616   3.994   8.298  1.3240  1.9471  0.3097
  108MOL0     H14532  11.695   4.312   8.401  1.3501  0.7120  1.2158
  108MOL0     H14533  11.614   4.172   8.465 -0.6615 -0.0694 -3.2148
  108MOL0     H14534  11.810   4.140   8.629  2.4562  1.0013 -0.5489
  108MOL0     H14535  11.880   4.288   8.557 -0.0536  1.0695 -1.3963
  108MOL0     H14536  11.611   4.284   8.667  1.9785 -1.6412  0.8734
  108MOL0     H14537  11.695   4.431   8.601  1.5873  1.3942  0.5416
  108MOL0     H14538  11.807   4.267   8.831 -0.3484 -0.7225 -2.1835
  108MOL0     H14539  11.671   4.371   8.866 -0.0220 -1.5667  0.1182
  108MOL0     H14540  11.895   4.341   9.026  0.8643  0.1364 -0.1460
  108MOL0     H14541  11.932   4.429   9.247 -2.5238 -0.9378  0.2110
  108MOL0     H14542  11.739   4.725   9.576 -1.5825  0.9835  4.2890
  108MOL0     H14543  11.755   4.787   9.821  0.1802  0.2009  0.2388
  108MOL0     H14544  11.871   4.948  10.019  0.5645  0.1669 -0.5461
  108MOL0     H14545  11.783   4.792  10.020 -0.8758  1.4491 -0.3985
  108MOL0     H14546  11.948   4.722  10.198 -0.8569 -0.8568 -0.4872
  108MOL0     H14547  11.984   4.901  10.222 -3.1154  2.9282  1.6220
  108MOL0     H14548  11.714   4.757  10.267 -0.9394  1.5929  0.3490
  108MOL0     H14549  11.825   4.833  10.380  3.6118  0.3193 -1.1832
  108MOL0     H14550  11.724   5.009  10.150 -3.9496 -2.2922 -0.3284
  108MOL0     H14551  11.787   5.044  10.307  0.6548 -1.8045  1.6253
  108MOL0     H14552  11.526   4.894  10.303  1.9734 -1.9578  2.4167
  108MOL0     H14553  11.529   5.074  10.288  1.3075  0.9726  0.2568
  108MOL0     H14554  11.635   4.920  10.514 -0.3344  0.8943 -0.2343
  108MOL0     H14555  11.656   5.099  10.492 -2.2529  2.4637  1.7744
  108MOL0     H14556  11.372   4.978  10.478  0.8677 -1.1441 -0.5764
  108MOL0     H14557  11.439   5.139  10.524 -1.5190  0.2339  2.9461
  108MOL0     H14558  11.362   5.066  10.717  2.5427  2.3158 -0.2411
  108MOL0     H14559  11.443   4.898  10.700  1.0993 -0.8701 -1.8588
  108MOL0     H14560  12.160   4.675   9.824 -0.1851 -2.0518 -0.3058
  108MOL0     H14561  12.135   4.557   9.599  0.0565  1.3124 -1.8443
  108MOL0     H14562  11.805   4.816   9.125  2.0794 -0.9974  2.7966
  108MOL0     H14563  11.756   4.713   8.895  2.9651 -1.9006 -1.7925
  108MOL0     H14564  10.984   3.267   7.758  2.0331 -0.1970 -0.3629
  108MOL0     H14565  10.765   3.194   7.681  0.1901 -1.8790 -0.3247
  108MOL0     H14566  10.584   2.925   7.351  1.0208  1.1494  3.9889
  108MOL0     H14567  10.375   2.805   7.243  4.0006  0.4520 -2.1490
  108MOL0     H14568  10.175   2.711   7.177 -1.0038 -0.6170 -0.2302
  108MOL0     H14569  10.200   2.860   7.079 -0.0835 -0.3163 -0.0754
  108MOL0     H14570  10.010   2.700   7.014 -0.2312  2.4952 -3.2093
  108MOL0     H14571   9.983   2.875   7.023  0.9138 -1.0315 -0.5428
  108MOL0     H14572   9.882   2.822   7.259  0.8155  3.2610 -2.7280
  108MOL0     H14573   9.934   2.654   7.243  0.9212  0.0607 -0.8709
  108MOL0     H14574   9.779   2.612   7.066  3.6412  1.0915  1.0226
  108MOL0     H14575   9.680   2.709   7.180 -0.7989 -1.1320  1.0558
  108MOL0     H14576   9.618   2.930   6.850 -0.7046 -1.1941 -1.1436
  108MOL0     H14577  10.116   3.092   7.398  0.4717 -1.2828  3.0827
  108MOL0     H14578  10.323   3.265   7.616 -1.3699 -2.6297  0.1713
  108MOL0     H14579  10.351   3.362   7.482 -2.9231  2.9180  2.7138
  108MOL0     H14580  10.192   3.275   7.524 -0.2432 -0.5791  0.2235
  109MOL0     O14581   8.211   3.518   6.286  0.1383 -0.0383 -0.1151
  109MOL0     C14582   8.210   3.401   6.253  0.1925 -0.1835  1.0438
  109MOL0     O14583   8.120   3.309   6.310  0.3244  0.0400  0.2183
  109MOL0     C14584   8.021   3.352   6.395  0.2012  0.6430  0.3228
  109MOL0     C14585   7.897   3.403   6.348 -0.1977 -0.8649 -0.2352
  109MOL0     C14586   7.799   3.438   6.441 -0.5426 -0.2579 -1.0543
  109MOL0     C14587   7.824   3.436   6.582  0.1438  0.3808  0.5554
  109MOL0     O14588   7.748   3.496   6.675 -0.0518 -0.4194 -0.2626
  109MOL0     C14589   7.802   3.539   6.794  0.3109 -0.5250 -0.1258
  109MOL0     C14590   7.734   3.677   6.831  0.1572 -0.1213  0.1349
  109MOL0     C14591   7.612   3.662   6.907  0.5099  0.5117 -1.5428
  109MOL0     C14592   7.569   3.806   6.941 -0.8881  0.6585  0.2973
  109MOL0     C14593   7.463   3.814   7.042 -0.4285  0.1875 -0.7035
  109MOL0     C14594   7.430   3.966   7.067 -0.4260 -0.0247 -0.1542
  109MOL0     C14595   7.326   3.965   7.179  0.0816 -0.2521  0.2522
  109MOL0     C14596   7.283   4.102   7.219 -0.8558 -0.6815 -0.8919
  109MOL0     N14597   7.202   4.160   7.114 -0.1541  0.1269  1.0017
  109MOL0     C14598   7.251   4.229   6.994  0.0192  0.3696 -0.4850
  109MOL0     C14599   7.133   4.240   6.925  0.3024  1.0407  0.4048
  109MOL0     C14600   7.125   4.316   6.796 -0.1747  0.3518 -1.0228
  109MOL0     C14601   7.084   4.459   6.831 -0.2278  0.4178  0.0572
  109MOL0     C14602   7.081   4.555   6.723  0.2856  0.3506  0.3661
  109MOL0     C14603   7.058   4.499   6.586  0.0920 -1.5991 -0.0346
  109MOL0     O14604   7.177   4.470   6.518 -0.4188  0.6480 -0.3870
  109MOL0     C14605   7.176   4.422   6.389  0.4000  0.7566 -0.1095
  109MOL0     C14606   7.300   4.383   6.335  0.3685  0.2368  0.2936
  109MOL0     C14607   7.302   4.325   6.200  0.4027 -0.0429  0.1583
  109MOL0     C14608   7.185   4.303   6.125  0.1000 -0.4704  0.3865
  109MOL0     C14609   7.191   4.245   5.990 -0.6433  0.0107  1.3615
  109MOL0     O14610   7.074   4.227   5.929  0.2120 -0.5728 -0.3084
  109MOL0     C14611   7.058   4.163   5.814 -0.5989  0.1297  0.6664
  109MOL0     C14612   6.979   4.210   5.706 -0.5144  0.0026 -0.0696
  109MOL0     C14613   6.958   4.126   5.589  0.3445  0.2153  0.6781
  109MOL0     C14614   7.005   3.993   5.590 -0.1933  0.4117  0.3999
  109MOL0     O14615   7.001   3.901   5.487  0.7274  0.0341 -0.1745
  109MOL0     C14616   6.997   3.943   5.346  0.0231  0.1993  0.7520
  109MOL0     C14617   7.029   3.812   5.269 -0.0880  0.8124 -0.1869
  109MOL0     C14618   6.920   3.703   5.298 -0.4160  0.4832  0.7714
  109MOL0     C14619   6.929   3.601   5.196 -0.3806 -0.0452 -0.1927
  109MOL0     C14620   6.805   3.503   5.206 -0.7327  0.0122  0.4178
  109MOL0     C14621   6.852   3.358   5.203  0.6407 -0.3001  0.6799
  109MOL0     C14622   6.729   3.253   5.220  0.1877 -1.4931 -0.4333
  109MOL0     C14623   6.780   3.118   5.224  0.7003 -0.4184 -0.2737
  109MOL0    Cl14624   6.839   3.065   5.068 -0.0283 -0.0131  0.4026
  109MOL0     C14625   7.084   3.942   5.697  0.4607 -0.0813 -0.5108
  109MOL0     C14626   7.086   4.028   5.812  0.3764  0.5292  0.4191
  109MOL0     O14627   7.302   4.213   5.934 -0.2309  0.1234  0.0465
  109MOL0     C14628   7.057   4.344   6.181 -0.6986  0.2786 -0.1080
  109MOL0     C14629   7.055   4.408   6.316 -0.5721 -0.0993  0.2043
  109MOL0     N14630   7.028   4.194   7.003 -0.2088  0.3339 -0.2883
  109MOL0     N14631   7.068   4.143   7.122  0.0444 -0.3215  0.5323
  109MOL0     C14632   7.937   3.365   6.619 -0.2400 -0.2841  0.7914
  109MOL0     C14633   8.038   3.332   6.529 -0.2436 -0.2445  0.2978
  109MOL0     C14634   8.295   3.349   6.142 -0.1564  0.0929  0.0431
  109MOL0     C14635   8.345   3.219   6.156 -0.4474 -0.0852  0.0715
  109MOL0     C14636   8.414   3.166   6.049  0.3376  0.0914  0.8049
  109MOL0     C14637   8.441   3.235   5.933 -0.0995  0.5932  0.0680
  109MOL0     O14638   8.508   3.163   5.835  0.4468 -0.3899  0.2081
  109MOL0     C14639   8.617   3.222   5.768  0.3439 -0.8011 -0.4061
  109MOL0     C14640   8.729   3.265   5.863  0.6935  0.2078  0.3375
  109MOL0     C14641   8.801   3.146   5.925  0.9687  0.0771  0.3796
  109MOL0     C14642   8.888   3.182   6.044 -0.0355  0.7394 -0.2826
  109MOL0     C14643   8.980   3.290   6.025  1.4005 -0.2043 -0.3837
  109MOL0     C14644   9.041   3.394   6.036 -0.4776 -0.8287  0.1277
  109MOL0     C14645   8.401   3.369   5.917  0.1769  0.2915 -0.7789
  109MOL0     C14646   8.337   3.431   6.035 -0.6299  0.3434 -0.2888
  109MOL0     C14647   8.294   3.574   6.018 -0.0246  0.6944 -0.2230
  109MOL0     H14648   7.885   3.434   6.245  0.1224  2.1352  0.5460
  109MOL0     H14649   7.706   3.490   6.418 -0.3507  1.2390  1.2384
  109MOL0     H14650   7.788   3.453   6.859 -1.3377 -0.1386  0.0649
  109MOL0     H14651   7.910   3.560   6.792  0.0747  0.9548  0.6973
  109MOL0     H14652   7.721   3.729   6.736  1.2951 -0.4573 -0.2200
  109MOL0     H14653   7.808   3.739   6.883  1.2524 -1.8764  0.7594
  109MOL0     H14654   7.635   3.600   6.994  1.3611 -0.3585 -2.3683
  109MOL0     H14655   7.543   3.606   6.844  1.4235 -1.3209 -0.9761
  109MOL0     H14656   7.662   3.860   6.963  0.4619 -0.0078 -3.0786
  109MOL0     H14657   7.523   3.846   6.850 -3.5120  1.7372  1.9786
  109MOL0     H14658   7.378   3.755   7.007  0.7688 -2.9792  1.2845
  109MOL0     H14659   7.499   3.779   7.139 -1.1839  1.4009  0.0391
  109MOL0     H14660   7.517   4.032   7.071  1.9681 -3.0419  1.1863
  109MOL0     H14661   7.384   4.008   6.976 -0.1448  2.3782  0.7455
  109MOL0     H14662   7.354   3.914   7.271  0.7039 -1.0293 -0.3526
  109MOL0     H14663   7.234   3.921   7.141 -0.0140  0.9362 -0.9976
  109MOL0     H14664   7.222   4.078   7.306  1.3607 -2.3179  0.3088
  109MOL0     H14665   7.367   4.169   7.240 -1.5761 -0.1132  0.3129
  109MOL0     H14666   7.351   4.243   6.953 -0.6365 -1.2802 -2.9102
  109MOL0     H14667   7.215   4.332   6.736 -0.1272  2.5404 -0.4582
  109MOL0     H14668   7.053   4.261   6.735  0.1327  1.0778 -2.0663
  109MOL0     H14669   6.982   4.463   6.870  0.5735  3.2221  2.2269
  109MOL0     H14670   7.145   4.507   6.908  0.0112  0.5474 -0.2108
  109MOL0     H14671   7.180   4.601   6.718 -0.6877  2.4325 -1.2678
  109MOL0     H14672   7.010   4.636   6.740  1.0641  1.3962 -1.0557
  109MOL0     H14673   7.003   4.586   6.551  0.9005  0.0859  2.5213
  109MOL0     H14674   6.989   4.415   6.575 -2.3913  0.5414 -1.9647
  109MOL0     H14675   7.393   4.398   6.389 -0.2571  1.2952  1.1123
  109MOL0     H14676   7.390   4.285   6.150  0.4115 -1.4595  1.2216
  109MOL0     H14677   6.952   4.315   5.707 -1.9588 -0.3348 -1.1373
  109MOL0     H14678   6.915   4.175   5.503  0.1285  1.1980  1.3284
  109MOL0     H14679   6.893   3.975   5.329 -0.2978 -0.8519  0.6872
  109MOL0     H14680   7.074   4.018   5.326 -0.4412  1.6709  3.7957
  109MOL0     H14681   7.053   3.831   5.164  2.7687 -1.9171 -0.1610
  109MOL0     H14682   7.123   3.772   5.307  1.2167  4.5158  0.9385
  109MOL0     H14683   6.943   3.653   5.393  3.0612 -0.6838 -0.5511
  109MOL0     H14684   6.815   3.734   5.300 -0.5091  0.1666  1.1744
  109MOL0     H14685   7.026   3.551   5.189 -0.6640 -0.4010 -2.4951
  109MOL0     H14686   6.915   3.640   5.095 -1.7468  1.5978  0.6021
  109MOL0     H14687   6.746   3.531   5.118  1.2808 -1.5900 -1.5740
  109MOL0     H14688   6.756   3.522   5.302  0.3388 -3.8181  1.8991
  109MOL0     H14689   6.894   3.346   5.103 -0.9867  0.2368 -0.0982
  109MOL0     H14690   6.933   3.343   5.275 -0.0378  0.0569  1.5386
  109MOL0     H14691   6.660   3.274   5.137 -0.3243 -2.7767 -0.3502
  109MOL0     H14692   6.682   3.275   5.317  2.1379  2.0749 -0.1416
  109MOL0     H14693   6.861   3.106   5.296 -0.1891  0.1014  0.8432
  109MOL0     H14694   6.697   3.053   5.253  0.1359 -1.1083 -3.1316
  109MOL0     H14695   7.116   3.839   5.697 -3.0717 -1.5139  4.0923
  109MOL0     H14696   7.154   3.992   5.887  0.7679  2.7296  1.2006
  109MOL0     H14697   6.971   4.311   6.123  1.2785 -1.1638 -2.4284
  109MOL0     H14698   6.967   4.452   6.362  1.6650  3.4849  1.5429
  109MOL0     H14699   7.956   3.342   6.723  1.3751 -1.1112  0.3420
  109MOL0     H14700   8.133   3.286   6.554 -1.0924 -1.9034  0.6366
  109MOL0     H14701   8.328   3.152   6.240  0.7316 -3.4593 -2.1635
  109MOL0     H14702   8.437   3.060   6.058 -1.7648 -0.4582  0.2154
  109MOL0     H14703   8.584   3.315   5.720  0.2306 -0.3595  0.5064
  109MOL0     H14704   8.655   3.153   5.691  0.9740  0.0836 -0.9136
  109MOL0     H14705   8.690   3.330   5.942 -0.4548  0.4370 -0.3869
  109MOL0     H14706   8.798   3.320   5.798  0.0305  0.0773 -0.4973
  109MOL0     H14707   8.862   3.106   5.843  1.0976 -1.3570  1.1385
  109MOL0     H14708   8.726   3.067   5.936  0.4217  0.7926  2.0205
  109MOL0     H14709   8.819   3.194   6.128  1.0915  1.0067  0.6281
  109MOL0     H14710   8.951   3.098   6.077  1.2792  0.7091 -2.6565
  109MOL0     H14711   9.067   3.498   6.038  2.4531 -1.4944  0.2931
  109MOL0     H14712   8.414   3.436   5.833  0.9233  0.0153 -0.8985
  109MOL0     H14713   8.321   3.625   5.925  2.2270  0.3288  0.1898
  109MOL0     H14714   8.186   3.587   6.032 -0.5235 -0.4232 -2.6035
  109MOL0     H14715   8.348   3.617   6.103 -2.7747  1.4268  1.2673
  110MOL0     O14716   2.317   1.417  10.572 -0.2227  0.5058 -0.2346
  110MOL0     C14717   2.208   1.465  10.540  0.1794 -0.8490  0.8910
  110MOL0     O14718   2.177   1.591  10.548  0.3866 -0.6062  0.0564
  110MOL0     C14719   2.281   1.676  10.581  1.4367  0.6652  0.2978
  110MOL0     C14720   2.343   1.745  10.483 -0.1608  0.1635 -1.1314
  110MOL0     C14721   2.457   1.831  10.516  0.7719  0.8651 -0.3055
  110MOL0     C14722   2.504   1.836  10.649 -0.9155  0.3606  0.7870
  110MOL0     O14723   2.608   1.913  10.685  0.2934 -0.0980  0.1754
  110MOL0     C14724   2.724   1.871  10.754  1.2031 -0.3006 -1.1173
  110MOL0     C14725   2.803   2.005  10.795 -0.3198 -0.1022  0.5696
  110MOL0     C14726   2.724   2.117  10.866  0.6185  1.0384 -0.3245
  110MOL0     C14727   2.817   2.230  10.926 -0.3257  0.4299  0.3604
  110MOL0     C14728   2.737   2.350  10.987 -0.4738 -0.7632  0.0894
  110MOL0     C14729   2.672   2.314  11.123  0.2131 -0.6915 -0.1971
  110MOL0     C14730   2.590   2.422  11.192 -0.4409 -1.5338  1.3907
  110MOL0     C14731   2.457   2.438  11.119  0.0175  0.5168 -0.1201
  110MOL0     N14732   2.357   2.510  11.196  0.1235  0.4170 -1.0199
  110MOL0     C14733   2.320   2.637  11.169 -0.0798 -0.4253 -0.2456
  110MOL0     C14734   2.209   2.640  11.246  0.1603 -0.0096  0.1106
  110MOL0     C14735   2.113   2.758  11.279  0.5154  0.0627  0.1938
  110MOL0     C14736   2.128   2.884  11.188 -0.0388  0.0036  0.0038
  110MOL0     C14737   2.052   2.858  11.052  0.7910 -0.0757 -0.6381
  110MOL0     C14738   1.899   2.874  11.050  0.0182 -0.1514 -0.0996
  110MOL0     O14739   1.866   3.006  11.048 -0.4792  0.0144 -0.5123
  110MOL0     C14740   1.762   3.042  10.964  0.1255 -1.3059 -0.4177
  110MOL0     C14741   1.628   3.046  11.013  0.2169 -0.2609  0.0616
  110MOL0     C14742   1.522   3.078  10.920 -0.0966  0.8414 -0.6515
  110MOL0     C14743   1.555   3.112  10.789  0.8621  0.4682 -1.0583
  110MOL0     C14744   1.454   3.143  10.684  0.6702  0.2195 -0.4743
  110MOL0     O14745   1.489   3.254  10.609 -0.0167  0.0694  0.2925
  110MOL0     C14746   1.428   3.285  10.491  0.2594  0.0423  0.2213
  110MOL0     C14747   1.432   3.419  10.461 -1.0251 -0.5597  0.6332
  110MOL0     C14748   1.385   3.470  10.340 -1.0327 -0.2323  0.7625
  110MOL0     C14749   1.335   3.384  10.238  0.4612  0.0952 -0.4068
  110MOL0     O14750   1.273   3.422  10.123 -0.1810 -0.2371 -1.1277
  110MOL0     C14751   1.235   3.556  10.107  0.1172  0.1865 -0.4055
  110MOL0     C14752   1.148   3.548   9.984 -0.0102 -0.2184  0.2539
  110MOL0     C14753   1.096   3.681   9.923 -0.1333 -0.0855  0.3368
  110MOL0     C14754   1.212   3.761   9.860  0.4619 -0.0333 -0.1345
  110MOL0     C14755   1.169   3.902   9.843 -0.5207  0.2117 -0.2362
  110MOL0     C14756   1.265   3.978   9.744 -0.2103 -1.0792  0.3942
  110MOL0     C14757   1.222   3.947   9.592  0.3639  0.3781  1.0179
  110MOL0     C14758   1.333   3.962   9.503  0.0481  0.4636  0.0960
  110MOL0    Cl14759   1.295   3.942   9.335  0.3622  0.3573  0.4052
  110MOL0     C14760   1.321   3.242  10.279  0.3952 -0.6624 -0.0792
  110MOL0     C14761   1.366   3.197  10.406 -0.2773 -0.6159  0.4521
  110MOL0     O14762   1.354   3.068  10.679 -0.7229 -0.2007 -0.0099
  110MOL0     C14763   1.693   3.132  10.757  0.0301  0.3069  0.0752
  110MOL0     C14764   1.791   3.094  10.843  0.4649  0.1931  0.4212
  110MOL0     N14765   2.182   2.518  11.300 -0.0894 -0.0174 -0.4746
  110MOL0     N14766   2.269   2.435  11.272 -1.0433 -1.0097 -0.1586
  110MOL0     C14767   2.430   1.761  10.748 -0.4949 -0.5045 -0.1890
  110MOL0     C14768   2.316   1.684  10.717  0.0483 -0.3649 -0.2874
  110MOL0     C14769   2.098   1.371  10.485  0.3802  0.1908 -0.3299
  110MOL0     C14770   2.021   1.404  10.369  0.4147 -0.5329  0.3724
  110MOL0     C14771   1.912   1.322  10.335  0.1307  0.5112 -0.1594
  110MOL0     C14772   1.878   1.201  10.397 -0.4805  0.2295  0.3353
  110MOL0     O14773   1.777   1.124  10.352 -0.1653 -0.6482  0.5665
  110MOL0     C14774   1.821   1.057  10.228 -0.8846  0.1872 -0.8980
  110MOL0     C14775   1.695   1.007  10.151 -0.1936 -0.6088 -0.7995
  110MOL0     C14776   1.586   1.112  10.112  0.0793 -0.2462 -0.5959
  110MOL0     C14777   1.626   1.217  10.005 -0.2302 -0.5053  0.0634
  110MOL0     C14778   1.599   1.351  10.052 -0.8831 -1.0813 -0.0661
  110MOL0     C14779   1.578   1.466  10.105 -0.8474  0.2247  1.0411
  110MOL0     C14780   1.964   1.165  10.501  0.3505 -0.2819  0.4457
  110MOL0     C14781   2.059   1.250  10.549  0.8453  0.2867  0.2441
  110MOL0     C14782   2.125   1.209  10.680  0.9287 -0.5009  0.6817
  110MOL0     H14783   2.320   1.715  10.382 -0.6865  0.0853 -0.9892
  110MOL0     H14784   2.513   1.891  10.445  0.3879 -2.5708 -3.9357
  110MOL0     H14785   2.688   1.805  10.834 -1.4776  1.2877 -0.9120
  110MOL0     H14786   2.789   1.800  10.701 -0.7183 -3.6979  0.7083
  110MOL0     H14787   2.845   2.036  10.699  1.8168 -1.1444  1.1033
  110MOL0     H14788   2.892   1.975  10.851 -0.0789 -0.5832 -0.0433
  110MOL0     H14789   2.660   2.077  10.945 -1.0397  3.8375 -0.1189
  110MOL0     H14790   2.659   2.165  10.793  0.6881 -0.6432 -1.5275
  110MOL0     H14791   2.887   2.191  11.002  1.7819  2.2986 -0.5219
  110MOL0     H14792   2.877   2.262  10.841 -0.6297 -2.6364 -1.1769
  110MOL0     H14793   2.790   2.445  11.000 -1.4374  0.0810 -1.8250
  110MOL0     H14794   2.649   2.375  10.927  0.5249  1.4089 -0.5673
  110MOL0     H14795   2.602   2.235  11.096  0.9651 -0.7790 -2.0310
  110MOL0     H14796   2.752   2.293  11.195  0.4947  0.5410 -0.1241
  110MOL0     H14797   2.639   2.519  11.179 -1.9884 -0.9461 -0.4586
  110MOL0     H14798   2.579   2.404  11.300 -1.4719  2.6005  2.1562
  110MOL0     H14799   2.473   2.483  11.020 -1.6996  1.5533  0.0288
  110MOL0     H14800   2.420   2.335  11.116 -2.0617  0.9492  3.6560
  110MOL0     H14801   2.374   2.705  11.103  2.5987 -0.5621  1.6371
  110MOL0     H14802   2.013   2.716  11.285  0.9996 -1.0248  0.8249
  110MOL0     H14803   2.139   2.781  11.382  0.1793 -0.7032  0.4558
  110MOL0     H14804   2.078   2.970  11.233 -0.7830 -0.3518 -0.1269
  110MOL0     H14805   2.233   2.909  11.176 -0.1524  2.4098  2.9889
  110MOL0     H14806   2.076   2.754  11.030 -1.3465 -0.3732 -1.8023
  110MOL0     H14807   2.095   2.927  10.979  0.7457  2.3155  1.4546
  110MOL0     H14808   1.847   2.826  11.134 -2.6931 -1.3641 -2.3196
  110MOL0     H14809   1.869   2.818  10.961  4.2377  2.6593 -3.7146
  110MOL0     H14810   1.604   3.014  11.114  0.0785 -3.1882 -0.8073
  110MOL0     H14811   1.416   3.073  10.944 -0.5372  1.9784 -2.2080
  110MOL0     H14812   1.464   3.498  10.528  0.9071  0.8572 -1.7988
  110MOL0     H14813   1.367   3.576  10.332  0.4121  0.2284  2.9585
  110MOL0     H14814   1.170   3.590  10.188 -1.3102 -0.3639 -1.2997
  110MOL0     H14815   1.319   3.626  10.096  0.6679 -0.0512  1.7587
  110MOL0     H14816   1.210   3.508   9.903  1.6579 -0.1032  1.4318
  110MOL0     H14817   1.067   3.479  10.010 -0.5323  0.3155  0.0557
  110MOL0     H14818   1.024   3.655   9.845  0.9780 -1.0041 -0.4111
  110MOL0     H14819   1.040   3.730  10.003  1.8465 -0.9562  2.3555
  110MOL0     H14820   1.238   3.715   9.765  1.7769  0.3842  0.0113
  110MOL0     H14821   1.293   3.760   9.933  1.2516 -0.4896 -0.9962
  110MOL0     H14822   1.165   3.951   9.942  1.9384  0.2032 -0.0663
  110MOL0     H14823   1.069   3.904   9.799 -1.3371 -2.3510  1.3168
  110MOL0     H14824   1.261   4.085   9.763  0.3217 -1.2238  1.3811
  110MOL0     H14825   1.367   3.940   9.747 -1.3368 -4.8292 -1.6689
  110MOL0     H14826   1.136   4.011   9.573  1.0770  0.7626 -1.1632
  110MOL0     H14827   1.188   3.843   9.595 -1.3129  0.7910 -0.9893
  110MOL0     H14828   1.364   4.067   9.510 -0.6538  0.6178  1.2762
  110MOL0     H14829   1.412   3.892   9.532  1.3661  2.1603  0.8146
  110MOL0     H14830   1.280   3.177  10.202 -2.2958  0.4994  0.2728
  110MOL0     H14831   1.354   3.097  10.446 -0.1058 -1.3989 -1.3746
  110MOL0     H14832   1.724   3.170  10.660 -0.0891 -0.0635 -0.1135
  110MOL0     H14833   1.896   3.094  10.814 -0.4946  2.1143 -3.8582
  110MOL0     H14834   2.487   1.764  10.840  2.2390 -1.7916 -1.7158
  110MOL0     H14835   2.259   1.625  10.788 -0.2296  1.8841  1.4752
  110MOL0     H14836   2.030   1.502  10.323  1.4121  1.8362  4.9881
  110MOL0     H14837   1.836   1.348  10.263 -1.0272 -0.8956  0.5295
  110MOL0     H14838   1.894   0.979  10.248 -0.5225  0.1732 -2.1939
  110MOL0     H14839   1.880   1.118  10.160  0.6607 -2.0857 -1.6933
  110MOL0     H14840   1.645   0.939  10.220  2.1249  0.1752  1.8255
  110MOL0     H14841   1.735   0.950  10.066 -2.0902 -1.9539 -0.8405
  110MOL0     H14842   1.562   1.168  10.202  1.7054  1.2536 -1.0504
  110MOL0     H14843   1.491   1.066  10.081 -0.0357 -3.0518  3.1894
  110MOL0     H14844   1.730   1.211   9.971 -0.8615 -1.0235 -1.8512
  110MOL0     H14845   1.573   1.201   9.911 -3.0015  2.5606  0.9288
  110MOL0     H14846   1.542   1.546  10.167 -0.5783  1.9720 -0.9346
  110MOL0     H14847   1.948   1.069  10.548  0.0573  0.6434  2.3203
  110MOL0     H14848   2.222   1.165  10.654  0.4579 -0.4068 -1.4081
  110MOL0     H14849   2.145   1.298  10.742  2.5752  0.2013 -0.7660
  110MOL0     H14850   2.073   1.130  10.735  2.1752 -1.0111  1.1834
  111MOL0     O14851   3.408   0.826   3.708  0.0634 -0.7376  0.8806
  111MOL0     C14852   3.348   0.781   3.614  0.0142 -0.2879  0.6699
  111MOL0     O14853   3.245   0.679   3.619  0.3678 -0.3624 -0.0489
  111MOL0     C14854   3.211   0.633   3.747  0.1304  0.6177 -0.5241
  111MOL0     C14855   3.297   0.561   3.831 -0.4565  0.1432 -0.6454
  111MOL0     C14856   3.259   0.498   3.956  0.6082 -0.3592  0.8858
  111MOL0     C14857   3.128   0.528   3.998  0.8117 -0.5936  0.6404
  111MOL0     O14858   3.104   0.473   4.119 -0.4228  1.0137 -0.1748
  111MOL0     C14859   2.966   0.457   4.146  0.4236 -0.1367  0.8570
  111MOL0     C14860   2.903   0.322   4.090  0.1840  0.4826 -0.5319
  111MOL0     C14861   2.972   0.206   4.140  0.9926  0.5747 -0.6251
  111MOL0     C14862   2.943   0.176   4.291  0.6580 -0.4613 -0.9079
  111MOL0     C14863   2.970   0.030   4.332 -0.1370  0.5683 -0.0250
  111MOL0     C14864   2.943   0.004   4.490 -0.0112 -0.2239  0.3668
  111MOL0     C14865   2.973  -0.148   4.528 -0.9265  0.0523 -0.0576
  111MOL0     C14866   2.910  -0.176   4.667  0.3993 -0.7263  0.5635
  111MOL0     N14867   2.983  -0.277   4.741  0.4625  0.2641 -0.5018
  111MOL0     C14868   2.989  -0.277   4.883  0.5240 -0.9209 -0.2727
  111MOL0     C14869   3.068  -0.386   4.910 -0.7679 -0.4091 -1.2311
  111MOL0     C14870   3.091  -0.424   5.054  0.7168  0.6704  0.1902
  111MOL0     C14871   3.033  -0.562   5.071  0.4696  0.3457 -0.2385
  111MOL0     C14872   2.993  -0.588   5.221  0.1116  0.8533  0.3353
  111MOL0     C14873   2.947  -0.734   5.263  0.5426  0.3707  0.1782
  111MOL0     O14874   3.063  -0.821   5.279  0.0522  0.3188  0.3627
  111MOL0     C14875   3.087  -0.917   5.177  0.4960  0.3484  0.2058
  111MOL0     C14876   3.023  -0.933   5.045  0.3495  0.7443  0.5544
  111MOL0     C14877   3.066  -1.020   4.945 -0.0353 -0.0653 -0.7427
  111MOL0     C14878   3.181  -1.109   4.974  0.1882 -0.0125 -0.7481
  111MOL0     C14879   3.220  -1.221   4.871  0.1927 -0.0748 -0.5276
  111MOL0     O14880   3.148  -1.208   4.761 -0.8085 -0.6041 -0.1234
  111MOL0     C14881   3.143  -1.321   4.675  0.3637 -1.0377  0.7164
  111MOL0     C14882   3.257  -1.351   4.602 -0.2821  0.3395 -0.3774
  111MOL0     C14883   3.253  -1.453   4.506  0.2725 -0.5262 -0.1242
  111MOL0     C14884   3.128  -1.521   4.478 -1.0245  0.1347  0.3264
  111MOL0     O14885   3.132  -1.613   4.375  0.5648 -0.2401 -0.3038
  111MOL0     C14886   3.006  -1.640   4.323 -0.2475 -0.4015  0.0465
  111MOL0     C14887   3.020  -1.767   4.239 -0.4979  0.5737 -0.1468
  111MOL0     C14888   3.084  -1.740   4.102 -0.9754  0.3149 -0.2241
  111MOL0     C14889   3.011  -1.800   3.975  0.2263  0.2929  0.4451
  111MOL0     C14890   3.094  -1.778   3.848  0.7085 -0.8632  0.4718
  111MOL0     C14891   3.210  -1.873   3.828 -1.4564 -0.4482 -0.0396
  111MOL0     C14892   3.276  -1.877   3.690  0.6602  0.0767  0.1085
  111MOL0     C14893   3.384  -1.987   3.682  0.1957  0.3776  0.1990
  111MOL0    Cl14894   3.325  -2.157   3.689 -0.2015 -0.3234  0.1817
  111MOL0     C14895   3.012  -1.489   4.545 -0.1491 -0.9317 -0.6506
  111MOL0     C14896   3.018  -1.391   4.645  0.7087 -0.1484  0.4085
  111MOL0     O14897   3.311  -1.312   4.893  0.0532  0.3739 -0.4307
  111MOL0     C14898   3.244  -1.099   5.101 -0.2219  0.3573  0.5251
  111MOL0     C14899   3.199  -1.005   5.188 -0.3617 -0.1348 -0.2446
  111MOL0     N14900   3.099  -0.459   4.796 -0.1384 -1.1252 -0.2326
  111MOL0     N14901   3.043  -0.393   4.701 -0.7773  0.3133  0.0458
  111MOL0     C14902   3.038   0.612   3.916  0.4082  0.1685 -0.9631
  111MOL0     C14903   3.084   0.669   3.798 -0.3398 -0.1270 -0.1220
  111MOL0     C14904   3.387   0.836   3.473  0.7453 -0.2286 -0.5361
  111MOL0     C14905   3.290   0.804   3.377  0.1675  0.1332 -0.9528
  111MOL0     C14906   3.306   0.852   3.250  0.3117 -0.3482 -0.1274
  111MOL0     C14907   3.421   0.913   3.208  1.0352  0.3980 -0.4352
  111MOL0     O14908   3.446   0.898   3.075 -0.4628  0.0584 -0.2106
  111MOL0     C14909   3.582   0.896   3.039 -0.7565  0.2883  0.7208
  111MOL0     C14910   3.612   0.881   2.889  0.6255  0.8411 -0.6111
  111MOL0     C14911   3.583   0.734   2.849 -0.4224  0.0688  0.3274
  111MOL0     C14912   3.425   0.703   2.850  0.3758 -0.1513 -0.5036
  111MOL0     C14913   3.386   0.584   2.784  0.0659 -0.2013  0.4478
  111MOL0     C14914   3.349   0.487   2.735  0.2573  0.5344 -0.3647
  111MOL0     C14915   3.508   0.955   3.315  0.7754  0.0895  1.0921
  111MOL0     C14916   3.477   0.943   3.449  0.5807 -0.4682  0.0607
  111MOL0     C14917   3.530   1.018   3.564  0.0145 -0.9695  0.7486
  111MOL0     H14918   3.400   0.548   3.800  1.2403  4.0372  2.5031
  111MOL0     H14919   3.337   0.447   4.013  0.2269  1.1551  2.8561
  111MOL0     H14920   2.957   0.432   4.252  2.4574 -3.3432  0.4130
  111MOL0     H14921   2.906   0.547   4.129 -0.6440 -0.1310  4.0043
  111MOL0     H14922   2.897   0.321   3.981 -2.5093  2.2909 -0.4929
  111MOL0     H14923   2.798   0.314   4.120 -0.2216  2.3329 -1.3006
  111MOL0     H14924   3.080   0.213   4.123  1.2825  0.3904  0.9766
  111MOL0     H14925   2.945   0.121   4.076 -0.6390 -0.3392  1.2040
  111MOL0     H14926   2.995   0.243   4.360 -1.4760  0.5382 -0.1487
  111MOL0     H14927   2.836   0.197   4.299  0.3126 -0.0541 -4.7873
  111MOL0     H14928   2.925  -0.053   4.277 -0.1102 -0.7622  1.8431
  111MOL0     H14929   3.071   0.011   4.295 -0.6751 -0.2911 -1.1064
  111MOL0     H14930   3.014   0.070   4.540 -0.2658 -0.9187  1.6841
  111MOL0     H14931   2.834   0.016   4.492  0.1104  1.1619  0.2810
  111MOL0     H14932   3.082  -0.162   4.529 -1.0295 -1.0407 -1.5181
  111MOL0     H14933   2.935  -0.207   4.444  2.5048 -1.4418 -0.7421
  111MOL0     H14934   2.892  -0.095   4.738  2.1703  0.7817 -0.5944
  111MOL0     H14935   2.813  -0.220   4.643  0.7611 -0.1847 -2.1859
  111MOL0     H14936   2.936  -0.212   4.952  2.8318  0.7478  0.0461
  111MOL0     H14937   3.194  -0.421   5.089  0.3151  1.8067  1.3390
  111MOL0     H14938   3.039  -0.360   5.126 -0.8347 -0.6182  0.2983
  111MOL0     H14939   2.948  -0.587   5.005  1.6318 -2.2210 -0.9122
  111MOL0     H14940   3.108  -0.640   5.052 -0.5886 -0.9281  0.5835
  111MOL0     H14941   2.908  -0.530   5.257 -1.6531 -3.3523  4.0345
  111MOL0     H14942   3.075  -0.552   5.284  1.9010 -0.4182 -1.1526
  111MOL0     H14943   2.869  -0.772   5.197  1.6061  0.2765 -1.0710
  111MOL0     H14944   2.901  -0.719   5.361  1.1310  0.7240  0.4054
  111MOL0     H14945   2.931  -0.884   5.016 -0.8255 -1.3741  0.5130
  111MOL0     H14946   3.009  -1.023   4.853 -1.9396 -0.4821  0.4060
  111MOL0     H14947   3.344  -1.289   4.615 -0.2358  0.2839 -0.4215
  111MOL0     H14948   3.342  -1.485   4.453  0.6306  0.6162 -0.2344
  111MOL0     H14949   2.936  -1.692   4.390  0.1832 -0.2825  0.5920
  111MOL0     H14950   2.968  -1.555   4.266  2.1712 -0.4599 -1.7984
  111MOL0     H14951   3.065  -1.849   4.295  2.9989  2.6392  0.3230
  111MOL0     H14952   2.918  -1.806   4.224  0.3432 -2.1559  0.6591
  111MOL0     H14953   3.093  -1.632   4.087  0.7749  0.2753  0.3977
  111MOL0     H14954   3.185  -1.782   4.102 -0.5919  1.1963 -1.5312
  111MOL0     H14955   2.923  -1.736   3.974  0.3652  0.4917 -1.0684
  111MOL0     H14956   2.983  -1.906   3.966 -0.1705  0.6044 -4.6122
  111MOL0     H14957   3.118  -1.671   3.840  2.0780 -1.1705  0.2138
  111MOL0     H14958   3.036  -1.802   3.758 -0.0294  1.7111  0.1860
  111MOL0     H14959   3.289  -1.846   3.898 -3.0546  0.1312  1.6345
  111MOL0     H14960   3.181  -1.978   3.839 -2.0628 -0.4822 -1.6658
  111MOL0     H14961   3.328  -1.780   3.695 -1.9288  1.5157  4.2710
  111MOL0     H14962   3.208  -1.879   3.605  3.9416 -3.2129 -2.7773
  111MOL0     H14963   3.438  -1.974   3.588  3.1559  0.7143  1.8124
  111MOL0     H14964   3.463  -1.973   3.758 -1.9031 -1.6128  2.9476
  111MOL0     H14965   2.913  -1.525   4.520 -0.2492 -2.0873  1.2111
  111MOL0     H14966   2.932  -1.363   4.705  0.2211 -1.0368  0.1344
  111MOL0     H14967   3.324  -1.169   5.122  0.5238  1.8007  2.8437
  111MOL0     H14968   3.249  -1.010   5.285 -1.6366  1.5085  0.5571
  111MOL0     H14969   2.942   0.641   3.958  1.4681  1.1626  0.9372
  111MOL0     H14970   3.027   0.741   3.740  0.3318  0.6212  0.1140
  111MOL0     H14971   3.215   0.731   3.406 -0.0601  0.0063 -1.8259
  111MOL0     H14972   3.239   0.823   3.170  1.1093  1.0158 -1.3248
  111MOL0     H14973   3.637   0.815   3.087  2.4544  0.3879 -2.3404
  111MOL0     H14974   3.641   0.982   3.070 -0.7632 -0.2394  2.2558
  111MOL0     H14975   3.719   0.900   2.875  1.3418 -0.8473  2.0023
  111MOL0     H14976   3.546   0.948   2.832 -1.8478 -1.1553 -0.2330
  111MOL0     H14977   3.632   0.658   2.912  1.9783 -1.5139 -3.1054
  111MOL0     H14978   3.620   0.707   2.750 -0.9312 -3.4150  0.9581
  111MOL0     H14979   3.381   0.701   2.950 -0.4659 -0.3031 -0.8673
  111MOL0     H14980   3.358   0.781   2.813 -1.3273 -0.3754  1.9178
  111MOL0     H14981   3.333   0.390   2.693  3.2623  0.2290 -1.0256
  111MOL0     H14982   3.595   1.018   3.300  0.8842 -0.0318  1.2138
  111MOL0     H14983   3.597   0.958   3.625 -0.3618 -0.5915  1.5403
  111MOL0     H14984   3.588   1.098   3.516  0.3124 -1.6773 -0.1061
  111MOL0     H14985   3.449   1.050   3.630 -0.7527 -2.3167  0.5137
  112MOL0     O14986   8.426   6.884   5.857 -0.6211  0.2850  0.1203
  112MOL0     C14987   8.440   6.785   5.797 -0.4035 -0.7481 -0.5736
  112MOL0     O14988   8.353   6.681   5.793  0.4868 -0.0707 -0.2139
  112MOL0     C14989   8.220   6.682   5.836  0.1295 -0.7685 -0.1098
  112MOL0     C14990   8.176   6.764   5.937  0.2250 -0.5450  0.3331
  112MOL0     C14991   8.043   6.777   5.966 -0.0326 -0.9135  0.6849
  112MOL0     C14992   7.943   6.708   5.902 -0.1824  0.4171  0.8136
  112MOL0     O14993   7.819   6.745   5.933 -0.3617  0.0095 -0.0885
  112MOL0     C14994   7.712   6.654   5.914  0.2070  0.5952 -0.7557
  112MOL0     C14995   7.613   6.723   6.010  0.7185  0.9622  0.2622
  112MOL0     C14996   7.496   6.634   6.034 -0.1528  1.0481  0.6479
  112MOL0     C14997   7.410   6.609   5.903  0.0371 -0.1433 -0.3107
  112MOL0     C14998   7.282   6.533   5.926 -0.2408  0.5199  0.6586
  112MOL0     C14999   7.218   6.492   5.795 -0.5936 -0.7798  0.1815
  112MOL0     C15000   7.072   6.441   5.805  0.5418  0.3503 -0.1474
  112MOL0     C15001   6.986   6.530   5.896  0.0321  0.0991 -0.5127
  112MOL0     N15002   6.847   6.498   5.850  0.0599 -0.2798 -0.5422
  112MOL0     C15003   6.780   6.381   5.867 -0.8546 -0.3903 -0.3611
  112MOL0     C15004   6.650   6.400   5.818  0.0579  0.3888  0.2663
  112MOL0     C15005   6.529   6.298   5.811  0.2184  0.2448  0.0529
  112MOL0     C15006   6.511   6.248   5.945  0.2187  0.9599  0.4830
  112MOL0     C15007   6.380   6.158   5.948  0.0250 -1.3729 -0.5934
  112MOL0     C15008   6.371   6.044   5.856  0.2019  0.7586  0.6970
  112MOL0     O15009   6.236   6.002   5.871  0.0147 -0.9279 -0.7081
  112MOL0     C15010   6.200   5.920   5.980  0.2730  0.8787 -0.3972
  112MOL0     C15011   6.067   5.914   6.019 -0.1912  0.0765  0.3868
  112MOL0     C15012   6.008   5.826   6.112  0.4448  0.0863  0.1605
  112MOL0     C15013   6.095   5.745   6.182  0.0147 -0.9501 -0.4852
  112MOL0     C15014   6.047   5.659   6.293  0.0162  0.2602  0.9795
  112MOL0     O15015   6.128   5.576   6.360 -0.2854 -1.0976 -0.2428
  112MOL0     C15016   6.076   5.480   6.438  0.5913 -1.0525  1.1571
  112MOL0     C15017   6.008   5.514   6.561  0.5471  0.3753 -0.2789
  112MOL0     C15018   5.948   5.411   6.634 -0.7862 -0.2319 -0.9826
  112MOL0     C15019   5.961   5.272   6.589  0.3266 -1.3278 -0.8848
  112MOL0     O15020   5.923   5.176   6.679 -0.8679  0.5022 -0.4641
  112MOL0     C15021   5.897   5.053   6.630  0.4566  0.5341  0.5712
  112MOL0     C15022   5.798   4.991   6.723 -0.6310 -0.1571  0.1566
  112MOL0     C15023   5.754   4.861   6.658  0.6430 -0.5266 -0.5016
  112MOL0     C15024   5.667   4.783   6.753 -0.5595  0.1136 -0.4470
  112MOL0     C15025   5.514   4.811   6.755 -0.2912  0.1604  0.9091
  112MOL0     C15026   5.429   4.710   6.822  0.6740 -0.2148 -0.1582
  112MOL0     C15027   5.472   4.672   6.957  0.4617 -0.3642  0.3280
  112MOL0     C15028   5.363   4.602   7.040 -0.2232  0.4365 -0.0225
  112MOL0    Cl15029   5.235   4.697   7.107 -0.4634 -0.0315 -0.1089
  112MOL0     C15030   6.024   5.248   6.469  0.1519  0.1484 -0.5767
  112MOL0     C15031   6.082   5.349   6.391 -0.6527  0.2744 -0.1560
  112MOL0     O15032   5.928   5.657   6.305 -0.4646 -0.7611  0.6249
  112MOL0     C15033   6.235   5.743   6.148  0.6143  0.1337 -0.1393
  112MOL0     C15034   6.279   5.830   6.047 -0.2294  0.0221  1.1069
  112MOL0     N15035   6.638   6.531   5.774 -0.0476  0.2066  0.1259
  112MOL0     N15036   6.757   6.579   5.784  0.6280  1.0297 -0.3266
  112MOL0     C15037   7.986   6.608   5.818  0.3223 -0.0091 -0.1602
  112MOL0     C15038   8.118   6.601   5.775 -0.7174  0.4104 -0.0861
  112MOL0     C15039   8.581   6.778   5.733  0.4998  0.0129  0.0273
  112MOL0     C15040   8.658   6.896   5.753  0.1744 -0.7573 -0.1463
  112MOL0     C15041   8.790   6.901   5.722 -1.0372  0.2042  0.0523
  112MOL0     C15042   8.851   6.795   5.652 -0.4643 -0.6535  0.6833
  112MOL0     O15043   8.980   6.819   5.599 -0.8017 -0.6376 -1.1828
  112MOL0     C15044   8.993   6.903   5.482 -0.6597 -0.4502  0.4022
  112MOL0     C15045   9.145   6.926   5.462  0.6864 -0.3174 -1.1495
  112MOL0     C15046   9.207   7.022   5.574 -0.8298 -0.1329  0.7394
  112MOL0     C15047   9.273   6.936   5.688  0.5779 -0.4953  0.3888
  112MOL0     C15048   9.396   6.862   5.639 -0.5056 -0.2935 -0.3212
  112MOL0     C15049   9.505   6.813   5.611  0.2110 -0.2624 -0.5627
  112MOL0     C15050   8.770   6.676   5.633 -0.0448 -0.2433  0.3284
  112MOL0     C15051   8.637   6.667   5.680 -0.6258 -0.1701 -0.1459
  112MOL0     C15052   8.582   6.538   5.664  0.8510  0.4077 -0.1594
  112MOL0     H15053   8.230   6.834   6.000 -1.5371  0.5367  0.7082
  112MOL0     H15054   8.019   6.846   6.047  0.5950 -2.8667  2.6325
  112MOL0     H15055   7.693   6.640   5.807  4.2408 -1.8148 -1.3613
  112MOL0     H15056   7.748   6.560   5.956  0.5539  2.0613  2.5385
  112MOL0     H15057   7.571   6.807   5.955 -1.1132  0.6903  1.1723
  112MOL0     H15058   7.667   6.754   6.100  2.8796 -0.2367 -0.5429
  112MOL0     H15059   7.442   6.689   6.112 -0.5528  1.2458  0.2348
  112MOL0     H15060   7.534   6.546   6.088 -2.3199  0.1382  0.7948
  112MOL0     H15061   7.382   6.706   5.861 -0.6850  0.7404  2.0729
  112MOL0     H15062   7.475   6.559   5.830  1.8659  2.2980 -0.4980
  112MOL0     H15063   7.305   6.440   5.980 -1.6139 -0.9673 -1.1629
  112MOL0     H15064   7.215   6.585   5.995 -1.8162 -1.4387  0.7178
  112MOL0     H15065   7.218   6.574   5.722 -2.7420  0.0878  1.0822
  112MOL0     H15066   7.280   6.416   5.747  0.1274  0.3260 -0.7168
  112MOL0     H15067   7.075   6.338   5.843 -3.6081 -0.2418 -0.9410
  112MOL0     H15068   7.037   6.439   5.701 -0.7968 -1.0968  0.2950
  112MOL0     H15069   6.995   6.494   5.999 -0.1164 -1.2940 -0.9664
  112MOL0     H15070   7.006   6.635   5.874 -3.0450  0.7040 -1.0129
  112MOL0     H15071   6.811   6.291   5.919 -2.8872 -0.3478  1.0031
  112MOL0     H15072   6.433   6.335   5.773  0.1665  1.1283  0.9913
  112MOL0     H15073   6.568   6.216   5.751  1.7716  1.0892 -0.1569
  112MOL0     H15074   6.597   6.191   5.983  0.6067  1.8753  1.0119
  112MOL0     H15075   6.490   6.341   5.997 -2.5404  0.7615 -0.1348
  112MOL0     H15076   6.301   6.231   5.928  0.6570 -1.1530 -2.5060
  112MOL0     H15077   6.374   6.124   6.052 -0.4400 -0.7638 -0.4143
  112MOL0     H15078   6.441   5.962   5.869 -0.2310 -0.2895 -2.5076
  112MOL0     H15079   6.383   6.074   5.751 -2.8793 -0.2362 -0.0552
  112MOL0     H15080   5.998   5.983   5.973  1.5245  2.2170  0.8681
  112MOL0     H15081   5.901   5.827   6.128  0.6246 -1.6968  1.9393
  112MOL0     H15082   5.999   5.617   6.594 -1.0274 -0.6847  2.9893
  112MOL0     H15083   5.904   5.442   6.728 -1.0983 -0.4021 -1.0729
  112MOL0     H15084   5.843   5.059   6.535 -0.1083 -1.9189  0.6780
  112MOL0     H15085   5.980   4.985   6.614 -0.7744 -0.8680 -0.1277
  112MOL0     H15086   5.839   4.967   6.821 -1.1758 -1.9180 -0.0014
  112MOL0     H15087   5.715   5.061   6.737 -2.1703 -0.6057 -4.7291
  112MOL0     H15088   5.689   4.875   6.571  2.4411 -0.1500 -1.8409
  112MOL0     H15089   5.833   4.812   6.600 -0.9851 -0.1466 -3.2313
  112MOL0     H15090   5.711   4.783   6.853  0.1400 -2.4481 -0.6998
  112MOL0     H15091   5.672   4.679   6.721  1.2122  0.8058 -2.7683
  112MOL0     H15092   5.484   4.811   6.650  2.8099  0.7335 -0.0858
  112MOL0     H15093   5.479   4.904   6.801 -2.3790 -0.2946  0.3533
  112MOL0     H15094   5.325   4.746   6.820  0.5122 -0.4318  2.1928
  112MOL0     H15095   5.439   4.616   6.767  1.8820  0.2843 -0.8363
  112MOL0     H15096   5.513   4.754   7.017 -0.2387 -2.1315  3.4573
  112MOL0     H15097   5.550   4.596   6.955 -1.7553 -2.9787  3.1009
  112MOL0     H15098   5.322   4.517   6.985  0.4830  0.8033 -1.1655
  112MOL0     H15099   5.426   4.554   7.116 -1.6992 -3.9936 -1.2985
  112MOL0     H15100   6.029   5.146   6.433  0.6092 -0.5021  1.2204
  112MOL0     H15101   6.127   5.329   6.295 -0.3669 -0.4547  0.1227
  112MOL0     H15102   6.310   5.673   6.184  1.1571  1.3570  1.1853
  112MOL0     H15103   6.385   5.827   6.021  0.1516 -2.6646  2.6083
  112MOL0     H15104   7.914   6.545   5.767  1.3669 -0.9040 -0.5726
  112MOL0     H15105   8.152   6.521   5.709  0.6789 -1.1892  2.4142
  112MOL0     H15106   8.626   6.983   5.810  0.0064  0.2952 -1.7838
  112MOL0     H15107   8.846   6.979   5.773 -1.0178  0.2175  0.0115
  112MOL0     H15108   8.949   6.999   5.513 -0.2817  0.4894 -1.7635
  112MOL0     H15109   8.943   6.860   5.395 -2.5277  2.1629  0.0515
  112MOL0     H15110   9.163   6.966   5.362 -2.8571  0.9716 -1.4206
  112MOL0     H15111   9.189   6.827   5.479  1.3240  0.5115  3.2501
  112MOL0     H15112   9.134   7.084   5.626 -1.1285 -1.3060  1.7625
  112MOL0     H15113   9.289   7.073   5.524  0.4148 -3.2801 -0.7370
  112MOL0     H15114   9.311   7.004   5.765 -1.8347 -0.8859  2.0285
  112MOL0     H15115   9.214   6.858   5.737  0.7339 -1.2144 -0.5363
  112MOL0     H15116   9.585   6.760   5.562  1.2735 -0.3643  1.1938
  112MOL0     H15117   8.804   6.591   5.575 -1.1532 -1.1223  0.9128
  112MOL0     H15118   8.538   6.509   5.760 -0.5959 -0.5750 -1.0795
  112MOL0     H15119   8.493   6.535   5.600  0.8406 -4.5393 -0.2485
  112MOL0     H15120   8.654   6.464   5.628 -0.9090 -2.3404  1.5984
  113MOL0     O15121   3.687   9.436   3.713  0.0278  0.8500  0.5741
  113MOL0     C15122   3.738   9.473   3.818  0.3717  0.2097 -0.1359
  113MOL0     O15123   3.820   9.577   3.835 -0.8142 -0.2880 -0.5234
  113MOL0     C15124   3.826   9.676   3.744  0.4390 -0.3307  0.3410
  113MOL0     C15125   3.713   9.758   3.717  0.2484 -0.1107 -0.8659
  113MOL0     C15126   3.716   9.843   3.602 -0.2204  0.3076 -0.8653
  113MOL0     C15127   3.812   9.821   3.506  0.0432 -0.5022  0.8469
  113MOL0     O15128   3.784   9.889   3.392 -0.4209 -0.0431  0.2734
  113MOL0     C15129   3.862   9.871   3.271  0.4777  0.2857 -0.2351
  113MOL0     C15130   3.973   9.977   3.274  0.3299  0.6777  0.0427
  113MOL0     C15131   4.043   9.978   3.133  0.7033 -0.0094 -0.0680
  113MOL0     C15132   4.169   9.883   3.125  0.4861  1.9286  0.1382
  113MOL0     C15133   4.122   9.739   3.108 -0.6563 -0.3161  0.7730
  113MOL0     C15134   4.251   9.655   3.075  0.4420  0.0441 -0.1344
  113MOL0     C15135   4.371   9.674   3.173  0.8274 -0.1812  0.2878
  113MOL0     C15136   4.341   9.669   3.323 -0.4990  0.0314 -1.1101
  113MOL0     N15137   4.301   9.538   3.373  0.5282 -0.0655  0.0172
  113MOL0     C15138   4.200   9.512   3.467  0.5789 -0.2919 -0.1498
  113MOL0     C15139   4.179   9.376   3.467 -0.6120 -0.0775 -0.3763
  113MOL0     C15140   4.074   9.319   3.560  1.2177  0.6268  0.6053
  113MOL0     C15141   3.992   9.198   3.489 -0.6290 -1.5818 -0.2759
  113MOL0     C15142   3.929   9.232   3.351  0.3844  0.4167  0.1553
  113MOL0     C15143   3.845   9.362   3.340  0.3936  0.8466  0.4032
  113MOL0     O15144   3.765   9.345   3.213  0.4342  0.1514  0.0805
  113MOL0     C15145   3.826   9.325   3.088  0.2868 -0.5526 -0.0057
  113MOL0     C15146   3.756   9.244   2.998 -0.5332  0.8023 -0.4430
  113MOL0     C15147   3.820   9.212   2.880 -1.4329 -0.0828  0.7194
  113MOL0     C15148   3.953   9.258   2.846  1.0901  0.5238  0.2603
  113MOL0     C15149   4.016   9.249   2.715  0.5680 -0.0432 -0.2640
  113MOL0     O15150   3.940   9.171   2.627  0.0226 -0.5582  0.0109
  113MOL0     C15151   3.996   9.114   2.521  0.0063  0.0142  0.2717
  113MOL0     C15152   4.023   8.977   2.532  0.1969  0.3602  0.4863
  113MOL0     C15153   4.063   8.895   2.431 -0.3442  0.2691 -0.2597
  113MOL0     C15154   4.097   8.952   2.302  1.4811  0.2062 -0.4010
  113MOL0     O15155   4.142   8.883   2.196 -0.5791  0.6724  0.4589
  113MOL0     C15156   4.219   8.939   2.089  0.1243  0.4501 -0.3632
  113MOL0     C15157   4.373   8.943   2.123 -0.2354 -0.7283 -0.9321
  113MOL0     C15158   4.395   9.033   2.254  0.3255  0.7932  1.0161
  113MOL0     C15159   4.545   9.052   2.281  0.3698  0.0446 -0.5416
  113MOL0     C15160   4.584   9.143   2.394  0.1545 -1.0800  1.1032
  113MOL0     C15161   4.730   9.136   2.419 -0.0195  0.0038  0.5689
  113MOL0     C15162   4.789   9.218   2.532  0.1168 -1.2104 -0.4159
  113MOL0     C15163   4.937   9.199   2.552  0.1737  0.6229  0.0271
  113MOL0    Cl15164   5.042   9.253   2.405 -0.1532 -0.0916  0.3233
  113MOL0     C15165   4.065   9.086   2.292  0.7296  1.0651  0.9545
  113MOL0     C15166   4.020   9.172   2.391 -0.5403  0.1235 -0.3646
  113MOL0     O15167   4.122   9.310   2.695  0.1235 -0.0249 -0.5058
  113MOL0     C15168   4.016   9.329   2.938 -0.6280  0.1539  0.1171
  113MOL0     C15169   3.955   9.377   3.052 -0.6037 -0.3326  0.8615
  113MOL0     N15170   4.269   9.322   3.381 -0.5725  0.0446  0.0455
  113MOL0     N15171   4.339   9.417   3.321 -0.0071  0.0975 -0.1935
  113MOL0     C15172   3.931   9.752   3.542 -0.3129 -0.3383  0.5193
  113MOL0     C15173   3.935   9.683   3.662 -0.6590  0.0818  0.9824
  113MOL0     C15174   3.697   9.378   3.922 -0.1774 -0.1205 -0.2198
  113MOL0     C15175   3.692   9.434   4.047 -0.0468  0.0038 -0.1665
  113MOL0     C15176   3.654   9.367   4.164 -0.1433 -1.3292  0.2682
  113MOL0     C15177   3.612   9.232   4.164  0.4237 -1.1207 -0.6640
  113MOL0     O15178   3.581   9.160   4.280  0.0085  0.4296  0.4163
  113MOL0     C15179   3.512   9.032   4.268  0.6260  0.8205  0.3980
  113MOL0     C15180   3.508   8.961   4.401 -0.0396 -0.0984  1.1050
  113MOL0     C15181   3.402   9.009   4.509  0.3866  0.3144 -0.2274
  113MOL0     C15182   3.346   8.901   4.617  0.7355 -0.1013  0.1096
  113MOL0     C15183   3.444   8.887   4.717 -0.2449  0.0608 -1.0642
  113MOL0     C15184   3.518   8.881   4.813  0.4166  0.2363 -0.1607
  113MOL0     C15185   3.625   9.174   4.042 -0.0711 -0.8441 -0.0991
  113MOL0     C15186   3.672   9.231   3.916  0.3219 -0.6258  0.4514
  113MOL0     C15187   3.661   9.139   3.796 -0.1569 -0.2875  0.4697
  113MOL0     H15188   3.628   9.770   3.783  0.3024  0.0322 -0.8226
  113MOL0     H15189   3.642   9.921   3.594  0.8078  1.1807 -2.2850
  113MOL0     H15190   3.895   9.768   3.257 -0.8011 -0.2133  0.2429
  113MOL0     H15191   3.796   9.895   3.187 -0.2824  1.1013  0.5740
  113MOL0     H15192   4.056   9.954   3.342 -0.1759  0.2184  0.5071
  113MOL0     H15193   3.947  10.080   3.300  1.9077  0.8686  1.0177
  113MOL0     H15194   4.076  10.082   3.130  0.9456 -0.0712  0.4438
  113MOL0     H15195   3.987   9.947   3.044 -0.5579 -2.0009  1.3434
  113MOL0     H15196   4.219   9.904   3.030  1.4827  0.3456  0.2742
  113MOL0     H15197   4.240   9.884   3.208  1.5400 -1.1709 -0.5827
  113MOL0     H15198   4.065   9.699   3.192 -1.4602  0.7090  0.7412
  113MOL0     H15199   4.058   9.736   3.019  1.8955 -3.8375 -1.1919
  113MOL0     H15200   4.231   9.547   3.066 -0.7114  0.4456 -4.4969
  113MOL0     H15201   4.282   9.682   2.974 -0.6800 -0.5749 -0.6679
  113MOL0     H15202   4.416   9.769   3.142  0.5854 -0.0296  0.3927
  113MOL0     H15203   4.443   9.595   3.149 -0.3060  0.0377 -5.1350
  113MOL0     H15204   4.435   9.698   3.370 -0.7630 -1.8346  0.7351
  113MOL0     H15205   4.269   9.742   3.361  0.3421 -0.2716  1.2425
  113MOL0     H15206   4.150   9.592   3.521  1.8902  0.2405  0.3038
  113MOL0     H15207   4.121   9.278   3.650  0.4945 -0.4649  0.5033
  113MOL0     H15208   4.007   9.397   3.598  0.8530  0.7855 -0.3271
  113MOL0     H15209   4.066   9.118   3.484 -1.0260 -1.9498 -0.3680
  113MOL0     H15210   3.919   9.169   3.565 -1.1616 -0.9238 -0.5280
  113MOL0     H15211   3.860   9.154   3.317  2.1872 -1.8624  1.4646
  113MOL0     H15212   4.009   9.233   3.276  0.1127  0.9028 -0.1347
  113MOL0     H15213   3.912   9.448   3.343  2.3998 -0.5847 -0.7636
  113MOL0     H15214   3.775   9.370   3.423  1.7341 -0.4327  1.7251
  113MOL0     H15215   3.651   9.217   3.006  0.0757 -1.5139  0.3889
  113MOL0     H15216   3.766   9.150   2.809 -1.1163  1.1844 -0.6811
  113MOL0     H15217   3.996   8.929   2.626  0.8639  0.7003  0.8604
  113MOL0     H15218   4.082   8.789   2.443 -2.0787  0.1693  2.2030
  113MOL0     H15219   4.212   8.869   2.006  1.6813 -1.1813  0.7903
  113MOL0     H15220   4.181   9.034   2.051  1.3785  2.9123  3.8079
  113MOL0     H15221   4.393   8.838   2.146  0.0101 -0.5566 -0.3531
  113MOL0     H15222   4.425   8.991   2.039  0.5874  2.3864  1.1540
  113MOL0     H15223   4.322   9.115   2.255 -0.7776 -0.1538  0.4847
  113MOL0     H15224   4.365   8.960   2.330  0.3627  1.5482  1.7719
  113MOL0     H15225   4.577   9.092   2.184 -1.2770 -0.4255 -1.3181
  113MOL0     H15226   4.593   8.954   2.286 -0.4850 -0.4252 -1.2955
  113MOL0     H15227   4.535   9.119   2.489  2.3041  0.4166  2.6824
  113MOL0     H15228   4.546   9.243   2.368 -2.8423 -3.1998 -4.2553
  113MOL0     H15229   4.755   9.030   2.427  0.4981  0.0106 -0.7006
  113MOL0     H15230   4.777   9.174   2.328  0.2419 -2.4486 -0.3930
  113MOL0     H15231   4.749   9.193   2.631  2.5557  1.6550  1.5064
  113MOL0     H15232   4.762   9.324   2.520 -2.2439 -1.4235  1.9370
  113MOL0     H15233   4.976   9.255   2.637 -1.2306  0.6796  0.6576
  113MOL0     H15234   4.954   9.091   2.552 -0.8443  0.4522  0.7596
  113MOL0     H15235   4.073   9.145   2.201  0.5022  3.7151  2.5203
  113MOL0     H15236   4.016   9.274   2.353 -1.0037  0.3407  0.2395
  113MOL0     H15237   4.120   9.355   2.920 -0.2861 -2.1324 -1.6173
  113MOL0     H15238   4.015   9.445   3.111 -1.5107 -1.1746  2.8560
  113MOL0     H15239   4.011   9.759   3.468 -3.5747 -0.7278 -3.3786
  113MOL0     H15240   4.020   9.624   3.694 -0.7698 -0.5850  0.0842
  113MOL0     H15241   3.719   9.538   4.065  0.6115 -0.1215 -0.3975
  113MOL0     H15242   3.638   9.421   4.257 -0.2384 -2.5093  0.9563
  113MOL0     H15243   3.574   8.966   4.207 -1.7410 -1.3858  0.2021
  113MOL0     H15244   3.405   9.035   4.244  0.4159 -2.6750  0.4255
  113MOL0     H15245   3.609   8.955   4.442 -0.0123  2.6845  1.6637
  113MOL0     H15246   3.470   8.863   4.372 -1.0847  1.0415 -1.7620
  113MOL0     H15247   3.316   9.051   4.456  0.3236  0.7565  0.2139
  113MOL0     H15248   3.446   9.100   4.552 -0.3819  0.6955 -0.2294
  113MOL0     H15249   3.248   8.923   4.661 -0.8007 -1.4574 -2.4118
  113MOL0     H15250   3.341   8.802   4.571 -2.1422 -0.7208  1.4778
  113MOL0     H15251   3.562   8.875   4.910 -0.5340 -1.4797  0.2027
  113MOL0     H15252   3.593   9.071   4.032 -1.0712 -0.4730 -0.8845
  113MOL0     H15253   3.736   9.172   3.724 -1.0069  0.1380 -0.2458
  113MOL0     H15254   3.686   9.036   3.825  0.5614  0.3162  2.0958
  113MOL0     H15255   3.566   9.145   3.742  1.6700 -1.1494 -3.1553
  114MOL0     O15256   4.966   7.142   3.423 -0.8680  1.0231 -0.1378
  114MOL0     C15257   4.913   7.177   3.325 -0.5203 -0.5704  0.5625
  114MOL0     O15258   4.975   7.232   3.221  1.1481  0.2504  0.9414
  114MOL0     C15259   5.083   7.305   3.261 -0.7576  0.2239  0.9036
  114MOL0     C15260   5.208   7.295   3.190 -0.3642 -0.1448  0.2631
  114MOL0     C15261   5.320   7.376   3.214  0.2780 -0.8249  0.8028
  114MOL0     C15262   5.309   7.479   3.315  0.4597 -0.5592 -0.4033
  114MOL0     O15263   5.416   7.561   3.326  0.9243 -0.6272  0.1133
  114MOL0     C15264   5.377   7.686   3.380  0.6124  0.8828 -0.7170
  114MOL0     C15265   5.492   7.784   3.364  0.5125  0.3316 -0.3910
  114MOL0     C15266   5.598   7.757   3.463 -0.6332  1.3807 -0.1389
  114MOL0     C15267   5.714   7.850   3.440  0.5757  0.5642  0.8391
  114MOL0     C15268   5.846   7.783   3.488 -0.0152  0.0820  0.6367
  114MOL0     C15269   5.970   7.877   3.471  0.1663  0.1211  0.2516
  114MOL0     C15270   6.016   7.907   3.325 -0.5679 -0.3928 -0.4856
  114MOL0     C15271   6.103   7.790   3.279  0.1541 -0.8574 -0.0399
  114MOL0     N15272   6.039   7.667   3.237 -0.2554  0.8562  0.1503
  114MOL0     C15273   5.925   7.649   3.172  0.3470 -0.4056  0.1236
  114MOL0     C15274   5.909   7.520   3.151 -0.8718 -0.7356  0.1768
  114MOL0     C15275   5.788   7.472   3.075  0.4136 -0.2369  0.2197
  114MOL0     C15276   5.826   7.330   3.007  0.5299  0.3469 -0.7673
  114MOL0     C15277   5.800   7.343   2.855  0.1572  0.0023  0.6578
  114MOL0     C15278   5.847   7.219   2.789  0.0145 -0.8143  0.2153
  114MOL0     O15279   5.826   7.241   2.649  0.7996 -0.2806 -0.5387
  114MOL0     C15280   5.829   7.135   2.564  0.1501  0.6018 -0.1818
  114MOL0     C15281   5.764   7.169   2.445 -0.0671  0.5225  1.0641
  114MOL0     C15282   5.760   7.084   2.335  0.6840 -0.8368 -0.6818
  114MOL0     C15283   5.848   6.970   2.337 -0.1104 -0.1067 -0.7117
  114MOL0     C15284   5.852   6.886   2.214  0.0407  1.0662  0.2140
  114MOL0     O15285   5.932   6.773   2.226  0.5100  0.7269  0.3964
  114MOL0     C15286   5.945   6.681   2.115  0.0809 -1.1190  0.4338
  114MOL0     C15287   6.022   6.702   1.999 -1.6297 -0.2885  0.3882
  114MOL0     C15288   6.072   6.600   1.913  0.9982  1.2014 -0.3682
  114MOL0     C15289   6.033   6.468   1.946 -0.4687 -0.5305  0.1046
  114MOL0     O15290   6.065   6.368   1.859  0.1016 -0.2875  0.3487
  114MOL0     C15291   6.050   6.237   1.901  0.4455  0.5148 -1.5102
  114MOL0     C15292   6.122   6.139   1.807 -0.5576  0.3017 -0.4712
  114MOL0     C15293   6.094   5.989   1.827  0.5521  0.1552 -0.6644
  114MOL0     C15294   6.184   5.907   1.733  0.6260  0.7657  0.4021
  114MOL0     C15295   6.179   5.748   1.764  0.0300 -1.3853  0.8313
  114MOL0     C15296   6.215   5.652   1.650 -0.5600  0.0449  0.6072
  114MOL0     C15297   6.264   5.526   1.699 -1.2867  0.1827 -0.2043
  114MOL0     C15298   6.166   5.415   1.699  0.1350 -0.2392  1.1280
  114MOL0    Cl15299   6.051   5.417   1.833 -0.3693 -0.1045  0.2839
  114MOL0     C15300   5.953   6.441   2.064 -0.3881  0.7848  0.6415
  114MOL0     C15301   5.921   6.548   2.147 -0.3299 -0.8387  0.8569
  114MOL0     O15302   5.782   6.911   2.116 -0.2844 -0.4538  0.3359
  114MOL0     C15303   5.920   6.948   2.459  0.1412  0.2085  1.0950
  114MOL0     C15304   5.909   7.029   2.574 -0.5243 -0.3858 -1.0099
  114MOL0     N15305   6.009   7.451   3.223 -0.2154  0.0030  0.0529
  114MOL0     N15306   6.086   7.536   3.266  0.2193 -0.5972 -0.0467
  114MOL0     C15307   5.186   7.480   3.395 -0.6700 -0.2012 -0.1449
  114MOL0     C15308   5.078   7.401   3.362 -0.6150  0.2781  0.1734
  114MOL0     C15309   4.773   7.133   3.295 -0.3583 -0.8859 -0.0641
  114MOL0     C15310   4.737   7.121   3.155  1.2372  1.1027  0.1524
  114MOL0     C15311   4.601   7.097   3.120  0.0473 -0.6302  0.4147
  114MOL0     C15312   4.504   7.089   3.215  0.0517  0.3604 -0.4056
  114MOL0     O15313   4.378   7.057   3.164  0.3771  0.2498 -0.3262
  114MOL0     C15314   4.253   7.094   3.230  0.7295  0.0259 -0.9789
  114MOL0     C15315   4.174   7.200   3.152 -0.8944 -0.0317 -0.4395
  114MOL0     C15316   4.085   7.142   3.038  0.2783 -0.2084  0.2767
  114MOL0     C15317   4.161   7.053   2.951 -0.4883  0.1860 -0.6356
  114MOL0     C15318   4.093   7.004   2.826  0.3374  0.1007  0.6484
  114MOL0     C15319   4.044   6.989   2.712  0.1583  0.0241 -0.0191
  114MOL0     C15320   4.540   7.118   3.343 -0.2901 -0.2788 -0.8554
  114MOL0     C15321   4.671   7.140   3.391  0.0533  0.4995 -0.2517
  114MOL0     C15322   4.688   7.193   3.537 -0.4636 -0.1218 -0.0715
  114MOL0     H15323   5.206   7.230   3.104  0.5372  1.5837 -1.1371
  114MOL0     H15324   5.403   7.381   3.143 -1.7838 -2.0106 -1.8691
  114MOL0     H15325   5.287   7.734   3.341 -2.2638 -3.2448  0.0920
  114MOL0     H15326   5.353   7.673   3.486 -2.1170  1.7080 -1.1363
  114MOL0     H15327   5.449   7.884   3.376 -1.6360 -0.5965  0.0299
  114MOL0     H15328   5.536   7.783   3.264 -0.0846  0.8957 -0.6681
  114MOL0     H15329   5.627   7.652   3.448 -4.6095 -0.2211  1.7680
  114MOL0     H15330   5.566   7.755   3.568  1.2130 -1.6538  0.4918
  114MOL0     H15331   5.709   7.873   3.333 -1.4614 -3.0952 -0.0213
  114MOL0     H15332   5.711   7.945   3.494  1.7047  0.5553  0.9396
  114MOL0     H15333   5.830   7.765   3.595  0.6599 -3.1269  0.2783
  114MOL0     H15334   5.859   7.682   3.449 -2.8460  0.4377 -1.5397
  114MOL0     H15335   5.946   7.971   3.522 -0.0606  0.2016  0.0003
  114MOL0     H15336   6.058   7.835   3.521  0.8013  1.6412  0.4592
  114MOL0     H15337   6.070   8.002   3.331  0.1942 -0.7377 -1.5219
  114MOL0     H15338   5.935   7.912   3.251  1.0037 -2.5514 -2.5270
  114MOL0     H15339   6.155   7.829   3.192 -0.3173 -0.7217 -0.2622
  114MOL0     H15340   6.163   7.763   3.367 -1.4342  0.5819  1.5827
  114MOL0     H15341   5.855   7.730   3.152 -1.8294 -2.5490 -1.5137
  114MOL0     H15342   5.700   7.470   3.139 -0.5514  0.3996 -1.0474
  114MOL0     H15343   5.768   7.546   2.997 -1.8931  0.8023  1.7001
  114MOL0     H15344   5.934   7.316   3.016  0.2077 -0.9781  2.5637
  114MOL0     H15345   5.779   7.245   3.057  1.3148 -0.9759 -2.1904
  114MOL0     H15346   5.859   7.420   2.804 -0.6738  0.3527  0.2020
  114MOL0     H15347   5.696   7.372   2.836  0.3854  4.5907  4.5401
  114MOL0     H15348   5.789   7.134   2.825 -0.5292 -0.0004  1.3344
  114MOL0     H15349   5.954   7.208   2.808  0.1831 -0.0952 -0.2968
  114MOL0     H15350   5.710   7.263   2.435 -0.2134  0.2004 -2.2228
  114MOL0     H15351   5.692   7.110   2.255 -1.1583  2.5621  1.7186
  114MOL0     H15352   6.054   6.803   1.979  2.2121 -0.4585  4.2253
  114MOL0     H15353   6.133   6.623   1.827  0.4398  0.2292 -1.0485
  114MOL0     H15354   6.097   6.227   2.000  1.2658  2.1468 -1.7015
  114MOL0     H15355   5.944   6.209   1.904  1.0203 -1.7154 -0.2175
  114MOL0     H15356   6.097   6.163   1.703 -0.7179 -0.9238 -0.7269
  114MOL0     H15357   6.231   6.139   1.817 -0.2882  1.5755 -2.7091
  114MOL0     H15358   6.113   5.950   1.927 -2.4285 -2.7585 -1.0419
  114MOL0     H15359   5.988   5.963   1.826  0.7223 -1.2888  3.1868
  114MOL0     H15360   6.285   5.949   1.738  0.6351  0.7474  0.3803
  114MOL0     H15361   6.153   5.917   1.629  0.8517 -4.5169 -0.4549
  114MOL0     H15362   6.073   5.731   1.781 -0.3461  0.9580  1.1781
  114MOL0     H15363   6.232   5.719   1.855  3.6081 -2.3747 -1.3466
  114MOL0     H15364   6.125   5.642   1.590 -0.6378  2.6315  0.2083
  114MOL0     H15365   6.285   5.705   1.585 -0.2934  0.1528  0.9730
  114MOL0     H15366   6.315   5.518   1.795 -1.1657 -4.4899 -0.4292
  114MOL0     H15367   6.333   5.506   1.617 -0.6803  3.9579 -0.7808
  114MOL0     H15368   6.107   5.409   1.607 -1.5234  0.2439  2.1043
  114MOL0     H15369   6.228   5.325   1.691 -1.4454 -1.3626  0.9821
  114MOL0     H15370   5.925   6.343   2.100  2.7137 -0.1920  0.6132
  114MOL0     H15371   5.882   6.531   2.247 -2.6076 -2.3088 -0.1864
  114MOL0     H15372   5.982   6.858   2.455 -0.1731  0.0312  0.1510
  114MOL0     H15373   5.948   7.000   2.671  2.3351 -4.5713 -3.0912
  114MOL0     H15374   5.183   7.548   3.479 -1.8551  0.7775 -0.9485
  114MOL0     H15375   4.985   7.409   3.417 -0.5022  2.6044  0.1082
  114MOL0     H15376   4.815   7.115   3.080 -0.1469  1.4782 -1.3487
  114MOL0     H15377   4.582   7.079   3.014  4.5072 -0.7707 -0.5588
  114MOL0     H15378   4.272   7.138   3.328  0.3636 -1.7646 -0.0559
  114MOL0     H15379   4.196   7.003   3.248  0.3548  0.4282 -0.0843
  114MOL0     H15380   4.244   7.266   3.101 -1.4746  1.7324  0.9594
  114MOL0     H15381   4.109   7.262   3.214 -0.1329  2.6817 -2.1726
  114MOL0     H15382   4.035   7.218   2.977  0.4001 -0.3422  0.0087
  114MOL0     H15383   4.007   7.087   3.091  1.2591 -2.3881 -0.4284
  114MOL0     H15384   4.246   7.109   2.910  2.3836 -4.1817 -1.3149
  114MOL0     H15385   4.195   6.968   3.011 -1.6077  0.6450  0.7132
  114MOL0     H15386   3.993   6.989   2.618 -0.8893 -1.2817  0.5203
  114MOL0     H15387   4.467   7.093   3.419  2.7610 -0.0315  2.4571
  114MOL0     H15388   4.689   7.302   3.535 -1.6902 -0.1067 -0.6271
  114MOL0     H15389   4.606   7.161   3.603  0.5585  1.3128  1.9769
  114MOL0     H15390   4.781   7.157   3.582  0.0249  0.5761 -0.5144
  115MOL0     O15391   6.492   4.532   6.421 -0.2170  0.7491 -0.4852
  115MOL0     C15392   6.615   4.499   6.407  0.1155  0.3824  0.1232
  115MOL0     O15393   6.712   4.486   6.508  0.2888  0.1390  0.0025
  115MOL0     C15394   6.677   4.474   6.639  0.8514  1.0580  0.1757
  115MOL0     C15395   6.739   4.378   6.721  0.4183 -0.2101 -0.3452
  115MOL0     C15396   6.711   4.383   6.864 -0.6899  0.4932  0.1641
  115MOL0     C15397   6.627   4.472   6.927 -0.2455 -0.6625 -0.9272
  115MOL0     O15398   6.606   4.479   7.060 -0.5159 -0.2563 -0.6762
  115MOL0     C15399   6.473   4.459   7.110  1.1566  0.0237 -0.1582
  115MOL0     C15400   6.406   4.325   7.071  0.2937 -0.0785 -0.7409
  115MOL0     C15401   6.293   4.313   7.177 -0.6780  0.9767  0.4866
  115MOL0     C15402   6.194   4.209   7.133 -0.1033 -0.0358 -0.1387
  115MOL0     C15403   6.103   4.149   7.240  0.0209 -0.0133 -0.0461
  115MOL0     C15404   5.979   4.071   7.190 -0.2215  0.2074  0.4003
  115MOL0     C15405   5.891   4.022   7.304  0.1876  0.9823  0.0885
  115MOL0     C15406   5.800   3.927   7.236 -0.8501  0.2782  0.5199
  115MOL0     N15407   5.704   3.849   7.319  0.0769 -0.0662  0.5119
  115MOL0     C15408   5.610   3.763   7.269 -0.7213 -0.6446 -0.1430
  115MOL0     C15409   5.507   3.780   7.352 -0.2918 -0.5053  0.3164
  115MOL0     C15410   5.385   3.692   7.341 -0.3177 -0.0497 -0.0583
  115MOL0     C15411   5.386   3.550   7.406  0.4096 -1.1354 -0.5630
  115MOL0     C15412   5.253   3.481   7.400  1.3141  0.2585 -0.2772
  115MOL0     C15413   5.260   3.339   7.483 -0.7090 -0.3391  0.4580
  115MOL0     O15414   5.128   3.315   7.536 -0.1474  0.0720  0.1836
  115MOL0     C15415   5.030   3.253   7.460  0.2542 -0.7016 -0.3621
  115MOL0     C15416   5.043   3.185   7.337  0.2442 -1.0421 -0.1217
  115MOL0     C15417   4.943   3.119   7.275  0.4697 -0.2087  0.1439
  115MOL0     C15418   4.808   3.119   7.321 -0.1048 -0.2852  0.3379
  115MOL0     C15419   4.696   3.062   7.240  0.6719  0.8851  0.1260
  115MOL0     O15420   4.584   3.034   7.304 -0.1755  0.1505 -0.3305
  115MOL0     C15421   4.488   2.957   7.251  0.8372 -0.3936 -1.0139
  115MOL0     C15422   4.369   3.009   7.201  0.1114  0.3990  0.4661
  115MOL0     C15423   4.269   2.913   7.166  0.5997 -0.9529  1.4690
  115MOL0     C15424   4.287   2.776   7.168 -0.1277  0.4737  0.2259
  115MOL0     O15425   4.196   2.693   7.101  0.8772  0.0050  0.1369
  115MOL0     C15426   4.135   2.579   7.160  0.4214 -0.2153  0.0289
  115MOL0     C15427   4.100   2.465   7.066 -0.0636  0.5548 -0.3636
  115MOL0     C15428   3.955   2.462   7.011  0.0009  0.6963  1.0749
  115MOL0     C15429   3.857   2.418   7.118  0.1830  0.6462  0.0279
  115MOL0     C15430   3.717   2.493   7.120  0.2904  0.1085  0.7263
  115MOL0     C15431   3.663   2.466   7.261  0.2779 -0.1419 -0.0078
  115MOL0     C15432   3.523   2.524   7.277  0.0596  0.2094  0.9092
  115MOL0     C15433   3.468   2.484   7.410  0.1601 -0.6715 -1.1259
  115MOL0    Cl15434   3.310   2.572   7.437  0.5705  0.2702  0.6734
  115MOL0     C15435   4.406   2.733   7.225  0.6484 -0.2106  0.8213
  115MOL0     C15436   4.499   2.819   7.272 -0.0759 -0.1496  0.1031
  115MOL0     O15437   4.720   3.019   7.129  0.1865 -0.1546 -0.5045
  115MOL0     C15438   4.789   3.204   7.430  0.3321 -0.6033 -0.8662
  115MOL0     C15439   4.895   3.260   7.503  0.3652 -0.5732 -0.0914
  115MOL0     N15440   5.538   3.872   7.452 -0.3147  0.4635  1.1528
  115MOL0     N15441   5.647   3.915   7.421 -0.1872  0.7746 -0.1605
  115MOL0     C15442   6.582   4.572   6.840  0.0342 -0.0425 -0.0249
  115MOL0     C15443   6.599   4.572   6.704  0.1687  0.5923  0.0905
  115MOL0     C15444   6.651   4.438   6.274  0.7741 -0.4130 -0.0942
  115MOL0     C15445   6.701   4.303   6.266  0.2903 -0.7098 -0.3567
  115MOL0     C15446   6.722   4.247   6.145  0.1230  0.0500 -0.4359
  115MOL0     C15447   6.690   4.308   6.023  1.0684 -0.5671  0.7911
  115MOL0     O15448   6.719   4.249   5.906 -0.3751 -0.4554 -0.8755
  115MOL0     C15449   6.710   4.106   5.884 -0.5174 -0.6428  0.1320
  115MOL0     C15450   6.569   4.049   5.907  0.3908 -0.7193  0.8785
  115MOL0     C15451   6.436   4.129   5.873 -0.8142  0.6583  0.7300
  115MOL0     C15452   6.316   4.040   5.897 -0.5388 -0.7805  0.6618
  115MOL0     C15453   6.201   4.101   5.823  0.4424 -0.3506  0.0366
  115MOL0     C15454   6.127   4.164   5.754  0.3261 -0.9624  0.5649
  115MOL0     C15455   6.655   4.443   6.024  0.8554 -0.8769  0.0143
  115MOL0     C15456   6.638   4.505   6.149 -1.4682 -0.1543 -0.0872
  115MOL0     C15457   6.592   4.644   6.141 -0.5688  0.0496 -1.2075
  115MOL0     H15458   6.791   4.294   6.677  0.5679  0.6688 -1.9182
  115MOL0     H15459   6.754   4.315   6.937 -0.8666 -0.3150 -0.4709
  115MOL0     H15460   6.476   4.465   7.219  4.0731 -0.7860 -0.1141
  115MOL0     H15461   6.423   4.551   7.078  2.0260  1.4616  2.3165
  115MOL0     H15462   6.477   4.242   7.082 -1.2457 -1.4996 -1.0742
  115MOL0     H15463   6.368   4.329   6.969  0.0620 -2.6763 -0.8438
  115MOL0     H15464   6.241   4.409   7.187 -0.3079  1.6198 -2.8308
  115MOL0     H15465   6.320   4.269   7.274 -2.3087 -0.5909  0.2922
  115MOL0     H15466   6.138   4.272   7.064  2.7202  2.4115 -0.4232
  115MOL0     H15467   6.239   4.123   7.083  1.2154  0.0642  0.8216
  115MOL0     H15468   6.168   4.072   7.283 -2.4034 -1.4277  1.2817
  115MOL0     H15469   6.073   4.228   7.309 -2.6592  0.5147 -1.6956
  115MOL0     H15470   5.915   4.128   7.122 -2.0114 -1.2050  0.8267
  115MOL0     H15471   6.023   3.991   7.131  2.1402  1.7968 -0.1445
  115MOL0     H15472   5.843   4.112   7.343  0.7187  1.8357 -1.1773
  115MOL0     H15473   5.949   3.973   7.383  0.9838  2.2658  0.3102
  115MOL0     H15474   5.748   3.986   7.161  1.1850  0.5259 -0.7697
  115MOL0     H15475   5.855   3.845   7.190 -0.8034  1.1008 -0.9497
  115MOL0     H15476   5.625   3.686   7.193 -0.0459 -1.1199  0.4559
  115MOL0     H15477   5.300   3.740   7.391  0.1640 -1.1416  1.8799
  115MOL0     H15478   5.361   3.678   7.235  1.0725 -1.0802 -0.2668
  115MOL0     H15479   5.451   3.484   7.347  0.9115  1.3074 -2.9187
  115MOL0     H15480   5.414   3.558   7.512  1.3427  0.0359 -0.8803
  115MOL0     H15481   5.226   3.466   7.295 -0.8920  6.2470 -0.9505
  115MOL0     H15482   5.172   3.537   7.448  0.7780 -0.7083 -0.0382
  115MOL0     H15483   5.332   3.338   7.565  0.3515 -2.4637 -0.4016
  115MOL0     H15484   5.298   3.258   7.420  0.0086  0.3893 -0.0709
  115MOL0     H15485   5.143   3.185   7.294  0.4721 -4.2576  0.1922
  115MOL0     H15486   4.973   3.073   7.181  1.4098  0.1066  0.2762
  115MOL0     H15487   4.350   3.111   7.172  0.7828  0.8356  1.5216
  115MOL0     H15488   4.172   2.949   7.134  0.8002 -1.3523  0.3636
  115MOL0     H15489   4.199   2.541   7.240  1.7293  0.9324 -0.4267
  115MOL0     H15490   4.053   2.618   7.221 -1.0993  1.9215 -3.1526
  115MOL0     H15491   4.178   2.448   6.991  0.9902  1.6279  0.4598
  115MOL0     H15492   4.109   2.384   7.139  0.1034  0.8743 -0.0270
  115MOL0     H15493   3.930   2.556   6.962 -1.1528  1.1517  2.4421
  115MOL0     H15494   3.958   2.384   6.935  3.0844  2.2210 -0.5069
  115MOL0     H15495   3.909   2.443   7.211 -0.2967  0.6200  0.3066
  115MOL0     H15496   3.835   2.311   7.113 -2.7893  1.1267  1.0526
  115MOL0     H15497   3.642   2.457   7.049 -0.4397 -1.5042  2.2237
  115MOL0     H15498   3.730   2.599   7.097 -3.1523 -0.1851 -3.7974
  115MOL0     H15499   3.659   2.357   7.276 -0.5011  0.0363  1.2344
  115MOL0     H15500   3.720   2.525   7.333  0.9958 -0.3773 -0.3648
  115MOL0     H15501   3.452   2.484   7.204  1.4088 -0.4418 -0.1078
  115MOL0     H15502   3.521   2.632   7.266  1.9254  0.2375  0.4568
  115MOL0     H15503   3.466   2.376   7.426  0.7834 -0.6479 -0.8487
  115MOL0     H15504   3.534   2.520   7.490 -0.9472  0.3307 -0.6334
  115MOL0     H15505   4.429   2.627   7.232 -1.1444 -0.7429 -0.6493
  115MOL0     H15506   4.593   2.782   7.311 -0.7161 -0.9255  0.9343
  115MOL0     H15507   4.687   3.206   7.469  0.0386 -3.9986 -1.1597
  115MOL0     H15508   4.879   3.314   7.595  2.3769 -1.9849  1.1746
  115MOL0     H15509   6.535   4.657   6.889 -2.9506 -0.6104 -1.6394
  115MOL0     H15510   6.551   4.657   6.657 -4.9701 -1.8908  0.2401
  115MOL0     H15511   6.727   4.250   6.357 -1.0172  1.1764  1.2044
  115MOL0     H15512   6.734   4.139   6.143  1.7736 -0.0973  4.5032
  115MOL0     H15513   6.785   4.050   5.940 -1.5018  1.5051  3.9402
  115MOL0     H15514   6.728   4.097   5.776 -0.2129 -0.0870  0.1354
  115MOL0     H15515   6.550   4.020   6.010 -0.7876  0.0173  0.8940
  115MOL0     H15516   6.564   3.953   5.855  1.3867  0.7389 -2.1600
  115MOL0     H15517   6.434   4.164   5.769  0.1380 -1.5160 -0.0874
  115MOL0     H15518   6.429   4.213   5.943  3.0752  0.7642  1.1845
  115MOL0     H15519   6.339   3.938   5.865  3.1751 -0.2831  1.3178
  115MOL0     H15520   6.288   4.039   6.002  0.8177 -0.7260  1.0336
  115MOL0     H15521   6.050   4.207   5.692  0.3602 -2.0391 -0.2611
  115MOL0     H15522   6.648   4.486   5.925  1.3482 -3.7652 -1.3981
  115MOL0     H15523   6.632   4.716   6.213 -4.0978 -1.3677  2.6157
  115MOL0     H15524   6.624   4.683   6.044  1.8650 -1.8309 -1.2556
  115MOL0     H15525   6.484   4.639   6.159 -0.2112 -1.3658  0.8442
  116MOL0     O15526   4.267   6.687   3.021 -0.2660 -0.5738  0.5152
  116MOL0     C15527   4.268   6.601   3.106  0.6176  0.0823  0.0001
  116MOL0     O15528   4.163   6.509   3.130  0.0561  0.2756 -0.3407
  116MOL0     C15529   4.081   6.498   3.030 -0.2789  0.4959  0.6597
  116MOL0     C15530   3.962   6.576   3.032 -0.1390  0.0995  0.9265
  116MOL0     C15531   3.872   6.560   2.932  0.0120  0.0176  1.0354
  116MOL0     C15532   3.886   6.470   2.835  0.0299 -0.1646  0.1355
  116MOL0     O15533   3.774   6.457   2.760  0.0908  0.0857 -0.3916
  116MOL0     C15534   3.749   6.323   2.709  0.6942 -0.9173 -0.2093
  116MOL0     C15535   3.617   6.305   2.636 -0.8353 -0.2212 -0.7452
  116MOL0     C15536   3.617   6.172   2.564  0.0729  0.3744 -0.1097
  116MOL0     C15537   3.539   6.180   2.439  0.8640 -0.8691  1.1902
  116MOL0     C15538   3.552   6.056   2.342  1.0801 -0.3861  0.5883
  116MOL0     C15539   3.475   5.933   2.401 -0.1125 -0.1652 -0.3622
  116MOL0     C15540   3.462   5.813   2.304 -0.0481  0.0789  0.2265
  116MOL0     C15541   3.600   5.754   2.253  1.0498  0.2234 -0.7304
  116MOL0     N15542   3.581   5.644   2.159 -0.7757  0.4607 -1.0526
  116MOL0     C15543   3.570   5.512   2.192 -0.3782 -0.8541 -0.3851
  116MOL0     C15544   3.582   5.448   2.073 -0.3276 -0.9650  0.0248
  116MOL0     C15545   3.567   5.304   2.044 -0.0937 -0.3875  0.9934
  116MOL0     C15546   3.682   5.247   1.966 -1.3921 -0.0487 -0.9648
  116MOL0     C15547   3.687   5.096   1.942  0.3136  0.1864  0.6196
  116MOL0     C15548   3.732   5.065   1.798 -0.5543  0.0394  0.2578
  116MOL0     O15549   3.698   4.930   1.773  0.0741 -0.0503  0.3380
  116MOL0     C15550   3.784   4.835   1.840  0.2694 -0.5047  1.0782
  116MOL0     C15551   3.923   4.848   1.824  0.0851  1.4048  0.0114
  116MOL0     C15552   4.009   4.749   1.882  0.8896 -0.1200 -0.5725
  116MOL0     C15553   3.955   4.646   1.962  0.3632 -0.4091 -0.6694
  116MOL0     C15554   4.060   4.560   2.027  0.4933 -0.3511 -0.2618
  116MOL0     O15555   4.009   4.493   2.135  0.1112  0.7363  0.4763
  116MOL0     C15556   4.067   4.373   2.186  0.1802 -0.3055 -0.4402
  116MOL0     C15557   3.982   4.293   2.255  0.9308 -0.2946 -0.2720
  116MOL0     C15558   4.025   4.172   2.301 -0.2428 -0.1095 -0.1618
  116MOL0     C15559   4.154   4.121   2.271 -1.5109  0.0323 -0.2480
  116MOL0     O15560   4.191   3.994   2.305  0.3179  0.2876  0.0856
  116MOL0     C15561   4.314   3.971   2.359  0.8065 -0.0009 -0.6140
  116MOL0     C15562   4.351   3.818   2.354  0.0451 -0.1588 -0.3717
  116MOL0     C15563   4.367   3.767   2.212  0.1653 -0.6308  0.0648
  116MOL0     C15564   4.390   3.624   2.214  0.0634 -0.1995  0.0734
  116MOL0     C15565   4.397   3.586   2.061 -0.3644  0.6167 -0.0310
  116MOL0     C15566   4.501   3.473   2.050 -0.7176  0.2704  0.3511
  116MOL0     C15567   4.650   3.514   2.063  0.4297  0.3607 -0.1261
  116MOL0     C15568   4.742   3.432   1.972 -0.2380  0.2105 -0.1910
  116MOL0    Cl15569   4.891   3.530   1.934 -0.4590 -0.2801  0.2163
  116MOL0     C15570   4.239   4.202   2.198  0.0744  0.0838 -0.2524
  116MOL0     C15571   4.198   4.326   2.159 -0.2089  0.4535 -0.2901
  116MOL0     O15572   4.176   4.549   1.982  0.4864  0.2553  0.1396
  116MOL0     C15573   3.812   4.641   1.996  0.7779 -0.2414  0.4507
  116MOL0     C15574   3.726   4.730   1.920  0.2613  0.8756  0.5802
  116MOL0     N15575   3.585   5.536   1.976  0.7093 -0.4851  0.0435
  116MOL0     N15576   3.575   5.651   2.026  0.0013  0.4317  0.4127
  116MOL0     C15577   4.006   6.396   2.828  0.0581  0.6946  0.1011
  116MOL0     C15578   4.105   6.414   2.920 -0.7801 -0.1148 -0.2761
  116MOL0     C15579   4.394   6.573   3.184  0.2812 -0.5739 -0.4627
  116MOL0     C15580   4.477   6.694   3.214  0.2744  0.1010 -0.4373
  116MOL0     C15581   4.596   6.673   3.287  0.1988 -0.5523  0.4373
  116MOL0     C15582   4.638   6.544   3.323 -0.5294 -0.3204 -0.2778
  116MOL0     O15583   4.755   6.510   3.388  0.5765  0.1340  0.1021
  116MOL0     C15584   4.844   6.606   3.443  0.6086  0.0334 -0.2971
  116MOL0     C15585   4.968   6.539   3.496  0.0845  0.3611 -0.0935
  116MOL0     C15586   5.053   6.644   3.569  0.1198 -0.1693 -0.8306
  116MOL0     C15587   5.122   6.757   3.493  0.4927 -0.7769 -0.0947
  116MOL0     C15588   5.211   6.705   3.395 -0.2416  0.2096  0.2247
  116MOL0     C15589   5.289   6.663   3.313 -1.0044  1.1273 -0.3511
  116MOL0     C15590   4.559   6.435   3.284 -0.3034  0.1073 -0.3327
  116MOL0     C15591   4.441   6.445   3.214 -0.8853 -0.7741 -0.0780
  116MOL0     C15592   4.361   6.314   3.182  0.0474  0.0683  0.4776
  116MOL0     H15593   3.944   6.643   3.115  0.0251 -0.3542  1.3305
  116MOL0     H15594   3.771   6.600   2.937 -0.4434 -0.4544 -2.2790
  116MOL0     H15595   3.828   6.299   2.637  3.0089  1.0966  1.4801
  116MOL0     H15596   3.746   6.248   2.789 -3.1380 -1.4183 -0.6237
  116MOL0     H15597   3.605   6.381   2.558  3.0525 -1.2662 -2.6260
  116MOL0     H15598   3.527   6.320   2.697 -1.7245 -0.1341 -2.0356
  116MOL0     H15599   3.575   6.109   2.643  1.6631 -0.0272  0.4449
  116MOL0     H15600   3.720   6.149   2.538  0.4023 -0.0208  1.4387
  116MOL0     H15601   3.434   6.192   2.466  0.0277  0.1155 -2.0347
  116MOL0     H15602   3.551   6.266   2.373 -1.9553 -1.8224 -0.7303
  116MOL0     H15603   3.497   6.082   2.251 -0.0150 -1.4936  0.9132
  116MOL0     H15604   3.655   6.025   2.322  1.0820 -0.1631  0.2282
  116MOL0     H15605   3.519   5.895   2.494  0.8235 -1.3615 -1.2577
  116MOL0     H15606   3.367   5.948   2.404 -0.4184 -2.0179 -0.4289
  116MOL0     H15607   3.396   5.847   2.223 -0.9717  0.8418  1.2690
  116MOL0     H15608   3.421   5.729   2.360 -0.5945  1.0316  1.2753
  116MOL0     H15609   3.655   5.825   2.190 -1.0845 -0.2350 -3.2638
  116MOL0     H15610   3.656   5.722   2.341 -1.2639  0.4677  0.9136
  116MOL0     H15611   3.554   5.475   2.293 -0.5806  0.9477  0.2713
  116MOL0     H15612   3.562   5.246   2.137 -1.3955 -4.6180 -1.4072
  116MOL0     H15613   3.481   5.283   1.979 -1.9549 -0.1578  3.2257
  116MOL0     H15614   3.678   5.296   1.868  1.3853  1.2201 -0.5389
  116MOL0     H15615   3.778   5.275   2.012 -2.3079 -2.0409  2.5575
  116MOL0     H15616   3.590   5.055   1.971 -0.1672  2.4458  2.4826
  116MOL0     H15617   3.761   5.052   2.010 -0.8856  0.7882  2.3849
  116MOL0     H15618   3.835   5.093   1.776 -0.6367  1.6528  1.6667
  116MOL0     H15619   3.675   5.132   1.733  0.7400  0.3602 -0.5701
  116MOL0     H15620   3.978   4.925   1.771  1.5102 -1.4767 -3.0794
  116MOL0     H15621   4.117   4.744   1.870  1.1487  3.0452 -0.5494
  116MOL0     H15622   3.878   4.324   2.266  0.8557 -1.3881  3.4423
  116MOL0     H15623   3.965   4.101   2.358 -0.4494  1.7385  2.0901
  116MOL0     H15624   4.396   4.022   2.306  1.7757 -0.1828  0.6543
  116MOL0     H15625   4.308   4.011   2.460  2.8345  1.3049 -0.9412
  116MOL0     H15626   4.448   3.816   2.404 -0.4810 -0.6997  0.6411
  116MOL0     H15627   4.277   3.770   2.418  0.1428  2.4507  1.8729
  116MOL0     H15628   4.278   3.787   2.152  1.5428 -0.0455 -1.9040
  116MOL0     H15629   4.458   3.816   2.176  1.3692  0.2555  3.7993
  116MOL0     H15630   4.300   3.575   2.254  0.0515 -1.0007 -0.9040
  116MOL0     H15631   4.484   3.610   2.268  1.5775  2.3316 -1.7126
  116MOL0     H15632   4.427   3.673   2.003 -0.1529 -0.0018 -0.8709
  116MOL0     H15633   4.296   3.554   2.033 -0.3653  0.8563 -0.3030
  116MOL0     H15634   4.474   3.389   2.114 -1.1194 -1.0526 -1.4852
  116MOL0     H15635   4.480   3.436   1.949 -1.9379 -0.3595  0.8179
  116MOL0     H15636   4.684   3.510   2.166 -2.1114  1.1018  0.8040
  116MOL0     H15637   4.665   3.617   2.029 -1.6373  0.4169 -1.0331
  116MOL0     H15638   4.778   3.340   2.020  1.6146 -0.1254 -2.0572
  116MOL0     H15639   4.689   3.387   1.888 -0.6076 -4.1146  2.0518
  116MOL0     H15640   4.333   4.160   2.163 -1.4889 -2.2856 -1.9349
  116MOL0     H15641   4.268   4.393   2.110 -1.1592  1.0545 -0.8416
  116MOL0     H15642   3.791   4.569   2.075  3.6241 -2.0155 -0.2216
  116MOL0     H15643   3.618   4.726   1.923  0.2940 -1.5540  0.7360
  116MOL0     H15644   4.012   6.317   2.753 -1.2575 -2.0425  2.6637
  116MOL0     H15645   4.194   6.352   2.924  0.1193  1.1562 -0.1626
  116MOL0     H15646   4.448   6.795   3.189 -0.0552  0.6095  1.8781
  116MOL0     H15647   4.646   6.761   3.325  0.5297  0.0380 -1.2880
  116MOL0     H15648   4.799   6.661   3.526  1.4481 -0.0032  0.1937
  116MOL0     H15649   4.877   6.680   3.369  3.8330  1.4931  2.3449
  116MOL0     H15650   5.023   6.497   3.410 -0.6768 -0.0345 -0.3946
  116MOL0     H15651   4.938   6.455   3.559 -1.0525  0.2725 -0.7209
  116MOL0     H15652   5.132   6.595   3.627 -0.6662 -1.3251 -0.7198
  116MOL0     H15653   4.993   6.681   3.652 -0.2930 -1.4653 -0.5222
  116MOL0     H15654   5.064   6.830   3.437  1.4598 -2.5025 -3.6850
  116MOL0     H15655   5.183   6.811   3.566  0.6873  1.7511 -2.0014
  116MOL0     H15656   5.363   6.621   3.247 -0.8596  0.8889 -0.0386
  116MOL0     H15657   4.597   6.335   3.301 -1.4873 -0.5769 -1.4801
  116MOL0     H15658   4.275   6.299   3.247 -0.0676 -1.7551 -0.0575
  116MOL0     H15659   4.345   6.298   3.075  3.0499 -1.2174  0.1144
  116MOL0     H15660   4.419   6.226   3.210  1.6964  1.2260  0.8583
  117MOL0     O15661   5.450   4.853   6.199  0.3647  0.3180  0.1357
  117MOL0     C15662   5.454   4.864   6.073  0.0411  0.0214 -0.2329
  117MOL0     O15663   5.423   4.765   5.985 -0.1455  0.0262  0.6243
  117MOL0     C15664   5.371   4.644   6.022  0.1913  0.0726 -0.6209
  117MOL0     C15665   5.257   4.641   6.113  0.4051  0.4731 -0.3648
  117MOL0     C15666   5.198   4.516   6.153  0.3529  0.4733  0.1582
  117MOL0     C15667   5.255   4.399   6.110  0.2154  0.0331 -0.9139
  117MOL0     O15668   5.204   4.271   6.131 -0.0895 -0.5442 -0.9328
  117MOL0     C15669   5.063   4.264   6.145 -0.3349  0.7554 -0.3294
  117MOL0     C15670   5.029   4.121   6.113  0.3216 -0.5872  0.5589
  117MOL0     C15671   4.990   4.083   5.968  0.0706  0.6555  0.1408
  117MOL0     C15672   4.959   3.931   5.946  0.2447 -0.4640  0.2315
  117MOL0     C15673   4.877   3.869   6.056  0.5135  0.5297 -0.5400
  117MOL0     C15674   4.841   3.721   6.040 -0.8262 -0.1306  0.6421
  117MOL0     C15675   4.718   3.652   6.111 -0.4362  0.2359  0.5208
  117MOL0     C15676   4.703   3.675   6.258 -0.1746 -0.1047  0.6420
  117MOL0     N15677   4.824   3.631   6.327  0.3709 -0.2197  0.4284
  117MOL0     C15678   4.840   3.516   6.403 -0.4084 -0.6545 -1.0063
  117MOL0     C15679   4.947   3.532   6.487 -0.0814 -0.8397 -0.3798
  117MOL0     C15680   5.013   3.432   6.583 -0.6819  0.4571  0.0065
  117MOL0     C15681   5.176   3.451   6.583  0.1480  0.5713 -0.7021
  117MOL0     C15682   5.228   3.328   6.650 -0.1560  0.6663  0.3492
  117MOL0     C15683   5.187   3.320   6.794 -1.2329  1.0690 -1.3072
  117MOL0     O15684   5.251   3.409   6.880  0.9673 -0.0983 -0.4423
  117MOL0     C15685   5.172   3.474   6.974  0.5900  0.1728  0.5755
  117MOL0     C15686   5.082   3.415   7.060 -0.6975 -0.0473  0.4667
  117MOL0     C15687   5.012   3.493   7.151  0.8173  0.1431 -0.3321
  117MOL0     C15688   5.041   3.628   7.170  0.5274  0.3739  0.0359
  117MOL0     C15689   4.971   3.706   7.274  0.3838  0.3125 -0.7789
  117MOL0     O15690   4.999   3.838   7.272  0.2414 -0.3704  0.9052
  117MOL0     C15691   4.901   3.921   7.334 -1.0970  0.7909  0.2094
  117MOL0     C15692   4.948   4.000   7.440 -0.7252 -0.4020  0.4188
  117MOL0     C15693   4.861   4.094   7.503 -0.1744 -0.0047  0.0884
  117MOL0     C15694   4.731   4.105   7.465  0.5150  0.2588  0.1865
  117MOL0     O15695   4.660   4.193   7.542 -0.4282  0.5562 -0.3217
  117MOL0     C15696   4.562   4.272   7.458 -0.2826  0.3598  0.2936
  117MOL0     C15697   4.505   4.392   7.526 -0.3790 -0.0203  0.1190
  117MOL0     C15698   4.608   4.487   7.600  0.2690  0.1051  0.0532
  117MOL0     C15699   4.566   4.632   7.626 -0.6522 -0.9947  1.2036
  117MOL0     C15700   4.569   4.710   7.493 -0.9360  0.2959 -1.0920
  117MOL0     C15701   4.484   4.841   7.519  0.0385  0.5005  1.1307
  117MOL0     C15702   4.483   4.936   7.403  0.2964 -0.4682 -0.6621
  117MOL0     C15703   4.402   5.056   7.425 -0.1096  0.2111  0.2503
  117MOL0    Cl15704   4.506   5.176   7.512 -0.3119  0.2174  0.3518
  117MOL0     C15705   4.688   4.025   7.360  0.1555  0.1153  1.0230
  117MOL0     C15706   4.778   3.938   7.284  0.6538  0.6083  0.3438
  117MOL0     O15707   4.876   3.652   7.344 -0.1749 -0.3307 -0.4778
  117MOL0     C15708   5.144   3.681   7.096  0.5747 -0.3063  0.3327
  117MOL0     C15709   5.206   3.610   6.994  0.6630  0.0090 -0.3645
  117MOL0     N15710   5.001   3.654   6.464 -0.0982 -0.1460 -0.5831
  117MOL0     N15711   4.933   3.706   6.361 -0.2573 -0.6488 -0.2594
  117MOL0     C15712   5.364   4.401   6.024  0.6113 -0.0999  0.1921
  117MOL0     C15713   5.424   4.522   5.988 -0.7309  0.0874 -0.7539
  117MOL0     C15714   5.522   4.979   6.023  0.7628  0.3819 -0.5451
  117MOL0     C15715   5.641   4.959   5.950  0.1518  0.8229 -0.6981
  117MOL0     C15716   5.716   5.066   5.910  0.1764 -0.6758 -0.0667
  117MOL0     C15717   5.658   5.197   5.919 -0.7146  0.0329 -0.2620
  117MOL0     O15718   5.746   5.300   5.893 -0.2030 -0.2556  0.6549
  117MOL0     C15719   5.759   5.415   5.980  0.2495  0.5949  1.0786
  117MOL0     C15720   5.718   5.550   5.902 -0.5262 -0.7267  0.3980
  117MOL0     C15721   5.736   5.674   5.997 -0.4093 -0.3750 -0.4551
  117MOL0     C15722   5.618   5.770   6.023 -0.0149 -0.0687  0.1124
  117MOL0     C15723   5.604   5.878   5.925  1.1299  1.2782  1.1093
  117MOL0     C15724   5.569   5.970   5.859 -0.8560  0.4775  0.3354
  117MOL0     C15725   5.537   5.212   5.979 -0.2241 -0.6902 -0.2990
  117MOL0     C15726   5.468   5.106   6.027 -1.0183  0.3408  0.0691
  117MOL0     C15727   5.331   5.136   6.096 -0.3128  0.4048 -0.0255
  117MOL0     H15728   5.209   4.733   6.144  1.3157  0.5309  0.9612
  117MOL0     H15729   5.100   4.514   6.200 -1.4207  2.0997 -3.1788
  117MOL0     H15730   5.043   4.274   6.252  0.8751 -2.8442  0.4113
  117MOL0     H15731   5.007   4.339   6.089 -5.0748 -2.9761 -1.2621
  117MOL0     H15732   4.942   4.118   6.180  1.5398  2.3104  2.4547
  117MOL0     H15733   5.104   4.046   6.143  1.7869  0.1057 -1.2141
  117MOL0     H15734   5.065   4.127   5.901 -0.8448  3.0120  0.5460
  117MOL0     H15735   4.896   4.134   5.947 -0.3449 -0.0019  0.3889
  117MOL0     H15736   4.897   3.930   5.856 -0.1567  3.3370  0.3287
  117MOL0     H15737   5.045   3.866   5.925  1.6772  1.2892  0.5035
  117MOL0     H15738   4.930   3.874   6.152  0.0157 -1.4269 -0.1129
  117MOL0     H15739   4.786   3.929   6.066 -2.3332 -3.1284 -2.1426
  117MOL0     H15740   4.820   3.707   5.933 -1.2041  1.5406  0.4775
  117MOL0     H15741   4.928   3.661   6.070  0.7515  1.5171 -0.4643
  117MOL0     H15742   4.714   3.545   6.090  0.0057  0.3060  0.0598
  117MOL0     H15743   4.631   3.684   6.052  2.6460 -1.5110 -5.9109
  117MOL0     H15744   4.686   3.780   6.282 -0.2536 -0.8512  4.5918
  117MOL0     H15745   4.626   3.609   6.299 -2.7926  1.9124 -0.7389
  117MOL0     H15746   4.765   3.440   6.382  0.4020 -0.9477 -3.0568
  117MOL0     H15747   4.963   3.460   6.676  0.3694  1.9612  0.1513
  117MOL0     H15748   4.990   3.329   6.554  0.8314 -0.4962  1.9763
  117MOL0     H15749   5.207   3.468   6.479  2.2167 -0.9665 -0.4213
  117MOL0     H15750   5.208   3.540   6.638  1.6550 -1.3512  1.7463
  117MOL0     H15751   5.337   3.329   6.644 -0.1410 -1.7873 -1.2435
  117MOL0     H15752   5.205   3.238   6.592  0.5611 -0.4993  1.8128
  117MOL0     H15753   5.222   3.226   6.837  1.0986  0.8012 -3.5652
  117MOL0     H15754   5.078   3.326   6.801 -1.4665 -1.2744 -2.1669
  117MOL0     H15755   5.066   3.308   7.044 -0.1768 -0.1758  0.7808
  117MOL0     H15756   4.937   3.445   7.213  1.5040 -0.8525 -0.2565
  117MOL0     H15757   5.043   3.988   7.492 -0.5586  1.7291  0.6983
  117MOL0     H15758   4.888   4.159   7.586  2.5321 -0.2527 -0.5182
  117MOL0     H15759   4.601   4.320   7.368 -1.7190  1.3101  0.1381
  117MOL0     H15760   4.478   4.204   7.440  0.6685 -1.3929  2.0884
  117MOL0     H15761   4.456   4.442   7.441  0.2592  2.3678  1.0870
  117MOL0     H15762   4.419   4.369   7.589 -2.4309 -0.4679 -2.6478
  117MOL0     H15763   4.639   4.444   7.696 -5.8055  3.2263  4.0140
  117MOL0     H15764   4.697   4.495   7.536  1.0217 -1.3775  0.8709
  117MOL0     H15765   4.628   4.694   7.691 -1.5479 -0.8441  1.9424
  117MOL0     H15766   4.464   4.621   7.665 -0.6126  2.4879  2.6548
  117MOL0     H15767   4.546   4.647   7.407  1.3854 -0.4542 -1.2224
  117MOL0     H15768   4.677   4.726   7.482 -1.0003 -0.8131 -4.1604
  117MOL0     H15769   4.384   4.796   7.524  1.1997 -2.2166  2.5104
  117MOL0     H15770   4.505   4.898   7.610  4.1568  1.5908 -0.3192
  117MOL0     H15771   4.455   4.874   7.317  1.5920 -0.1910 -1.3047
  117MOL0     H15772   4.584   4.972   7.381  2.0433 -4.3028  0.1221
  117MOL0     H15773   4.397   5.092   7.322 -0.6401 -0.6735 -0.0448
  117MOL0     H15774   4.298   5.055   7.459 -0.5484 -1.7939 -0.9465
  117MOL0     H15775   4.584   4.050   7.339  0.9497  1.5336 -1.7507
  117MOL0     H15776   4.737   3.869   7.211 -0.0045  4.5909 -3.4153
  117MOL0     H15777   5.167   3.784   7.121  1.6104  0.0659 -1.8987
  117MOL0     H15778   5.293   3.652   6.944  2.4381  0.9992  3.2837
  117MOL0     H15779   5.382   4.305   5.976 -2.1916  0.8725 -3.3137
  117MOL0     H15780   5.516   4.516   5.931 -1.2060 -1.4723 -1.4019
  117MOL0     H15781   5.690   4.863   5.958 -1.5761 -0.0804 -0.5126
  117MOL0     H15782   5.809   5.049   5.857 -0.3587 -0.9667 -0.9389
  117MOL0     H15783   5.859   5.427   6.023  1.7187 -0.1457 -1.8542
  117MOL0     H15784   5.701   5.385   6.068  0.9873 -1.0581  1.0352
  117MOL0     H15785   5.613   5.553   5.871 -0.1511  1.6867 -0.9144
  117MOL0     H15786   5.790   5.568   5.822 -1.2819 -0.1418 -0.1625
  117MOL0     H15787   5.819   5.731   5.955  0.5117 -0.6755  0.9249
  117MOL0     H15788   5.744   5.631   6.097 -0.1868  2.7210  0.9836
  117MOL0     H15789   5.523   5.715   6.029  1.6627 -3.0979  1.0455
  117MOL0     H15790   5.630   5.821   6.120 -0.6647  0.9956 -0.3464
  117MOL0     H15791   5.533   6.050   5.797  1.0284 -0.7207 -2.4752
  117MOL0     H15792   5.508   5.316   5.993 -0.9143 -0.6788 -1.6921
  117MOL0     H15793   5.327   5.072   6.184  0.6581 -1.5307 -1.3211
  117MOL0     H15794   5.329   5.242   6.124 -1.9255 -0.6690  4.8240
  117MOL0     H15795   5.236   5.123   6.044 -0.3931 -0.5658  0.3447
  118MOL0     O15796   6.521   4.537   7.811  0.6952  0.1635 -0.2149
  118MOL0     C15797   6.554   4.625   7.898 -0.4951  1.1012 -0.7479
  118MOL0     O15798   6.584   4.595   8.023  0.5394 -0.2016 -0.8248
  118MOL0     C15799   6.576   4.471   8.088 -0.4304 -0.0931  0.3927
  118MOL0     C15800   6.473   4.369   8.055  0.2873  0.2144 -0.4625
  118MOL0     C15801   6.472   4.248   8.131 -0.1674  0.5230  0.6296
  118MOL0     C15802   6.569   4.224   8.232  1.2023  0.9232 -0.3854
  118MOL0     O15803   6.561   4.096   8.296 -0.6980 -0.8067  0.1294
  118MOL0     C15804   6.445   4.031   8.332  0.6652 -0.4291  0.0555
  118MOL0     C15805   6.462   3.954   8.470  0.1560  0.7371 -0.9181
  118MOL0     C15806   6.353   3.849   8.519 -0.9411  0.1598 -0.3132
  118MOL0     C15807   6.209   3.905   8.495 -0.0030 -0.2157 -0.2589
  118MOL0     C15808   6.097   3.808   8.552  0.5613 -0.4570 -0.0475
  118MOL0     C15809   6.096   3.793   8.701 -0.4275 -0.0756 -0.5262
  118MOL0     C15810   5.984   3.700   8.743 -1.1717 -1.0748  0.4985
  118MOL0     C15811   5.992   3.671   8.891  0.2577  0.0154  0.8641
  118MOL0     N15812   5.893   3.579   8.937  0.9116 -0.4081 -0.3847
  118MOL0     C15813   5.758   3.619   8.965  0.5489 -0.5880  0.3586
  118MOL0     C15814   5.695   3.500   8.965 -0.0926  0.6673 -1.4591
  118MOL0     C15815   5.549   3.479   8.987  0.0939 -0.0888 -0.4657
  118MOL0     C15816   5.521   3.407   9.119  0.1853 -0.0123  0.2988
  118MOL0     C15817   5.516   3.512   9.230 -1.1497 -0.0587  0.6719
  118MOL0     C15818   5.511   3.436   9.364  0.4189  0.2206 -0.1016
  118MOL0     O15819   5.399   3.352   9.375 -1.0394  0.2932 -0.5660
  118MOL0     C15820   5.299   3.368   9.470 -0.6353  0.8904  0.1355
  118MOL0     C15821   5.239   3.254   9.518  0.1008 -1.0396  0.3943
  118MOL0     C15822   5.115   3.260   9.595  1.3412  0.6252  0.8903
  118MOL0     C15823   5.060   3.384   9.626  1.2966  0.4537 -0.5709
  118MOL0     C15824   4.930   3.386   9.694 -0.4893 -0.7147 -0.7015
  118MOL0     O15825   4.869   3.501   9.658  0.7991  0.2875  0.6118
  118MOL0     C15826   4.762   3.544   9.737 -0.0090  0.2417 -0.0075
  118MOL0     C15827   4.747   3.519   9.874  0.2681 -0.2605  0.1190
  118MOL0     C15828   4.630   3.560   9.945  0.4686 -0.4153  0.6871
  118MOL0     C15829   4.542   3.654   9.892 -0.7126  0.2412 -0.1620
  118MOL0     O15830   4.437   3.696   9.969 -0.7586  0.6189 -0.7415
  118MOL0     C15831   4.416   3.835   9.964  0.6180 -0.2140  1.0754
  118MOL0     C15832   4.345   3.889  10.089 -0.1695  0.2424 -0.1104
  118MOL0     C15833   4.331   4.040  10.108 -0.9406  0.1286  0.3481
  118MOL0     C15834   4.198   4.112  10.101  0.4232 -0.1324 -0.0701
  118MOL0     C15835   4.110   4.072   9.989  0.3793 -0.5485 -0.8844
  118MOL0     C15836   4.011   4.182   9.959  0.4570  0.1842  0.2119
  118MOL0     C15837   3.900   4.151   9.856  1.3944 -0.5172  0.3467
  118MOL0     C15838   3.943   4.109   9.719 -0.5645 -0.9774  0.6331
  118MOL0    Cl15839   3.794   4.067   9.629 -0.3743  0.5651 -0.4321
  118MOL0     C15840   4.568   3.691   9.758  0.0585  0.4368  0.7260
  118MOL0     C15841   4.675   3.639   9.687 -0.0147 -0.8782  0.8038
  118MOL0     O15842   4.872   3.295   9.755 -0.6759  0.6741  0.2574
  118MOL0     C15843   5.124   3.498   9.566 -0.2432  0.0565  0.0714
  118MOL0     C15844   5.236   3.484   9.487  0.0015  0.2059 -0.2732
  118MOL0     N15845   5.790   3.400   8.957  0.9553 -0.6389  0.4535
  118MOL0     N15846   5.908   3.446   8.927 -0.5455  0.4669 -0.7720
  118MOL0     C15847   6.667   4.316   8.261 -0.3262  0.4737 -0.2559
  118MOL0     C15848   6.665   4.438   8.188 -0.6080 -0.6007  0.0346
  118MOL0     C15849   6.583   4.769   7.865  0.9573  0.4099 -0.2270
  118MOL0     C15850   6.672   4.839   7.946 -0.8318  0.4671  0.6723
  118MOL0     C15851   6.699   4.976   7.911 -0.4802 -0.5432 -0.6503
  118MOL0     C15852   6.627   5.037   7.808  0.5798  0.3578 -0.4509
  118MOL0     O15853   6.651   5.167   7.783  0.8192  0.1987 -0.2864
  118MOL0     C15854   6.664   5.205   7.648 -0.6640  0.0707  0.2869
  118MOL0     C15855   6.775   5.303   7.633 -1.0195 -0.1318  0.5229
  118MOL0     C15856   6.913   5.241   7.642  0.0667  0.4332 -0.6237
  118MOL0     C15857   7.022   5.345   7.644 -0.0529  0.7661 -0.6329
  118MOL0     C15858   7.155   5.287   7.661  0.2243  0.3414  0.0120
  118MOL0     C15859   7.265   5.236   7.683  0.0315  0.5698 -0.4012
  118MOL0     C15860   6.519   4.968   7.757 -0.0917  0.3122  0.7211
  118MOL0     C15861   6.503   4.831   7.763 -0.0831 -0.2212  0.4851
  118MOL0     C15862   6.376   4.774   7.702 -0.0197  0.0501  0.7754
  118MOL0     H15863   6.402   4.393   7.977 -0.9774 -0.2460  0.5165
  118MOL0     H15864   6.388   4.181   8.111 -1.4188  1.2501  3.0828
  118MOL0     H15865   6.368   4.108   8.342  3.0384  2.4238 -1.8327
  118MOL0     H15866   6.416   3.962   8.251  1.0048 -1.3402  0.6906
  118MOL0     H15867   6.453   4.031   8.547 -2.4583  1.0729 -1.4650
  118MOL0     H15868   6.557   3.900   8.474 -0.1852  0.1565 -0.3415
  118MOL0     H15869   6.369   3.834   8.626  0.0487 -2.9608 -0.8051
  118MOL0     H15870   6.376   3.759   8.461 -0.1659  1.5591 -2.2696
  118MOL0     H15871   6.209   4.002   8.547  0.7344 -0.3599  0.0330
  118MOL0     H15872   6.211   3.926   8.388 -2.0802  0.9277 -0.1323
  118MOL0     H15873   6.001   3.848   8.519  0.9985 -0.0680 -0.8988
  118MOL0     H15874   6.110   3.707   8.510  3.1523 -1.2773  2.4010
  118MOL0     H15875   6.184   3.734   8.730 -0.0586  1.0858  0.8460
  118MOL0     H15876   6.093   3.890   8.752 -1.4602 -1.5815  2.5400
  118MOL0     H15877   6.003   3.607   8.688 -3.9160 -0.5716 -1.4700
  118MOL0     H15878   5.892   3.742   8.702 -0.9747 -0.6262  0.5078
  118MOL0     H15879   6.096   3.641   8.906  0.6535  1.2758  0.7932
  118MOL0     H15880   5.988   3.765   8.947  0.5161  0.1785  0.6147
  118MOL0     H15881   5.718   3.719   8.975  1.9991 -0.0040  0.5525
  118MOL0     H15882   5.502   3.577   8.974 -0.7880 -0.4915 -0.4099
  118MOL0     H15883   5.504   3.422   8.905 -2.0668 -2.9468  2.4573
  118MOL0     H15884   5.433   3.342   9.111  1.2457 -1.2147 -2.9201
  118MOL0     H15885   5.605   3.342   9.145  0.4088  0.3731  0.5600
  118MOL0     H15886   5.424   3.568   9.214 -1.8462 -1.1165  0.8330
  118MOL0     H15887   5.604   3.576   9.226 -0.9787 -0.3290 -0.0704
  118MOL0     H15888   5.513   3.505   9.449 -0.7643  0.0817  0.0678
  118MOL0     H15889   5.601   3.378   9.384 -0.9717 -0.9853  3.5378
  118MOL0     H15890   5.276   3.154   9.495  0.0884 -0.9498 -0.0318
  118MOL0     H15891   5.052   3.175   9.618  0.2126  1.1592 -0.1323
  118MOL0     H15892   4.821   3.461   9.928  2.2900  1.8770 -0.1715
  118MOL0     H15893   4.610   3.529  10.047  4.0999  1.4768  2.1660
  118MOL0     H15894   4.511   3.888   9.953 -1.0703  2.9985  0.7056
  118MOL0     H15895   4.348   3.864   9.883 -1.7260 -0.4339  2.8281
  118MOL0     H15896   4.246   3.843  10.091 -2.5008  4.6665 -1.0300
  118MOL0     H15897   4.409   3.848  10.168  0.1861 -0.6864 -0.8647
  118MOL0     H15898   4.354   4.057  10.214  3.2669 -0.5875 -0.2747
  118MOL0     H15899   4.403   4.095  10.048 -2.6790  2.4859  0.3160
  118MOL0     H15900   4.213   4.221  10.102  0.8767 -0.1904 -0.0978
  118MOL0     H15901   4.138   4.083  10.187  2.3366  0.0403  1.4029
  118MOL0     H15902   4.066   3.975  10.011  2.7586 -1.5492 -0.1549
  118MOL0     H15903   4.176   4.064   9.902 -1.7362 -0.9018 -2.5186
  118MOL0     H15904   3.965   4.207  10.055  3.4522 -0.0274  1.8316
  118MOL0     H15905   4.072   4.270   9.935  0.6300 -0.5150 -2.2264
  118MOL0     H15906   3.839   4.241   9.847  0.5852 -1.2261 -1.9511
  118MOL0     H15907   3.829   4.078   9.896 -0.3305  0.1870 -1.2455
  118MOL0     H15908   4.005   4.174   9.657 -3.7666 -0.5277 -2.3965
  118MOL0     H15909   4.007   4.021   9.733  1.2898  0.7610  4.6903
  118MOL0     H15910   4.508   3.771   9.715  1.0944  1.2402  0.7437
  118MOL0     H15911   4.687   3.672   9.584 -1.4713 -0.8695  0.6185
  118MOL0     H15912   5.068   3.591   9.568  0.9279  1.2594 -5.7353
  118MOL0     H15913   5.261   3.575   9.435 -1.6824  0.7160 -0.2154
  118MOL0     H15914   6.744   4.300   8.336 -0.9503  0.8807  0.4888
  118MOL0     H15915   6.745   4.511   8.201 -1.7572  0.5497  0.9151
  118MOL0     H15916   6.718   4.786   8.029 -1.4443  0.9879  1.3580
  118MOL0     H15917   6.769   5.043   7.961  0.2838  0.7848 -3.3106
  118MOL0     H15918   6.575   5.258   7.616 -0.6217  1.7998  2.7571
  118MOL0     H15919   6.683   5.118   7.584  1.2615 -1.2553  2.4729
  118MOL0     H15920   6.755   5.374   7.714 -2.5541 -2.0059  1.8854
  118MOL0     H15921   6.775   5.360   7.540 -0.2111  2.0907  1.8099
  118MOL0     H15922   6.918   5.171   7.558 -5.1472  0.4035 -1.2655
  118MOL0     H15923   6.922   5.181   7.733  0.0770  1.0520 -0.2133
  118MOL0     H15924   7.026   5.408   7.555  1.8903 -0.7857 -1.7185
  118MOL0     H15925   7.001   5.423   7.718 -0.4719  0.0674  0.0051
  118MOL0     H15926   7.362   5.191   7.693 -0.1176 -0.2959 -2.3875
  118MOL0     H15927   6.443   5.020   7.699 -0.8256 -1.6991 -0.2053
  118MOL0     H15928   6.299   4.756   7.778  1.1771 -1.3374  1.6962
  118MOL0     H15929   6.344   4.839   7.620  2.3470 -2.1695 -2.1282
  118MOL0     H15930   6.397   4.677   7.656 -1.1545 -0.5592  1.4874
  119MOL0     O15931  10.983  11.262  10.881 -0.0846 -0.2265  0.4668
  119MOL0     C15932  10.864  11.266  10.896 -0.0030  0.6640  0.5881
  119MOL0     O15933  10.804  11.223  11.007 -0.2690 -0.4708  0.5496
  119MOL0     C15934  10.861  11.174  11.125  1.0461  0.7539  0.3196
  119MOL0     C15935  10.766  11.179  11.229 -0.0467  0.3128  0.9933
  119MOL0     C15936  10.811  11.137  11.358 -0.7449  0.1496  0.3091
  119MOL0     C15937  10.939  11.070  11.367 -0.0674  0.2714  0.2880
  119MOL0     O15938  10.998  11.008  11.472  0.1997  0.3548  0.4027
  119MOL0     C15939  10.927  10.980  11.597  0.4958  0.1319  0.5669
  119MOL0     C15940  11.021  10.964  11.719  0.6483 -0.4620  0.3017
  119MOL0     C15941  11.071  11.086  11.753  0.4175  0.0023 -0.7340
  119MOL0     C15942  11.166  11.063  11.871 -0.4453 -0.3903 -1.0360
  119MOL0     C15943  11.257  11.178  11.910 -0.0567 -1.1736  0.0671
  119MOL0     C15944  11.190  11.319  11.876 -0.4332  0.4089  0.0785
  119MOL0     C15945  11.241  11.377  11.746  0.1459 -0.0778 -0.5566
  119MOL0     C15946  11.179  11.509  11.726 -0.6371 -0.1365 -0.6303
  119MOL0     N15947  11.035  11.513  11.693  0.3321 -0.1894 -0.1519
  119MOL0     C15948  10.940  11.583  11.759  0.0607  0.0761 -0.5830
  119MOL0     C15949  10.825  11.517  11.732 -0.3757 -0.9193 -0.2191
  119MOL0     C15950  10.700  11.526  11.807  0.3141 -0.0436  0.8719
  119MOL0     C15951  10.700  11.419  11.918 -0.2623 -0.0026  0.3465
  119MOL0     C15952  10.571  11.410  11.986 -0.4328  0.0245  0.7154
  119MOL0     C15953  10.580  11.323  12.112 -0.9423  0.1008  0.6206
  119MOL0     O15954  10.604  11.410  12.220  0.0869 -0.4336 -0.3434
  119MOL0     C15955  10.568  11.388  12.347  0.0479 -0.4814 -0.4622
  119MOL0     C15956  10.460  11.304  12.384 -0.6157  0.0907 -0.4219
  119MOL0     C15957  10.424  11.285  12.520  0.7663  0.7430 -0.9675
  119MOL0     C15958  10.497  11.365  12.623 -0.0163  0.0091 -0.3973
  119MOL0     C15959  10.465  11.378  12.766 -0.7564  0.3588 -0.4884
  119MOL0     O15960  10.565  11.417  12.849  0.5039 -0.3979  0.2643
  119MOL0     C15961  10.539  11.482  12.959 -0.8021 -0.8791  0.2729
  119MOL0     C15962  10.508  11.616  12.953  1.5241 -0.3064  0.1380
  119MOL0     C15963  10.499  11.703  13.057 -0.0117 -0.2666  0.6692
  119MOL0     C15964  10.497  11.651  13.181  0.2317  0.6627 -0.1362
  119MOL0     O15965  10.482  11.728  13.294 -0.5360  0.1054  0.1521
  119MOL0     C15966  10.610  11.722  13.371 -0.3757 -0.3185 -0.3259
  119MOL0     C15967  10.576  11.679  13.515 -0.8342 -0.1231  0.8132
  119MOL0     C15968  10.706  11.661  13.600 -0.1358  0.2511  0.2009
  119MOL0     C15969  10.783  11.787  13.644 -0.7328 -0.7144  0.0117
  119MOL0     C15970  10.888  11.761  13.755  0.2911  0.6531  0.0531
  119MOL0     C15971  11.023  11.848  13.735  0.8571 -0.2148 -0.3644
  119MOL0     C15972  11.103  11.791  13.610 -0.4301 -0.0876  0.0906
  119MOL0     C15973  11.219  11.884  13.558 -0.2818 -0.4007  0.6802
  119MOL0    Cl15974  11.166  12.020  13.478 -0.0164 -0.8225 -0.3382
  119MOL0     C15975  10.527  11.508  13.197 -0.6498  0.3838  0.1388
  119MOL0     C15976  10.547  11.429  13.089 -0.1305 -0.0962  0.5570
  119MOL0     O15977  10.354  11.347  12.810  0.5965  0.2977  0.5928
  119MOL0     C15978  10.604  11.446  12.579 -0.3528  0.2528  1.4202
  119MOL0     C15979  10.636  11.457  12.440 -0.3858  0.9696 -0.3715
  119MOL0     N15980  10.839  11.425  11.634  0.2100 -1.0786  0.5402
  119MOL0     N15981  10.966  11.415  11.623 -0.3318 -0.1409 -0.8053
  119MOL0     C15982  11.029  11.073  11.256 -0.1240 -0.3025  0.7167
  119MOL0     C15983  10.986  11.121  11.134  0.0673 -0.3977  0.0852
  119MOL0     C15984  10.782  11.348  10.798  0.3810 -0.2491 -0.1357
  119MOL0     C15985  10.657  11.397  10.839  1.1336  0.4838 -0.5439
  119MOL0     C15986  10.564  11.459  10.749 -0.7205  0.3563  0.6239
  119MOL0     C15987  10.610  11.490  10.620  0.9616  0.6194  0.4608
  119MOL0     O15988  10.531  11.556  10.533 -0.0504 -0.5750  1.0655
  119MOL0     C15989  10.499  11.472  10.424  0.1639 -0.0603  0.3498
  119MOL0     C15990  10.362  11.523  10.351  0.0499  0.2937 -0.2375
  119MOL0     C15991  10.396  11.638  10.264 -0.3091  0.6008 -0.2211
  119MOL0     C15992  10.287  11.680  10.160 -0.1158 -0.1712  0.2081
  119MOL0     C15993  10.343  11.762  10.053  0.0655 -0.9480  0.1072
  119MOL0     C15994  10.383  11.832   9.958  1.2120 -0.7658  0.3109
  119MOL0     C15995  10.731  11.438  10.580  0.6134  0.0749 -0.2369
  119MOL0     C15996  10.825  11.372  10.664  0.7546 -0.1450 -0.3857
  119MOL0     C15997  10.961  11.326  10.607  0.2230  0.7857 -0.7562
  119MOL0     H15998  10.669  11.226  11.217 -0.1288  0.3800  1.8443
  119MOL0     H15999  10.740  11.126  11.440  0.9090  1.0498  1.9328
  119MOL0     H16000  10.857  11.062  11.615 -0.7269  0.6551 -4.9053
  119MOL0     H16001  10.882  10.881  11.587  1.3024 -0.7935  4.4516
  119MOL0     H16002  11.101  10.895  11.690  1.3074  0.5205 -0.2998
  119MOL0     H16003  10.972  10.907  11.797  0.5285  0.1101  0.6499
  119MOL0     H16004  10.986  11.148  11.784 -0.8667 -2.4498  0.9164
  119MOL0     H16005  11.131  11.123  11.669  1.2459  0.9354  0.2307
  119MOL0     H16006  11.096  11.028  11.948 -0.0125  0.0292 -0.4514
  119MOL0     H16007  11.230  10.974  11.860  1.6850  1.1693 -1.8264
  119MOL0     H16008  11.283  11.165  12.015 -1.6625  2.0692  0.9862
  119MOL0     H16009  11.352  11.167  11.858 -1.0284 -1.9050 -1.6836
  119MOL0     H16010  11.081  11.320  11.870 -0.3722  0.0779 -3.4297
  119MOL0     H16011  11.214  11.388  11.957  2.6355 -1.6296  1.0723
  119MOL0     H16012  11.217  11.311  11.663 -0.4181 -0.3600 -0.1816
  119MOL0     H16013  11.349  11.394  11.750 -0.2568  3.0082  2.4534
  119MOL0     H16014  11.181  11.567  11.819 -0.3930  2.1618 -2.0023
  119MOL0     H16015  11.234  11.557  11.645  1.5573  0.7230  1.2657
  119MOL0     H16016  10.958  11.640  11.850 -1.7227 -3.8480  2.5237
  119MOL0     H16017  10.691  11.625  11.851  0.9548  0.7975 -0.7976
  119MOL0     H16018  10.616  11.501  11.742  2.0377 -2.6623 -0.5398
  119MOL0     H16019  10.730  11.325  11.870 -1.2609 -0.6957  1.0210
  119MOL0     H16020  10.774  11.439  11.996 -2.1315  3.1539  1.4669
  119MOL0     H16021  10.500  11.379  11.908 -1.3102  0.3585  1.3696
  119MOL0     H16022  10.543  11.513  12.011 -0.4571  0.4324 -0.8357
  119MOL0     H16023  10.657  11.247  12.095 -1.8142 -1.2679  2.3932
  119MOL0     H16024  10.490  11.261  12.123 -0.4238 -0.9911 -0.8000
  119MOL0     H16025  10.410  11.243  12.309  3.4195 -2.6811 -1.1869
  119MOL0     H16026  10.358  11.206  12.553  0.8546  0.1125 -2.2635
  119MOL0     H16027  10.498  11.649  12.850  1.8389 -0.2419  0.1300
  119MOL0     H16028  10.473  11.807  13.039 -3.0316 -1.3245 -1.9440
  119MOL0     H16029  10.682  11.645  13.341 -1.4151 -1.3803 -0.1443
  119MOL0     H16030  10.655  11.822  13.372  1.7391 -1.1924  1.7697
  119MOL0     H16031  10.510  11.756  13.555  0.6962  1.8787 -0.3683
  119MOL0     H16032  10.523  11.584  13.503 -0.2904 -0.1385 -2.3166
  119MOL0     H16033  10.672  11.609  13.690 -2.7488 -0.5568 -1.1442
  119MOL0     H16034  10.767  11.599  13.535  0.1590 -0.5746  1.2290
  119MOL0     H16035  10.718  11.871  13.672 -0.5871 -0.1120 -1.3948
  119MOL0     H16036  10.827  11.818  13.549 -2.3576  2.5851  0.1963
  119MOL0     H16037  10.911  11.655  13.742  1.3152  1.1995 -3.9010
  119MOL0     H16038  10.850  11.790  13.853  0.7095  2.2475 -0.2183
  119MOL0     H16039  10.990  11.951  13.723 -1.1217 -0.2611  3.2760
  119MOL0     H16040  11.085  11.843  13.826 -0.9723 -0.7155  0.9089
  119MOL0     H16041  11.038  11.751  13.531  5.2242 -1.4122 -4.6595
  119MOL0     H16042  11.147  11.699  13.650  1.2188 -0.2356 -1.8883
  119MOL0     H16043  11.283  11.897  13.646  2.6288 -3.2844 -0.7890
  119MOL0     H16044  11.284  11.837  13.483 -3.9864 -1.3009 -2.2428
  119MOL0     H16045  10.533  11.462  13.295  0.5888 -1.9388 -0.9444
  119MOL0     H16046  10.563  11.323  13.104 -0.1874  0.2819  3.9323
  119MOL0     H16047  10.667  11.508  12.641  2.5837 -1.3611  0.2241
  119MOL0     H16048  10.717  11.520  12.404 -0.4397 -0.3412 -3.0210
  119MOL0     H16049  11.124  11.021  11.266 -0.2991 -0.7689  0.0203
  119MOL0     H16050  11.049  11.108  11.046  1.4034 -2.2979  1.2446
  119MOL0     H16051  10.623  11.389  10.941  1.1531  0.5229 -0.5345
  119MOL0     H16052  10.465  11.485  10.784 -0.9417 -0.0953  0.3539
  119MOL0     H16053  10.471  11.377  10.470 -1.8152 -0.1695 -0.9263
  119MOL0     H16054  10.584  11.476  10.357  1.1048  0.7935  1.5517
  119MOL0     H16055  10.281  11.544  10.421 -3.0236 -1.3301 -2.9792
  119MOL0     H16056  10.327  11.444  10.282  2.2596 -0.2871 -0.7577
  119MOL0     H16057  10.489  11.607  10.214 -0.6384 -2.9743  1.1055
  119MOL0     H16058  10.424  11.728  10.320 -2.0259  0.8461  0.2988
  119MOL0     H16059  10.241  11.591  10.116  0.3854  0.6055 -2.0190
  119MOL0     H16060  10.205  11.734  10.209  0.6120 -2.4072  4.4041
  119MOL0     H16061  10.432  11.885   9.879  1.5436 -0.6723  0.5744
  119MOL0     H16062  10.759  11.461  10.477 -0.2882  3.3096  0.1351
  119MOL0     H16063  10.962  11.217  10.620 -0.9944  0.3684 -3.5310
  119MOL0     H16064  10.969  11.345  10.499  0.5712 -0.3595 -0.9445
  119MOL0     H16065  11.042  11.376  10.660 -0.9550  2.2883 -0.2995
  120MOL0     O16066   7.344   8.424   7.951  0.3208 -0.3080 -0.3639
  120MOL0     C16067   7.388   8.536   7.927 -0.8613  0.4473 -0.0027
  120MOL0     O16068   7.351   8.653   7.990 -0.7293 -0.2437  0.5648
  120MOL0     C16069   7.249   8.641   8.081  0.0601 -0.6334 -0.2809
  120MOL0     C16070   7.234   8.537   8.169  0.2681  0.3520  0.6960
  120MOL0     C16071   7.117   8.520   8.239  0.0612  0.1136 -0.1834
  120MOL0     C16072   7.026   8.626   8.238  0.0956  0.5094  0.5000
  120MOL0     O16073   6.924   8.638   8.322 -0.1878 -0.6408 -0.6401
  120MOL0     C16074   6.853   8.511   8.345 -0.7095 -0.3469 -0.2842
  120MOL0     C16075   6.739   8.531   8.459 -0.6112 -0.1338 -0.5930
  120MOL0     C16076   6.655   8.406   8.451  0.0951 -0.6837  0.2827
  120MOL0     C16077   6.527   8.437   8.527 -0.3238 -0.7532  0.1697
  120MOL0     C16078   6.422   8.331   8.511  0.5144  0.6743  0.0541
  120MOL0     C16079   6.378   8.324   8.371  0.5150  0.2338  0.3759
  120MOL0     C16080   6.234   8.276   8.359  0.8978  0.8000  0.3129
  120MOL0     C16081   6.179   8.248   8.213 -0.0674  0.8366 -0.3491
  120MOL0     N16082   6.216   8.359   8.117  0.4821 -0.2098 -0.5803
  120MOL0     C16083   6.140   8.469   8.086 -0.8285 -1.3995 -0.7128
  120MOL0     C16084   6.175   8.502   7.963  0.5462 -1.3722  0.9275
  120MOL0     C16085   6.121   8.621   7.881 -0.8266 -0.2466  0.7405
  120MOL0     C16086   6.180   8.754   7.937 -0.4950  0.2524 -0.1373
  120MOL0     C16087   6.108   8.873   7.882 -1.3406  0.5416  0.5803
  120MOL0     C16088   6.132   8.997   7.975  0.8907 -0.8297 -0.2390
  120MOL0     O16089   6.261   9.033   8.015 -0.1373  0.1830 -0.0588
  120MOL0     C16090   6.350   9.096   7.922 -0.2652 -0.7096  0.4129
  120MOL0     C16091   6.314   9.132   7.792 -0.4986 -0.2972  0.3510
  120MOL0     C16092   6.420   9.180   7.713 -0.2427  0.4394  0.6044
  120MOL0     C16093   6.548   9.202   7.769  0.3955  0.3420 -0.1907
  120MOL0     C16094   6.659   9.248   7.664  0.7592  0.8142 -0.1121
  120MOL0     O16095   6.772   9.272   7.723  0.4235 -0.4045  0.0186
  120MOL0     C16096   6.892   9.283   7.664  0.5919  0.1838 -0.3671
  120MOL0     C16097   7.003   9.221   7.732  0.3366 -0.0790 -0.6624
  120MOL0     C16098   7.131   9.220   7.668  0.2933  0.3097 -0.7959
  120MOL0     C16099   7.150   9.285   7.545 -0.2223 -0.4633 -0.7712
  120MOL0     O16100   7.273   9.317   7.503  0.8620  0.6786 -0.1530
  120MOL0     C16101   7.329   9.436   7.554  0.3395 -1.5742  1.0845
  120MOL0     C16102   7.410   9.501   7.447  0.1102  0.1720 -0.4534
  120MOL0     C16103   7.332   9.573   7.331 -0.0993  0.1472 -0.0004
  120MOL0     C16104   7.211   9.646   7.399  0.1603  0.5114  0.1840
  120MOL0     C16105   7.160   9.743   7.294 -0.0382  0.1693 -0.8183
  120MOL0     C16106   7.028   9.805   7.346  0.9062 -0.3938  0.6194
  120MOL0     C16107   7.044   9.946   7.409  0.7597 -1.3001  0.4216
  120MOL0     C16108   6.913  10.009   7.444  0.1736  0.2645  0.3672
  120MOL0    Cl16109   6.825  10.023   7.286  0.1226 -0.5038  0.0109
  120MOL0     C16110   7.047   9.347   7.489  0.0127 -0.2244  0.1390
  120MOL0     C16111   6.919   9.343   7.544  0.9489 -0.2350 -0.7132
  120MOL0     O16112   6.641   9.245   7.541 -0.5542 -0.2789  0.2364
  120MOL0     C16113   6.571   9.191   7.907 -0.2072  0.1551  0.6756
  120MOL0     C16114   6.475   9.118   7.977  0.0625 -0.7960  0.5037
  120MOL0     N16115   6.291   8.423   7.929  0.7954 -0.0478 -0.6826
  120MOL0     N16116   6.312   8.341   8.023 -1.0125 -0.4307 -0.0831
  120MOL0     C16117   7.045   8.733   8.150 -1.3686 -0.1163 -0.3392
  120MOL0     C16118   7.159   8.743   8.083 -0.3872  0.4543 -0.0992
  120MOL0     C16119   7.513   8.530   7.836  0.6413 -0.8205  0.2130
  120MOL0     C16120   7.597   8.645   7.834 -0.2114  0.0796 -0.5409
  120MOL0     C16121   7.706   8.647   7.745  0.5288  1.0133 -0.6518
  120MOL0     C16122   7.750   8.539   7.671 -0.8401 -0.1167 -0.0206
  120MOL0     O16123   7.865   8.554   7.591  0.6212 -0.5355 -0.3486
  120MOL0     C16124   7.864   8.494   7.455  0.7867  0.5733 -0.0467
  120MOL0     C16125   7.902   8.618   7.366 -0.4882 -0.4431  0.3069
  120MOL0     C16126   7.784   8.716   7.329 -0.1929  0.1274  0.7902
  120MOL0     C16127   7.818   8.822   7.232  0.2158 -0.1546  0.7986
  120MOL0     C16128   7.818   8.764   7.098  1.1374  0.2177 -0.1765
  120MOL0     C16129   7.821   8.729   6.984  0.2116  0.2080 -0.5827
  120MOL0     C16130   7.667   8.426   7.678 -0.4380 -0.5796 -0.0509
  120MOL0     C16131   7.547   8.422   7.751  0.4493  0.4592 -0.4905
  120MOL0     C16132   7.469   8.297   7.727 -0.1976  0.3730 -0.1262
  120MOL0     H16133   7.309   8.460   8.185  0.9733  1.2598  1.9958
  120MOL0     H16134   7.115   8.429   8.299  2.6563  0.2979  0.3111
  120MOL0     H16135   6.821   8.475   8.247  2.3870  2.9480 -2.7262
  120MOL0     H16136   6.917   8.432   8.385 -0.9334  0.0205  0.8496
  120MOL0     H16137   6.685   8.625   8.442  0.1573  1.0354  2.6601
  120MOL0     H16138   6.787   8.537   8.557  0.4183  0.0883 -1.1013
  120MOL0     H16139   6.698   8.317   8.497 -0.0762 -0.9146  0.0033
  120MOL0     H16140   6.622   8.396   8.347  0.6841  3.8150 -0.5228
  120MOL0     H16141   6.563   8.456   8.628  0.5951  0.5051 -0.3688
  120MOL0     H16142   6.485   8.532   8.493  2.8930  1.1442  1.0417
  120MOL0     H16143   6.449   8.235   8.557  2.3277  2.1396  2.3236
  120MOL0     H16144   6.335   8.353   8.574  1.2654  0.1043  1.3513
  120MOL0     H16145   6.381   8.428   8.337  1.9590 -0.3850 -1.5797
  120MOL0     H16146   6.440   8.267   8.301  0.2929  3.3649 -2.6524
  120MOL0     H16147   6.175   8.351   8.412  1.5326  1.0333  0.7049
  120MOL0     H16148   6.233   8.181   8.413 -0.4257 -0.5726 -1.9722
  120MOL0     H16149   6.229   8.163   8.165 -0.9405  0.1784 -0.1051
  120MOL0     H16150   6.072   8.229   8.221  0.0891 -0.5596 -1.2178
  120MOL0     H16151   6.062   8.506   8.152  2.1558  0.2415  2.1880
  120MOL0     H16152   6.131   8.598   7.775 -1.8927 -0.2306  0.6277
  120MOL0     H16153   6.014   8.621   7.905 -0.5664  1.6173  2.2173
  120MOL0     H16154   6.176   8.757   8.046  2.7435  2.7983  0.0956
  120MOL0     H16155   6.287   8.759   7.914 -0.4992  0.9327 -0.0404
  120MOL0     H16156   6.002   8.849   7.877 -1.4228  1.0541 -0.4748
  120MOL0     H16157   6.134   8.897   7.778 -3.0217 -0.9334 -0.2334
  120MOL0     H16158   6.072   8.979   8.064  0.3807 -4.2415 -1.1120
  120MOL0     H16159   6.084   9.083   7.928 -0.6056 -2.2077 -1.3344
  120MOL0     H16160   6.212   9.119   7.756  0.6239  1.2095 -3.9411
  120MOL0     H16161   6.405   9.217   7.612 -2.4682  0.3740  0.8547
  120MOL0     H16162   6.989   9.173   7.828 -1.6061 -1.8395 -1.7284
  120MOL0     H16163   7.213   9.170   7.718  1.3028  2.4554 -0.2246
  120MOL0     H16164   7.250   9.510   7.569  1.2529  0.9387 -4.2153
  120MOL0     H16165   7.389   9.422   7.645  0.6791 -3.5171  0.6200
  120MOL0     H16166   7.478   9.566   7.504  0.3483 -0.7624  0.3504
  120MOL0     H16167   7.471   9.427   7.395 -1.0184 -1.7093  0.7819
  120MOL0     H16168   7.403   9.611   7.257  0.5887 -0.9150  0.0838
  120MOL0     H16169   7.278   9.497   7.274  2.3544 -0.6275 -1.4779
  120MOL0     H16170   7.244   9.707   7.484  1.1881 -0.5915  0.6050
  120MOL0     H16171   7.128   9.581   7.427 -0.0998  0.1643 -1.3408
  120MOL0     H16172   7.142   9.699   7.196 -1.2922  1.1561 -1.0598
  120MOL0     H16173   7.226   9.822   7.259  1.0918 -0.2300  0.3251
  120MOL0     H16174   6.960   9.807   7.260 -3.7615 -0.7591  3.9002
  120MOL0     H16175   6.978   9.739   7.418  1.9889  0.2120  1.9822
  120MOL0     H16176   7.088  10.028   7.351  1.1573 -0.5272  1.7909
  120MOL0     H16177   7.115   9.926   7.489  3.2082  0.8658 -1.0384
  120MOL0     H16178   6.859   9.954   7.521 -2.1228  3.3976  1.1871
  120MOL0     H16179   6.927  10.109   7.484  1.0963  1.3956 -2.4851
  120MOL0     H16180   7.060   9.405   7.397  0.6680 -1.7757 -0.7969
  120MOL0     H16181   6.841   9.400   7.495  0.9366  0.1009 -0.3122
  120MOL0     H16182   6.663   9.230   7.949 -0.5721 -1.7900  3.5879
  120MOL0     H16183   6.517   9.103   8.075  0.9438  1.5253  0.5463
  120MOL0     H16184   6.959   8.799   8.139 -2.1334 -1.2107 -1.1966
  120MOL0     H16185   7.162   8.825   8.012  0.5263  0.3504 -0.1959
  120MOL0     H16186   7.581   8.735   7.892  0.1472  0.2747 -0.7465
  120MOL0     H16187   7.773   8.733   7.747 -0.8294  2.1149  0.5561
  120MOL0     H16188   7.761   8.461   7.436 -0.4505  3.1771  1.4927
  120MOL0     H16189   7.933   8.412   7.434  0.1460  0.8811 -4.0526
  120MOL0     H16190   7.936   8.575   7.271  2.1857  0.1699  0.9230
  120MOL0     H16191   7.985   8.671   7.413 -1.6432  0.6153  1.2426
  120MOL0     H16192   7.756   8.764   7.423  0.1102 -0.8570  1.4068
  120MOL0     H16193   7.692   8.660   7.308 -0.0490  1.2279 -3.7677
  120MOL0     H16194   7.743   8.902   7.236 -0.5928 -0.9482  4.6567
  120MOL0     H16195   7.916   8.866   7.253  1.5043  0.2300 -4.4305
  120MOL0     H16196   7.821   8.701   6.881 -2.2939  2.9426 -1.4444
  120MOL0     H16197   7.704   8.337   7.627  1.2390  0.5063 -0.8219
  120MOL0     H16198   7.492   8.253   7.630 -0.3154  2.1838 -1.0324
  120MOL0     H16199   7.474   8.224   7.807  1.6652 -0.4288 -0.9111
  120MOL0     H16200   7.362   8.317   7.731 -0.1638  0.3605  2.3252
  121MOL0     O16201   9.115   0.147   9.635  0.3679 -1.0846 -0.4817
  121MOL0     C16202   9.213   0.093   9.588 -0.6420 -0.7838 -1.4051
  121MOL0     O16203   9.289  -0.009   9.651 -0.6099 -0.3231  0.6581
  121MOL0     C16204   9.257  -0.073   9.764 -0.9730 -0.8169 -0.2286
  121MOL0     C16205   9.129  -0.096   9.790  0.7076 -0.0031 -0.3130
  121MOL0     C16206   9.090  -0.156   9.914  0.7402  0.0295 -0.4474
  121MOL0     C16207   9.183  -0.186  10.007 -0.0959  0.0160  0.4573
  121MOL0     O16208   9.131  -0.235  10.119  0.1164 -0.6386  0.2474
  121MOL0     C16209   9.215  -0.266  10.233 -1.0524 -0.2372 -0.2649
  121MOL0     C16210   9.237  -0.418  10.251  1.1204 -0.2490  0.3554
  121MOL0     C16211   9.324  -0.437  10.378  0.1510 -0.4586  0.1996
  121MOL0     C16212   9.474  -0.411  10.363  0.4177 -0.1464 -0.0560
  121MOL0     C16213   9.537  -0.456  10.489 -1.4796 -0.3611  0.0216
  121MOL0     C16214   9.681  -0.495  10.487  0.3536 -0.3149  0.4069
  121MOL0     C16215   9.744  -0.545  10.615 -0.4232  0.4423  0.1713
  121MOL0     C16216   9.897  -0.577  10.615  1.5319  0.3523 -0.5547
  121MOL0     N16217   9.937  -0.582  10.756 -0.8843  0.7986 -0.3814
  121MOL0     C16218   9.994  -0.473  10.819  0.8214 -0.3044 -0.3221
  121MOL0     C16219  10.073  -0.529  10.910  0.4355 -0.1194 -0.0438
  121MOL0     C16220  10.180  -0.451  10.985 -0.0669 -0.1529 -0.5473
  121MOL0     C16221  10.234  -0.527  11.119  0.2039  0.5432  0.1974
  121MOL0     C16222  10.371  -0.467  11.166 -0.2746  0.3226  0.1354
  121MOL0     C16223  10.442  -0.547  11.265 -0.0461  0.0827 -0.7817
  121MOL0     O16224  10.431  -0.481  11.386 -0.7957  0.1542  0.2811
  121MOL0     C16225  10.490  -0.538  11.499 -0.0405  0.1212  0.2053
  121MOL0     C16226  10.499  -0.680  11.516 -0.3114 -0.6390  1.5836
  121MOL0     C16227  10.559  -0.734  11.631  0.5534  0.4029  0.4474
  121MOL0     C16228  10.607  -0.646  11.735  0.6883  0.1322 -0.1261
  121MOL0     C16229  10.676  -0.717  11.842  0.1943 -0.2617  0.6446
  121MOL0     O16230  10.697  -0.857  11.838 -0.2151 -1.0571 -0.1775
  121MOL0     C16231  10.742  -0.919  11.949  0.4344 -0.3515 -1.1299
  121MOL0     C16232  10.870  -0.976  11.944 -0.3462 -0.2589 -0.9582
  121MOL0     C16233  10.921  -1.032  12.059 -1.0939 -0.2512  0.5629
  121MOL0     C16234  10.843  -1.043  12.182  0.2884  0.0868  0.0018
  121MOL0     O16235  10.896  -1.117  12.282 -0.4517  0.3550  0.1147
  121MOL0     C16236  10.887  -1.067  12.414  0.0079  0.5454  0.2396
  121MOL0     C16237  10.980  -1.152  12.492 -0.6453  0.1872  0.1390
  121MOL0     C16238  10.927  -1.298  12.494  0.0849 -0.7865 -0.0742
  121MOL0     C16239  10.932  -1.348  12.642  0.4086 -0.7692  0.1366
  121MOL0     C16240  10.836  -1.461  12.666  0.1038  0.4182  0.5412
  121MOL0     C16241  10.864  -1.590  12.596 -1.2106  0.1066  1.0564
  121MOL0     C16242  10.990  -1.667  12.652 -0.4606 -0.0067 -0.2560
  121MOL0     C16243  10.994  -1.810  12.598  0.9641  0.0933 -0.2178
  121MOL0    Cl16244  10.842  -1.893  12.652 -0.5872 -0.1447 -0.6342
  121MOL0     C16245  10.713  -0.998  12.177  0.2799 -0.6365  0.6612
  121MOL0     C16246  10.660  -0.936  12.059 -0.1786 -0.2231 -0.7394
  121MOL0     O16247  10.708  -0.649  11.939 -0.1957 -1.0041  0.0419
  121MOL0     C16248  10.577  -0.509  11.723  0.1427  0.0056  0.1283
  121MOL0     C16249  10.532  -0.454  11.601  0.2723 -0.9198  0.2300
  121MOL0     N16250  10.058  -0.664  10.921 -0.0056  0.0922  0.4090
  121MOL0     N16251   9.986  -0.698  10.819  0.0818  0.7122  1.2186
  121MOL0     C16252   9.317  -0.146   9.978  0.4411  0.9940 -0.8337
  121MOL0     C16253   9.355  -0.092   9.865  0.8164  0.6849 -0.1199
  121MOL0     C16254   9.272   0.151   9.467  0.0722 -0.3474  0.5232
  121MOL0     C16255   9.382   0.083   9.405 -0.0602  0.7047 -0.3679
  121MOL0     C16256   9.441   0.132   9.288  1.1486  0.4664  0.1806
  121MOL0     C16257   9.394   0.248   9.231  0.3937  0.1397 -0.9689
  121MOL0     O16258   9.463   0.304   9.126  0.1485 -0.1068  0.5178
  121MOL0     C16259   9.417   0.274   8.996  0.1618  0.6483 -0.7412
  121MOL0     C16260   9.318   0.372   8.939 -0.6006 -0.0294  0.3855
  121MOL0     C16261   9.380   0.512   8.920  0.6579  0.1316 -0.7740
  121MOL0     C16262   9.281   0.602   8.848 -0.5732  0.2974 -0.6591
  121MOL0     C16263   9.235   0.542   8.722 -0.1274  0.3083 -0.3294
  121MOL0     C16264   9.191   0.483   8.626  0.2866 -0.9262  0.9709
  121MOL0     C16265   9.290   0.321   9.301 -0.6789  0.8063  0.1820
  121MOL0     C16266   9.231   0.274   9.414 -0.5923  0.4412  0.6184
  121MOL0     C16267   9.156   0.372   9.496 -1.0407 -0.1498  0.5822
  121MOL0     H16268   9.048  -0.064   9.725 -2.6977 -2.9165  2.0754
  121MOL0     H16269   8.987  -0.179   9.936  0.8783 -3.3752 -2.5462
  121MOL0     H16270   9.308  -0.209  10.238 -1.0542 -0.2497 -0.0552
  121MOL0     H16271   9.170  -0.238  10.329  6.0236  1.5178  3.2998
  121MOL0     H16272   9.277  -0.470  10.164  0.2198  0.8450 -0.7543
  121MOL0     H16273   9.137  -0.461  10.255  0.8442  0.4482  2.0582
  121MOL0     H16274   9.315  -0.541  10.409  3.4585 -0.8827  0.0575
  121MOL0     H16275   9.271  -0.374  10.450 -2.6943 -1.1581 -1.1405
  121MOL0     H16276   9.505  -0.457  10.270 -1.6200  4.3452 -3.3717
  121MOL0     H16277   9.498  -0.304  10.354 -1.4105  0.4184  1.1661
  121MOL0     H16278   9.533  -0.376  10.563  2.9956  0.9418 -0.8166
  121MOL0     H16279   9.485  -0.549  10.513 -1.2352 -0.9570 -1.5763
  121MOL0     H16280   9.701  -0.560  10.401 -0.3734 -0.9013  0.6681
  121MOL0     H16281   9.745  -0.407  10.477  0.4907 -0.5237 -0.7483
  121MOL0     H16282   9.701  -0.642  10.641  0.5266 -0.5095 -1.6786
  121MOL0     H16283   9.715  -0.496  10.709 -3.0735  0.0638 -0.3575
  121MOL0     H16284   9.914  -0.677  10.573  2.6886  0.5771 -0.6381
  121MOL0     H16285   9.949  -0.499  10.559 -1.4337  1.1801 -2.4024
  121MOL0     H16286   9.990  -0.366  10.800  2.2796 -0.1576  0.1191
  121MOL0     H16287  10.254  -0.439  10.905  0.9858 -2.0231  0.0898
  121MOL0     H16288  10.140  -0.351  11.002 -1.7183 -0.4844 -2.1140
  121MOL0     H16289  10.167  -0.523  11.205  1.6294  0.8139  1.3230
  121MOL0     H16290  10.233  -0.636  11.111 -0.2986  0.4743  1.0543
  121MOL0     H16291  10.349  -0.365  11.198 -3.2037 -0.4116  0.6995
  121MOL0     H16292  10.440  -0.458  11.081  1.9999  1.9914  2.0235
  121MOL0     H16293  10.550  -0.557  11.248  0.3820 -1.7679  2.3831
  121MOL0     H16294  10.390  -0.643  11.270  0.9037 -0.5287 -2.0276
  121MOL0     H16295  10.475  -0.759  11.446  1.3118  0.3939 -0.2137
  121MOL0     H16296  10.560  -0.842  11.625 -2.3884  0.1123  3.0509
  121MOL0     H16297  10.933  -0.967  11.856  0.1005  0.8829 -0.5476
  121MOL0     H16298  11.021  -1.074  12.066 -2.1430 -2.9055  0.7959
  121MOL0     H16299  10.908  -0.960  12.422  1.1083  0.4420 -0.8700
  121MOL0     H16300  10.791  -1.068  12.466 -0.1121  4.0962  0.2775
  121MOL0     H16301  11.082  -1.142  12.453  0.6298  1.7099  3.4191
  121MOL0     H16302  10.986  -1.105  12.591  0.8785 -1.4954  0.9094
  121MOL0     H16303  10.823  -1.285  12.465 -0.4316 -0.2802  1.8300
  121MOL0     H16304  10.980  -1.372  12.434  2.1102  0.2755  0.2848
  121MOL0     H16305  10.913  -1.267  12.713  4.7508  0.1985  0.4588
  121MOL0     H16306  11.030  -1.397  12.642  0.3853 -1.6114 -5.7380
  121MOL0     H16307  10.735  -1.434  12.631 -0.3224 -0.5359  0.9901
  121MOL0     H16308  10.822  -1.474  12.773 -1.6761  1.4681  0.4790
  121MOL0     H16309  10.777  -1.655  12.585 -0.2415 -1.5874  2.8132
  121MOL0     H16310  10.881  -1.565  12.491 -3.9931 -3.3443 -0.4178
  121MOL0     H16311  10.985  -1.662  12.761  2.3322 -1.5946  0.0486
  121MOL0     H16312  11.091  -1.630  12.633  1.1183 -4.0460 -0.6844
  121MOL0     H16313  10.991  -1.808  12.489 -0.0259 -0.9156 -0.2214
  121MOL0     H16314  11.085  -1.864  12.625 -0.0051 -0.8607  1.3425
  121MOL0     H16315  10.642  -1.013  12.258 -0.5051 -2.0012 -0.2368
  121MOL0     H16316  10.561  -0.893  12.050 -0.9614 -1.9081 -0.5918
  121MOL0     H16317  10.597  -0.436  11.801  0.2388  2.2296 -1.8797
  121MOL0     H16318  10.522  -0.347  11.585 -0.3097 -0.6844  1.8973
  121MOL0     H16319   9.400  -0.164  10.046 -1.2803  0.6896  1.3133
  121MOL0     H16320   9.456  -0.060   9.840  0.6981  0.1348 -1.4293
  121MOL0     H16321   9.436   0.002   9.452 -0.6141  0.0280 -0.8802
  121MOL0     H16322   9.517   0.070   9.241  0.1980 -2.2968  2.0132
  121MOL0     H16323   9.370   0.176   8.994 -2.0428  1.6684 -1.1239
  121MOL0     H16324   9.504   0.275   8.929  0.2933 -0.0169 -0.5843
  121MOL0     H16325   9.232   0.380   9.006 -0.8187 -3.3424  0.6695
  121MOL0     H16326   9.297   0.328   8.842  5.4476 -1.4097 -0.7373
  121MOL0     H16327   9.480   0.504   8.877  0.8395 -2.0179 -0.0800
  121MOL0     H16328   9.400   0.545   9.023  0.2803 -3.3494  0.5596
  121MOL0     H16329   9.195   0.630   8.910 -0.7762 -0.8461 -0.4189
  121MOL0     H16330   9.335   0.692   8.817  1.7683 -0.7686  0.1321
  121MOL0     H16331   9.167   0.443   8.529 -2.9416  3.2210 -0.2552
  121MOL0     H16332   9.269   0.420   9.261  1.2964  0.4078 -2.1112
  121MOL0     H16333   9.162   0.472   9.450  2.6464 -0.0002  1.1368
  121MOL0     H16334   9.050   0.345   9.493 -1.7886  1.3955  5.1230
  121MOL0     H16335   9.194   0.369   9.598 -1.3764 -2.3415  0.6834
  122MOL0     O16336  10.275   0.453   8.698  0.6687  0.3160  0.1111
  122MOL0     C16337  10.322   0.511   8.795  0.3919 -0.0659  0.3686
  122MOL0     O16338  10.298   0.639   8.829 -0.3225 -0.1372  0.7152
  122MOL0     C16339  10.222   0.727   8.751 -0.7131  0.3787  0.0451
  122MOL0     C16340  10.275   0.836   8.678 -0.8465 -0.2924 -0.0305
  122MOL0     C16341  10.194   0.937   8.627 -0.1770 -0.0726 -0.6728
  122MOL0     C16342  10.051   0.928   8.648  0.0577 -0.0178  0.3982
  122MOL0     O16343   9.983   1.032   8.576 -0.7183 -0.5142  1.1709
  122MOL0     C16344   9.861   0.996   8.516 -0.3694  0.0646  0.2568
  122MOL0     C16345   9.812   1.106   8.420  0.8699 -0.8925  0.8151
  122MOL0     C16346   9.782   1.245   8.481  1.0149  0.3820 -0.4677
  122MOL0     C16347   9.713   1.327   8.376 -0.3067  0.1105 -0.4683
  122MOL0     C16348   9.692   1.472   8.438 -0.3625 -0.1386 -0.8308
  122MOL0     C16349   9.637   1.568   8.322  0.1416 -0.3240 -0.3029
  122MOL0     C16350   9.564   1.690   8.380  0.1646 -0.3772 -0.1631
  122MOL0     C16351   9.520   1.794   8.272  0.5074  0.2510  0.4329
  122MOL0     N16352   9.439   1.728   8.170  0.0500  0.6498 -0.2893
  122MOL0     C16353   9.305   1.757   8.152 -0.6488  0.8006 -0.6168
  122MOL0     C16354   9.274   1.709   8.021 -0.6230  0.5558 -0.0332
  122MOL0     C16355   9.147   1.689   7.947  0.1183 -0.0390 -0.9386
  122MOL0     C16356   9.074   1.827   7.914 -0.3149  0.7343 -0.1349
  122MOL0     C16357   8.954   1.808   7.822  0.0777 -0.2049  1.0778
  122MOL0     C16358   8.966   1.760   7.672  0.8523  0.5368 -0.5408
  122MOL0     O16359   8.852   1.690   7.625 -0.3839 -0.3516  0.5808
  122MOL0     C16360   8.852   1.552   7.610 -0.5081 -0.1384 -0.3856
  122MOL0     C16361   8.963   1.462   7.641  0.6557  0.3051 -0.6352
  122MOL0     C16362   8.950   1.324   7.603  0.3195  0.2902 -0.4373
  122MOL0     C16363   8.822   1.278   7.546 -0.6765  0.3437 -0.5831
  122MOL0     C16364   8.825   1.129   7.509 -0.9010  0.4386 -0.8294
  122MOL0     O16365   8.928   1.052   7.556  0.1627 -0.3560  0.4298
  122MOL0     C16366   8.916   0.922   7.521  0.4635  0.1982  0.4880
  122MOL0     C16367   8.837   0.833   7.605 -0.1189  0.1684  0.4782
  122MOL0     C16368   8.830   0.703   7.575 -0.4684  0.9027 -0.4877
  122MOL0     C16369   8.899   0.648   7.468  0.0137  0.9594  0.1180
  122MOL0     O16370   8.877   0.508   7.448 -0.1537  0.1103  0.7716
  122MOL0     C16371   8.798   0.486   7.333 -0.2867 -0.3567 -0.9277
  122MOL0     C16372   8.872   0.445   7.206  0.3926  0.2739 -0.5052
  122MOL0     C16373   8.791   0.404   7.081  0.6902 -0.1182  0.3832
  122MOL0     C16374   8.734   0.264   7.086 -0.3492 -0.7762 -1.1144
  122MOL0     C16375   8.700   0.223   6.940  0.3031 -0.3319  0.5691
  122MOL0     C16376   8.593   0.121   6.935 -0.9828 -0.2127  0.1810
  122MOL0     C16377   8.602   0.034   6.814 -0.5723 -0.1375 -0.4782
  122MOL0     C16378   8.526   0.099   6.698  0.6678  0.2101 -0.2088
  122MOL0    Cl16379   8.620   0.222   6.606  0.2381  0.2014 -0.2540
  122MOL0     C16380   8.978   0.732   7.391 -0.3340 -0.4621  0.5755
  122MOL0     C16381   8.978   0.871   7.411  0.5868  0.4609 -0.2179
  122MOL0     O16382   8.733   1.090   7.434 -0.6581 -0.5130 -0.9940
  122MOL0     C16383   8.714   1.368   7.533  0.6151  0.4857 -0.3981
  122MOL0     C16384   8.727   1.500   7.571 -0.8491 -0.3661  0.5044
  122MOL0     N16385   9.396   1.655   7.963  0.2278  0.1422  0.1244
  122MOL0     N16386   9.488   1.679   8.051 -0.9056  0.7193 -0.5418
  122MOL0     C16387   9.995   0.823   8.721 -0.6646  0.4166  0.2464
  122MOL0     C16388  10.083   0.728   8.770 -0.4392  0.8186 -0.6180
  122MOL0     C16389  10.358   0.419   8.906  0.4082  0.6082  0.2310
  122MOL0     C16390  10.297   0.443   9.033  0.2135  0.6964  0.1777
  122MOL0     C16391  10.326   0.343   9.138  0.4103 -0.0418  0.3693
  122MOL0     C16392  10.409   0.231   9.111 -0.5603 -0.3993 -0.6235
  122MOL0     O16393  10.430   0.141   9.211 -0.7353  0.4929 -0.2493
  122MOL0     C16394  10.412   0.004   9.192 -0.8057  0.3208  0.5717
  122MOL0     C16395  10.384  -0.080   9.323 -0.0136 -0.2815  1.3168
  122MOL0     C16396  10.489  -0.067   9.425 -0.1301 -0.2260  0.3238
  122MOL0     C16397  10.415  -0.008   9.555  0.1929 -0.1855 -0.0377
  122MOL0     C16398  10.515   0.015   9.659 -0.0862  0.0258 -0.5630
  122MOL0     C16399  10.576   0.043   9.762 -0.3374  0.3294  0.0631
  122MOL0     C16400  10.462   0.215   8.984 -0.9368 -0.3673  0.2823
  122MOL0     C16401  10.446   0.309   8.883 -0.6016 -0.3894 -0.1397
  122MOL0     C16402  10.533   0.293   8.759  1.4981 -0.4422 -0.2956
  122MOL0     H16403  10.378   0.817   8.648 -0.6913 -2.7011  1.6778
  122MOL0     H16404  10.235   1.019   8.569  0.4855  0.8324  0.9864
  122MOL0     H16405   9.877   0.903   8.460 -0.1670 -0.1413  0.6515
  122MOL0     H16406   9.782   0.983   8.590 -2.4221  0.3691 -1.7711
  122MOL0     H16407   9.725   1.069   8.365  2.1275 -1.4106 -0.9249
  122MOL0     H16408   9.890   1.119   8.344 -0.4439  2.1073 -0.1655
  122MOL0     H16409   9.877   1.285   8.516  1.3053  2.0827 -2.9693
  122MOL0     H16410   9.727   1.243   8.575 -0.9681 -1.3396 -1.5873
  122MOL0     H16411   9.782   1.338   8.292  0.5551  0.1566  0.2315
  122MOL0     H16412   9.616   1.286   8.345 -1.1553  1.8092 -0.1931
  122MOL0     H16413   9.628   1.452   8.524  3.1172 -2.1258  1.5645
  122MOL0     H16414   9.791   1.500   8.475 -1.0490 -1.6549  2.4985
  122MOL0     H16415   9.722   1.597   8.259 -0.4158 -0.1851 -0.9924
  122MOL0     H16416   9.569   1.509   8.260 -1.1453  1.3506 -0.5369
  122MOL0     H16417   9.622   1.734   8.461  2.8134  0.3286 -2.3035
  122MOL0     H16418   9.469   1.663   8.428 -0.0039  0.7107  0.1342
  122MOL0     H16419   9.471   1.885   8.306  0.3940  0.3643 -0.0159
  122MOL0     H16420   9.602   1.816   8.203 -0.3918 -1.0128 -1.1215
  122MOL0     H16421   9.244   1.804   8.229 -0.1489 -0.8845  0.8539
  122MOL0     H16422   9.180   1.647   7.852  1.4652  1.5176 -1.1988
  122MOL0     H16423   9.084   1.613   7.993 -0.7802 -0.0285 -2.1282
  122MOL0     H16424   9.027   1.862   8.006 -0.6281 -3.4943  1.5489
  122MOL0     H16425   9.141   1.901   7.870 -1.1179  0.7454 -1.3957
  122MOL0     H16426   8.916   1.910   7.810  0.3737  0.1218  2.6965
  122MOL0     H16427   8.879   1.751   7.878  0.3857  0.1600  1.8766
  122MOL0     H16428   9.059   1.708   7.652  0.7348  0.1713 -0.1534
  122MOL0     H16429   8.980   1.848   7.608  0.1557  0.4772 -0.7863
  122MOL0     H16430   9.056   1.496   7.686  0.6449 -0.9161  0.3591
  122MOL0     H16431   9.032   1.256   7.623 -0.0283 -0.6438 -2.0340
  122MOL0     H16432   8.808   0.868   7.704  1.8259 -4.1421  2.8440
  122MOL0     H16433   8.779   0.625   7.632  0.8544  1.5042  1.6655
  122MOL0     H16434   8.736   0.398   7.358  2.6156 -2.2006  0.3482
  122MOL0     H16435   8.729   0.567   7.309  0.0315  0.0791 -0.3936
  122MOL0     H16436   8.938   0.525   7.173 -1.6195  1.0555 -2.9793
  122MOL0     H16437   8.924   0.350   7.223  0.7454  0.4862 -0.3959
  122MOL0     H16438   8.727   0.489   7.053 -1.6421 -2.7689 -3.2122
  122MOL0     H16439   8.862   0.403   6.999 -0.8282  0.7394 -1.0099
  122MOL0     H16440   8.657   0.266   7.164 -1.1276  0.2816 -1.8768
  122MOL0     H16441   8.811   0.194   7.119  1.5758  1.5700 -0.3178
  122MOL0     H16442   8.789   0.184   6.891  0.3175  1.0296 -0.5263
  122MOL0     H16443   8.664   0.310   6.884 -0.7070 -0.7915  0.4755
  122MOL0     H16444   8.579   0.061   7.026  0.4316 -1.0986 -0.1509
  122MOL0     H16445   8.501   0.180   6.941 -1.1497 -0.5782  1.8707
  122MOL0     H16446   8.552  -0.058   6.842 -0.7017  0.1020  0.0859
  122MOL0     H16447   8.705   0.009   6.786  0.0024 -0.8749  2.0313
  122MOL0     H16448   8.509   0.012   6.634 -0.4315 -1.7265  2.5628
  122MOL0     H16449   8.433   0.153   6.718  0.2819  0.5699 -2.5944
  122MOL0     H16450   9.034   0.698   7.304  0.2974  2.6172 -0.3236
  122MOL0     H16451   9.020   0.948   7.346 -2.1099  2.2650  0.0143
  122MOL0     H16452   8.624   1.328   7.486  0.6598 -0.4927  0.3062
  122MOL0     H16453   8.639   1.562   7.556  1.6218  3.8394  1.7209
  122MOL0     H16454   9.891   0.807   8.747 -0.0054 -1.9466  1.7027
  122MOL0     H16455  10.039   0.664   8.846  0.8063  2.5851  1.7460
  122MOL0     H16456  10.236   0.530   9.055  1.8273  1.4016  2.1112
  122MOL0     H16457  10.275   0.355   9.233 -1.1508  0.2223 -0.4521
  122MOL0     H16458  10.500  -0.041   9.144 -0.2396 -2.3675  3.7480
  122MOL0     H16459  10.319  -0.003   9.134 -4.4830  1.0513  5.7411
  122MOL0     H16460  10.404  -0.185   9.297  0.5014 -0.0432  0.7371
  122MOL0     H16461  10.281  -0.066   9.357 -1.2967  2.2277 -2.8951
  122MOL0     H16462  10.574  -0.002   9.404  0.4279 -0.2636  2.2685
  122MOL0     H16463  10.531  -0.168   9.434 -1.3607 -0.6159  2.5120
  122MOL0     H16464  10.364   0.086   9.535  3.1493  1.1041 -2.2532
  122MOL0     H16465  10.350  -0.082   9.603  2.1413 -0.2110  2.8582
  122MOL0     H16466  10.625   0.090   9.845  0.4006 -0.0341 -0.1587
  122MOL0     H16467  10.528   0.133   8.958  0.8289  0.5432  1.6729
  122MOL0     H16468  10.483   0.308   8.663  1.9545  0.7076 -0.3625
  122MOL0     H16469  10.602   0.378   8.763  1.0260 -0.0926  2.7325
  122MOL0     H16470  10.587   0.198   8.774 -1.1066 -1.7355  1.5821
  123MOL0     O16471   3.992   8.549   9.367 -0.3464 -0.1295  0.4197
  123MOL0     C16472   4.058   8.516   9.468 -0.5184  0.0778  1.6563
  123MOL0     O16473   4.060   8.589   9.581 -0.2430 -0.6527  0.4029
  123MOL0     C16474   4.007   8.718   9.592 -0.4754  0.0644 -1.0770
  123MOL0     C16475   4.079   8.841   9.598  0.4465  0.0329 -1.1558
  123MOL0     C16476   4.014   8.962   9.614  0.0593  1.0547  0.7857
  123MOL0     C16477   3.873   8.960   9.609 -1.1873 -0.0359 -0.0666
  123MOL0     O16478   3.789   9.065   9.611 -0.2077 -0.3548  0.2208
  123MOL0     C16479   3.840   9.207   9.597 -0.1157  0.1027  0.5786
  123MOL0     C16480   3.897   9.226   9.454 -0.2967 -0.4347  0.2201
  123MOL0     C16481   3.800   9.226   9.340 -0.4216  0.9641 -0.2086
  123MOL0     C16482   3.776   9.079   9.292  0.4506  0.8109  0.9288
  123MOL0     C16483   3.710   9.087   9.155  1.2673 -0.4005 -0.8034
  123MOL0     C16484   3.727   8.964   9.064  0.3730 -0.7758  0.6009
  123MOL0     C16485   3.720   8.828   9.137  0.8290  0.0545  0.5355
  123MOL0     C16486   3.762   8.723   9.034 -0.8084  0.0936  0.7894
  123MOL0     N16487   3.904   8.720   8.984  0.6130 -0.2544 -0.1824
  123MOL0     C16488   4.006   8.689   9.072 -1.1959 -0.2315  1.2105
  123MOL0     C16489   4.113   8.661   8.986  0.2109  0.8719 -0.0298
  123MOL0     C16490   4.251   8.628   9.019 -0.7351  0.7956 -0.2840
  123MOL0     C16491   4.290   8.492   8.952 -0.0320  0.5840  0.3658
  123MOL0     C16492   4.264   8.367   9.051  1.0275 -0.2733  0.1498
  123MOL0     C16493   4.264   8.231   8.983 -0.0289 -0.4974  0.1458
  123MOL0     O16494   4.400   8.199   8.940  0.0306  0.2568  0.0263
  123MOL0     C16495   4.426   8.178   8.800  0.2292  0.8161 -0.3009
  123MOL0     C16496   4.331   8.186   8.695  0.3486 -0.2547 -0.2647
  123MOL0     C16497   4.373   8.162   8.565  1.1490 -0.0094  0.0824
  123MOL0     C16498   4.505   8.141   8.526  1.2229 -0.4810  0.0457
  123MOL0     C16499   4.531   8.108   8.386 -0.5805  0.4050 -0.0407
  123MOL0     O16500   4.661   8.134   8.342  0.8113 -0.9588  0.0867
  123MOL0     C16501   4.700   8.123   8.212  0.9414  0.1545  0.5400
  123MOL0     C16502   4.641   8.024   8.115 -0.2906 -0.3946 -0.6215
  123MOL0     C16503   4.685   8.012   7.988  0.1640 -0.0316  0.4343
  123MOL0     C16504   4.798   8.094   7.941 -1.3441 -0.2668  0.6955
  123MOL0     O16505   4.842   8.066   7.816 -0.3810  0.1512  0.0481
  123MOL0     C16506   4.923   8.171   7.754 -0.2601 -0.2403 -0.4402
  123MOL0     C16507   4.937   8.122   7.612 -0.2273  0.7770 -0.1356
  123MOL0     C16508   5.003   8.226   7.514 -0.4566 -1.0048  0.4357
  123MOL0     C16509   4.984   8.205   7.371  0.4304  0.0472 -0.4389
  123MOL0     C16510   5.076   8.278   7.294 -0.6596  0.1196  0.7235
  123MOL0     C16511   5.080   8.429   7.323  0.4832  0.3242  0.0885
  123MOL0     C16512   5.173   8.495   7.229 -0.1685 -1.0438  0.3430
  123MOL0     C16513   5.133   8.637   7.181  1.6691  0.0041 -1.0012
  123MOL0    Cl16514   5.256   8.701   7.070  0.2451 -0.3403 -0.1600
  123MOL0     C16515   4.858   8.180   8.033  0.0103 -1.1813  0.0536
  123MOL0     C16516   4.808   8.191   8.161  0.3680 -0.2529  0.3864
  123MOL0     O16517   4.437   8.068   8.323 -0.4015  0.8488  0.0553
  123MOL0     C16518   4.600   8.136   8.629  0.4157 -0.2363  0.2065
  123MOL0     C16519   4.553   8.156   8.759 -0.5263  0.0658 -0.2851
  123MOL0     N16520   4.066   8.684   8.855  0.1658 -0.0742  0.2813
  123MOL0     N16521   3.945   8.715   8.850  0.4429 -0.0273 -0.7076
  123MOL0     C16522   3.802   8.841   9.596 -0.0770  0.4295  0.4428
  123MOL0     C16523   3.871   8.724   9.590  0.8950  1.0490 -0.2538
  123MOL0     C16524   4.108   8.375   9.467  1.2063  0.5680  0.2855
  123MOL0     C16525   4.198   8.344   9.566 -0.7714  0.4760 -0.9764
  123MOL0     C16526   4.261   8.222   9.579 -0.1899 -1.0839  0.1276
  123MOL0     C16527   4.232   8.123   9.484  0.0451  0.4035  0.6172
  123MOL0     O16528   4.276   7.999   9.510 -0.3558  0.7682 -0.8608
  123MOL0     C16529   4.182   7.890   9.516  0.0166  0.5874  0.0219
  123MOL0     C16530   4.262   7.762   9.564  0.4395  0.0510  0.1377
  123MOL0     C16531   4.351   7.786   9.689  0.7373  0.1066 -0.0821
  123MOL0     C16532   4.269   7.842   9.805 -0.0663  0.1054 -0.3553
  123MOL0     C16533   4.173   7.746   9.853 -0.6778 -0.5270 -0.4541
  123MOL0     C16534   4.126   7.654   9.909  0.8340 -0.7727 -0.3294
  123MOL0     C16535   4.142   8.152   9.384  1.1652 -0.3082 -0.5226
  123MOL0     C16536   4.073   8.271   9.377  0.5659 -0.7223  0.4385
  123MOL0     C16537   3.969   8.284   9.271  0.3877  0.0201 -0.4071
  123MOL0     H16538   4.184   8.845   9.572 -0.1172 -1.7869 -4.3617
  123MOL0     H16539   4.072   9.047   9.648  0.6134  0.6705  0.8019
  123MOL0     H16540   3.743   9.257   9.608 -0.8164 -1.0758  0.0074
  123MOL0     H16541   3.916   9.231   9.671 -0.0523  0.0092  0.5443
  123MOL0     H16542   3.979   9.155   9.442  2.5116  2.6698 -0.2894
  123MOL0     H16543   3.956   9.317   9.465 -1.4852  0.5346 -1.1604
  123MOL0     H16544   3.835   9.294   9.261  2.2979 -1.4346 -1.2469
  123MOL0     H16545   3.708   9.274   9.375  0.8304  1.2479  2.9875
  123MOL0     H16546   3.865   9.017   9.303  0.8179  1.4972  2.0367
  123MOL0     H16547   3.700   9.028   9.352 -1.0930 -3.3453 -3.9199
  123MOL0     H16548   3.605   9.116   9.156  2.0101  2.7146 -0.6385
  123MOL0     H16549   3.766   9.167   9.105  0.9648  0.0343 -0.4518
  123MOL0     H16550   3.654   8.973   8.983  0.5110 -0.1631  0.5417
  123MOL0     H16551   3.831   8.962   9.030  0.6786 -4.4278  1.3509
  123MOL0     H16552   3.618   8.817   9.175  1.9276  0.4011  3.9311
  123MOL0     H16553   3.788   8.836   9.222 -3.6687  1.0523  4.4809
  123MOL0     H16554   3.746   8.623   9.077  1.2138 -0.1239  1.1062
  123MOL0     H16555   3.705   8.724   8.940  0.6769  2.9897 -0.2028
  123MOL0     H16556   4.024   8.687   9.179  3.3872  1.9477  0.7192
  123MOL0     H16557   4.315   8.711   8.987 -0.0046  0.2371 -0.2930
  123MOL0     H16558   4.268   8.607   9.125 -3.2481 -1.9655 -0.2874
  123MOL0     H16559   4.241   8.471   8.856 -1.1921  2.8834  0.3912
  123MOL0     H16560   4.397   8.499   8.932  0.5308 -3.2217  1.2319
  123MOL0     H16561   4.165   8.368   9.099  0.3526  0.8762 -1.2166
  123MOL0     H16562   4.335   8.365   9.135  1.8805  1.4757 -0.4630
  123MOL0     H16563   4.194   8.245   8.901  0.8425  0.8379 -0.4108
  123MOL0     H16564   4.234   8.147   9.047 -0.4250  0.6283  1.4896
  123MOL0     H16565   4.229   8.219   8.709  1.1772  1.2749  3.1744
  123MOL0     H16566   4.304   8.165   8.481 -0.1679 -3.9814  0.8204
  123MOL0     H16567   4.555   7.965   8.147 -0.8680  0.0152 -1.3735
  123MOL0     H16568   4.647   7.933   7.924  0.8888  0.0142 -0.0766
  123MOL0     H16569   4.877   8.270   7.764 -1.9958 -1.1982  2.2621
  123MOL0     H16570   5.020   8.163   7.803 -1.0423 -1.7361  0.9726
  123MOL0     H16571   5.013   8.043   7.608 -1.9747 -0.9629 -0.1587
  123MOL0     H16572   4.840   8.084   7.579 -0.7939  1.8015  0.2979
  123MOL0     H16573   4.975   8.327   7.545  4.6323  1.3164 -1.4547
  123MOL0     H16574   5.111   8.222   7.528 -0.1783  3.6780  1.1113
  123MOL0     H16575   4.882   8.216   7.333 -0.8947 -2.4206  2.0465
  123MOL0     H16576   5.000   8.099   7.349 -0.4850 -0.2344  0.2173
  123MOL0     H16577   5.057   8.253   7.189  2.1492 -0.0924  0.1688
  123MOL0     H16578   5.173   8.232   7.316  1.6885  2.1246 -3.9801
  123MOL0     H16579   4.984   8.480   7.306  0.2563 -0.8952 -2.7918
  123MOL0     H16580   5.108   8.456   7.425  1.8833  1.4711 -0.5781
  123MOL0     H16581   5.183   8.435   7.138 -1.0182  1.4250 -1.4979
  123MOL0     H16582   5.270   8.502   7.280  1.2027  1.2953 -2.3304
  123MOL0     H16583   5.035   8.627   7.132  0.5246 -2.1775  1.4908
  123MOL0     H16584   5.127   8.699   7.271  1.6032 -0.3938 -0.7289
  123MOL0     H16585   4.940   8.243   8.001  2.5767 -3.1015  2.3554
  123MOL0     H16586   4.863   8.257   8.226  3.5610 -0.9956 -1.3194
  123MOL0     H16587   4.703   8.111   8.609  0.4183 -0.3332  0.3426
  123MOL0     H16588   4.623   8.139   8.840  1.6094  3.3937 -1.2326
  123MOL0     H16589   3.694   8.857   9.597  0.2303  2.8006  2.2960
  123MOL0     H16590   3.818   8.629   9.585  1.8001  0.4994  0.3256
  123MOL0     H16591   4.237   8.416   9.638  7.5221 -3.8658  0.0428
  123MOL0     H16592   4.325   8.209   9.665  0.4585 -0.1745 -0.1994
  123MOL0     H16593   4.145   7.853   9.420 -1.6448  0.4198  0.7100
  123MOL0     H16594   4.103   7.906   9.589  0.6465  0.2665  0.7886
  123MOL0     H16595   4.321   7.711   9.486 -1.0503 -1.7148  0.1108
  123MOL0     H16596   4.191   7.682   9.587 -1.2691  1.6492  0.5585
  123MOL0     H16597   4.443   7.839   9.661  0.2556  0.0798 -1.8526
  123MOL0     H16598   4.387   7.690   9.729  1.5506  0.0652 -0.8886
  123MOL0     H16599   4.339   7.855   9.888 -1.7707  3.9357  0.7172
  123MOL0     H16600   4.223   7.940   9.790 -0.7421 -0.3459 -1.3935
  123MOL0     H16601   4.090   7.567   9.960 -0.9461 -0.0547 -0.3068
  123MOL0     H16602   4.119   8.066   9.322 -0.6418 -0.7464  0.6852
  123MOL0     H16603   3.982   8.375   9.212 -0.4139 -0.7124 -1.7778
  123MOL0     H16604   3.970   8.198   9.202 -0.7070  0.1812 -0.6410
  123MOL0     H16605   3.871   8.298   9.317  0.8853 -2.0159  1.4108
  124MOL0     O16606   4.199  11.043   6.166  0.3504 -0.2562  0.5417
  124MOL0     C16607   4.289  11.008   6.092 -0.5477 -0.8440 -0.5125
  124MOL0     O16608   4.329  10.875   6.071 -0.0826 -0.4844 -0.0610
  124MOL0     C16609   4.295  10.777   6.161 -0.1381 -0.4238 -0.0534
  124MOL0     C16610   4.266  10.645   6.112 -0.1386 -0.2666 -0.3525
  124MOL0     C16611   4.246  10.536   6.206 -0.2394 -0.1331  0.0921
  124MOL0     C16612   4.249  10.566   6.340 -0.1088  0.7219  0.1840
  124MOL0     O16613   4.216  10.463   6.428  1.1196 -0.1614 -0.5934
  124MOL0     C16614   4.287  10.456   6.550 -0.7605 -0.6353 -0.4879
  124MOL0     C16615   4.269  10.310   6.591  1.4351  1.2460  0.0260
  124MOL0     C16616   4.292  10.286   6.742 -0.9911 -0.0104  1.0835
  124MOL0     C16617   4.442  10.308   6.770  0.3189 -0.0629 -0.3062
  124MOL0     C16618   4.461  10.266   6.914 -0.8159  0.1951 -0.8289
  124MOL0     C16619   4.582  10.317   6.993  1.1190  0.3098  0.1347
  124MOL0     C16620   4.703  10.364   6.922 -0.2463  0.4066 -0.0708
  124MOL0     C16621   4.811  10.401   7.021 -0.1965  0.0747  0.4866
  124MOL0     N16622   4.919  10.476   6.958 -0.2991 -0.2537 -0.9020
  124MOL0     C16623   4.899  10.607   6.921 -1.2957  0.4503 -0.2932
  124MOL0     C16624   5.028  10.641   6.899  0.0198  0.5712  0.1386
  124MOL0     C16625   5.052  10.773   6.827  0.3717  0.0066  0.3502
  124MOL0     C16626   5.192  10.846   6.828  0.3683  0.2891  0.4337
  124MOL0     C16627   5.247  10.853   6.971  0.9136 -0.3587 -0.0759
  124MOL0     C16628   5.161  10.930   7.074 -0.0385  0.4591  0.0523
  124MOL0     O16629   5.105  11.055   7.024  0.5643  0.5805  0.0018
  124MOL0     C16630   5.158  11.168   7.081  0.0958 -0.5412  0.8108
  124MOL0     C16631   5.282  11.168   7.155  0.7509 -0.8366  0.4103
  124MOL0     C16632   5.337  11.300   7.198  0.3992  0.3814 -0.3725
  124MOL0     C16633   5.265  11.416   7.168  0.1760 -0.8982 -0.1764
  124MOL0     C16634   5.321  11.539   7.226 -0.0941  0.3515  0.1878
  124MOL0     O16635   5.430  11.535   7.312 -0.6087 -0.3862 -0.5512
  124MOL0     C16636   5.504  11.641   7.358  0.5185  0.4495  0.5988
  124MOL0     C16637   5.513  11.766   7.293 -0.4589 -0.9525 -0.6506
  124MOL0     C16638   5.582  11.876   7.351  0.6477  0.0953  0.2878
  124MOL0     C16639   5.651  11.855   7.468  0.0180 -0.5582 -0.1348
  124MOL0     O16640   5.725  11.950   7.534 -0.1956 -0.3624  0.2021
  124MOL0     C16641   5.677  12.086   7.514 -0.6049  0.6898 -0.3599
  124MOL0     C16642   5.731  12.169   7.633 -0.1985  1.5348  0.6181
  124MOL0     C16643   5.677  12.117   7.766 -0.3891  0.2493  0.6541
  124MOL0     C16644   5.777  12.024   7.852 -0.3852 -0.1065 -0.5578
  124MOL0     C16645   5.716  11.974   7.982 -0.0849  0.7010  0.0823
  124MOL0     C16646   5.783  11.857   8.031 -0.8445 -0.4490  0.1542
  124MOL0     C16647   5.706  11.811   8.153  0.3633  0.6555 -0.9633
  124MOL0     C16648   5.767  11.689   8.226  0.7216 -0.7623 -0.1343
  124MOL0    Cl16649   5.853  11.603   8.105 -0.0194 -0.6587 -0.5534
  124MOL0     C16650   5.641  11.733   7.529  0.2581  0.3470 -1.4055
  124MOL0     C16651   5.574  11.629   7.471  0.4309  0.4142 -0.6338
  124MOL0     O16652   5.263  11.638   7.192 -0.7532 -0.5178 -0.1532
  124MOL0     C16653   5.139  11.411   7.107 -0.9986  0.5914  0.4659
  124MOL0     C16654   5.087  11.293   7.053  0.6130  0.1487 -0.2648
  124MOL0     N16655   5.109  10.529   6.913 -0.2074  0.2613  0.3110
  124MOL0     N16656   5.048  10.432   6.967  0.7463 -0.2145 -0.3440
  124MOL0     C16657   4.275  10.694   6.381 -1.1377 -0.0632 -0.3596
  124MOL0     C16658   4.287  10.798   6.300 -0.6962 -0.4284  0.3052
  124MOL0     C16659   4.347  11.109   6.000  0.8429 -0.4419  0.9520
  124MOL0     C16660   4.388  11.068   5.870  0.6919  0.3197  0.9220
  124MOL0     C16661   4.458  11.161   5.786 -0.0819 -0.8709 -1.1441
  124MOL0     C16662   4.492  11.293   5.832 -0.7181 -0.8928 -0.5567
  124MOL0     O16663   4.570  11.378   5.753 -0.6465  0.3491 -0.7778
  124MOL0     C16664   4.704  11.411   5.803  0.2797  0.3887 -0.4263
  124MOL0     C16665   4.801  11.423   5.676 -0.0634  0.5282  0.2470
  124MOL0     C16666   4.786  11.553   5.604 -0.3392 -1.3149 -0.9682
  124MOL0     C16667   4.903  11.650   5.641  0.0653 -0.1059  0.5920
  124MOL0     C16668   4.941  11.739   5.533  0.7027  0.3100 -0.2812
  124MOL0     C16669   4.987  11.793   5.442 -0.5126  0.7589  0.1401
  124MOL0     C16670   4.430  11.333   5.948 -0.4117  0.1439  0.9488
  124MOL0     C16671   4.351  11.246   6.036 -0.4465  1.0520  0.6546
  124MOL0     C16672   4.275  11.311   6.149 -0.9418  1.0303  0.0830
  124MOL0     H16673   4.263  10.620   6.006 -2.5720 -0.7353 -0.2148
  124MOL0     H16674   4.211  10.443   6.163  1.2097 -1.8606  2.4159
  124MOL0     H16675   4.390  10.492   6.542 -1.6683  3.4369  2.5300
  124MOL0     H16676   4.230  10.514   6.623  1.6735 -1.2640  2.0779
  124MOL0     H16677   4.328  10.243   6.526 -1.6443 -1.0869 -0.5927
  124MOL0     H16678   4.170  10.276   6.559  2.7710 -2.9192 -0.3549
  124MOL0     H16679   4.266  10.184   6.771  1.5817 -1.1598 -0.3780
  124MOL0     H16680   4.227  10.363   6.785 -0.3589  2.8927 -2.6255
  124MOL0     H16681   4.505  10.249   6.703 -1.0850  1.6458 -3.3468
  124MOL0     H16682   4.469  10.413   6.751  0.5535  0.0596  0.6587
  124MOL0     H16683   4.369  10.284   6.971  1.3780 -1.1645  3.5683
  124MOL0     H16684   4.491  10.161   6.917 -0.3115  0.3407 -0.6770
  124MOL0     H16685   4.548  10.408   7.044 -0.4423  0.2891 -0.7991
  124MOL0     H16686   4.610  10.255   7.078  2.6333  1.7855  0.7597
  124MOL0     H16687   4.677  10.453   6.864  0.2756  1.5405  1.3676
  124MOL0     H16688   4.738  10.290   6.851  0.5203 -0.2303  0.9499
  124MOL0     H16689   4.773  10.463   7.102  0.7251  1.4262 -0.0797
  124MOL0     H16690   4.839  10.302   7.057  0.3340  0.1746  0.3578
  124MOL0     H16691   4.815  10.667   6.888  1.8321  4.8160 -1.1249
  124MOL0     H16692   5.027  10.751   6.723 -1.4242  4.5435 -0.3869
  124MOL0     H16693   4.976  10.836   6.873  1.4996  0.4432  1.7166
  124MOL0     H16694   5.251  10.782   6.762 -0.1591  0.7393 -0.4939
  124MOL0     H16695   5.190  10.947   6.785  0.5778  0.5271  0.9671
  124MOL0     H16696   5.352  10.883   6.966  1.4305 -1.7116  1.5165
  124MOL0     H16697   5.257  10.750   7.007  0.8321 -0.1434  0.5685
  124MOL0     H16698   5.212  10.932   7.171 -0.5949  0.9103  0.3401
  124MOL0     H16699   5.075  10.863   7.078 -0.3747  0.3536 -4.1570
  124MOL0     H16700   5.335  11.074   7.165  0.4130 -0.9913  0.7748
  124MOL0     H16701   5.434  11.288   7.244  0.4540  0.1765 -0.5402
  124MOL0     H16702   5.458  11.777   7.200 -2.2714 -1.3034  0.3413
  124MOL0     H16703   5.574  11.976   7.310 -0.9766 -1.1975 -2.8789
  124MOL0     H16704   5.727  12.121   7.424  2.9288  0.5627  1.3729
  124MOL0     H16705   5.568  12.097   7.512 -0.5426  1.2389 -1.0082
  124MOL0     H16706   5.839  12.160   7.642 -0.1998 -2.3935 -1.3539
  124MOL0     H16707   5.723  12.276   7.613  2.1881  1.8533  1.0478
  124MOL0     H16708   5.639  12.198   7.829 -1.7352 -0.2938  0.5689
  124MOL0     H16709   5.579  12.071   7.753  0.3088 -1.5376  1.3762
  124MOL0     H16710   5.871  12.076   7.872 -1.7513  1.3950  2.4179
  124MOL0     H16711   5.813  11.941   7.789 -1.0516 -1.6584  1.0323
  124MOL0     H16712   5.615  11.941   7.954 -0.2454 -1.0255  2.3674
  124MOL0     H16713   5.695  12.055   8.053 -3.0093 -0.5377  0.8017
  124MOL0     H16714   5.782  11.777   7.956 -2.0110  0.4972 -0.8945
  124MOL0     H16715   5.889  11.881   8.045 -1.5746  2.0093  2.1927
  124MOL0     H16716   5.610  11.772   8.117  0.6704  0.8534 -2.0409
  124MOL0     H16717   5.688  11.901   8.212 -0.5011  1.5000 -2.4512
  124MOL0     H16718   5.834  11.720   8.307 -0.8580  2.2825  0.1791
  124MOL0     H16719   5.689  11.625   8.268 -0.1443  0.2443 -0.1514
  124MOL0     H16720   5.689  11.739   7.626 -0.0214  0.8964 -1.2943
  124MOL0     H16721   5.574  11.543   7.538  0.3427 -0.6973 -2.0055
  124MOL0     H16722   5.081  11.499   7.081 -0.7492  0.9230  1.0318
  124MOL0     H16723   4.990  11.291   7.005  0.2417  1.2218  0.3908
  124MOL0     H16724   4.275  10.727   6.484  0.3715  1.8555 -0.9106
  124MOL0     H16725   4.295  10.896   6.344 -0.1405 -0.1555 -0.3830
  124MOL0     H16726   4.373  10.968   5.829 -0.1237  0.9850 -0.4708
  124MOL0     H16727   4.478  11.130   5.684 -0.1757  1.7968 -2.0653
  124MOL0     H16728   4.730  11.326   5.868 -0.5860  0.0001 -0.5798
  124MOL0     H16729   4.702  11.505   5.858 -0.0269 -0.4018  0.9746
  124MOL0     H16730   4.759  11.341   5.617  0.5903 -0.5533  1.2458
  124MOL0     H16731   4.904  11.392   5.698 -0.2757  0.3356  0.9921
  124MOL0     H16732   4.692  11.603   5.626  1.9902  3.1419  0.1358
  124MOL0     H16733   4.800  11.537   5.496  3.0973 -0.4836 -0.7873
  124MOL0     H16734   4.865  11.716   5.719 -2.3275  3.0047 -2.8682
  124MOL0     H16735   4.986  11.587   5.676 -1.6165 -2.7455  0.1200
  124MOL0     H16736   5.021  11.834   5.350 -2.0389  1.1047 -0.2988
  124MOL0     H16737   4.413  11.438   5.970  1.0991  0.3894  1.0785
  124MOL0     H16738   4.287  11.262   6.246  0.0966  2.9154  0.9768
  124MOL0     H16739   4.313  11.413   6.160  1.8765 -0.1266  2.5179
  124MOL0     H16740   4.171  11.320   6.117 -2.2045 -0.1060  3.3728
  125MOL0     O16741   7.700   7.453   3.582  0.1753  0.2394  0.4580
  125MOL0     C16742   7.680   7.517   3.685  0.1598 -0.6954  0.7709
  125MOL0     O16743   7.706   7.649   3.706 -0.3724 -0.1318 -0.1118
  125MOL0     C16744   7.787   7.714   3.608 -0.0860  0.0056  0.1958
  125MOL0     C16745   7.915   7.767   3.634 -0.3698 -0.3960 -0.1656
  125MOL0     C16746   7.974   7.854   3.547 -0.7506  0.1689  0.2743
  125MOL0     C16747   7.919   7.883   3.423  0.6357  1.0854 -0.3525
  125MOL0     O16748   7.997   7.962   3.340  0.3517  0.8028  0.7847
  125MOL0     C16749   7.950   8.018   3.211  0.8373 -0.1336  0.8313
  125MOL0     C16750   8.057   8.090   3.143 -0.6683 -0.0494 -0.1695
  125MOL0     C16751   8.014   8.145   3.004 -0.1346  1.0460  0.4659
  125MOL0     C16752   7.984   8.042   2.897  0.0628  0.1405  0.6319
  125MOL0     C16753   8.000   8.102   2.753 -1.0053  0.0352  0.7400
  125MOL0     C16754   8.047   7.985   2.662 -0.3827 -0.6206 -0.5776
  125MOL0     C16755   8.065   8.038   2.518 -0.1124 -0.3153 -0.0711
  125MOL0     C16756   8.136   7.933   2.430 -0.3713 -0.5702  0.5651
  125MOL0     N16757   8.275   7.926   2.473 -0.1346  0.5696  0.0858
  125MOL0     C16758   8.379   8.015   2.429  0.1822 -0.1847 -0.3182
  125MOL0     C16759   8.494   7.963   2.475  0.0058 -0.0261 -0.4783
  125MOL0     C16760   8.624   8.023   2.444  0.6030 -0.8682 -0.2806
  125MOL0     C16761   8.667   8.016   2.304 -0.1735  0.6500  0.4070
  125MOL0     C16762   8.728   7.873   2.284 -0.2269  0.6015  0.0095
  125MOL0     C16763   8.809   7.859   2.143 -0.0813 -0.0070 -0.2980
  125MOL0     O16764   8.932   7.935   2.146  0.2445  0.1110  1.1833
  125MOL0     C16765   9.042   7.900   2.223  0.0926 -0.4640 -0.1409
  125MOL0     C16766   9.148   7.986   2.208  0.8247 -0.2783  0.0668
  125MOL0     C16767   9.272   7.956   2.268  0.2832  0.4854 -1.1710
  125MOL0     C16768   9.284   7.848   2.351 -0.4970  0.3341  0.6667
  125MOL0     C16769   9.413   7.807   2.426  0.0451 -0.2581  0.3895
  125MOL0     O16770   9.496   7.916   2.450 -0.5119 -0.1583 -0.5592
  125MOL0     C16771   9.620   7.889   2.505 -0.7211  0.6748  0.0659
  125MOL0     C16772   9.629   7.825   2.625  0.3461  0.0311  0.1113
  125MOL0     C16773   9.754   7.797   2.674 -0.3034 -0.6031  0.4023
  125MOL0     C16774   9.873   7.833   2.604  0.3955  0.3032 -1.3018
  125MOL0     O16775  10.004   7.805   2.636  0.6421  0.6731 -0.0747
  125MOL0     C16776  10.041   7.674   2.709 -0.1834  0.1317  0.8512
  125MOL0     C16777  10.188   7.634   2.694  0.1577  0.6784 -0.6884
  125MOL0     C16778  10.214   7.602   2.544  0.2541 -0.4444 -0.1434
  125MOL0     C16779  10.361   7.545   2.536  0.9198 -0.4637  0.3648
  125MOL0     C16780  10.359   7.401   2.494  0.0629 -0.7752  0.3050
  125MOL0     C16781  10.494   7.355   2.460  0.5874 -0.1879  0.5160
  125MOL0     C16782  10.481   7.206   2.427 -0.7687  0.3847  0.0784
  125MOL0     C16783  10.613   7.143   2.460 -0.7217 -0.8560  0.1165
  125MOL0    Cl16784  10.749   7.216   2.365 -0.1833  0.7035 -0.4613
  125MOL0     C16785   9.855   7.915   2.492  0.2313 -0.7692  0.5753
  125MOL0     C16786   9.730   7.948   2.447 -0.5003  0.8224  0.4056
  125MOL0     O16787   9.433   7.692   2.460 -1.1720 -0.0960  0.6453
  125MOL0     C16788   9.168   7.778   2.371 -0.4437  0.0476  0.0100
  125MOL0     C16789   9.048   7.791   2.307 -0.6390  0.3707 -0.5362
  125MOL0     N16790   8.468   7.843   2.548  0.4572 -0.4536  0.9998
  125MOL0     N16791   8.342   7.819   2.534  0.5393 -0.1555  0.4342
  125MOL0     C16792   7.796   7.817   3.387 -0.0947 -0.8028  0.2796
  125MOL0     C16793   7.730   7.739   3.484 -0.3403 -0.2138  0.2896
  125MOL0     C16794   7.613   7.440   3.789  0.7620 -0.5390 -0.5517
  125MOL0     C16795   7.543   7.507   3.888 -0.1965 -0.5115 -0.2310
  125MOL0     C16796   7.468   7.446   3.991  0.4439 -0.1679  1.1198
  125MOL0     C16797   7.451   7.311   3.992  0.0388 -0.1369  0.9463
  125MOL0     O16798   7.360   7.265   4.078  0.7329  0.7810 -0.4684
  125MOL0     C16799   7.327   7.134   4.089 -0.9032 -0.3641  0.8375
  125MOL0     C16800   7.217   7.123   4.191  0.4006  1.3154  0.6255
  125MOL0     C16801   7.176   6.975   4.217  0.9287  1.1064 -0.0166
  125MOL0     C16802   7.085   6.924   4.113 -0.4470 -0.5641  0.1697
  125MOL0     C16803   7.066   6.783   4.115  0.3474  0.1043  0.2391
  125MOL0     C16804   7.055   6.657   4.114  0.0234 -0.1647  0.5466
  125MOL0     C16805   7.527   7.235   3.896 -0.1803 -0.0208  0.2818
  125MOL0     C16806   7.608   7.292   3.803 -1.1203 -0.6047 -1.2940
  125MOL0     C16807   7.688   7.193   3.705 -0.0922  0.2525  0.2300
  125MOL0     H16808   7.960   7.735   3.728 -0.6933  1.8694  0.8347
  125MOL0     H16809   8.073   7.889   3.573 -0.4170 -0.1425 -0.5458
  125MOL0     H16810   7.924   7.935   3.145 -1.8508  0.6623  0.7764
  125MOL0     H16811   7.865   8.085   3.226  1.3464 -0.0403  3.7847
  125MOL0     H16812   8.148   8.030   3.138 -0.0528  0.2310  4.0706
  125MOL0     H16813   8.085   8.170   3.212  3.5835 -0.6014 -1.0314
  125MOL0     H16814   8.104   8.198   2.974  0.9286 -0.8681  0.0655
  125MOL0     H16815   7.931   8.214   3.020 -1.3817 -0.2727 -0.0670
  125MOL0     H16816   8.057   7.961   2.908  2.5253  2.3235  1.6651
  125MOL0     H16817   7.879   8.017   2.907 -0.7384 -0.6964 -5.5837
  125MOL0     H16818   7.910   8.151   2.712 -0.1761  1.6491  0.7635
  125MOL0     H16819   8.076   8.181   2.755  2.7566 -3.2626 -0.1832
  125MOL0     H16820   8.134   7.939   2.711  1.7282  4.0479  0.6015
  125MOL0     H16821   7.971   7.907   2.662  2.5629 -3.7630  0.6637
  125MOL0     H16822   8.115   8.135   2.509 -0.5830  0.1499  1.7666
  125MOL0     H16823   7.970   8.061   2.469 -0.6824 -2.6073 -0.1643
  125MOL0     H16824   8.076   7.841   2.429 -2.0043  0.4621  0.5012
  125MOL0     H16825   8.149   7.963   2.326  0.7160 -1.1380  0.5185
  125MOL0     H16826   8.358   8.113   2.387  1.7150  0.6145  0.6694
  125MOL0     H16827   8.610   8.129   2.467  2.8535 -0.2342 -1.4979
  125MOL0     H16828   8.703   7.994   2.514 -1.1799 -1.4894  1.5673
  125MOL0     H16829   8.586   8.043   2.236 -0.3281  3.2920  1.5304
  125MOL0     H16830   8.742   8.092   2.281  1.4928 -0.3672  2.1648
  125MOL0     H16831   8.648   7.799   2.296 -1.0211  1.1905 -1.3558
  125MOL0     H16832   8.791   7.864   2.373 -4.4550  0.5953  3.3409
  125MOL0     H16833   8.764   7.898   2.050  0.3812  1.5593  0.1075
  125MOL0     H16834   8.821   7.752   2.121 -0.2359 -0.4631  1.7202
  125MOL0     H16835   9.146   8.071   2.141  1.2665 -0.4614 -0.1847
  125MOL0     H16836   9.362   8.014   2.250  2.6247 -1.5210  2.8533
  125MOL0     H16837   9.540   7.791   2.676  1.9015 -3.4421  0.7896
  125MOL0     H16838   9.769   7.751   2.772  1.5840  1.4611  1.1666
  125MOL0     H16839  10.022   7.678   2.817  0.0704 -0.2927  0.9162
  125MOL0     H16840   9.983   7.590   2.670  1.5429 -0.8503  0.2984
  125MOL0     H16841  10.260   7.702   2.739  1.4721 -1.3993  0.5033
  125MOL0     H16842  10.199   7.544   2.755 -1.4916  1.6865  1.2080
  125MOL0     H16843  10.138   7.533   2.508 -0.3257 -0.2190  0.6269
  125MOL0     H16844  10.209   7.700   2.494  0.9212  0.7635  2.0049
  125MOL0     H16845  10.413   7.550   2.632  0.9215  2.1002  0.2896
  125MOL0     H16846  10.403   7.620   2.468 -3.9965  0.0252 -2.6184
  125MOL0     H16847  10.298   7.385   2.405 -0.0104 -0.1007  0.2252
  125MOL0     H16848  10.324   7.338   2.576 -3.3977  0.7138  0.1701
  125MOL0     H16849  10.533   7.411   2.374 -2.1530 -1.0681 -1.4240
  125MOL0     H16850  10.558   7.359   2.548  1.4185  0.5638 -0.1048
  125MOL0     H16851  10.463   7.191   2.320  2.3056  2.7934 -0.9048
  125MOL0     H16852  10.409   7.149   2.486  0.3424  1.5254  2.6870
  125MOL0     H16853  10.640   7.147   2.566  1.2906 -1.2986 -0.3506
  125MOL0     H16854  10.603   7.036   2.440 -0.4168 -1.6474  3.5145
  125MOL0     H16855   9.946   7.963   2.456 -0.6527 -0.0651 -0.8175
  125MOL0     H16856   9.718   8.021   2.367 -1.2192 -0.0875 -0.3358
  125MOL0     H16857   9.164   7.692   2.438 -0.5778 -1.5640 -1.9721
  125MOL0     H16858   8.964   7.725   2.327 -0.7198  1.2275  2.2905
  125MOL0     H16859   7.760   7.820   3.284 -1.0478  0.6831  0.6270
  125MOL0     H16860   7.640   7.683   3.461  1.6535 -2.7908 -1.9570
  125MOL0     H16861   7.561   7.614   3.878  0.1707 -0.4923  0.5618
  125MOL0     H16862   7.417   7.500   4.070 -0.9108 -0.8896  0.7719
  125MOL0     H16863   7.418   7.086   4.125 -1.8034 -3.4570 -0.6688
  125MOL0     H16864   7.296   7.100   3.989 -1.9730  0.2923  0.9371
  125MOL0     H16865   7.133   7.189   4.167  0.5782  1.9168  1.6216
  125MOL0     H16866   7.262   7.160   4.284  0.8422 -0.2017  1.0360
  125MOL0     H16867   7.118   6.965   4.310 -0.1377 -4.2607 -0.8943
  125MOL0     H16868   7.266   6.913   4.207  0.0772 -0.4365  1.3882
  125MOL0     H16869   6.997   6.988   4.125  2.0543  3.7634 -2.1694
  125MOL0     H16870   7.127   6.948   4.015  0.6793  0.9482  0.9818
  125MOL0     H16871   7.037   6.552   4.124 -2.3583 -0.2420 -2.7192
  125MOL0     H16872   7.521   7.127   3.903 -0.6462  0.0642  1.4389
  125MOL0     H16873   7.613   7.160   3.633  2.3903  0.4437 -2.6500
  125MOL0     H16874   7.769   7.240   3.648 -0.0821 -0.8362 -0.6635
  125MOL0     H16875   7.733   7.112   3.763 -2.4295 -0.8195  0.6536
  126MOL0     O16876   6.980  11.028   3.406  1.0827  0.8309 -0.3182
  126MOL0     C16877   6.951  11.068   3.298  0.2270  1.0817 -0.2241
  126MOL0     O16878   7.029  11.085   3.190  0.0567  0.0003  0.6034
  126MOL0     C16879   7.161  11.048   3.178  0.1309 -0.5254 -1.0777
  126MOL0     C16880   7.200  10.978   3.071  0.1565  0.4037  0.6441
  126MOL0     C16881   7.338  10.953   3.048  0.7728 -0.2283 -0.1313
  126MOL0     C16882   7.440  11.011   3.133 -0.6845  0.3186  0.3972
  126MOL0     O16883   7.566  10.963   3.094 -0.3450 -0.2666 -1.4325
  126MOL0     C16884   7.679  10.986   3.191  0.6694  0.5443  0.5392
  126MOL0     C16885   7.674  10.905   3.319 -0.4201  0.3476 -0.8610
  126MOL0     C16886   7.770  10.987   3.418 -0.2994 -1.1287  0.0892
  126MOL0     C16887   7.772  10.934   3.560 -0.7293 -0.0059  0.7941
  126MOL0     C16888   7.885  10.993   3.639 -0.4337 -0.1221  0.2736
  126MOL0     C16889   7.877  10.981   3.796  0.9112 -0.0554 -0.7728
  126MOL0     C16890   7.858  10.844   3.839 -0.8329  0.6001 -0.5925
  126MOL0     C16891   7.834  10.817   3.992 -0.5628  0.0879 -0.3717
  126MOL0     N16892   7.788  10.680   4.028  0.3571  0.3321  0.1511
  126MOL0     C16893   7.715  10.645   4.136 -0.2268 -0.3275  0.8642
  126MOL0     C16894   7.712  10.504   4.137  0.2487  0.2990 -0.1546
  126MOL0     C16895   7.641  10.407   4.234  0.5281  0.4713 -0.6001
  126MOL0     C16896   7.728  10.274   4.250 -0.3640 -0.0852 -0.1899
  126MOL0     C16897   7.644  10.166   4.319  0.4746 -0.0587  0.4712
  126MOL0     C16898   7.656  10.023   4.259  0.1734 -1.1218  0.1362
  126MOL0     O16899   7.607  10.021   4.125  0.2704  0.1742  1.2450
  126MOL0     C16900   7.495   9.964   4.080  1.2090  0.2774 -0.3636
  126MOL0     C16901   7.374   9.962   4.149  0.0701  0.8318 -0.9859
  126MOL0     C16902   7.259   9.909   4.097  1.3368  0.8784 -0.7465
  126MOL0     C16903   7.271   9.832   3.972 -0.4881 -0.6850 -0.5839
  126MOL0     C16904   7.155   9.758   3.909 -0.3821  0.9021 -0.4965
  126MOL0     O16905   7.163   9.758   3.776 -0.5240 -0.3519  0.1489
  126MOL0     C16906   7.099   9.648   3.718  0.2698 -0.2576 -0.6942
  126MOL0     C16907   6.996   9.663   3.627  0.1567 -0.3929 -0.6452
  126MOL0     C16908   6.943   9.548   3.568  0.4170  0.0943  0.5897
  126MOL0     C16909   6.972   9.419   3.611  0.1961  0.4403  0.1212
  126MOL0     O16910   6.887   9.319   3.549 -1.4886  0.1885 -0.2470
  126MOL0     C16911   6.916   9.184   3.577 -0.3208  0.1832  0.6553
  126MOL0     C16912   6.792   9.089   3.560 -0.4716 -0.6271  0.3099
  126MOL0     C16913   6.818   8.941   3.616 -0.0210 -0.3743  0.7169
  126MOL0     C16914   6.902   8.870   3.509 -0.3311 -0.0012 -0.4106
  126MOL0     C16915   6.907   8.720   3.553 -0.3305  0.3709 -0.0352
  126MOL0     C16916   6.988   8.641   3.454 -0.0706 -0.4885  0.0346
  126MOL0     C16917   6.980   8.486   3.469  0.7089 -0.1052  0.5123
  126MOL0     C16918   7.109   8.437   3.548  0.8421 -0.2960 -0.1009
  126MOL0    Cl16919   7.105   8.264   3.590  0.1832 -0.0384 -0.2570
  126MOL0     C16920   7.074   9.405   3.703  0.1160  0.3244 -1.4269
  126MOL0     C16921   7.141   9.518   3.753 -0.3161  0.3221  0.8042
  126MOL0     O16922   7.079   9.695   3.985 -0.2251  0.0892 -0.1393
  126MOL0     C16923   7.394   9.840   3.905  0.5622  0.1004  0.8378
  126MOL0     C16924   7.500   9.912   3.948 -0.3417 -0.0489 -0.4519
  126MOL0     N16925   7.767  10.464   4.010  0.1950 -1.1465 -0.4468
  126MOL0     N16926   7.813  10.570   3.953 -0.8724 -0.3645 -1.1081
  126MOL0     C16927   7.398  11.083   3.252 -0.4224 -0.2211  0.6728
  126MOL0     C16928   7.256  11.100   3.276  0.5650  1.0914  0.0996
  126MOL0     C16929   6.812  11.104   3.288 -0.0729 -0.9659 -0.1333
  126MOL0     C16930   6.761  11.201   3.386 -0.4855  0.6883  0.7975
  126MOL0     C16931   6.632  11.254   3.358  0.1872  0.8529 -0.4002
  126MOL0     C16932   6.554  11.225   3.246  0.4245 -0.7017  0.1692
  126MOL0     O16933   6.431  11.295   3.233  0.5482  0.2991  0.8712
  126MOL0     C16934   6.316  11.219   3.255 -0.5380  0.4419 -0.5103
  126MOL0     C16935   6.261  11.154   3.134 -0.4476  1.0845  0.1860
  126MOL0     C16936   6.114  11.179   3.116  0.5803  0.7319  0.6801
  126MOL0     C16937   6.062  11.150   2.983 -0.4106  0.2217  0.8540
  126MOL0     C16938   5.919  11.183   2.984 -0.7462  0.5760  0.7396
  126MOL0     C16939   5.799  11.206   2.973 -0.5060  0.9289 -0.0084
  126MOL0     C16940   6.609  11.140   3.149 -0.2028 -0.4079 -1.0687
  126MOL0     C16941   6.740  11.084   3.167  0.6174 -0.2727 -0.6083
  126MOL0     C16942   6.786  11.012   3.040  0.4339 -0.0582 -0.1935
  126MOL0     H16943   7.134  10.939   2.994  0.3356  1.6992 -0.2071
  126MOL0     H16944   7.372  10.903   2.958  0.7452 -0.9983  0.2810
  126MOL0     H16945   7.772  10.950   3.147 -0.2889 -0.7078 -0.5517
  126MOL0     H16946   7.699  11.093   3.200  2.5383  0.2478  0.2736
  126MOL0     H16947   7.693  10.797   3.314  2.1624  0.4964  2.4596
  126MOL0     H16948   7.579  10.927   3.369  0.1958  0.8986  0.0933
  126MOL0     H16949   7.734  11.090   3.413 -0.0730 -1.0931 -2.6923
  126MOL0     H16950   7.870  10.991   3.374  0.5183 -2.2657  1.7444
  126MOL0     H16951   7.672  10.948   3.603 -1.6417  0.1775 -1.2452
  126MOL0     H16952   7.805  10.830   3.556  0.3073  0.3587 -1.0861
  126MOL0     H16953   7.984  10.961   3.605  1.1272  3.2530  1.2180
  126MOL0     H16954   7.880  11.099   3.614 -1.6503  0.2265  1.8379
  126MOL0     H16955   7.973  11.012   3.839 -0.1072 -2.0267  3.4669
  126MOL0     H16956   7.795  11.042   3.835  2.3785  2.5598 -1.5327
  126MOL0     H16957   7.944  10.793   3.795 -3.3106 -3.0097 -1.7526
  126MOL0     H16958   7.772  10.804   3.783  0.2530 -0.4082 -1.5977
  126MOL0     H16959   7.924  10.848   4.047 -0.0440 -0.4975 -0.8825
  126MOL0     H16960   7.754  10.882   4.029  0.7453  2.1781 -1.0236
  126MOL0     H16961   7.665  10.702   4.214  0.9060  2.2731 -0.2365
  126MOL0     H16962   7.617  10.457   4.328  1.2961  2.1353 -1.2538
  126MOL0     H16963   7.545  10.376   4.193 -0.8951  0.3561  2.5156
  126MOL0     H16964   7.750  10.227   4.154  1.3843 -1.0421  0.6390
  126MOL0     H16965   7.826  10.277   4.299 -0.1409  1.0090 -0.6785
  126MOL0     H16966   7.539  10.193   4.305  0.3444 -0.7197  0.1695
  126MOL0     H16967   7.658  10.168   4.428 -0.7354 -1.7195  0.6778
  126MOL0     H16968   7.587   9.958   4.315 -0.3955  1.3947  2.5876
  126MOL0     H16969   7.756   9.982   4.268  0.4923 -0.8830 -1.8799
  126MOL0     H16970   7.372   9.989   4.254 -0.8806 -1.8145 -0.2287
  126MOL0     H16971   7.171   9.906   4.160  2.7379 -4.4355  1.5200
  126MOL0     H16972   6.960   9.761   3.597  0.6855  0.2297  0.6771
  126MOL0     H16973   6.861   9.567   3.500 -0.7593 -0.9253  1.6652
  126MOL0     H16974   6.993   9.149   3.508  1.8885 -0.5145  3.2942
  126MOL0     H16975   6.944   9.178   3.683 -3.9288 -0.2016  1.7159
  126MOL0     H16976   6.710   9.132   3.618 -0.5582 -2.7883  1.8927
  126MOL0     H16977   6.762   9.073   3.456  1.6246 -0.5367 -0.3639
  126MOL0     H16978   6.854   8.943   3.719 -1.1006  2.6266  1.1335
  126MOL0     H16979   6.718   8.898   3.629 -0.7373  1.5727  1.9744
  126MOL0     H16980   7.006   8.902   3.506  0.4902 -1.7489  3.6957
  126MOL0     H16981   6.866   8.876   3.405  2.6391  3.1704 -1.4181
  126MOL0     H16982   6.806   8.679   3.553 -0.9990  1.9188 -0.5008
  126MOL0     H16983   6.945   8.706   3.654 -2.6526  1.6961  1.0951
  126MOL0     H16984   6.941   8.655   3.356 -1.4945 -0.7323  0.6636
  126MOL0     H16985   7.088   8.684   3.449 -0.0744 -0.1727  2.1534
  126MOL0     H16986   6.978   8.444   3.368 -1.0249 -0.1524  0.5350
  126MOL0     H16987   6.891   8.451   3.522  0.6185 -2.4194 -1.0659
  126MOL0     H16988   7.201   8.460   3.494 -1.5859  1.9592 -3.7478
  126MOL0     H16989   7.111   8.505   3.634 -3.7063 -1.0207  0.8281
  126MOL0     H16990   7.109   9.308   3.735 -0.6014  0.5740  0.2423
  126MOL0     H16991   7.239   9.496   3.794 -0.9309 -4.0799  0.4533
  126MOL0     H16992   7.398   9.788   3.809  0.8494  1.0144  0.3400
  126MOL0     H16993   7.590   9.927   3.891  0.8860  0.3310  1.4834
  126MOL0     H16994   7.475  11.101   3.326 -1.0059  0.7399  1.0725
  126MOL0     H16995   7.215  11.156   3.359  1.1852  1.0366  0.4513
  126MOL0     H16996   6.831  11.225   3.465  1.7141 -1.0075 -0.5323
  126MOL0     H16997   6.593  11.312   3.441  1.9666 -0.1637  1.2397
  126MOL0     H16998   6.241  11.284   3.302 -0.1772  0.3125  0.2713
  126MOL0     H16999   6.339  11.145   3.332 -1.6383 -0.9066 -1.4187
  126MOL0     H17000   6.288  11.048   3.136  0.7662  1.3681  2.6742
  126MOL0     H17001   6.313  11.187   3.043 -1.1154  2.3322  0.2460
  126MOL0     H17002   6.081  11.281   3.136 -3.6542 -0.0233 -1.3126
  126MOL0     H17003   6.064  11.126   3.197 -0.1925  0.3004 -0.0686
  126MOL0     H17004   6.124  11.204   2.912 -1.9536  0.7382 -0.1556
  126MOL0     H17005   6.072  11.046   2.950 -1.2281  0.8465 -1.6380
  126MOL0     H17006   5.697  11.231   2.953 -1.1919 -1.3622  0.3047
  126MOL0     H17007   6.569  11.118   3.051  0.6684 -1.4970 -1.1967
  126MOL0     H17008   6.836  11.083   2.974 -1.9274 -0.1757 -2.2870
  126MOL0     H17009   6.860  10.938   3.071  2.4744  1.7895 -0.4391
  126MOL0     H17010   6.707  10.968   2.978  0.1503 -0.9121  0.7424
  127MOL0     O17011   6.437  10.773   1.626 -0.3525 -0.2249  0.5258
  127MOL0     C17012   6.458  10.651   1.613  0.0627 -0.1857  0.7225
  127MOL0     O17013   6.571  10.576   1.643  0.4282 -0.0676 -0.5891
  127MOL0     C17014   6.688  10.637   1.667 -0.0781 -0.0253 -0.0213
  127MOL0     C17015   6.730  10.742   1.592 -0.6692 -0.1282  0.2698
  127MOL0     C17016   6.845  10.814   1.627 -1.2115 -0.4186 -1.1466
  127MOL0     C17017   6.922  10.774   1.735 -0.2160  0.4313 -0.9880
  127MOL0     O17018   7.036  10.835   1.788  0.1748 -0.6521  0.6004
  127MOL0     C17019   7.115  10.914   1.696  0.2653  0.1407  0.5461
  127MOL0     C17020   7.169  10.825   1.591 -0.5990  0.4394 -0.3578
  127MOL0     C17021   7.286  10.890   1.504  0.0929 -0.2017 -0.6659
  127MOL0     C17022   7.244  10.919   1.359 -0.4054 -0.9025  0.1170
  127MOL0     C17023   7.360  10.980   1.273  0.2651 -0.6416  0.2718
  127MOL0     C17024   7.326  11.017   1.129 -1.0343  0.3257  0.8925
  127MOL0     C17025   7.459  11.031   1.048  0.3685 -0.1416  0.1360
  127MOL0     C17026   7.547  11.157   1.088  0.1651  0.4188  0.3673
  127MOL0     N17027   7.661  11.181   1.002 -0.1735  0.3982  0.2479
  127MOL0     C17028   7.664  11.292   0.935 -0.6456 -0.2015  0.4352
  127MOL0     C17029   7.755  11.269   0.838 -0.6210  0.0517 -1.0008
  127MOL0     C17030   7.807  11.370   0.728 -1.0572  0.3036 -0.0230
  127MOL0     C17031   7.961  11.348   0.715  0.2570 -0.2086 -0.3714
  127MOL0     C17032   8.043  11.453   0.643  1.0835  0.1755 -0.3746
  127MOL0     C17033   7.985  11.494   0.511 -0.1675 -0.1107  0.3786
  127MOL0     O17034   8.073  11.584   0.437 -0.3412 -0.1924 -0.4411
  127MOL0     C17035   8.033  11.632   0.310  0.2584  0.0250 -1.7806
  127MOL0     C17036   7.901  11.613   0.264  0.0780 -0.8885 -0.4401
  127MOL0     C17037   7.855  11.669   0.141 -0.1456  0.5609  0.0746
  127MOL0     C17038   7.951  11.732   0.063  0.1954  1.1130  0.7968
  127MOL0     C17039   7.910  11.760  -0.076 -0.6537  0.8920 -0.5135
  127MOL0     O17040   7.990  11.713  -0.177 -0.3039  0.1728  0.1068
  127MOL0     C17041   7.947  11.706  -0.305 -0.1262 -0.4346 -0.2420
  127MOL0     C17042   8.035  11.738  -0.413 -0.7575  0.2626  0.6757
  127MOL0     C17043   8.005  11.714  -0.545  0.0368  0.3716  0.5407
  127MOL0     C17044   7.874  11.674  -0.585  0.7105 -0.0804 -0.5907
  127MOL0     O17045   7.843  11.629  -0.711  0.1308 -0.0037 -1.1481
  127MOL0     C17046   7.863  11.725  -0.820  0.0042 -0.2789  1.0013
  127MOL0     C17047   7.722  11.790  -0.864 -0.0990 -0.0224 -0.2766
  127MOL0     C17048   7.610  11.806  -0.759  0.4418  0.3107  0.0393
  127MOL0     C17049   7.495  11.878  -0.824 -0.1361  0.1668  0.2808
  127MOL0     C17050   7.384  11.903  -0.726 -0.2232 -0.1103 -0.1995
  127MOL0     C17051   7.290  11.994  -0.791 -0.3734 -0.6951 -0.3080
  127MOL0     C17052   7.319  12.139  -0.759  0.2165  1.3257 -0.2029
  127MOL0     C17053   7.220  12.233  -0.827  0.6011  1.3189  0.6733
  127MOL0    Cl17054   7.252  12.405  -0.785  0.0288  0.0025  0.2430
  127MOL0     C17055   7.775  11.652  -0.490 -0.8849 -0.4161 -0.0038
  127MOL0     C17056   7.815  11.668  -0.352 -1.0789 -0.2805 -0.7532
  127MOL0     O17057   7.810  11.825  -0.091  0.5107  0.9775  0.4018
  127MOL0     C17058   8.085  11.751   0.112 -0.1349 -0.1306 -0.1159
  127MOL0     C17059   8.124  11.700   0.235 -0.0368  0.3961  0.5144
  127MOL0     N17060   7.781  11.131   0.837 -0.2298 -0.0345  0.6434
  127MOL0     N17061   7.739  11.079   0.947  0.0855 -0.1344 -0.1709
  127MOL0     C17062   6.881  10.660   1.811 -0.1748  1.0110 -0.4213
  127MOL0     C17063   6.759  10.591   1.772 -0.0804 -0.3417 -0.1085
  127MOL0     C17064   6.345  10.576   1.562 -0.3752  0.2216  0.1708
  127MOL0     C17065   6.378  10.474   1.464  1.2972 -0.9812 -1.3109
  127MOL0     C17066   6.267  10.422   1.396 -0.0847 -0.4106 -0.6718
  127MOL0     C17067   6.125  10.444   1.423 -1.0626  0.0688 -0.1835
  127MOL0     O17068   6.024  10.375   1.367 -0.4100 -0.9876  0.6383
  127MOL0     C17069   6.001  10.256   1.426 -0.2286  0.9906 -0.2629
  127MOL0     C17070   5.897  10.177   1.347  0.1809  0.3312  0.4727
  127MOL0     C17071   5.932  10.026   1.345  0.1346  0.3083 -0.2961
  127MOL0     C17072   5.810   9.945   1.294  0.3166 -0.7690 -0.6377
  127MOL0     C17073   5.844   9.801   1.321  0.2409 -0.2028 -0.4253
  127MOL0     C17074   5.861   9.679   1.334 -0.7697 -0.5104  0.0589
  127MOL0     C17075   6.109  10.547   1.514  0.9750 -0.6076  0.8506
  127MOL0     C17076   6.211  10.607   1.583 -0.0343 -0.2274 -0.0664
  127MOL0     C17077   6.166  10.712   1.673  0.3796  0.2160 -0.0531
  127MOL0     H17078   6.670  10.779   1.509  0.3965  2.8749  0.7302
  127MOL0     H17079   6.876  10.899   1.567 -0.3643 -0.6929 -1.1097
  127MOL0     H17080   7.070  10.991   1.633  1.5344 -0.6702 -1.4160
  127MOL0     H17081   7.192  10.956   1.762  0.3931 -0.4417  0.7751
  127MOL0     H17082   7.094  10.780   1.525  1.1112 -2.7184 -0.3383
  127MOL0     H17083   7.203  10.739   1.649 -1.2824  0.1848 -0.3164
  127MOL0     H17084   7.367  10.815   1.501  0.0878 -0.5068  2.6482
  127MOL0     H17085   7.320  10.987   1.542  1.3472 -0.8100 -0.1343
  127MOL0     H17086   7.200  10.827   1.319 -1.3370 -0.3864 -0.0794
  127MOL0     H17087   7.160  10.988   1.353 -2.5064 -3.2931  0.2785
  127MOL0     H17088   7.407  11.067   1.318  1.0828 -1.1948  0.5073
  127MOL0     H17089   7.439  10.907   1.257 -0.4091 -1.9551  2.5157
  127MOL0     H17090   7.259  10.945   1.081 -0.4689 -0.5297  1.3609
  127MOL0     H17091   7.277  11.115   1.130  0.2963  1.0128  0.4037
  127MOL0     H17092   7.422  11.060   0.949  1.7095 -1.3779 -0.7846
  127MOL0     H17093   7.511  10.934   1.047 -0.9376 -0.8964  1.3701
  127MOL0     H17094   7.472  11.236   1.084 -1.9140 -1.4794 -2.2489
  127MOL0     H17095   7.587  11.141   1.189  2.7427 -1.8014 -0.8729
  127MOL0     H17096   7.620  11.387   0.965  0.9909 -0.3091  3.6362
  127MOL0     H17097   7.779  11.359   0.623  1.8972  1.7372 -1.0879
  127MOL0     H17098   7.775  11.470   0.758 -2.2016  0.1146 -0.5772
  127MOL0     H17099   8.013  11.348   0.812  3.7024 -0.8829 -2.0446
  127MOL0     H17100   7.987  11.255   0.663  1.2098  1.1266 -2.4277
  127MOL0     H17101   8.147  11.417   0.650  0.7080 -0.7479  0.8846
  127MOL0     H17102   8.034  11.541   0.708  0.3386 -0.2194  0.0705
  127MOL0     H17103   7.892  11.553   0.513 -0.6328 -0.5666 -2.5257
  127MOL0     H17104   7.965  11.413   0.441  2.1914 -1.1100  0.7963
  127MOL0     H17105   7.827  11.553   0.317 -3.1192  2.4851 -0.7252
  127MOL0     H17106   7.758  11.650   0.097  0.3412  1.1615 -1.3256
  127MOL0     H17107   8.137  11.767  -0.390  0.0027 -0.7733 -1.2243
  127MOL0     H17108   8.081  11.728  -0.621  0.5319 -1.0224  0.7623
  127MOL0     H17109   7.928  11.809  -0.795 -1.1569  1.2399 -0.8539
  127MOL0     H17110   7.913  11.669  -0.899  1.5685  1.1097  0.9400
  127MOL0     H17111   7.752  11.882  -0.916 -2.3812  1.4093  0.7514
  127MOL0     H17112   7.678  11.724  -0.940  0.7198 -2.4352  1.2317
  127MOL0     H17113   7.579  11.706  -0.725  0.9618 -1.1441 -3.3295
  127MOL0     H17114   7.644  11.855  -0.667 -3.1039 -2.0532  2.9159
  127MOL0     H17115   7.447  11.828  -0.910 -2.3664 -0.9580  2.0477
  127MOL0     H17116   7.539  11.964  -0.874  0.2364 -1.3494 -2.1930
  127MOL0     H17117   7.429  11.941  -0.634 -1.4576 -1.2674  0.9313
  127MOL0     H17118   7.335  11.809  -0.697 -0.1946 -0.1802 -0.3743
  127MOL0     H17119   7.284  11.992  -0.901 -0.3583  2.2449 -0.4445
  127MOL0     H17120   7.193  11.982  -0.743 -0.7165  0.2368 -0.7294
  127MOL0     H17121   7.417  12.171  -0.795  1.0577  0.8577  1.5458
  127MOL0     H17122   7.321  12.161  -0.652  1.0429  2.1373 -0.3709
  127MOL0     H17123   7.226  12.224  -0.936 -2.7184 -0.5782  0.5186
  127MOL0     H17124   7.121  12.195  -0.799  1.3095 -1.6686 -0.4820
  127MOL0     H17125   7.680  11.613  -0.523 -2.5810  2.3356  1.3009
  127MOL0     H17126   7.765  11.656  -0.256  3.0387 -2.2638  1.4037
  127MOL0     H17127   8.157  11.807   0.053  0.5207 -1.7130 -0.8932
  127MOL0     H17128   8.227  11.708   0.267 -0.4850 -0.0822  2.1829
  127MOL0     H17129   6.932  10.625   1.900 -2.9549 -3.8989 -0.4192
  127MOL0     H17130   6.716  10.517   1.838 -0.9162  3.0054  3.4446
  127MOL0     H17131   6.478  10.450   1.429  1.0711 -1.4366 -1.6552
  127MOL0     H17132   6.291  10.340   1.329  1.0561 -1.2990  0.7434
  127MOL0     H17133   5.956  10.265   1.526  1.7779 -2.9164  1.2166
  127MOL0     H17134   6.092  10.198   1.444 -0.8657  0.0847  0.1483
  127MOL0     H17135   5.886  10.205   1.242 -2.0338 -0.7572  0.3497
  127MOL0     H17136   5.797  10.195   1.389 -0.3911 -1.8177  0.1329
  127MOL0     H17137   5.949   9.982   1.444 -2.4288 -3.2818 -1.2631
  127MOL0     H17138   6.024  10.020   1.286  1.9347 -2.0308  2.4962
  127MOL0     H17139   5.718   9.976   1.344  0.2030  1.9155 -2.3016
  127MOL0     H17140   5.776   9.950   1.190  1.0098 -2.7384 -1.0159
  127MOL0     H17141   5.874   9.580   1.372  0.1510 -0.0806  0.9213
  127MOL0     H17142   6.007  10.558   1.550  0.2935 -2.1197 -0.5042
  127MOL0     H17143   6.170  10.801   1.610  3.3454 -0.0743 -0.3994
  127MOL0     H17144   6.071  10.691   1.723 -0.8959  0.0652 -2.4164
  127MOL0     H17145   6.243  10.722   1.750 -1.2264  1.2248  1.5102
  128MOL0     O17146  10.264   1.870   4.563 -0.8798  0.1853 -0.4490
  128MOL0     C17147  10.279   1.975   4.500  0.1070  0.8184  0.2688
  128MOL0     O17148  10.346   1.996   4.383 -0.1777  0.9128  0.0612
  128MOL0     C17149  10.426   1.893   4.333  0.0232 -0.4883 -0.1906
  128MOL0     C17150  10.556   1.870   4.382  0.2683  0.2354 -0.1431
  128MOL0     C17151  10.629   1.776   4.317 -0.2611 -0.7298 -0.4654
  128MOL0     C17152  10.590   1.702   4.208  0.3841  0.0311 -0.2466
  128MOL0     O17153  10.689   1.623   4.142 -0.1283 -0.4852  0.2949
  128MOL0     C17154  10.660   1.497   4.076 -0.6544  0.0718  0.7545
  128MOL0     C17155  10.648   1.514   3.921 -0.3727  1.0302 -0.1610
  128MOL0     C17156  10.669   1.374   3.844 -0.2244  0.4843 -0.2132
  128MOL0     C17157  10.663   1.389   3.691  0.7620  0.3178  0.0937
  128MOL0     C17158  10.700   1.263   3.610 -0.2818 -0.5700  0.6844
  128MOL0     C17159  10.700   1.309   3.457  0.6461 -0.1987  0.1033
  128MOL0     C17160  10.744   1.192   3.364  0.5512 -0.4288 -0.2168
  128MOL0     C17161  10.734   1.220   3.208 -0.1340  0.0050 -0.4956
  128MOL0     N17162  10.785   1.108   3.129  0.2438 -0.1315  0.7304
  128MOL0     C17163  10.704   1.040   3.032  1.0083  0.7569  0.1432
  128MOL0     C17164  10.775   0.933   3.000 -0.0834  1.5860  0.3786
  128MOL0     C17165  10.721   0.812   2.921  0.1176 -0.4895  0.8035
  128MOL0     C17166  10.808   0.782   2.799  0.5761 -0.0191 -0.6636
  128MOL0     C17167  10.737   0.669   2.726  0.6110  0.4746  0.6291
  128MOL0     C17168  10.813   0.632   2.598 -0.2636  0.2022 -0.8748
  128MOL0     O17169  10.790   0.491   2.557 -0.0818  0.0443 -0.5160
  128MOL0     C17170  10.662   0.465   2.510  0.2875  0.2982 -0.6560
  128MOL0     C17171  10.555   0.555   2.502  1.0236  0.5486 -0.1221
  128MOL0     C17172  10.433   0.513   2.443 -0.4614 -0.2644  0.8363
  128MOL0     C17173  10.409   0.380   2.402 -0.0781 -0.5210 -0.3488
  128MOL0     C17174  10.280   0.334   2.360 -0.8707 -0.0785  1.7280
  128MOL0     O17175  10.286   0.211   2.295  0.0525  0.3468 -0.7262
  128MOL0     C17176  10.173   0.159   2.247  0.1220 -0.1572  0.4578
  128MOL0     C17177  10.038   0.195   2.280  0.1095  1.4794  0.3797
  128MOL0     C17178   9.941   0.117   2.217  0.2428  0.6028 -0.1039
  128MOL0     C17179   9.972   0.002   2.147  0.0592  0.1447  0.5040
  128MOL0     O17180   9.865  -0.057   2.092  0.0801  0.4405 -1.0995
  128MOL0     C17181   9.852  -0.194   2.046  0.1616  0.2604 -0.6253
  128MOL0     C17182   9.757  -0.208   1.922  0.3286 -0.2891  0.3887
  128MOL0     C17183   9.754  -0.353   1.858  0.1483 -0.9037 -0.2174
  128MOL0     C17184   9.659  -0.448   1.926 -0.0931 -0.0766 -0.5454
  128MOL0     C17185   9.673  -0.594   1.878 -0.0733  0.5672  0.0424
  128MOL0     C17186   9.679  -0.630   1.721  0.2138 -0.2324  0.1615
  128MOL0     C17187   9.728  -0.767   1.683 -0.5241 -0.4566  0.4567
  128MOL0     C17188   9.712  -0.808   1.535 -0.0711  1.2144 -0.5898
  128MOL0    Cl17189   9.531  -0.830   1.505  0.7223  0.3470  0.3440
  128MOL0     C17190  10.097  -0.036   2.116  0.0419  0.4766  0.3366
  128MOL0     C17191  10.196   0.040   2.172  0.1837 -0.1363  0.0051
  128MOL0     O17192  10.183   0.411   2.345 -0.4563  0.4716  0.3733
  128MOL0     C17193  10.511   0.284   2.433 -0.6317 -0.7723 -0.2795
  128MOL0     C17194  10.636   0.329   2.481 -0.4953  0.4936 -0.6352
  128MOL0     N17195  10.901   0.944   3.064 -0.3653  0.4108  0.4865
  128MOL0     N17196  10.906   1.052   3.137  0.6223 -0.1355  0.0775
  128MOL0     C17197  10.461   1.725   4.162 -0.7845 -0.2202 -0.6965
  128MOL0     C17198  10.383   1.823   4.217 -0.7538  0.1722 -0.5902
  128MOL0     C17199  10.213   2.094   4.561 -0.2813 -0.1331 -0.1592
  128MOL0     C17200  10.298   2.189   4.627 -0.2442  0.1740  0.1093
  128MOL0     C17201  10.226   2.295   4.689 -0.8011 -0.6810 -0.8335
  128MOL0     C17202  10.089   2.314   4.678 -0.4862 -0.2855  1.2163
  128MOL0     O17203  10.059   2.441   4.724  0.6845  0.3126  0.3139
  128MOL0     C17204   9.922   2.486   4.684 -0.0600  0.9838 -0.3086
  128MOL0     C17205   9.904   2.623   4.732  0.1378  0.1600 -0.5907
  128MOL0     C17206   9.985   2.720   4.644  0.1575 -0.1665  0.3093
  128MOL0     C17207  10.051   2.829   4.734  0.4101  0.5138 -0.3103
  128MOL0     C17208  10.153   2.769   4.821 -0.5245 -0.4548  0.2763
  128MOL0     C17209  10.241   2.717   4.892  0.0040 -0.1027 -0.2799
  128MOL0     C17210  10.006   2.227   4.611 -0.4037 -0.3498 -0.4231
  128MOL0     C17211  10.072   2.112   4.550 -0.4816  0.5269  0.6606
  128MOL0     C17212   9.990   2.009   4.471  0.2646 -0.3537 -0.1754
  128MOL0     H17213  10.599   1.924   4.465 -0.4417  1.9770 -0.8535
  128MOL0     H17214  10.732   1.790   4.348  0.3995 -0.1722 -2.7141
  128MOL0     H17215  10.748   1.435   4.094  2.7778  4.5550  1.4011
  128MOL0     H17216  10.572   1.448   4.117 -0.4199 -1.3749 -0.3913
  128MOL0     H17217  10.711   1.595   3.885  0.9492  0.7305  1.3697
  128MOL0     H17218  10.545   1.546   3.900 -1.1990  0.0383  1.9867
  128MOL0     H17219  10.587   1.304   3.866 -0.1392 -0.2507 -2.0940
  128MOL0     H17220  10.761   1.328   3.882 -0.9513 -0.2752  0.6833
  128MOL0     H17221  10.565   1.431   3.670 -0.4934 -0.7264  3.3297
  128MOL0     H17222  10.739   1.460   3.656  0.2880 -0.0809 -1.8960
  128MOL0     H17223  10.796   1.221   3.642 -0.4153 -0.6291  1.0205
  128MOL0     H17224  10.627   1.184   3.633 -0.5700  0.1490  2.4341
  128MOL0     H17225  10.595   1.337   3.441  0.2545  0.3573  3.0411
  128MOL0     H17226  10.765   1.396   3.450  1.3478 -0.7727 -0.5869
  128MOL0     H17227  10.678   1.114   3.404 -1.3812  1.7081  0.9702
  128MOL0     H17228  10.850   1.165   3.379 -0.1742 -2.3921  2.1732
  128MOL0     H17229  10.626   1.229   3.191 -0.0558  0.9837 -0.5045
  128MOL0     H17230  10.793   1.307   3.180 -0.0743 -0.2292 -1.1069
  128MOL0     H17231  10.602   1.055   2.996  2.0681  1.7177 -2.6704
  128MOL0     H17232  10.706   0.727   2.989  0.9727 -1.9082 -0.7038
  128MOL0     H17233  10.622   0.833   2.880  1.5099 -0.1930 -2.7385
  128MOL0     H17234  10.830   0.868   2.735  0.1885  2.2767  2.0898
  128MOL0     H17235  10.902   0.734   2.828  0.0716 -0.8475 -0.3616
  128MOL0     H17236  10.635   0.702   2.703  0.5642 -1.0816 -1.6840
  128MOL0     H17237  10.737   0.577   2.785  2.7666 -1.4926 -2.1513
  128MOL0     H17238  10.920   0.652   2.608 -0.3253  0.3771 -0.5167
  128MOL0     H17239  10.777   0.701   2.522  1.5377 -0.0991 -2.0427
  128MOL0     H17240  10.553   0.660   2.531 -2.1720 -0.2894  3.6067
  128MOL0     H17241  10.355   0.587   2.432 -0.9096 -0.4023  2.7514
  128MOL0     H17242   9.994   0.279   2.333  1.2001  3.1075 -1.1812
  128MOL0     H17243   9.838   0.145   2.239  0.9713  1.5185  2.4631
  128MOL0     H17244   9.949  -0.237   2.018  0.2564 -1.7051  2.2570
  128MOL0     H17245   9.805  -0.255   2.123  1.3927 -0.1381 -0.1642
  128MOL0     H17246   9.657  -0.191   1.963  0.0707 -1.1266  0.1273
  128MOL0     H17247   9.777  -0.133   1.845 -0.3856 -1.7834 -1.3399
  128MOL0     H17248   9.717  -0.342   1.755 -4.0021 -2.5205  0.9036
  128MOL0     H17249   9.858  -0.386   1.856  0.9667  1.5127 -0.8063
  128MOL0     H17250   9.557  -0.410   1.914  0.4223  1.5552 -0.0898
  128MOL0     H17251   9.667  -0.441   2.035 -1.5992  3.1870 -0.5170
  128MOL0     H17252   9.594  -0.658   1.919  2.2010 -0.3880  3.3240
  128MOL0     H17253   9.769  -0.618   1.926  0.5669 -0.6646 -1.7539
  128MOL0     H17254   9.583  -0.604   1.677 -0.6969  1.3792  2.8603
  128MOL0     H17255   9.754  -0.557   1.690  0.8273 -0.1689  1.6718
  128MOL0     H17256   9.673  -0.833   1.750  0.9739 -1.0345  1.1606
  128MOL0     H17257   9.832  -0.780   1.712  0.0598 -0.1885 -1.3901
  128MOL0     H17258   9.763  -0.739   1.468  0.7576 -0.3497 -1.6335
  128MOL0     H17259   9.773  -0.898   1.525  3.1109  3.1570  0.1396
  128MOL0     H17260  10.114  -0.119   2.048  0.2710 -0.4181  1.4560
  128MOL0     H17261  10.292  -0.010   2.162  0.6319  0.2724  1.8610
  128MOL0     H17262  10.514   0.179   2.404  2.0736 -1.4387  1.9725
  128MOL0     H17263  10.722   0.263   2.479 -1.8412 -1.5626  2.1445
  128MOL0     H17264  10.429   1.678   4.069 -2.5312 -2.4040  0.8913
  128MOL0     H17265  10.284   1.839   4.176 -1.6048 -0.3327  1.1397
  128MOL0     H17266  10.406   2.182   4.620 -0.1938 -1.3263  1.6889
  128MOL0     H17267  10.287   2.366   4.744 -0.6001 -1.4600 -0.0379
  128MOL0     H17268   9.848   2.427   4.739  1.3961  0.1166  0.7969
  128MOL0     H17269   9.901   2.476   4.577  3.2065 -0.0896 -0.9628
  128MOL0     H17270   9.929   2.632   4.838 -2.9599  5.2418  0.0580
  128MOL0     H17271   9.800   2.655   4.726 -0.2118 -0.9888 -0.8267
  128MOL0     H17272   9.936   2.766   4.558  0.5688  0.5736  0.4597
  128MOL0     H17273  10.067   2.660   4.603  1.4440  0.3453  2.0009
  128MOL0     H17274  10.100   2.900   4.667 -0.8651  2.6791  0.9536
  128MOL0     H17275   9.975   2.888   4.786  1.6505  3.8533 -2.0047
  128MOL0     H17276  10.324   2.665   4.935  0.1534  0.7924  0.5386
  128MOL0     H17277   9.900   2.249   4.613 -0.4158 -0.4394  0.2375
  128MOL0     H17278   9.883   2.033   4.477 -0.6607 -3.5397 -1.4450
  128MOL0     H17279  10.018   2.014   4.365  1.2831  1.1136  0.1402
  128MOL0     H17280   9.984   1.909   4.514 -1.4918  0.2059  0.9736
  129MOL0     O17281   7.634   6.652   7.661 -0.0594  0.5448 -0.3583
  129MOL0     C17282   7.668   6.543   7.710 -0.1364 -0.2445 -0.3590
  129MOL0     O17283   7.701   6.513   7.845 -0.1640 -0.5562 -0.2908
  129MOL0     C17284   7.722   6.601   7.948 -0.2702  0.8694  0.7649
  129MOL0     C17285   7.674   6.739   7.958  0.5226 -0.7473 -0.4875
  129MOL0     C17286   7.715   6.820   8.063  0.8066  0.2663 -0.9874
  129MOL0     C17287   7.802   6.768   8.161  0.3583 -0.0044 -0.0857
  129MOL0     O17288   7.868   6.850   8.247 -0.3243  0.2871  0.6211
  129MOL0     C17289   7.937   6.951   8.172  0.4965  0.6809  0.3109
  129MOL0     C17290   7.995   7.069   8.257  0.5960  0.3338 -0.8878
  129MOL0     C17291   7.895   7.148   8.342  0.3075 -0.3151  0.6643
  129MOL0     C17292   7.771   7.179   8.264  0.6843 -0.6654 -1.3051
  129MOL0     C17293   7.706   7.310   8.326 -0.0608  1.0336  1.3152
  129MOL0     C17294   7.663   7.302   8.469 -0.2832  0.2522 -0.6295
  129MOL0     C17295   7.575   7.183   8.484 -0.5903  1.6280 -0.3510
  129MOL0     C17296   7.504   7.183   8.626 -0.4288  0.3869  0.5942
  129MOL0     N17297   7.380   7.091   8.629 -0.4717  0.9177  0.0519
  129MOL0     C17298   7.394   6.954   8.644  0.4674 -0.5692 -0.3566
  129MOL0     C17299   7.264   6.916   8.666 -0.4140 -0.6226 -0.8003
  129MOL0     C17300   7.218   6.775   8.693  0.6246  0.1141  0.0601
  129MOL0     C17301   7.272   6.714   8.821 -0.8781 -0.0068 -1.1462
  129MOL0     C17302   7.210   6.757   8.961  0.3523  0.3414  0.5885
  129MOL0     C17303   7.251   6.903   8.995  0.0484  0.1984 -0.2497
  129MOL0     O17304   7.395   6.908   9.002 -0.4232  0.4168 -0.0090
  129MOL0     C17305   7.452   7.028   8.993  0.3085 -0.0366 -0.8882
  129MOL0     C17306   7.387   7.149   9.014 -0.1111 -0.9548  0.9729
  129MOL0     C17307   7.454   7.269   8.980  0.2357  0.2102 -0.2890
  129MOL0     C17308   7.598   7.263   8.957 -0.1602 -0.2117  0.0855
  129MOL0     C17309   7.670   7.387   8.912  0.2896  0.2279  0.1565
  129MOL0     O17310   7.605   7.497   8.865 -0.0508 -1.3414  0.3053
  129MOL0     C17311   7.676   7.598   8.799  0.0948  0.1944 -0.8673
  129MOL0     C17312   7.615   7.724   8.811 -0.2779  0.7514 -0.4756
  129MOL0     C17313   7.674   7.835   8.749  0.1661 -0.3083  0.4688
  129MOL0     C17314   7.805   7.827   8.675  1.3952  1.4814 -0.3106
  129MOL0     O17315   7.852   7.938   8.609  0.4616  0.9143  0.0227
  129MOL0     C17316   7.867   8.054   8.689  0.5589 -0.6633 -0.4780
  129MOL0     C17317   7.876   8.175   8.602  0.6029  0.5220  0.5408
  129MOL0     C17318   7.869   8.306   8.683 -0.3491  0.4327 -0.5966
  129MOL0     C17319   7.899   8.430   8.603  0.4649  0.3427 -0.3178
  129MOL0     C17320   7.874   8.555   8.673  0.3144  0.4086 -0.9522
  129MOL0     C17321   7.940   8.677   8.596  0.7532 -0.6037 -0.7216
  129MOL0     C17322   7.916   8.814   8.659 -0.3972  0.0669 -0.2241
  129MOL0     C17323   8.016   8.915   8.596 -0.8170  0.8968  0.3632
  129MOL0    Cl17324   7.966   9.080   8.630  0.3769  0.0627  0.1317
  129MOL0     C17325   7.862   7.697   8.670  0.2873 -0.9189 -1.4735
  129MOL0     C17326   7.803   7.586   8.727 -0.4223 -0.1553 -0.7199
  129MOL0     O17327   7.790   7.372   8.917 -0.1557  0.6588  0.3646
  129MOL0     C17328   7.666   7.139   8.952 -0.3740 -0.4164 -0.0355
  129MOL0     C17329   7.593   7.028   8.976 -0.0731  0.9614 -0.0196
  129MOL0     N17330   7.171   7.025   8.654 -0.5315 -0.1756  0.3358
  129MOL0     N17331   7.246   7.122   8.630 -0.1622 -0.0441  0.2344
  129MOL0     C17332   7.840   6.637   8.164  0.2936 -0.7475  0.6841
  129MOL0     C17333   7.800   6.558   8.055 -0.5359  0.4748 -0.5031
  129MOL0     C17334   7.666   6.421   7.625  0.2200  0.4937 -0.5652
  129MOL0     C17335   7.769   6.326   7.640  0.0259  1.3120  0.6482
  129MOL0     C17336   7.773   6.211   7.546  0.0088  0.5531 -0.3523
  129MOL0     C17337   7.685   6.189   7.444  1.0019 -0.0946  0.6457
  129MOL0     O17338   7.669   6.073   7.361  0.1513 -1.1628 -0.2482
  129MOL0     C17339   7.794   6.005   7.322  0.2873 -0.6196 -0.3123
  129MOL0     C17340   7.812   5.950   7.186  0.1886 -0.6027  1.2526
  129MOL0     C17341   7.761   6.053   7.084 -0.8772 -1.1129 -0.1420
  129MOL0     C17342   7.770   6.006   6.946  0.0327  0.2199  1.1001
  129MOL0     C17343   7.691   5.884   6.919 -0.6363 -0.9059 -0.1167
  129MOL0     C17344   7.631   5.788   6.884 -0.0949  0.7254  0.2784
  129MOL0     C17345   7.576   6.276   7.443  0.8696 -0.1501  0.0646
  129MOL0     C17346   7.566   6.393   7.527  0.6421  0.7162 -0.5874
  129MOL0     C17347   7.428   6.466   7.536  0.0818  0.1546 -1.1150
  129MOL0     H17348   7.611   6.776   7.878  0.9085  0.1720 -0.3741
  129MOL0     H17349   7.680   6.923   8.068  1.8346  0.6483 -1.2691
  129MOL0     H17350   8.026   6.904   8.130 -0.4011  1.7891 -3.1352
  129MOL0     H17351   7.877   6.986   8.088 -0.6564  2.1390  1.6742
  129MOL0     H17352   8.049   7.137   8.190  0.3591  3.9347  2.2270
  129MOL0     H17353   8.071   7.031   8.325  0.8746 -1.2164 -2.0134
  129MOL0     H17354   7.948   7.240   8.370 -0.4111  0.3880 -0.1898
  129MOL0     H17355   7.871   7.095   8.434  1.0347 -1.8522 -0.0079
  129MOL0     H17356   7.794   7.205   8.160 -3.1079 -0.4982 -2.2360
  129MOL0     H17357   7.713   7.087   8.277  0.7888 -0.6343 -0.5656
  129MOL0     H17358   7.784   7.387   8.323 -1.9895  3.1714  2.6326
  129MOL0     H17359   7.623   7.335   8.259 -0.7330  1.1778  2.1837
  129MOL0     H17360   7.753   7.280   8.527  1.1472  1.0177 -2.4513
  129MOL0     H17361   7.602   7.390   8.490 -0.3462  0.0353  0.1151
  129MOL0     H17362   7.632   7.090   8.477 -2.9685 -0.0829  1.3663
  129MOL0     H17363   7.493   7.172   8.413 -0.8955  1.6215 -0.0057
  129MOL0     H17364   7.577   7.146   8.699 -0.5494 -1.5548 -0.1951
  129MOL0     H17365   7.477   7.284   8.655  1.6325  0.5047  2.3154
  129MOL0     H17366   7.478   6.885   8.639  0.5020 -0.4415 -3.4276
  129MOL0     H17367   7.109   6.761   8.698  1.0243 -4.7187  0.1017
  129MOL0     H17368   7.263   6.717   8.612 -1.0125 -0.3851 -0.5411
  129MOL0     H17369   7.249   6.608   8.801 -1.3050 -0.1937  0.2360
  129MOL0     H17370   7.380   6.729   8.826 -1.0162  1.8020 -2.5884
  129MOL0     H17371   7.257   6.686   9.030  2.1461 -0.4822 -1.3514
  129MOL0     H17372   7.102   6.744   8.964  0.4082  0.0587  2.5533
  129MOL0     H17373   7.204   6.928   9.091  0.1292  0.4236 -0.2676
  129MOL0     H17374   7.211   6.974   8.921 -2.8486 -1.1834 -0.1503
  129MOL0     H17375   7.280   7.149   9.034 -0.6608 -1.4446 -1.5690
  129MOL0     H17376   7.405   7.366   8.981 -1.4988 -0.6121  1.3092
  129MOL0     H17377   7.515   7.740   8.850 -0.6384  3.6230 -2.3095
  129MOL0     H17378   7.631   7.933   8.762 -3.1743 -1.6578  0.6009
  129MOL0     H17379   7.793   8.056   8.769  1.6897  0.7878  0.5878
  129MOL0     H17380   7.959   8.054   8.748 -0.1171 -0.8960  0.6243
  129MOL0     H17381   7.975   8.168   8.556  0.4450  0.3470  0.2255
  129MOL0     H17382   7.794   8.169   8.529  0.6627  1.8300  0.3431
  129MOL0     H17383   7.770   8.319   8.730 -0.8429 -0.7756 -1.2639
  129MOL0     H17384   7.933   8.309   8.772 -1.3342 -1.5305  0.2409
  129MOL0     H17385   7.846   8.427   8.507 -0.8727  0.6650  0.3865
  129MOL0     H17386   7.993   8.427   8.547 -0.3989 -1.4868 -1.7716
  129MOL0     H17387   7.920   8.549   8.772  0.7274  1.4972 -1.0674
  129MOL0     H17388   7.767   8.565   8.695  0.6875 -2.4740  3.6752
  129MOL0     H17389   8.047   8.664   8.580  1.2724  1.1970  0.8406
  129MOL0     H17390   7.900   8.675   8.495  1.1452  3.2553 -1.1185
  129MOL0     H17391   7.950   8.802   8.763  3.0016 -0.3073 -1.2610
  129MOL0     H17392   7.814   8.854   8.652 -0.4340  0.0452  0.1413
  129MOL0     H17393   8.115   8.888   8.635 -1.9766 -1.9314  1.6712
  129MOL0     H17394   8.009   8.902   8.487  2.7784  0.9790  0.0109
  129MOL0     H17395   7.953   7.686   8.612  1.9064  3.6914 -0.2754
  129MOL0     H17396   7.857   7.493   8.714  1.6115  0.7868  0.5587
  129MOL0     H17397   7.773   7.128   8.944 -0.2786  0.7413 -0.5133
  129MOL0     H17398   7.640   6.931   8.988  0.5251  0.7990 -2.9557
  129MOL0     H17399   7.920   6.606   8.230  2.1338  0.1368 -1.0330
  129MOL0     H17400   7.839   6.457   8.058 -1.1864  0.2285  1.2615
  129MOL0     H17401   7.838   6.336   7.723  1.7941  1.7474 -0.8036
  129MOL0     H17402   7.853   6.137   7.546  0.6435  1.2123 -1.0092
  129MOL0     H17403   7.802   5.912   7.380 -0.1019 -1.4534 -1.5404
  129MOL0     H17404   7.869   6.078   7.353  0.5136 -0.2067 -1.7742
  129MOL0     H17405   7.764   5.852   7.178 -2.7799  0.5757  3.3178
  129MOL0     H17406   7.919   5.932   7.169  0.3871  1.4812 -0.1027
  129MOL0     H17407   7.827   6.140   7.086 -1.5429 -0.5903 -0.2557
  129MOL0     H17408   7.660   6.094   7.087  0.0456  1.3062  0.0623
  129MOL0     H17409   7.719   6.074   6.877 -2.9177 -1.7583  1.1212
  129MOL0     H17410   7.874   5.992   6.915  0.5234  4.9280 -0.1041
  129MOL0     H17411   7.584   5.697   6.855 -1.7993  1.6883 -0.0985
  129MOL0     H17412   7.496   6.251   7.375  1.9858 -0.2252 -1.2514
  129MOL0     H17413   7.430   6.561   7.481  3.4397  0.4966 -0.6330
  129MOL0     H17414   7.349   6.405   7.492  0.9224 -1.5014 -0.4221
  129MOL0     H17415   7.395   6.491   7.638 -1.2458  0.5814 -1.6353
  130MOL0     O17416   9.950   9.075   3.157  0.5911 -0.6330  0.7645
  130MOL0     C17417   9.923   9.029   3.266 -0.7901 -0.6066  0.0228
  130MOL0     O17418   9.996   8.927   3.331  0.0614 -0.0611 -0.0875
  130MOL0     C17419  10.112   8.874   3.279 -0.1277  0.2324 -0.2083
  130MOL0     C17420  10.109   8.773   3.188  0.8056  0.5856  0.0111
  130MOL0     C17421  10.228   8.719   3.133 -0.1236 -0.2011 -0.4343
  130MOL0     C17422  10.350   8.782   3.169 -0.0652  0.9519  0.2995
  130MOL0     O17423  10.464   8.731   3.105  0.8149  0.1990  0.0385
  130MOL0     C17424  10.592   8.788   3.109  0.0255  0.5398  0.0876
  130MOL0     C17425  10.691   8.699   3.036  0.1049  0.0496 -0.3145
  130MOL0     C17426  10.835   8.754   3.073 -0.6943  0.3916 -0.5695
  130MOL0     C17427  10.872   8.893   3.011 -0.8674  0.1275  0.3139
  130MOL0     C17428  11.013   8.943   3.063 -1.2620  0.4472  0.7674
  130MOL0     C17429  11.034   9.089   3.015 -0.4956  0.3271 -0.7318
  130MOL0     C17430  11.176   9.123   2.970 -0.0017 -0.1111  0.1319
  130MOL0     C17431  11.191   9.246   2.885 -0.7700 -0.6019 -0.9849
  130MOL0     N17432  11.203   9.371   2.981 -0.5525  0.5717  0.6861
  130MOL0     C17433  11.299   9.394   3.062 -0.2512 -0.4997  0.7431
  130MOL0     C17434  11.306   9.532   3.078  0.1967 -0.1240  0.0321
  130MOL0     C17435  11.406   9.600   3.164  0.2533 -1.5055 -1.2142
  130MOL0     C17436  11.549   9.634   3.094  0.0852  0.2210 -0.5848
  130MOL0     C17437  11.617   9.731   3.192 -0.2363 -0.8424 -0.7068
  130MOL0     C17438  11.761   9.778   3.155  0.5941 -0.2884  0.1879
  130MOL0     O17439  11.835   9.660   3.177  0.2885  0.1685  0.0791
  130MOL0     C17440  11.954   9.646   3.114  0.6997 -0.0493 -0.2817
  130MOL0     C17441  12.059   9.740   3.153 -0.7827  0.0740  0.5486
  130MOL0     C17442  12.186   9.716   3.105 -0.2506 -0.9494 -0.6253
  130MOL0     C17443  12.212   9.605   3.021 -0.9557 -0.0101  0.1043
  130MOL0     C17444  12.351   9.575   2.978 -0.2899 -0.1945  0.1061
  130MOL0     O17445  12.444   9.682   2.990  0.2165 -0.1799  0.2354
  130MOL0     C17446  12.556   9.678   2.898  0.1760  0.2244 -0.2946
  130MOL0     C17447  12.677   9.713   2.940 -0.0333 -0.7945  0.3640
  130MOL0     C17448  12.785   9.714   2.858 -0.1930  0.6923 -0.2746
  130MOL0     C17449  12.773   9.674   2.723 -0.7005 -0.2705 -0.0788
  130MOL0     O17450  12.896   9.665   2.648 -0.1667 -0.3132 -0.3733
  130MOL0     C17451  12.903   9.604   2.514  0.8876  0.8713 -1.0500
  130MOL0     C17452  13.044   9.616   2.453  0.4738  0.6803  0.3214
  130MOL0     C17453  13.082   9.760   2.413 -0.5725  0.2852 -0.2927
  130MOL0     C17454  12.995   9.816   2.299 -0.0848  0.5342 -0.4409
  130MOL0     C17455  13.058   9.945   2.241  0.8467 -0.4556  0.6271
  130MOL0     C17456  12.958  10.001   2.134 -0.2614  0.1385  0.2644
  130MOL0     C17457  13.004  10.130   2.066  0.7925  0.7774  1.1404
  130MOL0     C17458  13.135  10.102   1.982 -0.0960 -0.6282 -0.0402
  130MOL0    Cl17459  13.175  10.232   1.859  0.1415  0.0506  0.0185
  130MOL0     C17460  12.651   9.637   2.670  0.2676 -0.2565  0.2364
  130MOL0     C17461  12.540   9.646   2.766 -0.8721 -0.2903  0.7640
  130MOL0     O17462  12.371   9.455   2.941  0.3731 -0.6445 -0.7627
  130MOL0     C17463  12.107   9.525   2.982  0.2174  0.4914  0.0313
  130MOL0     C17464  11.978   9.540   3.028 -0.2466 -0.1044  0.0152
  130MOL0     N17465  11.191   9.588   3.015 -0.7117 -0.2996  0.4523
  130MOL0     N17466  11.146   9.492   2.944  0.5945 -0.1779 -0.0265
  130MOL0     C17467  10.357   8.883   3.262  0.8830  0.1123  0.2572
  130MOL0     C17468  10.233   8.933   3.316 -0.3332  0.2000  0.2325
  130MOL0     C17469   9.801   9.086   3.332 -0.9667  0.2631 -0.3220
  130MOL0     C17470   9.730   9.016   3.430  1.1227  0.1513  0.0079
  130MOL0     C17471   9.614   9.080   3.494  0.3307  0.0804  0.8534
  130MOL0     C17472   9.565   9.207   3.466  0.1510  0.7722 -0.1615
  130MOL0     O17473   9.451   9.243   3.525 -0.0012  0.1744  0.4276
  130MOL0     C17474   9.397   9.375   3.529  0.7258 -0.1749  0.1146
  130MOL0     C17475   9.280   9.378   3.426 -0.0326 -0.3063 -0.4832
  130MOL0     C17476   9.221   9.517   3.427 -0.1807 -0.9664  0.2870
  130MOL0     C17477   9.134   9.555   3.308  0.3662  0.8688 -0.4127
  130MOL0     C17478   9.018   9.466   3.288 -0.5369  0.8791 -0.2639
  130MOL0     C17479   8.934   9.379   3.285  0.0893  0.6738 -0.3609
  130MOL0     C17480   9.656   9.280   3.390  0.4967 -0.6764  0.7610
  130MOL0     C17481   9.764   9.225   3.316 -0.6143  0.6648 -0.2424
  130MOL0     C17482   9.835   9.322   3.226  0.4444 -0.3955  0.8002
  130MOL0     H17483  10.011   8.735   3.164  1.0669 -0.1570  0.1003
  130MOL0     H17484  10.214   8.625   3.079 -1.4546 -0.0670 -0.3693
  130MOL0     H17485  10.599   8.888   3.064 -0.0077  0.0826 -0.9474
  130MOL0     H17486  10.622   8.803   3.214  2.3127 -1.0709 -0.2579
  130MOL0     H17487  10.670   8.703   2.929  2.9307 -2.2133 -1.0883
  130MOL0     H17488  10.666   8.603   3.081  0.8625  0.0693  0.1626
  130MOL0     H17489  10.902   8.679   3.030 -1.7542 -0.7887 -0.2277
  130MOL0     H17490  10.860   8.759   3.179  1.3602 -2.2903 -0.8077
  130MOL0     H17491  10.865   8.892   2.901 -2.1071  0.6804  0.3638
  130MOL0     H17492  10.802   8.972   3.040  2.2710  3.1517  0.1963
  130MOL0     H17493  11.037   8.939   3.170  4.1763 -1.0885 -0.1806
  130MOL0     H17494  11.078   8.868   3.017 -2.3295 -0.2587  0.3845
  130MOL0     H17495  10.971   9.115   2.928  1.8005 -0.2871 -2.6852
  130MOL0     H17496  11.020   9.149   3.105  0.9878 -1.2871  0.6488
  130MOL0     H17497  11.220   9.044   2.910  1.2950 -1.0583  2.2285
  130MOL0     H17498  11.248   9.127   3.052  2.9537 -2.0659 -2.1767
  130MOL0     H17499  11.285   9.242   2.829  0.0537 -3.3414  0.3910
  130MOL0     H17500  11.109   9.266   2.816 -1.5501  1.2184  0.3771
  130MOL0     H17501  11.367   9.314   3.090  1.0020  0.6550  1.0913
  130MOL0     H17502  11.357   9.692   3.196  4.0186  0.5534 -0.8523
  130MOL0     H17503  11.415   9.547   3.259  0.5399  0.6608  0.0209
  130MOL0     H17504  11.616   9.548   3.087  0.7914  0.5879  1.0858
  130MOL0     H17505  11.538   9.680   2.995  2.9233 -0.6150 -1.3835
  130MOL0     H17506  11.634   9.672   3.282 -0.0029 -1.1181 -0.9318
  130MOL0     H17507  11.548   9.814   3.213 -0.1697 -0.1420 -3.0539
  130MOL0     H17508  11.782   9.854   3.231  1.9994 -2.8743  2.5333
  130MOL0     H17509  11.768   9.816   3.052  2.3487  0.7614  0.6643
  130MOL0     H17510  12.057   9.832   3.211  3.7939  0.4370  0.4850
  130MOL0     H17511  12.262   9.788   3.131 -1.1668  0.1860 -1.0118
  130MOL0     H17512  12.686   9.744   3.044 -0.0666 -0.6084  0.3119
  130MOL0     H17513  12.875   9.748   2.908 -0.6750  4.5075 -1.6998
  130MOL0     H17514  12.886   9.497   2.530 -1.4091  1.4421  0.9362
  130MOL0     H17515  12.838   9.650   2.439  0.6363 -1.6422 -2.4638
  130MOL0     H17516  13.111   9.570   2.526  2.0736 -0.3265 -1.6931
  130MOL0     H17517  13.046   9.567   2.356 -0.4610 -1.2919  1.2455
  130MOL0     H17518  13.067   9.829   2.496 -1.2763  2.3769 -2.0644
  130MOL0     H17519  13.183   9.761   2.372 -0.4760 -1.2496 -0.1483
  130MOL0     H17520  12.904   9.836   2.355  1.1555  0.0669  1.8909
  130MOL0     H17521  12.981   9.732   2.231 -2.4175 -0.8199  1.5383
  130MOL0     H17522  13.159   9.929   2.202  1.8427 -0.6025  3.0799
  130MOL0     H17523  13.076  10.012   2.325  1.2259 -0.0945  0.2582
  130MOL0     H17524  12.939   9.921   2.062  0.7191 -0.7654  0.9850
  130MOL0     H17525  12.869  10.020   2.195 -3.9858 -1.5176 -4.0783
  130MOL0     H17526  13.013  10.208   2.141  0.3009  0.8290  1.1523
  130MOL0     H17527  12.930  10.146   1.986 -1.5539 -3.3453  2.1762
  130MOL0     H17528  13.210  10.103   2.061  1.2348 -0.4984 -1.2527
  130MOL0     H17529  13.121  10.004   1.935  3.3267 -0.9994 -0.5518
  130MOL0     H17530  12.637   9.602   2.569 -1.4145 -2.9945  1.2852
  130MOL0     H17531  12.448   9.615   2.718  0.0268  0.7049 -1.8577
  130MOL0     H17532  12.116   9.448   2.906 -4.6378  0.3550 -0.7249
  130MOL0     H17533  11.893   9.479   2.998  1.4074 -1.9458 -1.1446
  130MOL0     H17534  10.449   8.940   3.274  0.4759  0.3572  2.6858
  130MOL0     H17535  10.238   9.019   3.381 -0.6685  0.6389 -0.3146
  130MOL0     H17536   9.762   8.915   3.455  0.4962  0.3271  1.6405
  130MOL0     H17537   9.550   9.028   3.564  0.6885  0.9988  1.8904
  130MOL0     H17538   9.466   9.460   3.523 -2.6102  2.7232 -0.4488
  130MOL0     H17539   9.362   9.381   3.632  1.0371 -2.4965  0.4091
  130MOL0     H17540   9.204   9.303   3.451 -3.6218  2.9963 -0.6565
  130MOL0     H17541   9.322   9.352   3.329  1.6366 -0.8005  0.3205
  130MOL0     H17542   9.299   9.594   3.427 -2.3361  1.3874 -1.1806
  130MOL0     H17543   9.161   9.528   3.518  0.7402 -0.8620  0.8915
  130MOL0     H17544   9.098   9.657   3.323 -0.9392  0.0813  2.8390
  130MOL0     H17545   9.186   9.550   3.212 -0.0304  0.5571 -0.6083
  130MOL0     H17546   8.854   9.311   3.305 -0.8415  1.9949  0.5949
  130MOL0     H17547   9.621   9.383   3.390  3.3064  0.3515  1.3825
  130MOL0     H17548   9.822   9.290   3.122  0.4647  0.9517  0.3649
  130MOL0     H17549   9.793   9.423   3.234 -1.4120 -1.0524  0.0404
  130MOL0     H17550   9.940   9.326   3.256  0.4757  2.4132  0.5880
  131MOL0     O17551   7.602   2.598   4.615 -0.5043  0.3910  0.9264
  131MOL0     C17552   7.639   2.702   4.667  0.7307  0.5512 -1.1010
  131MOL0     O17553   7.552   2.810   4.706 -0.0923 -0.8266  0.0393
  131MOL0     C17554   7.424   2.801   4.654  0.9689  0.6261 -0.5889
  131MOL0     C17555   7.322   2.731   4.721 -0.3537  0.4195  0.0129
  131MOL0     C17556   7.198   2.733   4.664  0.1400 -0.4646 -0.3088
  131MOL0     C17557   7.163   2.816   4.556 -0.6288  0.0899  0.5665
  131MOL0     O17558   7.036   2.788   4.513  0.2433  0.2398  0.3176
  131MOL0     C17559   7.013   2.803   4.377  0.6323  0.1195  0.2423
  131MOL0     C17560   6.879   2.764   4.319  1.0877 -0.2768  0.1075
  131MOL0     C17561   6.766   2.826   4.402  0.1880 -0.1149 -0.3908
  131MOL0     C17562   6.744   2.979   4.417  0.5497  0.1083  0.4492
  131MOL0     C17563   6.628   3.013   4.506  0.0206 -0.3995  1.0112
  131MOL0     C17564   6.494   2.977   4.443  0.1874 -0.7305 -0.1215
  131MOL0     C17565   6.373   2.988   4.538  0.2560 -0.5223  0.7419
  131MOL0     C17566   6.377   2.899   4.656 -0.6812  0.4945 -0.3723
  131MOL0     N17567   6.403   2.759   4.624 -0.2737 -0.2388 -0.7299
  131MOL0     C17568   6.523   2.690   4.615  0.0740  0.3652 -1.2165
  131MOL0     C17569   6.485   2.564   4.571  0.8238  1.2947 -0.1784
  131MOL0     C17570   6.592   2.460   4.562  0.1261  0.8323 -0.4249
  131MOL0     C17571   6.549   2.325   4.502 -0.5176  0.9508 -0.3558
  131MOL0     C17572   6.649   2.215   4.475 -0.3236 -0.1159 -0.5287
  131MOL0     C17573   6.696   2.132   4.599 -0.4647  0.7844  0.2380
  131MOL0     O17574   6.804   2.052   4.555  0.1985  0.7656  0.9006
  131MOL0     C17575   6.894   1.987   4.647 -0.6156  0.0256 -0.5948
  131MOL0     C17576   6.863   1.963   4.782  0.1075  0.2089  0.0824
  131MOL0     C17577   6.947   1.872   4.852  0.1923 -0.2762 -0.2580
  131MOL0     C17578   7.068   1.820   4.817  0.3107 -0.5308 -0.4666
  131MOL0     C17579   7.161   1.743   4.901 -1.1210  0.7097  0.3920
  131MOL0     O17580   7.292   1.745   4.849 -0.1742 -0.2383 -0.1235
  131MOL0     C17581   7.382   1.667   4.904 -0.4419 -0.6028  0.2460
  131MOL0     C17582   7.416   1.667   5.044  0.3229 -0.0443  0.7229
  131MOL0     C17583   7.494   1.574   5.101  0.4265  0.2618  0.4233
  131MOL0     C17584   7.563   1.478   5.023  0.6047  0.4464 -0.1071
  131MOL0     O17585   7.655   1.389   5.080 -0.6738  0.8258  0.2145
  131MOL0     C17586   7.684   1.395   5.223  0.6705 -0.2303  0.5443
  131MOL0     C17587   7.600   1.299   5.303 -0.5522 -0.1558 -0.1263
  131MOL0     C17588   7.654   1.295   5.450  0.9106 -0.3318 -0.1128
  131MOL0     C17589   7.563   1.207   5.539  0.8596 -0.1725  0.1628
  131MOL0     C17590   7.453   1.282   5.629  0.1017  0.7949  0.6667
  131MOL0     C17591   7.398   1.183   5.728  0.1085 -0.4733  0.4043
  131MOL0     C17592   7.506   1.155   5.843  1.5000  0.6224  0.4959
  131MOL0     C17593   7.442   1.063   5.951 -0.3953 -0.1121  0.0785
  131MOL0    Cl17594   7.563   0.974   6.034 -0.5082  0.2161 -0.6299
  131MOL0     C17595   7.542   1.482   4.891 -0.4474  0.0749  1.0509
  131MOL0     C17596   7.458   1.581   4.831 -1.2983 -1.2207  0.5885
  131MOL0     O17597   7.122   1.658   4.992 -0.0556  0.0011  0.0671
  131MOL0     C17598   7.095   1.843   4.684  0.4946  0.0392 -0.0450
  131MOL0     C17599   7.016   1.929   4.599  1.1045  0.0583  0.3939
  131MOL0     N17600   6.343   2.563   4.544 -0.3515 -0.2633 -0.5732
  131MOL0     N17601   6.298   2.679   4.588 -0.5459 -0.4463  0.2241
  131MOL0     C17602   7.271   2.881   4.489  0.1160  0.0093  0.3574
  131MOL0     C17603   7.398   2.873   4.541  0.2486  0.3258 -0.0480
  131MOL0     C17604   7.779   2.705   4.723  0.1254  0.9665  0.5663
  131MOL0     C17605   7.875   2.610   4.673  0.4232 -0.6072 -0.0684
  131MOL0     C17606   7.998   2.592   4.739  0.2201  0.6755  0.1811
  131MOL0     C17607   8.041   2.668   4.846  0.6798 -0.3873  0.7700
  131MOL0     O17608   8.161   2.672   4.910 -0.1085  0.1873  0.4689
  131MOL0     C17609   8.257   2.577   4.867  0.6421  0.7091 -0.0629
  131MOL0     C17610   8.369   2.573   4.969 -0.2101 -0.1832  0.3414
  131MOL0     C17611   8.477   2.661   4.931 -0.5866 -0.8150  1.0144
  131MOL0     C17612   8.605   2.621   4.990  0.1175 -0.3798  0.0056
  131MOL0     C17613   8.711   2.718   4.945 -0.2843 -0.5309 -0.1876
  131MOL0     C17614   8.780   2.806   4.908  0.3295  0.0874 -0.2562
  131MOL0     C17615   7.956   2.766   4.884  0.0615 -0.2248  0.3283
  131MOL0     C17616   7.825   2.783   4.831 -0.2549  0.4218  1.0745
  131MOL0     C17617   7.742   2.895   4.893  0.1693  0.3219 -0.5692
  131MOL0     H17618   7.345   2.680   4.814  0.7369  4.6071  2.3403
  131MOL0     H17619   7.125   2.688   4.731  1.0685 -3.1523 -0.9838
  131MOL0     H17620   7.024   2.909   4.356  0.0650  0.1546  0.1311
  131MOL0     H17621   7.090   2.750   4.319 -0.5998  1.3243 -2.6780
  131MOL0     H17622   6.865   2.656   4.313 -1.3538 -0.0318  0.4778
  131MOL0     H17623   6.869   2.806   4.218 -0.3291 -1.9094 -0.4813
  131MOL0     H17624   6.765   2.783   4.502 -1.4314 -3.3179 -1.6326
  131MOL0     H17625   6.678   2.774   4.363 -0.2395  0.6083 -0.4123
  131MOL0     H17626   6.833   3.022   4.465  0.4695  0.3452  0.3869
  131MOL0     H17627   6.746   3.036   4.323 -0.8843  0.2566  0.4920
  131MOL0     H17628   6.636   2.955   4.599  1.1605 -2.2087 -0.1325
  131MOL0     H17629   6.645   3.119   4.525  2.1570 -0.4533 -0.2090
  131MOL0     H17630   6.484   3.050   4.362  2.3018  1.3679  1.3484
  131MOL0     H17631   6.494   2.876   4.403  1.4342 -0.5866 -0.5231
  131MOL0     H17632   6.280   2.972   4.482  0.7903  0.8558 -0.6017
  131MOL0     H17633   6.369   3.091   4.574  3.5114  0.0967 -0.3961
  131MOL0     H17634   6.452   2.934   4.729 -0.9418  0.1492  0.0653
  131MOL0     H17635   6.279   2.914   4.702 -0.2103 -1.5149  1.4563
  131MOL0     H17636   6.625   2.716   4.641 -0.4886 -1.2978  3.6215
  131MOL0     H17637   6.686   2.482   4.512  0.3967 -1.4531 -1.0611
  131MOL0     H17638   6.621   2.434   4.664 -2.1131  0.7013  0.2383
  131MOL0     H17639   6.471   2.275   4.559  0.3199  0.9732  0.8468
  131MOL0     H17640   6.503   2.337   4.403  1.2713 -2.7751 -1.8466
  131MOL0     H17641   6.729   2.253   4.410 -3.2839  3.1000 -2.6844
  131MOL0     H17642   6.596   2.140   4.416 -0.8910 -0.4134  0.3427
  131MOL0     H17643   6.620   2.070   4.647 -3.0781  2.5091 -1.4326
  131MOL0     H17644   6.739   2.202   4.672 -0.4512  0.4068  0.5901
  131MOL0     H17645   6.765   1.993   4.817 -0.9816 -0.7407 -2.0236
  131MOL0     H17646   6.920   1.843   4.953  2.6798  0.5524  0.7298
  131MOL0     H17647   7.356   1.730   5.109 -1.1712 -0.8095  0.1391
  131MOL0     H17648   7.494   1.570   5.210  0.4123 -2.1626  0.4024
  131MOL0     H17649   7.787   1.358   5.220  0.9774  0.6478 -0.2309
  131MOL0     H17650   7.682   1.497   5.263  0.3802  1.2153 -2.7695
  131MOL0     H17651   7.501   1.345   5.316 -0.1087  0.2932  2.1964
  131MOL0     H17652   7.597   1.200   5.258  1.1016 -0.0554 -0.4959
  131MOL0     H17653   7.754   1.255   5.467  1.5694  1.5267  0.7176
  131MOL0     H17654   7.660   1.397   5.489  2.0418  0.1716 -1.5060
  131MOL0     H17655   7.617   1.144   5.610 -0.6414 -5.3124 -2.7508
  131MOL0     H17656   7.514   1.138   5.470  1.1487  0.2816 -0.5139
  131MOL0     H17657   7.371   1.317   5.565  0.9268 -1.5724 -1.8669
  131MOL0     H17658   7.490   1.366   5.688  0.5725  0.8396  0.3191
  131MOL0     H17659   7.310   1.220   5.780 -0.1214 -1.8258  1.0112
  131MOL0     H17660   7.358   1.097   5.673 -1.5906 -0.0491  0.9328
  131MOL0     H17661   7.536   1.251   5.887  2.9735 -0.0156  0.9133
  131MOL0     H17662   7.590   1.105   5.795  1.9522  1.4757  0.3751
  131MOL0     H17663   7.384   1.122   6.023 -0.7004 -0.2223 -0.0752
  131MOL0     H17664   7.377   0.995   5.895 -0.0574  2.2168 -3.4198
  131MOL0     H17665   7.599   1.418   4.824 -2.4563 -0.9862  0.2814
  131MOL0     H17666   7.447   1.587   4.723  3.4854  0.7413 -0.0315
  131MOL0     H17667   7.177   1.784   4.644  4.0080  1.3133  4.4898
  131MOL0     H17668   7.041   1.939   4.494  0.7967 -3.5213 -0.1335
  131MOL0     H17669   7.241   2.943   4.405  1.1071  0.1574  0.0969
  131MOL0     H17670   7.489   2.907   4.493  2.1112  0.6252  3.3501
  131MOL0     H17671   7.843   2.545   4.592  0.7339 -0.4024 -0.3568
  131MOL0     H17672   8.064   2.516   4.699 -0.7628  0.0429 -0.2692
  131MOL0     H17673   8.282   2.595   4.762 -1.3157  0.0235 -0.6832
  131MOL0     H17674   8.204   2.481   4.866 -0.4051  1.0900  3.7141
  131MOL0     H17675   8.397   2.467   4.962 -2.0136 -0.6213 -4.0281
  131MOL0     H17676   8.338   2.596   5.071  0.3260 -0.9139  0.6778
  131MOL0     H17677   8.450   2.764   4.958 -0.3617  0.1550 -2.0119
  131MOL0     H17678   8.492   2.646   4.823  0.4158 -0.3448  1.0807
  131MOL0     H17679   8.613   2.616   5.099  1.8629  1.4102  0.0158
  131MOL0     H17680   8.625   2.517   4.960 -0.0744 -0.0616 -1.2937
  131MOL0     H17681   8.844   2.889   4.887  0.1328  1.3599  3.4542
  131MOL0     H17682   7.996   2.831   4.961  1.5198 -1.6373  0.8057
  131MOL0     H17683   7.779   2.915   4.994 -2.9051  0.7144  0.5634
  131MOL0     H17684   7.744   2.980   4.824  0.7011  0.1308 -0.7974
  131MOL0     H17685   7.640   2.864   4.917  0.4720 -0.8100 -0.6420
  132MOL0     O17686  11.498   4.097   7.931 -0.1978  0.6736 -0.0444
  132MOL0     C17687  11.518   4.216   7.905  0.8674  0.1887  0.1762
  132MOL0     O17688  11.650   4.271   7.885  0.1650 -0.6576 -0.2659
  132MOL0     C17689  11.767   4.189   7.879  0.2406 -0.0490  0.2982
  132MOL0     C17690  11.777   4.093   7.779  0.6650 -0.2484  0.5499
  132MOL0     C17691  11.905   4.029   7.774  0.4959 -0.1089  0.5435
  132MOL0     C17692  11.993   4.044   7.882 -0.1529 -0.7459  0.3395
  132MOL0     O17693  12.107   3.965   7.874 -0.7022 -0.1141  0.5503
  132MOL0     C17694  12.185   3.932   7.989  0.4009  0.0439 -1.1760
  132MOL0     C17695  12.283   3.817   7.970  0.0988  0.0466  0.2255
  132MOL0     C17696  12.420   3.875   7.907  0.4328 -0.9030 -0.0390
  132MOL0     C17697  12.522   3.766   7.893  0.6506  0.5341 -0.4835
  132MOL0     C17698  12.661   3.804   7.833  0.5310 -0.1662  0.2669
  132MOL0     C17699  12.741   3.914   7.911 -0.8626  0.8436 -0.2057
  132MOL0     C17700  12.889   3.918   7.891 -0.3641 -0.3322  0.0194
  132MOL0     C17701  12.971   4.058   7.917 -0.3318  0.5688 -0.2369
  132MOL0     N17702  13.000   4.087   8.057  0.3102 -0.5732  0.4648
  132MOL0     C17703  12.931   4.182   8.127 -0.5654 -0.2460 -0.0023
  132MOL0     C17704  12.965   4.155   8.260 -0.5101 -0.9421  0.1092
  132MOL0     C17705  12.922   4.221   8.387  0.6713  0.6961 -0.4932
  132MOL0     C17706  12.845   4.356   8.354 -0.1124  0.0379 -0.4527
  132MOL0     C17707  12.784   4.432   8.479 -0.0025  0.2380  0.4946
  132MOL0     C17708  12.708   4.558   8.427  0.4294  0.8716 -0.5040
  132MOL0     O17709  12.778   4.683   8.427  0.3299 -0.0132  0.3793
  132MOL0     C17710  12.737   4.765   8.527 -0.6770 -0.3142  1.1081
  132MOL0     C17711  12.688   4.728   8.652  0.5192 -0.5959 -0.2016
  132MOL0     C17712  12.635   4.822   8.743  0.1518  0.0535  0.1875
  132MOL0     C17713  12.655   4.956   8.718 -1.0395  0.0169  0.8625
  132MOL0     C17714  12.644   5.064   8.819  0.3865 -0.5632 -0.1250
  132MOL0     O17715  12.656   5.200   8.789  0.1066 -0.0977  0.1129
  132MOL0     C17716  12.710   5.280   8.889 -1.1393  0.6334  0.2217
  132MOL0     C17717  12.788   5.238   8.998 -0.2597  0.8527  0.4485
  132MOL0     C17718  12.805   5.335   9.104  0.8065  0.2783 -0.1947
  132MOL0     C17719  12.782   5.470   9.091 -0.8117  1.2866  1.1724
  132MOL0     O17720  12.827   5.574   9.167 -0.5421  0.2190  0.4289
  132MOL0     C17721  12.958   5.570   9.224 -0.2862  0.4139  0.0161
  132MOL0     C17722  12.968   5.703   9.286 -0.2058  0.7887  0.5450
  132MOL0     C17723  13.115   5.734   9.327 -0.5945  0.0770 -0.2643
  132MOL0     C17724  13.110   5.853   9.425 -0.1126 -0.7275 -1.1829
  132MOL0     C17725  13.252   5.874   9.499 -0.4945  0.5958 -0.9751
  132MOL0     C17726  13.330   5.982   9.430 -0.0574  0.1177  0.2649
  132MOL0     C17727  13.430   6.042   9.528  0.2000  0.0231 -0.3973
  132MOL0     C17728  13.540   6.126   9.472 -0.6409  0.2226  0.5885
  132MOL0    Cl17729  13.669   6.024   9.395 -0.6451 -0.3039  0.2594
  132MOL0     C17730  12.718   5.503   8.973  0.3909  0.0888 -0.8439
  132MOL0     C17731  12.674   5.406   8.873  0.3587 -0.0713  0.1768
  132MOL0     O17732  12.613   5.027   8.931  0.6199  0.6988 -0.3607
  132MOL0     C17733  12.713   4.996   8.597  0.4218 -0.2610  0.7113
  132MOL0     C17734  12.747   4.896   8.498 -0.5030 -0.5372  0.3982
  132MOL0     N17735  13.045   4.040   8.260  0.6008  0.0560  0.1080
  132MOL0     N17736  13.052   3.998   8.140  0.3373  0.2951  0.3736
  132MOL0     C17737  11.976   4.145   7.984 -0.2886  0.7985 -0.0401
  132MOL0     C17738  11.859   4.218   7.978 -0.4193  0.3952 -0.0572
  132MOL0     C17739  11.406   4.316   7.911  0.0216  0.9514  0.6245
  132MOL0     C17740  11.439   4.455   7.935 -0.0302  0.9456 -0.2413
  132MOL0     C17741  11.339   4.549   7.939  0.2967  0.1011 -0.1954
  132MOL0     C17742  11.202   4.512   7.917  0.0133 -0.2797 -0.4160
  132MOL0     O17743  11.114   4.621   7.917  0.2877  0.3149 -0.1117
  132MOL0     C17744  10.977   4.602   7.891  0.2931 -0.3011  0.5501
  132MOL0     C17745  10.909   4.666   8.015  0.4822  0.3427 -0.0535
  132MOL0     C17746  10.958   4.814   8.036  0.4552  0.2530  0.0613
  132MOL0     C17747  10.845   4.909   8.080  0.3927  0.3908 -0.1935
  132MOL0     C17748  10.805   4.875   8.215  0.3034  0.5088 -0.3541
  132MOL0     C17749  10.784   4.860   8.334  1.5389  0.8753  0.0964
  132MOL0     C17750  11.171   4.378   7.883  0.1801 -0.0182  0.0256
  132MOL0     C17751  11.272   4.285   7.877 -0.0073 -0.0278 -0.6542
  132MOL0     C17752  11.238   4.144   7.818 -0.4163 -0.6595  0.7404
  132MOL0     H17753  11.693   4.077   7.711  1.6733 -1.2877 -0.4898
  132MOL0     H17754  11.921   3.974   7.681 -0.4292  1.4252 -0.5760
  132MOL0     H17755  12.245   4.021   8.011 -2.4119  1.6277  0.5748
  132MOL0     H17756  12.119   3.914   8.074 -0.9786  2.0125 -1.7741
  132MOL0     H17757  12.229   3.754   7.898  1.2471 -3.0794  1.9137
  132MOL0     H17758  12.303   3.745   8.049  1.0319  1.2846  1.1610
  132MOL0     H17759  12.464   3.949   7.975  1.2213  1.0534 -2.5024
  132MOL0     H17760  12.410   3.929   7.812  1.7987 -1.0283 -0.2651
  132MOL0     H17761  12.539   3.711   7.986  1.2673 -0.0559 -0.9364
  132MOL0     H17762  12.477   3.695   7.823  2.7771  0.4643 -1.8343
  132MOL0     H17763  12.721   3.712   7.834  0.3910 -0.3996  4.2331
  132MOL0     H17764  12.650   3.830   7.727 -1.3989  0.3278  0.5440
  132MOL0     H17765  12.696   4.014   7.902 -1.8834  0.5709  1.3897
  132MOL0     H17766  12.737   3.891   8.018  1.1813  0.4509 -0.1830
  132MOL0     H17767  12.911   3.888   7.788  2.4325 -3.0801  1.2643
  132MOL0     H17768  12.940   3.838   7.945  1.0448  0.2025 -0.4539
  132MOL0     H17769  13.073   4.044   7.879 -0.0324  0.4457  0.5855
  132MOL0     H17770  12.931   4.149   7.872  0.0455  0.4198 -0.8849
  132MOL0     H17771  12.876   4.263   8.079 -0.1601  1.5893  2.3917
  132MOL0     H17772  12.850   4.165   8.448  1.8746  0.6316  0.9176
  132MOL0     H17773  13.007   4.245   8.451 -0.0942  2.0655  0.0669
  132MOL0     H17774  12.916   4.420   8.301  1.0202 -1.9214 -1.4048
  132MOL0     H17775  12.769   4.329   8.280  1.4644  0.3267 -2.2630
  132MOL0     H17776  12.868   4.474   8.536  0.4757  2.6926 -1.7744
  132MOL0     H17777  12.727   4.369   8.548  1.3772  1.8366  3.2638
  132MOL0     H17778  12.614   4.569   8.480  0.1367  1.6150 -1.1533
  132MOL0     H17779  12.657   4.538   8.332 -2.4933  0.4025  1.0584
  132MOL0     H17780  12.698   4.622   8.672 -2.6072 -1.2923 -1.6954
  132MOL0     H17781  12.600   4.786   8.839 -5.6632  1.6403 -0.9353
  132MOL0     H17782  12.813   5.134   9.013 -1.6996  0.7360  2.3290
  132MOL0     H17783  12.841   5.298   9.200 -0.3604 -2.0495 -0.5646
  132MOL0     H17784  12.977   5.491   9.297  0.1038  2.7051  2.5633
  132MOL0     H17785  13.037   5.556   9.149  1.0794 -2.4966  1.8392
  132MOL0     H17786  12.937   5.776   9.210 -2.9200  1.1838  1.9125
  132MOL0     H17787  12.899   5.718   9.369  0.7512  1.7822  1.1838
  132MOL0     H17788  13.162   5.644   9.366  1.3057  0.9509 -0.4491
  132MOL0     H17789  13.183   5.748   9.242 -0.1487  1.0902  0.2458
  132MOL0     H17790  13.035   5.851   9.504  0.9050  1.8504 -0.0329
  132MOL0     H17791  13.074   5.939   9.368  0.0292  1.0486  1.2570
  132MOL0     H17792  13.302   5.777   9.490  2.1200  1.6984  0.5771
  132MOL0     H17793  13.223   5.898   9.602  2.1646 -1.5315  0.3964
  132MOL0     H17794  13.382   5.949   9.339  1.7477 -0.1809  1.3559
  132MOL0     H17795  13.258   6.061   9.409 -1.4117 -1.9115 -3.7880
  132MOL0     H17796  13.479   5.965   9.589 -0.2036  2.4004  3.2645
  132MOL0     H17797  13.395   6.110   9.607  0.4883 -1.3787  0.9988
  132MOL0     H17798  13.503   6.199   9.400 -1.0082 -1.5657 -1.1474
  132MOL0     H17799  13.582   6.179   9.558 -0.3630  1.7091 -0.4186
  132MOL0     H17800  12.713   5.609   8.953  2.5411 -0.0877 -2.8119
  132MOL0     H17801  12.623   5.444   8.785  1.8213  2.7009  0.3905
  132MOL0     H17802  12.730   5.101   8.575 -2.1659 -0.3283 -2.4115
  132MOL0     H17803  12.796   4.933   8.408 -1.0450 -2.2914 -0.6658
  132MOL0     H17804  12.045   4.165   8.065 -0.3783 -0.9541  0.5115
  132MOL0     H17805  11.848   4.290   8.058  0.9746  1.8204 -1.1019
  132MOL0     H17806  11.542   4.487   7.948  0.7827 -0.7038 -2.1763
  132MOL0     H17807  11.380   4.647   7.957  1.2791 -0.4962  0.9520
  132MOL0     H17808  10.933   4.502   7.884 -0.1511 -0.0056 -1.6400
  132MOL0     H17809  10.936   4.654   7.804 -1.6168 -0.9849  0.9782
  132MOL0     H17810  10.909   4.607   8.107 -3.7872 -0.2892 -0.2816
  132MOL0     H17811  10.802   4.665   7.993  0.7002  1.2461 -1.2082
  132MOL0     H17812  11.002   4.845   7.941  0.2721  2.9146  0.7571
  132MOL0     H17813  11.036   4.824   8.112 -1.0637  2.3300  1.4588
  132MOL0     H17814  10.865   5.015   8.061  0.2008  0.6055  0.7316
  132MOL0     H17815  10.753   4.893   8.024  0.2606 -1.6331  0.5342
  132MOL0     H17816  10.766   4.852   8.440  1.0985 -0.4390 -0.0526
  132MOL0     H17817  11.069   4.355   7.853  0.6152 -1.8602 -0.1391
  132MOL0     H17818  11.150   4.155   7.755 -0.3580 -0.5011  0.6875
  132MOL0     H17819  11.317   4.119   7.747 -0.4497  2.9991 -0.8303
  132MOL0     H17820  11.241   4.068   7.897  3.2645 -2.9722 -1.3163
  133MOL0     O17821   9.662   3.857   5.904  0.5240 -0.5129  0.4066
  133MOL0     C17822   9.618   3.838   6.013 -0.3276  0.2595 -0.6792
  133MOL0     O17823   9.489   3.794   6.041  1.3394 -0.3025 -0.3805
  133MOL0     C17824   9.411   3.726   5.951 -0.2016 -0.5685  0.2197
  133MOL0     C17825   9.411   3.589   5.959 -0.3677  1.0300 -0.9107
  133MOL0     C17826   9.330   3.512   5.868  0.6657 -0.2590 -0.7002
  133MOL0     C17827   9.250   3.577   5.773  0.4122  0.4009 -0.3052
  133MOL0     O17828   9.172   3.507   5.691  0.0568 -0.2879 -0.3688
  133MOL0     C17829   9.228   3.414   5.598 -0.3023 -0.3569 -0.4845
  133MOL0     C17830   9.204   3.477   5.461 -0.1018 -0.3006  0.4772
  133MOL0     C17831   9.295   3.398   5.363 -0.0049 -0.3179 -0.3190
  133MOL0     C17832   9.259   3.398   5.219  0.0238 -0.3979  0.9847
  133MOL0     C17833   9.373   3.335   5.136 -0.5626 -0.2492  0.5031
  133MOL0     C17834   9.317   3.260   5.012  0.2803 -0.6325  0.2201
  133MOL0     C17835   9.280   3.344   4.889 -0.1954 -0.3627  0.3433
  133MOL0     C17836   9.158   3.285   4.818  0.3819  0.1003  0.2153
  133MOL0     N17837   9.168   3.141   4.790 -0.2472 -0.5194 -0.0250
  133MOL0     C17838   9.258   3.088   4.701 -0.1635  0.8250  0.6612
  133MOL0     C17839   9.226   2.950   4.696  0.0911 -0.6331  0.4303
  133MOL0     C17840   9.287   2.847   4.614 -0.1144 -0.8199  0.4221
  133MOL0     C17841   9.447   2.851   4.604 -0.6342 -0.1434 -0.3402
  133MOL0     C17842   9.509   2.782   4.712 -0.1714  0.7835 -0.3634
  133MOL0     C17843   9.524   2.857   4.843  1.1625 -0.8382  0.8362
  133MOL0     O17844   9.634   2.812   4.921 -0.8595  0.6445 -0.3487
  133MOL0     C17845   9.707   2.896   4.998  0.0346  0.0120 -0.3804
  133MOL0     C17846   9.698   3.034   4.996 -0.0710 -0.6865  0.0166
  133MOL0     C17847   9.757   3.108   5.099  0.6934 -0.0968  0.0715
  133MOL0     C17848   9.839   3.048   5.201 -0.0371 -0.4787  0.3910
  133MOL0     C17849   9.901   3.141   5.308 -0.2674  1.3394 -0.5713
  133MOL0     O17850   9.997   3.089   5.382 -0.6349 -0.2521  0.2480
  133MOL0     C17851  10.036   3.169   5.483  0.0523  0.5447  0.0520
  133MOL0     C17852   9.954   3.185   5.594 -0.5224 -0.7059 -0.0223
  133MOL0     C17853  10.003   3.262   5.702 -0.1240 -0.0753  0.5601
  133MOL0     C17854  10.124   3.330   5.698 -0.2935  0.8360  0.0174
  133MOL0     O17855  10.149   3.405   5.807 -0.3885 -0.0460 -0.5479
  133MOL0     C17856  10.290   3.419   5.840 -0.4571 -0.4410  0.2540
  133MOL0     C17857  10.292   3.450   5.990  0.3969  0.8741  0.6367
  133MOL0     C17858  10.433   3.468   6.028  0.7164 -0.3188 -0.6141
  133MOL0     C17859  10.450   3.534   6.164  0.5056  0.6179  0.9253
  133MOL0     C17860  10.430   3.430   6.276  0.3619 -0.1954 -1.6971
  133MOL0     C17861  10.479   3.493   6.410  0.2393 -0.3000  0.1448
  133MOL0     C17862  10.434   3.413   6.535  0.1742  0.4278 -0.5471
  133MOL0     C17863  10.282   3.428   6.559  0.5340 -0.1824 -0.4837
  133MOL0    Cl17864  10.243   3.596   6.608  0.0363 -0.5328  0.0027
  133MOL0     C17865  10.199   3.314   5.585 -1.4443 -0.2271 -0.2959
  133MOL0     C17866  10.158   3.228   5.476 -0.5165  0.4393  0.1225
  133MOL0     O17867   9.831   3.241   5.338  0.2994  0.6891 -0.3399
  133MOL0     C17868   9.850   2.908   5.196 -0.1257  0.6797 -0.4242
  133MOL0     C17869   9.793   2.839   5.097 -0.4022  0.3223  0.1136
  133MOL0     N17870   9.125   2.930   4.791 -0.4791 -0.3096  0.4085
  133MOL0     N17871   9.086   3.047   4.839  0.2096  0.0614 -0.0390
  133MOL0     C17872   9.255   3.722   5.757 -0.4568  0.5188 -0.4275
  133MOL0     C17873   9.339   3.790   5.851  0.2352 -0.3297  0.4180
  133MOL0     C17874   9.702   3.847   6.133  0.2179 -0.3012 -0.9425
  133MOL0     C17875   9.653   3.924   6.246 -0.0180  0.3114  0.4795
  133MOL0     C17876   9.735   3.945   6.356  0.3331  0.1094 -0.0689
  133MOL0     C17877   9.860   3.880   6.359  0.5663 -0.2411  0.4756
  133MOL0     O17878   9.957   3.890   6.461 -0.7177  0.3379  0.3430
  133MOL0     C17879   9.924   3.956   6.580 -0.4569  0.2734 -0.4347
  133MOL0     C17880   9.841   3.862   6.666 -0.3876 -0.1694 -0.3549
  133MOL0     C17881   9.833   3.915   6.804  0.2180 -0.6257 -0.5365
  133MOL0     C17882   9.722   4.028   6.832  0.0898  0.5179  0.0503
  133MOL0     C17883   9.764   4.161   6.773  0.5879  0.2167  0.3212
  133MOL0     C17884   9.798   4.273   6.746  0.3128  0.3181 -0.4836
  133MOL0     C17885   9.911   3.809   6.247  0.4845 -0.1486  0.6309
  133MOL0     C17886   9.837   3.800   6.128 -1.1641  0.2270 -1.3459
  133MOL0     C17887   9.886   3.705   6.032 -0.2649 -0.3804  0.8717
  133MOL0     H17888   9.477   3.536   6.027 -1.1917  0.3307 -0.6320
  133MOL0     H17889   9.343   3.405   5.886  2.6742  0.3895  2.6071
  133MOL0     H17890   9.336   3.402   5.614  0.1505  1.4999 -1.8364
  133MOL0     H17891   9.188   3.313   5.612  0.7330 -0.5434  1.4527
  133MOL0     H17892   9.221   3.585   5.463  2.5543 -0.6505  0.9569
  133MOL0     H17893   9.096   3.465   5.450 -0.3693  2.1760 -0.2431
  133MOL0     H17894   9.302   3.293   5.394  0.1676 -0.6819 -1.5527
  133MOL0     H17895   9.392   3.442   5.389 -0.9539  2.3069 -0.8575
  133MOL0     H17896   9.167   3.340   5.204  0.3936 -0.9358  0.7671
  133MOL0     H17897   9.241   3.502   5.192  1.8512 -0.7509 -1.9706
  133MOL0     H17898   9.441   3.411   5.097 -1.9939  0.5852 -0.4339
  133MOL0     H17899   9.431   3.274   5.206 -1.8844  1.3890  3.2014
  133MOL0     H17900   9.405   3.199   4.987 -2.0856 -5.0806  1.5809
  133MOL0     H17901   9.232   3.195   5.034 -0.7134  1.6499  3.9309
  133MOL0     H17902   9.364   3.345   4.818  0.3992 -1.0943  1.0124
  133MOL0     H17903   9.249   3.447   4.909 -1.1945 -0.5103 -0.3964
  133MOL0     H17904   9.071   3.292   4.885 -0.3152  0.3795 -0.7064
  133MOL0     H17905   9.138   3.340   4.726  3.0281  3.5884  1.4776
  133MOL0     H17906   9.341   3.124   4.640  2.1857 -1.5772  2.2131
  133MOL0     H17907   9.248   2.747   4.636 -2.2416  0.5040  3.4150
  133MOL0     H17908   9.253   2.866   4.512 -0.3800 -2.3468  0.1950
  133MOL0     H17909   9.475   2.793   4.516  1.3714 -0.5280  0.5100
  133MOL0     H17910   9.482   2.952   4.584 -2.2430  0.9580  1.8975
  133MOL0     H17911   9.612   2.769   4.680  0.0762  1.7450  0.0224
  133MOL0     H17912   9.470   2.685   4.746  1.3203  0.7327  1.3584
  133MOL0     H17913   9.436   2.844   4.907  0.5895 -1.4782 -0.0494
  133MOL0     H17914   9.542   2.963   4.823  0.4696 -0.6534  1.1641
  133MOL0     H17915   9.621   3.081   4.935 -0.1451 -0.6292  0.1541
  133MOL0     H17916   9.735   3.215   5.108  1.1267 -0.1198  1.6260
  133MOL0     H17917   9.865   3.125   5.611 -0.6650 -0.0132  1.8855
  133MOL0     H17918   9.948   3.271   5.795  0.3768  3.3532  0.6587
  133MOL0     H17919  10.351   3.329   5.828 -0.8422 -0.4039 -2.5198
  133MOL0     H17920  10.330   3.494   5.771 -1.1634 -1.5631 -1.4517
  133MOL0     H17921  10.232   3.541   6.001  2.4484  2.5799 -1.1394
  133MOL0     H17922  10.237   3.385   6.058 -3.1826 -1.5577 -3.9376
  133MOL0     H17923  10.499   3.382   6.014  1.4560 -0.2353  1.8665
  133MOL0     H17924  10.473   3.542   5.958  1.6083 -0.0543  0.1567
  133MOL0     H17925  10.392   3.626   6.173  2.1954  1.6392  1.8425
  133MOL0     H17926  10.549   3.581   6.162  1.7604 -1.8903 -0.4168
  133MOL0     H17927  10.488   3.339   6.256  1.3315 -0.3582  1.3222
  133MOL0     H17928  10.332   3.382   6.288  0.4481  0.2615  1.7696
  133MOL0     H17929  10.587   3.511   6.418  0.3793 -0.7116 -0.6366
  133MOL0     H17930  10.433   3.592   6.414  1.3199  0.1863  0.9893
  133MOL0     H17931  10.486   3.454   6.622 -1.3279  2.4803 -0.5332
  133MOL0     H17932  10.455   3.307   6.520  1.0447  0.1678  2.0114
  133MOL0     H17933  10.220   3.412   6.470 -0.3267  0.2914  0.0183
  133MOL0     H17934  10.244   3.352   6.628 -1.2517  1.0289 -0.0731
  133MOL0     H17935  10.291   3.370   5.570 -1.1638 -0.8751 -1.0876
  133MOL0     H17936  10.207   3.217   5.379 -0.0877 -2.3379  0.5568
  133MOL0     H17937   9.911   2.852   5.265 -1.6012 -2.0477 -1.1904
  133MOL0     H17938   9.806   2.731   5.098 -1.1073  0.1455 -2.4080
  133MOL0     H17939   9.200   3.768   5.676  3.0901  1.0915 -2.7492
  133MOL0     H17940   9.335   3.897   5.834 -2.3074 -0.6649 -1.9221
  133MOL0     H17941   9.557   3.976   6.244 -0.9116 -1.1853 -2.8724
  133MOL0     H17942   9.716   4.010   6.441  0.8725 -1.8396  1.6192
  133MOL0     H17943   9.877   4.053   6.565  3.1296  2.0383 -1.3138
  133MOL0     H17944  10.016   3.979   6.633 -0.3023 -2.1191  0.4462
  133MOL0     H17945   9.886   3.763   6.662  1.0976  0.5190 -1.4180
  133MOL0     H17946   9.736   3.868   6.635 -1.1746  2.8036  2.2948
  133MOL0     H17947   9.928   3.945   6.849  0.5272  0.2196 -1.7039
  133MOL0     H17948   9.801   3.832   6.867  1.9754  0.2016  1.5744
  133MOL0     H17949   9.632   3.989   6.784  1.5710  0.8215 -3.2950
  133MOL0     H17950   9.708   4.041   6.940  1.0254  0.6909  0.1615
  133MOL0     H17951   9.815   4.374   6.715 -1.6802  1.2291  1.0614
  133MOL0     H17952  10.012   3.771   6.247  0.4315 -0.2876  0.8430
  133MOL0     H17953   9.912   3.766   5.945 -1.3431 -1.1639 -0.0393
  133MOL0     H17954   9.974   3.647   6.062  2.1979  0.5094 -3.7566
  133MOL0     H17955   9.808   3.631   6.008 -1.1742  0.4115  1.2997
  134MOL0     O17956   7.349   2.105   6.708  0.8962 -0.0817  0.4210
  134MOL0     C17957   7.260   2.140   6.782  0.3466  0.1849 -0.0680
  134MOL0     O17958   7.275   2.135   6.920  0.2015  0.1500  0.4631
  134MOL0     C17959   7.395   2.101   6.963 -0.6975  1.0795 -0.4877
  134MOL0     C17960   7.433   1.963   6.969 -0.1039  0.8972 -0.5754
  134MOL0     C17961   7.567   1.934   7.004  0.1644  0.3552 -0.0530
  134MOL0     C17962   7.663   2.033   7.053  0.0715  0.6984  0.5776
  134MOL0     O17963   7.792   2.007   7.099 -0.2815 -0.2403  0.1917
  134MOL0     C17964   7.830   1.872   7.136  0.3664 -0.1135 -1.0178
  134MOL0     C17965   7.888   1.801   7.025  0.5279 -0.3977 -0.0275
  134MOL0     C17966   7.960   1.673   7.078  0.6302  0.6257 -0.0759
  134MOL0     C17967   7.874   1.543   7.073 -0.0923 -0.8540 -0.6099
  134MOL0     C17968   7.914   1.437   7.169  0.5594  0.7238 -0.2548
  134MOL0     C17969   8.038   1.365   7.122  0.3603 -0.3966 -1.0642
  134MOL0     C17970   8.051   1.223   7.171 -0.1564 -0.4859 -0.1284
  134MOL0     C17971   8.121   1.138   7.069 -0.5843 -0.2081  0.7375
  134MOL0     N17972   8.159   1.015   7.145 -0.3981 -0.4254  0.7315
  134MOL0     C17973   8.266   1.011   7.228 -0.4540  0.4991  0.1778
  134MOL0     C17974   8.272   0.882   7.275  0.4351 -0.1806 -0.1283
  134MOL0     C17975   8.349   0.830   7.385 -1.1079  0.5002 -0.2772
  134MOL0     C17976   8.269   0.744   7.486  1.1458 -0.3080  0.0367
  134MOL0     C17977   8.359   0.678   7.584 -0.0561  0.0205 -0.5788
  134MOL0     C17978   8.425   0.550   7.540 -0.0146  0.9240  0.6721
  134MOL0     O17979   8.349   0.483   7.435 -0.4547 -0.4733 -0.7587
  134MOL0     C17980   8.393   0.356   7.395  0.9229 -0.7839 -0.3477
  134MOL0     C17981   8.325   0.292   7.292  0.1309  0.0760  0.3721
  134MOL0     C17982   8.371   0.163   7.249  0.6334  0.1372 -1.3256
  134MOL0     C17983   8.478   0.091   7.311  0.8037 -0.2986 -0.4099
  134MOL0     C17984   8.528  -0.028   7.256 -0.4106 -0.2638 -0.4605
  134MOL0     O17985   8.661  -0.050   7.267 -0.1824 -0.2323  0.0445
  134MOL0     C17986   8.725  -0.160   7.212 -0.1061 -0.2335 -0.3120
  134MOL0     C17987   8.687  -0.297   7.229  0.4379  0.9045  1.5080
  134MOL0     C17988   8.765  -0.399   7.189 -0.2301  1.1531 -0.1890
  134MOL0     C17989   8.887  -0.382   7.127 -0.0632 -1.5587 -0.5944
  134MOL0     O17990   8.960  -0.494   7.107 -0.2779  0.0204  0.1300
  134MOL0     C17991   9.085  -0.461   7.033  0.8554  0.2134 -0.2469
  134MOL0     C17992   9.155  -0.592   7.009 -0.4276  0.0751  0.1462
  134MOL0     C17993   9.310  -0.556   6.996  1.3594 -0.6643  0.7798
  134MOL0     C17994   9.379  -0.577   7.128 -0.8378 -0.9849  0.0667
  134MOL0     C17995   9.447  -0.705   7.153 -0.1856  0.8810 -0.2229
  134MOL0     C17996   9.484  -0.738   7.296 -0.0212  0.7953 -0.8846
  134MOL0     C17997   9.507  -0.883   7.318 -0.4930 -0.2772 -0.1874
  134MOL0     C17998   9.611  -0.942   7.218 -0.1446 -0.2364  0.0695
  134MOL0    Cl17999   9.654  -1.113   7.254 -0.2574 -0.1618  0.2267
  134MOL0     C18000   8.928  -0.251   7.097  0.4651 -0.4467 -0.6043
  134MOL0     C18001   8.841  -0.142   7.136 -0.5005  0.0953 -0.3495
  134MOL0     O18002   8.443  -0.100   7.210 -0.0626  1.1675  0.5681
  134MOL0     C18003   8.549   0.160   7.412 -0.1846 -0.2308 -0.8015
  134MOL0     C18004   8.511   0.297   7.446  0.2047 -0.1788 -0.3649
  134MOL0     N18005   8.175   0.814   7.209 -0.4845  0.1128  1.0597
  134MOL0     N18006   8.109   0.890   7.119 -0.4979  0.3859 -0.0833
  134MOL0     C18007   7.620   2.166   7.036 -0.3599  0.2360  0.1974
  134MOL0     C18008   7.483   2.193   7.004 -0.9346 -0.2640 -0.0159
  134MOL0     C18009   7.126   2.193   6.735 -0.4727 -0.3502  0.1474
  134MOL0     C18010   7.024   2.229   6.835  1.3369  0.5312  0.4786
  134MOL0     C18011   6.896   2.280   6.795  0.0528 -0.3053 -0.6214
  134MOL0     C18012   6.871   2.291   6.656 -0.4233  1.0959 -0.5631
  134MOL0     O18013   6.743   2.313   6.600 -0.2082 -1.3014 -0.1546
  134MOL0     C18014   6.621   2.310   6.685  0.9694  0.7150 -0.0943
  134MOL0     C18015   6.494   2.288   6.604 -0.9609  0.2406 -1.2036
  134MOL0     C18016   6.495   2.164   6.505  0.4709 -0.6457 -0.8840
  134MOL0     C18017   6.582   2.043   6.553  0.2303 -0.0498  1.9979
  134MOL0     C18018   6.552   1.986   6.682  1.1892  0.6076 -0.6459
  134MOL0     C18019   6.540   1.930   6.791 -0.3245  1.6269  0.6309
  134MOL0     C18020   6.967   2.256   6.561 -0.3221  0.0584 -0.2828
  134MOL0     C18021   7.085   2.199   6.598 -0.7326 -0.5721  1.1758
  134MOL0     C18022   7.168   2.156   6.477  0.4560 -0.5116  0.0432
  134MOL0     H18023   7.361   1.885   6.949  0.1214  0.6399 -0.3960
  134MOL0     H18024   7.586   1.828   6.986  0.0369  0.6742 -2.2280
  134MOL0     H18025   7.889   1.871   7.228 -2.2072 -0.1030  0.7349
  134MOL0     H18026   7.734   1.843   7.179  1.5690  1.4387  3.1776
  134MOL0     H18027   7.970   1.854   6.976  0.8015 -2.3824 -1.8717
  134MOL0     H18028   7.831   1.785   6.933  1.0229 -0.6481 -0.2964
  134MOL0     H18029   8.003   1.692   7.177  2.9707  0.6247 -1.0417
  134MOL0     H18030   8.055   1.669   7.025 -0.0186  0.8528 -1.2900
  134MOL0     H18031   7.770   1.573   7.087  0.3100  0.6751 -0.8218
  134MOL0     H18032   7.872   1.514   6.968 -2.8933 -2.0577 -0.3224
  134MOL0     H18033   7.935   1.486   7.264 -1.7189  1.1766  0.0581
  134MOL0     H18034   7.839   1.361   7.190  0.1301  1.6588  1.9265
  134MOL0     H18035   8.053   1.373   7.014  3.0672 -1.7927 -0.8936
  134MOL0     H18036   8.129   1.415   7.156  0.3314  0.6796 -2.5065
  134MOL0     H18037   7.955   1.173   7.189 -0.7298  0.4971 -0.4039
  134MOL0     H18038   8.106   1.221   7.265 -2.7185  1.9870  1.5725
  134MOL0     H18039   8.057   1.114   6.983 -0.8084 -2.7956  1.5299
  134MOL0     H18040   8.209   1.183   7.024 -2.2899  0.5931 -2.0981
  134MOL0     H18041   8.324   1.092   7.271  2.9939 -0.2130 -2.6723
  134MOL0     H18042   8.417   0.763   7.331  4.2144  4.7537  0.2325
  134MOL0     H18043   8.405   0.917   7.421  0.3966  0.4413 -2.2967
  134MOL0     H18044   8.205   0.809   7.547 -0.2921 -2.6987  1.2358
  134MOL0     H18045   8.205   0.672   7.434  1.2744 -1.5563  1.5573
  134MOL0     H18046   8.300   0.652   7.672  0.5561  0.3877 -0.0458
  134MOL0     H18047   8.427   0.758   7.615 -2.9038  1.6726  1.9474
  134MOL0     H18048   8.428   0.478   7.622 -0.9599  2.2383  1.9115
  134MOL0     H18049   8.524   0.570   7.497  1.0476 -0.5758  2.2660
  134MOL0     H18050   8.248   0.353   7.245  0.5380 -0.5025 -1.1225
  134MOL0     H18051   8.318   0.119   7.165  0.5375 -1.3842 -0.5062
  134MOL0     H18052   8.593  -0.318   7.280  1.5284  0.0001  3.2661
  134MOL0     H18053   8.734  -0.501   7.211 -3.4388  1.8001 -1.2659
  134MOL0     H18054   9.060  -0.410   6.940  1.7362 -0.5129 -0.8932
  134MOL0     H18055   9.140  -0.394   7.100  0.6288  0.8349 -0.6642
  134MOL0     H18056   9.123  -0.659   7.088 -0.2570  0.0452  0.1916
  134MOL0     H18057   9.128  -0.640   6.915 -4.8353  0.1931  1.1583
  134MOL0     H18058   9.350  -0.628   6.924  1.9030 -0.8351  1.2465
  134MOL0     H18059   9.322  -0.451   6.964 -3.5013 -0.8153 -2.6777
  134MOL0     H18060   9.304  -0.569   7.208  0.6622  0.5442  1.3670
  134MOL0     H18061   9.446  -0.497   7.158  0.0921 -0.0886 -3.8715
  134MOL0     H18062   9.528  -0.730   7.084  0.8673  1.2922  0.8268
  134MOL0     H18063   9.376  -0.786   7.135  1.6799 -1.1806  1.1472
  134MOL0     H18064   9.573  -0.683   7.329  1.2149 -2.4001  1.6209
  134MOL0     H18065   9.412  -0.697   7.367  2.2116 -0.2672  2.2285
  134MOL0     H18066   9.413  -0.938   7.315 -0.2136 -0.7270 -1.3901
  134MOL0     H18067   9.546  -0.905   7.418 -2.3077  1.3833  0.9321
  134MOL0     H18068   9.592  -0.931   7.111 -0.9228  2.9730  0.4299
  134MOL0     H18069   9.699  -0.877   7.228  0.3335 -0.9273  0.4683
  134MOL0     H18070   9.024  -0.224   7.056 -1.0166  2.8343 -2.3297
  134MOL0     H18071   8.881  -0.042   7.122 -1.9547  0.9992  1.5313
  134MOL0     H18072   8.637   0.109   7.451  0.0520  0.6718 -0.1307
  134MOL0     H18073   8.574   0.342   7.522 -1.5341 -1.1401  1.7436
  134MOL0     H18074   7.683   2.252   7.058  1.2439 -0.4718 -1.3919
  134MOL0     H18075   7.441   2.292   6.987 -3.6146 -1.8655 -4.3122
  134MOL0     H18076   7.066   2.222   6.935  3.1421 -4.3674 -0.3237
  134MOL0     H18077   6.829   2.323   6.869  1.3317  1.4082 -0.4063
  134MOL0     H18078   6.619   2.401   6.746  1.3923 -0.0132  1.0413
  134MOL0     H18079   6.627   2.230   6.759  0.7680  0.6493 -0.1511
  134MOL0     H18080   6.486   2.382   6.548  0.8420 -1.3101 -4.3131
  134MOL0     H18081   6.409   2.279   6.672  0.8304  1.3420  1.3400
  134MOL0     H18082   6.539   2.200   6.411  0.9259  1.2197  0.0048
  134MOL0     H18083   6.394   2.133   6.477  0.1459  0.3915 -0.9021
  134MOL0     H18084   6.570   1.970   6.473  1.0797  4.9503 -3.4207
  134MOL0     H18085   6.684   2.081   6.564 -0.0746  1.0316  1.2098
  134MOL0     H18086   6.548   1.876   6.883  0.1320  0.5097 -0.0501
  134MOL0     H18087   6.934   2.245   6.458 -1.5941  1.1059 -0.0148
  134MOL0     H18088   7.255   2.222   6.476 -0.5017  0.7744 -0.9981
  134MOL0     H18089   7.204   2.052   6.483  0.3143 -0.5450  0.3393
  134MOL0     H18090   7.116   2.164   6.382  1.2398 -0.6765 -0.4130
  135MOL0     O18091   6.083   0.168   8.765 -0.4336 -0.6390  0.2788
  135MOL0     C18092   6.061   0.114   8.657  0.7964 -0.7233 -0.4668
  135MOL0     O18093   6.046   0.180   8.535 -0.0890  0.3718  0.5946
  135MOL0     C18094   6.069   0.317   8.503  0.3181  0.6900  0.2822
  135MOL0     C18095   6.049   0.365   8.371  0.6608  0.5815 -0.1166
  135MOL0     C18096   6.063   0.499   8.340  0.2214  0.9573  0.3486
  135MOL0     C18097   6.142   0.575   8.425 -0.1758 -0.0594 -0.7048
  135MOL0     O18098   6.183   0.695   8.379  0.3467  0.3815  0.3242
  135MOL0     C18099   6.322   0.738   8.385  0.6479  0.4524  0.5024
  135MOL0     C18100   6.386   0.668   8.263 -0.0773  0.2167 -0.3615
  135MOL0     C18101   6.540   0.680   8.254 -0.6601 -0.8780 -0.0447
  135MOL0     C18102   6.598   0.818   8.258  0.1113 -0.4677 -0.5116
  135MOL0     C18103   6.751   0.835   8.263  0.1561  0.5121 -1.4951
  135MOL0     C18104   6.826   0.757   8.163  0.0390  0.5340  0.6319
  135MOL0     C18105   6.976   0.809   8.130  0.3911 -0.7492 -1.0626
  135MOL0     C18106   7.058   0.740   8.012  1.1831 -0.5494  0.1216
  135MOL0     N18107   6.991   0.770   7.882 -0.7246 -0.7088 -0.5314
  135MOL0     C18108   6.963   0.897   7.836 -0.5056 -0.9705  1.2093
  135MOL0     C18109   6.902   0.881   7.707 -0.2898 -0.4647 -0.8313
  135MOL0     C18110   6.837   0.976   7.611 -0.7575 -0.3904  0.2442
  135MOL0     C18111   6.692   0.997   7.637  1.1160  0.1566 -0.6675
  135MOL0     C18112   6.636   1.109   7.542  0.1337  0.1173 -0.5869
  135MOL0     C18113   6.483   1.098   7.542  0.5808 -0.1708 -0.2463
  135MOL0     O18114   6.428   0.974   7.489 -0.1487 -0.2363 -0.0865
  135MOL0     C18115   6.288   0.958   7.469 -0.2309  0.2912 -0.1125
  135MOL0     C18116   6.248   0.865   7.374 -0.5984 -0.2464 -0.6761
  135MOL0     C18117   6.113   0.853   7.345  0.4808 -0.6360 -0.9775
  135MOL0     C18118   6.016   0.921   7.416  0.5138  0.4494  0.3504
  135MOL0     C18119   5.863   0.894   7.387  0.1045 -0.2668 -0.4778
  135MOL0     O18120   5.840   0.826   7.278 -0.1256  0.1204  0.0295
  135MOL0     C18121   5.717   0.792   7.226  0.7505  0.8340 -0.9311
  135MOL0     C18122   5.587   0.818   7.280 -0.5959  0.4962  0.4172
  135MOL0     C18123   5.477   0.753   7.223  0.0942 -0.6841 -0.5881
  135MOL0     C18124   5.492   0.658   7.123  0.3280  0.7025 -0.0392
  135MOL0     O18125   5.375   0.600   7.068 -0.2849  0.1279 -0.0604
  135MOL0     C18126   5.281   0.555   7.162  0.6067 -0.3505 -0.4435
  135MOL0     C18127   5.192   0.436   7.117 -0.5323 -0.1194 -0.4088
  135MOL0     C18128   5.107   0.478   6.996 -0.2716 -0.1975  0.2314
  135MOL0     C18129   5.002   0.372   6.953  0.6390 -1.5444  0.1516
  135MOL0     C18130   4.906   0.445   6.849 -0.7837 -0.4585 -0.1666
  135MOL0     C18131   4.797   0.347   6.784 -0.6413  0.7419 -0.6472
  135MOL0     C18132   4.725   0.234   6.876 -1.0490 -0.3705  0.5025
  135MOL0     C18133   4.694   0.101   6.811  0.3798 -0.8066 -0.7785
  135MOL0    Cl18134   4.555   0.126   6.696  0.3509  0.0971 -0.1562
  135MOL0     C18135   5.625   0.643   7.062  0.2637  0.7880  0.8944
  135MOL0     C18136   5.732   0.718   7.108  0.0064 -0.8631  0.2626
  135MOL0     O18137   5.782   0.942   7.467 -0.6549  0.4051  0.2842
  135MOL0     C18138   6.058   1.000   7.519 -0.4981  0.6560 -0.1718
  135MOL0     C18139   6.187   1.026   7.541  0.2028 -0.2656  0.1253
  135MOL0     N18140   6.898   0.744   7.691  0.0786 -0.0267 -0.3294
  135MOL0     N18141   6.962   0.682   7.779  0.0958  0.0893  0.2065
  135MOL0     C18142   6.181   0.525   8.555 -0.2961 -0.4091 -0.2991
  135MOL0     C18143   6.136   0.400   8.590 -0.6252  0.8587  0.9929
  135MOL0     C18144   6.063  -0.037   8.657  0.4491 -0.1874  1.3333
  135MOL0     C18145   6.023  -0.102   8.534  0.2485 -0.0195 -0.4937
  135MOL0     C18146   6.041  -0.245   8.516  0.2884 -1.2281  0.4628
  135MOL0     C18147   6.091  -0.323   8.615  0.8813 -0.4095  0.3913
  135MOL0     O18148   6.121  -0.457   8.608 -1.0062 -0.0847 -0.0871
  135MOL0     C18149   6.131  -0.516   8.479 -0.1006 -0.6992  1.0278
  135MOL0     C18150   6.215  -0.653   8.473 -0.5302  0.5639 -0.2576
  135MOL0     C18151   6.237  -0.715   8.332 -0.2833 -0.2779  0.2198
  135MOL0     C18152   6.121  -0.797   8.293  0.7077  0.2798 -1.0503
  135MOL0     C18153   6.138  -0.855   8.154  0.0378  0.8625 -0.7618
  135MOL0     C18154   6.168  -0.893   8.044 -0.0116 -0.1171  0.3629
  135MOL0     C18155   6.129  -0.263   8.730 -0.9161 -0.5407 -0.5996
  135MOL0     C18156   6.113  -0.124   8.762  0.4387  0.2822  0.2135
  135MOL0     C18157   6.167  -0.076   8.890  0.7706  0.3829  0.0614
  135MOL0     H18158   5.986   0.306   8.306  1.8827 -2.1548  0.9926
  135MOL0     H18159   6.030   0.546   8.248  1.0552 -0.4302 -0.6958
  135MOL0     H18160   6.321   0.847   8.378 -3.9971  0.6745  0.9672
  135MOL0     H18161   6.370   0.698   8.474  1.5342 -1.6525 -0.8494
  135MOL0     H18162   6.342   0.700   8.168  1.6265  1.4018 -0.8181
  135MOL0     H18163   6.361   0.561   8.265  0.1481  0.1135 -1.6601
  135MOL0     H18164   6.567   0.644   8.155 -1.0526 -0.2861 -0.3738
  135MOL0     H18165   6.586   0.628   8.339  0.2044  0.4990  0.3585
  135MOL0     H18166   6.583   0.862   8.159  1.0000 -0.3224 -0.5944
  135MOL0     H18167   6.542   0.882   8.326  2.3509  0.2664  0.7404
  135MOL0     H18168   6.761   0.943   8.246 -3.3529  0.7840 -2.8546
  135MOL0     H18169   6.789   0.814   8.363 -2.7172 -1.3471 -0.6694
  135MOL0     H18170   6.830   0.653   8.196 -0.1023 -0.1541 -1.3933
  135MOL0     H18171   6.789   0.770   8.061  1.6288  0.2841 -0.0022
  135MOL0     H18172   7.037   0.795   8.219  2.9130  3.4252 -1.8803
  135MOL0     H18173   6.976   0.917   8.112  2.0520 -0.6684 -0.6831
  135MOL0     H18174   7.160   0.780   8.018  1.1055 -0.3391  0.0751
  135MOL0     H18175   7.061   0.632   8.026 -4.6101 -0.9067  1.4066
  135MOL0     H18176   7.001   0.987   7.883 -1.4565 -0.0542  0.2977
  135MOL0     H18177   6.880   1.076   7.600 -2.2983  0.0064 -4.4922
  135MOL0     H18178   6.850   0.927   7.514 -1.4989 -0.9030  0.3961
  135MOL0     H18179   6.649   0.899   7.618 -0.8758 -0.0439  3.8039
  135MOL0     H18180   6.683   1.023   7.742 -3.2093  0.3971 -0.9398
  135MOL0     H18181   6.671   1.113   7.439 -3.9850  3.5828 -2.1405
  135MOL0     H18182   6.671   1.203   7.585  3.5662 -1.3532  0.2217
  135MOL0     H18183   6.441   1.181   7.485 -0.1945 -0.2018  0.2694
  135MOL0     H18184   6.444   1.109   7.643  1.6694 -2.5007  0.4961
  135MOL0     H18185   6.324   0.811   7.319 -0.1990 -1.5932  1.0993
  135MOL0     H18186   6.094   0.793   7.257  2.4713 -0.4891 -1.5543
  135MOL0     H18187   5.597   0.890   7.361  5.8961 -1.6900  2.1457
  135MOL0     H18188   5.380   0.765   7.270 -0.3485 -2.8365 -0.8396
  135MOL0     H18189   5.338   0.526   7.251 -1.3849  3.4167  2.3555
  135MOL0     H18190   5.224   0.638   7.205 -0.8701 -1.7938  0.4759
  135MOL0     H18191   5.258   0.355   7.084  0.1906  1.4239 -2.9671
  135MOL0     H18192   5.119   0.418   7.197 -0.4351 -0.4372 -0.3872
  135MOL0     H18193   5.062   0.575   7.020  2.1118  1.3490 -1.2066
  135MOL0     H18194   5.173   0.503   6.913 -2.5519 -1.5554 -2.1476
  135MOL0     H18195   4.952   0.340   7.045  0.4512 -1.9896 -0.1030
  135MOL0     H18196   5.033   0.289   6.889 -0.8034 -0.4303 -2.1312
  135MOL0     H18197   4.969   0.483   6.768  1.2577  0.5410  1.7551
  135MOL0     H18198   4.865   0.534   6.897  2.0021  0.4216  0.8289
  135MOL0     H18199   4.704   0.387   6.741 -1.9095 -0.9010  0.4210
  135MOL0     H18200   4.842   0.289   6.704 -0.1853  0.9270 -0.5253
  135MOL0     H18201   4.632   0.281   6.912 -1.1394 -0.5136  0.4533
  135MOL0     H18202   4.797   0.212   6.955  1.4173 -1.1753 -1.8301
  135MOL0     H18203   4.786   0.070   6.761  2.4806 -0.2623  2.4198
  135MOL0     H18204   4.663   0.027   6.886  0.1910  0.1572  0.1171
  135MOL0     H18205   5.637   0.584   6.971  2.0631  1.3735  0.7107
  135MOL0     H18206   5.824   0.727   7.052  0.4974 -0.6969  1.0777
  135MOL0     H18207   5.987   1.060   7.575 -2.5781 -0.6026 -1.3498
  135MOL0     H18208   6.201   1.097   7.622 -3.2064  2.3034 -1.2543
  135MOL0     H18209   6.246   0.584   8.619  0.0023 -0.5337 -0.4839
  135MOL0     H18210   6.173   0.375   8.689  1.1837  0.8255  0.3417
  135MOL0     H18211   5.991  -0.045   8.448 -0.5823  0.2189 -0.0431
  135MOL0     H18212   5.998  -0.280   8.423  0.9502  1.2261 -0.8596
  135MOL0     H18213   6.166  -0.443   8.405  0.4515 -0.2556  1.7058
  135MOL0     H18214   6.033  -0.546   8.441 -0.5181  0.1298  1.4227
  135MOL0     H18215   6.172  -0.726   8.543  0.9730 -1.8563 -1.7212
  135MOL0     H18216   6.322  -0.656   8.495 -0.7739 -0.6379  0.8898
  135MOL0     H18217   6.321  -0.784   8.340  0.3992  0.7842  3.2169
  135MOL0     H18218   6.267  -0.647   8.252  4.9473  0.3928  2.4081
  135MOL0     H18219   6.101  -0.871   8.371 -0.2193  1.2211 -0.3690
  135MOL0     H18220   6.028  -0.740   8.289 -0.6400 -1.7045  0.3230
  135MOL0     H18221   6.201  -0.923   7.947 -5.7002 -0.6240 -1.8294
  135MOL0     H18222   6.164  -0.339   8.799  2.1965 -0.1361 -1.6117
  135MOL0     H18223   6.189  -0.164   8.952 -1.0501  0.1708  0.4665
  135MOL0     H18224   6.262  -0.025   8.875  0.6010  0.8030  0.4022
  135MOL0     H18225   6.096  -0.018   8.950 -0.9109 -2.3807  0.9229
  136MOL0     O18226   1.893   3.492   6.902  1.1060  0.9262 -0.0753
  136MOL0     C18227   1.951   3.595   6.905  0.3380 -0.3293 -0.5176
  136MOL0     O18228   2.080   3.608   6.863  0.3235  0.7649 -0.4228
  136MOL0     C18229   2.149   3.498   6.831  0.5323  0.3539  0.2859
  136MOL0     C18230   2.180   3.402   6.928 -0.1368  0.4031  0.5015
  136MOL0     C18231   2.253   3.284   6.878 -0.0817 -1.0559 -0.2587
  136MOL0     C18232   2.315   3.285   6.749  0.4104 -0.5173  0.9383
  136MOL0     O18233   2.387   3.188   6.693 -0.2087 -0.3035  0.2924
  136MOL0     C18234   2.384   3.062   6.751  0.1895 -0.4705  0.4439
  136MOL0     C18235   2.478   2.985   6.663  0.5523 -0.6574 -1.1565
  136MOL0     C18236   2.626   3.037   6.678  0.9202 -0.2844  0.1979
  136MOL0     C18237   2.728   2.983   6.568  0.1134  1.1058  0.2388
  136MOL0     C18238   2.701   3.022   6.422  0.1735 -1.1248  0.0382
  136MOL0     C18239   2.693   3.182   6.401  0.6194  1.1196  0.3909
  136MOL0     C18240   2.622   3.219   6.276 -0.3372  0.4853  0.9108
  136MOL0     C18241   2.645   3.370   6.263 -0.0524  0.0645  0.7274
  136MOL0     N18242   2.779   3.410   6.221 -0.4065  0.5799  0.4970
  136MOL0     C18243   2.842   3.351   6.104 -0.5675  0.0266  0.6152
  136MOL0     C18244   2.955   3.424   6.092  0.0780 -0.0623 -0.6869
  136MOL0     C18245   3.062   3.400   5.992 -0.9676 -0.6735  0.2680
  136MOL0     C18246   3.071   3.527   5.894  0.1185  0.4816  0.5881
  136MOL0     C18247   2.951   3.525   5.798  0.3091  0.3940  0.6979
  136MOL0     C18248   2.965   3.620   5.680  0.3037 -0.3581 -0.4191
  136MOL0     O18249   2.876   3.567   5.579 -0.7171  0.2806  0.4941
  136MOL0     C18250   2.843   3.656   5.485  0.1446  0.8431  0.1416
  136MOL0     C18251   2.937   3.756   5.441 -0.4050 -1.4315 -0.5422
  136MOL0     C18252   2.907   3.855   5.334  0.7672  0.2308  0.2497
  136MOL0     C18253   2.791   3.824   5.254  0.0009  0.1294 -0.3214
  136MOL0     C18254   2.753   3.908   5.133 -0.7096 -1.1261 -0.8722
  136MOL0     O18255   2.638   3.878   5.075 -0.6456 -0.1122  0.3840
  136MOL0     C18256   2.587   3.939   4.962 -0.9672 -0.0519  0.3340
  136MOL0     C18257   2.452   3.924   4.950  0.6108  0.9624  0.2340
  136MOL0     C18258   2.378   3.970   4.839 -0.4535  0.7788 -0.0429
  136MOL0     C18259   2.443   4.045   4.739 -0.8662 -0.1597  0.3081
  136MOL0     O18260   2.381   4.104   4.637  0.3698 -0.2301  0.0100
  136MOL0     C18261   2.264   4.042   4.577  0.0010  0.1864  0.0880
  136MOL0     C18262   2.238   4.084   4.427  0.6857 -0.6456  0.9708
  136MOL0     C18263   2.087   4.066   4.396  0.3684 -0.0589  0.7339
  136MOL0     C18264   2.045   4.152   4.272  0.5434  0.4979 -0.2365
  136MOL0     C18265   1.894   4.132   4.259  0.4452  0.9733  0.7964
  136MOL0     C18266   1.840   4.202   4.128 -0.8901 -0.4064  0.2244
  136MOL0     C18267   1.701   4.147   4.091 -0.0906  0.6225 -0.7343
  136MOL0     C18268   1.638   4.255   3.999  0.6119 -0.0127 -0.2851
  136MOL0    Cl18269   1.724   4.286   3.842  0.6028  0.1314  0.5525
  136MOL0     C18270   2.582   4.061   4.751  0.3034 -0.0423  0.4317
  136MOL0     C18271   2.652   4.016   4.862  0.1429  0.2246 -0.1697
  136MOL0     O18272   2.841   3.993   5.103  0.3466 -0.5576 -0.7801
  136MOL0     C18273   2.716   3.708   5.296 -0.3106  0.3107 -0.2505
  136MOL0     C18274   2.737   3.631   5.413  0.4037 -0.1546  0.1451
  136MOL0     N18275   2.967   3.536   6.187 -0.1810  0.9342  0.7112
  136MOL0     N18276   2.850   3.527   6.251 -0.2858  0.3786 -0.0893
  136MOL0     C18277   2.279   3.390   6.658  0.1507  0.3567 -1.1854
  136MOL0     C18278   2.195   3.495   6.701  0.1926  0.7657 -0.1318
  136MOL0     C18279   1.877   3.703   6.980  0.5147 -0.7542 -0.4567
  136MOL0     C18280   1.749   3.741   6.931 -0.2532  0.6796  0.5853
  136MOL0     C18281   1.671   3.831   6.991 -0.1179 -0.8398 -0.4895
  136MOL0     C18282   1.723   3.896   7.111  0.0838 -0.0149  0.3506
  136MOL0     O18283   1.641   3.986   7.171  0.1663  0.0005  0.7191
  136MOL0     C18284   1.667   4.023   7.304 -0.4141  0.0856  0.5815
  136MOL0     C18285   1.567   4.127   7.346 -0.6045  0.4310 -0.3656
  136MOL0     C18286   1.426   4.071   7.347 -0.3808  0.6844 -0.5388
  136MOL0     C18287   1.323   4.178   7.371  0.5315 -0.3098  0.4824
  136MOL0     C18288   1.267   4.190   7.507  0.1322  0.7934 -0.2454
  136MOL0     C18289   1.225   4.189   7.624 -0.3311 -0.1575 -0.1151
  136MOL0     C18290   1.852   3.864   7.159  0.4756  0.3258 -0.3330
  136MOL0     C18291   1.929   3.763   7.101 -0.0259 -0.1498 -0.0973
  136MOL0     C18292   2.065   3.736   7.166  0.0107  0.9374 -0.0158
  136MOL0     H18293   2.147   3.400   7.031 -0.3060  0.2956  0.4474
  136MOL0     H18294   2.264   3.202   6.947 -1.9660 -2.1035 -1.1122
  136MOL0     H18295   2.425   3.061   6.852 -2.1386 -1.6845  1.4548
  136MOL0     H18296   2.287   3.012   6.760  0.8904 -1.8247  0.6365
  136MOL0     H18297   2.446   2.995   6.559  0.0581 -0.4654 -0.9880
  136MOL0     H18298   2.472   2.879   6.692 -0.3937  0.7384  5.0077
  136MOL0     H18299   2.660   2.997   6.773 -3.5998  0.4019  2.3876
  136MOL0     H18300   2.627   3.147   6.676  1.4269 -0.2884 -0.9801
  136MOL0     H18301   2.826   3.013   6.605  0.0524 -1.8784  3.4845
  136MOL0     H18302   2.741   2.875   6.578 -1.4239  0.7407 -1.1960
  136MOL0     H18303   2.777   2.988   6.351 -1.1145 -2.6250 -0.6694
  136MOL0     H18304   2.612   2.979   6.377 -1.0177  2.0878 -1.0006
  136MOL0     H18305   2.646   3.231   6.487 -3.4749 -0.5996 -0.6693
  136MOL0     H18306   2.799   3.210   6.397  0.0561  3.2431 -1.2221
  136MOL0     H18307   2.514   3.203   6.282 -0.1207 -1.2977  0.7597
  136MOL0     H18308   2.663   3.162   6.192 -1.0141 -0.8006  1.4196
  136MOL0     H18309   2.567   3.398   6.192 -1.1127 -0.4839  1.6537
  136MOL0     H18310   2.616   3.408   6.362 -3.2857 -0.8055  0.2039
  136MOL0     H18311   2.812   3.276   6.032  1.6764  1.8373 -2.4399
  136MOL0     H18312   3.160   3.382   6.036 -1.1241 -1.2758  0.3691
  136MOL0     H18313   3.037   3.311   5.934 -2.0996 -0.2581  0.0924
  136MOL0     H18314   3.068   3.612   5.963  1.2723  0.1620  1.0562
  136MOL0     H18315   3.168   3.525   5.844 -0.7603 -2.4061 -1.2350
  136MOL0     H18316   2.856   3.542   5.850 -1.5698 -0.7330 -2.1162
  136MOL0     H18317   2.946   3.422   5.760  3.0841  0.8373 -1.1360
  136MOL0     H18318   3.070   3.638   5.653  1.3425 -2.1332  1.9937
  136MOL0     H18319   2.922   3.714   5.716  2.3022  0.2438  0.5647
  136MOL0     H18320   3.034   3.787   5.479  0.9791 -1.5319 -3.6491
  136MOL0     H18321   2.979   3.930   5.302  0.6573  1.4264  2.5613
  136MOL0     H18322   2.397   3.865   5.024  0.6143  1.9799  1.0795
  136MOL0     H18323   2.273   3.946   4.828 -0.0537 -1.1250 -0.1442
  136MOL0     H18324   2.272   3.933   4.579  1.7982  0.2939  1.5193
  136MOL0     H18325   2.179   4.083   4.632 -1.5252  3.9681 -4.3950
  136MOL0     H18326   2.252   4.192   4.415 -1.7200 -0.3126  0.6690
  136MOL0     H18327   2.300   4.035   4.351  0.8721  3.9066 -2.2203
  136MOL0     H18328   2.055   3.963   4.375 -2.2991  0.1167  3.3147
  136MOL0     H18329   2.026   4.108   4.476 -1.1983  1.6015 -1.2079
  136MOL0     H18330   2.086   4.110   4.180 -0.2684 -2.4852  0.6571
  136MOL0     H18331   2.056   4.261   4.281 -0.6534  0.6423 -0.3942
  136MOL0     H18332   1.838   4.161   4.348 -0.6212 -2.0869  1.2734
  136MOL0     H18333   1.884   4.023   4.246  1.1949  0.4945  3.7171
  136MOL0     H18334   1.837   4.309   4.149  1.5582 -0.5464  1.6468
  136MOL0     H18335   1.905   4.171   4.045 -2.5538  0.1417 -1.3432
  136MOL0     H18336   1.645   4.146   4.185  1.9836 -0.0617  0.5531
  136MOL0     H18337   1.703   4.041   4.062  0.4608 -0.0117  1.4779
  136MOL0     H18338   1.540   4.217   3.968 -0.6821  1.2564  1.9444
  136MOL0     H18339   1.621   4.352   4.046 -0.3403 -0.2903 -0.0399
  136MOL0     H18340   2.644   4.120   4.684 -0.7027  0.3144 -0.2103
  136MOL0     H18341   2.758   4.035   4.874 -0.1440  2.1505 -0.3261
  136MOL0     H18342   2.630   3.670   5.242  0.3979 -0.1297 -1.0937
  136MOL0     H18343   2.676   3.545   5.435 -0.8799 -0.2865 -3.3209
  136MOL0     H18344   2.325   3.383   6.559  1.1085  3.8412 -1.1333
  136MOL0     H18345   2.183   3.569   6.622 -1.0326 -0.0255 -0.7296
  136MOL0     H18346   1.708   3.694   6.842  1.1611  1.4467 -0.5081
  136MOL0     H18347   1.577   3.864   6.949  0.9412  2.1196 -0.8211
  136MOL0     H18348   1.765   4.071   7.313 -0.2532 -0.3436  1.1220
  136MOL0     H18349   1.649   3.939   7.371 -2.9652 -0.0469 -0.1301
  136MOL0     H18350   1.591   4.206   7.274 -0.2449  1.4411  0.8332
  136MOL0     H18351   1.580   4.150   7.452 -0.3355 -1.2147 -0.0142
  136MOL0     H18352   1.418   3.998   7.428 -0.1718 -0.1016 -1.2103
  136MOL0     H18353   1.403   4.017   7.255 -2.6213 -1.2019  0.9935
  136MOL0     H18354   1.377   4.273   7.358  0.9397 -0.8825 -3.0651
  136MOL0     H18355   1.241   4.173   7.298 -0.2245 -0.3741  1.3174
  136MOL0     H18356   1.192   4.191   7.726 -3.4372 -0.1369 -1.0111
  136MOL0     H18357   1.881   3.906   7.254 -0.0307  1.2933 -0.5895
  136MOL0     H18358   2.074   3.630   7.191 -4.3056  0.3472 -0.2741
  136MOL0     H18359   2.138   3.768   7.091 -2.6681  0.3277 -3.1000
  136MOL0     H18360   2.078   3.798   7.255  2.0948  1.0897 -0.3613
  137MOL0     O18361   3.673   1.566  10.231  0.5773 -0.0736  0.5737
  137MOL0     C18362   3.708   1.498  10.325 -0.6649 -1.2429  0.3868
  137MOL0     O18363   3.648   1.388  10.376  0.2693  0.1840 -0.2508
  137MOL0     C18364   3.523   1.366  10.327 -0.6627  0.5990 -0.1670
  137MOL0     C18365   3.504   1.303  10.212 -0.0341 -0.1805  0.4974
  137MOL0     C18366   3.382   1.283  10.162 -0.1997 -0.8886  0.8594
  137MOL0     C18367   3.265   1.330  10.223  0.1818 -0.0511 -0.6767
  137MOL0     O18368   3.137   1.300  10.186 -0.5695 -0.1711  0.2459
  137MOL0     C18369   3.109   1.254  10.054  0.0414 -0.0913  0.1999
  137MOL0     C18370   2.958   1.268  10.027 -0.1896 -0.8763  0.3022
  137MOL0     C18371   2.867   1.215  10.140  0.8810  0.3386 -0.3601
  137MOL0     C18372   2.732   1.262  10.118  0.3816 -0.7358 -0.6916
  137MOL0     C18373   2.634   1.178  10.215  0.3537 -0.5866  0.5703
  137MOL0     C18374   2.500   1.256  10.207  0.1895 -0.1393  0.4269
  137MOL0     C18375   2.386   1.187  10.292  0.5250  0.8131 -0.4884
  137MOL0     C18376   2.260   1.150  10.216  1.7281 -0.2874 -0.5302
  137MOL0     N18377   2.284   1.055  10.113 -0.5990 -0.0191  0.5805
  137MOL0     C18378   2.258   1.051   9.978  0.8602  0.2436 -0.2824
  137MOL0     C18379   2.282   0.920   9.938 -1.5903 -0.6143  0.5164
  137MOL0     C18380   2.256   0.856   9.806 -0.5538 -0.2064 -0.0755
  137MOL0     C18381   2.378   0.777   9.746  0.2425 -0.1594 -0.5067
  137MOL0     C18382   2.342   0.713   9.605 -0.5180  0.8820  0.9446
  137MOL0     C18383   2.444   0.603   9.553 -0.7714 -0.1927  0.1649
  137MOL0     O18384   2.414   0.563   9.419  0.2905 -0.4253 -0.3660
  137MOL0     C18385   2.518   0.499   9.351 -0.0886 -0.6271 -0.2385
  137MOL0     C18386   2.554   0.544   9.224 -0.0628  0.1700  0.5841
  137MOL0     C18387   2.655   0.474   9.154 -0.0389  0.2679  1.0882
  137MOL0     C18388   2.733   0.376   9.223  1.3059 -0.5618  0.3375
  137MOL0     C18389   2.844   0.315   9.147  0.5045  0.7544  0.5849
  137MOL0     O18390   2.914   0.396   9.065 -0.4294 -0.5382  0.9985
  137MOL0     C18391   2.985   0.353   8.955 -0.0313  0.5798  0.7598
  137MOL0     C18392   2.954   0.235   8.891 -1.4684  1.1634  0.3453
  137MOL0     C18393   3.033   0.187   8.780  0.5196  0.0182  0.2180
  137MOL0     C18394   3.124   0.269   8.721  1.0267  0.5875 -0.0779
  137MOL0     O18395   3.188   0.247   8.606 -0.0413 -0.3765  0.2913
  137MOL0     C18396   3.203   0.114   8.562 -0.6795  0.0165  0.2665
  137MOL0     C18397   3.305   0.093   8.443  0.2645  0.2797 -0.5682
  137MOL0     C18398   3.322  -0.049   8.399 -1.3757 -0.1169  0.4574
  137MOL0     C18399   3.382  -0.066   8.256  0.1545  0.3032 -0.4989
  137MOL0     C18400   3.532  -0.095   8.276 -0.0160 -0.0101 -0.4038
  137MOL0     C18401   3.596  -0.161   8.155  1.1203 -0.1221 -0.8971
  137MOL0     C18402   3.614  -0.063   8.035 -0.8256  0.4374 -0.6804
  137MOL0     C18403   3.767  -0.041   8.003  0.0564  0.3217  0.0893
  137MOL0    Cl18404   3.783   0.092   7.887  0.2660 -0.1967  0.3688
  137MOL0     C18405   3.145   0.400   8.787  0.2059 -0.9095  0.0182
  137MOL0     C18406   3.092   0.431   8.911  1.2398  1.3838  0.3704
  137MOL0     O18407   2.857   0.196   9.161  0.2526 -0.4632 -0.1261
  137MOL0     C18408   2.711   0.352   9.356 -0.1205 -0.2641  0.2138
  137MOL0     C18409   2.604   0.410   9.418  0.4546  0.5994 -0.8804
  137MOL0     N18410   2.332   0.850  10.042  0.0348  0.0085 -0.9757
  137MOL0     N18411   2.337   0.934  10.143  0.3741  0.0464  0.6377
  137MOL0     C18412   3.282   1.396  10.343 -0.9072 -0.4520  0.0309
  137MOL0     C18413   3.410   1.418  10.394 -0.9912 -0.0829  0.5276
  137MOL0     C18414   3.831   1.535  10.392 -0.3200 -0.2946  0.0563
  137MOL0     C18415   3.889   1.442  10.478 -1.3700  0.0639  0.4909
  137MOL0     C18416   4.010   1.473  10.545 -0.0994 -0.2582  0.9634
  137MOL0     C18417   4.078   1.593  10.512  0.1374 -0.4890 -0.6026
  137MOL0     O18418   4.205   1.622  10.572 -0.4264  0.4245 -0.0087
  137MOL0     C18419   4.252   1.756  10.598 -0.7042 -0.5152  0.3070
  137MOL0     C18420   4.176   1.817  10.729 -0.2836 -1.2041  0.6360
  137MOL0     C18421   4.242   1.942  10.794 -0.3969 -0.2824  0.5702
  137MOL0     C18422   4.170   2.057  10.723  0.3425  1.2274  0.3451
  137MOL0     C18423   4.241   2.180  10.778  0.6827  0.4635  0.1568
  137MOL0     C18424   4.302   2.273  10.820  1.0979 -0.7965 -0.8102
  137MOL0     C18425   4.018   1.689  10.425 -0.4573  0.8719 -0.1570
  137MOL0     C18426   3.896   1.660  10.372 -0.0326  0.5220 -0.0137
  137MOL0     C18427   3.844   1.773  10.283  0.3666 -0.2931 -0.5136
  137MOL0     H18428   3.597   1.265  10.170  1.5357  1.9104  1.8948
  137MOL0     H18429   3.374   1.236  10.065 -1.8655  2.3480 -0.7545
  137MOL0     H18430   3.169   1.302   9.977 -1.6043  1.2499 -0.2972
  137MOL0     H18431   3.134   1.147  10.058  0.9334  0.1064  3.6680
  137MOL0     H18432   2.921   1.217   9.938 -4.5193 -2.5983  2.7465
  137MOL0     H18433   2.939   1.374  10.015 -1.9757 -1.2986 -0.9910
  137MOL0     H18434   2.900   1.269  10.229  2.2964 -0.7475 -0.1864
  137MOL0     H18435   2.874   1.106  10.153  0.7161  0.6418  3.1488
  137MOL0     H18436   2.719   1.366  10.148 -1.7663 -1.3077  0.5645
  137MOL0     H18437   2.703   1.239  10.016 -1.0692  0.4830 -0.5793
  137MOL0     H18438   2.622   1.075  10.182 -0.4228 -0.6078  0.8813
  137MOL0     H18439   2.667   1.183  10.319 -0.2972  0.6613  0.7461
  137MOL0     H18440   2.515   1.353  10.257  2.5881  0.4703 -1.2994
  137MOL0     H18441   2.476   1.266  10.101  2.3888 -0.6690 -0.1829
  137MOL0     H18442   2.357   1.234  10.386  0.5455 -0.8452  0.3844
  137MOL0     H18443   2.426   1.092  10.330 -0.1890  0.0833 -1.5032
  137MOL0     H18444   2.180   1.106  10.276 -1.9252  2.4513 -2.9444
  137MOL0     H18445   2.204   1.233  10.172  1.0819 -1.5296 -2.1316
  137MOL0     H18446   2.204   1.117   9.911 -0.1518 -1.3502 -1.1161
  137MOL0     H18447   2.175   0.785   9.828 -0.3520 -0.5082 -0.2996
  137MOL0     H18448   2.218   0.918   9.724 -0.1251 -1.4145 -1.2205
  137MOL0     H18449   2.464   0.840   9.723 -2.2024  4.2383  1.2797
  137MOL0     H18450   2.398   0.693   9.813  2.8602  0.1202 -0.8520
  137MOL0     H18451   2.330   0.791   9.529  0.1207 -2.3372 -2.7914
  137MOL0     H18452   2.243   0.666   9.605  0.4793 -1.4782 -1.1489
  137MOL0     H18453   2.431   0.526   9.630 -0.4007  2.4044  3.0475
  137MOL0     H18454   2.548   0.634   9.569 -0.2572 -2.4243  1.5600
  137MOL0     H18455   2.504   0.624   9.170  0.6767 -0.8627 -1.7753
  137MOL0     H18456   2.667   0.485   9.047 -0.2274 -0.3478  0.9985
  137MOL0     H18457   2.876   0.168   8.925  0.0211  0.3240  2.3487
  137MOL0     H18458   3.009   0.096   8.726 -1.6725  1.7708 -2.0024
  137MOL0     H18459   3.246   0.053   8.643  0.2899  2.4956  1.7134
  137MOL0     H18460   3.105   0.085   8.522 -2.4974  4.0252  1.3105
  137MOL0     H18461   3.258   0.155   8.366  0.3601  1.6918  0.4725
  137MOL0     H18462   3.405   0.136   8.455 -0.6955  2.9126 -1.3045
  137MOL0     H18463   3.387  -0.093   8.475 -1.0865 -1.0870 -0.3399
  137MOL0     H18464   3.228  -0.103   8.415 -1.7507  0.3364 -0.1695
  137MOL0     H18465   3.365   0.024   8.196 -2.5273  0.4469  0.3418
  137MOL0     H18466   3.338  -0.157   8.214  1.5619 -0.3787 -0.5641
  137MOL0     H18467   3.554  -0.160   8.361 -3.0857  0.0760  0.5732
  137MOL0     H18468   3.580   0.003   8.285 -4.0488  2.0828  0.5894
  137MOL0     H18469   3.692  -0.199   8.192 -0.4671  0.8899  5.4333
  137MOL0     H18470   3.532  -0.241   8.117  0.8412  0.7626 -2.3944
  137MOL0     H18471   3.586   0.038   8.068  0.4831 -0.0994  2.4141
  137MOL0     H18472   3.560  -0.090   7.944 -3.6818 -2.2101  1.5832
  137MOL0     H18473   3.816  -0.015   8.098 -0.7017  1.6267  0.1530
  137MOL0     H18474   3.809  -0.136   7.969  2.1012  1.8463 -1.9790
  137MOL0     H18475   3.206   0.470   8.730 -0.4419 -0.4524 -0.1290
  137MOL0     H18476   3.121   0.528   8.952 -2.9929  3.3135 -0.5781
  137MOL0     H18477   2.771   0.275   9.403 -0.8322  0.6408  2.7545
  137MOL0     H18478   2.585   0.384   9.521 -0.8786 -0.4910 -1.3790
  137MOL0     H18479   3.194   1.435  10.393 -1.3175  1.4756 -2.0314
  137MOL0     H18480   3.390   1.455  10.494 -3.0209 -3.4146  1.5103
  137MOL0     H18481   3.837   1.349  10.500  0.9547 -1.4433 -0.0787
  137MOL0     H18482   4.064   1.400  10.605  2.6867  0.7341 -0.1612
  137MOL0     H18483   4.256   1.825  10.514  0.5412  2.2400  2.4763
  137MOL0     H18484   4.357   1.755  10.628 -0.6405  0.3480  0.1265
  137MOL0     H18485   4.200   1.745  10.809 -0.7075 -0.6141  1.3040
  137MOL0     H18486   4.067   1.825  10.729 -0.1520  1.0752  0.8324
  137MOL0     H18487   4.351   1.943  10.781 -0.2789 -3.8906  0.2930
  137MOL0     H18488   4.212   1.952  10.899  1.1803 -0.0155  1.0320
  137MOL0     H18489   4.173   2.061  10.613  0.7812  1.0128  0.3452
  137MOL0     H18490   4.066   2.063  10.754 -0.5162 -7.5858  1.6470
  137MOL0     H18491   4.360   2.352  10.863 -0.8777 -0.3789  1.2959
  137MOL0     H18492   4.059   1.785  10.398  1.3256  0.2846  0.2824
  137MOL0     H18493   3.900   1.865  10.300  1.1709 -1.1970  2.4248
  137MOL0     H18494   3.860   1.737  10.181 -2.8863  1.7772 -1.8808
  137MOL0     H18495   3.738   1.799  10.290  0.6235  1.2051 -1.7095
  138MOL0     O18496   7.112   5.679   5.811 -0.4754 -0.1426  0.4928
  138MOL0     C18497   7.176   5.628   5.723  0.3265  0.0926  0.5415
  138MOL0     O18498   7.305   5.616   5.713  0.5860  0.0557 -0.3717
  138MOL0     C18499   7.378   5.631   5.827  0.8056 -0.3199 -0.9243
  138MOL0     C18500   7.363   5.535   5.934  0.4956 -0.1237 -0.2858
  138MOL0     C18501   7.439   5.543   6.054  0.0404  0.4974  0.3082
  138MOL0     C18502   7.532   5.644   6.063 -0.6339 -0.9305  0.0220
  138MOL0     O18503   7.631   5.663   6.160 -0.4742 -0.5675 -1.2532
  138MOL0     C18504   7.671   5.540   6.231  0.1138  0.5939  0.0529
  138MOL0     C18505   7.822   5.533   6.242 -0.6424 -0.2755  0.4081
  138MOL0     C18506   7.885   5.560   6.099  0.5604 -0.5745 -0.6663
  138MOL0     C18507   8.038   5.545   6.108 -0.0790  0.1512  0.6197
  138MOL0     C18508   8.079   5.404   6.083  0.1629  0.2439  0.0929
  138MOL0     C18509   8.222   5.377   6.130  0.2085  0.2748 -0.2312
  138MOL0     C18510   8.253   5.367   6.280  0.1677  0.8518 -0.0680
  138MOL0     C18511   8.191   5.241   6.350  0.6520 -0.6467  0.1321
  138MOL0     N18512   8.253   5.202   6.474 -0.4079  0.6579 -0.1928
  138MOL0     C18513   8.202   5.220   6.606 -0.3360 -0.2554 -0.1074
  138MOL0     C18514   8.280   5.155   6.688 -0.3572 -0.4561  0.6744
  138MOL0     C18515   8.255   5.134   6.828 -0.9791  0.2783  0.6331
  138MOL0     C18516   8.304   5.261   6.908  0.1427 -0.4531  0.1458
  138MOL0     C18517   8.196   5.316   7.004  0.1208  0.0125 -1.0252
  138MOL0     C18518   8.232   5.464   7.066 -1.2498  0.4814  0.0789
  138MOL0     O18519   8.123   5.519   7.141  0.6506  0.5537  0.5156
  138MOL0     C18520   8.128   5.514   7.279  0.8637  1.1632 -0.0244
  138MOL0     C18521   8.163   5.408   7.358 -1.1749  1.2261  0.3087
  138MOL0     C18522   8.180   5.408   7.502 -0.4395  0.4121  0.0124
  138MOL0     C18523   8.156   5.528   7.568  1.2327 -0.4410 -0.7423
  138MOL0     C18524   8.173   5.538   7.710  0.5239  0.1602 -0.2420
  138MOL0     O18525   8.210   5.423   7.777  0.2414  0.3886  0.7449
  138MOL0     C18526   8.206   5.416   7.911 -0.2339 -0.0110 -0.4868
  138MOL0     C18527   8.320   5.398   7.985 -0.5825  0.3814 -0.1282
  138MOL0     C18528   8.301   5.371   8.122  0.1250 -0.1051  0.5175
  138MOL0     C18529   8.176   5.358   8.188  1.2888 -0.5137  0.1302
  138MOL0     O18530   8.178   5.334   8.318 -0.2834 -1.2707 -0.4998
  138MOL0     C18531   8.185   5.443   8.409  0.1819 -0.4016  0.1588
  138MOL0     C18532   8.049   5.494   8.442  0.0635 -0.4211 -0.1966
  138MOL0     C18533   8.033   5.508   8.596 -0.4003  1.0038  0.1775
  138MOL0     C18534   8.118   5.626   8.634 -1.0700 -0.9971 -0.9800
  138MOL0     C18535   8.108   5.639   8.785 -0.7553  0.1320 -0.3113
  138MOL0     C18536   8.236   5.715   8.839  0.5416 -0.1141  0.3515
  138MOL0     C18537   8.228   5.861   8.802  0.2883 -0.2014  0.4733
  138MOL0     C18538   8.365   5.928   8.802  0.1518  0.0483 -0.6298
  138MOL0    Cl18539   8.449   5.916   8.649 -0.4282  0.2662  0.2377
  138MOL0     C18540   8.067   5.375   8.105 -0.0613 -0.2068  0.1408
  138MOL0     C18541   8.074   5.408   7.965 -0.0324  0.7113 -0.3302
  138MOL0     O18542   8.154   5.648   7.768 -0.5967 -0.1681  0.2336
  138MOL0     C18543   8.100   5.632   7.490 -0.2592 -0.2353  0.4898
  138MOL0     C18544   8.082   5.622   7.345 -0.0407  0.9372  0.1482
  138MOL0     N18545   8.373   5.090   6.618  0.0701  0.8811  0.5921
  138MOL0     N18546   8.362   5.123   6.488 -0.4966 -1.0193  0.1011
  138MOL0     C18547   7.532   5.738   5.969 -0.3952 -0.1455  0.7265
  138MOL0     C18548   7.467   5.736   5.843 -0.4244 -0.1602 -0.5299
  138MOL0     C18549   7.102   5.577   5.597 -0.7373 -0.8897 -0.2397
  138MOL0     C18550   6.967   5.570   5.601 -0.0588  0.0885 -0.1258
  138MOL0     C18551   6.880   5.513   5.505  0.6134 -0.0144 -0.8782
  138MOL0     C18552   6.944   5.460   5.394  0.3396 -0.0798  0.4171
  138MOL0     O18553   6.875   5.389   5.303 -0.7441 -0.1218 -0.6288
  138MOL0     C18554   6.938   5.329   5.197 -1.4287 -0.6938  1.0217
  138MOL0     C18555   6.844   5.252   5.108  0.6495 -0.2074 -0.5305
  138MOL0     C18556   6.737   5.352   5.045 -0.4338  0.4813  0.3823
  138MOL0     C18557   6.621   5.272   4.982  0.6768  1.2215 -0.1689
  138MOL0     C18558   6.522   5.208   5.074  0.4841 -1.0288  0.1092
  138MOL0     C18559   6.448   5.145   5.144  0.6507 -0.1151  0.5420
  138MOL0     C18560   7.089   5.486   5.375  1.2517 -0.1720 -0.2561
  138MOL0     C18561   7.168   5.543   5.478 -0.0324 -0.4946  0.3303
  138MOL0     C18562   7.316   5.559   5.436 -0.5874 -0.3834 -0.5544
  138MOL0     H18563   7.298   5.448   5.922  2.3926 -1.3613 -2.3759
  138MOL0     H18564   7.423   5.473   6.135 -1.7158 -2.1275 -2.1069
  138MOL0     H18565   7.623   5.538   6.330  1.1206  2.9292  0.6591
  138MOL0     H18566   7.639   5.450   6.178  0.8617  1.7581 -2.5432
  138MOL0     H18567   7.854   5.442   6.293 -3.4498  0.5525  4.0882
  138MOL0     H18568   7.862   5.613   6.304  3.2346 -1.9082  0.2690
  138MOL0     H18569   7.850   5.660   6.075  1.6141 -0.2831 -1.0685
  138MOL0     H18570   7.842   5.499   6.020  1.4904  0.6280 -2.1638
  138MOL0     H18571   8.090   5.612   6.038 -0.4562  0.8394  0.9900
  138MOL0     H18572   8.079   5.585   6.200 -0.9060  2.0460  0.2123
  138MOL0     H18573   8.011   5.329   6.125  0.7101 -0.2031  0.1947
  138MOL0     H18574   8.068   5.375   5.978  1.4210  2.5677 -0.7504
  138MOL0     H18575   8.262   5.292   6.075  3.0301  0.4862  1.2935
  138MOL0     H18576   8.276   5.465   6.092  1.7650 -1.8281 -3.3221
  138MOL0     H18577   8.231   5.462   6.330  1.1420  1.2046 -0.2745
  138MOL0     H18578   8.359   5.356   6.307 -0.4623 -4.0675  1.2919
  138MOL0     H18579   8.084   5.255   6.368  0.4678 -1.3931 -0.3200
  138MOL0     H18580   8.213   5.168   6.271  1.8488  1.6299 -1.7356
  138MOL0     H18581   8.117   5.284   6.629  0.3339  1.1014 -1.2349
  138MOL0     H18582   8.155   5.091   6.832 -0.4880 -1.5793 -3.0525
  138MOL0     H18583   8.310   5.044   6.854 -5.0958 -2.0430  2.2508
  138MOL0     H18584   8.399   5.227   6.949 -0.2734 -1.9782 -0.0927
  138MOL0     H18585   8.314   5.344   6.838  0.5618 -0.8012 -0.2049
  138MOL0     H18586   8.188   5.245   7.088  2.1208  0.7839 -0.1235
  138MOL0     H18587   8.099   5.325   6.955 -0.5665  0.2712  0.3395
  138MOL0     H18588   8.247   5.537   6.986 -1.3115  0.3632 -0.0397
  138MOL0     H18589   8.318   5.449   7.133 -1.9164 -1.0754  0.6465
  138MOL0     H18590   8.199   5.317   7.311 -0.7030  1.6565 -0.1704
  138MOL0     H18591   8.224   5.323   7.553 -1.7774  0.2527  0.9471
  138MOL0     H18592   8.418   5.398   7.940 -0.0322  1.7133  1.0018
  138MOL0     H18593   8.397   5.358   8.171  0.7190  0.5922 -0.4178
  138MOL0     H18594   8.243   5.413   8.497  0.4895 -2.7209 -0.7510
  138MOL0     H18595   8.234   5.526   8.358 -2.7402  0.4674 -1.4983
  138MOL0     H18596   8.029   5.592   8.397 -1.8654 -0.5529  0.2700
  138MOL0     H18597   7.965   5.429   8.416 -0.8329 -1.0633  3.7642
  138MOL0     H18598   7.930   5.505   8.633 -0.1424 -3.4363  1.1213
  138MOL0     H18599   8.088   5.419   8.629  0.7834  1.3899 -0.6865
  138MOL0     H18600   8.077   5.723   8.605  1.4704  0.0617 -1.3160
  138MOL0     H18601   8.217   5.616   8.589 -1.7066  1.0492 -2.9928
  138MOL0     H18602   8.091   5.541   8.832 -0.5429  0.4648  0.4709
  138MOL0     H18603   8.027   5.698   8.828  1.2439  2.3677  0.6257
  138MOL0     H18604   8.232   5.721   8.948 -0.7014  2.7653  0.2379
  138MOL0     H18605   8.327   5.666   8.803  0.2671 -1.8574  1.8520
  138MOL0     H18606   8.157   5.899   8.876 -0.0388 -1.7328  0.9991
  138MOL0     H18607   8.181   5.879   8.705 -3.5859 -0.7631  2.0501
  138MOL0     H18608   8.353   6.034   8.827 -0.1376 -0.4216  1.3494
  138MOL0     H18609   8.430   5.894   8.883 -1.4526 -1.4604  0.0753
  138MOL0     H18610   7.972   5.353   8.152 -1.0735  0.6045 -1.4516
  138MOL0     H18611   7.990   5.431   7.901  0.1695  0.7259 -0.5922
  138MOL0     H18612   8.110   5.727   7.540 -2.3064 -1.6269  3.8776
  138MOL0     H18613   8.032   5.706   7.296  2.3092  1.6211 -1.1983
  138MOL0     H18614   7.595   5.824   5.987 -0.5864 -0.1216  1.3093
  138MOL0     H18615   7.485   5.822   5.779  1.3622 -0.4549 -0.4745
  138MOL0     H18616   6.917   5.619   5.684  1.2376  1.1806  0.0534
  138MOL0     H18617   6.774   5.520   5.527  0.0275  1.1786 -3.6180
  138MOL0     H18618   7.017   5.262   5.232 -1.5756 -1.0501  0.6867
  138MOL0     H18619   6.980   5.406   5.132  2.3672 -0.5581  3.3492
  138MOL0     H18620   6.789   5.187   5.176 -0.3460 -0.4719 -1.5626
  138MOL0     H18621   6.894   5.187   5.036 -1.1713 -3.7619  1.1611
  138MOL0     H18622   6.778   5.425   4.974  1.1525  0.5152  1.3065
  138MOL0     H18623   6.701   5.417   5.126 -0.0145 -0.8435  1.6519
  138MOL0     H18624   6.554   5.350   4.946 -1.5308  1.0600  3.0923
  138MOL0     H18625   6.656   5.206   4.903  1.3315 -0.4722  1.4509
  138MOL0     H18626   6.383   5.079   5.198 -1.4815  0.8903 -0.6666
  138MOL0     H18627   7.133   5.454   5.281  0.9132 -2.7903  0.3842
  138MOL0     H18628   7.348   5.660   5.463  0.1380 -1.6005  4.0343
  138MOL0     H18629   7.383   5.494   5.494 -0.7969  1.1429  1.5193
  138MOL0     H18630   7.326   5.544   5.328  0.7946  1.4723 -0.7264
  139MOL0     O18631   5.010   7.095   5.494 -0.5629  0.0790  0.4288
  139MOL0     C18632   4.986   7.094   5.613 -0.8115  0.2136 -0.0457
  139MOL0     O18633   5.013   7.203   5.703 -0.7312  0.0711  0.4205
  139MOL0     C18634   5.047   7.325   5.648 -0.5697  0.3373  0.7762
  139MOL0     C18635   5.164   7.391   5.698 -0.0340  0.0865  0.1752
  139MOL0     C18636   5.191   7.516   5.649 -0.9702 -0.5139 -0.3559
  139MOL0     C18637   5.110   7.577   5.560  0.3403  0.9531 -1.3523
  139MOL0     O18638   5.145   7.708   5.528  0.3416 -0.4873  0.0814
  139MOL0     C18639   5.066   7.780   5.439 -0.7462 -0.0295 -0.7131
  139MOL0     C18640   5.118   7.928   5.441  0.4220 -0.3119  0.1647
  139MOL0     C18641   5.122   7.986   5.584  1.7151 -0.7776 -0.3286
  139MOL0     C18642   5.099   8.141   5.586  0.2044 -0.9667 -0.4493
  139MOL0     C18643   5.065   8.200   5.729  0.5656 -0.7555 -0.3449
  139MOL0     C18644   5.030   8.347   5.723 -0.4790 -0.5021 -0.2646
  139MOL0     C18645   5.032   8.415   5.864  0.1322  0.2812  0.2878
  139MOL0     C18646   5.166   8.471   5.905 -0.2624 -0.2365  0.3435
  139MOL0     N18647   5.161   8.532   6.041 -0.5750  0.3934 -0.1608
  139MOL0     C18648   5.220   8.480   6.154 -0.2366 -0.3418  0.0303
  139MOL0     C18649   5.181   8.570   6.251 -0.4363  0.3236  0.4176
  139MOL0     C18650   5.201   8.550   6.402 -0.6533 -0.0843  0.3632
  139MOL0     C18651   5.323   8.462   6.433  0.5823  0.2583  0.1566
  139MOL0     C18652   5.358   8.470   6.584 -0.1477  0.4416  0.9358
  139MOL0     C18653   5.442   8.354   6.631  0.1988 -0.1572  1.2323
  139MOL0     O18654   5.464   8.380   6.768 -0.2788  0.5676 -0.3633
  139MOL0     C18655   5.460   8.269   6.868 -0.6301 -1.2577  0.4328
  139MOL0     C18656   5.458   8.313   7.007 -0.5894  0.5020 -1.1714
  139MOL0     C18657   5.463   8.219   7.116  0.9592 -0.3304 -0.1946
  139MOL0     C18658   5.466   8.091   7.085  1.2520 -0.2861  0.6626
  139MOL0     C18659   5.458   7.988   7.193 -0.6162 -0.2000  0.7437
  139MOL0     O18660   5.489   8.031   7.320  0.0966 -0.1898  0.0179
  139MOL0     C18661   5.477   7.951   7.428 -0.4841 -0.0559 -0.0933
  139MOL0     C18662   5.563   7.841   7.456  1.3689 -0.2945 -1.3465
  139MOL0     C18663   5.541   7.776   7.570  0.6902  0.3203  0.6934
  139MOL0     C18664   5.436   7.808   7.650  0.5007  0.8126  0.1359
  139MOL0     O18665   5.399   7.743   7.766 -0.1334  0.5502  1.0243
  139MOL0     C18666   5.476   7.637   7.816 -0.0206  0.1280 -0.8283
  139MOL0     C18667   5.418   7.584   7.944 -0.5915  0.7202 -0.1107
  139MOL0     C18668   5.363   7.700   8.027  0.6983 -0.7635 -0.8298
  139MOL0     C18669   5.334   7.647   8.167 -0.5235 -0.6880  0.2422
  139MOL0     C18670   5.253   7.756   8.249  0.0706 -0.6540  0.2656
  139MOL0     C18671   5.227   7.718   8.401  0.5442  0.0763  0.0508
  139MOL0     C18672   5.157   7.823   8.480 -0.5928 -0.6324 -0.5288
  139MOL0     C18673   5.023   7.853   8.417  0.2442 -0.6720 -0.9570
  139MOL0    Cl18674   4.939   7.951   8.542  0.1692 -0.0343 -0.3885
  139MOL0     C18675   5.361   7.916   7.622 -0.5465 -1.1731  0.2249
  139MOL0     C18676   5.370   7.986   7.503  1.1368 -0.8810 -0.3779
  139MOL0     O18677   5.451   7.872   7.157  0.0038 -0.0858 -1.2699
  139MOL0     C18678   5.477   8.046   6.948 -0.4214 -0.6232 -0.5225
  139MOL0     C18679   5.482   8.140   6.841 -0.9077  0.1296 -0.1959
  139MOL0     N18680   5.109   8.670   6.192  0.5592  0.7963 -0.5047
  139MOL0     N18681   5.106   8.653   6.065  0.0615 -0.0287 -1.0290
  139MOL0     C18682   4.986   7.518   5.518 -0.0294  0.4267  0.5373
  139MOL0     C18683   4.956   7.386   5.555 -1.1046  0.4811  1.7274
  139MOL0     C18684   4.907   6.973   5.658  1.0221  0.3604  0.1378
  139MOL0     C18685   4.933   6.850   5.596  0.0705  0.0103 -0.8623
  139MOL0     C18686   4.869   6.736   5.633  0.4560  0.5282  0.5440
  139MOL0     C18687   4.798   6.725   5.758 -0.5492 -0.1779  0.2959
  139MOL0     O18688   4.751   6.601   5.790  0.1208 -1.4451  0.1442
  139MOL0     C18689   4.648   6.594   5.896 -0.5565 -0.5601 -0.3656
  139MOL0     C18690   4.710   6.578   6.042  0.8953  0.3982  0.5485
  139MOL0     C18691   4.600   6.513   6.137  1.0187 -0.4386  0.2004
  139MOL0     C18692   4.652   6.483   6.280 -0.4705 -0.1855 -0.2967
  139MOL0     C18693   4.559   6.422   6.373 -0.7719  0.7097 -0.9042
  139MOL0     C18694   4.493   6.359   6.462  0.2670 -1.0411  0.6255
  139MOL0     C18695   4.771   6.845   5.822  0.3529  0.1992 -0.4835
  139MOL0     C18696   4.818   6.965   5.775  0.9046 -0.7010  0.3650
  139MOL0     C18697   4.771   7.100   5.838  0.4381  0.9321  0.6816
  139MOL0     H18698   5.236   7.347   5.767 -0.6641  0.5132  1.1183
  139MOL0     H18699   5.281   7.564   5.684 -2.2301  0.0120  2.4329
  139MOL0     H18700   5.083   7.737   5.340  0.4405 -2.8504  0.6174
  139MOL0     H18701   4.962   7.782   5.471  0.8315 -0.6941  5.8030
  139MOL0     H18702   5.053   7.991   5.379 -0.5636 -1.8645 -0.4324
  139MOL0     H18703   5.220   7.945   5.406  1.1320 -0.7163  1.9336
  139MOL0     H18704   5.217   7.980   5.639  2.2056  0.5953 -0.9601
  139MOL0     H18705   5.041   7.941   5.642 -0.3103  0.8903 -1.7322
  139MOL0     H18706   5.189   8.194   5.552  0.0308  0.7831  1.6181
  139MOL0     H18707   5.022   8.176   5.518 -0.0058 -0.3506  0.1011
  139MOL0     H18708   4.979   8.142   5.765  0.4404  0.1658  0.9321
  139MOL0     H18709   5.150   8.189   5.796  0.4711  0.0636 -0.0732
  139MOL0     H18710   5.107   8.406   5.671  0.8780  0.2368  2.4316
  139MOL0     H18711   4.939   8.374   5.668 -0.2251  0.6007 -0.1713
  139MOL0     H18712   4.994   8.342   5.936 -0.8419  1.8487  1.4055
  139MOL0     H18713   4.968   8.503   5.866  0.6584  0.9260 -3.4524
  139MOL0     H18714   5.247   8.398   5.898  0.4442  0.5269  0.3811
  139MOL0     H18715   5.192   8.561   5.849 -2.0552  1.9988  2.8589
  139MOL0     H18716   5.285   8.394   6.161  0.6671  0.3340  0.1013
  139MOL0     H18717   5.209   8.645   6.456 -2.7152  1.0937 -1.2667
  139MOL0     H18718   5.116   8.497   6.445 -0.4479  0.5449  1.6188
  139MOL0     H18719   5.295   8.361   6.402  1.3853  0.6395 -2.0464
  139MOL0     H18720   5.404   8.494   6.366 -0.8772  2.0067 -0.8751
  139MOL0     H18721   5.273   8.459   6.652 -1.2144  2.9937  0.1032
  139MOL0     H18722   5.400   8.569   6.605  0.5826  0.6286 -1.2017
  139MOL0     H18723   5.535   8.359   6.573  0.7023  0.1880  2.0419
  139MOL0     H18724   5.398   8.258   6.603 -0.0321  0.4153 -0.4922
  139MOL0     H18725   5.450   8.420   7.026  1.0539  0.2521  1.2285
  139MOL0     H18726   5.456   8.261   7.216  1.4187 -2.0600  0.6092
  139MOL0     H18727   5.626   7.785   7.387  2.5766 -1.4414  0.5861
  139MOL0     H18728   5.595   7.684   7.592  0.0644  0.4705  3.0968
  139MOL0     H18729   5.479   7.557   7.742 -2.2520 -0.8357  0.0157
  139MOL0     H18730   5.576   7.673   7.840 -1.3388  2.5734  1.5977
  139MOL0     H18731   5.331   7.525   7.914 -0.6414  1.1473 -0.8429
  139MOL0     H18732   5.485   7.525   8.007 -1.4478 -0.4449 -0.2742
  139MOL0     H18733   5.430   7.785   8.010 -0.9728  0.9232  0.4741
  139MOL0     H18734   5.265   7.734   7.990  0.0038 -2.3279 -0.4675
  139MOL0     H18735   5.420   7.616   8.227  1.0122  2.8030  0.0824
  139MOL0     H18736   5.270   7.559   8.160 -1.4471 -0.1166  1.1418
  139MOL0     H18737   5.154   7.773   8.205  0.5461  0.4951 -0.4175
  139MOL0     H18738   5.304   7.852   8.240 -1.5746  0.0804 -2.5975
  139MOL0     H18739   5.162   7.632   8.420  0.1703  0.5083  0.8067
  139MOL0     H18740   5.322   7.699   8.451  1.2284  0.7138 -0.9771
  139MOL0     H18741   5.222   7.911   8.492 -0.7464 -0.3472 -1.7034
  139MOL0     H18742   5.128   7.781   8.577  0.4314 -1.6182 -0.6339
  139MOL0     H18743   5.038   7.910   8.325  0.0894  0.3114 -0.3946
  139MOL0     H18744   4.970   7.762   8.387  0.4543 -2.2934  2.9271
  139MOL0     H18745   5.277   7.934   7.688 -1.1054 -0.2917 -0.6878
  139MOL0     H18746   5.309   8.069   7.470  0.2310 -0.4746  2.0839
  139MOL0     H18747   5.488   7.940   6.927 -2.6737 -0.7338 -1.4244
  139MOL0     H18748   5.477   8.101   6.739 -1.3122  2.3263 -1.0782
  139MOL0     H18749   4.920   7.574   5.453 -1.3039  1.8862  2.9296
  139MOL0     H18750   4.863   7.339   5.525  0.0570 -1.1568  0.5398
  139MOL0     H18751   4.991   6.852   5.505  1.8152  0.8055  0.2063
  139MOL0     H18752   4.865   6.640   5.583  0.2654 -0.1244  1.7774
  139MOL0     H18753   4.584   6.506   5.883  1.9928 -2.6534  0.2517
  139MOL0     H18754   4.584   6.682   5.886 -2.3545 -1.1524  3.7793
  139MOL0     H18755   4.757   6.669   6.081  1.5874  1.6945 -2.9243
  139MOL0     H18756   4.790   6.504   6.037  2.0226  1.3909  2.6146
  139MOL0     H18757   4.564   6.421   6.089  0.9342  1.0662 -2.8393
  139MOL0     H18758   4.516   6.582   6.138 -0.1845 -1.8500 -0.1301
  139MOL0     H18759   4.741   6.420   6.279 -0.1236  0.2835 -1.9856
  139MOL0     H18760   4.678   6.576   6.330 -1.4343 -1.9404  3.9220
  139MOL0     H18761   4.441   6.297   6.532 -2.5055  0.7661  0.3271
  139MOL0     H18762   4.713   6.865   5.912 -0.7418 -0.5720 -1.0024
  139MOL0     H18763   4.742   7.174   5.762  0.3387 -0.4626 -0.6958
  139MOL0     H18764   4.682   7.091   5.899  0.2710 -1.3398  0.2040
  139MOL0     H18765   4.847   7.140   5.906 -0.4270  0.7350  1.7883
  140MOL0     O18766   3.239   3.774   5.784 -0.3262 -0.0557  0.5292
  140MOL0     C18767   3.327   3.849   5.830 -0.2006 -0.1681 -0.0376
  140MOL0     O18768   3.339   3.981   5.801 -0.6484  0.2239 -0.2202
  140MOL0     C18769   3.240   4.039   5.728 -0.5023  0.2237  0.0919
  140MOL0     C18770   3.248   4.032   5.590  1.0268  1.0632  0.3887
  140MOL0     C18771   3.154   4.103   5.516 -0.6917  0.4741  0.7640
  140MOL0     C18772   3.050   4.172   5.584 -0.1936  0.1800  0.0403
  140MOL0     O18773   2.957   4.238   5.506 -0.0646  0.3157 -0.7447
  140MOL0     C18774   2.833   4.292   5.556  0.0312  0.2226  1.2857
  140MOL0     C18775   2.752   4.342   5.430 -0.3172 -0.2374  0.4007
  140MOL0     C18776   2.610   4.389   5.451  0.9866  0.6894 -0.3587
  140MOL0     C18777   2.524   4.357   5.331 -0.1691  0.1351 -1.2715
  140MOL0     C18778   2.375   4.361   5.374  0.5475 -0.5717  0.2115
  140MOL0     C18779   2.278   4.327   5.253 -0.1788  0.2424  0.2387
  140MOL0     C18780   2.276   4.442   5.152  0.9094 -0.6977 -0.3048
  140MOL0     C18781   2.200   4.428   5.027 -0.5156  0.1378  0.1869
  140MOL0     N18782   2.111   4.317   5.020  0.0153  0.6185  0.3761
  140MOL0     C18783   1.992   4.317   5.088 -0.0710 -0.0845  0.4732
  140MOL0     C18784   1.944   4.191   5.061 -0.2692  0.5017 -0.5477
  140MOL0     C18785   1.819   4.131   5.118  0.1293  0.2570 -0.1706
  140MOL0     C18786   1.817   4.095   5.273  0.3543 -0.4658  0.0567
  140MOL0     C18787   1.922   3.992   5.304  1.2985  0.0975 -0.5814
  140MOL0     C18788   1.887   3.933   5.443 -0.3442 -0.5478  0.3807
  140MOL0     O18789   1.785   3.838   5.442  0.5090 -0.1037  1.3809
  140MOL0     C18790   1.825   3.719   5.382  0.8166 -0.5696  0.6375
  140MOL0     C18791   1.771   3.681   5.258  0.2981 -0.4914  0.1659
  140MOL0     C18792   1.821   3.571   5.198  0.4878  1.1375 -0.1619
  140MOL0     C18793   1.922   3.488   5.264  0.3249  0.2456 -1.3928
  140MOL0     C18794   1.986   3.384   5.200  0.3126  0.1438 -0.8020
  140MOL0     O18795   1.936   3.369   5.075  0.2335 -0.5529 -0.2119
  140MOL0     C18796   2.018   3.291   4.983  0.5688  0.0362 -0.8099
  140MOL0     C18797   1.952   3.225   4.874 -0.2748 -0.0608 -0.2048
  140MOL0     C18798   2.021   3.152   4.784  0.1911  0.0470 -0.1863
  140MOL0     C18799   2.151   3.129   4.801  0.7970  1.0008  0.1829
  140MOL0     O18800   2.225   3.049   4.712  0.0716 -0.3917 -0.6299
  140MOL0     C18801   2.329   3.115   4.637 -0.3820 -0.0957  0.1587
  140MOL0     C18802   2.270   3.213   4.540  0.3062 -0.4631  0.0880
  140MOL0     C18803   2.163   3.137   4.448  0.6757 -0.9911 -0.6251
  140MOL0     C18804   2.135   3.232   4.326  0.0156  0.2003 -1.5664
  140MOL0     C18805   2.246   3.245   4.225 -0.9753  0.0637  0.8868
  140MOL0     C18806   2.209   3.361   4.126  0.1376  0.0585 -0.4621
  140MOL0     C18807   2.148   3.329   3.985 -0.4345 -0.4196  0.0711
  140MOL0     C18808   2.120   3.451   3.887  0.1060  0.3204 -0.4641
  140MOL0    Cl18809   2.027   3.405   3.739 -0.2585  0.0908  0.3024
  140MOL0     C18810   2.221   3.198   4.898  0.7341 -0.4402  0.2462
  140MOL0     C18811   2.155   3.279   4.992  0.1457  0.0412  0.1222
  140MOL0     O18812   2.070   3.314   5.255  0.5233  1.0750  0.2613
  140MOL0     C18813   1.967   3.519   5.394 -1.6042 -0.0577  0.8026
  140MOL0     C18814   1.925   3.639   5.443 -0.0790 -0.6093 -0.9032
  140MOL0     N18815   2.032   4.119   4.972  0.1742 -0.9337 -0.0922
  140MOL0     N18816   2.137   4.194   4.964  0.4939 -0.1707  0.6809
  140MOL0     C18817   3.028   4.153   5.717  0.2415 -0.3135  0.5183
  140MOL0     C18818   3.131   4.096   5.792  0.1453  0.6036 -0.3489
  140MOL0     C18819   3.427   3.783   5.904 -0.0276 -0.0065 -0.9412
  140MOL0     C18820   3.566   3.787   5.859  1.0295  0.0966  0.2172
  140MOL0     C18821   3.668   3.754   5.942 -0.4137  0.0475 -0.6378
  140MOL0     C18822   3.651   3.701   6.065 -0.2523  0.3942  0.8053
  140MOL0     O18823   3.758   3.678   6.149  0.2461  0.3156 -0.0425
  140MOL0     C18824   3.800   3.551   6.138 -0.3182  0.4769 -0.4271
  140MOL0     C18825   3.895   3.528   6.020  0.2069 -0.2775 -0.3665
  140MOL0     C18826   3.932   3.383   6.027  0.3407  1.1380  0.4769
  140MOL0     C18827   3.976   3.324   5.887 -0.7827  0.2029  1.0983
  140MOL0     C18828   4.099   3.399   5.864  0.5269 -0.7544  1.0439
  140MOL0     C18829   4.195   3.475   5.846  0.3963  0.5139  0.3783
  140MOL0     C18830   3.522   3.695   6.115 -0.1443  0.7596 -0.2968
  140MOL0     C18831   3.407   3.751   6.042  0.0593 -0.0987  0.7020
  140MOL0     C18832   3.265   3.729   6.102  0.0421 -0.0097 -0.1196
  140MOL0     H18833   3.329   3.984   5.537 -2.0093 -2.8692 -1.2235
  140MOL0     H18834   3.150   4.107   5.407 -1.4400 -0.9892  0.7209
  140MOL0     H18835   2.784   4.216   5.618  0.5534  1.2939  3.0696
  140MOL0     H18836   2.839   4.379   5.622  0.2183  1.9669 -0.8979
  140MOL0     H18837   2.755   4.257   5.361 -4.8231 -3.1230  3.2262
  140MOL0     H18838   2.814   4.423   5.390 -1.5228  1.3369  1.5964
  140MOL0     H18839   2.606   4.499   5.455 -2.7993  0.6490  1.3424
  140MOL0     H18840   2.566   4.334   5.534  0.6756 -1.0619 -1.6368
  140MOL0     H18841   2.547   4.428   5.251  2.6100  0.1178 -0.5796
  140MOL0     H18842   2.564   4.264   5.292  2.1274  1.0128 -1.1473
  140MOL0     H18843   2.346   4.317   5.470 -2.6619  1.5954  0.4143
  140MOL0     H18844   2.349   4.466   5.390 -1.6435 -1.2471  1.4898
  140MOL0     H18845   2.310   4.239   5.196  0.7365  0.7684 -0.0807
  140MOL0     H18846   2.177   4.316   5.294 -0.5923  1.1239 -0.5074
  140MOL0     H18847   2.382   4.449   5.123  1.1370 -1.4114  0.3168
  140MOL0     H18848   2.238   4.530   5.205 -2.4562 -2.9290  1.2604
  140MOL0     H18849   2.141   4.516   5.000 -1.5545 -0.5303  0.2044
  140MOL0     H18850   2.274   4.401   4.951 -2.7882 -5.5230 -0.5544
  140MOL0     H18851   1.938   4.400   5.132  1.9182  1.2794  0.5058
  140MOL0     H18852   1.739   4.200   5.090  0.8457  0.5153 -1.6415
  140MOL0     H18853   1.801   4.034   5.070  0.2488 -0.0879  0.4647
  140MOL0     H18854   1.839   4.184   5.332  2.2327 -0.5794 -0.4212
  140MOL0     H18855   1.719   4.050   5.294 -0.5803  1.8413  0.9662
  140MOL0     H18856   2.023   4.033   5.316  1.3363 -0.1354 -0.0684
  140MOL0     H18857   1.926   3.917   5.225  1.4664  0.7580 -1.2013
  140MOL0     H18858   1.858   4.013   5.511 -0.1678  0.0720 -0.2642
  140MOL0     H18859   1.982   3.899   5.484  0.6816  5.1466  3.6486
  140MOL0     H18860   1.690   3.733   5.206 -1.8331 -1.8792  1.9214
  140MOL0     H18861   1.774   3.542   5.105  1.1617 -0.7190  0.0268
  140MOL0     H18862   1.847   3.244   4.858  0.2253  2.8020 -0.6417
  140MOL0     H18863   1.982   3.103   4.695  0.0709  0.4428 -0.3539
  140MOL0     H18864   2.398   3.173   4.700  1.2494  0.1382 -1.7568
  140MOL0     H18865   2.398   3.048   4.586  1.9944  1.5105  1.0499
  140MOL0     H18866   2.218   3.288   4.601 -1.0011 -3.1195  2.5203
  140MOL0     H18867   2.349   3.265   4.485  0.8831 -1.6837 -0.2719
  140MOL0     H18868   2.207   3.053   4.393 -2.0189 -1.6510 -1.9728
  140MOL0     H18869   2.073   3.113   4.505 -0.4356  1.1032 -1.4011
  140MOL0     H18870   2.111   3.328   4.373  2.1446  0.7225 -1.4727
  140MOL0     H18871   2.040   3.196   4.285 -2.2546  0.3266  2.9892
  140MOL0     H18872   2.265   3.150   4.174 -1.8882  0.4698 -0.2607
  140MOL0     H18873   2.341   3.278   4.268  0.1112 -4.8176  2.8552
  140MOL0     H18874   2.142   3.426   4.182  1.1671 -2.3770  4.0478
  140MOL0     H18875   2.291   3.430   4.109  0.5240 -0.4871 -0.8492
  140MOL0     H18876   2.054   3.274   3.996 -0.7882 -0.4628 -2.5378
  140MOL0     H18877   2.220   3.262   3.936  0.5576  1.8454 -1.7319
  140MOL0     H18878   2.076   3.537   3.938 -1.1764  1.3983 -3.1468
  140MOL0     H18879   2.214   3.495   3.850  0.8289  2.3198  3.2155
  140MOL0     H18880   2.329   3.202   4.907  0.7964 -0.8935 -0.2580
  140MOL0     H18881   2.203   3.329   5.075 -0.9388  1.8186 -0.2667
  140MOL0     H18882   2.036   3.449   5.440 -1.7026 -1.2771 -0.8070
  140MOL0     H18883   1.969   3.668   5.538  2.9532 -0.8659 -2.1453
  140MOL0     H18884   2.946   4.203   5.767 -1.3311 -1.7546 -0.5509
  140MOL0     H18885   3.121   4.085   5.899  5.0175  0.9595  0.3411
  140MOL0     H18886   3.582   3.841   5.766 -1.7591  0.4756 -0.1224
  140MOL0     H18887   3.768   3.768   5.903  0.7034 -2.0810  1.2273
  140MOL0     H18888   3.710   3.491   6.121 -0.8842  1.4443 -0.9219
  140MOL0     H18889   3.845   3.520   6.233  0.1735 -1.9423 -1.3637
  140MOL0     H18890   3.982   3.595   6.024 -1.6848  2.3440 -0.3048
  140MOL0     H18891   3.838   3.543   5.928  1.4655 -0.0149 -1.1322
  140MOL0     H18892   3.846   3.328   6.065 -0.0232  2.2084  1.2646
  140MOL0     H18893   4.019   3.366   6.092  0.8548  2.6648  0.2325
  140MOL0     H18894   3.994   3.216   5.898  0.4297  0.5895  3.5168
  140MOL0     H18895   3.912   3.352   5.803  0.0700  1.0591  0.7216
  140MOL0     H18896   4.268   3.553   5.836  1.9553 -0.9948 -0.5998
  140MOL0     H18897   3.501   3.646   6.209  2.2094  1.9060  0.9147
  140MOL0     H18898   3.240   3.626   6.078 -0.1706  0.2343 -1.0044
  140MOL0     H18899   3.274   3.744   6.210 -0.6189  3.6206 -0.4134
  140MOL0     H18900   3.184   3.798   6.075 -0.8918 -1.4194 -1.0713
  141MOL0     O18901   9.870   9.104   2.450 -0.1773  0.2176  0.3703
  141MOL0     C18902   9.927   8.990   2.444 -1.0471  0.4130  1.2424
  141MOL0     O18903  10.034   8.945   2.517  0.7021  0.0765 -0.4519
  141MOL0     C18904  10.082   9.025   2.622  0.5168  0.2616 -0.1564
  141MOL0     C18905  10.102   8.981   2.748  0.4039 -0.9749 -0.1495
  141MOL0     C18906  10.153   9.069   2.848 -0.5720  0.2977  0.9693
  141MOL0     C18907  10.202   9.203   2.816 -0.4167  0.1335 -0.3026
  141MOL0     O18908  10.263   9.291   2.898  0.3448  0.1368  0.0381
  141MOL0     C18909  10.243   9.275   3.036 -0.5352  1.1593 -0.0686
  141MOL0     C18910  10.350   9.370   3.104  0.7812  0.8757  0.2619
  141MOL0     C18911  10.495   9.334   3.071  0.1425  0.2404  0.8349
  141MOL0     C18912  10.596   9.399   3.161  0.3951 -0.9280  0.0022
  141MOL0     C18913  10.643   9.539   3.110 -0.2672 -1.0276  0.0246
  141MOL0     C18914  10.767   9.594   3.176  1.4962 -0.1880  0.8590
  141MOL0     C18915  10.853   9.667   3.072  0.1625  1.3317  0.2486
  141MOL0     C18916  10.790   9.798   3.024 -0.4489  0.0651  0.5016
  141MOL0     N18917  10.912   9.881   2.996 -0.5380 -0.3622 -0.7474
  141MOL0     C18918  10.975   9.872   2.871 -0.6224  0.3040  0.3736
  141MOL0     C18919  11.077   9.959   2.888 -0.3166  0.0454  0.2832
  141MOL0     C18920  11.151  10.012   2.774  0.3872  0.1270  0.2377
  141MOL0     C18921  11.300  10.024   2.807  0.4713  0.0915 -0.5088
  141MOL0     C18922  11.372   9.884   2.800 -0.8427  0.2324  0.5493
  141MOL0     C18923  11.343   9.797   2.679 -1.3732  0.5184 -0.6713
  141MOL0     O18924  11.318   9.867   2.567 -0.0175  0.0766 -0.9566
  141MOL0     C18925  11.419   9.915   2.491 -0.0595  0.3715 -0.0624
  141MOL0     C18926  11.377   9.992   2.386  1.1370 -0.4241 -0.1003
  141MOL0     C18927  11.465  10.052   2.306 -0.9760 -0.4540 -0.4373
  141MOL0     C18928  11.606  10.034   2.320  0.8852  0.3825  0.2041
  141MOL0     C18929  11.698  10.084   2.218  0.3512  0.5988  0.6279
  141MOL0     O18930  11.815  10.132   2.275  0.2049 -0.3758 -0.4868
  141MOL0     C18931  11.907  10.211   2.206  0.0978 -0.2472 -0.1468
  141MOL0     C18932  12.019  10.139   2.154  0.7789 -0.5106 -0.0517
  141MOL0     C18933  12.104  10.200   2.059 -0.2257  0.4261  0.4192
  141MOL0     C18934  12.090  10.334   2.023  0.4719 -0.3869  0.1784
  141MOL0     O18935  12.197  10.378   1.952  0.6420 -0.5140 -0.6246
  141MOL0     C18936  12.195  10.503   1.885 -0.7700 -0.9615  0.0011
  141MOL0     C18937  12.299  10.498   1.777  0.3947 -0.4110 -0.4668
  141MOL0     C18938  12.303  10.634   1.704  0.5298  0.4310  0.1317
  141MOL0     C18939  12.288  10.614   1.550 -0.1812  0.3496  0.1345
  141MOL0     C18940  12.312  10.755   1.477 -0.2215 -0.2630 -0.5218
  141MOL0     C18941  12.235  10.764   1.347 -0.8931  0.2514  0.2492
  141MOL0     C18942  12.086  10.789   1.370  0.2797  0.0371 -0.0270
  141MOL0     C18943  12.006  10.837   1.248  0.0733  0.9983 -0.1108
  141MOL0    Cl18944  12.029  11.001   1.192 -0.7710 -0.2535  0.0081
  141MOL0     C18945  11.987  10.409   2.079  0.3520  0.4745 -0.1863
  141MOL0     C18946  11.890  10.349   2.167  0.5528  0.0796 -0.5620
  141MOL0     O18947  11.657  10.112   2.104  0.4805  0.4647 -0.5172
  141MOL0     C18948  11.643   9.956   2.426 -0.4164 -0.4090  0.0602
  141MOL0     C18949  11.553   9.884   2.507  0.1507 -1.0453  1.1464
  141MOL0     N18950  11.084   9.999   3.012  0.3255  0.8947 -0.4855
  141MOL0     N18951  10.984   9.960   3.075  0.3553  0.6523  0.2080
  141MOL0     C18952  10.192   9.235   2.686  0.7736 -0.1454 -0.4527
  141MOL0     C18953  10.129   9.158   2.589  0.0644  0.4555 -0.4095
  141MOL0     C18954   9.884   8.897   2.330  0.7648 -0.1775  0.1414
  141MOL0     C18955   9.761   8.915   2.268  0.1433  0.6242  0.1867
  141MOL0     C18956   9.711   8.840   2.159 -0.6525 -0.3068  0.2158
  141MOL0     C18957   9.804   8.765   2.089  0.0562  0.4809 -0.3726
  141MOL0     O18958   9.762   8.714   1.968  0.9193 -0.1892  0.1076
  141MOL0     C18959   9.855   8.715   1.863  0.4919 -0.4416  0.4311
  141MOL0     C18960   9.773   8.759   1.745 -0.6575  0.3544  0.4161
  141MOL0     C18961   9.706   8.631   1.672 -1.5144 -0.1027  0.8193
  141MOL0     C18962   9.807   8.558   1.587  0.0586  0.2579  0.3626
  141MOL0     C18963   9.767   8.423   1.559  0.4266  0.1645  0.5606
  141MOL0     C18964   9.740   8.314   1.532  0.2264  0.1551 -0.1969
  141MOL0     C18965   9.927   8.735   2.143 -0.5302  0.5536 -0.3390
  141MOL0     C18966   9.971   8.801   2.266 -0.5551  0.2568  0.0347
  141MOL0     C18967  10.129   8.779   2.302  0.5289  0.4071  0.4710
  141MOL0     H18968  10.083   8.876   2.769 -2.4544 -0.8257 -1.5831
  141MOL0     H18969  10.168   9.027   2.947  0.7858  0.2797  0.7796
  141MOL0     H18970  10.144   9.298   3.077 -1.3916 -1.8848 -0.2111
  141MOL0     H18971  10.272   9.172   3.060 -0.4246  0.4821 -2.7975
  141MOL0     H18972  10.351   9.361   3.213 -3.3042  0.1602  0.3834
  141MOL0     H18973  10.322   9.473   3.083 -1.8637  1.0199  3.6813
  141MOL0     H18974  10.524   9.343   2.966  2.1168 -4.8440  0.6701
  141MOL0     H18975  10.492   9.226   3.088 -1.2677 -0.1494 -1.4295
  141MOL0     H18976  10.552   9.416   3.259  2.0647  1.1092  0.4900
  141MOL0     H18977  10.686   9.337   3.161 -0.1092 -1.6776 -0.8523
  141MOL0     H18978  10.648   9.539   3.000 -0.4792  1.3057 -0.0404
  141MOL0     H18979  10.561   9.606   3.137 -0.1218 -1.3065  1.1697
  141MOL0     H18980  10.735   9.676   3.240 -3.1939 -1.1353  0.1016
  141MOL0     H18981  10.812   9.517   3.240  5.8110  1.4024  0.1010
  141MOL0     H18982  10.864   9.599   2.987 -1.5799  0.3225  0.7850
  141MOL0     H18983  10.950   9.674   3.121 -0.2561 -2.0831  1.9214
  141MOL0     H18984  10.727   9.781   2.936 -2.7705  1.6376  1.7601
  141MOL0     H18985  10.734   9.850   3.102 -3.4843 -0.2249 -1.3370
  141MOL0     H18986  10.942   9.816   2.784  0.2986 -1.2612  0.9788
  141MOL0     H18987  11.130   9.938   2.696 -0.0971 -1.7803  2.0561
  141MOL0     H18988  11.111  10.110   2.749 -2.3663 -1.0096 -0.1509
  141MOL0     H18989  11.338  10.087   2.726  2.3615 -2.1493 -1.5014
  141MOL0     H18990  11.314  10.082   2.899  2.2648  1.9924 -1.8699
  141MOL0     H18991  11.342   9.824   2.886 -0.7012  0.2018  0.5780
  141MOL0     H18992  11.478   9.908   2.813 -0.7111  2.5613 -3.4010
  141MOL0     H18993  11.255   9.737   2.703  0.3769 -1.7335  0.4041
  141MOL0     H18994  11.418   9.719   2.662 -0.6475  0.9845  0.2983
  141MOL0     H18995  11.270  10.003   2.376  1.4260  0.1513 -4.4744
  141MOL0     H18996  11.429  10.119   2.228 -0.4159 -1.2411 -1.4053
  141MOL0     H18997  12.034  10.034   2.179  1.0998 -0.3098  0.6189
  141MOL0     H18998  12.193  10.151   2.023  2.6935  3.6936  2.5084
  141MOL0     H18999  12.097  10.527   1.843  0.2277  2.0615 -0.8226
  141MOL0     H19000  12.200  10.593   1.947 -2.0308  0.8539 -2.3719
  141MOL0     H19001  12.402  10.479   1.809 -0.0177 -1.7672  0.1579
  141MOL0     H19002  12.270  10.418   1.707  3.1349  0.8273 -3.2772
  141MOL0     H19003  12.217  10.692   1.737 -0.0202 -0.3294  0.0724
  141MOL0     H19004  12.399  10.685   1.712  2.2173 -2.4898  0.1521
  141MOL0     H19005  12.190  10.580   1.514  0.1651  1.1608 -1.7197
  141MOL0     H19006  12.369  10.548   1.518 -2.0100 -2.1609  0.3857
  141MOL0     H19007  12.417  10.766   1.449  0.5520 -1.5690  1.5918
  141MOL0     H19008  12.279  10.834   1.545  0.9834 -0.8893  0.8625
  141MOL0     H19009  12.277  10.853   1.299 -1.1512  0.3376  0.1856
  141MOL0     H19010  12.252  10.666   1.300 -1.2335 -0.5796  1.7912
  141MOL0     H19011  12.076  10.871   1.442  0.6664  0.5789 -0.5730
  141MOL0     H19012  12.048  10.699   1.419  0.6416  0.5521  1.2369
  141MOL0     H19013  12.035  10.777   1.161 -3.9822 -0.4656 -0.6482
  141MOL0     H19014  11.899  10.836   1.271  0.1379  0.3704  0.1942
  141MOL0     H19015  11.975  10.513   2.053  2.1421  0.4126 -1.4498
  141MOL0     H19016  11.803  10.400   2.207  0.0616 -0.6832 -0.6288
  141MOL0     H19017  11.750   9.944   2.440 -0.0477  1.8353 -0.3586
  141MOL0     H19018  11.598   9.811   2.573 -1.7182 -0.3423  3.3112
  141MOL0     H19019  10.220   9.337   2.658 -0.5814  0.5810  0.6949
  141MOL0     H19020  10.129   9.211   2.494  1.7051  2.6597  0.7058
  141MOL0     H19021   9.704   8.999   2.305  1.2502  2.5441 -2.1155
  141MOL0     H19022   9.613   8.876   2.132 -1.8654 -0.3613  3.8986
  141MOL0     H19023   9.898   8.616   1.842 -4.0611 -2.3258 -1.4458
  141MOL0     H19024   9.936   8.788   1.871  0.7059 -0.3293 -1.8951
  141MOL0     H19025   9.834   8.803   1.666  0.4286 -0.4859  0.7623
  141MOL0     H19026   9.689   8.824   1.771 -0.4101 -0.2096  2.9326
  141MOL0     H19027   9.627   8.679   1.613 -2.2620 -0.3587  1.6035
  141MOL0     H19028   9.663   8.578   1.757 -3.8294  2.3357  1.3328
  141MOL0     H19029   9.804   8.604   1.487 -2.4550  2.3694  1.2754
  141MOL0     H19030   9.908   8.569   1.627  0.4263  0.3517 -0.5631
  141MOL0     H19031   9.714   8.217   1.495 -0.1164  0.2459 -0.1910
  141MOL0     H19032   9.989   8.669   2.084 -1.1525 -0.2701 -0.0854
  141MOL0     H19033  10.132   8.703   2.380  0.7949 -0.4797 -0.3911
  141MOL0     H19034  10.187   8.734   2.222  0.4845 -1.7329  1.5711
  141MOL0     H19035  10.171   8.875   2.335 -1.8002  0.9096  2.2668
  142MOL0     O19036   8.607   8.468   6.961 -0.4474 -0.4691 -0.3137
  142MOL0     C19037   8.524   8.562   6.985 -0.2169  0.3009 -0.5457
  142MOL0     O19038   8.555   8.690   7.035 -1.1813  0.0330 -0.0389
  142MOL0     C19039   8.680   8.712   7.085  0.5586  1.1345  0.4189
  142MOL0     C19040   8.788   8.726   6.999  0.6716 -0.3485  0.9898
  142MOL0     C19041   8.917   8.750   7.056  0.1084  0.0268 -0.2430
  142MOL0     C19042   8.934   8.775   7.195  0.9301 -0.6177  0.3919
  142MOL0     O19043   9.060   8.811   7.243 -0.1870 -0.3818  0.2529
  142MOL0     C19044   9.045   8.914   7.347 -0.4341  0.4594  0.2111
  142MOL0     C19045   9.180   8.994   7.362  1.2816  0.5250  0.1464
  142MOL0     C19046   9.158   9.122   7.444 -0.0159 -1.3574  0.4028
  142MOL0     C19047   9.275   9.147   7.541  1.0516  1.2354 -0.4272
  142MOL0     C19048   9.283   9.289   7.598  0.9521  0.5776 -0.0800
  142MOL0     C19049   9.151   9.356   7.652  0.6185  0.7081 -0.2440
  142MOL0     C19050   9.073   9.286   7.765 -0.1054 -0.5511 -0.3090
  142MOL0     C19051   8.969   9.355   7.850  0.1781 -0.0341  0.1123
  142MOL0     N19052   8.842   9.299   7.812 -0.4832 -0.3831 -0.2309
  142MOL0     C19053   8.800   9.175   7.846 -0.0497  0.6423 -0.3047
  142MOL0     C19054   8.690   9.159   7.767 -0.0123 -0.1026  0.6218
  142MOL0     C19055   8.588   9.043   7.787  0.4155  0.1564  1.1859
  142MOL0     C19056   8.640   8.915   7.726 -0.0725 -0.0147  0.3056
  142MOL0     C19057   8.516   8.817   7.746 -0.8764 -0.0155 -0.6420
  142MOL0     C19058   8.536   8.671   7.706  0.3415 -1.1460  0.0094
  142MOL0     O19059   8.404   8.624   7.649  0.2970  0.6440  0.2444
  142MOL0     C19060   8.306   8.584   7.741 -0.5080 -1.4907  0.1832
  142MOL0     C19061   8.204   8.503   7.702 -0.2179 -0.1621 -0.8226
  142MOL0     C19062   8.093   8.458   7.782 -0.6056 -0.7419 -0.5942
  142MOL0     C19063   8.085   8.494   7.921  0.4167 -0.2569 -0.4317
  142MOL0     C19064   7.985   8.437   8.010 -0.1455  0.0367 -0.5560
  142MOL0     O19065   7.904   8.350   7.963  0.4253  0.0492  0.5708
  142MOL0     C19066   7.833   8.281   8.054  0.9296 -0.3325 -0.4423
  142MOL0     C19067   7.686   8.312   8.071 -1.0900 -0.3426  0.1841
  142MOL0     C19068   7.593   8.234   8.156  0.0273 -0.3364  0.6193
  142MOL0     C19069   7.641   8.141   8.233  0.5863 -0.0061 -0.7880
  142MOL0     O19070   7.548   8.062   8.303 -0.6950 -0.6278  0.8190
  142MOL0     C19071   7.567   8.025   8.440  0.4721  0.9286  0.0420
  142MOL0     C19072   7.445   7.947   8.489  0.0502  0.4519  0.4335
  142MOL0     C19073   7.465   7.806   8.429 -0.7106 -0.1629 -0.3833
  142MOL0     C19074   7.352   7.718   8.476  0.3003 -0.2537  0.0446
  142MOL0     C19075   7.371   7.571   8.424 -0.1379 -0.0496 -1.0912
  142MOL0     C19076   7.258   7.468   8.469  0.6053 -0.8293  0.2945
  142MOL0     C19077   7.129   7.486   8.398  0.4969  1.2850  0.0027
  142MOL0     C19078   7.026   7.379   8.431  0.8382 -1.0733  0.0200
  142MOL0    Cl19079   6.988   7.403   8.595  0.0651  0.2824  0.2396
  142MOL0     C19080   7.778   8.110   8.228 -0.6266 -0.3114  0.2836
  142MOL0     C19081   7.877   8.180   8.142  1.2635  0.1135  0.3576
  142MOL0     O19082   7.986   8.482   8.125 -0.7226  0.2088  0.1679
  142MOL0     C19083   8.194   8.584   7.956  0.2822 -0.3188  0.3782
  142MOL0     C19084   8.303   8.624   7.881  0.8710 -0.1769 -0.8235
  142MOL0     N19085   8.670   9.270   7.683  0.1093 -0.1786  0.0366
  142MOL0     N19086   8.765   9.352   7.710 -0.8522  0.4254  0.0712
  142MOL0     C19087   8.815   8.768   7.276  0.2818  0.3088 -0.8072
  142MOL0     C19088   8.692   8.730   7.218  0.9056  0.2298  0.7661
  142MOL0     C19089   8.373   8.529   6.969 -0.7635  0.1234 -0.3818
  142MOL0     C19090   8.344   8.415   6.889 -0.2397 -0.5319 -0.1582
  142MOL0     C19091   8.223   8.357   6.892  0.3205  0.9657 -0.0072
  142MOL0     C19092   8.116   8.421   6.947 -0.5654  0.5980  0.2078
  142MOL0     O19093   7.987   8.386   6.922 -0.0818 -0.8448 -0.1549
  142MOL0     C19094   7.905   8.326   7.026 -0.9415  0.2255  0.4159
  142MOL0     C19095   7.954   8.183   7.036 -0.6264  0.5336 -0.7355
  142MOL0     C19096   7.875   8.103   7.136 -0.3498  0.4807 -0.3288
  142MOL0     C19097   7.935   8.087   7.278  0.5582  0.6766  0.3870
  142MOL0     C19098   7.857   8.009   7.375 -0.8081 -1.0533  0.2519
  142MOL0     C19099   7.795   7.955   7.460  0.1938 -0.0385  0.2620
  142MOL0     C19100   8.144   8.536   7.023  0.3224  0.7096 -0.8090
  142MOL0     C19101   8.268   8.598   7.033  0.1207  0.0878 -0.5780
  142MOL0     C19102   8.279   8.715   7.135  0.1170 -1.1234 -0.2331
  142MOL0     H19103   8.769   8.709   6.893  2.7045 -4.9835  1.1154
  142MOL0     H19104   9.010   8.747   7.000  1.1645  1.5138  1.3272
  142MOL0     H19105   8.964   8.981   7.316 -2.1293 -0.8474  1.6476
  142MOL0     H19106   9.008   8.872   7.441 -1.8155 -0.9463 -0.9038
  142MOL0     H19107   9.215   9.020   7.261  2.1165 -0.9617  0.0142
  142MOL0     H19108   9.261   8.932   7.402  1.4146 -0.2116 -1.1791
  142MOL0     H19109   9.075   9.096   7.511 -1.8260 -0.9144 -1.5613
  142MOL0     H19110   9.123   9.205   7.383  0.8218 -3.6371 -3.5594
  142MOL0     H19111   9.253   9.084   7.627 -1.9609  1.0511 -1.2151
  142MOL0     H19112   9.360   9.113   7.482  0.7076  0.3463 -0.4172
  142MOL0     H19113   9.348   9.288   7.686 -0.0305  3.5567  0.7717
  142MOL0     H19114   9.319   9.363   7.526 -0.1372  3.2065  1.9172
  142MOL0     H19115   9.173   9.459   7.681  0.6628  0.8987 -0.9387
  142MOL0     H19116   9.093   9.358   7.559  2.1873 -3.5906 -1.5533
  142MOL0     H19117   9.158   9.261   7.830  0.0927  3.5554  1.3330
  142MOL0     H19118   9.026   9.194   7.729  1.4849 -0.7632 -1.9615
  142MOL0     H19119   8.995   9.342   7.956  1.5991 -0.3609 -0.2579
  142MOL0     H19120   8.982   9.463   7.834  0.9386 -0.3383 -1.4153
  142MOL0     H19121   8.853   9.122   7.924  1.9080  1.3824 -1.0637
  142MOL0     H19122   8.579   9.033   7.896 -1.0868 -0.9652  0.9834
  142MOL0     H19123   8.488   9.060   7.745  0.1120 -0.8621  1.4830
  142MOL0     H19124   8.664   8.934   7.621  0.1870 -0.8373  0.2080
  142MOL0     H19125   8.727   8.884   7.784 -0.3654 -0.9314  0.2632
  142MOL0     H19126   8.428   8.839   7.685 -0.3193  2.7511 -0.5797
  142MOL0     H19127   8.506   8.819   7.855  3.8707 -1.1300  0.0513
  142MOL0     H19128   8.575   8.610   7.789  0.3579 -1.5495 -0.2942
  142MOL0     H19129   8.609   8.681   7.625 -2.5328  1.4086 -2.5209
  142MOL0     H19130   8.201   8.457   7.604 -0.8915 -3.2329  0.5135
  142MOL0     H19131   8.025   8.386   7.737 -2.4538  2.7218 -3.9343
  142MOL0     H19132   7.642   8.395   8.015 -0.7888 -1.5676 -1.9742
  142MOL0     H19133   7.492   8.268   8.175 -1.4439 -1.5408 -3.7918
  142MOL0     H19134   7.654   7.959   8.454  2.1201  3.2128  1.1599
  142MOL0     H19135   7.584   8.109   8.508  0.9541 -0.1514  1.3140
  142MOL0     H19136   7.448   7.929   8.597  3.2977  0.7687  0.4988
  142MOL0     H19137   7.354   7.999   8.459  0.3452  1.4223  1.1417
  142MOL0     H19138   7.453   7.825   8.322 -0.7703 -0.6417 -0.4645
  142MOL0     H19139   7.558   7.753   8.446 -1.0848 -0.3561  1.1479
  142MOL0     H19140   7.265   7.769   8.434 -1.6084  1.0116  4.7726
  142MOL0     H19141   7.347   7.715   8.586  0.5181  0.6445  0.0896
  142MOL0     H19142   7.461   7.535   8.475  2.0990  6.0370  0.0185
  142MOL0     H19143   7.393   7.559   8.318  5.1202  0.7952 -0.3406
  142MOL0     H19144   7.295   7.365   8.455 -1.0474 -1.4999  0.6230
  142MOL0     H19145   7.232   7.486   8.573 -1.1548  1.7613 -0.5121
  142MOL0     H19146   7.145   7.475   8.290  1.2363  5.0868 -0.4052
  142MOL0     H19147   7.087   7.581   8.432 -0.2561  0.2570  2.1285
  142MOL0     H19148   6.935   7.402   8.375  0.3642  0.6590  1.4016
  142MOL0     H19149   7.069   7.281   8.408  1.0623 -0.2333 -3.7047
  142MOL0     H19150   7.810   8.022   8.284 -0.8947 -0.1217  0.7461
  142MOL0     H19151   7.981   8.150   8.134  1.2470  0.3039 -0.6266
  142MOL0     H19152   8.207   8.611   8.060 -2.5677 -1.4872  1.1469
  142MOL0     H19153   8.384   8.675   7.933 -1.0482  0.3343  1.8257
  142MOL0     H19154   8.813   8.768   7.385 -0.3006  4.3682 -0.6784
  142MOL0     H19155   8.597   8.741   7.270 -0.4334 -0.0567 -1.4741
  142MOL0     H19156   8.426   8.356   6.850 -0.1057 -1.4454  1.4021
  142MOL0     H19157   8.202   8.266   6.836  3.7986 -0.0230  0.0625
  142MOL0     H19158   7.800   8.325   6.996 -1.1276 -2.8256  0.8420
  142MOL0     H19159   7.919   8.381   7.120  0.2234  2.6664 -1.1057
  142MOL0     H19160   8.056   8.191   7.074 -1.6774  1.3624  2.1609
  142MOL0     H19161   7.934   8.135   6.939 -0.3049 -3.4957  0.9826
  142MOL0     H19162   7.854   8.001   7.100 -4.4685  0.7448  0.8296
  142MOL0     H19163   7.774   8.142   7.150 -0.7000 -1.2703  2.8373
  142MOL0     H19164   8.033   8.040   7.263 -1.4565 -3.1242 -2.2758
  142MOL0     H19165   7.945   8.182   7.332  0.2800  0.7748  0.2623
  142MOL0     H19166   7.735   7.900   7.529  2.3084 -1.4575  1.0780
  142MOL0     H19167   8.060   8.569   7.082  0.8431 -1.4114  1.2711
  142MOL0     H19168   8.251   8.809   7.086 -0.2192 -2.3027 -2.4203
  142MOL0     H19169   8.210   8.699   7.219  0.4095 -0.3745  0.1590
  142MOL0     H19170   8.372   8.721   7.192  0.4711  3.1044 -0.9682
  143MOL0     O19171   9.713   6.350   5.231 -0.2590  0.3020  0.4791
  143MOL0     C19172   9.795   6.313   5.318 -1.0506  0.2430  0.4936
  143MOL0     O19173   9.762   6.266   5.441  0.1547 -0.8613 -0.2640
  143MOL0     C19174   9.628   6.242   5.464 -0.1455  0.8400 -0.6306
  143MOL0     C19175   9.578   6.112   5.464 -0.6200  0.8596 -0.5576
  143MOL0     C19176   9.441   6.090   5.478  0.5864 -0.1037  0.1727
  143MOL0     C19177   9.365   6.202   5.504  0.7819 -0.2061  0.7969
  143MOL0     O19178   9.236   6.182   5.546  0.1973 -0.0714 -0.2084
  143MOL0     C19179   9.140   6.282   5.561 -0.4868 -0.5878 -0.0219
  143MOL0     C19180   9.080   6.318   5.429 -0.6238  0.2076  0.2611
  143MOL0     C19181   8.959   6.407   5.451  0.4107 -0.8975  0.0448
  143MOL0     C19182   8.894   6.472   5.325 -0.5662 -0.4298 -0.8830
  143MOL0     C19183   8.828   6.356   5.249 -0.4478  0.8319  1.0615
  143MOL0     C19184   8.760   6.421   5.121  0.9092 -0.2641 -0.2371
  143MOL0     C19185   8.680   6.314   5.043  0.4796  0.2046  0.3421
  143MOL0     C19186   8.555   6.277   5.120  0.2388  0.9464  1.1557
  143MOL0     N19187   8.499   6.181   5.029 -0.5930  0.5292 -0.1403
  143MOL0     C19188   8.400   6.219   4.941  0.7711  1.1357 -0.8405
  143MOL0     C19189   8.393   6.106   4.863 -0.3368  0.6956  0.4809
  143MOL0     C19190   8.298   6.101   4.739 -0.3108  0.5974  0.2691
  143MOL0     C19191   8.160   6.040   4.774  0.8117  1.1065  0.3654
  143MOL0     C19192   8.090   5.976   4.660 -0.5172 -0.4455 -0.3633
  143MOL0     C19193   8.083   6.068   4.530  0.2648  0.0025 -1.0155
  143MOL0     O19194   7.943   6.080   4.487 -0.5102  1.0007 -0.6097
  143MOL0     C19195   7.936   6.163   4.377  0.1848 -0.5497 -0.3646
  143MOL0     C19196   7.995   6.292   4.369  0.8754  0.8752  0.2994
  143MOL0     C19197   7.975   6.372   4.258 -0.8138 -0.1274  0.7336
  143MOL0     C19198   7.897   6.335   4.150  0.3874  0.8802 -0.0131
  143MOL0     C19199   7.899   6.418   4.030  0.2053 -0.0780  0.3287
  143MOL0     O19200   7.985   6.524   4.029 -0.2540  0.2822  0.5673
  143MOL0     C19201   8.003   6.610   3.924 -0.5400 -0.8197 -1.3100
  143MOL0     C19202   7.993   6.743   3.957 -0.3911  0.3101  1.3226
  143MOL0     C19203   8.038   6.838   3.871  1.0680 -0.1347 -0.3409
  143MOL0     C19204   8.058   6.816   3.735 -0.3078  0.3408  0.3845
  143MOL0     O19205   8.064   6.920   3.646 -0.2441 -1.5711 -0.2284
  143MOL0     C19206   8.007   6.906   3.518 -0.7030  0.2788 -0.1214
  143MOL0     C19207   7.967   7.041   3.463  0.1490  0.1117  0.1870
  143MOL0     C19208   8.084   7.146   3.443  0.1451  0.0244  0.0699
  143MOL0     C19209   8.060   7.283   3.509  0.0449 -0.2772  0.2726
  143MOL0     C19210   8.091   7.280   3.663 -0.0162  0.8529  0.3723
  143MOL0     C19211   8.016   7.383   3.733  0.3188  0.4790  0.1044
  143MOL0     C19212   8.041   7.395   3.885  0.1006  0.4109 -0.4898
  143MOL0     C19213   7.961   7.511   3.963 -0.9165  0.0933  0.5562
  143MOL0    Cl19214   7.969   7.497   4.139  0.1736 -0.3347 -0.4043
  143MOL0     C19215   8.053   6.679   3.693 -0.1914 -1.1263 -0.4201
  143MOL0     C19216   8.030   6.584   3.792 -0.4554 -0.2751 -0.6349
  143MOL0     O19217   7.833   6.388   3.939  0.9192  0.3039  0.1197
  143MOL0     C19218   7.830   6.216   4.155 -0.0108 -0.3223  0.0261
  143MOL0     C19219   7.846   6.133   4.273 -0.3640  0.2408  1.0234
  143MOL0     N19220   8.472   6.000   4.903  0.2404  0.0051 -0.2549
  143MOL0     N19221   8.536   6.045   5.006  0.0320 -0.6194 -0.6359
  143MOL0     C19222   9.412   6.334   5.508  0.0524 -0.1126 -0.7759
  143MOL0     C19223   9.546   6.346   5.495 -0.8841  0.3974  0.6423
  143MOL0     C19224   9.939   6.349   5.297  1.8711  0.6069  0.1577
  143MOL0     C19225  10.010   6.371   5.410 -0.0935  0.6980  0.0917
  143MOL0     C19226  10.144   6.418   5.407 -0.3314  0.6352 -0.7351
  143MOL0     C19227  10.219   6.437   5.282 -0.7451  0.1130 -0.0904
  143MOL0     O19228  10.350   6.491   5.264  0.3321 -0.6852  0.2513
  143MOL0     C19229  10.381   6.587   5.362 -0.5201 -0.0012 -0.2682
  143MOL0     C19230  10.528   6.638   5.346  0.0571  0.7932 -1.3988
  143MOL0     C19231  10.581   6.738   5.458 -0.2304 -0.8460  0.6482
  143MOL0     C19232  10.550   6.883   5.431  0.7366 -0.2409  0.1779
  143MOL0     C19233  10.412   6.921   5.473  0.5531 -0.5663  0.0800
  143MOL0     C19234  10.304   6.972   5.504 -0.7329 -0.1608 -0.0626
  143MOL0     C19235  10.135   6.422   5.165  0.0860  0.7332  0.4302
  143MOL0     C19236   9.997   6.369   5.171  0.1856 -1.1082 -0.3013
  143MOL0     C19237   9.927   6.333   5.041 -0.5082  0.8971  0.2915
  143MOL0     H19238   9.641   6.024   5.452 -1.2497  0.2650  0.3108
  143MOL0     H19239   9.403   5.988   5.482 -1.8329  0.7727  2.3164
  143MOL0     H19240   9.067   6.232   5.625 -0.3604 -0.6945  0.0388
  143MOL0     H19241   9.174   6.367   5.619 -2.0973 -1.3895  2.2632
  143MOL0     H19242   9.063   6.227   5.371 -0.2789  0.6914 -0.6235
  143MOL0     H19243   9.157   6.370   5.370 -0.3401 -0.9283 -0.3908
  143MOL0     H19244   8.993   6.485   5.520 -0.6876 -1.7295  1.5906
  143MOL0     H19245   8.881   6.354   5.506  1.0134 -0.9099  0.8960
  143MOL0     H19246   8.822   6.546   5.361 -0.3537 -0.8538  0.4652
  143MOL0     H19247   8.977   6.509   5.264 -0.8821  0.4233 -0.8158
  143MOL0     H19248   8.883   6.267   5.216 -1.9527 -0.2094  1.2507
  143MOL0     H19249   8.752   6.312   5.315 -1.3059  0.2413 -0.2683
  143MOL0     H19250   8.695   6.502   5.154  2.0280  1.5499 -2.2626
  143MOL0     H19251   8.826   6.467   5.047 -1.3927 -0.5234 -2.5954
  143MOL0     H19252   8.740   6.224   5.021  1.9511  1.0886  0.5689
  143MOL0     H19253   8.645   6.358   4.949 -0.5135  0.7387  0.9530
  143MOL0     H19254   8.574   6.226   5.214  0.9082 -0.8471  0.0920
  143MOL0     H19255   8.490   6.359   5.152 -0.2435  1.1716 -0.3064
  143MOL0     H19256   8.355   6.318   4.934  2.5933  2.2367  1.4453
  143MOL0     H19257   8.283   6.194   4.682 -1.7013 -0.8030 -1.7755
  143MOL0     H19258   8.342   6.032   4.667 -1.1725  0.5106 -0.1889
  143MOL0     H19259   8.151   5.972   4.859  1.3012 -0.3560 -0.7017
  143MOL0     H19260   8.109   6.134   4.797 -0.0809  0.1074  2.7440
  143MOL0     H19261   7.987   5.956   4.692 -1.2224 -0.1906 -2.3151
  143MOL0     H19262   8.135   5.880   4.633  0.8116  0.2415 -0.6615
  143MOL0     H19263   8.142   6.028   4.447  3.6384 -0.2952  1.3465
  143MOL0     H19264   8.131   6.165   4.544  1.5711 -0.4930 -1.9012
  143MOL0     H19265   8.042   6.339   4.455  1.3132  0.8718  0.0631
  143MOL0     H19266   8.022   6.469   4.260  0.4626 -0.6659  3.9552
  143MOL0     H19267   7.968   6.766   4.060  0.0842 -1.5222  1.8979
  143MOL0     H19268   8.034   6.944   3.893  1.2642 -0.1334 -0.3095
  143MOL0     H19269   8.080   6.855   3.454 -2.6290 -2.6320 -0.1923
  143MOL0     H19270   7.922   6.837   3.515  0.5668 -1.7042  3.2578
  143MOL0     H19271   7.911   7.022   3.370 -1.7509 -2.4210  1.7059
  143MOL0     H19272   7.896   7.088   3.531 -0.4762 -0.2631 -0.1885
  143MOL0     H19273   8.172   7.109   3.497  0.6761 -1.5360 -1.7403
  143MOL0     H19274   8.106   7.151   3.336  0.6207 -2.2025  0.0223
  143MOL0     H19275   7.959   7.321   3.495  0.5423  1.4581  1.1923
  143MOL0     H19276   8.128   7.361   3.474  0.4045 -0.0212  1.5024
  143MOL0     H19277   8.195   7.304   3.686  0.2671 -1.2224  1.5631
  143MOL0     H19278   8.063   7.183   3.707 -0.2226 -0.4899 -2.4669
  143MOL0     H19279   8.046   7.480   3.693  2.8772 -0.8003 -1.2987
  143MOL0     H19280   7.912   7.354   3.750  1.0693 -0.3876  4.4736
  143MOL0     H19281   8.147   7.421   3.878 -0.7132  3.9581 -2.2136
  143MOL0     H19282   8.026   7.304   3.942  1.7945  1.3137  1.5536
  143MOL0     H19283   7.987   7.612   3.930 -1.2638  0.5656  1.6896
  143MOL0     H19284   7.856   7.485   3.948 -0.4844 -1.5546  0.1786
  143MOL0     H19285   8.062   6.645   3.590 -0.7062  1.9477 -1.6004
  143MOL0     H19286   8.027   6.482   3.756  1.9692 -0.0848 -1.6320
  143MOL0     H19287   7.775   6.186   4.066  1.4600  0.5894 -1.2323
  143MOL0     H19288   7.787   6.045   4.295  0.9258 -0.0677  3.6359
  143MOL0     H19289   9.357   6.425   5.532 -2.2639 -1.0046 -2.4445
  143MOL0     H19290   9.591   6.444   5.480  1.0939  0.0704  3.5322
  143MOL0     H19291   9.969   6.371   5.511  0.9134 -0.1373  0.5246
  143MOL0     H19292  10.193   6.438   5.502 -1.1939 -1.2013  0.1542
  143MOL0     H19293  10.367   6.548   5.463 -2.0731  1.9809  0.3433
  143MOL0     H19294  10.318   6.676   5.350  0.1400  0.4664 -0.3100
  143MOL0     H19295  10.545   6.671   5.244 -0.9801  1.5577 -1.3335
  143MOL0     H19296  10.585   6.546   5.363 -1.9834 -0.6167 -1.8110
  143MOL0     H19297  10.686   6.709   5.467 -0.9203 -3.2405  2.0824
  143MOL0     H19298  10.541   6.704   5.554  0.4035  0.9582  1.5797
  143MOL0     H19299  10.612   6.952   5.490 -2.9260  1.5127  2.2948
  143MOL0     H19300  10.546   6.892   5.322 -0.0087 -2.2990  0.0010
  143MOL0     H19301  10.221   7.019   5.552 -0.7284  1.0280 -1.1643
  143MOL0     H19302  10.181   6.444   5.069  2.8921  1.1480  1.7620
  143MOL0     H19303   9.986   6.354   4.951 -2.3647  1.8231 -0.7808
  143MOL0     H19304   9.908   6.226   5.028 -2.2324  0.9380  2.0317
  143MOL0     H19305   9.833   6.387   5.027  0.7074  2.6972 -1.3985
  144MOL0     O19306   1.693   5.691   0.187 -0.2732  0.4488 -0.2818
  144MOL0     C19307   1.686   5.765   0.087  0.0270 -0.0040 -0.3399
  144MOL0     O19308   1.595   5.757  -0.006 -0.2556 -0.4901  0.7877
  144MOL0     C19309   1.525   5.640  -0.020 -0.3768  0.9516 -0.7341
  144MOL0     C19310   1.598   5.513  -0.038 -0.2493 -0.1040  0.0093
  144MOL0     C19311   1.530   5.394  -0.067 -0.4416  0.6251  0.2500
  144MOL0     C19312   1.392   5.391  -0.084  0.1670  0.1482  0.1614
  144MOL0     O19313   1.320   5.277  -0.111  0.0984  0.7970  0.1818
  144MOL0     C19314   1.382   5.152  -0.122  0.8122  0.1831 -0.4298
  144MOL0     C19315   1.399   5.092   0.020 -0.3937 -0.0907  0.2217
  144MOL0     C19316   1.546   5.061   0.056  0.0142  0.5599  0.7999
  144MOL0     C19317   1.614   4.961  -0.031  0.7347 -1.1548 -0.9833
  144MOL0     C19318   1.758   4.945   0.010 -0.3753  0.5199 -0.1814
  144MOL0     C19319   1.837   5.069  -0.020 -0.4252 -0.1118 -1.0019
  144MOL0     C19320   1.993   5.047  -0.025 -0.7385  0.6242  0.4886
  144MOL0     C19321   2.073   5.165   0.025 -0.3938  0.6962 -1.0014
  144MOL0     N19322   2.047   5.301  -0.029  0.0115  0.0806  0.3695
  144MOL0     C19323   2.070   5.412   0.048  0.1513 -1.5790 -0.1601
  144MOL0     C19324   2.051   5.517  -0.041 -0.4629 -0.2281 -1.0250
  144MOL0     C19325   2.079   5.660  -0.005 -0.6135 -0.8906  0.1692
  144MOL0     C19326   2.234   5.685  -0.027  0.5574 -0.6267  0.7761
  144MOL0     C19327   2.294   5.820   0.016 -0.6615  0.6742  0.4441
  144MOL0     C19328   2.444   5.826   0.042 -0.2264 -0.5293 -0.5987
  144MOL0     O19329   2.531   5.730  -0.034 -0.5556  0.1090  0.2613
  144MOL0     C19330   2.660   5.707   0.004  0.4343  1.1540 -1.3831
  144MOL0     C19331   2.729   5.597  -0.045  0.8370  0.6876  0.0128
  144MOL0     C19332   2.858   5.552   0.011  0.5777 -0.2379 -0.3154
  144MOL0     C19333   2.918   5.641   0.110 -0.1035  0.6228  0.3796
  144MOL0     C19334   3.057   5.621   0.150 -0.2861 -0.9578 -0.9434
  144MOL0     O19335   3.108   5.494   0.119  0.2046 -0.1409  0.0856
  144MOL0     C19336   3.243   5.463   0.152  0.4698 -0.6573  0.5488
  144MOL0     C19337   3.277   5.447   0.293 -1.1827 -0.6121 -0.4585
  144MOL0     C19338   3.405   5.409   0.330 -0.2444  0.0320  1.3206
  144MOL0     C19339   3.508   5.379   0.238 -0.6327  0.0021  1.1972
  144MOL0     O19340   3.636   5.351   0.278 -0.0640 -0.8936 -0.8935
  144MOL0     C19341   3.676   5.331   0.422 -1.1544 -0.1863  1.0903
  144MOL0     C19342   3.836   5.341   0.424  0.4870 -0.0722 -0.2703
  144MOL0     C19343   3.893   5.217   0.350 -0.8785 -0.5017 -0.1462
  144MOL0     C19344   4.045   5.216   0.360 -0.6829  0.3517 -0.5309
  144MOL0     C19345   4.110   5.144   0.237  0.4476  0.0118  0.1256
  144MOL0     C19346   4.263   5.123   0.260  0.8706  0.6472 -0.4053
  144MOL0     C19347   4.312   5.062   0.132 -1.2550  0.3998  0.8368
  144MOL0     C19348   4.334   5.152   0.000  0.0131 -0.3038  0.3937
  144MOL0    Cl19349   4.390   5.065  -0.148  0.1870 -0.6715  0.3152
  144MOL0     C19350   3.473   5.404   0.101 -0.1770  0.5594 -0.7081
  144MOL0     C19351   3.346   5.443   0.060  0.6731 -0.1311 -0.6121
  144MOL0     O19352   3.120   5.714   0.211  0.2759 -0.2393 -0.6331
  144MOL0     C19353   2.851   5.754   0.144  0.0091  0.3345  0.3628
  144MOL0     C19354   2.725   5.787   0.095 -0.0494 -0.3534 -0.0798
  144MOL0     N19355   2.016   5.466  -0.164  0.3989 -0.4991 -0.1174
  144MOL0     N19356   2.003   5.337  -0.158  0.0739 -1.1677 -0.1274
  144MOL0     C19357   1.311   5.507  -0.047  0.2417 -0.1023 -0.2233
  144MOL0     C19358   1.383   5.624  -0.014 -0.1289 -0.2592  0.0501
  144MOL0     C19359   1.787   5.876   0.080  0.0533 -0.0282  0.7199
  144MOL0     C19360   1.840   5.923   0.195 -0.0906 -0.3865  0.5687
  144MOL0     C19361   1.945   6.010   0.206 -0.2352 -0.1415 -0.1015
  144MOL0     C19362   1.995   6.072   0.083  0.0393  0.4615 -0.4075
  144MOL0     O19363   2.068   6.184   0.103  0.2957 -0.1755 -0.0418
  144MOL0     C19364   2.111   6.245  -0.012 -0.0386 -0.2284  0.0725
  144MOL0     C19365   2.171   6.371   0.039  0.3149 -0.2250  0.0757
  144MOL0     C19366   2.295   6.349   0.118  0.1421  0.3280  0.3806
  144MOL0     C19367   2.360   6.482   0.132 -1.1606 -0.1659  0.4929
  144MOL0     C19368   2.462   6.473   0.236  0.4464 -0.6653  1.2633
  144MOL0     C19369   2.545   6.468   0.321 -0.5915 -0.3091 -0.3589
  144MOL0     C19370   1.946   6.020  -0.036  0.8409 -0.2988  0.8984
  144MOL0     C19371   1.850   5.919  -0.043  0.0119  0.6551 -0.2461
  144MOL0     C19372   1.820   5.854  -0.172 -0.9992  0.2058 -0.7400
  144MOL0     H19373   1.706   5.504  -0.039 -0.0351  1.0889 -3.6550
  144MOL0     H19374   1.595   5.308  -0.082 -0.7146  0.2750  0.9964
  144MOL0     H19375   1.303   5.091  -0.167  0.9507 -0.5955  0.3634
  144MOL0     H19376   1.459   5.157  -0.201  4.2768  1.7537  2.7415
  144MOL0     H19377   1.342   4.999   0.028  4.6370 -3.6028 -0.2793
  144MOL0     H19378   1.360   5.166   0.090  0.0969 -1.0053  1.4868
  144MOL0     H19379   1.553   5.019   0.156  1.4935 -0.8634  0.1452
  144MOL0     H19380   1.595   5.158   0.073 -1.7830  1.0857  3.6810
  144MOL0     H19381   1.561   4.866  -0.032 -2.4925  0.4894  0.1684
  144MOL0     H19382   1.615   5.005  -0.131 -0.1975 -0.6797 -0.7867
  144MOL0     H19383   1.764   4.910   0.113  1.1581 -2.4064 -1.1460
  144MOL0     H19384   1.800   4.857  -0.041 -3.4727 -0.1946 -1.7653
  144MOL0     H19385   1.799   5.130  -0.103 -0.3823  0.2643 -0.7483
  144MOL0     H19386   1.827   5.136   0.066  0.9063 -1.0065 -0.1022
  144MOL0     H19387   2.035   5.000  -0.115  0.0016 -2.1822  2.1532
  144MOL0     H19388   2.007   4.963   0.044 -0.2075  2.2608  2.4607
  144MOL0     H19389   2.044   5.169   0.130 -2.6780 -0.6014 -1.5169
  144MOL0     H19390   2.181   5.149   0.015  0.1686  3.9383 -1.1953
  144MOL0     H19391   2.108   5.416   0.150  0.2809 -0.4121 -0.2350
  144MOL0     H19392   2.015   5.732  -0.057 -0.1935 -1.3160 -0.9713
  144MOL0     H19393   2.060   5.670   0.102 -0.5739  2.8237 -0.0425
  144MOL0     H19394   2.292   5.607   0.024  1.8389 -1.3574 -1.6773
  144MOL0     H19395   2.239   5.671  -0.135  0.5253  2.6528  0.2643
  144MOL0     H19396   2.257   5.851   0.114 -1.0212 -0.9609  0.8532
  144MOL0     H19397   2.260   5.886  -0.065 -0.8837 -0.0467 -0.0589
  144MOL0     H19398   2.462   5.804   0.147 -1.7518 -1.6344 -0.5430
  144MOL0     H19399   2.479   5.929   0.030  0.4228 -0.4671  1.3899
  144MOL0     H19400   2.670   5.540  -0.116  0.9323 -0.3140  0.7176
  144MOL0     H19401   2.894   5.453  -0.014  0.5068 -0.6206  1.0282
  144MOL0     H19402   3.201   5.479   0.364  0.7074  0.0335  1.3899
  144MOL0     H19403   3.435   5.414   0.434 -2.3495  0.4574  1.9620
  144MOL0     H19404   3.640   5.421   0.472 -2.3010 -0.2557  0.4205
  144MOL0     H19405   3.640   5.236   0.461 -1.5861 -1.0463 -1.1996
  144MOL0     H19406   3.872   5.432   0.375 -0.1478  0.5062  0.3319
  144MOL0     H19407   3.872   5.333   0.527  0.1001  3.2620  0.2425
  144MOL0     H19408   3.855   5.124   0.394  3.0755 -3.3333 -2.1908
  144MOL0     H19409   3.867   5.226   0.244 -2.8479 -1.0987  0.2323
  144MOL0     H19410   4.064   5.168   0.457  2.0505  2.1352 -0.0502
  144MOL0     H19411   4.081   5.319   0.371  0.6433 -0.1580  0.0792
  144MOL0     H19412   4.083   5.212   0.156  3.8336 -0.5880 -1.6916
  144MOL0     H19413   4.063   5.046   0.222 -0.2198 -0.0263  2.2450
  144MOL0     H19414   4.309   5.222   0.257 -3.3431  2.8732  0.1352
  144MOL0     H19415   4.282   5.070   0.354 -2.1112  1.0460  0.5377
  144MOL0     H19416   4.242   4.979   0.115 -1.7003  0.7907  0.7308
  144MOL0     H19417   4.405   5.010   0.154 -1.2833 -1.9523 -3.6215
  144MOL0     H19418   4.244   5.207  -0.028  0.5183  0.2004 -0.2570
  144MOL0     H19419   4.419   5.217   0.021  1.1204 -0.8944 -2.0098
  144MOL0     H19420   3.549   5.394   0.024 -0.0908 -1.8395 -0.3881
  144MOL0     H19421   3.323   5.468  -0.043 -0.2838 -2.2351 -0.9660
  144MOL0     H19422   2.887   5.806   0.232  0.8190  0.2391  0.0972
  144MOL0     H19423   2.674   5.868   0.145  0.5405 -0.5532  0.8771
  144MOL0     H19424   1.203   5.503  -0.058  0.4696  0.1554 -4.3045
  144MOL0     H19425   1.341   5.720   0.014  1.3440  1.2432 -2.5036
  144MOL0     H19426   1.793   5.893   0.289  1.8262  0.3009  1.8084
  144MOL0     H19427   1.968   6.049   0.304 -2.2519 -0.7623  0.6773
  144MOL0     H19428   2.026   6.265  -0.079 -0.1828 -0.8597  0.0593
  144MOL0     H19429   2.182   6.178  -0.060 -1.0020 -1.0145 -0.3022
  144MOL0     H19430   2.098   6.423   0.101 -1.3665 -0.6734 -1.4511
  144MOL0     H19431   2.194   6.442  -0.042  0.7209  0.3322  0.6664
  144MOL0     H19432   2.348   6.288   0.045 -3.4186  0.5598 -2.7012
  144MOL0     H19433   2.290   6.288   0.209  0.1460 -1.9267 -1.0288
  144MOL0     H19434   2.414   6.518   0.043  4.6772 -1.9125  2.8593
  144MOL0     H19435   2.285   6.556   0.162  1.2772  2.6389  0.1022
  144MOL0     H19436   2.626   6.451   0.389  0.4283  0.3423 -1.3790
  144MOL0     H19437   1.969   6.065  -0.132 -0.9407 -0.0708  0.5275
  144MOL0     H19438   1.829   5.745  -0.164  0.3323  0.3182 -0.5029
  144MOL0     H19439   1.717   5.871  -0.205 -2.4045 -1.7253  2.1572
  144MOL0     H19440   1.894   5.883  -0.247 -0.7295 -1.1793 -1.0293
  145MOL0     O19441  10.108   1.704   6.527  0.3057 -0.0674  0.9144
  145MOL0     C19442  10.158   1.613   6.589  0.0013 -0.2507  0.5725
  145MOL0     O19443  10.224   1.505   6.534 -0.4539  0.5689  0.0578
  145MOL0     C19444  10.211   1.457   6.405 -0.5711  0.7016 -0.0707
  145MOL0     C19445  10.313   1.390   6.351 -0.7771 -0.9244 -0.0636
  145MOL0     C19446  10.305   1.350   6.216 -1.6269 -0.9073 -0.0694
  145MOL0     C19447  10.192   1.382   6.141  0.6647 -0.2302  0.7373
  145MOL0     O19448  10.179   1.333   6.007  0.4882 -0.0860 -0.0419
  145MOL0     C19449  10.302   1.341   5.928 -0.0694  0.1987  0.7713
  145MOL0     C19450  10.289   1.324   5.774 -0.5116  1.0287  0.8117
  145MOL0     C19451  10.236   1.183   5.731  0.2587 -0.0699 -0.5013
  145MOL0     C19452  10.340   1.073   5.757  1.2290 -0.3082 -0.9604
  145MOL0     C19453  10.281   0.946   5.697 -0.5404 -0.0216  0.7935
  145MOL0     C19454  10.292   0.939   5.545 -0.0955  0.4251  0.4644
  145MOL0     C19455  10.428   0.979   5.484  0.2242  0.3830 -0.5018
  145MOL0     C19456  10.435   0.955   5.328  1.0479  0.3207  0.3464
  145MOL0     N19457  10.554   1.020   5.276  1.0390 -0.0516 -0.3213
  145MOL0     C19458  10.684   0.982   5.291 -0.3707 -0.2813  0.0481
  145MOL0     C19459  10.761   1.065   5.211 -0.0909  0.6242 -0.0098
  145MOL0     C19460  10.911   1.069   5.189  0.8484  0.6720 -0.2544
  145MOL0     C19461  10.993   0.934   5.202  0.9938  0.5968 -0.1036
  145MOL0     C19462  11.022   0.888   5.349  1.5112  0.2362  0.3942
  145MOL0     C19463  11.070   0.998   5.459 -0.5057  0.4403 -0.4528
  145MOL0     O19464  10.962   1.052   5.533 -0.0166  0.4117 -0.3200
  145MOL0     C19465  10.894   0.973   5.622  0.0602 -0.1286 -0.3188
  145MOL0     C19466  10.782   1.022   5.685  0.8343  0.6844 -0.2444
  145MOL0     C19467  10.711   0.941   5.773 -0.3160  0.2497 -0.3481
  145MOL0     C19468  10.745   0.812   5.808  0.2297 -0.3740 -0.3162
  145MOL0     C19469  10.689   0.750   5.930 -1.1944  0.4600  0.9180
  145MOL0     O19470  10.608   0.833   6.010  0.1866  0.4482 -0.2800
  145MOL0     C19471  10.557   0.769   6.122  1.1043 -0.4255  0.6810
  145MOL0     C19472  10.429   0.712   6.124  0.4364  0.3394  0.4432
  145MOL0     C19473  10.375   0.653   6.240 -0.2161  0.2975  0.1021
  145MOL0     C19474  10.451   0.674   6.358  0.5547 -0.1603 -0.1364
  145MOL0     O19475  10.377   0.645   6.467  0.6381  0.7774 -0.0446
  145MOL0     C19476  10.391   0.733   6.582 -0.1022 -0.2231 -0.3767
  145MOL0     C19477  10.367   0.883   6.570 -0.2185 -0.2944  0.3615
  145MOL0     C19478  10.413   0.955   6.702  0.2727  0.1240 -0.1218
  145MOL0     C19479  10.346   1.093   6.711  0.2067  0.1770 -0.1177
  145MOL0     C19480  10.385   1.169   6.835  0.2592 -0.6572  0.5816
  145MOL0     C19481  10.295   1.117   6.946  0.2203  0.1398 -0.2250
  145MOL0     C19482  10.308   1.209   7.077  0.3736 -0.2266  1.1081
  145MOL0     C19483  10.216   1.153   7.191 -0.1146  0.8703  0.4213
  145MOL0    Cl19484  10.039   1.174   7.167 -0.2591  0.3766  0.8459
  145MOL0     C19485  10.573   0.729   6.355 -0.0528 -1.1027  1.0912
  145MOL0     C19486  10.629   0.784   6.236  0.7256 -0.4274 -0.9711
  145MOL0     O19487  10.727   0.637   5.959  0.8794  0.5401 -0.1798
  145MOL0     C19488  10.860   0.768   5.742  0.9804  0.4566 -0.4716
  145MOL0     C19489  10.933   0.844   5.653 -0.6513 -0.0760  0.3342
  145MOL0     N19490  10.673   1.133   5.138  0.4565 -0.1648 -0.3641
  145MOL0     N19491  10.552   1.118   5.182  0.3568  0.8896 -0.5182
  145MOL0     C19492  10.088   1.457   6.197 -0.0124 -0.9250 -0.3293
  145MOL0     C19493  10.093   1.495   6.327 -0.4739  0.0250 -0.8188
  145MOL0     C19494  10.135   1.618   6.735  0.1610  0.9234  0.0074
  145MOL0     C19495  10.121   1.490   6.804 -0.7464  0.3014  1.1244
  145MOL0     C19496  10.112   1.485   6.942 -0.1484  0.0478 -0.0026
  145MOL0     C19497  10.112   1.602   7.015 -0.4935  0.5963  0.6949
  145MOL0     O19498  10.127   1.604   7.156  0.1723  0.0494  0.1942
  145MOL0     C19499  10.010   1.576   7.231  0.2577 -0.1834  0.3025
  145MOL0     C19500   9.931   1.706   7.257  1.5590  0.3720 -0.8199
  145MOL0     C19501   9.840   1.684   7.383 -0.5015 -0.2561  1.3137
  145MOL0     C19502   9.904   1.738   7.512 -0.1492  0.4804  0.6414
  145MOL0     C19503   9.810   1.773   7.617 -0.4518  0.2277 -0.5352
  145MOL0     C19504   9.729   1.797   7.701  0.3751 -0.0224  0.9177
  145MOL0     C19505  10.127   1.724   6.951  0.5195 -0.5819 -0.3364
  145MOL0     C19506  10.135   1.729   6.811  0.5341  0.5819 -0.1848
  145MOL0     C19507  10.167   1.870   6.762  1.0377 -0.9239 -0.0907
  145MOL0     H19508  10.400   1.374   6.414  0.6001  1.6324 -1.1887
  145MOL0     H19509  10.390   1.295   6.177 -0.3746  0.6241  0.3605
  145MOL0     H19510  10.361   1.429   5.955  1.9509 -0.9589  0.3383
  145MOL0     H19511  10.364   1.255   5.954  2.4520  1.4960 -0.6389
  145MOL0     H19512  10.394   1.331   5.743 -0.8905 -0.0656 -0.8694
  145MOL0     H19513  10.228   1.396   5.718  2.2358  1.6487 -1.6872
  145MOL0     H19514  10.206   1.189   5.626 -0.7651  2.8340 -0.1369
  145MOL0     H19515  10.140   1.175   5.783  0.9816  1.6459  1.2158
  145MOL0     H19516  10.435   1.103   5.714 -0.2078  3.3465 -2.0344
  145MOL0     H19517  10.339   1.056   5.865 -0.3337  2.7644 -0.3578
  145MOL0     H19518  10.349   0.869   5.733  1.2353  0.6353 -0.9559
  145MOL0     H19519  10.181   0.923   5.735 -0.8122  0.5114  0.4246
  145MOL0     H19520  10.293   0.832   5.519  1.5733  0.4647  0.1924
  145MOL0     H19521  10.212   0.988   5.489  2.9648  2.1111 -2.8361
  145MOL0     H19522  10.510   0.936   5.542 -0.8420 -1.9518 -0.6053
  145MOL0     H19523  10.438   1.088   5.488  0.2356  0.3521  0.7460
  145MOL0     H19524  10.438   0.851   5.293  5.1177  0.5602 -0.4986
  145MOL0     H19525  10.350   1.005   5.280 -2.0076 -2.3026  2.5424
  145MOL0     H19526  10.727   0.909   5.358 -0.2244 -1.6920 -1.5101
  145MOL0     H19527  10.939   1.104   5.090  2.3861 -1.5704 -0.6651
  145MOL0     H19528  10.953   1.152   5.247 -0.9002  5.0378 -4.5213
  145MOL0     H19529  10.950   0.856   5.139 -0.2212  2.5241 -1.7696
  145MOL0     H19530  11.095   0.943   5.161  1.4739 -1.8222  0.4305
  145MOL0     H19531  11.090   0.805   5.332 -0.4826 -1.3849 -0.0206
  145MOL0     H19532  10.939   0.825   5.382 -0.8542 -0.9629 -6.2422
  145MOL0     H19533  11.118   1.078   5.401  0.2512 -0.9777 -1.8550
  145MOL0     H19534  11.148   0.948   5.518  3.1821  0.0987 -4.9893
  145MOL0     H19535  10.749   1.122   5.660 -0.6654 -0.1887 -2.1263
  145MOL0     H19536  10.622   0.981   5.821  1.5411  3.8667  0.3933
  145MOL0     H19537  10.366   0.718   6.036  1.6752  1.4888 -0.4159
  145MOL0     H19538  10.280   0.600   6.244  1.6180 -3.1112  1.8471
  145MOL0     H19539  10.312   0.694   6.648 -0.0860 -0.7627 -0.6688
  145MOL0     H19540  10.486   0.701   6.625 -0.6351 -0.4787  0.6323
  145MOL0     H19541  10.434   0.918   6.491  0.7145 -2.7982 -0.0622
  145MOL0     H19542  10.266   0.891   6.529 -0.0212 -3.4761 -1.0602
  145MOL0     H19543  10.377   0.896   6.787  2.2318  1.1713  1.5084
  145MOL0     H19544  10.518   0.982   6.693 -0.2490  3.7294  2.3320
  145MOL0     H19545  10.237   1.087   6.707  0.2936 -0.9806 -0.9316
  145MOL0     H19546  10.367   1.151   6.621 -1.1670 -1.5146 -1.5869
  145MOL0     H19547  10.366   1.277   6.826  0.2793 -0.6281  0.8957
  145MOL0     H19548  10.485   1.146   6.872  0.1077  1.1682  2.2960
  145MOL0     H19549  10.191   1.119   6.912  0.1624  5.6342 -0.6730
  145MOL0     H19550  10.335   1.024   6.988 -3.0618 -1.1136  0.4333
  145MOL0     H19551  10.284   1.315   7.065  3.2199  0.2219 -2.5310
  145MOL0     H19552  10.415   1.201   7.094  1.3356  0.5944 -3.2938
  145MOL0     H19553  10.233   1.046   7.206 -0.6659  0.7918  0.4992
  145MOL0     H19554  10.244   1.201   7.285 -0.3277 -1.8270  1.9492
  145MOL0     H19555  10.643   0.734   6.438  2.4652  0.6153 -0.9599
  145MOL0     H19556  10.732   0.819   6.234 -0.2362  2.6711 -2.9916
  145MOL0     H19557  10.904   0.671   5.758  0.2124  0.0915 -0.5017
  145MOL0     H19558  11.024   0.800   5.612 -1.1778 -1.1935  0.3576
  145MOL0     H19559   9.998   1.480   6.142 -0.3867 -2.4647 -0.4308
  145MOL0     H19560  10.017   1.545   6.387  2.8720  1.0074  2.9799
  145MOL0     H19561  10.099   1.401   6.745 -1.8059  1.5583 -0.4490
  145MOL0     H19562  10.107   1.395   7.002 -1.2583  0.8667  1.1982
  145MOL0     H19563  10.036   1.531   7.327 -2.9866 -1.6302  0.6625
  145MOL0     H19564   9.952   1.497   7.181 -0.7787  0.2815  0.7393
  145MOL0     H19565   9.865   1.720   7.171  1.8600  1.6987 -0.8579
  145MOL0     H19566   9.993   1.796   7.257  0.0157  1.5195  1.5329
  145MOL0     H19567   9.821   1.576   7.391 -0.4713 -0.3977 -0.1467
  145MOL0     H19568   9.744   1.730   7.359 -0.3215 -0.5689 -0.0736
  145MOL0     H19569   9.984   1.669   7.540  0.8589  0.2711 -2.3906
  145MOL0     H19570   9.957   1.829   7.480 -1.8213  0.4674 -2.6773
  145MOL0     H19571   9.677   1.833   7.787  2.1887  1.4508  1.4671
  145MOL0     H19572  10.125   1.819   7.004  0.2590 -1.3390  1.0466
  145MOL0     H19573  10.259   1.849   6.706 -1.6891 -0.9912 -5.1230
  145MOL0     H19574  10.086   1.911   6.701  0.1756 -1.3076  0.7873
  145MOL0     H19575  10.179   1.949   6.836 -5.5244  1.6301 -1.1430
  146MOL0     O19576  11.173  10.054   9.186  0.1204  0.0477  0.1241
  146MOL0     C19577  11.287  10.106   9.185 -0.2346  0.8140 -0.3628
  146MOL0     O19578  11.391  10.049   9.115 -0.7216 -0.4789 -0.1615
  146MOL0     C19579  11.365   9.929   9.048  0.6762 -0.3014 -0.3698
  146MOL0     C19580  11.288   9.946   8.934 -1.1896 -0.5157  0.1443
  146MOL0     C19581  11.254   9.833   8.854  0.8609 -1.0510 -0.4249
  146MOL0     C19582  11.285   9.700   8.903 -1.1248  0.1037  0.7418
  146MOL0     O19583  11.254   9.579   8.843 -0.4643  0.3043  0.1855
  146MOL0     C19584  11.260   9.566   8.703  0.4400 -0.5811  0.2787
  146MOL0     C19585  11.195   9.430   8.664 -0.0611 -0.5087  0.4846
  146MOL0     C19586  11.255   9.305   8.716  0.5101  1.4129  0.9122
  146MOL0     C19587  11.406   9.299   8.692 -0.1449  1.1290  0.5632
  146MOL0     C19588  11.477   9.168   8.732  0.0573 -0.2671  1.3435
  146MOL0     C19589  11.616   9.126   8.655  0.8020  0.5060 -0.8629
  146MOL0     C19590  11.643   8.976   8.650 -0.0134 -0.1827  0.1895
  146MOL0     C19591  11.665   8.892   8.783  0.6486  0.3716 -0.4105
  146MOL0     N19592  11.737   8.766   8.769  0.1975  0.7200 -0.0722
  146MOL0     C19593  11.701   8.662   8.682  0.2532 -0.4009 -0.3507
  146MOL0     C19594  11.787   8.563   8.706  0.1707  0.3018  0.0655
  146MOL0     C19595  11.765   8.430   8.638 -0.3262  0.4183  0.3622
  146MOL0     C19596  11.810   8.314   8.720  0.7835  0.9996  0.2096
  146MOL0     C19597  11.966   8.303   8.729  0.2494  0.8748  0.8509
  146MOL0     C19598  12.010   8.169   8.794 -0.5330  0.0170 -0.4128
  146MOL0     O19599  12.125   8.185   8.878 -0.4811  0.4670  0.6927
  146MOL0     C19600  12.132   8.096   8.986 -0.3531 -0.2785 -0.8148
  146MOL0     C19601  12.126   7.960   8.964  0.1011  0.6417  0.3639
  146MOL0     C19602  12.167   7.872   9.069  0.8170 -0.7318  0.0431
  146MOL0     C19603  12.174   7.922   9.205 -0.0935  0.0066  0.0320
  146MOL0     C19604  12.210   7.843   9.322  0.3871  0.9290 -0.0242
  146MOL0     O19605  12.225   7.713   9.296  0.0615 -0.6142 -0.5164
  146MOL0     C19606  12.239   7.613   9.395  0.2710  0.5052  0.5972
  146MOL0     C19607  12.301   7.485   9.361 -0.0400 -0.9791 -0.3691
  146MOL0     C19608  12.315   7.392   9.464  0.2961 -0.1406 -1.0121
  146MOL0     C19609  12.284   7.408   9.595 -0.2375  0.0156  0.0495
  146MOL0     O19610  12.306   7.315   9.688  0.5480  1.2244  0.4365
  146MOL0     C19611  12.215   7.209   9.688 -1.0124  0.0894 -0.0948
  146MOL0     C19612  12.235   7.122   9.816  0.7455  0.2749  0.0024
  146MOL0     C19613  12.178   6.983   9.778 -0.3985  0.1981 -0.9736
  146MOL0     C19614  12.216   6.871   9.885  0.2215  0.0230 -0.4590
  146MOL0     C19615  12.156   6.723   9.862 -0.2540 -0.0710  1.1367
  146MOL0     C19616  12.225   6.609   9.952 -0.5648  0.3232 -0.2280
  146MOL0     C19617  12.172   6.625  10.095 -0.7027  0.0301 -0.5154
  146MOL0     C19618  12.266   6.555  10.200  0.3989 -0.7628  0.0547
  146MOL0    Cl19619  12.179   6.551  10.346  0.8416 -0.6688  0.1431
  146MOL0     C19620  12.236   7.534   9.625 -0.4773  0.8376 -0.9441
  146MOL0     C19621  12.218   7.630   9.530 -0.0140 -0.8295  0.3987
  146MOL0     O19622  12.228   7.894   9.433 -0.5037  0.1661 -0.3376
  146MOL0     C19623  12.159   8.059   9.229  0.0459  0.6145 -0.0931
  146MOL0     C19624  12.145   8.145   9.121  0.6931  0.8980 -0.0156
  146MOL0     N19625  11.875   8.595   8.801 -0.6912  0.5925 -0.3839
  146MOL0     N19626  11.851   8.720   8.836  0.4981 -0.4177 -0.6692
  146MOL0     C19627  11.361   9.686   9.023 -0.1111 -0.2265 -0.7829
  146MOL0     C19628  11.401   9.801   9.091 -0.3742 -0.0945 -0.0999
  146MOL0     C19629  11.309  10.227   9.272 -1.2900 -0.5390  0.6683
  146MOL0     C19630  11.449  10.257   9.298  0.2412  0.1887 -0.6186
  146MOL0     C19631  11.485  10.347   9.395 -1.2174 -0.1514 -0.2032
  146MOL0     C19632  11.388  10.402   9.477 -0.3339 -1.2152 -0.1409
  146MOL0     O19633  11.428  10.467   9.592  0.2168 -0.1905  0.1484
  146MOL0     C19634  11.420  10.401   9.714  0.8469  0.5361 -0.0516
  146MOL0     C19635  11.547  10.331   9.747 -0.2358 -0.5283 -0.7951
  146MOL0     C19636  11.550  10.294   9.888 -0.9229  0.3992  0.7427
  146MOL0     C19637  11.690  10.240   9.915  0.3511  0.2550 -0.4181
  146MOL0     C19638  11.705  10.224  10.059 -0.2061  0.4454 -0.3334
  146MOL0     C19639  11.711  10.205  10.177 -0.5840 -0.0161  1.0126
  146MOL0     C19640  11.253  10.389   9.439 -0.7178 -0.1415 -0.3700
  146MOL0     C19641  11.214  10.296   9.341  0.0100 -0.4533 -0.3584
  146MOL0     C19642  11.066  10.279   9.315 -0.4769  0.2976  0.0967
  146MOL0     H19643  11.267  10.048   8.906 -0.9236  0.5170  3.3338
  146MOL0     H19644  11.193   9.857   8.768  2.7482 -1.8034 -2.0748
  146MOL0     H19645  11.215   9.657   8.661  0.7005 -1.2413 -1.5078
  146MOL0     H19646  11.365   9.563   8.672  0.9922 -2.2118  2.1153
  146MOL0     H19647  11.181   9.425   8.555  0.2501 -0.3466  0.4358
  146MOL0     H19648  11.095   9.421   8.705 -2.3685 -1.2489 -4.4976
  146MOL0     H19649  11.211   9.211   8.680  0.3678  1.7562  0.1846
  146MOL0     H19650  11.239   9.303   8.824  1.8885 -0.1524  1.1241
  146MOL0     H19651  11.424   9.314   8.585 -1.0822 -1.3610  0.0140
  146MOL0     H19652  11.451   9.369   8.763  0.3950 -2.0889  3.6652
  146MOL0     H19653  11.497   9.168   8.839 -1.2553 -1.1058  1.6008
  146MOL0     H19654  11.407   9.092   8.697 -0.1574  1.3189 -2.0519
  146MOL0     H19655  11.591   9.144   8.550 -0.6807  1.0418 -0.4456
  146MOL0     H19656  11.697   9.191   8.689 -1.4334  2.9363  0.1390
  146MOL0     H19657  11.732   8.965   8.587  0.4733 -2.1517  1.1332
  146MOL0     H19658  11.554   8.929   8.607 -1.7328 -0.9267  4.1091
  146MOL0     H19659  11.721   8.959   8.848 -0.3434  2.7232 -1.8716
  146MOL0     H19660  11.567   8.868   8.826 -0.6538  1.3192 -2.6556
  146MOL0     H19661  11.620   8.680   8.613  3.5860  1.6337 -4.1710
  146MOL0     H19662  11.661   8.421   8.605  0.9734 -2.1741 -3.9020
  146MOL0     H19663  11.821   8.416   8.545 -0.3247  2.1046  0.0783
  146MOL0     H19664  11.779   8.328   8.824  2.8384  1.8366  0.7699
  146MOL0     H19665  11.777   8.222   8.672 -3.6796  1.9693  0.9590
  146MOL0     H19666  12.002   8.389   8.787  0.3003  2.3901 -1.3019
  146MOL0     H19667  12.010   8.323   8.631  2.4169  2.2936  2.0258
  146MOL0     H19668  12.032   8.087   8.725 -0.8625 -0.9260  0.5777
  146MOL0     H19669  11.920   8.139   8.847  0.0442 -0.1572  0.4864
  146MOL0     H19670  12.118   7.923   8.863  1.4653  0.6160  0.2482
  146MOL0     H19671  12.177   7.765   9.054  0.6994 -0.8746  0.9447
  146MOL0     H19672  12.329   7.472   9.257 -1.7159 -1.3845 -0.7922
  146MOL0     H19673  12.364   7.296   9.446 -1.5866 -2.0121  2.7383
  146MOL0     H19674  12.114   7.249   9.673 -1.0903 -0.0635  0.0169
  146MOL0     H19675  12.238   7.142   9.604 -1.6769 -0.0691 -0.1614
  146MOL0     H19676  12.343   7.125   9.835  1.3894  0.5326 -3.1274
  146MOL0     H19677  12.180   7.164   9.901  0.6790 -0.7021  0.4539
  146MOL0     H19678  12.070   6.994   9.769 -0.5002 -0.5549 -0.7014
  146MOL0     H19679  12.218   6.953   9.680  0.0061  0.7985 -0.9963
  146MOL0     H19680  12.185   6.896   9.987  1.5900 -2.2526  0.6136
  146MOL0     H19681  12.326   6.873   9.889  0.1876  2.3751  2.4394
  146MOL0     H19682  12.176   6.692   9.759 -2.6458 -0.3130  0.6987
  146MOL0     H19683  12.047   6.729   9.873 -0.1177  2.6782  1.7189
  146MOL0     H19684  12.206   6.508   9.913  0.2724  0.5201 -1.1891
  146MOL0     H19685  12.334   6.621   9.958 -0.8143  3.1797  0.0598
  146MOL0     H19686  12.075   6.576  10.110 -0.6774  0.7518  2.6735
  146MOL0     H19687  12.162   6.730  10.122  0.4222 -0.2222  1.0756
  146MOL0     H19688  12.281   6.450  10.173 -0.4449 -0.5345 -1.3939
  146MOL0     H19689  12.356   6.613  10.222 -1.8652  1.8728  3.3643
  146MOL0     H19690  12.200   7.546   9.726  1.1854  0.8303 -0.3079
  146MOL0     H19691  12.164   7.723   9.544 -0.6796 -0.4885 -3.2695
  146MOL0     H19692  12.169   8.094   9.331  4.9158  0.9525 -0.4533
  146MOL0     H19693  12.133   8.251   9.141  0.1587  0.6944  0.7692
  146MOL0     H19694  11.394   9.585   9.047 -2.1884 -0.6154  0.7379
  146MOL0     H19695  11.451   9.792   9.186 -2.5101 -0.2660  1.0642
  146MOL0     H19696  11.529  10.194   9.260  1.2121  0.8880  0.1935
  146MOL0     H19697  11.592  10.359   9.407 -1.1040  0.2274 -1.4486
  146MOL0     H19698  11.349  10.318   9.712  3.9632 -2.3307 -0.1270
  146MOL0     H19699  11.396  10.475   9.791  3.2002 -0.9148  2.2428
  146MOL0     H19700  11.622  10.410   9.731 -1.0728  1.3528  3.2819
  146MOL0     H19701  11.572  10.249   9.679 -2.9773 -2.3285  0.2425
  146MOL0     H19702  11.468  10.226   9.912 -2.4415  1.1934 -1.7788
  146MOL0     H19703  11.530  10.389   9.940  1.8691  0.8276  1.1752
  146MOL0     H19704  11.709  10.144   9.867  1.0360  0.9725 -1.6097
  146MOL0     H19705  11.767  10.306   9.875 -0.7104  1.6218 -0.2922
  146MOL0     H19706  11.733  10.168  10.275  0.3895 -1.9726  0.1054
  146MOL0     H19707  11.178  10.431   9.506 -1.5383 -0.8807 -0.8192
  146MOL0     H19708  11.030  10.190   9.369  1.4511 -0.2429  0.5730
  146MOL0     H19709  11.008  10.364   9.351  1.5125  0.3572  3.6204
  146MOL0     H19710  11.046  10.285   9.208  2.2612 -1.5011 -0.6151
  147MOL0     O19711   0.292   2.933   0.797 -0.2087  0.0630 -0.2403
  147MOL0     C19712   0.332   2.865   0.887  0.0456  0.4959  0.0868
  147MOL0     O19713   0.331   2.729   0.899  0.4069  0.2872 -0.2750
  147MOL0     C19714   0.268   2.663   0.794 -0.1092 -0.2579 -0.9593
  147MOL0     C19715   0.130   2.676   0.788 -0.1422  0.0384 -0.3299
  147MOL0     C19716   0.066   2.607   0.691  0.4425  0.0652 -0.0864
  147MOL0     C19717   0.139   2.533   0.592  0.7534  0.5052 -0.0308
  147MOL0     O19718   0.067   2.486   0.479 -0.3185  0.5507  0.6874
  147MOL0     C19719   0.139   2.408   0.389  0.4692 -0.4387 -0.4872
  147MOL0     C19720   0.031   2.348   0.296  1.2093 -0.3062  0.0980
  147MOL0     C19721   0.002   2.467   0.204 -0.2271  0.4567  0.8366
  147MOL0     C19722  -0.074   2.411   0.088 -0.1573  0.2587  0.1245
  147MOL0     C19723  -0.071   2.503  -0.035  0.0569  0.5822 -0.2851
  147MOL0     C19724  -0.189   2.473  -0.134  0.0615  0.1997  0.3369
  147MOL0     C19725  -0.334   2.501  -0.090 -0.0001 -0.1106 -0.5831
  147MOL0     C19726  -0.439   2.501  -0.208  0.2348  0.1708  0.3618
  147MOL0     N19727  -0.433   2.376  -0.283 -0.4836  0.1431  0.3003
  147MOL0     C19728  -0.468   2.250  -0.226  0.2828 -0.2614 -0.8370
  147MOL0     C19729  -0.456   2.160  -0.327  1.4999  0.5239  0.1093
  147MOL0     C19730  -0.500   2.018  -0.312 -0.3531 -0.2362  0.0056
  147MOL0     C19731  -0.519   1.942  -0.448  0.0639 -1.1373  0.4261
  147MOL0     C19732  -0.629   2.002  -0.535 -0.9258 -0.3584  1.0091
  147MOL0     C19733  -0.728   1.905  -0.606 -0.3362 -0.6835 -0.5289
  147MOL0     O19734  -0.786   1.806  -0.522 -0.3074  0.1376 -0.0344
  147MOL0     C19735  -0.832   1.689  -0.574 -0.1543 -0.4557  1.1435
  147MOL0     C19736  -0.855   1.673  -0.714  0.8274 -0.0191  0.5140
  147MOL0     C19737  -0.891   1.550  -0.757  1.0952 -0.4615  0.2218
  147MOL0     C19738  -0.913   1.438  -0.663 -0.3813  0.3165  1.0071
  147MOL0     C19739  -0.943   1.306  -0.723  0.0898 -0.5764 -0.1388
  147MOL0     O19740  -0.968   1.303  -0.858  0.1239 -0.2220  0.9916
  147MOL0     C19741  -1.002   1.186  -0.913  0.0775  0.1176 -0.4348
  147MOL0     C19742  -0.923   1.068  -0.900 -0.0830 -0.0891 -0.8750
  147MOL0     C19743  -0.966   0.946  -0.952  0.7809  0.6193  0.5820
  147MOL0     C19744  -1.093   0.933  -1.017 -0.5563 -0.1467 -0.2361
  147MOL0     O19745  -1.148   0.820  -1.069 -0.3699 -0.1179 -0.2833
  147MOL0     C19746  -1.104   0.690  -1.046 -1.0916  0.1406  0.2996
  147MOL0     C19747  -1.210   0.590  -1.076  0.5888 -0.1560  0.4649
  147MOL0     C19748  -1.256   0.605  -1.229  0.2679  0.6474 -0.2760
  147MOL0     C19749  -1.365   0.505  -1.267 -0.0658  0.1526  0.6061
  147MOL0     C19750  -1.401   0.519  -1.423  0.8192  1.0848 -0.7941
  147MOL0     C19751  -1.535   0.447  -1.444 -1.0182  0.1515 -0.7934
  147MOL0     C19752  -1.583   0.451  -1.596 -0.7474 -0.2034  0.6046
  147MOL0     C19753  -1.486   0.370  -1.685  0.1258  0.7281 -0.1541
  147MOL0    Cl19754  -1.551   0.333  -1.853 -0.1095  0.5217 -0.1574
  147MOL0     C19755  -1.165   1.048  -1.033  0.2702 -0.1688 -0.2417
  147MOL0     C19756  -1.125   1.171  -0.986 -0.0989 -0.4294  0.0017
  147MOL0     O19757  -0.958   1.206  -0.653 -0.2599  0.0227 -1.1798
  147MOL0     C19758  -0.900   1.462  -0.524  1.6318 -0.0564  0.0414
  147MOL0     C19759  -0.848   1.585  -0.481  0.0142  0.5310 -0.2116
  147MOL0     N19760  -0.412   2.222  -0.441  0.0108  0.9725  0.0211
  147MOL0     N19761  -0.399   2.348  -0.418  0.1346  0.1840  0.1162
  147MOL0     C19762   0.281   2.532   0.593  0.4423  0.1973 -0.0488
  147MOL0     C19763   0.342   2.602   0.700 -0.2849  0.4788 -0.0456
  147MOL0     C19764   0.388   2.924   1.003  1.2267 -0.0173  0.2967
  147MOL0     C19765   0.328   2.888   1.125 -0.5952  0.0790 -0.1992
  147MOL0     C19766   0.371   2.933   1.251  1.0743  0.0498  0.5290
  147MOL0     C19767   0.468   3.032   1.250  0.3178  0.1244 -0.3779
  147MOL0     O19768   0.499   3.100   1.363 -0.3769  0.4484 -0.1281
  147MOL0     C19769   0.430   3.085   1.488 -0.2525 -0.9195  0.8444
  147MOL0     C19770   0.465   2.967   1.567 -0.4409  0.1076 -0.9153
  147MOL0     C19771   0.616   2.977   1.592 -0.0852  1.1319  0.3120
  147MOL0     C19772   0.655   2.944   1.741  0.1751 -0.7627  0.6595
  147MOL0     C19773   0.579   2.826   1.790  0.1622 -0.7559  1.2806
  147MOL0     C19774   0.529   2.722   1.815  0.5802 -0.0116  0.1867
  147MOL0     C19775   0.516   3.078   1.130 -0.5740 -0.2261 -0.5147
  147MOL0     C19776   0.488   3.018   1.011  0.2628 -0.5808  0.4249
  147MOL0     C19777   0.558   3.070   0.889 -0.0621  0.5710 -0.4763
  147MOL0     H19778   0.077   2.744   0.854 -2.7589 -2.0216 -0.1657
  147MOL0     H19779  -0.041   2.626   0.688  0.8399  2.9791  1.0207
  147MOL0     H19780   0.217   2.460   0.333  2.4314 -1.5290  1.1051
  147MOL0     H19781   0.190   2.329   0.445  1.3773  1.3598  1.3533
  147MOL0     H19782  -0.056   2.309   0.349 -1.3237  2.2409 -1.8914
  147MOL0     H19783   0.087   2.273   0.240  0.1568 -1.9283  1.1468
  147MOL0     H19784   0.100   2.501   0.170  0.3684 -0.2329  1.8126
  147MOL0     H19785  -0.052   2.553   0.245 -3.4460 -2.1387  2.5345
  147MOL0     H19786  -0.035   2.311   0.064  0.9474  0.6158  0.3727
  147MOL0     H19787  -0.179   2.413   0.119  0.2999  1.2946  1.7218
  147MOL0     H19788  -0.072   2.607   0.000 -0.7098  0.2452  0.7178
  147MOL0     H19789   0.026   2.501  -0.086  0.1334  1.7903 -0.2150
  147MOL0     H19790  -0.168   2.535  -0.222 -1.9810 -0.1632 -0.4594
  147MOL0     H19791  -0.191   2.367  -0.160 -1.3934  0.8658 -2.7629
  147MOL0     H19792  -0.334   2.594  -0.032 -1.9914 -0.8681  0.7228
  147MOL0     H19793  -0.364   2.418  -0.026 -0.9381 -1.4802 -2.6755
  147MOL0     H19794  -0.541   2.530  -0.180  0.0029 -1.3170  1.1674
  147MOL0     H19795  -0.409   2.571  -0.287 -2.6579 -0.0741 -1.0961
  147MOL0     H19796  -0.514   2.230  -0.130  0.4544  1.2584 -0.4162
  147MOL0     H19797  -0.420   1.968  -0.256  0.9772  1.6907 -0.0513
  147MOL0     H19798  -0.589   1.994  -0.254 -1.5090  1.6345 -0.9012
  147MOL0     H19799  -0.433   1.939  -0.514 -1.0164  1.6805 -1.2908
  147MOL0     H19800  -0.547   1.844  -0.408  2.1234 -1.4028  1.3612
  147MOL0     H19801  -0.574   2.051  -0.616  1.0525 -1.8271  1.4047
  147MOL0     H19802  -0.685   2.076  -0.477  1.6185  1.7639  0.9306
  147MOL0     H19803  -0.665   1.850  -0.676  1.4248 -1.6925  1.7221
  147MOL0     H19804  -0.812   1.953  -0.658 -1.1348  0.1517  1.4209
  147MOL0     H19805  -0.854   1.751  -0.789 -1.6466 -1.2064 -0.8808
  147MOL0     H19806  -0.914   1.542  -0.863  0.6637  0.7169  0.2137
  147MOL0     H19807  -0.825   1.077  -0.855 -1.2185  2.6943  1.4056
  147MOL0     H19808  -0.904   0.857  -0.941  1.8471  1.1086 -0.9807
  147MOL0     H19809  -1.017   0.666  -1.107 -2.6570 -1.5537 -1.3936
  147MOL0     H19810  -1.072   0.690  -0.942 -1.8111 -0.0463  0.5270
  147MOL0     H19811  -1.167   0.492  -1.053 -0.1189 -0.5078  0.3271
  147MOL0     H19812  -1.289   0.604  -1.001  0.2616 -2.2054  0.5523
  147MOL0     H19813  -1.293   0.707  -1.244 -2.6768 -0.2660  0.1666
  147MOL0     H19814  -1.175   0.594  -1.303 -0.8354 -0.9223 -1.3110
  147MOL0     H19815  -1.452   0.541  -1.211 -0.9178  0.2501 -0.7171
  147MOL0     H19816  -1.341   0.401  -1.244  0.7659  0.2972  0.3973
  147MOL0     H19817  -1.315   0.479  -1.476  2.2950  0.0221  2.1608
  147MOL0     H19818  -1.400   0.623  -1.458  3.8418  0.2198 -3.7337
  147MOL0     H19819  -1.520   0.342  -1.417 -2.0864  0.3680  0.7299
  147MOL0     H19820  -1.622   0.478  -1.385 -0.2927  1.1923 -0.2462
  147MOL0     H19821  -1.583   0.555  -1.632 -0.9758 -0.5263 -0.3312
  147MOL0     H19822  -1.690   0.430  -1.602 -1.8416  4.4112 -0.8364
  147MOL0     H19823  -1.385   0.410  -1.701  1.9442 -3.1402  0.4474
  147MOL0     H19824  -1.450   0.278  -1.638  3.4031  2.9296  2.1381
  147MOL0     H19825  -1.264   1.041  -1.077  0.5944  0.5155 -1.1046
  147MOL0     H19826  -1.191   1.257  -0.993 -1.5961 -1.6324 -1.6693
  147MOL0     H19827  -0.938   1.392  -0.450 -0.3044  1.9801  1.0835
  147MOL0     H19828  -0.826   1.598  -0.376 -2.4778  0.2520  0.3993
  147MOL0     H19829   0.347   2.483   0.521  0.4340 -0.9443  0.6843
  147MOL0     H19830   0.449   2.606   0.718 -0.5946  2.7440  1.8027
  147MOL0     H19831   0.235   2.833   1.134  0.2578 -1.3465  0.2954
  147MOL0     H19832   0.317   2.892   1.335 -0.3055  0.3550 -0.1901
  147MOL0     H19833   0.323   3.092   1.463  0.0211 -2.6237 -1.0800
  147MOL0     H19834   0.455   3.168   1.554 -1.1557 -0.5373  0.7303
  147MOL0     H19835   0.442   2.870   1.521  0.9619 -0.1449 -1.1349
  147MOL0     H19836   0.410   2.972   1.662 -1.2556 -2.9206 -1.1126
  147MOL0     H19837   0.659   3.073   1.561  1.0570  0.8909  1.1106
  147MOL0     H19838   0.658   2.895   1.533 -2.1537  0.7967 -0.8099
  147MOL0     H19839   0.764   2.935   1.748  0.1920  0.1809  1.8911
  147MOL0     H19840   0.618   3.032   1.795 -0.5711 -0.1726 -0.7356
  147MOL0     H19841   0.483   2.633   1.852 -0.7669 -0.6106 -2.6648
  147MOL0     H19842   0.595   3.153   1.129  0.3610 -1.1672 -0.0949
  147MOL0     H19843   0.576   3.177   0.899 -0.3612  0.7218 -1.5425
  147MOL0     H19844   0.660   3.031   0.892 -0.2196  0.0198  3.0807
  147MOL0     H19845   0.510   3.044   0.795  1.0007  1.4962 -1.3041
  148MOL0     O19846   5.761   3.899  10.558 -0.6952 -0.7582  0.0644
  148MOL0     C19847   5.764   3.810  10.470  0.5082  0.9215  0.0928
  148MOL0     O19848   5.656   3.784  10.397  0.5985  1.4138  0.0616
  148MOL0     C19849   5.540   3.846  10.418  0.6023 -0.8003  0.1769
  148MOL0     C19850   5.470   3.895  10.303  0.3247 -0.9183  0.1191
  148MOL0     C19851   5.346   3.963  10.321 -0.8170 -0.1582  0.3262
  148MOL0     C19852   5.299   3.980  10.452  0.3311 -0.5557  0.5646
  148MOL0     O19853   5.196   4.059  10.492  0.0869 -0.2831 -0.2035
  148MOL0     C19854   5.122   4.122  10.387  0.8684  0.0884 -0.4882
  148MOL0     C19855   4.992   4.191  10.439  1.2883 -0.0937 -0.1190
  148MOL0     C19856   5.028   4.318  10.515 -0.8583 -0.1408  0.8377
  148MOL0     C19857   4.900   4.406  10.533 -0.6340  0.1643 -0.1101
  148MOL0     C19858   4.941   4.536  10.607 -0.3571 -0.6235 -0.8992
  148MOL0     C19859   4.827   4.629  10.634 -0.1150  0.2122 -0.2886
  148MOL0     C19860   4.788   4.699  10.500 -1.0266  0.4825  0.4625
  148MOL0     C19861   4.706   4.821  10.525  0.1130 -0.7770 -1.0561
  148MOL0     N19862   4.567   4.783  10.520  0.7937  0.0224 -0.5585
  148MOL0     C19863   4.477   4.801  10.422  0.2633 -0.4076 -0.0220
  148MOL0     C19864   4.356   4.766  10.470 -0.4122 -0.2245 -1.1398
  148MOL0     C19865   4.234   4.744  10.379 -0.3542 -0.7878 -0.2088
  148MOL0     C19866   4.183   4.600  10.372 -1.2423 -0.1291  0.2343
  148MOL0     C19867   4.059   4.589  10.269 -0.2605  0.5992 -0.3689
  148MOL0     C19868   3.969   4.466  10.325 -0.1451 -0.5169 -0.0204
  148MOL0     O19869   3.861   4.441  10.231  1.1478 -0.2535  0.0336
  148MOL0     C19870   3.783   4.327  10.243 -0.0145  1.1092  0.4215
  148MOL0     C19871   3.782   4.256  10.361  0.6111  0.1548  0.2002
  148MOL0     C19872   3.713   4.136  10.365 -0.4615  0.4782 -0.1217
  148MOL0     C19873   3.633   4.091  10.263  0.1617  0.2624 -0.1562
  148MOL0     C19874   3.550   3.961  10.285  0.2877  0.2459 -0.1271
  148MOL0     O19875   3.553   3.909  10.408 -0.5734 -0.1377  0.3062
  148MOL0     C19876   3.460   3.809  10.446 -0.6859 -0.4914  0.4216
  148MOL0     C19877   3.501   3.709  10.535 -0.4791 -0.5659  0.5609
  148MOL0     C19878   3.413   3.613  10.598  0.3430  0.0303  0.2889
  148MOL0     C19879   3.280   3.629  10.575  0.3767 -0.4195  0.7285
  148MOL0     O19880   3.203   3.542  10.648  0.4545  0.1953  0.4449
  148MOL0     C19881   3.059   3.589  10.667  0.1808  0.8974  0.7803
  148MOL0     C19882   3.021   3.593  10.809  0.1786  0.1961  0.7081
  148MOL0     C19883   3.089   3.700  10.884  1.0133 -0.4564  0.3670
  148MOL0     C19884   3.034   3.717  11.027 -0.5902 -0.3617 -0.4339
  148MOL0     C19885   2.899   3.797  11.033  0.8316  0.6979 -0.0629
  148MOL0     C19886   2.876   3.843  11.183 -0.4567  0.5912 -0.3530
  148MOL0     C19887   2.773   3.954  11.196  1.0851  0.3080  0.1327
  148MOL0     C19888   2.824   4.093  11.165  0.6366 -0.6254  0.3945
  148MOL0    Cl19889   2.849   4.173  11.330  0.1137  0.4604 -0.1267
  148MOL0     C19890   3.229   3.724  10.483 -0.5702  0.0004 -0.0407
  148MOL0     C19891   3.318   3.814  10.416  0.1679  0.6605  0.7838
  148MOL0     O19892   3.500   3.912  10.184 -0.9504 -0.0153 -0.3421
  148MOL0     C19893   3.627   4.168  10.150  0.1161  0.2490  0.3142
  148MOL0     C19894   3.705   4.290  10.138  0.5602 -0.2908  0.0495
  148MOL0     N19895   4.379   4.717  10.596 -0.0606 -0.5977  0.6455
  148MOL0     N19896   4.507   4.728  10.629  0.0313 -0.4340  0.3376
  148MOL0     C19897   5.375   3.940  10.559  0.1922  0.0734 -0.1547
  148MOL0     C19898   5.489   3.868  10.543  0.1209  0.4143  0.6451
  148MOL0     C19899   5.887   3.738  10.417  0.0855  0.0557 -0.5165
  148MOL0     C19900   5.877   3.654  10.310  0.3560  0.2546  0.1877
  148MOL0     C19901   5.991   3.574  10.263 -0.8134 -1.4400 -0.9847
  148MOL0     C19902   6.118   3.580  10.332  0.7178  0.0559 -0.3113
  148MOL0     O19903   6.218   3.491  10.288  0.1957  0.2925 -0.6699
  148MOL0     C19904   6.361   3.521  10.318 -0.0097  0.8321  1.1250
  148MOL0     C19905   6.441   3.524  10.186 -0.4466  1.1921  0.0607
  148MOL0     C19906   6.444   3.386  10.118 -0.2354  0.5858  0.5592
  148MOL0     C19907   6.534   3.374  10.005 -0.5865  0.1240 -0.6644
  148MOL0     C19908   6.542   3.485   9.912 -0.0090 -0.3666 -0.4343
  148MOL0     C19909   6.572   3.573   9.839 -0.5705  0.6187 -0.5089
  148MOL0     C19910   6.128   3.669  10.440  0.2875 -0.5291 -0.4657
  148MOL0     C19911   6.019   3.753  10.470  0.8532  1.2909 -0.3300
  148MOL0     C19912   6.047   3.850  10.576 -0.3678 -0.2160  0.5137
  148MOL0     H19913   5.521   3.894  10.207  0.1384  4.2036 -0.3176
  148MOL0     H19914   5.298   4.002  10.232  1.1445 -2.6796 -2.0036
  148MOL0     H19915   5.175   4.205  10.340 -1.2349  1.0822 -1.2614
  148MOL0     H19916   5.102   4.042  10.314 -1.6968  0.0694  0.1221
  148MOL0     H19917   4.933   4.124  10.502  2.1907  1.6820  2.8079
  148MOL0     H19918   4.935   4.222  10.351  1.5607 -0.2894 -0.3677
  148MOL0     H19919   5.113   4.370  10.470  2.1223 -3.8160  1.6814
  148MOL0     H19920   5.063   4.287  10.614 -3.3244 -1.7023  1.2926
  148MOL0     H19921   4.862   4.429  10.433 -2.4899 -1.3674  0.1914
  148MOL0     H19922   4.814   4.356  10.577 -1.3667  0.6973 -0.9082
  148MOL0     H19923   4.973   4.510  10.709 -2.4891  0.6675  0.1597
  148MOL0     H19924   5.021   4.582  10.549 -0.1183 -0.4251 -0.4213
  148MOL0     H19925   4.746   4.575  10.683  0.3598 -1.4227 -1.2234
  148MOL0     H19926   4.861   4.709  10.701  2.3972 -1.5690  0.7242
  148MOL0     H19927   4.750   4.639  10.416  1.5986 -0.5553 -0.0881
  148MOL0     H19928   4.882   4.735  10.457  1.3225 -1.8019  3.2844
  148MOL0     H19929   4.723   4.850  10.629  3.3877  2.9425 -2.3897
  148MOL0     H19930   4.738   4.902  10.461  1.2847  1.7112  2.3827
  148MOL0     H19931   4.485   4.815  10.315  1.8605 -2.3988 -0.2420
  148MOL0     H19932   4.147   4.804  10.410  0.6689  0.4008  0.4537
  148MOL0     H19933   4.255   4.798  10.286 -0.9674  0.2377  0.2203
  148MOL0     H19934   4.256   4.530  10.330  1.4551  3.3887 -1.5055
  148MOL0     H19935   4.157   4.570  10.474 -0.8961  0.6263  0.5495
  148MOL0     H19936   4.098   4.569  10.168 -0.1436  1.3621 -0.4832
  148MOL0     H19937   3.995   4.678  10.272 -3.6345 -1.6325 -0.6423
  148MOL0     H19938   3.916   4.487  10.419  1.2961 -1.1189  0.9654
  148MOL0     H19939   4.033   4.377  10.329 -1.4106 -1.4513  0.0351
  148MOL0     H19940   3.841   4.296  10.443  3.0751 -0.0296 -1.3798
  148MOL0     H19941   3.708   4.087  10.462  0.5004 -0.6200 -0.6115
  148MOL0     H19942   3.603   3.708  10.572 -0.6005  1.1470  1.0041
  148MOL0     H19943   3.458   3.547  10.671  1.8850 -0.7539 -1.2814
  148MOL0     H19944   3.027   3.684  10.624 -0.8380 -0.4981 -1.7457
  148MOL0     H19945   2.992   3.512  10.626  0.2308  0.5855  1.2626
  148MOL0     H19946   2.912   3.598  10.810  0.1551  0.0831  2.6398
  148MOL0     H19947   3.036   3.495  10.856  1.1454 -0.5163 -0.9909
  148MOL0     H19948   3.192   3.672  10.909  0.1835 -1.2236  3.3212
  148MOL0     H19949   3.091   3.797  10.833  1.8214  1.2989  3.5062
  148MOL0     H19950   3.100   3.777  11.089 -2.2669 -0.2876  1.3620
  148MOL0     H19951   3.024   3.616  11.068  4.7617 -1.1599 -0.3327
  148MOL0     H19952   2.820   3.732  10.995  0.8328  0.0188  1.0803
  148MOL0     H19953   2.904   3.882  10.963  0.2786  2.0479  1.4747
  148MOL0     H19954   2.844   3.755  11.240 -1.0402  2.3727  2.1968
  148MOL0     H19955   2.964   3.892  11.225 -2.0367  3.0647  0.2296
  148MOL0     H19956   2.723   3.952  11.294 -1.2653  1.1463 -0.9581
  148MOL0     H19957   2.695   3.932  11.123  0.8211 -1.5629  0.9293
  148MOL0     H19958   2.913   4.100  11.102 -0.4353  3.8750 -0.9483
  148MOL0     H19959   2.748   4.159  11.124  0.0788 -0.9269  0.9311
  148MOL0     H19960   3.126   3.749  10.462 -0.5889 -1.2890 -1.7104
  148MOL0     H19961   3.279   3.886  10.344  1.3559 -0.6381 -1.2879
  148MOL0     H19962   3.557   4.159  10.068 -1.2385 -1.4152  1.6005
  148MOL0     H19963   3.695   4.337  10.041 -0.7182  1.4881  0.9690
  148MOL0     H19964   5.338   3.956  10.660  1.9391  2.6960  0.1723
  148MOL0     H19965   5.530   3.820  10.631 -1.0265  0.8687  1.4425
  148MOL0     H19966   5.783   3.627  10.263 -0.2864  0.6535  1.2109
  148MOL0     H19967   5.977   3.508  10.179 -0.3584 -3.0702  0.1720
  148MOL0     H19968   6.397   3.444  10.387 -1.8886 -0.3321  0.8703
  148MOL0     H19969   6.384   3.617  10.366  4.9992  1.0242 -1.0221
  148MOL0     H19970   6.540   3.542  10.228 -0.0677 -2.1773  0.8796
  148MOL0     H19971   6.409   3.607  10.123 -5.4009 -0.2702  0.2059
  148MOL0     H19972   6.344   3.358  10.082 -0.8534  2.5413  0.6368
  148MOL0     H19973   6.463   3.316  10.200  3.8316  1.2853  0.3806
  148MOL0     H19974   6.636   3.370  10.045 -1.0510  0.6517  0.6212
  148MOL0     H19975   6.501   3.282   9.955 -0.5319  0.1952 -0.8310
  148MOL0     H19976   6.583   3.655   9.770 -2.3935  4.7997  3.5994
  148MOL0     H19977   6.223   3.675  10.491  1.4868  2.4195 -2.7707
  148MOL0     H19978   6.153   3.858  10.600 -0.8261  4.6174  2.0462
  148MOL0     H19979   6.004   3.945  10.543 -0.8310 -0.3898  0.6025
  148MOL0     H19980   5.992   3.830  10.669 -0.0337 -0.2557  0.7048
  149MOL0     O19981   9.531   2.533   8.228  0.4414 -0.0611 -0.4646
  149MOL0     C19982   9.447   2.566   8.155 -0.1914  1.2393 -0.3168
  149MOL0     O19983   9.448   2.535   8.023 -0.2391  0.7670  0.3946
  149MOL0     C19984   9.544   2.453   7.971 -0.5559  0.8722  0.1649
  149MOL0     C19985   9.529   2.446   7.828  0.0699  0.1922  0.7508
  149MOL0     C19986   9.615   2.361   7.759 -0.0832 -0.0534  0.8774
  149MOL0     C19987   9.707   2.274   7.833 -0.9324 -0.6408  0.4792
  149MOL0     O19988   9.773   2.181   7.756  0.9286  1.0581 -0.7567
  149MOL0     C19989   9.911   2.170   7.759 -0.3156 -0.4788  0.6101
  149MOL0     C19990   9.976   2.140   7.623 -0.3585  0.4596 -0.2345
  149MOL0     C19991   9.992   2.270   7.531  0.8503  0.2914  0.1031
  149MOL0     C19992  10.108   2.252   7.436 -0.6821  0.5286 -0.2289
  149MOL0     C19993  10.116   2.373   7.333  0.3720 -0.7348 -0.2433
  149MOL0     C19994  10.248   2.417   7.266 -0.3420 -0.2762  0.5371
  149MOL0     C19995  10.327   2.297   7.206 -0.4805 -0.3874  0.0096
  149MOL0     C19996  10.266   2.231   7.081  0.3536 -0.3276  0.9428
  149MOL0     N19997  10.350   2.128   7.018  1.2822 -0.4240 -0.7552
  149MOL0     C19998  10.372   2.009   7.081  0.5984  0.7097  0.4217
  149MOL0     C19999  10.454   1.936   7.001  0.2565 -0.7030  0.4258
  149MOL0     C20000  10.486   1.798   7.026 -0.4888 -0.2945  0.2870
  149MOL0     C20001  10.594   1.796   7.140  0.8623 -1.6398 -0.2091
  149MOL0     C20002  10.616   1.654   7.182 -0.3368 -0.0030  0.1006
  149MOL0     C20003  10.701   1.570   7.089  0.0455 -0.2988  0.0746
  149MOL0     O20004  10.618   1.491   7.012 -0.3847  0.1928  0.7478
  149MOL0     C20005  10.657   1.463   6.891 -0.2714  0.0621 -0.0182
  149MOL0     C20006  10.777   1.396   6.866  0.4275 -0.5724 -0.0038
  149MOL0     C20007  10.813   1.374   6.731 -0.1438  0.3927  0.4429
  149MOL0     C20008  10.719   1.384   6.626 -0.2867 -0.2267 -0.3913
  149MOL0     C20009  10.750   1.339   6.486 -0.5264  0.3474  0.2027
  149MOL0     O20010  10.646   1.326   6.399  0.5586  0.1576  0.2318
  149MOL0     C20011  10.665   1.327   6.260  0.4396  0.5267  1.5122
  149MOL0     C20012  10.633   1.442   6.197  0.2566  0.1474 -0.9028
  149MOL0     C20013  10.633   1.443   6.053 -0.0004 -0.9832 -0.0430
  149MOL0     C20014  10.645   1.328   5.976  0.6445  0.9348 -0.0734
  149MOL0     O20015  10.640   1.323   5.840  0.1477  0.4509  0.1286
  149MOL0     C20016  10.681   1.443   5.764 -0.3728 -0.3143  0.1500
  149MOL0     C20017  10.701   1.400   5.619 -0.3779 -1.0799 -0.0187
  149MOL0     C20018  10.753   1.518   5.535 -0.0111 -0.4088 -0.2990
  149MOL0     C20019  10.809   1.456   5.405  0.2014 -0.0900  0.6392
  149MOL0     C20020  10.863   1.560   5.313 -0.3277 -0.0340 -1.1545
  149MOL0     C20021  10.933   1.514   5.195 -1.3690 -0.6847 -0.8226
  149MOL0     C20022  11.064   1.447   5.216  0.8573 -0.1353 -0.3189
  149MOL0     C20023  11.186   1.539   5.234  0.7514  0.2866 -0.8397
  149MOL0    Cl20024  11.229   1.588   5.405  0.0424 -0.0098 -0.0208
  149MOL0     C20025  10.678   1.209   6.043  1.2846  0.7919 -0.0547
  149MOL0     C20026  10.685   1.202   6.177 -0.1944 -0.1334  0.5503
  149MOL0     O20027  10.869   1.311   6.456  0.6660  0.2344 -0.2510
  149MOL0     C20028  10.591   1.436   6.654 -0.0244 -0.3883 -0.1652
  149MOL0     C20029  10.566   1.478   6.785 -0.5814 -1.3548  0.4975
  149MOL0     N20030  10.502   2.021   6.901  0.4627 -0.5341 -0.3113
  149MOL0     N20031  10.444   2.136   6.914 -0.1882 -0.6555  0.4628
  149MOL0     C20032   9.720   2.281   7.970 -0.1706  0.0131 -0.2520
  149MOL0     C20033   9.644   2.375   8.032  0.2777 -0.6729 -0.1623
  149MOL0     C20034   9.342   2.666   8.196  0.8791  0.2873 -0.2003
  149MOL0     C20035   9.349   2.708   8.334 -0.2225 -0.7200  0.4347
  149MOL0     C20036   9.256   2.790   8.393  0.6498 -0.1224  0.7589
  149MOL0     C20037   9.139   2.835   8.325  0.3135  0.1592 -0.0167
  149MOL0     O20038   9.040   2.898   8.395 -0.3069  0.0073  0.0513
  149MOL0     C20039   8.927   2.946   8.317  0.0965  0.4393 -1.1289
  149MOL0     C20040   8.815   3.000   8.399  0.6484 -0.1563  0.4156
  149MOL0     C20041   8.852   3.131   8.471 -0.7260  0.3570 -0.5803
  149MOL0     C20042   8.734   3.204   8.529  0.2542  0.1780  0.2418
  149MOL0     C20043   8.644   3.109   8.595  0.4442 -0.0588 -0.6995
  149MOL0     C20044   8.570   3.027   8.645  0.2680 -0.6348  0.4604
  149MOL0     C20045   9.135   2.800   8.192  0.7863  0.1913  0.4050
  149MOL0     C20046   9.224   2.709   8.125 -0.7311  0.3900  0.2106
  149MOL0     C20047   9.175   2.669   7.984  0.0575  0.7483  0.2906
  149MOL0     H20048   9.464   2.514   7.773  3.5580  0.4351 -3.6803
  149MOL0     H20049   9.615   2.359   7.651 -1.4617 -2.0158  0.8632
  149MOL0     H20050   9.948   2.268   7.791 -1.8700  0.1565  0.5110
  149MOL0     H20051   9.921   2.094   7.836 -4.3039 -0.2737  1.5392
  149MOL0     H20052   9.916   2.063   7.573 -0.4866  0.6864 -0.4321
  149MOL0     H20053  10.073   2.092   7.637 -1.8461 -3.3469 -1.6822
  149MOL0     H20054  10.003   2.367   7.582  0.6703  1.4420 -1.9626
  149MOL0     H20055   9.904   2.265   7.466 -0.0114 -2.6011  1.3432
  149MOL0     H20056  10.206   2.250   7.484 -0.2670 -0.1089 -1.0732
  149MOL0     H20057  10.095   2.155   7.388 -0.2914 -0.2645  1.2356
  149MOL0     H20058  10.054   2.336   7.250  2.0825 -1.5542 -1.2197
  149MOL0     H20059  10.070   2.461   7.379  0.7183 -0.2617 -0.7823
  149MOL0     H20060  10.218   2.490   7.190 -6.6906 -3.3593 -0.5440
  149MOL0     H20061  10.312   2.464   7.342 -1.2903  0.5539  0.8479
  149MOL0     H20062  10.336   2.213   7.275 -0.9431  0.3396  0.9767
  149MOL0     H20063  10.425   2.341   7.186 -0.2298 -1.0148 -0.1683
  149MOL0     H20064  10.167   2.189   7.099 -2.2943  3.6408 -2.4876
  149MOL0     H20065  10.251   2.305   7.001 -2.9022 -1.4092  0.4202
  149MOL0     H20066  10.335   1.952   7.166  2.0429 -3.9328 -1.7262
  149MOL0     H20067  10.400   1.743   7.064 -0.9999 -0.0086 -0.4330
  149MOL0     H20068  10.532   1.748   6.940 -0.3483 -0.8033  0.6570
  149MOL0     H20069  10.694   1.826   7.107  0.9620  1.7706  2.5920
  149MOL0     H20070  10.550   1.859   7.218  2.2406  0.0676 -0.7444
  149MOL0     H20071  10.517   1.613   7.201 -1.3368  0.8535 -2.6454
  149MOL0     H20072  10.675   1.666   7.273  0.2819  0.7890 -0.3884
  149MOL0     H20073  10.759   1.511   7.160  3.5458  3.0469  0.3140
  149MOL0     H20074  10.771   1.628   7.028  1.3945 -2.3524 -0.4147
  149MOL0     H20075  10.832   1.370   6.955  1.3658 -1.2252 -0.7557
  149MOL0     H20076  10.906   1.322   6.714 -0.0124  0.8672 -0.3167
  149MOL0     H20077  10.602   1.531   6.252 -1.5256 -2.1036  1.9830
  149MOL0     H20078  10.604   1.532   5.999  0.1175 -1.2164 -0.4974
  149MOL0     H20079  10.611   1.526   5.774 -1.3058 -1.1006  0.2577
  149MOL0     H20080  10.772   1.474   5.817  0.5711 -3.4604  0.6222
  149MOL0     H20081  10.782   1.327   5.620  2.3102  1.6765 -0.1343
  149MOL0     H20082  10.610   1.355   5.579 -0.7784 -0.9867  0.7822
  149MOL0     H20083  10.672   1.587   5.511 -2.2023 -2.2156  1.4460
  149MOL0     H20084  10.831   1.576   5.583 -1.6157  2.9755 -1.4546
  149MOL0     H20085  10.725   1.404   5.359 -0.9082  0.7311  1.6854
  149MOL0     H20086  10.884   1.382   5.434 -0.5507 -1.8755 -1.6546
  149MOL0     H20087  10.924   1.629   5.372 -0.2531 -0.3723 -0.8348
  149MOL0     H20088  10.771   1.617   5.298 -2.4586 -2.1703  2.4292
  149MOL0     H20089  10.872   1.435   5.151 -1.1072 -1.7251  0.5633
  149MOL0     H20090  10.949   1.599   5.129 -1.1833  0.7790  1.0051
  149MOL0     H20091  11.075   1.384   5.128 -0.9120  0.1683 -0.7912
  149MOL0     H20092  11.056   1.375   5.298 -1.0729 -0.7582 -0.9880
  149MOL0     H20093  11.270   1.476   5.206  3.4712  2.4127  1.7937
  149MOL0     H20094  11.185   1.631   5.174  2.7174  1.8034  1.2981
  149MOL0     H20095  10.691   1.126   5.974  0.4579  1.3986 -0.9671
  149MOL0     H20096  10.694   1.098   6.210  0.4610 -0.4718 -0.6585
  149MOL0     H20097  10.512   1.453   6.582  0.9109 -1.5282 -1.5195
  149MOL0     H20098  10.470   1.527   6.797 -0.1979  0.1286 -1.6657
  149MOL0     H20099   9.789   2.216   8.023  0.2866 -0.5263 -1.4685
  149MOL0     H20100   9.654   2.368   8.140 -0.6939  0.5011  0.0193
  149MOL0     H20101   9.435   2.689   8.398  2.1430 -0.7335 -2.5397
  149MOL0     H20102   9.277   2.828   8.493  3.6463  1.1768 -0.2548
  149MOL0     H20103   8.889   2.860   8.261 -0.3356  0.2242 -0.5204
  149MOL0     H20104   8.967   3.027   8.255 -0.1597  1.0592 -0.4992
  149MOL0     H20105   8.788   2.925   8.475 -2.6299  2.8061  2.5009
  149MOL0     H20106   8.726   3.009   8.337 -0.9608  2.7582  2.8525
  149MOL0     H20107   8.907   3.189   8.397 -1.9122 -1.2274 -2.8018
  149MOL0     H20108   8.916   3.115   8.559 -1.3264  0.7653 -0.0592
  149MOL0     H20109   8.770   3.291   8.585  0.7246  1.8557 -2.4687
  149MOL0     H20110   8.669   3.237   8.448  0.5571 -0.8578 -0.4429
  149MOL0     H20111   8.488   2.978   8.693 -1.0328  0.4171 -0.6182
  149MOL0     H20112   9.055   2.830   8.124  1.8125  3.4603  0.4673
  149MOL0     H20113   9.070   2.637   7.985  0.3437 -0.2896  2.5429
  149MOL0     H20114   9.172   2.759   7.923 -1.4734  0.2249 -0.4805
  149MOL0     H20115   9.235   2.593   7.934 -0.4538  0.6445 -0.1859
  150MOL0     O20116   8.503   5.454  11.423  0.7393  0.9743 -0.3305
  150MOL0     C20117   8.549   5.412  11.524 -1.0352  0.0349 -1.3357
  150MOL0     O20118   8.648   5.317  11.535  0.9478  0.6705 -0.0783
  150MOL0     C20119   8.714   5.259  11.422 -0.2215 -0.1483  0.1425
  150MOL0     C20120   8.824   5.177  11.463 -0.4076  0.2390 -0.8004
  150MOL0     C20121   8.894   5.108  11.377  0.5119  0.0632 -0.3301
  150MOL0     C20122   8.869   5.116  11.237  0.0963 -0.4571 -1.2122
  150MOL0     O20123   8.936   5.051  11.137 -0.0759  0.5747 -0.3255
  150MOL0     C20124   9.043   4.970  11.190  0.1761 -0.4249  0.3998
  150MOL0     C20125   9.120   4.906  11.072 -0.3188 -0.2308 -0.4192
  150MOL0     C20126   9.199   5.011  11.002 -0.0033 -0.7413 -0.0515
  150MOL0     C20127   9.288   4.944  10.900  0.0977  0.1913  0.1607
  150MOL0     C20128   9.365   5.062  10.837 -0.0645 -0.5377  0.5529
  150MOL0     C20129   9.431   5.167  10.927 -0.0870  0.1998 -0.0950
  150MOL0     C20130   9.533   5.241  10.836  0.4612 -0.2535 -0.0370
  150MOL0     C20131   9.605   5.352  10.918 -0.1176 -0.0185  0.2655
  150MOL0     N20132   9.709   5.299  11.003  0.1585  0.0432  0.1936
  150MOL0     C20133   9.844   5.314  10.968 -0.3404 -0.1539  0.0644
  150MOL0     C20134   9.911   5.270  11.079  0.0851 -0.1577 -0.9602
  150MOL0     C20135  10.061   5.274  11.094  0.8220 -0.0333 -0.4298
  150MOL0     C20136  10.135   5.259  10.959  0.6760  0.3586  0.2957
  150MOL0     C20137  10.275   5.210  10.975 -0.2206 -0.5410  0.3180
  150MOL0     C20138  10.357   5.220  10.850 -1.7353 -0.4341  0.1133
  150MOL0     O20139  10.321   5.144  10.731  0.1592  0.0261 -0.2035
  150MOL0     C20140  10.391   5.156  10.616  0.7458 -0.4427  0.9044
  150MOL0     C20141  10.493   5.253  10.592  0.6825  0.7245 -0.7407
  150MOL0     C20142  10.552   5.266  10.465  0.5687  0.0188 -0.0168
  150MOL0     C20143  10.525   5.160  10.366  0.0457  0.5034 -0.0794
  150MOL0     C20144  10.594   5.164  10.233 -0.7282  0.7612 -0.5966
  150MOL0     O20145  10.683   5.270  10.217 -0.0220 -0.1378 -0.6944
  150MOL0     C20146  10.726   5.295  10.087  0.5782  0.0877  0.0922
  150MOL0     C20147  10.784   5.190  10.009 -0.1842 -0.2358 -0.6823
  150MOL0     C20148  10.821   5.219   9.875  0.9118 -0.7995  0.2414
  150MOL0     C20149  10.779   5.330   9.802  0.3784 -0.3135  0.1427
  150MOL0     O20150  10.791   5.357   9.671  0.9549  0.3547  0.0248
  150MOL0     C20151  10.878   5.273   9.598 -0.2990 -0.0542 -0.8010
  150MOL0     C20152  10.850   5.324   9.450  0.0848  0.2459  0.0294
  150MOL0     C20153  10.701   5.344   9.408 -0.1999 -0.2032 -0.4737
  150MOL0     C20154  10.687   5.350   9.255 -0.1229  0.3426  0.2088
  150MOL0     C20155  10.796   5.447   9.193  0.6374 -0.2469 -0.5237
  150MOL0     C20156  10.760   5.471   9.044 -0.9698  0.9526  0.7427
  150MOL0     C20157  10.812   5.351   8.962 -0.8689  0.2048 -0.2631
  150MOL0     C20158  10.797   5.387   8.813  0.9722 -0.9915 -0.2747
  150MOL0    Cl20159  10.641   5.429   8.754  0.4950  0.0939  0.4471
  150MOL0     C20160  10.701   5.417   9.873  0.6608  0.1362 -0.5292
  150MOL0     C20161  10.672   5.401  10.014 -0.2729 -0.4322 -0.2510
  150MOL0     O20162  10.545   5.097  10.140  0.5675 -0.4489 -0.3226
  150MOL0     C20163  10.438   5.058  10.392  1.1397 -0.6794  0.0311
  150MOL0     C20164  10.374   5.055  10.523  0.1948 -0.0071  0.4857
  150MOL0     N20165   9.817   5.257  11.184  0.0415  0.3395 -0.4632
  150MOL0     N20166   9.701   5.277  11.136 -0.7037 -0.3907  0.9537
  150MOL0     C20167   8.777   5.207  11.202 -0.1477 -0.8848  0.6845
  150MOL0     C20168   8.693   5.276  11.287  0.0320 -0.5968  0.1476
  150MOL0     C20169   8.527   5.476  11.650  1.2611  0.1365  0.1180
  150MOL0     C20170   8.624   5.471  11.748  0.4473  0.2861  0.0681
  150MOL0     C20171   8.605   5.528  11.873 -1.3573  0.4227 -0.4094
  150MOL0     C20172   8.485   5.579  11.918  0.1446  0.2513  0.6883
  150MOL0     O20173   8.454   5.641  12.039  0.0583 -0.5016 -0.3356
  150MOL0     C20174   8.521   5.587  12.157  0.0237  0.1045 -0.4419
  150MOL0     C20175   8.451   5.639  12.282 -0.3577  0.5977  0.1812
  150MOL0     C20176   8.507   5.578  12.414  0.0450  0.0893  0.1351
  150MOL0     C20177   8.443   5.623  12.541  0.2217 -0.7900  0.0567
  150MOL0     C20178   8.495   5.573  12.669  0.5144 -0.9315 -0.6881
  150MOL0     C20179   8.507   5.559  12.789  0.2728  0.3580 -0.9252
  150MOL0     C20180   8.382   5.579  11.819  0.0516  0.8977  0.3227
  150MOL0     C20181   8.404   5.525  11.691 -0.5368 -0.6101 -0.2257
  150MOL0     C20182   8.295   5.535  11.583 -0.4415 -0.2595 -0.0173
  150MOL0     H20183   8.844   5.163  11.569 -0.5958 -4.0646 -1.1621
  150MOL0     H20184   8.964   5.040  11.425 -2.3617 -1.7284  1.6626
  150MOL0     H20185   9.111   5.028  11.253 -1.1069 -1.2340  2.6752
  150MOL0     H20186   8.998   4.893  11.254 -0.8336  0.6852  1.0757
  150MOL0     H20187   9.060   4.846  11.003 -1.0110 -1.4039  1.1482
  150MOL0     H20188   9.200   4.847  11.116 -0.9512  1.0016  2.6824
  150MOL0     H20189   9.263   5.053  11.080  1.1772 -2.4061 -0.0502
  150MOL0     H20190   9.137   5.090  10.960  2.1780 -0.3353 -2.7837
  150MOL0     H20191   9.355   4.870  10.945  2.1045  1.8915  0.1002
  150MOL0     H20192   9.229   4.886  10.829 -0.4820 -0.6360  1.2707
  150MOL0     H20193   9.450   5.018  10.785  0.9375 -2.8179  3.8081
  150MOL0     H20194   9.299   5.121  10.773  0.2030  0.4838  1.1841
  150MOL0     H20195   9.357   5.240  10.962  1.1330  1.9429 -1.0043
  150MOL0     H20196   9.468   5.124  11.021  0.5818  0.2751 -0.3196
  150MOL0     H20197   9.478   5.283  10.752  0.1828  3.9338  1.9575
  150MOL0     H20198   9.609   5.172  10.799  1.9045  0.6166  1.1375
  150MOL0     H20199   9.657   5.421  10.851  1.1625 -0.2569  0.9771
  150MOL0     H20200   9.537   5.413  10.978 -0.0997 -0.9673  1.2939
  150MOL0     H20201   9.893   5.350  10.878 -0.2390 -3.2415 -1.2316
  150MOL0     H20202  10.097   5.363  11.146  1.0116 -0.4713  0.1939
  150MOL0     H20203  10.080   5.184  11.154  0.6042 -1.5683 -2.5463
  150MOL0     H20204  10.086   5.179  10.903 -0.6531 -0.0988  2.0045
  150MOL0     H20205  10.120   5.339  10.886 -2.0812  1.0043  1.4224
  150MOL0     H20206  10.260   5.109  11.015 -1.5517 -0.9752 -1.1419
  150MOL0     H20207  10.335   5.267  11.046  1.6795 -0.1564 -1.5108
  150MOL0     H20208  10.453   5.177  10.883 -1.7211  1.3385  2.6445
  150MOL0     H20209  10.363   5.324  10.819  0.3566 -0.1912  1.0947
  150MOL0     H20210  10.508   5.327  10.670  1.2625 -2.2818  2.2351
  150MOL0     H20211  10.627   5.343  10.447  2.1699 -1.1831  1.1643
  150MOL0     H20212  10.826   5.103  10.058  3.3816  1.5083 -0.2627
  150MOL0     H20213  10.884   5.143   9.830  0.1268 -0.6786 -1.1174
  150MOL0     H20214  10.984   5.281   9.626 -1.0967 -2.6249  3.9714
  150MOL0     H20215  10.853   5.168   9.614 -0.6578  0.3889  2.0154
  150MOL0     H20216  10.898   5.422   9.448 -0.4900  0.7065  3.2463
  150MOL0     H20217  10.897   5.259   9.376 -1.5501 -2.3154  1.0894
  150MOL0     H20218  10.641   5.260   9.445  2.0133 -1.4719  0.3885
  150MOL0     H20219  10.671   5.442   9.447 -2.6502 -0.1238 -2.3168
  150MOL0     H20220  10.589   5.386   9.223  0.6597  1.0922 -1.5532
  150MOL0     H20221  10.696   5.253   9.206 -5.8273 -0.6068  0.4046
  150MOL0     H20222  10.898   5.410   9.205  2.1180  4.0653  2.5341
  150MOL0     H20223  10.792   5.543   9.245 -1.6377 -1.4530  1.6903
  150MOL0     H20224  10.653   5.472   9.021 -0.6248 -1.1606 -1.3721
  150MOL0     H20225  10.818   5.555   9.006  0.8281 -0.5539 -0.0405
  150MOL0     H20226  10.749   5.262   8.971 -0.7371  0.2902  1.8151
  150MOL0     H20227  10.916   5.328   8.985 -0.6229  2.9774  1.8784
  150MOL0     H20228  10.868   5.467   8.788 -0.4843 -0.0444 -1.5821
  150MOL0     H20229  10.836   5.305   8.753  2.9758  0.7206 -1.4525
  150MOL0     H20230  10.656   5.501   9.821 -1.5066  1.7804  3.5282
  150MOL0     H20231  10.635   5.482  10.075 -0.9384 -0.7921 -0.1695
  150MOL0     H20232  10.403   4.982  10.323 -0.3838  3.0783 -3.7588
  150MOL0     H20233  10.302   4.981  10.554 -0.6298  0.8753  0.7280
  150MOL0     H20234   8.763   5.233  11.097 -2.1639  1.0610  1.3795
  150MOL0     H20235   8.613   5.334  11.243 -0.3167 -1.8093 -0.8700
  150MOL0     H20236   8.721   5.427  11.727  0.0062 -0.6316 -0.0589
  150MOL0     H20237   8.692   5.541  11.938 -1.5688 -0.4726  0.0681
  150MOL0     H20238   8.624   5.618  12.177 -0.5765  0.6974  2.1434
  150MOL0     H20239   8.509   5.479  12.158  1.1463 -0.0592  1.6811
  150MOL0     H20240   8.345   5.615  12.270 -0.2514 -0.1744  0.7126
  150MOL0     H20241   8.481   5.744  12.284 -2.1550  1.1672  3.0089
  150MOL0     H20242   8.616   5.593  12.414 -0.0037  1.0112  2.7776
  150MOL0     H20243   8.497   5.469  12.408  1.5117  0.0244 -3.1721
  150MOL0     H20244   8.426   5.731  12.548  0.4635 -0.7383 -0.1555
  150MOL0     H20245   8.340   5.585  12.540  0.3412 -1.4815 -4.6633
  150MOL0     H20246   8.514   5.549  12.895 -1.3275 -1.1226 -0.8970
  150MOL0     H20247   8.285   5.620  11.846 -0.2195 -0.9072  2.3841
  150MOL0     H20248   8.256   5.435  11.563  0.0556  0.0138 -2.7671
  150MOL0     H20249   8.206   5.583  11.626  0.2371 -1.0568  2.4129
  150MOL0     H20250   8.318   5.586  11.489 -1.2214 -1.1515 -0.7202
  151MOL0     O20251   4.819   1.075   8.723 -0.3237 -0.8915 -0.6575
  151MOL0     C20252   4.923   1.007   8.738  1.2996 -0.2530 -0.4691
  151MOL0     O20253   4.921   0.875   8.715 -0.3252  0.5532 -0.8435
  151MOL0     C20254   4.799   0.793   8.713  0.6688 -0.0145  0.9478
  151MOL0     C20255   4.813   0.665   8.662  1.0417 -0.3440  0.1063
  151MOL0     C20256   4.711   0.573   8.649  0.5062 -0.6812  0.8718
  151MOL0     C20257   4.577   0.613   8.673  0.7645  0.2644  0.4311
  151MOL0     O20258   4.477   0.506   8.668  0.1772  0.2756  0.2064
  151MOL0     C20259   4.334   0.541   8.678 -0.6865 -0.4819 -0.0309
  151MOL0     C20260   4.257   0.421   8.620 -0.0414 -0.1482 -0.9561
  151MOL0     C20261   4.267   0.298   8.714  0.1407 -1.0426  0.3450
  151MOL0     C20262   4.200   0.171   8.652 -1.0342 -0.9628  0.5159
  151MOL0     C20263   4.164   0.065   8.764  0.5434  0.3445 -0.2575
  151MOL0     C20264   4.293   0.003   8.833 -0.0078  0.4726 -0.0841
  151MOL0     C20265   4.254  -0.064   8.962  0.5375  0.1137 -0.8052
  151MOL0     C20266   4.369  -0.089   9.054 -0.5796 -0.1960 -0.4147
  151MOL0     N20267   4.467  -0.190   9.006 -0.7427 -0.0163 -0.9170
  151MOL0     C20268   4.573  -0.161   8.923  0.7177  1.2248  0.1047
  151MOL0     C20269   4.636  -0.276   8.903 -0.1263 -0.0016 -0.3594
  151MOL0     C20270   4.753  -0.286   8.810  0.1603  0.0303  0.3078
  151MOL0     C20271   4.854  -0.388   8.870 -0.5584  0.7151  0.7288
  151MOL0     C20272   4.976  -0.378   8.772 -0.3956 -0.8995  0.8040
  151MOL0     C20273   5.083  -0.478   8.807  0.3090 -0.4122  0.1619
  151MOL0     O20274   5.224  -0.439   8.773 -0.0354  0.2754 -0.2895
  151MOL0     C20275   5.307  -0.542   8.767  0.0133 -0.9086  0.7083
  151MOL0     C20276   5.299  -0.621   8.645 -0.1401 -0.7387  0.2558
  151MOL0     C20277   5.398  -0.716   8.634 -0.1988 -0.3256 -1.1318
  151MOL0     C20278   5.494  -0.754   8.739  0.6520 -0.8177 -0.1523
  151MOL0     C20279   5.591  -0.857   8.732 -0.1343 -0.1286 -0.6704
  151MOL0     O20280   5.698  -0.855   8.819 -0.6194  0.2953  0.2920
  151MOL0     C20281   5.779  -0.969   8.833  0.1594 -0.3074 -0.3222
  151MOL0     C20282   5.830  -1.053   8.733  1.4435  0.5009  0.6146
  151MOL0     C20283   5.911  -1.156   8.764 -0.1194  0.0763  0.5936
  151MOL0     C20284   5.957  -1.176   8.892 -0.0221 -0.0649  0.2690
  151MOL0     O20285   6.040  -1.281   8.914  0.2534 -0.0667 -0.3999
  151MOL0     C20286   6.117  -1.295   9.037 -0.3495  0.4852  0.1946
  151MOL0     C20287   6.205  -1.177   9.059  0.2027  0.1372  0.3548
  151MOL0     C20288   6.329  -1.213   9.153  0.0668  0.5734 -0.0253
  151MOL0     C20289   6.459  -1.268   9.080  0.4588 -1.2809  0.2975
  151MOL0     C20290   6.569  -1.293   9.181  0.1503 -0.3070  0.2361
  151MOL0     C20291   6.566  -1.429   9.249 -0.3704  1.8144 -0.5527
  151MOL0     C20292   6.598  -1.550   9.153  0.2559  0.2398 -0.1329
  151MOL0     C20293   6.637  -1.684   9.224 -0.4547 -0.7908 -0.0778
  151MOL0    Cl20294   6.499  -1.789   9.233 -0.1101 -0.0907  0.2338
  151MOL0     C20295   5.904  -1.097   8.991 -0.3312 -0.9129 -0.3783
  151MOL0     C20296   5.835  -0.982   8.963  0.3263 -0.3616  0.2826
  151MOL0     O20297   5.573  -0.943   8.649 -1.2748  0.6736  0.2537
  151MOL0     C20298   5.494  -0.669   8.854 -0.6648  1.0483 -0.2419
  151MOL0     C20299   5.395  -0.566   8.868 -0.6100 -0.5656 -0.0870
  151MOL0     N20300   4.569  -0.377   8.962 -0.8112 -0.0558  0.4485
  151MOL0     N20301   4.461  -0.327   9.028  0.2512 -0.2099  0.7801
  151MOL0     C20302   4.550   0.746   8.704 -0.4117  0.4087 -1.3268
  151MOL0     C20303   4.659   0.840   8.737 -0.1933  0.0602  0.5741
  151MOL0     C20304   5.040   1.089   8.785 -0.7246 -0.2525 -0.3844
  151MOL0     C20305   5.083   1.205   8.706  0.0932  0.6443 -0.3496
  151MOL0     C20306   5.194   1.280   8.747 -0.1657 -1.1682 -0.1832
  151MOL0     C20307   5.268   1.244   8.856  0.2862  1.5960 -0.5921
  151MOL0     O20308   5.382   1.322   8.877  0.7085 -0.0205  1.1002
  151MOL0     C20309   5.463   1.294   8.992 -0.2632  0.3787  0.1966
  151MOL0     C20310   5.590   1.387   8.973 -1.2658  0.8134  0.2113
  151MOL0     C20311   5.681   1.406   9.096  0.4116 -0.3896 -0.0082
  151MOL0     C20312   5.706   1.284   9.176 -0.8977 -0.4411 -0.6662
  151MOL0     C20313   5.798   1.200   9.121  0.3216 -0.0133 -0.2356
  151MOL0     C20314   5.890   1.126   9.082  0.5625 -0.0620 -0.8215
  151MOL0     C20315   5.227   1.133   8.944  0.5148 -0.7594  0.7073
  151MOL0     C20316   5.109   1.066   8.905  0.4489  0.2654  0.2840
  151MOL0     C20317   5.069   0.956   9.002  0.1874 -0.2384  0.5629
  151MOL0     H20318   4.911   0.624   8.637  0.3023 -3.1558  1.4339
  151MOL0     H20319   4.732   0.475   8.607  2.2119 -0.6970  1.6645
  151MOL0     H20320   4.312   0.560   8.784 -0.7006 -1.8797  0.2361
  151MOL0     H20321   4.307   0.625   8.612 -1.8723 -0.8582 -0.0505
  151MOL0     H20322   4.309   0.410   8.525  2.0176 -1.3089  0.2437
  151MOL0     H20323   4.153   0.452   8.606  0.4068  1.3545 -1.1147
  151MOL0     H20324   4.219   0.331   8.806 -2.3217 -1.5069 -0.6809
  151MOL0     H20325   4.374   0.276   8.724  0.1370 -1.0410  0.3812
  151MOL0     H20326   4.112   0.202   8.595  0.9211  0.6862 -1.8181
  151MOL0     H20327   4.258   0.123   8.573  2.2064  0.1430  2.0144
  151MOL0     H20328   4.082   0.110   8.820  0.1579  0.3943 -0.8469
  151MOL0     H20329   4.107  -0.008   8.705 -0.8997 -0.0943  1.5933
  151MOL0     H20330   4.364  -0.054   8.772  0.9536 -1.2484  2.4650
  151MOL0     H20331   4.348   0.092   8.863  0.7788 -0.0017 -0.0883
  151MOL0     H20332   4.203  -0.159   8.945  4.2167 -2.4894  1.2771
  151MOL0     H20333   4.177  -0.002   9.009  1.0342  0.6273 -0.6558
  151MOL0     H20334   4.432  -0.005   9.080 -0.1416 -0.6151 -0.1101
  151MOL0     H20335   4.326  -0.117   9.151 -0.0581 -1.0315 -0.4141
  151MOL0     H20336   4.611  -0.067   8.886 -2.4573  2.1616 -1.1359
  151MOL0     H20337   4.728  -0.316   8.708  2.8816 -0.0910 -0.3899
  151MOL0     H20338   4.811  -0.195   8.796 -1.9997  1.4617  0.1202
  151MOL0     H20339   4.873  -0.379   8.978 -2.9321 -0.8448  1.3679
  151MOL0     H20340   4.810  -0.488   8.865 -1.4673  1.1754 -1.8971
  151MOL0     H20341   5.015  -0.276   8.781  0.7683 -1.2128 -0.3464
  151MOL0     H20342   4.941  -0.404   8.672 -0.2555 -1.2222  0.8370
  151MOL0     H20343   5.069  -0.559   8.735  2.3676 -0.7454  0.0708
  151MOL0     H20344   5.077  -0.511   8.911  1.2444  0.9197  0.6754
  151MOL0     H20345   5.231  -0.596   8.564 -0.9564 -0.2814  1.0601
  151MOL0     H20346   5.413  -0.777   8.545  0.0501  1.2736 -2.2431
  151MOL0     H20347   5.811  -1.035   8.628  1.0545 -0.5603  0.4876
  151MOL0     H20348   5.958  -1.217   8.687  1.1519  2.9789 -1.0673
  151MOL0     H20349   6.055  -1.313   9.125 -0.5978  1.5652  0.2452
  151MOL0     H20350   6.187  -1.380   9.036  2.3598  2.5961 -0.8163
  151MOL0     H20351   6.232  -1.129   8.964 -2.3170  1.4488  0.1898
  151MOL0     H20352   6.142  -1.103   9.110  1.3718  1.4848 -0.1079
  151MOL0     H20353   6.354  -1.119   9.204  0.0809  0.9515 -0.7131
  151MOL0     H20354   6.289  -1.273   9.235  0.4250 -0.2728 -0.4597
  151MOL0     H20355   6.487  -1.189   9.010 -4.4874  0.3173 -0.2658
  151MOL0     H20356   6.438  -1.359   9.023 -1.5772 -1.1402  0.7181
  151MOL0     H20357   6.570  -1.208   9.249 -0.6960 -1.8336  2.2637
  151MOL0     H20358   6.653  -1.306   9.113 -2.1517 -3.5228 -2.3440
  151MOL0     H20359   6.644  -1.427   9.326 -2.5514  1.7121  1.7999
  151MOL0     H20360   6.467  -1.446   9.291 -0.5157  1.0348 -1.1921
  151MOL0     H20361   6.679  -1.529   9.083 -0.4598  3.3002 -0.1640
  151MOL0     H20362   6.508  -1.581   9.099  0.6456 -1.6664  0.2341
  151MOL0     H20363   6.718  -1.731   9.167  0.7518  1.0338  0.0584
  151MOL0     H20364   6.685  -1.668   9.321  0.6683 -2.6198 -0.2817
  151MOL0     H20365   5.932  -1.121   9.093 -2.1895 -1.1830  0.1029
  151MOL0     H20366   5.820  -0.916   9.048  1.9487  3.8928 -2.3498
  151MOL0     H20367   5.564  -0.685   8.935 -0.4809 -2.5423 -0.9607
  151MOL0     H20368   5.398  -0.500   8.954 -1.4887 -0.6156 -0.0170
  151MOL0     H20369   4.444   0.765   8.720  0.0300  1.9825 -0.0181
  151MOL0     H20370   4.638   0.944   8.763 -0.3321  1.6631 -4.8337
  151MOL0     H20371   5.032   1.232   8.614 -0.9560  0.2189  0.0927
  151MOL0     H20372   5.232   1.365   8.693  1.8413 -0.4622  2.1723
  151MOL0     H20373   5.512   1.197   9.001  4.3968  2.5132  0.3506
  151MOL0     H20374   5.401   1.300   9.082 -0.6053  0.5996 -0.0517
  151MOL0     H20375   5.563   1.491   8.949 -0.9361  1.4046  2.2063
  151MOL0     H20376   5.660   1.358   8.894  0.4911 -0.2405  2.0424
  151MOL0     H20377   5.623   1.471   9.163 -0.7086 -0.9898 -0.3631
  151MOL0     H20378   5.776   1.455   9.077 -0.1215  0.7553  0.1888
  151MOL0     H20379   5.742   1.324   9.271 -3.3813 -0.5392  0.4026
  151MOL0     H20380   5.626   1.224   9.220 -0.9277  2.0943  3.2135
  151MOL0     H20381   5.961   1.047   9.063  1.7195  0.1755  1.9838
  151MOL0     H20382   5.282   1.111   9.035  2.1214  0.5104  0.0789
  151MOL0     H20383   5.023   0.871   8.951  1.6622  0.1005 -1.4709
  151MOL0     H20384   5.158   0.918   9.052  1.0368  1.2231  0.2229
  151MOL0     H20385   5.016   1.009   9.082 -1.0487 -0.1870 -0.2557
  152MOL0     O20386   6.355   7.573   7.462  0.6015 -0.0694  0.4262
  152MOL0     C20387   6.320   7.543   7.578 -0.3599  1.0729 -1.5808
  152MOL0     O20388   6.221   7.450   7.613 -0.3180 -0.1915  0.4233
  152MOL0     C20389   6.182   7.361   7.519 -0.3999  0.3864 -0.3073
  152MOL0     C20390   6.098   7.405   7.413 -0.4971 -0.5198  0.2954
  152MOL0     C20391   6.042   7.311   7.331  0.5842 -0.1897 -0.3879
  152MOL0     C20392   6.065   7.178   7.345 -0.1923 -0.1018  0.0971
  152MOL0     O20393   5.998   7.091   7.262  0.5050 -0.0643 -0.0101
  152MOL0     C20394   6.086   6.980   7.226  0.0436 -0.0368  0.4589
  152MOL0     C20395   6.045   6.930   7.088  0.2243  0.2122  0.0848
  152MOL0     C20396   6.032   7.027   6.974 -0.3882 -1.1329  0.1430
  152MOL0     C20397   5.978   6.955   6.849  0.6311 -0.3156 -1.2168
  152MOL0     C20398   5.828   6.910   6.850 -0.3989 -0.6167 -0.3151
  152MOL0     C20399   5.772   6.872   6.714 -0.3958  0.0653  0.0557
  152MOL0     C20400   5.614   6.865   6.722 -0.6382 -0.2049 -0.8001
  152MOL0     C20401   5.559   6.769   6.627 -0.1984  0.0521 -0.4339
  152MOL0     N20402   5.575   6.814   6.486 -0.2544  0.2467  0.4434
  152MOL0     C20403   5.705   6.791   6.429 -0.8855 -0.6915  0.1021
  152MOL0     C20404   5.687   6.841   6.311 -1.2416  0.1629  0.1000
  152MOL0     C20405   5.801   6.855   6.213  0.2730  0.1989 -0.9121
  152MOL0     C20406   5.883   6.728   6.187 -0.2501 -0.1115  0.3027
  152MOL0     C20407   5.986   6.735   6.077 -0.1489 -0.0737  0.2937
  152MOL0     C20408   6.081   6.614   6.080 -0.1781 -0.5510  0.4153
  152MOL0     O20409   6.011   6.493   6.058 -0.5269 -0.5090 -0.3824
  152MOL0     C20410   5.977   6.440   5.925 -0.7304 -0.1729 -0.2098
  152MOL0     C20411   6.049   6.474   5.806  0.9234 -0.0679  0.1920
  152MOL0     C20412   6.008   6.417   5.678  0.4981 -0.5031  0.1759
  152MOL0     C20413   5.918   6.313   5.666 -0.7034 -0.6624  0.0129
  152MOL0     C20414   5.893   6.248   5.535 -0.9715 -0.3632 -0.0502
  152MOL0     O20415   5.842   6.123   5.531 -0.2192 -0.1510 -0.0576
  152MOL0     C20416   5.796   6.076   5.413  0.1770  0.1531 -0.0319
  152MOL0     C20417   5.807   5.941   5.379 -0.1471 -0.5928 -0.0644
  152MOL0     C20418   5.767   5.899   5.253  0.4674 -0.3407  0.5458
  152MOL0     C20419   5.712   5.987   5.158  0.6084  1.4529  0.8947
  152MOL0     O20420   5.667   5.951   5.024  0.3925  0.2643 -0.2812
  152MOL0     C20421   5.658   5.810   4.991 -0.2215  0.0737 -0.3006
  152MOL0     C20422   5.603   5.778   4.850  0.0615 -0.0461 -0.1096
  152MOL0     C20423   5.644   5.631   4.811 -0.3554  0.0979 -0.3862
  152MOL0     C20424   5.783   5.628   4.753 -0.0495  0.4845 -0.5425
  152MOL0     C20425   5.850   5.488   4.750 -0.4062  0.5171  0.0819
  152MOL0     C20426   5.771   5.389   4.670 -0.6086  0.2555 -0.1396
  152MOL0     C20427   5.868   5.282   4.599 -0.1103 -0.6359 -0.8319
  152MOL0     C20428   5.916   5.183   4.705  0.3097 -0.6313  0.0271
  152MOL0    Cl20429   5.782   5.091   4.794  0.2027 -0.2565 -0.0089
  152MOL0     C20430   5.701   6.120   5.188  0.3263 -0.3796 -0.7954
  152MOL0     C20431   5.738   6.160   5.312  1.2232 -1.0388  0.4116
  152MOL0     O20432   5.938   6.309   5.437 -0.4208  0.1290 -0.1600
  152MOL0     C20433   5.854   6.281   5.782 -0.6740  0.1252 -1.1177
  152MOL0     C20434   5.883   6.342   5.905 -0.5575  0.2440 -0.0709
  152MOL0     N20435   5.560   6.895   6.289  1.2650 -0.6078 -0.2268
  152MOL0     N20436   5.493   6.879   6.403  1.0356  0.2285 -0.2555
  152MOL0     C20437   6.150   7.128   7.451 -0.8685  0.8079 -0.2675
  152MOL0     C20438   6.205   7.219   7.536 -0.7382 -0.1114  0.2837
  152MOL0     C20439   6.391   7.617   7.686  0.4457  0.4059  0.7599
  152MOL0     C20440   6.444   7.740   7.650 -0.5470 -0.1948 -0.4296
  152MOL0     C20441   6.496   7.818   7.754  0.0882 -0.1825 -0.7315
  152MOL0     C20442   6.494   7.780   7.888  0.0366  0.9957  0.3620
  152MOL0     O20443   6.528   7.871   7.987 -0.5754 -0.5294  0.0586
  152MOL0     C20444   6.665   7.903   8.004 -0.0068  0.3405  0.1503
  152MOL0     C20445   6.696   8.008   8.112  0.5601  0.4899  0.3306
  152MOL0     C20446   6.632   8.148   8.080 -0.1241  0.1741 -0.4228
  152MOL0     C20447   6.691   8.211   7.952  0.4156  0.8863  0.6649
  152MOL0     C20448   6.763   8.338   7.967 -0.6110 -1.0298  0.8272
  152MOL0     C20449   6.827   8.437   7.962 -0.4988 -0.1500 -0.2928
  152MOL0     C20450   6.457   7.652   7.918  0.2739  0.2871  0.1293
  152MOL0     C20451   6.405   7.564   7.822  1.1117 -0.0375  0.0687
  152MOL0     C20452   6.343   7.432   7.875 -0.0362  0.0813  0.0646
  152MOL0     H20453   6.063   7.507   7.402  1.9166  0.1342 -2.5168
  152MOL0     H20454   5.974   7.346   7.253 -0.7047  0.2377  0.8709
  152MOL0     H20455   6.192   7.006   7.212 -0.3890  2.9968  2.0093
  152MOL0     H20456   6.085   6.899   7.300  0.2184 -2.4622 -2.0308
  152MOL0     H20457   5.944   6.889   7.094 -0.1268  0.7546 -1.5880
  152MOL0     H20458   6.109   6.852   7.047  1.4620  1.5488 -0.6068
  152MOL0     H20459   6.128   7.077   6.959  0.5865 -1.3298  4.4075
  152MOL0     H20460   5.961   7.108   6.994  2.3510  1.3756  0.4896
  152MOL0     H20461   5.979   7.037   6.777 -4.1126  3.0447  1.9136
  152MOL0     H20462   6.042   6.871   6.822  1.0786 -0.0918 -0.8742
  152MOL0     H20463   5.818   6.830   6.924 -1.8496  0.4677  0.7278
  152MOL0     H20464   5.780   7.005   6.877  3.3570  1.1832  0.8208
  152MOL0     H20465   5.793   6.959   6.652 -2.6739  0.2205 -0.5828
  152MOL0     H20466   5.819   6.781   6.676 -1.3267  0.4232 -2.1361
  152MOL0     H20467   5.569   6.964   6.705  0.5951  1.1883  2.9968
  152MOL0     H20468   5.605   6.830   6.825 -0.6079 -0.1413 -0.7755
  152MOL0     H20469   5.621   6.679   6.630  1.4396  1.1342 -0.2256
  152MOL0     H20470   5.453   6.744   6.639 -0.6481  0.3744 -3.1530
  152MOL0     H20471   5.798   6.744   6.461 -1.2679 -0.3839  1.7251
  152MOL0     H20472   5.763   6.890   6.116  3.2785 -1.5315 -2.9108
  152MOL0     H20473   5.879   6.923   6.248  1.9114 -1.6310 -0.7937
  152MOL0     H20474   5.934   6.691   6.276  1.5334 -2.7447 -1.6572
  152MOL0     H20475   5.811   6.652   6.156  3.0525 -2.2060 -3.0346
  152MOL0     H20476   6.045   6.827   6.075 -0.1843  0.0078  2.0393
  152MOL0     H20477   5.938   6.728   5.979  4.5045  2.2997 -2.5084
  152MOL0     H20478   6.104   6.604   6.187  0.0730 -3.2973  0.1732
  152MOL0     H20479   6.176   6.632   6.030  0.9648  1.2501  2.9948
  152MOL0     H20480   6.136   6.538   5.804 -0.0542  1.3619  1.2804
  152MOL0     H20481   6.069   6.443   5.592 -0.0503  0.2199 -0.0067
  152MOL0     H20482   5.849   5.874   5.454 -1.8298  0.3300  1.7913
  152MOL0     H20483   5.781   5.793   5.236  0.7142  0.2282 -3.6858
  152MOL0     H20484   5.757   5.765   4.996 -1.5131 -2.9385  1.0813
  152MOL0     H20485   5.605   5.755   5.070  1.5112 -3.1308 -1.1882
  152MOL0     H20486   5.495   5.789   4.838  0.0052 -1.0666 -0.5424
  152MOL0     H20487   5.632   5.854   4.777 -1.2341  0.4554 -0.1185
  152MOL0     H20488   5.642   5.566   4.898  0.9122 -2.1489 -1.9271
  152MOL0     H20489   5.571   5.588   4.741  0.7009 -2.1531 -0.1792
  152MOL0     H20490   5.851   5.696   4.806  0.3036  2.8243 -3.7139
  152MOL0     H20491   5.786   5.679   4.656  2.4273  2.8415  0.6097
  152MOL0     H20492   5.857   5.448   4.851 -0.2980  1.3008  0.3929
  152MOL0     H20493   5.950   5.509   4.711 -0.6902  3.5893  0.7833
  152MOL0     H20494   5.690   5.342   4.727 -0.2215  0.9770  1.0281
  152MOL0     H20495   5.719   5.448   4.595  0.2256 -0.2274 -1.1270
  152MOL0     H20496   5.946   5.327   4.536 -1.2521 -0.3179 -2.0780
  152MOL0     H20497   5.802   5.221   4.535 -2.2614 -1.7423  2.2188
  152MOL0     H20498   5.977   5.108   4.654 -1.2475  0.7054 -4.2136
  152MOL0     H20499   5.977   5.212   4.791 -2.1574  0.5618  1.4808
  152MOL0     H20500   5.668   6.193   5.116  0.1620  1.3180  0.9083
  152MOL0     H20501   5.720   6.265   5.332  2.1075 -0.7110 -0.4758
  152MOL0     H20502   5.777   6.205   5.778  0.4041 -1.0027 -0.8761
  152MOL0     H20503   5.831   6.317   5.997 -2.2255  0.9737 -0.7682
  152MOL0     H20504   6.166   7.021   7.465  2.0055  1.1391 -0.4249
  152MOL0     H20505   6.269   7.185   7.616  3.8928  0.6110 -2.7331
  152MOL0     H20506   6.443   7.790   7.554  0.9843  2.9119  0.9995
  152MOL0     H20507   6.541   7.906   7.708  0.6252 -0.2814 -0.3964
  152MOL0     H20508   6.716   7.934   7.913  3.5579 -0.4653  1.6794
  152MOL0     H20509   6.714   7.809   8.033  4.6905  2.7380  0.8348
  152MOL0     H20510   6.804   8.022   8.118  0.3080  2.2024  1.8652
  152MOL0     H20511   6.657   7.965   8.205 -0.3999 -2.2293 -1.2213
  152MOL0     H20512   6.638   8.221   8.161 -0.7185  3.5674 -3.2317
  152MOL0     H20513   6.526   8.130   8.060 -0.4509  0.7722  0.6893
  152MOL0     H20514   6.773   8.143   7.926  3.0462  3.1170  2.5254
  152MOL0     H20515   6.618   8.215   7.870  2.4572  0.7407 -1.2600
  152MOL0     H20516   6.895   8.518   7.943 -1.1739  0.6812  0.7300
  152MOL0     H20517   6.466   7.617   8.020 -1.9699  0.8082  0.5472
  152MOL0     H20518   6.375   7.418   7.978  2.1791  1.5648 -0.3317
  152MOL0     H20519   6.234   7.435   7.871 -0.3688 -2.0564  3.6500
  152MOL0     H20520   6.390   7.349   7.822  0.7352  0.8420 -0.4736
  153MOL0     O20521  11.471   9.188  10.120 -0.1126 -0.3913  0.1367
  153MOL0     C20522  11.571   9.246  10.118 -0.0763 -0.0227  0.5655
  153MOL0     O20523  11.622   9.314  10.215  0.5071  0.6060 -0.1547
  153MOL0     C20524  11.564   9.293  10.340 -0.1579  0.5301  0.0830
  153MOL0     C20525  11.444   9.360  10.378  0.6300 -0.4556 -1.4364
  153MOL0     C20526  11.399   9.329  10.514  0.6917  0.0918 -0.6178
  153MOL0     C20527  11.464   9.244  10.602  0.3671 -0.7442 -0.1907
  153MOL0     O20528  11.421   9.230  10.728  0.4103  0.7019 -0.5227
  153MOL0     C20529  11.287   9.184  10.750  0.0492 -0.2960  0.3955
  153MOL0     C20530  11.270   9.040  10.794 -0.8055  0.0758 -0.2589
  153MOL0     C20531  11.312   8.941  10.685  0.1824  0.2853  0.1148
  153MOL0     C20532  11.196   8.888  10.603  1.1303 -0.3822 -0.2394
  153MOL0     C20533  11.244   8.821  10.473 -0.0986  0.5231 -0.9072
  153MOL0     C20534  11.131   8.815  10.377  0.3324 -0.0373 -0.0740
  153MOL0     C20535  11.168   8.713  10.268  0.9305 -0.5427 -0.4997
  153MOL0     C20536  11.051   8.673  10.176  0.7694 -0.0479  0.0407
  153MOL0     N20537  10.970   8.562  10.231 -0.0834  0.4810  0.4662
  153MOL0     C20538  11.007   8.434  10.249 -0.2990  1.4212  0.4548
  153MOL0     C20539  10.902   8.371  10.313  0.5397 -1.3141  0.0362
  153MOL0     C20540  10.893   8.224  10.354  0.7327  0.1474 -0.2771
  153MOL0     C20541  10.781   8.157  10.275  0.5062  0.8408 -0.1563
  153MOL0     C20542  10.775   8.008  10.299 -0.2512 -0.0621  0.0525
  153MOL0     C20543  10.703   7.979  10.427 -1.3792  0.8413 -0.3358
  153MOL0     O20544  10.565   7.959  10.396 -0.5986  0.0280  0.1010
  153MOL0     C20545  10.479   8.018  10.486  0.3398 -0.3994 -1.2359
  153MOL0     C20546  10.410   8.136  10.442 -0.2710 -0.4001 -0.9278
  153MOL0     C20547  10.352   8.226  10.529  0.4860 -0.0316  0.8017
  153MOL0     C20548  10.358   8.207  10.663  0.5860 -0.2851  0.4340
  153MOL0     C20549  10.294   8.308  10.751 -0.6039  0.7291 -0.5303
  153MOL0     O20550  10.235   8.417  10.712 -0.0154  0.0026 -0.1106
  153MOL0     C20551  10.161   8.486  10.802  0.3526 -1.2393  0.5614
  153MOL0     C20552  10.024   8.488  10.792 -0.4664  0.6261 -0.2335
  153MOL0     C20553   9.949   8.536  10.900 -1.1138 -0.7945 -0.6080
  153MOL0     C20554  10.013   8.592  11.011  0.5356  0.4446 -0.1100
  153MOL0     O20555   9.943   8.639  11.115  0.0454 -0.1439  0.2030
  153MOL0     C20556   9.920   8.782  11.117 -0.0631  0.5030 -0.5074
  153MOL0     C20557   9.800   8.813  11.207 -0.5087  0.9537  0.4071
  153MOL0     C20558   9.668   8.757  11.146 -0.4487 -0.0126 -0.1367
  153MOL0     C20559   9.562   8.766  11.253 -0.3534 -0.7114  0.1930
  153MOL0     C20560   9.437   8.819  11.200  0.0798  0.0444  0.0317
  153MOL0     C20561   9.325   8.809  11.295  0.1339 -0.3898 -0.1076
  153MOL0     C20562   9.322   8.927  11.390 -0.5600  0.5271  0.4870
  153MOL0     C20563   9.223   8.911  11.492  0.9931  0.3068  0.1021
  153MOL0    Cl20564   9.273   8.772  11.593 -0.2899 -0.0003 -0.0018
  153MOL0     C20565  10.141   8.607  11.002  0.0701 -0.5774 -0.0709
  153MOL0     C20566  10.224   8.559  10.902 -0.7899  0.4499 -0.1204
  153MOL0     O20567  10.292   8.269  10.868  0.1681  1.0824 -0.3549
  153MOL0     C20568  10.416   8.088  10.713 -0.1770  0.8234  0.1176
  153MOL0     C20569  10.483   7.996  10.622  0.0048  0.2034  0.5200
  153MOL0     N20570  10.817   8.478  10.345 -0.3133 -0.3829 -0.4418
  153MOL0     N20571  10.854   8.586  10.284  0.8103  0.8165  0.1307
  153MOL0     C20572  11.581   9.189  10.564 -0.4086  0.1632 -0.8801
  153MOL0     C20573  11.629   9.214  10.433  0.8511  0.9948 -0.6041
  153MOL0     C20574  11.642   9.240   9.990  0.1649 -1.2412  0.5719
  153MOL0     C20575  11.652   9.124   9.910 -0.2056  0.1719 -0.3383
  153MOL0     C20576  11.725   9.131   9.793 -0.4778  0.5231  0.3943
  153MOL0     C20577  11.786   9.250   9.740  0.6200  1.3890  0.5819
  153MOL0     O20578  11.837   9.237   9.611 -0.0127  0.5089  0.1863
  153MOL0     C20579  11.952   9.314   9.572 -0.3082  0.3028 -0.0930
  153MOL0     C20580  11.926   9.400   9.443  0.2565  0.7384 -1.0683
  153MOL0     C20581  12.055   9.477   9.404 -0.9273  0.4458  0.3132
  153MOL0     C20582  12.031   9.610   9.320 -0.4038 -0.0924  0.0291
  153MOL0     C20583  12.146   9.700   9.307  0.0805  0.5770  0.8028
  153MOL0     C20584  12.240   9.776   9.273  0.0922  0.6189 -0.6974
  153MOL0     C20585  11.770   9.366   9.815 -0.2015  0.7301 -0.8100
  153MOL0     C20586  11.694   9.357   9.936 -0.4868 -0.2807 -0.6277
  153MOL0     C20587  11.667   9.495   9.997 -0.0529  0.4545 -0.1978
  153MOL0     H20588  11.393   9.425  10.308  1.5213 -0.5898 -2.2374
  153MOL0     H20589  11.300   9.363  10.544  0.6420  0.2845 -0.9912
  153MOL0     H20590  11.241   9.247  10.827 -1.3609  0.8005 -1.2762
  153MOL0     H20591  11.225   9.191  10.660  1.7608  0.6041 -0.7731
  153MOL0     H20592  11.161   9.029  10.798 -0.9363  1.4391  0.8375
  153MOL0     H20593  11.320   9.032  10.891 -0.0200  1.0436 -0.5730
  153MOL0     H20594  11.376   8.858  10.717 -2.1338 -1.9237 -0.5847
  153MOL0     H20595  11.371   9.001  10.615 -0.8629 -3.0451 -4.0117
  153MOL0     H20596  11.148   8.811  10.665  1.9587 -1.8017 -1.2950
  153MOL0     H20597  11.135   8.973  10.571 -1.9507 -2.1437  0.4964
  153MOL0     H20598  11.329   8.879  10.436  0.8336  0.2471  0.6844
  153MOL0     H20599  11.284   8.720  10.489  1.3941  0.8420 -2.4028
  153MOL0     H20600  11.041   8.777  10.426 -1.3489  0.4848 -2.5283
  153MOL0     H20601  11.095   8.910  10.338  2.0614  0.6276 -0.1209
  153MOL0     H20602  11.193   8.613  10.304 -3.7231 -1.1406  1.9296
  153MOL0     H20603  11.242   8.756  10.200  1.3048 -0.9174 -0.3281
  153MOL0     H20604  10.982   8.755  10.153  1.0932 -0.3668 -2.4020
  153MOL0     H20605  11.090   8.658  10.075 -0.1224  1.2665 -0.5320
  153MOL0     H20606  11.102   8.384  10.230 -3.1630 -4.4376 -0.6553
  153MOL0     H20607  10.989   8.175  10.340 -0.0058 -2.3668  2.3850
  153MOL0     H20608  10.867   8.213  10.460  3.3618 -2.5028  0.2304
  153MOL0     H20609  10.691   8.209  10.309  1.5420  2.0785  0.8124
  153MOL0     H20610  10.794   8.178  10.168 -2.2315  1.0297 -0.5163
  153MOL0     H20611  10.880   7.982  10.315  0.1950  0.2680 -2.0237
  153MOL0     H20612  10.729   7.955  10.215 -1.3775  0.0319  0.5923
  153MOL0     H20613  10.714   8.057  10.504  1.5561  1.7009 -1.4969
  153MOL0     H20614  10.750   7.887  10.463 -0.2637  1.7489  0.6150
  153MOL0     H20615  10.407   8.154  10.335 -0.9224  1.2294 -0.6551
  153MOL0     H20616  10.293   8.305  10.482 -0.8072 -2.2109 -1.5272
  153MOL0     H20617   9.982   8.437  10.706 -2.8083  2.7613 -0.4717
  153MOL0     H20618   9.842   8.520  10.904 -0.7475 -3.5910  1.1578
  153MOL0     H20619  10.003   8.841  11.156 -1.4798  3.1564 -1.3095
  153MOL0     H20620   9.890   8.811  11.016  1.2254 -0.9149 -1.3373
  153MOL0     H20621   9.816   8.767  11.305 -0.5230  2.1356  0.9917
  153MOL0     H20622   9.797   8.922  11.216 -0.2199  0.9852  0.1560
  153MOL0     H20623   9.647   8.800  11.048  2.7691  0.2490 -0.8455
  153MOL0     H20624   9.685   8.652  11.122  0.1678  0.2116 -0.7463
  153MOL0     H20625   9.592   8.834  11.334  0.3797  0.2000 -0.8186
  153MOL0     H20626   9.561   8.665  11.295  2.7772 -3.4052 -5.2166
  153MOL0     H20627   9.413   8.762  11.109 -1.2314  0.9278 -0.2045
  153MOL0     H20628   9.444   8.923  11.168 -0.4569  0.2145  0.4507
  153MOL0     H20629   9.237   8.817  11.231 -0.0022  2.5287  0.3142
  153MOL0     H20630   9.331   8.715  11.352  0.0521  0.1531  0.8140
  153MOL0     H20631   9.289   9.015  11.334 -1.4297 -1.0028 -1.5273
  153MOL0     H20632   9.420   8.939  11.436  0.6809 -0.3871 -1.7156
  153MOL0     H20633   9.217   8.999  11.556  2.2718 -0.9038  2.0277
  153MOL0     H20634   9.123   8.879  11.461  0.4925 -0.8647  2.5979
  153MOL0     H20635  10.190   8.664  11.080  2.7417 -0.0052 -2.0330
  153MOL0     H20636  10.332   8.567  10.890 -0.5868 -0.3514  0.9699
  153MOL0     H20637  10.420   8.064  10.819 -2.5228 -1.9763 -0.3050
  153MOL0     H20638  10.540   7.908  10.650  2.0214  0.7360 -1.5825
  153MOL0     H20639  11.621   9.127  10.643 -2.5067 -1.0016 -0.6774
  153MOL0     H20640  11.716   9.159  10.399 -0.0376 -1.3605  0.7440
  153MOL0     H20641  11.597   9.040   9.950  0.6353 -0.8457 -1.2269
  153MOL0     H20642  11.746   9.044   9.733 -1.5942 -0.3058  1.1496
  153MOL0     H20643  12.037   9.247   9.552  1.2316  2.0858  0.2008
  153MOL0     H20644  11.993   9.368   9.658  3.3531 -0.4498 -1.1855
  153MOL0     H20645  11.840   9.466   9.463  0.4833  0.9903 -0.9058
  153MOL0     H20646  11.895   9.340   9.357  2.6896  2.1186 -3.0374
  153MOL0     H20647  12.110   9.427   9.323  1.5824  2.9567  0.3411
  153MOL0     H20648  12.128   9.495   9.483  1.7483  2.7947 -2.4261
  153MOL0     H20649  12.009   9.584   9.217  1.1061  0.1598 -0.3827
  153MOL0     H20650  11.946   9.665   9.362  0.8921 -0.0240  2.7567
  153MOL0     H20651  12.308   9.858   9.269 -0.2251  0.8519 -3.6103
  153MOL0     H20652  11.803   9.462   9.776 -0.7524  0.0862 -3.0146
  153MOL0     H20653  11.736   9.508  10.080 -0.3589  0.3994  0.0661
  153MOL0     H20654  11.681   9.572   9.920  3.4012 -0.6340 -0.8415
  153MOL0     H20655  11.570   9.507  10.045  1.3927 -0.8875  3.3921
  154MOL0     O20656  10.418   3.506   4.023 -0.2385 -0.1559  0.4360
  154MOL0     C20657  10.490   3.435   3.956  0.2003  1.2564 -0.2724
  154MOL0     O20658  10.552   3.470   3.841  0.4399  0.4301  0.2457
  154MOL0     C20659  10.558   3.597   3.799  0.0928 -0.3039 -0.9959
  154MOL0     C20660  10.591   3.625   3.664  0.2200 -0.0066  0.2409
  154MOL0     C20661  10.631   3.749   3.608  0.6378 -0.4792 -0.6279
  154MOL0     C20662  10.630   3.861   3.690 -0.5388  0.1379 -0.4401
  154MOL0     O20663  10.675   3.977   3.635 -0.3950  0.2130  0.4105
  154MOL0     C20664  10.722   4.081   3.728 -0.1610  0.9809  0.6672
  154MOL0     C20665  10.638   4.208   3.709  0.3595 -0.5147 -0.0091
  154MOL0     C20666  10.491   4.217   3.782 -0.0337  0.5836  0.5503
  154MOL0     C20667  10.387   4.132   3.711 -1.1434 -0.4993 -0.5141
  154MOL0     C20668  10.254   4.193   3.721  0.2192 -0.3486  0.4883
  154MOL0     C20669  10.149   4.115   3.642 -0.2356  0.5661 -0.0486
  154MOL0     C20670  10.014   4.171   3.633 -0.0188  0.3073 -1.3630
  154MOL0     C20671  10.017   4.280   3.530  0.3953 -0.1860  0.2988
  154MOL0     N20672   9.887   4.336   3.486 -0.1180 -0.5695 -0.3500
  154MOL0     C20673   9.866   4.429   3.391  0.3166 -0.5049  0.1487
  154MOL0     C20674   9.735   4.458   3.400  0.2281  0.1075 -0.7278
  154MOL0     C20675   9.672   4.567   3.328 -0.3249  0.1424  0.4025
  154MOL0     C20676   9.528   4.548   3.282  0.3924  0.7336 -0.1718
  154MOL0     C20677   9.476   4.659   3.182 -0.2495  0.0596  0.2095
  154MOL0     C20678   9.361   4.602   3.096  0.3293  0.4688 -0.3607
  154MOL0     O20679   9.394   4.628   2.959  0.8322 -0.3268 -0.0685
  154MOL0     C20680   9.301   4.578   2.866  0.3356  0.1604  0.9127
  154MOL0     C20681   9.202   4.489   2.897  0.1139 -0.0476  0.3796
  154MOL0     C20682   9.135   4.419   2.806  0.0307 -0.0176 -0.1058
  154MOL0     C20683   9.148   4.436   2.668  0.0265 -0.2802 -0.2821
  154MOL0     C20684   9.068   4.367   2.568 -0.4381 -0.1152  0.7180
  154MOL0     O20685   9.100   4.388   2.443  0.1445  0.1795 -0.2212
  154MOL0     C20686   9.014   4.347   2.343  0.0780 -0.4030 -0.3139
  154MOL0     C20687   9.067   4.356   2.213 -0.6302  0.3654  0.9137
  154MOL0     C20688   9.002   4.300   2.100  0.6169  0.4258 -0.2796
  154MOL0     C20689   8.869   4.257   2.113 -0.3411 -0.7999 -0.6680
  154MOL0     O20690   8.793   4.224   2.011  0.5978 -0.0684  0.2598
  154MOL0     C20691   8.842   4.238   1.878  0.1643  0.1558 -0.1219
  154MOL0     C20692   8.730   4.196   1.773  0.0226  0.1657  0.0936
  154MOL0     C20693   8.728   4.044   1.752  0.6709  0.4492 -0.2803
  154MOL0     C20694   8.635   3.956   1.840  0.0089 -0.1080 -0.8765
  154MOL0     C20695   8.490   3.973   1.801 -0.3570 -0.3044 -0.9390
  154MOL0     C20696   8.451   3.961   1.660 -0.0979  1.0312  0.5965
  154MOL0     C20697   8.305   3.956   1.641  0.3328  0.7254 -0.6333
  154MOL0     C20698   8.223   4.082   1.661  0.0179  0.0112  0.1273
  154MOL0    Cl20699   8.253   4.190   1.514 -0.0153 -0.0114 -0.1565
  154MOL0     C20700   8.809   4.261   2.241 -0.5989 -0.1578 -0.3235
  154MOL0     C20701   8.881   4.311   2.358 -0.0500  1.4609 -0.1845
  154MOL0     O20702   8.997   4.273   2.614 -0.0032 -0.3151 -0.6439
  154MOL0     C20703   9.249   4.539   2.630 -0.0182  1.1862 -0.1059
  154MOL0     C20704   9.316   4.606   2.728 -1.3121 -0.1079 -0.2513
  154MOL0     N20705   9.675   4.373   3.500  0.0313  0.5029  0.9535
  154MOL0     N20706   9.769   4.301   3.547 -0.2024 -0.1733  0.7064
  154MOL0     C20707  10.588   3.836   3.821 -0.0126  0.0841  0.2575
  154MOL0     C20708  10.558   3.713   3.879 -0.6082 -0.3127 -0.8793
  154MOL0     C20709  10.509   3.292   4.009 -0.0457 -0.4396  0.1029
  154MOL0     C20710  10.575   3.193   3.930  0.2926 -0.8493  0.4501
  154MOL0     C20711  10.623   3.074   3.971  0.7984  0.0071 -0.6955
  154MOL0     C20712  10.595   3.030   4.102  0.4177  0.8019 -0.6687
  154MOL0     O20713  10.632   2.901   4.127 -0.1775 -0.1837  0.6592
  154MOL0     C20714  10.693   2.869   4.252  0.4693 -0.2382 -0.4368
  154MOL0     C20715  10.699   2.716   4.257  0.0680 -0.7835  0.1460
  154MOL0     C20716  10.831   2.662   4.189 -0.8665  0.9114 -0.1193
  154MOL0     C20717  10.849   2.700   4.047  0.1683 -0.4562  0.1447
  154MOL0     C20718  10.747   2.645   3.952  0.3482 -0.6206 -0.3481
  154MOL0     C20719  10.660   2.606   3.876  0.1199  0.1947  1.0051
  154MOL0     C20720  10.530   3.116   4.186 -0.0813 -0.4570 -0.6038
  154MOL0     C20721  10.483   3.240   4.142  0.1950  0.3760  0.3977
  154MOL0     C20722  10.412   3.320   4.245 -1.0574 -0.5757 -0.1067
  154MOL0     H20723  10.594   3.543   3.593 -2.2582 -1.3479  1.5553
  154MOL0     H20724  10.656   3.768   3.504  2.5463  1.7688  0.1335
  154MOL0     H20725  10.714   4.035   3.827 -0.7573 -2.3279 -0.7636
  154MOL0     H20726  10.824   4.109   3.700 -0.0323  1.6716  1.7944
  154MOL0     H20727  10.630   4.233   3.603  1.9743 -0.1351 -0.0658
  154MOL0     H20728  10.703   4.285   3.751  0.3603  0.6157 -1.9785
  154MOL0     H20729  10.451   4.318   3.786 -0.8124  0.3677 -1.0063
  154MOL0     H20730  10.503   4.189   3.888  3.3733  1.0874  0.3931
  154MOL0     H20731  10.411   4.130   3.605  0.1644  0.1217 -0.2440
  154MOL0     H20732  10.378   4.030   3.750  0.3846 -0.0187  1.2400
  154MOL0     H20733  10.227   4.204   3.826 -1.4234  0.8548 -0.0089
  154MOL0     H20734  10.249   4.294   3.679  2.9178 -0.6700 -0.8264
  154MOL0     H20735  10.188   4.095   3.541 -1.0468  1.2777 -0.5192
  154MOL0     H20736  10.134   4.015   3.682 -1.0525  0.5001 -0.5039
  154MOL0     H20737   9.962   4.187   3.728 -1.0438 -2.2021 -1.4104
  154MOL0     H20738   9.946   4.095   3.593 -2.2181  0.2961  2.0204
  154MOL0     H20739  10.081   4.365   3.552 -0.0347 -0.3515  2.3816
  154MOL0     H20740  10.063   4.237   3.440 -2.1920 -1.6879 -0.4395
  154MOL0     H20741   9.952   4.458   3.331  0.6687  0.4890  1.1110
  154MOL0     H20742   9.683   4.659   3.385 -1.4039 -1.1870  2.9046
  154MOL0     H20743   9.732   4.565   3.236  1.6459  0.0876  1.6358
  154MOL0     H20744   9.537   4.461   3.217 -3.0361 -0.2277  0.4657
  154MOL0     H20745   9.458   4.528   3.363  1.6197 -3.6980  0.0741
  154MOL0     H20746   9.564   4.683   3.121 -0.9223 -1.7090 -1.5738
  154MOL0     H20747   9.448   4.743   3.245  0.1283 -0.0217  0.4838
  154MOL0     H20748   9.266   4.653   3.112 -0.0414  0.3978 -2.1320
  154MOL0     H20749   9.352   4.495   3.119  0.7630  0.1576 -1.5542
  154MOL0     H20750   9.175   4.478   3.002  0.6635  1.0229  0.6545
  154MOL0     H20751   9.072   4.340   2.845 -1.3708  3.0312  4.6504
  154MOL0     H20752   9.165   4.400   2.203 -0.7470  0.3804 -0.2731
  154MOL0     H20753   9.070   4.289   2.016 -0.6055 -1.4063 -1.0989
  154MOL0     H20754   8.864   4.343   1.855  0.2477  0.0491 -0.5363
  154MOL0     H20755   8.933   4.179   1.863  0.5444  0.5612  0.5386
  154MOL0     H20756   8.633   4.239   1.801  0.2232  0.7487 -0.0924
  154MOL0     H20757   8.770   4.239   1.681 -0.8033  2.7544  0.8395
  154MOL0     H20758   8.713   4.020   1.647 -0.8937  1.0368 -0.2193
  154MOL0     H20759   8.832   4.018   1.770  0.5542  0.7305  0.8916
  154MOL0     H20760   8.656   3.966   1.946 -0.3196  0.5841 -0.8704
  154MOL0     H20761   8.663   3.852   1.818  4.1387 -0.2598  3.5156
  154MOL0     H20762   8.446   4.065   1.841  1.3667 -0.5319  1.7473
  154MOL0     H20763   8.443   3.893   1.859  1.9505 -0.8352  0.2767
  154MOL0     H20764   8.486   4.042   1.596  1.3329 -0.4883 -0.6301
  154MOL0     H20765   8.508   3.881   1.611  1.5414  2.0563  0.7357
  154MOL0     H20766   8.263   3.885   1.714  2.0244  0.6634  0.3301
  154MOL0     H20767   8.280   3.913   1.544 -3.0300  1.2272 -0.1298
  154MOL0     H20768   8.119   4.054   1.679  0.0501 -0.2599 -0.0961
  154MOL0     H20769   8.253   4.130   1.754 -0.5176  1.3157 -0.3520
  154MOL0     H20770   8.702   4.246   2.250 -0.9231  2.4873  1.5906
  154MOL0     H20771   8.809   4.321   2.439 -1.9003  0.0813 -1.5853
  154MOL0     H20772   9.265   4.557   2.524  0.8982 -2.2823 -0.6989
  154MOL0     H20773   9.390   4.677   2.693 -1.6596 -0.4839 -1.7990
  154MOL0     H20774  10.579   3.925   3.883  0.1635  0.8165 -0.7396
  154MOL0     H20775  10.535   3.718   3.985 -1.8396  2.5134 -1.1813
  154MOL0     H20776  10.600   3.226   3.830 -1.3733 -0.8118  0.0236
  154MOL0     H20777  10.652   3.002   3.895  0.5592 -0.0937 -0.6915
  154MOL0     H20778  10.627   2.917   4.325  1.0101  1.9820 -1.3220
  154MOL0     H20779  10.788   2.923   4.253 -0.7931  2.1450 -1.2469
  154MOL0     H20780  10.610   2.664   4.222  1.1498 -1.1752 -2.2122
  154MOL0     H20781  10.702   2.700   4.365  2.0880 -1.3573  0.0422
  154MOL0     H20782  10.829   2.552   4.189  0.9781  0.8464 -0.0560
  154MOL0     H20783  10.915   2.699   4.249 -0.9984 -1.8014  1.9684
  154MOL0     H20784  10.860   2.808   4.032  0.4612 -0.1739  2.1194
  154MOL0     H20785  10.939   2.645   4.020  0.8718 -0.1583  1.7750
  154MOL0     H20786  10.582   2.575   3.810  1.1165 -4.5269  1.7001
  154MOL0     H20787  10.526   3.079   4.288  2.9775  1.8977  0.5253
  154MOL0     H20788  10.462   3.416   4.261  0.9873 -1.4159 -1.1264
  154MOL0     H20789  10.315   3.355   4.208  0.0804  3.0500 -0.0363
  154MOL0     H20790  10.385   3.275   4.341 -3.7064  0.2163 -0.3909
  155MOL0     O20791  11.340  10.189   4.987 -0.2871  0.0062 -0.0451
  155MOL0     C20792  11.395  10.079   4.972 -0.2969 -0.1894  0.6599
  155MOL0     O20793  11.329   9.969   4.941 -0.0068 -0.4886 -0.4144
  155MOL0     C20794  11.193   9.969   4.925  0.5189 -0.5289 -0.7806
  155MOL0     C20795  11.114   9.961   5.039 -0.2753  0.0878  0.2818
  155MOL0     C20796  10.985   9.919   5.042  0.8005  0.0014  0.6114
  155MOL0     C20797  10.921   9.897   4.921  0.5869  1.2094  0.0327
  155MOL0     O20798  10.794   9.843   4.911 -0.1871  0.1770  0.6008
  155MOL0     C20799  10.783   9.707   4.945  0.7454  0.3014  0.2039
  155MOL0     C20800  10.634   9.662   4.942 -0.4991  0.3316  0.4328
  155MOL0     C20801  10.606   9.517   4.989 -1.0524  0.6207  0.4165
  155MOL0     C20802  10.634   9.401   4.880 -0.0279 -0.4151 -0.2749
  155MOL0     C20803  10.600   9.257   4.925 -0.5150  0.3699  0.1859
  155MOL0     C20804  10.456   9.221   4.896  0.2462  0.4838 -0.1892
  155MOL0     C20805  10.419   9.089   4.977  0.7675  0.4623  0.6785
  155MOL0     C20806  10.406   9.103   5.134 -0.6269 -0.5536  0.7146
  155MOL0     N20807  10.298   9.196   5.174 -0.1972  0.6008  0.5881
  155MOL0     C20808  10.166   9.194   5.129 -0.7564 -0.7200  0.1483
  155MOL0     C20809  10.106   9.292   5.212  1.1891 -0.3144  0.2158
  155MOL0     C20810   9.957   9.328   5.219  0.9192  0.6878 -0.6159
  155MOL0     C20811   9.922   9.459   5.147  0.1856 -1.0714  0.2121
  155MOL0     C20812   9.966   9.442   4.994  0.1585 -0.0903 -0.1745
  155MOL0     C20813   9.910   9.315   4.913  0.3790  0.1396  0.5170
  155MOL0     O20814   9.968   9.296   4.773 -0.0499 -0.8382  0.0918
  155MOL0     C20815   9.994   9.172   4.724 -0.2789  0.2658  1.7565
  155MOL0     C20816  10.097   9.153   4.633  0.0711 -0.4734 -0.0201
  155MOL0     C20817  10.121   9.023   4.581 -1.9716  0.2849 -0.4492
  155MOL0     C20818  10.031   8.924   4.606 -0.7363  1.0219 -1.2862
  155MOL0     C20819  10.062   8.787   4.541  0.0522  0.3353 -0.3268
  155MOL0     O20820  10.180   8.770   4.474 -0.2276 -0.4943 -0.5112
  155MOL0     C20821  10.234   8.653   4.425 -0.8651 -0.7748 -0.4549
  155MOL0     C20822  10.194   8.529   4.470 -0.5354 -1.0060 -0.1943
  155MOL0     C20823  10.260   8.420   4.418 -1.1294 -0.5124  0.5231
  155MOL0     C20824  10.373   8.431   4.325  0.4148  0.0806 -0.5357
  155MOL0     O20825  10.421   8.307   4.285 -0.3513  0.3221  0.5833
  155MOL0     C20826  10.520   8.256   4.369 -0.9763  0.6212 -0.1740
  155MOL0     C20827  10.520   8.110   4.368  0.5809  0.2300  0.2697
  155MOL0     C20828  10.637   8.045   4.434  0.0880  0.4103  0.0758
  155MOL0     C20829  10.610   7.892   4.462  0.2055 -0.5480 -0.0623
  155MOL0     C20830  10.735   7.807   4.451 -0.9905 -0.1127 -0.0706
  155MOL0     C20831  10.728   7.666   4.504 -0.4443 -0.4212 -0.4952
  155MOL0     C20832  10.870   7.599   4.502 -0.6061 -0.6727  0.6399
  155MOL0     C20833  10.881   7.469   4.568  0.8235  0.0783 -0.2167
  155MOL0    Cl20834  10.770   7.351   4.496 -0.5403  0.0895  0.0996
  155MOL0     C20835  10.412   8.552   4.284 -1.4758 -0.2168 -0.5985
  155MOL0     C20836  10.344   8.668   4.329 -0.6207  0.4581 -0.5783
  155MOL0     O20837   9.971   8.702   4.538  0.0583  0.5326  0.3975
  155MOL0     C20838   9.926   8.943   4.699 -0.3167 -0.9781 -0.0383
  155MOL0     C20839   9.904   9.067   4.751 -0.7772  0.6278  0.2688
  155MOL0     N20840  10.200   9.356   5.284 -0.5978 -0.2422 -0.7678
  155MOL0     N20841  10.318   9.309   5.251 -0.1552 -0.2009 -0.1558
  155MOL0     C20842  10.992   9.911   4.807  0.4902 -0.0057  0.3373
  155MOL0     C20843  11.124   9.946   4.802  0.0657  0.2186  0.0034
  155MOL0     C20844  11.539  10.072   4.996 -1.1558 -0.1606 -0.3374
  155MOL0     C20845  11.606  10.205   5.003  1.1888 -0.1141  0.4890
  155MOL0     C20846  11.739  10.218   5.032  0.7783 -0.3996  0.8981
  155MOL0     C20847  11.824  10.102   5.051 -0.2270  0.6741  0.8570
  155MOL0     O20848  11.961  10.100   5.060 -0.1163  0.4015  0.5454
  155MOL0     C20849  12.046  10.215   5.040 -1.0257 -0.1489 -0.0986
  155MOL0     C20850  12.037  10.275   4.901 -0.4213  0.6271  0.9563
  155MOL0     C20851  12.102  10.175   4.797  0.9219  0.6388 -0.3003
  155MOL0     C20852  12.016  10.050   4.756 -0.5138  0.2722 -1.4379
  155MOL0     C20853  11.885  10.093   4.720 -0.1859 -0.8674 -0.8589
  155MOL0     C20854  11.771  10.116   4.706  0.9442  0.3946 -0.5289
  155MOL0     C20855  11.755   9.978   5.049  0.2306 -1.2160 -0.7248
  155MOL0     C20856  11.618   9.957   5.031  0.6476 -0.2120 -0.6571
  155MOL0     C20857  11.543   9.828   5.041 -0.0500 -0.1213  0.0712
  155MOL0     H20858  11.163   9.983   5.134  1.1345 -1.0905 -0.1377
  155MOL0     H20859  10.924   9.910   5.132 -1.5394  2.5824 -0.5264
  155MOL0     H20860  10.840   9.642   4.878  0.5681  3.3055 -3.1504
  155MOL0     H20861  10.823   9.691   5.046 -2.1878  1.5602  1.7059
  155MOL0     H20862  10.590   9.663   4.842 -0.0694 -0.2945  0.2371
  155MOL0     H20863  10.584   9.740   5.000  2.4279  1.9419  1.0039
  155MOL0     H20864  10.500   9.512   5.013 -1.6248 -1.6456 -2.0864
  155MOL0     H20865  10.669   9.500   5.077  3.3366  1.7377 -2.2023
  155MOL0     H20866  10.579   9.422   4.788 -0.8443  0.9967  0.4967
  155MOL0     H20867  10.740   9.409   4.853  0.5145 -3.2593  0.6360
  155MOL0     H20868  10.671   9.188   4.878  1.4422 -0.1679  3.5789
  155MOL0     H20869  10.631   9.250   5.029 -1.0120  1.1808  0.4003
  155MOL0     H20870  10.371   9.288   4.903  0.1284  0.5211 -1.6239
  155MOL0     H20871  10.452   9.200   4.789  1.8572  1.5428 -0.5016
  155MOL0     H20872  10.487   9.008   4.950 -1.9542 -1.2547 -1.4761
  155MOL0     H20873  10.323   9.050   4.943  1.0208  0.4517 -0.0208
  155MOL0     H20874  10.366   9.011   5.177 -3.5827  0.0906 -0.3934
  155MOL0     H20875  10.502   9.128   5.180  0.5467 -0.7248 -1.5005
  155MOL0     H20876  10.119   9.126   5.059  1.9968  0.1817 -2.8433
  155MOL0     H20877   9.899   9.247   5.174  1.0497  0.6620 -0.7410
  155MOL0     H20878   9.916   9.340   5.320  0.3781 -1.0156 -0.6051
  155MOL0     H20879   9.813   9.471   5.147 -0.1114 -3.0009 -2.2084
  155MOL0     H20880   9.952   9.555   5.190 -1.7790 -0.2621 -0.1064
  155MOL0     H20881  10.075   9.439   4.990  0.1139 -1.6652 -1.2597
  155MOL0     H20882   9.941   9.533   4.939  3.8984  1.3901  0.2982
  155MOL0     H20883   9.804   9.334   4.893  0.6427 -1.5963 -3.6841
  155MOL0     H20884   9.924   9.222   4.968  1.8872 -0.2109 -0.4007
  155MOL0     H20885  10.157   9.241   4.612 -1.5852  0.7259  0.0582
  155MOL0     H20886  10.200   8.998   4.511  0.1018 -0.1112  1.9105
  155MOL0     H20887  10.106   8.509   4.531  0.0669  0.2373  1.1485
  155MOL0     H20888  10.220   8.320   4.435 -4.1416  0.5483  0.1988
  155MOL0     H20889  10.620   8.287   4.338  0.4997 -3.7391 -0.4940
  155MOL0     H20890  10.505   8.287   4.473 -0.4646  5.8335 -1.3748
  155MOL0     H20891  10.426   8.070   4.407  0.5519  1.4739  1.5472
  155MOL0     H20892  10.515   8.086   4.261  1.5633  1.4974 -0.0806
  155MOL0     H20893  10.713   8.057   4.356  0.4991  1.9797  0.6663
  155MOL0     H20894  10.677   8.091   4.525  2.1382 -1.0264 -0.0358
  155MOL0     H20895  10.537   7.860   4.386 -2.3586  1.4472  1.4129
  155MOL0     H20896  10.560   7.869   4.556  0.2387  0.0457  0.1040
  155MOL0     H20897  10.802   7.847   4.527 -1.2129 -0.4037  0.2809
  155MOL0     H20898  10.769   7.822   4.348 -3.6057  2.3846 -0.6878
  155MOL0     H20899  10.690   7.663   4.607  0.2097  1.4347 -0.1572
  155MOL0     H20900  10.662   7.618   4.432 -0.8573  1.2855 -1.2897
  155MOL0     H20901  10.943   7.663   4.553  0.4555 -0.3433 -1.2010
  155MOL0     H20902  10.901   7.581   4.398  0.8853  1.4156  0.6492
  155MOL0     H20903  10.984   7.431   4.565  0.2152 -1.6723 -0.0705
  155MOL0     H20904  10.851   7.468   4.673 -0.9679 -0.8832 -0.6972
  155MOL0     H20905  10.495   8.563   4.215  0.2082 -0.0338  1.3491
  155MOL0     H20906  10.374   8.767   4.296 -0.3813  0.4022 -0.5319
  155MOL0     H20907   9.843   8.875   4.714 -3.8745  3.2428  1.7998
  155MOL0     H20908   9.812   9.101   4.799 -1.3218 -1.1530  0.5780
  155MOL0     H20909  10.940   9.892   4.714 -1.1863  3.9420  0.2521
  155MOL0     H20910  11.187   9.947   4.714 -0.8088  1.4236 -0.6341
  155MOL0     H20911  11.547  10.295   4.983  1.3197  0.0151  0.6759
  155MOL0     H20912  11.768  10.320   5.052 -1.5348  0.6152 -0.5279
  155MOL0     H20913  12.152  10.186   5.042 -0.2767  2.3667 -0.3898
  155MOL0     H20914  12.031  10.279   5.127  0.1757 -1.4994  1.1615
  155MOL0     H20915  12.090  10.371   4.894 -0.3912  0.5335 -0.2577
  155MOL0     H20916  11.931  10.293   4.882  0.2651  1.4270 -2.8733
  155MOL0     H20917  12.179  10.121   4.854 -1.4297 -0.6011  1.9474
  155MOL0     H20918  12.134  10.227   4.707  0.1234 -1.8134 -2.1119
  155MOL0     H20919  12.061   9.984   4.682 -0.0568 -0.6164 -0.3889
  155MOL0     H20920  11.993   9.971   4.828 -1.3468  0.1438 -1.8240
  155MOL0     H20921  11.667  10.131   4.683  0.5127 -0.5564  0.7144
  155MOL0     H20922  11.802   9.882   5.063 -3.0941 -2.6038  2.6610
  155MOL0     H20923  11.527   9.795   4.938 -0.1652  0.1117  0.0139
  155MOL0     H20924  11.594   9.744   5.090  1.7073 -2.0655 -4.4979
  155MOL0     H20925  11.443   9.843   5.084  0.3977  0.6155  0.8862
  156MOL0     O20926   6.394  10.734   2.719  0.4236 -0.1565  0.3123
  156MOL0     C20927   6.341  10.764   2.826  0.0166  0.5399  0.5400
  156MOL0     O20928   6.285  10.879   2.859  0.7547 -0.1162  0.5517
  156MOL0     C20929   6.310  10.998   2.784  0.3700  0.5609 -0.5644
  156MOL0     C20930   6.210  11.031   2.689 -0.3558 -0.2436  0.5338
  156MOL0     C20931   6.240  11.145   2.601  0.1539  0.2476 -0.1278
  156MOL0     C20932   6.341  11.235   2.627  0.0945  0.2314 -1.2924
  156MOL0     O20933   6.350  11.339   2.546  0.1603  0.2509  0.4524
  156MOL0     C20934   6.447  11.436   2.572 -0.1685 -0.3497 -1.5939
  156MOL0     C20935   6.424  11.515   2.711  0.1291  1.1942 -0.1745
  156MOL0     C20936   6.276  11.543   2.735 -0.2664 -0.3738  0.3267
  156MOL0     C20937   6.261  11.642   2.852 -0.2416  0.6570 -0.8556
  156MOL0     C20938   6.129  11.611   2.934 -0.6709 -0.4252  0.0890
  156MOL0     C20939   5.989  11.620   2.865  0.1429  0.9504 -0.0526
  156MOL0     C20940   5.880  11.582   2.957  0.5226 -0.3684 -0.9909
  156MOL0     C20941   5.758  11.571   2.883 -0.2993 -0.5020  1.0807
  156MOL0     N20942   5.633  11.546   2.973 -0.9436  0.1283 -0.2333
  156MOL0     C20943   5.521  11.462   2.938 -0.9157  0.0398 -0.2920
  156MOL0     C20944   5.443  11.473   3.047 -0.1327  0.8852  0.6925
  156MOL0     C20945   5.323  11.398   3.088 -1.1772 -0.0695 -0.2481
  156MOL0     C20946   5.196  11.488   3.081 -0.4138  0.5745  0.4255
  156MOL0     C20947   5.077  11.411   3.133 -0.6356  0.5753 -0.4384
  156MOL0     C20948   4.955  11.507   3.161 -0.1824 -1.0388 -0.5643
  156MOL0     O20949   4.859  11.425   3.221 -0.7204  0.1313 -0.2728
  156MOL0     C20950   4.747  11.481   3.283 -0.0295  0.5661  0.2360
  156MOL0     C20951   4.647  11.389   3.318 -0.0628 -0.5429 -0.4579
  156MOL0     C20952   4.539  11.433   3.391  0.0778  0.0513  0.1369
  156MOL0     C20953   4.517  11.575   3.418 -0.2421  0.9034  0.3630
  156MOL0     C20954   4.414  11.624   3.507  0.4347  0.8984 -0.0977
  156MOL0     O20955   4.308  11.537   3.541 -0.6198 -0.2115  0.5875
  156MOL0     C20956   4.239  11.578   3.653  0.0852 -0.6491 -0.3155
  156MOL0     C20957   4.153  11.684   3.651  0.9636 -0.6230  1.1414
  156MOL0     C20958   4.078  11.726   3.761  0.4147  0.1069  0.3188
  156MOL0     C20959   4.091  11.660   3.889 -1.5132  0.8829  1.4328
  156MOL0     O20960   4.021  11.697   4.001  1.0572  0.0081 -0.0119
  156MOL0     C20961   3.899  11.620   4.024 -0.4285  0.1574 -0.3541
  156MOL0     C20962   3.782  11.717   4.033  0.5839 -0.2471 -0.4307
  156MOL0     C20963   3.754  11.801   3.908 -1.0328  0.2283  1.0647
  156MOL0     C20964   3.604  11.816   3.872 -0.7757  0.5468 -0.1222
  156MOL0     C20965   3.578  11.832   3.727 -0.7998 -1.3830 -0.0796
  156MOL0     C20966   3.661  11.950   3.652 -0.0802  0.1662 -1.2034
  156MOL0     C20967   3.645  11.966   3.503  0.2395  0.9131  0.4311
  156MOL0     C20968   3.498  11.989   3.450 -0.4568  0.0754 -0.5598
  156MOL0    Cl20969   3.478  12.026   3.287  0.1470 -0.4321 -0.1529
  156MOL0     C20970   4.182  11.549   3.888  1.1358 -0.6642  0.1174
  156MOL0     C20971   4.252  11.507   3.775 -0.9070  0.0182  0.2903
  156MOL0     O20972   4.444  11.720   3.573 -0.3520 -0.5177 -0.2460
  156MOL0     C20973   4.618  11.668   3.379  0.4390  0.5659  1.0458
  156MOL0     C20974   4.729  11.617   3.319 -0.1424  0.1894  0.1561
  156MOL0     N20975   5.505  11.562   3.144  1.0463 -0.2797  0.7976
  156MOL0     N20976   5.621  11.584   3.104 -0.0394  0.6581 -0.8478
  156MOL0     C20977   6.430  11.193   2.726 -1.1482  0.5773  0.3471
  156MOL0     C20978   6.428  11.073   2.803 -0.3373 -0.8884 -0.5238
  156MOL0     C20979   6.337  10.664   2.936  0.4213  0.6641 -0.1890
  156MOL0     C20980   6.444  10.583   2.970 -0.0030  0.1780  0.1398
  156MOL0     C20981   6.427  10.472   3.055 -1.0790  0.1369 -0.0915
  156MOL0     C20982   6.313  10.449   3.127 -0.3954  0.0923 -0.4354
  156MOL0     O20983   6.292  10.345   3.219 -0.1148 -0.5488  0.7087
  156MOL0     C20984   6.364  10.223   3.214  0.1642  0.3059  0.0686
  156MOL0     C20985   6.322  10.149   3.092  0.2238  1.1731  0.5518
  156MOL0     C20986   6.181  10.150   3.060 -0.3802 -0.2530 -0.3030
  156MOL0     C20987   6.123  10.003   3.026 -0.1409 -0.7928  0.3408
  156MOL0     C20988   6.182   9.954   2.903 -0.0062 -0.2544  0.1368
  156MOL0     C20989   6.251   9.925   2.811  0.7962  0.4017 -0.6710
  156MOL0     C20990   6.203  10.539   3.099  0.2890 -0.7901 -0.3482
  156MOL0     C20991   6.209  10.650   3.012 -0.0188 -0.7642  0.0717
  156MOL0     C20992   6.085  10.725   2.973  0.5465 -0.3933 -0.1415
  156MOL0     H20993   6.122  10.968   2.687  0.1267 -0.9433  1.0462
  156MOL0     H20994   6.187  11.168   2.508  2.0277  2.4451 -0.7500
  156MOL0     H20995   6.549  11.396   2.570 -0.7963 -2.2409  0.7009
  156MOL0     H20996   6.452  11.508   2.490  2.8920  0.9628 -0.4206
  156MOL0     H20997   6.485  11.604   2.701 -0.0844  1.1502 -2.7628
  156MOL0     H20998   6.464  11.454   2.793 -2.1340  0.0874  0.1972
  156MOL0     H20999   6.211  11.455   2.740  0.5032 -1.3268 -3.5283
  156MOL0     H21000   6.235  11.594   2.647  0.0629 -0.6043  0.0383
  156MOL0     H21001   6.338  11.627   2.928 -1.0414 -0.2196 -0.1883
  156MOL0     H21002   6.253  11.745   2.818  0.4102  0.1961 -2.5008
  156MOL0     H21003   6.139  11.507   2.967 -1.5787 -0.8279 -0.8412
  156MOL0     H21004   6.120  11.675   3.022  0.4143 -0.7257  0.4253
  156MOL0     H21005   5.971  11.724   2.838 -1.2239  1.5109  2.7125
  156MOL0     H21006   5.987  11.566   2.770 -1.6016  1.7924 -0.5403
  156MOL0     H21007   5.874  11.654   3.040  0.8162 -2.2440  0.7515
  156MOL0     H21008   5.911  11.492   3.011 -0.3809 -1.2061 -1.8382
  156MOL0     H21009   5.723  11.653   2.819 -1.3488  0.6145  3.0183
  156MOL0     H21010   5.775  11.486   2.816 -3.3278  0.6787 -1.4492
  156MOL0     H21011   5.516  11.391   2.856  2.9524 -0.3718 -0.3823
  156MOL0     H21012   5.308  11.322   3.010 -1.8945 -1.7066  1.4078
  156MOL0     H21013   5.331  11.349   3.186  1.9358 -1.4156 -1.0570
  156MOL0     H21014   5.204  11.581   3.137  3.2629 -0.4260  1.8405
  156MOL0     H21015   5.178  11.515   2.976  5.0891  0.8564 -0.7547
  156MOL0     H21016   5.097  11.348   3.221 -1.2165 -2.0367 -2.0624
  156MOL0     H21017   5.048  11.340   3.055 -0.6338  0.0312  0.0516
  156MOL0     H21018   4.921  11.551   3.066  0.0246  0.4483  0.0250
  156MOL0     H21019   4.980  11.593   3.223  2.1185 -1.9337 -0.1539
  156MOL0     H21020   4.660  11.283   3.301  1.1293 -0.4672 -0.1238
  156MOL0     H21021   4.479  11.358   3.442  1.8008 -3.0550 -2.1098
  156MOL0     H21022   4.129  11.720   3.552 -5.9305 -1.0238  2.1233
  156MOL0     H21023   4.004  11.803   3.741 -1.1301 -1.8676 -2.2228
  156MOL0     H21024   3.882  11.554   3.938 -0.2477  1.9638 -1.8280
  156MOL0     H21025   3.902  11.549   4.108  1.9693 -0.4324 -0.8596
  156MOL0     H21026   3.692  11.657   4.048 -2.8052  4.5903  1.0896
  156MOL0     H21027   3.807  11.778   4.120  4.4149 -2.2030  0.0581
  156MOL0     H21028   3.774  11.906   3.927 -0.7107  0.9040 -2.2955
  156MOL0     H21029   3.820  11.758   3.832 -0.4233 -1.4569  2.4863
  156MOL0     H21030   3.562  11.899   3.931  2.1980  2.3663 -0.3182
  156MOL0     H21031   3.556  11.725   3.908  0.9304  0.0044  0.9065
  156MOL0     H21032   3.469  11.846   3.728 -1.2806 -1.6232 -6.4486
  156MOL0     H21033   3.586  11.735   3.677  4.7361 -0.7131 -1.0784
  156MOL0     H21034   3.636  12.044   3.702  1.9113  0.9260 -1.5676
  156MOL0     H21035   3.768  11.935   3.671  0.1449  0.1373 -2.4342
  156MOL0     H21036   3.703  11.886   3.455 -0.1806  1.8406 -1.7295
  156MOL0     H21037   3.704  12.048   3.462 -1.1813  1.7935  0.0902
  156MOL0     H21038   3.438  11.902   3.475  1.2505 -1.9555 -2.9191
  156MOL0     H21039   3.459  12.072   3.510 -2.5089 -0.9935 -0.3570
  156MOL0     H21040   4.202  11.503   3.985  1.6575 -1.7684 -0.4966
  156MOL0     H21041   4.322  11.425   3.783 -3.4130 -2.0716  2.4166
  156MOL0     H21042   4.613  11.775   3.397  2.9248  0.7430  1.0910
  156MOL0     H21043   4.803  11.695   3.306 -2.3189  1.9055 -3.5383
  156MOL0     H21044   6.521  11.247   2.749  0.1621 -1.9140  1.4275
  156MOL0     H21045   6.506  11.027   2.862 -0.5378 -0.4979  0.0581
  156MOL0     H21046   6.538  10.605   2.920  0.2929 -1.3326 -0.0072
  156MOL0     H21047   6.517  10.413   3.066 -1.5210 -0.8677 -1.6353
  156MOL0     H21048   6.331  10.175   3.306 -0.1498  0.2064 -0.0957
  156MOL0     H21049   6.471  10.244   3.219 -0.2155  2.8569 -1.1930
  156MOL0     H21050   6.359  10.046   3.093 -2.5836 -0.0008 -1.7827
  156MOL0     H21051   6.381  10.180   3.006 -0.1525 -0.6945 -0.4248
  156MOL0     H21052   6.167  10.221   2.978 -0.4726 -1.5496 -1.4409
  156MOL0     H21053   6.116  10.190   3.138 -0.7603  2.4537 -1.8895
  156MOL0     H21054   6.143   9.927   3.102  2.0778 -1.2115 -0.5735
  156MOL0     H21055   6.016  10.019   3.012  0.2301  2.5739  0.5318
  156MOL0     H21056   6.305   9.878   2.732 -2.3166  0.5795 -3.1119
  156MOL0     H21057   6.104  10.523   3.140 -0.1928  1.0709 -0.7179
  156MOL0     H21058   6.016  10.692   3.052  2.9568 -1.2408  1.7192
  156MOL0     H21059   6.099  10.833   2.983  2.3733 -0.5011 -1.1492
  156MOL0     H21060   6.056  10.699   2.870 -1.0604  0.8071 -0.0427
  157MOL0     O21061   9.875   9.523   1.387  0.1921  0.2518  1.0056
  157MOL0     C21062   9.794   9.441   1.336 -0.3236 -0.4440  0.0625
  157MOL0     O21063   9.663   9.429   1.373 -0.2758 -0.2876 -0.2902
  157MOL0     C21064   9.619   9.489   1.481  0.7494 -0.1320 -0.3939
  157MOL0     C21065   9.582   9.616   1.486  0.2311 -0.6756 -0.1229
  157MOL0     C21066   9.521   9.682   1.605 -0.1125 -0.3199  0.0419
  157MOL0     C21067   9.502   9.609   1.718  0.4308 -0.2189  0.2113
  157MOL0     O21068   9.439   9.681   1.822  0.8507 -0.6285 -0.2947
  157MOL0     C21069   9.356   9.605   1.901 -0.4189  0.1743 -0.5730
  157MOL0     C21070   9.268   9.702   1.975  0.3960 -0.1414  0.8299
  157MOL0     C21071   9.183   9.807   1.894 -0.4901  0.6859  0.4206
  157MOL0     C21072   9.246   9.950   1.863 -0.8172 -0.5673 -0.6104
  157MOL0     C21073   9.136  10.029   1.792  0.2674 -1.2014 -0.6500
  157MOL0     C21074   9.160  10.181   1.787  0.0714  0.4140  0.1240
  157MOL0     C21075   9.204  10.238   1.648  0.1568  1.2720  0.0574
  157MOL0     C21076   9.247  10.379   1.673 -0.3009 -0.1717  0.7804
  157MOL0     N21077   9.140  10.484   1.690  0.4447  0.4613  0.0199
  157MOL0     C21078   9.095  10.502   1.817 -0.4249 -0.2536  1.0833
  157MOL0     C21079   9.033  10.624   1.801  0.0513  0.2973 -0.2840
  157MOL0     C21080   8.944  10.683   1.903 -0.7506 -0.2712 -0.3926
  157MOL0     C21081   9.019  10.696   2.039  0.9900  0.0558  0.6165
  157MOL0     C21082   8.932  10.635   2.162 -0.2091 -0.0133 -0.3973
  157MOL0     C21083   8.803  10.701   2.205 -0.5257  0.7272 -0.1674
  157MOL0     O21084   8.691  10.680   2.110 -0.1002  0.1749 -0.2719
  157MOL0     C21085   8.567  10.722   2.143  0.5335  0.6945  0.3602
  157MOL0     C21086   8.464  10.629   2.132 -0.6693  0.7375 -0.3796
  157MOL0     C21087   8.333  10.667   2.172 -0.6728 -0.2150 -0.5583
  157MOL0     C21088   8.304  10.794   2.226 -0.1668 -0.9480  0.8905
  157MOL0     C21089   8.166  10.832   2.273  0.1158  0.4894 -0.5179
  157MOL0     O21090   8.127  10.960   2.253  0.4085 -0.3655 -0.0037
  157MOL0     C21091   7.991  10.991   2.254 -1.4960  0.0302 -0.7376
  157MOL0     C21092   7.945  11.106   2.322 -0.5546 -0.2050  0.1168
  157MOL0     C21093   7.805  11.141   2.308 -0.6171  0.7546 -1.6166
  157MOL0     C21094   7.709  11.065   2.242 -0.0316 -0.6949 -0.1028
  157MOL0     O21095   7.574  11.088   2.224 -0.2822 -0.1936  0.1913
  157MOL0     C21096   7.483  11.145   2.312  0.0415  0.1733 -0.2287
  157MOL0     C21097   7.481  11.294   2.290  0.1640 -0.6582  0.5719
  157MOL0     C21098   7.449  11.372   2.423 -0.5372 -0.4094 -0.7933
  157MOL0     C21099   7.331  11.463   2.399 -0.5735 -0.3787  0.4900
  157MOL0     C21100   7.289  11.526   2.535 -0.5370 -0.0184  0.3186
  157MOL0     C21101   7.187  11.637   2.506  0.0178 -0.2570 -0.4987
  157MOL0     C21102   7.256  11.774   2.470  0.0527  0.7745  0.2578
  157MOL0     C21103   7.323  11.840   2.591 -0.0636 -0.3746  1.5221
  157MOL0    Cl21104   7.398  11.986   2.541 -0.3066 -0.0716  0.3879
  157MOL0     C21105   7.764  10.961   2.168 -0.2498  0.1025  0.0244
  157MOL0     C21106   7.898  10.924   2.175 -0.2886 -0.6259  0.1263
  157MOL0     O21107   8.087  10.736   2.304 -0.5386 -0.1630 -0.2187
  157MOL0     C21108   8.403  10.890   2.227 -0.0779 -0.1943 -0.4699
  157MOL0     C21109   8.539  10.849   2.202 -0.4493 -0.3980 -0.1266
  157MOL0     N21110   9.049  10.680   1.672  0.1250 -0.0570 -0.3706
  157MOL0     N21111   9.114  10.587   1.609  0.7576 -0.5786 -0.5770
  157MOL0     C21112   9.543   9.472   1.711  0.6420 -0.5521 -0.6202
  157MOL0     C21113   9.595   9.408   1.599 -0.4599 -0.4580  0.0838
  157MOL0     C21114   9.834   9.370   1.210  0.0335 -0.1335  0.4468
  157MOL0     C21115   9.748   9.374   1.104 -0.1300 -0.0450 -0.0371
  157MOL0     C21116   9.787   9.310   0.985 -0.1943 -0.3442  0.5483
  157MOL0     C21117   9.899   9.241   0.974 -1.3363  0.0596 -0.0796
  157MOL0     O21118   9.930   9.176   0.857  0.0753  0.5093 -0.8027
  157MOL0     C21119   9.820   9.092   0.802  0.0502  0.1999 -0.5912
  157MOL0     C21120   9.810   8.961   0.863  0.3866  1.3267  0.5458
  157MOL0     C21121   9.666   8.910   0.844  0.1415  0.8739 -0.1214
  157MOL0     C21122   9.597   8.877   0.976 -0.8228  0.3927 -0.6346
  157MOL0     C21123   9.566   8.986   1.067 -1.2181 -0.3763 -1.0250
  157MOL0     C21124   9.549   9.077   1.155  0.3637 -0.6997  0.0319
  157MOL0     C21125   9.990   9.236   1.078  0.1813 -0.6653 -0.0466
  157MOL0     C21126   9.961   9.309   1.192 -0.1309 -0.0678 -0.5988
  157MOL0     C21127  10.049   9.294   1.310 -0.8575 -0.1525  1.2281
  157MOL0     H21128   9.589   9.677   1.396 -0.5799  1.5809  1.2665
  157MOL0     H21129   9.488   9.783   1.586 -3.4022 -1.3043 -0.1419
  157MOL0     H21130   9.298   9.543   1.832 -1.1980  0.4230 -0.1535
  157MOL0     H21131   9.399   9.539   1.978 -1.1955 -0.7970 -0.9387
  157MOL0     H21132   9.304   9.758   2.062 -1.2334  2.5923 -0.1441
  157MOL0     H21133   9.196   9.628   2.010 -1.0865  0.6457 -0.4423
  157MOL0     H21134   9.090   9.814   1.951 -0.7602  3.5640 -0.2099
  157MOL0     H21135   9.178   9.760   1.795  1.3241 -2.1070  1.5263
  157MOL0     H21136   9.269   9.993   1.961 -0.3527 -1.0316 -0.5102
  157MOL0     H21137   9.336   9.944   1.802 -0.0648  1.3399  0.2549
  157MOL0     H21138   9.121   9.996   1.689  1.7290 -3.4145 -0.2274
  157MOL0     H21139   9.041  10.029   1.846  0.8511  2.4487  0.7113
  157MOL0     H21140   9.064  10.228   1.812  1.1650  0.8191  4.5292
  157MOL0     H21141   9.234  10.203   1.866  1.1172  0.5013 -0.8512
  157MOL0     H21142   9.124  10.236   1.573  3.0545 -1.5939 -3.3170
  157MOL0     H21143   9.287  10.181   1.606  0.0790  0.5554  0.8432
  157MOL0     H21144   9.308  10.370   1.763 -2.1566 -1.8293  1.9635
  157MOL0     H21145   9.315  10.408   1.593  1.8246 -2.2953  1.6924
  157MOL0     H21146   9.111  10.446   1.909 -0.4062 -0.9452  0.6653
  157MOL0     H21147   8.909  10.778   1.861  1.0161  1.4948  1.8790
  157MOL0     H21148   8.870  10.605   1.921  0.7777 -1.5281  0.7621
  157MOL0     H21149   9.117  10.648   2.031  1.5331  0.9766  1.5452
  157MOL0     H21150   9.041  10.802   2.054 -1.1444  0.5112  0.8841
  157MOL0     H21151   9.001  10.639   2.247 -2.8320 -1.7738  1.9882
  157MOL0     H21152   8.906  10.532   2.138 -0.4369 -0.1251  0.3092
  157MOL0     H21153   8.822  10.808   2.216 -1.1094  0.9069 -0.8191
  157MOL0     H21154   8.777  10.664   2.304  1.3145  1.7070  0.7266
  157MOL0     H21155   8.482  10.531   2.089 -2.6085 -0.2698  1.0073
  157MOL0     H21156   8.252  10.597   2.160 -2.0973  1.5262 -1.5818
  157MOL0     H21157   8.012  11.174   2.373  0.4816 -1.0265 -0.0990
  157MOL0     H21158   7.764  11.222   2.367 -3.6863 -2.4124  1.0375
  157MOL0     H21159   7.389  11.095   2.288 -1.2093  0.9761  2.5914
  157MOL0     H21160   7.509  11.127   2.417 -1.6413  0.0192  0.1788
  157MOL0     H21161   7.580  11.320   2.250 -0.5495  0.1864 -0.7163
  157MOL0     H21162   7.409  11.318   2.212  0.8077  0.8783  0.4243
  157MOL0     H21163   7.425  11.297   2.498  0.6481  1.3131  1.4331
  157MOL0     H21164   7.536  11.432   2.452  1.6062 -2.9397 -1.5440
  157MOL0     H21165   7.249  11.417   2.343 -1.5333  1.5592  0.2452
  157MOL0     H21166   7.374  11.543   2.339 -1.2832 -2.1831 -2.6720
  157MOL0     H21167   7.378  11.559   2.590  0.9660 -2.0494 -0.7147
  157MOL0     H21168   7.252  11.445   2.598  0.7620 -0.7108  0.2398
  157MOL0     H21169   7.129  11.605   2.419  1.2690 -0.1563 -1.3991
  157MOL0     H21170   7.112  11.655   2.583  2.0427  3.2019  0.8986
  157MOL0     H21171   7.176  11.839   2.432 -1.7428  1.9314  5.1145
  157MOL0     H21172   7.333  11.766   2.394 -2.0432 -0.3996 -1.8619
  157MOL0     H21173   7.239  11.852   2.660  0.2879 -0.8207  2.0309
  157MOL0     H21174   7.393  11.775   2.643 -3.2211 -3.2037  2.6334
  157MOL0     H21175   7.707  10.900   2.099  0.4182  0.4926 -0.8854
  157MOL0     H21176   7.924  10.841   2.111 -1.2669 -1.9574  1.3983
  157MOL0     H21177   8.381  10.993   2.253  1.8608  0.9404 -2.8783
  157MOL0     H21178   8.623  10.909   2.237  1.2685 -1.8643 -1.5004
  157MOL0     H21179   9.536   9.410   1.800  4.0385 -1.0683 -0.5648
  157MOL0     H21180   9.617   9.302   1.610 -2.1114 -0.7196  1.3530
  157MOL0     H21181   9.654   9.428   1.117 -0.0118  0.6925 -1.8754
  157MOL0     H21182   9.719   9.309   0.900  1.2056  1.1931 -0.6735
  157MOL0     H21183   9.841   9.081   0.695 -2.7708  1.3490 -1.3555
  157MOL0     H21184   9.722   9.140   0.797 -0.7921 -1.4057 -0.1335
  157MOL0     H21185   9.824   8.973   0.970 -0.3709  2.3123  0.5463
  157MOL0     H21186   9.884   8.886   0.834 -0.7696 -1.2217  3.5959
  157MOL0     H21187   9.663   8.816   0.788  0.8875  0.6428  0.2142
  157MOL0     H21188   9.610   8.976   0.778 -0.8820 -1.7714 -2.0869
  157MOL0     H21189   9.503   8.827   0.950  0.9576 -3.2398 -0.7336
  157MOL0     H21190   9.662   8.802   1.022 -0.7256  0.5166 -0.5712
  157MOL0     H21191   9.520   9.149   1.228  0.1831  0.7680 -1.4308
  157MOL0     H21192  10.076   9.172   1.064 -1.4402 -3.4669  1.7141
  157MOL0     H21193   9.999   9.251   1.397 -2.2764  0.5380  0.7831
  157MOL0     H21194  10.133   9.235   1.273  0.0674  1.4024  0.7144
  157MOL0     H21195  10.095   9.393   1.322  0.3567 -0.2329 -1.8243
  158MOL0     O21196   9.367   4.939   4.429  0.4292  0.0568 -0.8228
  158MOL0     C21197   9.369   4.944   4.554 -1.3197  0.2883  0.6102
  158MOL0     O21198   9.284   4.877   4.632  0.1358  0.1880 -0.1505
  158MOL0     C21199   9.185   4.808   4.579 -0.2703 -0.4692  0.3763
  158MOL0     C21200   9.076   4.870   4.517 -0.9189 -0.1335  0.2350
  158MOL0     C21201   8.955   4.793   4.479 -0.1856 -1.3982  0.5972
  158MOL0     C21202   8.940   4.661   4.520 -0.0008  0.4679  0.1712
  158MOL0     O21203   8.823   4.602   4.477  0.7729 -1.1291 -1.1395
  158MOL0     C21204   8.797   4.471   4.514  0.3430 -0.4522 -0.9008
  158MOL0     C21205   8.658   4.424   4.486  0.4581  0.5414 -0.0144
  158MOL0     C21206   8.631   4.428   4.339  0.2671  0.7034  0.2658
  158MOL0     C21207   8.485   4.407   4.311 -0.2763  0.1628 -0.3292
  158MOL0     C21208   8.416   4.538   4.339  0.1438 -0.6389  0.1910
  158MOL0     C21209   8.266   4.548   4.311 -0.3761  0.1256  0.6724
  158MOL0     C21210   8.185   4.472   4.417 -0.3133  0.0044 -0.6442
  158MOL0     C21211   8.030   4.487   4.411  0.5865 -0.2011  0.0500
  158MOL0     N21212   7.967   4.377   4.486 -0.1605 -0.1767 -0.6828
  158MOL0     C21213   7.877   4.280   4.442  0.0592 -1.4342  0.6789
  158MOL0     C21214   7.822   4.214   4.545 -0.1959  0.6507  0.0620
  158MOL0     C21215   7.748   4.091   4.547 -1.1334 -0.1921  0.8102
  158MOL0     C21216   7.823   3.960   4.518 -0.0029  0.2198  0.3358
  158MOL0     C21217   7.735   3.843   4.482  0.3625  0.4541  0.2339
  158MOL0     C21218   7.645   3.797   4.593  0.6341 -0.2226  0.8119
  158MOL0     O21219   7.533   3.890   4.593 -0.1322 -0.1315  0.2287
  158MOL0     C21220   7.412   3.834   4.627  0.6609  0.5078  0.0119
  158MOL0     C21221   7.402   3.764   4.756 -0.5441  0.3392 -0.8133
  158MOL0     C21222   7.281   3.719   4.811 -0.5125  0.2896  0.7381
  158MOL0     C21223   7.169   3.748   4.735  0.1437 -0.4539  0.2797
  158MOL0     C21224   7.034   3.695   4.767 -0.3244  0.4028 -0.5262
  158MOL0     O21225   6.937   3.699   4.670 -0.1690 -0.0572  0.5804
  158MOL0     C21226   6.809   3.668   4.702  0.1539  0.7129  0.6934
  158MOL0     C21227   6.714   3.744   4.636 -0.0568 -0.3959  0.3196
  158MOL0     C21228   6.586   3.721   4.654 -0.3051 -0.9667  0.8328
  158MOL0     C21229   6.554   3.615   4.738 -0.2725 -0.4483  0.3682
  158MOL0     O21230   6.422   3.609   4.764  0.6938 -0.8015 -0.1937
  158MOL0     C21231   6.390   3.697   4.877  0.4145 -0.0205 -0.1954
  158MOL0     C21232   6.240   3.680   4.901  0.1000  0.0390 -0.1491
  158MOL0     C21233   6.188   3.775   5.011 -0.5402  0.2265  0.1515
  158MOL0     C21234   6.082   3.715   5.112 -0.5232 -0.1903 -0.2408
  158MOL0     C21235   5.999   3.805   5.206 -0.5176 -0.9675 -0.2055
  158MOL0     C21236   6.086   3.880   5.317 -0.0219  0.0169  0.7643
  158MOL0     C21237   6.124   3.781   5.428  0.3560  0.3599 -0.0943
  158MOL0     C21238   6.235   3.846   5.514 -0.0819  0.5666 -0.2233
  158MOL0    Cl21239   6.388   3.808   5.433 -0.0678 -0.4033  0.0399
  158MOL0     C21240   6.638   3.531   4.803  0.8461 -1.0004  0.4878
  158MOL0     C21241   6.773   3.553   4.780  0.6354 -0.4100 -0.5866
  158MOL0     O21242   7.026   3.652   4.884 -0.1099  0.0980 -0.6447
  158MOL0     C21243   7.169   3.815   4.612  0.3551 -0.6091  0.1983
  158MOL0     C21244   7.294   3.856   4.553  0.4650  0.5832 -0.5267
  158MOL0     N21245   7.884   4.268   4.658  0.2554  0.0260 -0.3155
  158MOL0     N21246   7.970   4.359   4.630 -0.0779  0.5380  0.5802
  158MOL0     C21247   9.050   4.605   4.588 -0.0436 -0.0035  0.1319
  158MOL0     C21248   9.169   4.672   4.614 -0.1327  0.1327  0.5116
  158MOL0     C21249   9.462   5.040   4.609  0.1526 -0.1522  0.5796
  158MOL0     C21250   9.419   5.093   4.733 -0.3546 -1.0869 -0.7676
  158MOL0     C21251   9.497   5.193   4.799  0.3819 -0.2063  0.1275
  158MOL0     C21252   9.623   5.228   4.752  0.2035  0.1507  0.6534
  158MOL0     O21253   9.693   5.314   4.838 -0.0161  0.1589 -0.2083
  158MOL0     C21254   9.839   5.317   4.830 -0.5513 -1.0212 -0.0855
  158MOL0     C21255   9.889   5.439   4.760  0.3409 -0.5948  0.5729
  158MOL0     C21256  10.043   5.432   4.768 -0.5784  0.0741  0.4797
  158MOL0     C21257  10.103   5.545   4.680 -0.5883  0.5586 -0.3386
  158MOL0     C21258  10.247   5.565   4.722  0.4157  0.0451  0.1768
  158MOL0     C21259  10.367   5.565   4.741 -0.1241  0.2879 -0.3012
  158MOL0     C21260   9.665   5.168   4.636 -0.8028  0.3758  0.3259
  158MOL0     C21261   9.587   5.081   4.559 -0.1993  0.2852 -0.6148
  158MOL0     C21262   9.655   5.017   4.449  0.3090  0.5213 -0.2760
  158MOL0     H21263   9.097   4.974   4.495  0.0286 -0.9386 -3.1715
  158MOL0     H21264   8.881   4.846   4.419  0.6058  0.2180  0.9893
  158MOL0     H21265   8.855   4.402   4.452  3.8157  1.5362 -0.1294
  158MOL0     H21266   8.835   4.436   4.610  1.4677  0.1458 -1.1186
  158MOL0     H21267   8.589   4.474   4.554 -1.3011 -0.0190 -1.3037
  158MOL0     H21268   8.641   4.319   4.513 -2.9655  0.3978 -2.0912
  158MOL0     H21269   8.686   4.346   4.292 -1.8563 -1.3841  1.2113
  158MOL0     H21270   8.672   4.520   4.296  2.0312 -0.2357 -0.1471
  158MOL0     H21271   8.492   4.383   4.205 -0.1299 -0.3156 -0.2139
  158MOL0     H21272   8.435   4.320   4.354 -6.1095  2.1498 -2.1021
  158MOL0     H21273   8.432   4.572   4.442  0.6687  2.5805 -0.8343
  158MOL0     H21274   8.468   4.621   4.289 -0.9173  1.1710  1.9177
  158MOL0     H21275   8.240   4.654   4.309 -2.2937 -0.3237 -0.4377
  158MOL0     H21276   8.236   4.516   4.211 -4.8600  0.8395  1.5875
  158MOL0     H21277   8.228   4.504   4.512  0.4697  1.1738 -1.3705
  158MOL0     H21278   8.207   4.365   4.408 -2.1060 -0.9340  3.5506
  158MOL0     H21279   8.016   4.577   4.471 -0.3876 -0.5595  0.3670
  158MOL0     H21280   7.987   4.507   4.312  1.3532  0.1722 -0.2220
  158MOL0     H21281   7.861   4.264   4.336  1.2804  3.7544 -0.5665
  158MOL0     H21282   7.687   4.083   4.637 -2.1721  0.5752  0.2003
  158MOL0     H21283   7.690   4.109   4.456 -0.4741  2.3634  0.7906
  158MOL0     H21284   7.871   3.960   4.420 -0.9057 -1.6272 -0.1508
  158MOL0     H21285   7.900   3.945   4.594 -0.5079 -3.0605  0.3121
  158MOL0     H21286   7.795   3.752   4.473 -0.4124 -0.1057  0.5439
  158MOL0     H21287   7.684   3.857   4.387 -1.4248  5.1085  1.5747
  158MOL0     H21288   7.687   3.796   4.694 -0.0575 -2.2362  1.1360
  158MOL0     H21289   7.613   3.693   4.579 -3.5860  1.3134 -4.6477
  158MOL0     H21290   7.488   3.728   4.812 -2.0273 -4.2202 -1.1194
  158MOL0     H21291   7.277   3.679   4.912 -0.6360  3.5377  2.1607
  158MOL0     H21292   6.746   3.821   4.567  1.6025 -1.4409 -0.1225
  158MOL0     H21293   6.516   3.782   4.597  2.6281  2.1867  0.2864
  158MOL0     H21294   6.438   3.650   4.963 -2.4003 -1.9776  0.4680
  158MOL0     H21295   6.426   3.799   4.863  5.5018 -1.7616 -2.2572
  158MOL0     H21296   6.180   3.688   4.809  1.1122 -2.6169 -1.1257
  158MOL0     H21297   6.216   3.580   4.937 -3.2207  1.8875  3.5603
  158MOL0     H21298   6.279   3.805   5.065  0.9460 -0.1908 -1.9898
  158MOL0     H21299   6.140   3.865   4.970  3.2372  2.9036  1.0120
  158MOL0     H21300   6.130   3.638   5.173  2.6146  1.6375 -0.1817
  158MOL0     H21301   6.009   3.681   5.038 -2.9222  0.5808  1.6352
  158MOL0     H21302   5.932   3.732   5.253  1.0304 -2.0235  0.4140
  158MOL0     H21303   5.952   3.883   5.146  0.6361 -0.4092 -0.3916
  158MOL0     H21304   6.181   3.911   5.272 -1.1773  0.6738 -1.3379
  158MOL0     H21305   6.032   3.958   5.372  0.0577 -0.7156  1.9294
  158MOL0     H21306   6.156   3.686   5.383 -1.8086 -0.2412 -0.4687
  158MOL0     H21307   6.029   3.754   5.474  1.0857 -2.7702 -0.2230
  158MOL0     H21308   6.219   3.954   5.527  1.4875  0.9582 -1.1626
  158MOL0     H21309   6.248   3.800   5.612  2.6815  3.2204  0.8455
  158MOL0     H21310   6.599   3.458   4.873  1.1153  1.2424  3.1531
  158MOL0     H21311   6.856   3.494   4.819  0.0066 -0.6193  0.4707
  158MOL0     H21312   7.078   3.848   4.562  1.0018 -2.9748 -2.8614
  158MOL0     H21313   7.287   3.913   4.461 -0.5328  0.4801 -0.5320
  158MOL0     H21314   9.053   4.501   4.619 -1.6667 -0.8707 -2.3221
  158MOL0     H21315   9.254   4.624   4.662  1.1907 -1.1676 -2.8080
  158MOL0     H21316   9.319   5.079   4.774 -1.0182  0.1972 -1.8894
  158MOL0     H21317   9.454   5.249   4.881  0.3269  1.1546 -0.7939
  158MOL0     H21318   9.877   5.231   4.774  4.8755  1.9239 -1.6497
  158MOL0     H21319   9.879   5.317   4.931  0.5823 -0.0259 -0.5154
  158MOL0     H21320   9.845   5.531   4.800  1.6275  0.2407  0.1128
  158MOL0     H21321   9.847   5.432   4.659 -0.7063 -0.5602  0.9901
  158MOL0     H21322  10.090   5.340   4.731  1.4472  1.0328  0.5243
  158MOL0     H21323  10.078   5.446   4.870 -3.1015  0.8630  1.3108
  158MOL0     H21324  10.103   5.519   4.574  1.2623  0.2271 -0.2883
  158MOL0     H21325  10.044   5.637   4.692 -0.8452  1.1173 -4.5314
  158MOL0     H21326  10.471   5.549   4.763 -0.4677 -2.3411 -0.2892
  158MOL0     H21327   9.761   5.199   4.595 -0.7331  2.1611  1.7013
  158MOL0     H21328   9.639   4.908   4.453 -0.6412  0.5607 -2.1499
  158MOL0     H21329   9.623   5.052   4.351 -0.1844  1.4614  0.2088
  158MOL0     H21330   9.764   5.026   4.460  0.7606 -2.6617 -1.0384
  159MOL0     O21331   1.644  10.643   3.451  0.2265 -0.8530 -0.3488
  159MOL0     C21332   1.565  10.554   3.422 -0.2814  0.3404  0.4590
  159MOL0     O21333   1.438  10.567   3.399 -0.6519  0.1409  0.3874
  159MOL0     C21334   1.381  10.693   3.403  0.3324 -0.2852 -0.1505
  159MOL0     C21335   1.396  10.770   3.291  0.3832 -0.0243  1.0406
  159MOL0     C21336   1.326  10.891   3.284  0.9518 -1.5521 -0.3980
  159MOL0     C21337   1.252  10.941   3.395  0.1288 -0.1742  0.5728
  159MOL0     O21338   1.184  11.059   3.378  0.3318  0.8877 -0.0689
  159MOL0     C21339   1.228  11.162   3.463  0.7856 -0.2881  0.7704
  159MOL0     C21340   1.195  11.294   3.375 -0.0791 -0.0670 -0.7002
  159MOL0     C21341   1.309  11.315   3.268  0.6563 -0.4181  0.1904
  159MOL0     C21342   1.307  11.451   3.197 -0.5054  0.3218 -0.4512
  159MOL0     C21343   1.202  11.466   3.089  0.0153 -0.0885 -0.3993
  159MOL0     C21344   1.234  11.589   3.000 -0.3353 -0.7899 -0.0733
  159MOL0     C21345   1.316  11.709   3.062  0.0119 -0.9199 -0.6090
  159MOL0     C21346   1.361  11.822   2.967 -0.4272  0.5957 -0.0111
  159MOL0     N21347   1.234  11.896   2.924  0.3808 -0.1229 -0.0086
  159MOL0     C21348   1.153  11.972   3.000  0.0910  0.4762 -0.2662
  159MOL0     C21349   1.062  12.026   2.919 -0.0931 -0.4856 -0.5939
  159MOL0     C21350   0.972  12.142   2.957 -0.4035 -0.1821 -0.0822
  159MOL0     C21351   0.863  12.098   3.064  0.5008  1.0375  0.5849
  159MOL0     C21352   0.737  12.026   3.007  0.5081  0.6037 -0.4845
  159MOL0     C21353   0.772  11.891   2.947  0.3423 -0.6147 -0.2041
  159MOL0     O21354   0.661  11.804   2.929  0.2142 -0.1531 -0.4699
  159MOL0     C21355   0.568  11.853   2.836  0.7490  0.1919 -0.3169
  159MOL0     C21356   0.556  11.813   2.709 -0.9196  0.4409  0.6108
  159MOL0     C21357   0.460  11.861   2.628 -0.5561  0.3156  0.4302
  159MOL0     C21358   0.364  11.965   2.667 -0.7379  0.3002  0.5542
  159MOL0     C21359   0.275  12.032   2.574 -0.5509 -0.9303 -1.1371
  159MOL0     O21360   0.238  11.969   2.457  0.4254 -0.0075 -0.0153
  159MOL0     C21361   0.199  12.046   2.344  0.5784  1.1433 -0.6890
  159MOL0     C21362   0.091  11.979   2.276  0.2284 -0.0248  0.3965
  159MOL0     C21363   0.046  12.025   2.153 -1.0324 -0.0775  0.4238
  159MOL0     C21364   0.097  12.141   2.099 -0.8963  0.8299 -0.2506
  159MOL0     O21365   0.039  12.192   1.987  0.6367  0.9883 -0.2787
  159MOL0     C21366   0.045  12.332   1.953  0.6511 -0.1304  0.1801
  159MOL0     C21367   0.169  12.378   1.874  0.7326  0.3711 -0.2450
  159MOL0     C21368   0.190  12.525   1.883 -0.5050 -0.0414 -0.1753
  159MOL0     C21369   0.088  12.601   1.795  0.1899  0.5110  0.7585
  159MOL0     C21370   0.110  12.746   1.815 -1.0461 -0.5189  0.2677
  159MOL0     C21371   0.034  12.821   1.704 -0.2587  0.3386  0.4406
  159MOL0     C21372   0.055  12.970   1.725  0.0710  0.2788  0.6916
  159MOL0     C21373  -0.073  13.048   1.697 -0.2185  0.7700 -0.3754
  159MOL0    Cl21374  -0.062  13.223   1.735 -0.2607 -0.2167 -0.4287
  159MOL0     C21375   0.188  12.210   2.176 -1.2674 -0.4275 -0.8142
  159MOL0     C21376   0.245  12.159   2.293 -0.4098 -0.8982  0.2280
  159MOL0     O21377   0.244  12.145   2.611  0.3285  0.2816 -0.7884
  159MOL0     C21378   0.377  12.001   2.808 -0.8471 -0.6875  0.3384
  159MOL0     C21379   0.464  11.938   2.890 -1.3977  0.9713  0.6468
  159MOL0     N21380   1.089  11.983   2.791  0.2813 -0.3967 -0.0009
  159MOL0     N21381   1.197  11.918   2.795 -0.5189 -0.7763 -0.1950
  159MOL0     C21382   1.257  10.863   3.512  0.2196  0.0505 -0.4067
  159MOL0     C21383   1.308  10.732   3.516 -0.8034 -0.2030 -0.6259
  159MOL0     C21384   1.630  10.413   3.432  0.2534  0.1520  0.3706
  159MOL0     C21385   1.541  10.303   3.429 -0.6186  0.3044 -0.6600
  159MOL0     C21386   1.588  10.179   3.452 -0.1673  0.4703 -0.6364
  159MOL0     C21387   1.715  10.148   3.457 -0.1513 -0.1858  1.0500
  159MOL0     O21388   1.750  10.015   3.465  0.9139  0.1344 -0.3423
  159MOL0     C21389   1.825   9.967   3.573 -1.8124 -0.1570 -0.3539
  159MOL0     C21390   1.761   9.906   3.698  0.1082 -0.9555 -0.0238
  159MOL0     C21391   1.661   9.781   3.664 -0.0782  0.0861 -0.3323
  159MOL0     C21392   1.630   9.700   3.791 -0.2119  0.3603  0.4627
  159MOL0     C21393   1.559   9.755   3.908 -0.2329 -0.0566 -0.3502
  159MOL0     C21394   1.506   9.805   3.998 -0.2581 -0.7265 -0.4942
  159MOL0     C21395   1.806  10.256   3.470  0.3631  0.0681 -0.4896
  159MOL0     C21396   1.772  10.394   3.463 -0.2389  0.6821  0.5745
  159MOL0     C21397   1.886  10.492   3.446 -0.7655 -0.1521 -0.9455
  159MOL0     H21398   1.434  10.715   3.205 -3.6202 -2.0407  0.3086
  159MOL0     H21399   1.340  10.957   3.198 -0.2367 -0.5327  0.1520
  159MOL0     H21400   1.173  11.162   3.557  1.7703  0.9461  1.3782
  159MOL0     H21401   1.332  11.147   3.492  0.3962 -1.3177  1.7227
  159MOL0     H21402   1.194  11.378   3.446 -2.8828  0.0882 -0.8148
  159MOL0     H21403   1.091  11.288   3.341 -0.5257  0.0731  0.5869
  159MOL0     H21404   1.292  11.240   3.190  0.0946  0.1342 -0.2237
  159MOL0     H21405   1.406  11.305   3.319  0.9041  1.1389  0.0594
  159MOL0     H21406   1.300  11.532   3.269 -0.1035 -0.9521  1.0778
  159MOL0     H21407   1.409  11.445   3.159  1.4338  1.5751  4.0099
  159MOL0     H21408   1.211  11.373   3.031 -2.3472 -1.6586  1.5170
  159MOL0     H21409   1.099  11.471   3.125 -1.3388  0.2305 -3.8992
  159MOL0     H21410   1.290  11.552   2.914  1.4527 -0.4213  0.8759
  159MOL0     H21411   1.129  11.608   2.975 -0.9336 -3.1309  0.3750
  159MOL0     H21412   1.414  11.684   3.104 -0.1640  0.8456  0.9788
  159MOL0     H21413   1.255  11.762   3.136  0.9443  1.3672 -1.3875
  159MOL0     H21414   1.426  11.902   3.002 -1.6282  2.9744 -2.7757
  159MOL0     H21415   1.404  11.771   2.880 -0.9876 -2.4859  1.3788
  159MOL0     H21416   1.158  11.999   3.105  3.2705  2.4703 -0.7820
  159MOL0     H21417   1.042  12.211   3.004  0.5299 -0.3920 -1.1028
  159MOL0     H21418   0.926  12.188   2.869  1.5908  0.1557 -1.0093
  159MOL0     H21419   0.911  12.034   3.138 -0.8134 -1.8332 -0.8727
  159MOL0     H21420   0.818  12.185   3.113 -0.9263  0.3356  0.5683
  159MOL0     H21421   0.692  12.092   2.933  0.5197 -0.8943 -1.8995
  159MOL0     H21422   0.678  12.011   3.098 -0.5478 -1.4955 -1.4318
  159MOL0     H21423   0.855  11.855   3.009  2.2868  2.4270 -0.8420
  159MOL0     H21424   0.822  11.912   2.852  2.9312 -0.7616  1.0395
  159MOL0     H21425   0.620  11.737   2.666 -2.4460 -0.4294 -0.2112
  159MOL0     H21426   0.461  11.828   2.525 -2.9901  2.8100 -0.5113
  159MOL0     H21427   0.037  11.894   2.317 -2.6539  1.7775  0.6154
  159MOL0     H21428  -0.030  11.976   2.093 -0.9557  3.0288 -2.5428
  159MOL0     H21429  -0.038  12.358   1.887  0.6880 -2.0785 -0.7202
  159MOL0     H21430   0.023  12.387   2.045 -0.9457 -1.6913  0.8060
  159MOL0     H21431   0.257  12.336   1.922 -0.3773 -1.2513  0.4598
  159MOL0     H21432   0.155  12.336   1.774 -2.3671 -1.1538  0.6894
  159MOL0     H21433   0.177  12.548   1.989  1.3063 -3.1835  0.8585
  159MOL0     H21434   0.294  12.556   1.864  0.1718 -0.3139  2.7250
  159MOL0     H21435  -0.008  12.558   1.824 -0.7344  3.9082  3.5413
  159MOL0     H21436   0.101  12.574   1.690  0.3454 -2.1061  1.4006
  159MOL0     H21437   0.215  12.775   1.803 -0.5077 -1.1206  2.8176
  159MOL0     H21438   0.088  12.759   1.922 -1.6019 -1.8181  0.3280
  159MOL0     H21439   0.080  12.789   1.610 -0.9759  1.9025 -0.4758
  159MOL0     H21440  -0.071  12.792   1.704  0.6107 -3.4799 -0.1730
  159MOL0     H21441   0.128  13.005   1.651 -0.5009 -3.9008 -2.1981
  159MOL0     H21442   0.092  12.991   1.826  0.6864  1.8926  0.1578
  159MOL0     H21443  -0.103  13.030   1.594  0.2832 -1.2244 -0.2210
  159MOL0     H21444  -0.154  13.003   1.756 -0.2819  0.0248 -1.0057
  159MOL0     H21445   0.209  12.310   2.139 -0.4929  0.1903  1.1797
  159MOL0     H21446   0.329  12.213   2.337 -1.9718  1.2877  0.7269
  159MOL0     H21447   0.319  12.084   2.846 -0.1596 -0.8969  1.9072
  159MOL0     H21448   0.460  11.957   2.997  2.3898  1.4943  0.8573
  159MOL0     H21449   1.202  10.895   3.600 -1.9664  3.2444 -2.7094
  159MOL0     H21450   1.309  10.682   3.613 -0.3217  5.3311  2.6783
  159MOL0     H21451   1.434  10.314   3.413 -0.4932  2.5583 -0.3233
  159MOL0     H21452   1.524  10.091   3.447 -0.6527  0.6773  1.1633
  159MOL0     H21453   1.895  10.041   3.613 -0.6194 -0.2857 -2.0914
  159MOL0     H21454   1.888   9.885   3.539  0.3590  1.3000 -0.0682
  159MOL0     H21455   1.695   9.983   3.739  1.1558 -1.0512  1.9279
  159MOL0     H21456   1.838   9.885   3.772  0.9071  1.0669 -0.2191
  159MOL0     H21457   1.708   9.719   3.588 -1.3998  0.6924 -1.6784
  159MOL0     H21458   1.566   9.822   3.630  0.2580  0.4799 -0.8104
  159MOL0     H21459   1.568   9.617   3.757 -1.8815  2.6032 -2.3540
  159MOL0     H21460   1.729   9.681   3.834 -0.0629  2.5633  1.1877
  159MOL0     H21461   1.450   9.872   4.060 -0.5317 -1.8742  0.5434
  159MOL0     H21462   1.911  10.233   3.481  0.6050  0.6018 -1.5185
  159MOL0     H21463   1.971  10.441   3.493 -1.9328 -0.1864  1.2301
  159MOL0     H21464   1.899  10.515   3.340  1.2918 -4.3165 -1.7942
  159MOL0     H21465   1.868  10.583   3.504 -2.7251 -0.3582 -1.1840
  160MOL0     O21466   7.176   9.292   3.218 -0.5182  1.0704  0.1012
  160MOL0     C21467   7.164   9.398   3.283 -0.1042  0.2279  0.4051
  160MOL0     O21468   7.075   9.501   3.249 -0.3093  0.2993  0.5972
  160MOL0     C21469   6.976   9.467   3.160 -0.2474  0.0645  1.0963
  160MOL0     C21470   6.862   9.389   3.195 -1.5351  0.3910 -0.0048
  160MOL0     C21471   6.756   9.374   3.108  0.1188  0.6950  0.1988
  160MOL0     C21472   6.764   9.431   2.975  0.3513  0.7085 -0.4192
  160MOL0     O21473   6.654   9.422   2.893  0.3648 -0.8546  0.1892
  160MOL0     C21474   6.663   9.358   2.760 -0.2288 -0.4871 -0.0308
  160MOL0     C21475   6.537   9.279   2.725  0.8515  0.0416  0.3366
  160MOL0     C21476   6.406   9.353   2.779  0.3875 -0.6260  0.5341
  160MOL0     C21477   6.410   9.498   2.742  0.5443  0.5192  0.5597
  160MOL0     C21478   6.265   9.553   2.740 -0.2723  0.5427 -0.2267
  160MOL0     C21479   6.190   9.537   2.872 -0.0983 -0.6658  0.1653
  160MOL0     C21480   6.041   9.562   2.865 -0.4826  0.4269  0.0419
  160MOL0     C21481   5.950   9.456   2.801 -0.8001 -0.5126  1.1567
  160MOL0     N21482   5.954   9.328   2.864  0.7718  0.2252  0.0842
  160MOL0     C21483   6.035   9.219   2.842  0.1627 -0.3661  0.0183
  160MOL0     C21484   5.993   9.117   2.917 -0.7666 -1.5718 -0.4892
  160MOL0     C21485   6.053   8.979   2.920 -0.3923 -0.6640  0.5170
  160MOL0     C21486   5.957   8.871   2.965 -0.3446  0.4720  0.5126
  160MOL0     C21487   5.982   8.725   2.922  0.1241 -0.4280 -1.1691
  160MOL0     C21488   6.004   8.727   2.767  0.0298 -0.3383  0.4952
  160MOL0     O21489   5.922   8.823   2.693  0.2008 -0.6333 -1.2423
  160MOL0     C21490   5.963   8.869   2.567  0.7766  1.3112  0.0924
  160MOL0     C21491   5.909   8.990   2.515  0.6182 -0.1017 -0.2887
  160MOL0     C21492   5.941   9.035   2.387 -1.1528  0.4471 -0.1973
  160MOL0     C21493   6.031   8.961   2.299  0.2822 -0.2599  0.4803
  160MOL0     C21494   6.064   9.006   2.161 -0.2993 -0.7974  0.5409
  160MOL0     O21495   6.175   8.953   2.108 -0.5789 -0.3874  0.0397
  160MOL0     C21496   6.211   8.997   1.980 -1.0613  0.1089 -0.2627
  160MOL0     C21497   6.315   9.095   1.964 -0.1915 -0.0140 -0.0884
  160MOL0     C21498   6.358   9.126   1.832  0.4304 -0.4492  0.0232
  160MOL0     C21499   6.286   9.081   1.726 -0.1680 -0.2012 -0.6477
  160MOL0     O21500   6.325   9.128   1.606  0.1358 -0.1690  0.2666
  160MOL0     C21501   6.405   9.026   1.543 -0.3684 -0.2013 -0.1077
  160MOL0     C21502   6.467   9.086   1.420  0.3015  0.7127  0.2373
  160MOL0     C21503   6.575   9.185   1.448 -1.0428 -0.7275  0.4888
  160MOL0     C21504   6.646   9.215   1.317  0.2314 -0.2266  0.0366
  160MOL0     C21505   6.758   9.313   1.326 -0.0546  0.0495  0.2072
  160MOL0     C21506   6.890   9.243   1.381  0.0190 -0.8611  0.1144
  160MOL0     C21507   7.000   9.350   1.398  0.0703  0.4249  0.0748
  160MOL0     C21508   7.149   9.304   1.385  0.4623  0.0468  1.5467
  160MOL0    Cl21509   7.169   9.265   1.203 -0.4848 -0.2393 -0.2092
  160MOL0     C21510   6.174   9.003   1.742  0.1374  0.3485  0.6072
  160MOL0     C21511   6.137   8.955   1.866 -0.2996 -0.0529 -1.3046
  160MOL0     O21512   6.004   9.109   2.122 -0.1053  0.3854  0.3961
  160MOL0     C21513   6.081   8.838   2.353 -0.2936  0.4118  0.3450
  160MOL0     C21514   6.045   8.799   2.485 -0.1675  0.2968 -0.9361
  160MOL0     N21515   5.891   9.170   2.991 -0.0342  0.9958  0.0313
  160MOL0     N21516   5.863   9.296   2.960  0.5031  1.1780 -0.0720
  160MOL0     C21517   6.882   9.494   2.936 -1.2290 -0.2259 -0.6516
  160MOL0     C21518   6.981   9.521   3.031  0.0503 -0.4702  0.0134
  160MOL0     C21519   7.263   9.431   3.382  0.3084 -0.0256  0.3962
  160MOL0     C21520   7.293   9.562   3.413 -0.4876 -0.0394  1.2334
  160MOL0     C21521   7.383   9.611   3.508 -0.3898  0.8694 -1.2326
  160MOL0     C21522   7.452   9.518   3.584 -0.0849  1.0327  0.0294
  160MOL0     O21523   7.543   9.566   3.674 -0.4571 -0.0207  0.3985
  160MOL0     C21524   7.610   9.478   3.769 -0.0897 -0.2297  0.8352
  160MOL0     C21525   7.737   9.525   3.824 -0.3753  0.1560 -1.0242
  160MOL0     C21526   7.743   9.659   3.909  0.0750  1.4239 -0.0886
  160MOL0     C21527   7.896   9.699   3.935  1.0296  0.3543  0.3849
  160MOL0     C21528   7.906   9.841   3.968  0.7823 -0.3003  0.2146
  160MOL0     C21529   7.924   9.953   4.012  0.8563 -0.2523 -0.2154
  160MOL0     C21530   7.431   9.382   3.559 -0.0357 -0.2970  0.1233
  160MOL0     C21531   7.334   9.333   3.457 -0.3766  1.3854  0.3040
  160MOL0     C21532   7.314   9.182   3.432  0.2207 -0.0253 -0.6570
  160MOL0     H21533   6.865   9.330   3.286  1.1647 -0.3084 -0.4438
  160MOL0     H21534   6.661   9.333   3.140  0.5824 -0.9026 -0.3399
  160MOL0     H21535   6.680   9.441   2.691 -2.2903  0.8681  1.0212
  160MOL0     H21536   6.747   9.287   2.766  0.0987  0.0130  2.1138
  160MOL0     H21537   6.527   9.180   2.770 -0.3657 -1.4697 -2.8761
  160MOL0     H21538   6.524   9.273   2.616 -2.0837 -1.1518  0.6596
  160MOL0     H21539   6.397   9.350   2.888 -0.9137 -4.2693  0.4454
  160MOL0     H21540   6.319   9.294   2.750  0.0542  0.0026  0.2225
  160MOL0     H21541   6.486   9.546   2.804  1.7028 -0.8931  0.2808
  160MOL0     H21542   6.440   9.498   2.637  0.0287  0.5034  0.4087
  160MOL0     H21543   6.264   9.656   2.702 -0.7110  0.8361  0.5520
  160MOL0     H21544   6.205   9.495   2.669 -2.2219 -0.1065  1.8618
  160MOL0     H21545   6.197   9.434   2.909 -0.6273 -0.9238 -0.4505
  160MOL0     H21546   6.239   9.597   2.949  3.6552 -1.1318 -1.6438
  160MOL0     H21547   6.022   9.657   2.815 -1.9821  0.2265  0.1731
  160MOL0     H21548   6.003   9.574   2.967 -1.9023  0.3783 -0.4593
  160MOL0     H21549   5.848   9.494   2.795  0.0566  1.8409  0.6173
  160MOL0     H21550   5.977   9.436   2.697  0.6824  0.2485  1.3761
  160MOL0     H21551   6.119   9.220   2.774 -0.3944 -1.9709 -0.7462
  160MOL0     H21552   6.099   8.951   2.825 -0.2775 -1.3046  0.7504
  160MOL0     H21553   6.128   8.981   3.000 -1.1460 -1.9727  1.2992
  160MOL0     H21554   5.966   8.883   3.073  1.2364 -1.4180  0.6335
  160MOL0     H21555   5.859   8.900   2.926 -0.4361  1.3447  1.3450
  160MOL0     H21556   5.893   8.668   2.949  1.1797 -1.4095  0.4251
  160MOL0     H21557   6.066   8.671   2.968  0.4557  0.3586 -0.8422
  160MOL0     H21558   5.982   8.627   2.729 -4.0367 -0.1316  1.8550
  160MOL0     H21559   6.108   8.746   2.738  0.2072 -2.4495 -0.5046
  160MOL0     H21560   5.841   9.056   2.568 -1.0036  0.7464 -3.1975
  160MOL0     H21561   5.913   9.133   2.350  0.9016  0.7794 -1.0245
  160MOL0     H21562   6.366   9.132   2.052  1.7461 -1.3000 -0.5931
  160MOL0     H21563   6.438   9.197   1.813 -0.2245  0.4132  0.4491
  160MOL0     H21564   6.476   8.981   1.613 -0.0160  1.1050  0.4068
  160MOL0     H21565   6.346   8.939   1.512 -1.2292 -0.9272  3.1832
  160MOL0     H21566   6.504   9.003   1.360 -2.0063 -0.3244  0.1510
  160MOL0     H21567   6.395   9.135   1.355  1.8714  3.5767  0.4869
  160MOL0     H21568   6.533   9.282   1.476  0.8213  0.4213 -0.4272
  160MOL0     H21569   6.650   9.151   1.521 -0.1919  0.3977  0.1717
  160MOL0     H21570   6.565   9.256   1.255 -0.1131 -0.7338  0.1482
  160MOL0     H21571   6.683   9.124   1.269  1.7137  0.8336 -0.9136
  160MOL0     H21572   6.730   9.402   1.383  0.7649  0.0698  0.5851
  160MOL0     H21573   6.769   9.344   1.221  0.2174  3.0897  1.0434
  160MOL0     H21574   6.868   9.183   1.470  1.8469  0.1656  1.3351
  160MOL0     H21575   6.926   9.166   1.312 -0.5527 -1.7653  0.8052
  160MOL0     H21576   6.993   9.408   1.490 -0.3327  0.1726  0.2047
  160MOL0     H21577   6.987   9.421   1.315  1.0989 -0.7086 -1.0988
  160MOL0     H21578   7.208   9.390   1.419 -2.4917  2.1265  1.7575
  160MOL0     H21579   7.186   9.218   1.440  1.2797 -0.3772  0.3830
  160MOL0     H21580   6.105   8.988   1.660 -0.8833 -0.5275  1.5944
  160MOL0     H21581   6.044   8.902   1.883 -1.0280  2.2262  3.4867
  160MOL0     H21582   6.147   8.768   2.303  1.9649  1.2462  2.0108
  160MOL0     H21583   6.089   8.705   2.516 -1.9564 -0.1379  0.4651
  160MOL0     H21584   6.902   9.537   2.838 -2.7613  2.3283  0.0394
  160MOL0     H21585   7.072   9.579   3.016 -0.4210  1.2305  2.9549
  160MOL0     H21586   7.244   9.639   3.354  1.4675  1.4986  1.5316
  160MOL0     H21587   7.414   9.715   3.516  2.2671  0.1829 -1.4383
  160MOL0     H21588   7.616   9.383   3.716 -0.7938  0.0213  0.2930
  160MOL0     H21589   7.543   9.459   3.853 -2.3623 -2.4654 -1.3071
  160MOL0     H21590   7.812   9.525   3.745  3.1156 -1.5804  1.9558
  160MOL0     H21591   7.774   9.446   3.891  4.4197  0.6567 -2.6926
  160MOL0     H21592   7.694   9.659   4.007  0.7322 -1.7562  0.3616
  160MOL0     H21593   7.700   9.739   3.848  0.9937  0.4097 -2.1872
  160MOL0     H21594   7.933   9.643   4.021  0.6844  0.3842  0.5550
  160MOL0     H21595   7.956   9.683   3.845  1.5388  1.9928  0.4013
  160MOL0     H21596   7.948  10.055   4.036 -2.6385  0.6372  0.0630
  160MOL0     H21597   7.480   9.299   3.609  0.5261 -1.0129 -1.5583
  160MOL0     H21598   7.215   9.138   3.424 -0.3590  1.3857 -1.6327
  160MOL0     H21599   7.364   9.152   3.339 -0.2935  0.9758 -1.2809
  160MOL0     H21600   7.367   9.119   3.504 -0.1167  0.8207  0.3653
  161MOL0     O21601   1.266   9.594   5.658  0.0491  0.6395 -0.6097
  161MOL0     C21602   1.331   9.502   5.617 -0.0747  0.9109 -0.1572
  161MOL0     O21603   1.303   9.374   5.636 -0.4403 -0.7121  0.0415
  161MOL0     C21604   1.188   9.335   5.700  0.3201  0.4382  1.3193
  161MOL0     C21605   1.111   9.226   5.649  0.5069 -0.3270  0.1514
  161MOL0     C21606   1.001   9.168   5.723  0.0842 -0.6392  0.4808
  161MOL0     C21607   0.969   9.226   5.848 -0.2485  0.2060 -0.4998
  161MOL0     O21608   0.875   9.193   5.945  0.9265  0.1020 -0.0554
  161MOL0     C21609   0.754   9.127   5.911  0.3288 -0.3265  0.6998
  161MOL0     C21610   0.685   9.086   6.033  0.3668 -0.3110  0.5965
  161MOL0     C21611   0.614   9.189   6.114  0.7533 -0.1358 -0.3637
  161MOL0     C21612   0.699   9.307   6.147 -0.1011 -0.0618  0.1380
  161MOL0     C21613   0.639   9.381   6.265  0.0096  0.2341 -0.0348
  161MOL0     C21614   0.492   9.433   6.252 -0.6878 -0.1146 -0.4494
  161MOL0     C21615   0.468   9.519   6.125  0.6256 -0.0344 -0.9221
  161MOL0     C21616   0.500   9.669   6.145  0.5471 -0.5141  0.6031
  161MOL0     N21617   0.441   9.734   6.258  0.0539  0.0044 -0.7738
  161MOL0     C21618   0.315   9.717   6.315 -1.2663 -0.6063  0.0187
  161MOL0     C21619   0.320   9.780   6.429  0.2860 -0.4605 -0.1603
  161MOL0     C21620   0.223   9.782   6.548  0.0814 -0.1436  0.0755
  161MOL0     C21621   0.185   9.924   6.597  0.0740 -0.4384 -0.1253
  161MOL0     C21622   0.159  10.021   6.484 -0.2020 -0.3776  1.1500
  161MOL0     C21623   0.136  10.158   6.538  0.9125  0.0370 -0.6433
  161MOL0     O21624   0.048  10.238   6.449 -0.0824  0.1569 -0.1141
  161MOL0     C21625  -0.090  10.239   6.478 -0.5709 -1.0669  0.1833
  161MOL0     C21626  -0.172  10.298   6.383  0.6590 -0.2818 -1.1441
  161MOL0     C21627  -0.310  10.310   6.403 -0.5021  0.4080 -0.2505
  161MOL0     C21628  -0.373  10.264   6.516 -0.0213 -0.5239 -0.0274
  161MOL0     C21629  -0.508  10.300   6.561 -0.3151  0.6080  0.3908
  161MOL0     O21630  -0.578  10.380   6.474  0.1948  0.1887 -0.6343
  161MOL0     C21631  -0.712  10.401   6.490 -0.2339  0.1734  1.0350
  161MOL0     C21632  -0.792  10.391   6.381 -0.2569  0.2208 -0.2691
  161MOL0     C21633  -0.932  10.418   6.405 -0.3005  0.5961 -0.2755
  161MOL0     C21634  -0.991  10.466   6.527  1.0140  0.2803 -0.0442
  161MOL0     O21635  -1.129  10.500   6.530 -0.7060 -1.2818  0.0362
  161MOL0     C21636  -1.219  10.430   6.622  0.1245  0.2159 -0.0843
  161MOL0     C21637  -1.226  10.294   6.571 -0.3266  0.2514  0.7469
  161MOL0     C21638  -1.328  10.225   6.662  0.1322  0.2573  1.0870
  161MOL0     C21639  -1.356  10.090   6.602  0.2506  0.8862 -0.0256
  161MOL0     C21640  -1.495  10.069   6.540 -0.4105  0.4663  0.3860
  161MOL0     C21641  -1.519  10.136   6.404 -0.7435 -0.1106  0.8594
  161MOL0     C21642  -1.654  10.156   6.352  0.5264  0.4623  0.0920
  161MOL0     C21643  -1.757  10.221   6.452  0.8521 -0.0888 -0.4412
  161MOL0    Cl21644  -1.845  10.108   6.547 -0.4934 -0.0729 -0.3779
  161MOL0     C21645  -0.897  10.483   6.627 -0.5788 -0.3118  0.2202
  161MOL0     C21646  -0.763  10.440   6.614 -0.1150 -0.8004 -1.0559
  161MOL0     O21647  -0.546  10.257   6.666  0.1964 -0.3015 -0.6112
  161MOL0     C21648  -0.287  10.210   6.614  0.2213  0.3349 -0.2622
  161MOL0     C21649  -0.150  10.204   6.600  1.2118  0.7151  0.7843
  161MOL0     N21650   0.443   9.843   6.435 -0.6666 -0.1078  0.1544
  161MOL0     N21651   0.515   9.813   6.330  0.2665 -0.1213 -0.4719
  161MOL0     C21652   1.049   9.325   5.902 -0.0794  0.6471  0.4594
  161MOL0     C21653   1.161   9.377   5.828 -0.4726 -0.6349  1.3657
  161MOL0     C21654   1.450   9.528   5.531 -0.1350 -0.5950  0.7461
  161MOL0     C21655   1.456   9.652   5.457 -0.5421  0.3397  0.6718
  161MOL0     C21656   1.547   9.669   5.351  0.3646 -1.1179 -0.4811
  161MOL0     C21657   1.648   9.587   5.309 -0.2401  0.0396  1.0510
  161MOL0     O21658   1.717   9.611   5.190 -0.3340  0.0078 -0.3868
  161MOL0     C21659   1.822   9.520   5.157 -0.2345 -0.0747 -0.0777
  161MOL0     C21660   1.760   9.439   5.050 -1.1932 -0.0724 -0.0510
  161MOL0     C21661   1.666   9.504   4.949 -0.3039  0.0762 -0.1579
  161MOL0     C21662   1.601   9.400   4.867 -0.1837 -0.4595 -0.3728
  161MOL0     C21663   1.499   9.478   4.789 -0.5512 -0.5380  0.2995
  161MOL0     C21664   1.427   9.560   4.732  0.6380 -0.1587 -0.5157
  161MOL0     C21665   1.655   9.466   5.388 -0.7223  0.3149  0.6203
  161MOL0     C21666   1.560   9.432   5.485 -0.1174 -0.5250 -0.2531
  161MOL0     C21667   1.570   9.303   5.555 -0.7370  0.4968  0.3526
  161MOL0     H21668   1.132   9.186   5.551  2.7446  0.0251  0.4431
  161MOL0     H21669   0.934   9.107   5.662 -1.4535  2.9955 -1.8036
  161MOL0     H21670   0.687   9.195   5.859 -1.0648 -2.9872 -1.2456
  161MOL0     H21671   0.775   9.043   5.843 -0.0944  0.4743 -0.4492
  161MOL0     H21672   0.774   9.040   6.077  0.8295 -1.5656 -1.4740
  161MOL0     H21673   0.619   9.000   6.026 -0.1877 -0.0798  2.6284
  161MOL0     H21674   0.577   9.143   6.207  1.9762  0.2126  0.3139
  161MOL0     H21675   0.524   9.220   6.059 -0.3568  0.3959  1.6137
  161MOL0     H21676   0.796   9.270   6.183 -0.6653  0.1763  2.0248
  161MOL0     H21677   0.714   9.371   6.060 -1.1109 -0.5929 -0.4456
  161MOL0     H21678   0.646   9.322   6.357 -1.1526  1.0368  0.5998
  161MOL0     H21679   0.683   9.479   6.288 -1.9374  1.3266 -0.6888
  161MOL0     H21680   0.425   9.346   6.252 -0.6012 -0.1838 -0.8791
  161MOL0     H21681   0.462   9.485   6.343  0.9321  0.5432 -0.2565
  161MOL0     H21682   0.362   9.513   6.099  0.7851 -1.5391 -1.3301
  161MOL0     H21683   0.522   9.485   6.036  0.2258  1.7597 -1.8838
  161MOL0     H21684   0.609   9.671   6.152  0.6999 -1.3590 -1.0592
  161MOL0     H21685   0.487   9.722   6.051  1.9880  3.4787  2.4417
  161MOL0     H21686   0.249   9.646   6.266 -0.5094 -0.5663 -1.1116
  161MOL0     H21687   0.130   9.729   6.525  0.2209 -0.9600  1.2498
  161MOL0     H21688   0.263   9.724   6.632 -0.8999 -3.2752 -1.4510
  161MOL0     H21689   0.086   9.917   6.645 -0.9140 -0.5369 -2.0879
  161MOL0     H21690   0.262   9.963   6.664  0.0301 -0.4967 -0.0400
  161MOL0     H21691   0.087   9.985   6.410  1.3691  1.4600 -1.4203
  161MOL0     H21692   0.252  10.031   6.427 -0.4055  0.7360  0.9910
  161MOL0     H21693   0.236  10.200   6.553  0.9765  0.1153 -1.2637
  161MOL0     H21694   0.089  10.152   6.636 -1.1528  2.0286 -1.4234
  161MOL0     H21695  -0.130  10.343   6.293  4.7590  2.0410  1.6000
  161MOL0     H21696  -0.360  10.362   6.322  1.0185  3.5481  0.6601
  161MOL0     H21697  -0.760  10.371   6.279 -1.7798  1.6280 -1.0529
  161MOL0     H21698  -1.000  10.415   6.320  0.1339 -3.5047 -0.6510
  161MOL0     H21699  -1.182  10.425   6.725 -4.6210 -1.3617  1.8058
  161MOL0     H21700  -1.321  10.468   6.633 -1.0175 -2.4630 -0.7884
  161MOL0     H21701  -1.264  10.301   6.468 -0.6405 -1.2511  0.7445
  161MOL0     H21702  -1.133  10.238   6.574  0.6390  1.2564 -3.5153
  161MOL0     H21703  -1.276  10.215   6.758 -0.1459  4.5871  1.8927
  161MOL0     H21704  -1.412  10.291   6.685  1.6935  2.3883  0.8948
  161MOL0     H21705  -1.361  10.024   6.690 -0.6937 -0.1163 -0.8034
  161MOL0     H21706  -1.281  10.045   6.536  2.2220  2.7438  0.8313
  161MOL0     H21707  -1.567  10.111   6.611 -1.3810 -0.5616  0.0282
  161MOL0     H21708  -1.524   9.964   6.535  0.8984  0.1236 -0.2751
  161MOL0     H21709  -1.480  10.236   6.420 -3.0380  0.5800  2.7128
  161MOL0     H21710  -1.455  10.085   6.331 -1.6045  2.3846 -1.8559
  161MOL0     H21711  -1.688  10.055   6.327  0.1639 -0.5916  4.2153
  161MOL0     H21712  -1.650  10.205   6.254  2.2238 -0.8274 -0.5349
  161MOL0     H21713  -1.702  10.288   6.518  2.5231 -3.7565  2.2534
  161MOL0     H21714  -1.833  10.284   6.403 -0.4389 -0.4292  1.0421
  161MOL0     H21715  -0.918  10.535   6.719  0.9064  1.8969 -0.6112
  161MOL0     H21716  -0.691  10.450   6.694  0.0553 -0.9045 -1.1964
  161MOL0     H21717  -0.331  10.176   6.707  2.0436 -0.7298  0.2578
  161MOL0     H21718  -0.097  10.154   6.680  3.4178  0.6059 -0.6259
  161MOL0     H21719   1.029   9.369   5.999 -1.2543  0.6046  0.2462
  161MOL0     H21720   1.226   9.451   5.873 -0.1448 -1.4370  2.2586
  161MOL0     H21721   1.374   9.722   5.468 -2.0438 -1.1221 -0.7750
  161MOL0     H21722   1.526   9.757   5.292  0.4098 -0.5685  0.2980
  161MOL0     H21723   1.865   9.462   5.240  0.4083 -0.6721 -0.8145
  161MOL0     H21724   1.902   9.581   5.116 -0.8639 -0.1867 -1.5508
  161MOL0     H21725   1.718   9.350   5.098  1.5575 -0.0488  2.7953
  161MOL0     H21726   1.854   9.413   5.001 -0.8475 -0.0084  0.5607
  161MOL0     H21727   1.724   9.566   4.879 -1.7542 -1.4038 -2.8591
  161MOL0     H21728   1.602   9.575   5.001  1.5978  1.5153  0.3541
  161MOL0     H21729   1.670   9.357   4.794 -1.7501 -0.3528 -1.9699
  161MOL0     H21730   1.545   9.326   4.924  0.4504 -0.3610  0.4054
  161MOL0     H21731   1.347   9.624   4.702 -2.4625 -2.0341  3.0109
  161MOL0     H21732   1.728   9.387   5.369  1.1202  2.6613 -3.6000
  161MOL0     H21733   1.568   9.320   5.664  1.5428  1.5283  0.3031
  161MOL0     H21734   1.488   9.236   5.529  0.1151 -1.2508  1.9187
  161MOL0     H21735   1.666   9.251   5.546 -1.4874 -1.0835  1.1568
  162MOL0     O21736   3.109   3.778   4.728  0.6334 -0.9248 -0.3494
  162MOL0     C21737   3.210   3.726   4.766 -0.4501  0.3696  0.9707
  162MOL0     O21738   3.338   3.751   4.722  0.2755  0.0460  0.4749
  162MOL0     C21739   3.347   3.786   4.589 -0.4202  0.8012 -0.8982
  162MOL0     C21740   3.475   3.834   4.539  0.1462  0.6534 -0.0517
  162MOL0     C21741   3.502   3.859   4.406 -0.1421  0.7428  0.3775
  162MOL0     C21742   3.400   3.844   4.312 -0.4012  0.4481  0.2277
  162MOL0     O21743   3.431   3.863   4.187  0.1759 -0.3445  0.5219
  162MOL0     C21744   3.404   3.764   4.086 -0.8962  0.0667 -0.1667
  162MOL0     C21745   3.490   3.771   3.959 -0.2968  0.1069  0.2067
  162MOL0     C21746   3.420   3.711   3.837  0.2429  0.2496  0.3087
  162MOL0     C21747   3.418   3.558   3.843 -0.2191 -0.1891 -0.3077
  162MOL0     C21748   3.350   3.498   3.720  0.3246 -0.3728  0.1712
  162MOL0     C21749   3.188   3.508   3.714 -0.0411 -0.7626 -0.3661
  162MOL0     C21750   3.129   3.390   3.631  0.8656  0.4264 -0.3919
  162MOL0     C21751   3.170   3.395   3.482 -0.6420  1.2473 -1.1450
  162MOL0     N21752   3.127   3.276   3.404  0.0550 -0.1714  0.7652
  162MOL0     C21753   3.071   3.302   3.283  0.7341  0.4686  0.2032
  162MOL0     C21754   3.045   3.177   3.235  0.5211  0.2087  0.9509
  162MOL0     C21755   2.970   3.135   3.115  0.2595  0.0149  0.2738
  162MOL0     C21756   2.995   3.230   3.008  1.0546  0.2187  0.1056
  162MOL0     C21757   2.941   3.174   2.880  0.4107  0.4353 -0.6731
  162MOL0     C21758   2.968   3.225   2.743  0.1579 -0.7877 -0.4527
  162MOL0     O21759   2.920   3.368   2.732  0.1019 -0.6395  0.6198
  162MOL0     C21760   2.969   3.446   2.626  1.3081 -0.2278 -0.0259
  162MOL0     C21761   3.061   3.409   2.527 -0.4548  0.6917 -0.3849
  162MOL0     C21762   3.106   3.500   2.439 -0.3098 -0.3378  0.1427
  162MOL0     C21763   3.051   3.616   2.418 -0.1220 -0.4401 -0.2872
  162MOL0     C21764   3.090   3.712   2.306  0.2796 -0.9398 -0.0397
  162MOL0     O21765   3.046   3.841   2.310 -0.1759  0.1886  0.0576
  162MOL0     C21766   3.068   3.915   2.195  0.5145  0.0903 -0.2844
  162MOL0     C21767   3.085   4.051   2.217  0.5367 -0.7305 -0.4997
  162MOL0     C21768   3.095   4.147   2.106 -0.0145 -0.0905 -0.8680
  162MOL0     C21769   3.072   4.104   1.973 -0.6281 -0.2238 -0.1965
  162MOL0     O21770   3.066   4.185   1.863 -0.0536  0.3681  0.3460
  162MOL0     C21771   3.120   4.323   1.879 -0.6429 -0.3573 -0.9996
  162MOL0     C21772   3.134   4.397   1.753 -0.3821 -0.3133  0.0468
  162MOL0     C21773   3.176   4.540   1.778  0.4660 -0.7309  0.2107
  162MOL0     C21774   3.229   4.622   1.653 -0.0410 -0.2035 -0.7625
  162MOL0     C21775   3.267   4.764   1.695  0.4640 -0.7968  0.8655
  162MOL0     C21776   3.150   4.861   1.711 -0.2772 -0.5749  0.2738
  162MOL0     C21777   3.192   5.012   1.703 -0.8684  0.0630 -0.0212
  162MOL0     C21778   3.295   5.058   1.803  0.0230 -0.5831  0.6935
  162MOL0    Cl21779   3.239   5.035   1.965  0.1333  0.3057  0.1610
  162MOL0     C21780   3.062   3.964   1.952  0.2735  0.0247  0.5551
  162MOL0     C21781   3.059   3.875   2.061  0.3015  0.2064  0.1646
  162MOL0     O21782   3.169   3.669   2.218 -0.1797  0.9923 -0.5411
  162MOL0     C21783   2.944   3.652   2.504 -0.5696  0.4109  0.2339
  162MOL0     C21784   2.906   3.566   2.613  0.4861 -0.1594 -0.3239
  162MOL0     N21785   3.094   3.091   3.325  0.5545  0.1189  0.3842
  162MOL0     N21786   3.142   3.142   3.431  0.1679 -0.2542 -0.4803
  162MOL0     C21787   3.269   3.812   4.352 -0.1651  1.1585  0.1090
  162MOL0     C21788   3.241   3.781   4.489  0.2365  0.5491  0.2459
  162MOL0     C21789   3.205   3.630   4.877 -0.1175  1.0657  0.0566
  162MOL0     C21790   3.318   3.557   4.911  0.3462 -0.6103  0.4428
  162MOL0     C21791   3.321   3.475   5.023  0.3935  1.1509 -0.7612
  162MOL0     C21792   3.220   3.461   5.107 -0.6844  0.7545  0.2097
  162MOL0     O21793   3.225   3.393   5.220 -0.1180 -0.6611  0.0471
  162MOL0     C21794   3.342   3.319   5.254 -0.3571  0.6114 -0.2614
  162MOL0     C21795   3.310   3.240   5.383 -0.8029  0.7293 -0.7185
  162MOL0     C21796   3.348   3.332   5.501 -0.0760 -0.2050 -0.0813
  162MOL0     C21797   3.329   3.258   5.632 -0.3059  0.2003 -0.2588
  162MOL0     C21798   3.373   3.337   5.744  0.4172 -0.4063 -0.7032
  162MOL0     C21799   3.422   3.404   5.833  1.0569  0.6528  0.1532
  162MOL0     C21800   3.112   3.538   5.086 -0.5057 -0.0189  0.0821
  162MOL0     C21801   3.095   3.616   4.969  0.1286 -0.6073  1.2366
  162MOL0     C21802   2.956   3.675   4.946 -0.7877  0.3306 -0.6391
  162MOL0     H21803   3.555   3.842   4.611  1.7293 -0.1707 -1.6567
  162MOL0     H21804   3.599   3.900   4.380 -1.2780  3.3194 -0.0818
  162MOL0     H21805   3.419   3.668   4.135  0.5101  0.5681  0.4378
  162MOL0     H21806   3.297   3.766   4.064 -0.9266 -1.9740 -0.3817
  162MOL0     H21807   3.589   3.726   3.971 -1.6433 -2.9515  0.8359
  162MOL0     H21808   3.503   3.876   3.932 -3.2425  1.2812  2.6634
  162MOL0     H21809   3.465   3.757   3.749 -1.2702  0.5598 -0.3335
  162MOL0     H21810   3.314   3.737   3.834  0.9357  3.3835 -0.9220
  162MOL0     H21811   3.518   3.519   3.862 -0.6001 -0.4115  1.3841
  162MOL0     H21812   3.360   3.536   3.933  2.6180  1.7585  2.1564
  162MOL0     H21813   3.394   3.551   3.636  0.8007  3.0826  2.3829
  162MOL0     H21814   3.386   3.395   3.717  0.5229 -0.3295  0.8019
  162MOL0     H21815   3.158   3.501   3.819 -2.3540 -1.6741 -1.0393
  162MOL0     H21816   3.156   3.601   3.667  0.0432 -0.8655 -0.6314
  162MOL0     H21817   3.020   3.397   3.636  1.0244  2.5494  1.9256
  162MOL0     H21818   3.153   3.290   3.669 -2.3887 -0.0767  0.6460
  162MOL0     H21819   3.116   3.480   3.440 -4.4311  0.0246  0.7455
  162MOL0     H21820   3.279   3.404   3.476 -0.4455  0.5634  0.7182
  162MOL0     H21821   3.035   3.397   3.245 -2.2445 -0.7396 -0.2960
  162MOL0     H21822   3.019   3.045   3.076  1.8617  0.3083  1.4988
  162MOL0     H21823   2.863   3.124   3.135  0.7138 -2.1888  1.9814
  162MOL0     H21824   2.935   3.320   3.027 -0.4653 -0.0606 -2.8927
  162MOL0     H21825   3.099   3.258   2.988  1.5759  0.1321  2.4024
  162MOL0     H21826   2.832   3.182   2.886  0.3464  0.4935 -1.7623
  162MOL0     H21827   2.975   3.070   2.874  2.0901  1.0114 -1.8287
  162MOL0     H21828   2.916   3.169   2.665  0.1100  0.3000 -1.2192
  162MOL0     H21829   3.071   3.205   2.713 -0.9305 -1.0672 -4.4914
  162MOL0     H21830   3.105   3.310   2.522  4.3517  2.6202 -1.3841
  162MOL0     H21831   3.183   3.467   2.370 -0.5838 -3.3230  1.1207
  162MOL0     H21832   3.097   4.082   2.321  1.2839 -2.6944  0.0384
  162MOL0     H21833   3.110   4.253   2.126  0.5535 -0.9146  4.7885
  162MOL0     H21834   3.059   4.380   1.950  1.2302  0.0108  0.3826
  162MOL0     H21835   3.217   4.309   1.928 -0.6294  2.8639  0.0775
  162MOL0     H21836   3.224   4.341   1.729  3.3499  3.6627  3.1353
  162MOL0     H21837   3.046   4.391   1.687  0.2653 -0.7675 -0.7944
  162MOL0     H21838   3.087   4.588   1.820  0.1063 -2.4613  1.5461
  162MOL0     H21839   3.255   4.538   1.854  0.8316 -0.1936 -0.1504
  162MOL0     H21840   3.153   4.619   1.574  0.0502  0.2316 -0.8662
  162MOL0     H21841   3.317   4.564   1.622  1.4375  1.6404 -0.1689
  162MOL0     H21842   3.334   4.807   1.619  0.6807 -2.6428 -0.0509
  162MOL0     H21843   3.326   4.753   1.786  0.9057 -1.9383  0.4666
  162MOL0     H21844   3.075   4.842   1.634  0.1543 -1.3469  0.0368
  162MOL0     H21845   3.102   4.849   1.808  0.6585  0.2381  0.8572
  162MOL0     H21846   3.099   5.066   1.723  0.8076  2.5175  1.8053
  162MOL0     H21847   3.206   5.034   1.597 -0.6023  0.7266  0.1447
  162MOL0     H21848   3.380   4.991   1.787  1.6823  1.8562 -1.5209
  162MOL0     H21849   3.330   5.160   1.785  2.9747 -1.7751 -1.2120
  162MOL0     H21850   3.072   3.920   1.853 -0.8418 -0.5878  0.7041
  162MOL0     H21851   3.042   3.768   2.052 -0.7829  0.0605  2.9970
  162MOL0     H21852   2.893   3.746   2.485 -0.0038  0.4151 -1.3513
  162MOL0     H21853   2.822   3.586   2.679  1.3422  2.5454  0.0836
  162MOL0     H21854   3.181   3.822   4.289  0.5925  1.3930 -0.9206
  162MOL0     H21855   3.137   3.764   4.514 -0.3936  1.8405 -1.2895
  162MOL0     H21856   3.401   3.553   4.841 -0.3268 -3.0815 -0.3169
  162MOL0     H21857   3.416   3.425   5.030 -0.6239 -0.7296  0.3411
  162MOL0     H21858   3.438   3.369   5.266  0.0696 -0.4607  1.0423
  162MOL0     H21859   3.365   3.256   5.169 -0.0298  1.4389 -0.8009
  162MOL0     H21860   3.376   3.153   5.376  1.2926  1.9153  2.2002
  162MOL0     H21861   3.202   3.221   5.388 -0.4724 -1.0573  0.4017
  162MOL0     H21862   3.294   3.427   5.504 -0.3390 -0.3602  0.2153
  162MOL0     H21863   3.453   3.359   5.482 -1.0434  2.2617 -2.4757
  162MOL0     H21864   3.222   3.239   5.640 -0.0951 -1.4886 -0.9099
  162MOL0     H21865   3.386   3.165   5.636  1.6607  1.3848  1.2919
  162MOL0     H21866   3.458   3.474   5.905 -1.1623  1.2435  0.7805
  162MOL0     H21867   3.024   3.515   5.145 -0.6705  0.9211  0.2173
  162MOL0     H21868   2.907   3.637   4.856  0.6841 -1.8920 -0.5917
  162MOL0     H21869   2.894   3.653   5.033  0.7651 -2.4012 -0.1043
  162MOL0     H21870   2.963   3.783   4.927  4.2559  0.9477  2.7597
  163MOL0     O21871   3.409   8.208   5.494 -0.9880 -0.1048  0.3496
  163MOL0     C21872   3.442   8.223   5.610 -1.1928 -0.0482 -0.0748
  163MOL0     O21873   3.361   8.261   5.716 -0.5939 -0.3853 -0.1566
  163MOL0     C21874   3.226   8.242   5.713 -0.0714 -0.5937  1.0004
  163MOL0     C21875   3.148   8.359   5.704  0.0208 -0.8219 -0.2284
  163MOL0     C21876   3.008   8.360   5.687 -1.1950  0.7336 -0.1320
  163MOL0     C21877   2.942   8.230   5.667 -1.5395 -0.9608 -0.5590
  163MOL0     O21878   2.811   8.211   5.650  0.7649 -0.4733 -0.1272
  163MOL0     C21879   2.704   8.299   5.669  0.0524 -1.1540 -0.0881
  163MOL0     C21880   2.569   8.240   5.633 -1.0335  0.3726 -0.2660
  163MOL0     C21881   2.558   8.200   5.483 -0.5790 -0.7189  0.2827
  163MOL0     C21882   2.427   8.125   5.476 -0.0886 -0.2278  1.0445
  163MOL0     C21883   2.415   8.043   5.348  0.9886  0.4449  0.3144
  163MOL0     C21884   2.287   7.968   5.358  0.3081  0.6028  0.5481
  163MOL0     C21885   2.158   8.052   5.351  0.0757  0.5118  0.0777
  163MOL0     C21886   2.024   7.968   5.359 -0.1989 -0.1034  0.0354
  163MOL0     N21887   2.018   7.852   5.267 -1.2244  0.5405  1.3636
  163MOL0     C21888   2.059   7.726   5.295 -0.2774  0.5430 -1.2194
  163MOL0     C21889   1.989   7.663   5.203 -0.0672  0.5888  0.5444
  163MOL0     C21890   1.984   7.517   5.189  0.3705  1.2634 -1.0766
  163MOL0     C21891   2.111   7.432   5.195 -0.1074  0.0762  0.1493
  163MOL0     C21892   2.200   7.450   5.073 -1.1634  0.8996 -0.1970
  163MOL0     C21893   2.341   7.395   5.098  0.1237  0.5697 -0.3896
  163MOL0     O21894   2.341   7.263   5.149 -0.4330 -0.1523 -0.1912
  163MOL0     C21895   2.356   7.228   5.282 -0.5958  0.3748  0.4523
  163MOL0     C21896   2.367   7.096   5.311  0.2828  0.8539  0.8381
  163MOL0     C21897   2.380   7.054   5.444  0.0259 -0.6808  1.0308
  163MOL0     C21898   2.406   7.137   5.548  0.1882 -1.2451 -0.0016
  163MOL0     C21899   2.447   7.086   5.691  0.5998  0.1138 -0.5416
  163MOL0     O21900   2.443   6.961   5.711 -0.1376 -0.0654 -0.2280
  163MOL0     C21901   2.484   6.903   5.823 -0.3725  1.0170 -0.8238
  163MOL0     C21902   2.401   6.877   5.935  0.4042 -0.0573  0.4247
  163MOL0     C21903   2.450   6.812   6.050  0.3958  0.0035 -0.0931
  163MOL0     C21904   2.581   6.783   6.053  0.5129  0.8237  0.3574
  163MOL0     O21905   2.634   6.718   6.154 -0.5471 -0.0100  0.5502
  163MOL0     C21906   2.616   6.579   6.146 -0.1123  0.4890 -0.5210
  163MOL0     C21907   2.595   6.524   6.284 -0.1052  0.3411  0.2783
  163MOL0     C21908   2.572   6.370   6.290  0.4128  0.5615  0.1671
  163MOL0     C21909   2.556   6.321   6.441 -0.8153  0.0053 -0.7673
  163MOL0     C21910   2.682   6.329   6.537  0.1140  0.4096 -0.3492
  163MOL0     C21911   2.657   6.265   6.671 -0.2459 -0.0525  0.7226
  163MOL0     C21912   2.632   6.119   6.671  1.2647  0.1837  0.2407
  163MOL0     C21913   2.660   6.075   6.806 -0.3947  1.1656  0.9215
  163MOL0    Cl21914   2.644   5.896   6.803  0.7913  0.7089 -0.5749
  163MOL0     C21915   2.664   6.807   5.942 -0.3234 -0.2213 -0.4994
  163MOL0     C21916   2.617   6.870   5.828 -0.1223 -1.1316  0.0446
  163MOL0     O21917   2.472   7.169   5.779  0.6860 -0.1286 -0.3277
  163MOL0     C21918   2.389   7.275   5.526 -0.6953  0.2907 -0.1719
  163MOL0     C21919   2.378   7.319   5.392 -0.2084 -0.3044 -0.2116
  163MOL0     N21920   1.922   7.735   5.116  0.4100 -0.2316  0.3196
  163MOL0     N21921   1.936   7.855   5.154 -0.1608 -0.3498  0.0065
  163MOL0     C21922   3.022   8.114   5.683  0.3492 -0.2056 -0.3752
  163MOL0     C21923   3.159   8.119   5.709  0.2954 -0.7440  0.3388
  163MOL0     C21924   3.589   8.199   5.642 -0.8994  0.8273 -0.5509
  163MOL0     C21925   3.621   8.178   5.777  0.3777  0.0462  0.0558
  163MOL0     C21926   3.744   8.126   5.820  0.2216  0.4756 -0.2129
  163MOL0     C21927   3.854   8.115   5.732  0.5466  0.5090  0.3479
  163MOL0     O21928   3.970   8.045   5.756  0.2452  0.2419  0.6538
  163MOL0     C21929   3.974   7.947   5.860 -0.2542 -0.4932  0.4752
  163MOL0     C21930   3.984   7.812   5.808 -0.8633  0.1896  0.2459
  163MOL0     C21931   3.859   7.768   5.721 -1.2706  0.4402  0.1260
  163MOL0     C21932   3.883   7.630   5.664  0.2031  0.1534 -0.6024
  163MOL0     C21933   3.846   7.522   5.755  0.3113 -0.3837 -1.6019
  163MOL0     C21934   3.814   7.447   5.841 -0.9916  0.2000 -0.1298
  163MOL0     C21935   3.832   8.154   5.599 -0.1002 -0.1555 -0.1652
  163MOL0     C21936   3.703   8.198   5.556  0.4642  0.0626 -0.2367
  163MOL0     C21937   3.689   8.247   5.416 -0.5608 -0.8940  0.5170
  163MOL0     H21938   3.190   8.456   5.726 -3.5589  1.0185 -0.8562
  163MOL0     H21939   2.956   8.455   5.695 -0.7885  0.9456  0.0439
  163MOL0     H21940   2.715   8.324   5.775  2.3460 -0.5902 -0.4146
  163MOL0     H21941   2.726   8.382   5.602  0.5781 -3.1015 -2.4476
  163MOL0     H21942   2.485   8.306   5.659 -0.1023  1.6407 -0.3961
  163MOL0     H21943   2.553   8.152   5.696  0.5108  1.7079  2.1521
  163MOL0     H21944   2.648   8.144   5.454 -0.0634 -0.1619  0.7875
  163MOL0     H21945   2.546   8.294   5.428 -2.1508  1.7655  4.4296
  163MOL0     H21946   2.421   8.052   5.557 -0.3536 -1.9818 -0.4775
  163MOL0     H21947   2.350   8.200   5.497  1.4044  1.2776  1.3088
  163MOL0     H21948   2.407   8.112   5.264 -1.5042 -1.3303 -1.0414
  163MOL0     H21949   2.497   7.971   5.343  0.0893 -0.6074  0.3000
  163MOL0     H21950   2.285   7.883   5.290  1.2700 -0.6928  2.0560
  163MOL0     H21951   2.286   7.906   5.448  0.3841 -0.0189  0.1224
  163MOL0     H21952   2.161   8.108   5.257  1.3114  1.1248  0.4664
  163MOL0     H21953   2.155   8.123   5.435  0.1085 -0.0707  0.5781
  163MOL0     H21954   2.002   7.944   5.464  1.4115 -0.1682  0.3812
  163MOL0     H21955   1.949   8.045   5.341  2.3246  1.9141 -2.9233
  163MOL0     H21956   2.124   7.688   5.374  2.0670  0.8019 -2.9398
  163MOL0     H21957   1.926   7.492   5.279  0.9017 -0.6865 -1.2325
  163MOL0     H21958   1.919   7.480   5.109 -0.3906  2.0431 -0.8401
  163MOL0     H21959   2.170   7.461   5.283  3.4903 -1.3658 -1.6033
  163MOL0     H21960   2.080   7.328   5.197 -1.5229  0.3957 -2.0464
  163MOL0     H21961   2.195   7.554   5.039  2.6324  0.4646 -2.7344
  163MOL0     H21962   2.153   7.380   5.004 -1.2137  0.7518 -0.0130
  163MOL0     H21963   2.392   7.465   5.165  2.2175 -0.7495 -0.5201
  163MOL0     H21964   2.409   7.382   5.012  3.5497 -0.0709  2.1856
  163MOL0     H21965   2.356   7.021   5.233  0.9902  2.3432 -0.7725
  163MOL0     H21966   2.373   6.945   5.447  4.0237 -1.0955  0.3206
  163MOL0     H21967   2.295   6.898   5.925 -0.2047 -2.9258  0.1118
  163MOL0     H21968   2.381   6.807   6.134 -0.1949  0.7016 -0.5185
  163MOL0     H21969   2.531   6.551   6.083 -0.1190  1.3175 -0.8990
  163MOL0     H21970   2.713   6.542   6.113  0.1896  1.2495 -0.4947
  163MOL0     H21971   2.676   6.563   6.347 -1.0856  1.9591  0.6025
  163MOL0     H21972   2.506   6.569   6.329 -0.1657 -1.4598  2.0837
  163MOL0     H21973   2.474   6.349   6.247  0.4072  0.4168  0.2488
  163MOL0     H21974   2.651   6.313   6.240  1.0482 -1.8302  3.5339
  163MOL0     H21975   2.535   6.214   6.441  2.2243 -0.6877 -0.9748
  163MOL0     H21976   2.471   6.367   6.493  0.1577  1.1473 -0.1422
  163MOL0     H21977   2.711   6.433   6.555  0.7851 -0.0916  1.6136
  163MOL0     H21978   2.758   6.273   6.483  0.1039  1.3601 -1.3930
  163MOL0     H21979   2.753   6.294   6.715  2.3728 -4.0857 -1.7125
  163MOL0     H21980   2.567   6.316   6.708 -2.4203 -3.6945  0.8956
  163MOL0     H21981   2.697   6.071   6.597 -2.3141 -2.6312 -1.3534
  163MOL0     H21982   2.526   6.103   6.651  0.7553  1.7088  1.5169
  163MOL0     H21983   2.759   6.109   6.837  0.6230  0.7019 -1.5881
  163MOL0     H21984   2.580   6.113   6.870 -1.2672  1.3653 -0.2562
  163MOL0     H21985   2.767   6.773   5.949 -0.0518  0.7006  0.1420
  163MOL0     H21986   2.669   6.924   5.750 -1.3743 -0.0222 -0.0533
  163MOL0     H21987   2.393   7.347   5.607 -1.2309  1.0148 -0.7858
  163MOL0     H21988   2.391   7.425   5.373  5.3758 -0.0507  2.8203
  163MOL0     H21989   2.971   8.030   5.637 -0.2682 -0.1071  0.1115
  163MOL0     H21990   3.200   8.021   5.687  0.7119 -0.2625 -1.1939
  163MOL0     H21991   3.545   8.197   5.853 -0.3678 -4.5171  0.7015
  163MOL0     H21992   3.745   8.099   5.925 -5.1951 -3.6928 -0.7204
  163MOL0     H21993   3.890   7.942   5.930  0.9791  0.9719  2.1569
  163MOL0     H21994   4.061   7.960   5.925 -2.7462  0.3226  3.9562
  163MOL0     H21995   3.995   7.741   5.890 -3.0270 -0.8856 -0.3122
  163MOL0     H21996   4.070   7.813   5.740 -0.0645 -2.5381  1.0940
  163MOL0     H21997   3.844   7.831   5.632  0.6474 -1.9258 -2.0320
  163MOL0     H21998   3.769   7.777   5.783 -0.6775 -0.6658  1.1742
  163MOL0     H21999   3.832   7.611   5.569 -1.7133 -2.1787  0.7710
  163MOL0     H22000   3.988   7.627   5.634  0.2246 -0.0854 -0.5055
  163MOL0     H22001   3.789   7.375   5.917 -0.3884  0.7361  0.5932
  163MOL0     H22002   3.905   8.152   5.519 -0.8111  1.1581 -0.8824
  163MOL0     H22003   3.608   8.319   5.398 -1.5539 -1.6835  1.7482
  163MOL0     H22004   3.782   8.290   5.377  0.8956 -0.5730  3.9886
  163MOL0     H22005   3.663   8.155   5.364  0.7606 -2.2920  2.2205
  164MOL0     O22006   2.387   2.230   1.348  0.3459  0.7013  0.5821
  164MOL0     C22007   2.475   2.250   1.263  1.9984  0.3992 -0.3142
  164MOL0     O22008   2.532   2.375   1.235 -0.5957  0.1708 -0.0897
  164MOL0     C22009   2.615   2.426   1.318  0.1214  0.1676  0.5329
  164MOL0     C22010   2.660   2.383   1.452 -1.0556  0.5002  0.4401
  164MOL0     C22011   2.761   2.443   1.521  0.0765  0.1344 -0.4803
  164MOL0     C22012   2.807   2.569   1.466 -0.4185  0.6562 -0.0370
  164MOL0     O22013   2.877   2.634   1.555 -0.2521  0.2017  0.3293
  164MOL0     C22014   3.009   2.668   1.509  0.2196  0.2098 -0.0941
  164MOL0     C22015   3.077   2.778   1.593 -0.0199 -0.3683 -0.2575
  164MOL0     C22016   3.218   2.821   1.532  1.2972  0.4889  0.2802
  164MOL0     C22017   3.208   2.923   1.420  0.4597 -0.6559  0.0557
  164MOL0     C22018   3.283   2.858   1.295 -0.8649  0.1429 -0.5620
  164MOL0     C22019   3.263   2.929   1.160  0.6327 -0.3707  0.8960
  164MOL0     C22020   3.345   2.878   1.047  0.1305 -0.3396 -1.0783
  164MOL0     C22021   3.291   2.740   0.989 -0.3369  0.3292  0.0229
  164MOL0     N22022   3.146   2.723   0.962  0.9097  0.2774  0.1853
  164MOL0     C22023   3.089   2.775   0.842 -0.2088 -0.3327  0.2711
  164MOL0     C22024   2.979   2.709   0.828  0.2000  0.5281  0.3011
  164MOL0     C22025   2.857   2.749   0.745 -0.0778  0.0168  0.5321
  164MOL0     C22026   2.776   2.842   0.827 -0.2197  0.4977 -0.6324
  164MOL0     C22027   2.684   2.766   0.923  1.0227  0.9459  0.3241
  164MOL0     C22028   2.565   2.850   0.961  0.2722  0.4066 -1.2979
  164MOL0     O22029   2.476   2.879   0.858  0.0689  0.2624  0.1272
  164MOL0     C22030   2.401   2.991   0.856  0.0621  0.0969  0.3119
  164MOL0     C22031   2.366   3.066   0.978  0.1645  0.1310 -0.1880
  164MOL0     C22032   2.276   3.177   0.961  0.3695 -0.6228 -0.1061
  164MOL0     C22033   2.216   3.190   0.827  0.3246 -0.3039  0.4435
  164MOL0     C22034   2.117   3.301   0.812 -0.8780  0.0777  0.3135
  164MOL0     O22035   2.158   3.423   0.863  0.8195  0.3292  0.3175
  164MOL0     C22036   2.092   3.539   0.806 -0.1331  0.7492 -1.0085
  164MOL0     C22037   2.042   3.643   0.886  0.1077 -0.9977 -0.7156
  164MOL0     C22038   1.996   3.763   0.838  0.5571  0.0751 -0.6943
  164MOL0     C22039   2.002   3.784   0.701 -0.3540 -0.5867  0.0659
  164MOL0     O22040   1.964   3.898   0.628 -1.3156  0.6757 -0.1661
  164MOL0     C22041   1.962   4.028   0.695  0.7893  0.9470  0.9523
  164MOL0     C22042   1.974   4.139   0.588 -0.8502  0.0013  0.2959
  164MOL0     C22043   1.884   4.122   0.468  0.8190  1.8193  0.2208
  164MOL0     C22044   1.894   4.237   0.363  0.0640 -0.3817  0.4767
  164MOL0     C22045   1.784   4.235   0.246 -0.4493 -0.1227  0.1043
  164MOL0     C22046   1.784   4.371   0.175 -0.3260 -1.2571  0.4783
  164MOL0     C22047   1.673   4.470   0.215  0.0677  0.2329  0.7019
  164MOL0     C22048   1.703   4.614   0.216  0.7798  0.6703  0.3637
  164MOL0    Cl22049   1.838   4.646   0.322  0.1788 -0.4151  0.0709
  164MOL0     C22050   2.061   3.685   0.628  0.5176 -0.8210 -0.1743
  164MOL0     C22051   2.103   3.561   0.674 -0.5459  0.4767 -0.6052
  164MOL0     O22052   2.026   3.283   0.729 -0.2784 -0.0157  0.0003
  164MOL0     C22053   2.250   3.116   0.718 -0.1409 -0.0054 -1.1338
  164MOL0     C22054   2.340   3.012   0.736 -0.4069 -0.3562 -0.4126
  164MOL0     N22055   2.982   2.600   0.928 -0.1572 -0.1323  0.3194
  164MOL0     N22056   3.074   2.617   1.014 -0.9156 -0.1907  0.1708
  164MOL0     C22057   2.761   2.624   1.352 -0.5100 -0.0344  1.0635
  164MOL0     C22058   2.670   2.546   1.276 -0.2595  0.4914 -0.4635
  164MOL0     C22059   2.518   2.135   1.174 -0.2161 -0.5724 -0.4129
  164MOL0     C22060   2.611   2.165   1.069 -0.5283 -0.0596  0.0315
  164MOL0     C22061   2.669   2.075   0.989  0.3267  0.3216  0.2407
  164MOL0     C22062   2.635   1.941   1.011 -0.0697 -0.1424  0.4585
  164MOL0     O22063   2.691   1.843   0.933 -0.6238 -0.7305  0.3257
  164MOL0     C22064   2.809   1.788   0.984  0.4524 -0.0847 -1.0186
  164MOL0     C22065   2.917   1.834   0.895  0.0855  0.9987  0.0997
  164MOL0     C22066   2.965   1.979   0.904  0.4000 -0.0518  0.2582
  164MOL0     C22067   3.111   1.979   0.872 -0.1794 -0.4384  0.1293
  164MOL0     C22068   3.159   2.121   0.889  0.0647 -0.7094 -0.3151
  164MOL0     C22069   3.189   2.240   0.896  0.3210 -0.4197  0.1513
  164MOL0     C22070   2.557   1.902   1.112  0.7880  0.2855 -0.4626
  164MOL0     C22071   2.492   2.000   1.193 -0.4396  0.4992 -0.2824
  164MOL0     C22072   2.394   1.948   1.285 -0.9974  1.2917  0.1062
  164MOL0     H22073   2.609   2.294   1.488 -2.0890 -0.5434 -3.1148
  164MOL0     H22074   2.791   2.394   1.613  3.1342 -0.6968 -1.8132
  164MOL0     H22075   3.059   2.572   1.521 -1.8225 -0.8637  0.1569
  164MOL0     H22076   3.001   2.700   1.405 -2.6235 -1.5491 -0.5166
  164MOL0     H22077   3.099   2.744   1.695  1.1303 -0.8444 -0.6513
  164MOL0     H22078   3.007   2.860   1.612  1.5574  1.6593 -2.5939
  164MOL0     H22079   3.266   2.725   1.508 -0.8378 -1.4459  3.0062
  164MOL0     H22080   3.276   2.876   1.607 -0.3307 -1.1540  2.9638
  164MOL0     H22081   3.105   2.938   1.387  1.9313  1.4433 -4.3612
  164MOL0     H22082   3.221   3.021   1.466 -3.7411 -0.1927  0.6657
  164MOL0     H22083   3.389   2.857   1.325 -1.4766 -0.4323  1.8601
  164MOL0     H22084   3.239   2.759   1.277 -0.8357 -1.0239  4.2970
  164MOL0     H22085   3.156   2.937   1.137  1.4818  0.3540 -3.7449
  164MOL0     H22086   3.301   3.031   1.168 -4.5268  2.1143 -1.3977
  164MOL0     H22087   3.445   2.856   1.086  0.5982  2.1949 -0.7187
  164MOL0     H22088   3.345   2.962   0.977 -0.3671  1.4897  0.9968
  164MOL0     H22089   3.345   2.706   0.900 -0.8095 -1.5797  0.4132
  164MOL0     H22090   3.317   2.670   1.069 -0.2138  0.0749 -0.2353
  164MOL0     H22091   3.106   2.865   0.784  0.5201 -0.1326  0.7685
  164MOL0     H22092   2.900   2.798   0.657  0.8564 -1.2035  0.2804
  164MOL0     H22093   2.798   2.662   0.714 -1.7569  0.6244  1.8256
  164MOL0     H22094   2.849   2.902   0.882  0.7258 -2.6713  1.8676
  164MOL0     H22095   2.717   2.899   0.755  2.1898  2.4850 -1.1606
  164MOL0     H22096   2.734   2.748   1.019 -1.3336  1.8865  1.8085
  164MOL0     H22097   2.657   2.667   0.885  1.3499  0.7732  0.5386
  164MOL0     H22098   2.613   2.944   0.988  1.8937 -0.3236 -1.4658
  164MOL0     H22099   2.513   2.808   1.048 -0.2897  1.6370 -1.0308
  164MOL0     H22100   2.405   3.033   1.074 -0.3353  1.3989  0.4682
  164MOL0     H22101   2.242   3.247   1.036  2.0796 -0.4967  0.5909
  164MOL0     H22102   2.032   3.632   0.993 -0.1947  1.1293 -0.4808
  164MOL0     H22103   1.956   3.847   0.894  0.0771 -1.3831  1.2487
  164MOL0     H22104   1.860   4.029   0.735  0.1910  0.5414 -0.5089
  164MOL0     H22105   2.039   4.033   0.773  2.7826  1.2783 -0.9355
  164MOL0     H22106   1.955   4.240   0.627 -0.1411 -0.5945  2.3421
  164MOL0     H22107   2.082   4.140   0.569 -0.5839 -2.5855  1.2542
  164MOL0     H22108   1.921   4.030   0.421 -2.1450  0.7750 -0.2826
  164MOL0     H22109   1.781   4.100   0.497  0.3932  2.7154 -0.5545
  164MOL0     H22110   1.996   4.245   0.323  0.6039 -0.7131  1.7299
  164MOL0     H22111   1.884   4.337   0.407 -0.7831  0.0401 -0.6326
  164MOL0     H22112   1.687   4.229   0.296 -0.7303  2.0000 -0.1126
  164MOL0     H22113   1.818   4.152   0.184 -1.4431 -0.1575 -0.4200
  164MOL0     H22114   1.883   4.414   0.189  0.2758 -1.4177 -2.5167
  164MOL0     H22115   1.783   4.354   0.067  1.3879 -1.8207  0.5114
  164MOL0     H22116   1.644   4.426   0.311 -2.7237 -1.6464 -0.8592
  164MOL0     H22117   1.590   4.463   0.144  2.0372  0.0681 -1.7289
  164MOL0     H22118   1.735   4.651   0.119 -1.6830  1.4013 -0.2546
  164MOL0     H22119   1.614   4.674   0.239 -0.7552  0.0686 -3.2434
  164MOL0     H22120   2.073   3.704   0.522 -1.0662 -2.6695 -0.7241
  164MOL0     H22121   2.141   3.485   0.606  1.8718  1.1256 -0.0837
  164MOL0     H22122   2.215   3.138   0.617  0.4559 -2.7402 -2.0303
  164MOL0     H22123   2.368   2.947   0.654 -0.4711  0.5767 -1.1915
  164MOL0     H22124   2.785   2.727   1.331  0.0161 -0.7589 -2.5443
  164MOL0     H22125   2.619   2.603   1.198 -2.2572 -3.2421 -2.1666
  164MOL0     H22126   2.643   2.268   1.057  0.7096 -0.2087  1.7453
  164MOL0     H22127   2.737   2.115   0.914  3.3920 -2.3630  1.3553
  164MOL0     H22128   2.810   1.679   0.990 -4.0326 -0.2647  0.7265
  164MOL0     H22129   2.827   1.836   1.081 -0.6904  2.1297 -1.8327
  164MOL0     H22130   2.889   1.816   0.791  0.6871 -2.0865  0.3654
  164MOL0     H22131   2.999   1.765   0.920 -0.1743  1.4228  2.3692
  164MOL0     H22132   2.938   2.035   0.994  0.7109  0.5159  0.0031
  164MOL0     H22133   2.913   2.025   0.820 -1.0687 -2.6127 -0.3348
  164MOL0     H22134   3.162   1.907   0.937 -1.1551 -3.0836 -1.8626
  164MOL0     H22135   3.121   1.943   0.769 -1.7376 -0.8496  0.0976
  164MOL0     H22136   3.210   2.343   0.917 -2.5303  0.0687  0.9599
  164MOL0     H22137   2.536   1.795   1.115 -0.9273  0.5848  2.8991
  164MOL0     H22138   2.400   1.993   1.385  2.4980 -0.5843  0.8928
  164MOL0     H22139   2.289   1.954   1.256 -1.9817 -2.3213  2.2475
  164MOL0     H22140   2.417   1.842   1.298  0.2147  1.5902  0.5013
  165MOL0     O22141   3.908  11.372  11.240  0.1105  0.0665  0.3419
  165MOL0     C22142   3.956  11.301  11.327 -0.5637  0.0110  0.3779
  165MOL0     O22143   4.024  11.352  11.442 -0.0181 -0.5187  0.0680
  165MOL0     C22144   4.017  11.489  11.452 -0.2216  0.0008 -0.2606
  165MOL0     C22145   4.127  11.571  11.421  0.3388  0.1043  0.2859
  165MOL0     C22146   4.111  11.710  11.430  0.7585 -0.1738  0.4294
  165MOL0     C22147   3.982  11.766  11.468  0.0272  0.1305  0.5532
  165MOL0     O22148   3.951  11.895  11.486  0.3580 -0.0223 -0.0406
  165MOL0     C22149   4.005  11.986  11.386 -0.1415  0.5430  0.1662
  165MOL0     C22150   3.939  12.125  11.427  0.3645  0.5918  1.0743
  165MOL0     C22151   3.788  12.110  11.427  0.3264 -0.6656  0.2159
  165MOL0     C22152   3.721  12.252  11.412  0.9229 -0.3554  0.7741
  165MOL0     C22153   3.562  12.233  11.403 -0.0883 -0.3889 -0.1185
  165MOL0     C22154   3.496  12.373  11.344 -1.2313  1.4742  0.4160
  165MOL0     C22155   3.339  12.368  11.354 -1.1010 -0.2612  1.0891
  165MOL0     C22156   3.293  12.226  11.296  0.0781 -1.0495 -0.0340
  165MOL0     N22157   3.141  12.223  11.275 -0.3496 -0.1634  0.1174
  165MOL0     C22158   3.073  12.286  11.174 -0.4209 -0.6515  0.4386
  165MOL0     C22159   2.950  12.257  11.177  0.2754 -0.3429 -0.3793
  165MOL0     C22160   2.836  12.302  11.097  0.6213  0.2644  0.4674
  165MOL0     C22161   2.789  12.443  11.126  0.5118  0.2266 -0.0443
  165MOL0     C22162   2.664  12.476  11.058 -0.3200  0.5628  0.0548
  165MOL0     C22163   2.614  12.624  11.061 -1.5355  0.6861 -0.8258
  165MOL0     O22164   2.601  12.655  11.206  0.1059 -0.1501  0.1883
  165MOL0     C22165   2.475  12.667  11.252  0.0274 -0.6017 -0.4374
  165MOL0     C22166   2.456  12.781  11.330 -0.7618 -0.5868  0.1340
  165MOL0     C22167   2.330  12.799  11.398 -0.0542 -1.1490 -0.5138
  165MOL0     C22168   2.231  12.700  11.393  0.2201 -1.2784 -0.2751
  165MOL0     C22169   2.108  12.715  11.472  0.5609  0.6374 -0.4049
  165MOL0     O22170   2.110  12.780  11.592  0.3387  0.1982 -0.3021
  165MOL0     C22171   1.997  12.775  11.665  0.6913  1.2455 -0.9314
  165MOL0     C22172   1.947  12.895  11.730  0.4140  0.2437 -0.5129
  165MOL0     C22173   1.838  12.901  11.812  0.9571  0.5338 -0.4363
  165MOL0     C22174   1.775  12.790  11.847  0.4016  1.0778 -0.4035
  165MOL0     O22175   1.668  12.808  11.941 -0.1639 -0.6258  0.0929
  165MOL0     C22176   1.559  12.724  11.932  0.7267  0.7015 -0.3991
  165MOL0     C22177   1.557  12.599  12.030  0.4927  0.1190 -0.4089
  165MOL0     C22178   1.507  12.647  12.171  0.1727  0.4026 -0.8139
  165MOL0     C22179   1.494  12.531  12.279  1.4747 -1.1285  0.9590
  165MOL0     C22180   1.459  12.579  12.421  0.8838 -0.5002 -0.0372
  165MOL0     C22181   1.486  12.463  12.511 -0.2409  0.3280 -0.4448
  165MOL0     C22182   1.498  12.502  12.657  0.1228  0.4551 -0.0420
  165MOL0     C22183   1.362  12.552  12.705  0.1169 -0.6470  0.0349
  165MOL0    Cl22184   1.252  12.415  12.723  0.2326 -0.2892  0.1554
  165MOL0     C22185   1.818  12.670  11.796 -0.1109 -0.3219  0.5535
  165MOL0     C22186   1.936  12.657  11.715  1.0747  0.7356 -0.1973
  165MOL0     O22187   2.017  12.632  11.436 -0.0516  0.7536 -0.0051
  165MOL0     C22188   2.251  12.592  11.315 -0.4257 -0.8050 -0.0672
  165MOL0     C22189   2.373  12.575  11.234 -0.8217  0.7088 -0.9899
  165MOL0     N22190   2.940  12.158  11.273  0.0940 -1.0593  0.4229
  165MOL0     N22191   3.052  12.132  11.324 -0.2167 -0.4953 -0.1241
  165MOL0     C22192   3.871  11.679  11.493  0.2675  0.1492  1.3828
  165MOL0     C22193   3.889  11.546  11.497  0.5491 -0.5289 -0.8356
  165MOL0     C22194   3.962  11.156  11.295 -0.1418 -0.0866  0.6542
  165MOL0     C22195   4.015  11.073  11.397  0.1142 -0.2368  0.1331
  165MOL0     C22196   4.019  10.926  11.396  0.1582 -0.2844 -0.4447
  165MOL0     C22197   3.967  10.867  11.285 -0.5853 -0.1462 -0.4435
  165MOL0     O22198   3.964  10.724  11.277 -0.2929  0.3231  0.6028
  165MOL0     C22199   4.093  10.674  11.247 -0.5924 -0.5327  0.3260
  165MOL0     C22200   4.162  10.605  11.364 -0.7277 -0.0062 -0.8017
  165MOL0     C22201   4.280  10.512  11.323  0.3524 -0.3229 -0.7241
  165MOL0     C22202   4.351  10.453  11.438 -0.0719 -0.4337  0.5417
  165MOL0     C22203   4.469  10.376  11.397  0.8784  0.9929 -1.0881
  165MOL0     C22204   4.570  10.322  11.350  0.2415  0.1366  0.8887
  165MOL0     C22205   3.915  10.942  11.182 -0.2285 -0.4613 -1.8477
  165MOL0     C22206   3.914  11.093  11.183 -0.2723  0.8057  0.7736
  165MOL0     C22207   3.837  11.153  11.060  1.1380 -0.4284 -0.3663
  165MOL0     H22208   4.220  11.521  11.397 -0.3154 -0.2822 -1.6431
  165MOL0     H22209   4.189  11.782  11.408  0.2386  0.4099  0.4462
  165MOL0     H22210   4.114  11.991  11.394 -0.3210  1.2168  3.3246
  165MOL0     H22211   3.968  11.964  11.285  2.7155  1.7167 -1.2467
  165MOL0     H22212   3.983  12.196  11.356  2.1938 -1.7276 -0.2681
  165MOL0     H22213   3.979  12.153  11.525  2.4989 -0.8398  0.6959
  165MOL0     H22214   3.738  12.079  11.519 -0.8569  2.1408  0.6049
  165MOL0     H22215   3.753  12.042  11.348 -2.4631 -0.6011  1.2823
  165MOL0     H22216   3.734  12.323  11.494 -2.2482 -0.3422  1.4100
  165MOL0     H22217   3.757  12.301  11.322  0.1672 -0.0094  0.6493
  165MOL0     H22218   3.541  12.154  11.331 -0.9111  1.3839 -1.9348
  165MOL0     H22219   3.520  12.223  11.503  0.1965  2.9244  0.4613
  165MOL0     H22220   3.527  12.466  11.393 -0.8135 -0.0185  3.1463
  165MOL0     H22221   3.519  12.375  11.237  0.8112  0.2329  0.7724
  165MOL0     H22222   3.292  12.452  11.303 -2.6968 -2.0110 -0.5236
  165MOL0     H22223   3.315  12.370  11.461 -0.5494  0.4805  1.2070
  165MOL0     H22224   3.349  12.216  11.202 -0.8735 -0.9476 -0.6196
  165MOL0     H22225   3.324  12.159  11.376 -0.7241 -2.7531 -1.1125
  165MOL0     H22226   3.115  12.359  11.105 -0.4397  0.3696  1.4739
  165MOL0     H22227   2.849  12.298  10.989  0.4415  1.3949  0.3931
  165MOL0     H22228   2.751  12.233  11.106 -1.4368  2.2947 -2.0679
  165MOL0     H22229   2.765  12.467  11.230 -3.6855  2.8537 -1.3820
  165MOL0     H22230   2.871  12.507  11.092 -0.5465  0.0040 -3.3450
  165MOL0     H22231   2.587  12.400  11.071 -3.2821  3.4433  0.4937
  165MOL0     H22232   2.673  12.462  10.950 -2.6367  1.0021 -0.2443
  165MOL0     H22233   2.515  12.633  11.013 -0.9153 -0.9231 -2.5404
  165MOL0     H22234   2.687  12.698  11.028 -0.3024  0.7358  1.8253
  165MOL0     H22235   2.542  12.847  11.327 -1.2906  0.0734 -2.2279
  165MOL0     H22236   2.300  12.893  11.443  2.4471 -0.4835 -0.0597
  165MOL0     H22237   1.996  12.989  11.707 -3.2522  2.7196  0.8660
  165MOL0     H22238   1.800  12.997  11.844  1.0654  0.3729  0.1792
  165MOL0     H22239   1.465  12.779  11.947 -0.9786 -1.9056 -0.9308
  165MOL0     H22240   1.548  12.707  11.824 -0.9580  1.4297 -0.3861
  165MOL0     H22241   1.483  12.527  11.994  1.3788 -1.0260  0.0031
  165MOL0     H22242   1.650  12.542  12.033  0.4863  0.0541 -1.1776
  165MOL0     H22243   1.565  12.733  12.206  0.4588  0.0494 -0.4074
  165MOL0     H22244   1.408  12.682  12.142  0.3736  0.6745 -1.1871
  165MOL0     H22245   1.583  12.469  12.280  2.9686  0.8599 -0.4452
  165MOL0     H22246   1.411  12.469  12.242  1.1030  0.6129 -1.3574
  165MOL0     H22247   1.351  12.595  12.416  1.1031  0.5621 -2.1729
  165MOL0     H22248   1.519  12.663  12.456  0.9348 -0.2540 -0.7010
  165MOL0     H22249   1.410  12.386  12.498 -0.3876  0.3935  0.0140
  165MOL0     H22250   1.582  12.416  12.489  0.4131  0.4353  1.8878
  165MOL0     H22251   1.575  12.577  12.675  0.5403 -0.0287  0.2357
  165MOL0     H22252   1.529  12.417  12.718 -0.1044  0.7798  0.5289
  165MOL0     H22253   1.365  12.621  12.789 -3.2207 -1.9273  1.3998
  165MOL0     H22254   1.318  12.607  12.621 -1.1144 -3.1654 -1.0923
  165MOL0     H22255   1.759  12.580  11.809 -1.2491  0.4051  0.4853
  165MOL0     H22256   1.983  12.566  11.679 -1.1372 -0.0253 -1.3295
  165MOL0     H22257   2.189  12.504  11.299  1.3297 -1.6443 -2.8026
  165MOL0     H22258   2.376  12.496  11.159 -0.5425 -0.0429 -0.2070
  165MOL0     H22259   3.782  11.734  11.523 -0.4906 -0.1184 -0.2642
  165MOL0     H22260   3.814  11.476  11.533 -0.2944  1.1831  0.9062
  165MOL0     H22261   4.050  11.134  11.480 -0.7050 -0.2344  0.4762
  165MOL0     H22262   4.057  10.873  11.483  1.4301  2.2109  0.6220
  165MOL0     H22263   4.150  10.763  11.219 -3.0962  0.6383 -1.4964
  165MOL0     H22264   4.094  10.606  11.160  1.4242  1.0653 -1.0009
  165MOL0     H22265   4.089  10.543  11.416  0.6318 -2.1274 -1.3144
  165MOL0     H22266   4.197  10.677  11.439  1.7098 -1.6424 -0.2351
  165MOL0     H22267   4.352  10.564  11.260  0.5516  2.2677  1.4577
  165MOL0     H22268   4.237  10.429  11.265  0.2157 -2.1128  1.7915
  165MOL0     H22269   4.400  10.529  11.500  3.6294 -0.1616 -2.3680
  165MOL0     H22270   4.279  10.384  11.485 -0.1378 -2.8090 -2.6768
  165MOL0     H22271   4.657  10.267  11.320 -0.2503 -0.2773  0.1814
  165MOL0     H22272   3.859  10.890  11.105 -5.4457  3.4378 -1.2591
  165MOL0     H22273   3.728  11.143  11.072  1.5347 -2.7338  2.9086
  165MOL0     H22274   3.872  11.253  11.034 -1.4846  1.1212  1.4663
  165MOL0     H22275   3.865  11.096  10.972  4.4432 -1.3116  1.1016
  166MOL0     O22276   2.035   8.198   8.197  0.4962  0.2522 -0.2148
  166MOL0     C22277   1.974   8.096   8.179  0.2821 -0.1178 -0.6036
  166MOL0     O22278   1.843   8.076   8.212 -0.1772 -0.1401  0.5541
  166MOL0     C22279   1.772   8.182   8.257 -0.9357 -0.2882 -0.0184
  166MOL0     C22280   1.755   8.295   8.172  0.2183 -0.6735  1.4623
  166MOL0     C22281   1.683   8.401   8.219  0.1513 -0.8943  0.2597
  166MOL0     C22282   1.627   8.401   8.350 -0.4538  1.0305 -0.5155
  166MOL0     O22283   1.557   8.510   8.386  0.2954 -0.2315  0.5444
  166MOL0     C22284   1.528   8.528   8.524 -0.1077  0.2025  1.1779
  166MOL0     C22285   1.462   8.667   8.543 -0.1996 -0.9013 -1.4904
  166MOL0     C22286   1.414   8.673   8.685  0.7168 -1.1654 -0.4929
  166MOL0     C22287   1.360   8.817   8.721 -0.6189  0.4015  0.1925
  166MOL0     C22288   1.344   8.826   8.873  0.9266  0.0922 -0.5074
  166MOL0     C22289   1.333   8.970   8.933 -0.3956  0.0601  0.5107
  166MOL0     C22290   1.467   9.001   8.997 -1.1284 -0.7631 -0.7219
  166MOL0     C22291   1.463   9.140   9.070  0.3724  0.5134 -0.6597
  166MOL0     N22292   1.429   9.256   8.985 -0.9294  0.1805  0.2037
  166MOL0     C22293   1.319   9.309   8.954  0.5433  1.3246  0.3281
  166MOL0     C22294   1.338   9.407   8.864 -1.2352 -0.2628 -0.0645
  166MOL0     C22295   1.246   9.511   8.818 -0.5533 -0.1483 -0.8109
  166MOL0     C22296   1.137   9.466   8.721 -0.5981  0.7473 -0.9531
  166MOL0     C22297   1.069   9.587   8.648  0.1186  0.1660 -0.2180
  166MOL0     C22298   0.957   9.532   8.549 -0.4685  0.3904  1.2748
  166MOL0     O22299   1.013   9.454   8.437  0.1576  0.3016 -0.3292
  166MOL0     C22300   0.915   9.394   8.373  0.6054 -0.2681 -0.3853
  166MOL0     C22301   0.930   9.265   8.325 -0.0073 -0.2082  0.1154
  166MOL0     C22302   0.833   9.197   8.259  0.1455  0.5131  0.9445
  166MOL0     C22303   0.716   9.253   8.223  0.2495 -0.5462 -0.0860
  166MOL0     C22304   0.617   9.186   8.131 -0.8923  0.7619  0.6722
  166MOL0     O22305   0.618   9.047   8.121  0.1680  0.1817  0.6530
  166MOL0     C22306   0.513   8.973   8.064  0.4057 -0.1929 -0.1126
  166MOL0     C22307   0.372   8.998   8.094 -0.7063 -0.4608 -0.0160
  166MOL0     C22308   0.274   8.917   8.036  0.2933 -0.3042 -0.2628
  166MOL0     C22309   0.305   8.800   7.973 -0.8955 -0.7644  0.1369
  166MOL0     O22310   0.215   8.713   7.936 -0.3073  0.1527  0.3470
  166MOL0     C22311   0.172   8.721   7.798 -0.1746  0.1720  0.1182
  166MOL0     C22312   0.067   8.833   7.759 -0.0110  0.2839  0.1716
  166MOL0     C22313  -0.060   8.806   7.840  0.5279  0.9648  0.2014
  166MOL0     C22314  -0.177   8.894   7.792  0.4008  0.1940 -0.1537
  166MOL0     C22315  -0.302   8.800   7.777 -0.4238  0.0613 -0.0594
  166MOL0     C22316  -0.358   8.736   7.905 -0.1487  0.3027 -0.9236
  166MOL0     C22317  -0.477   8.647   7.877 -0.4642  0.4865  0.5061
  166MOL0     C22318  -0.522   8.585   8.003 -0.3329  0.8661 -0.6812
  166MOL0    Cl22319  -0.658   8.483   7.947  0.1541  0.0890  0.4254
  166MOL0     C22320   0.445   8.780   7.951 -1.5321  0.6829 -0.4600
  166MOL0     C22321   0.539   8.862   7.997  0.0250  0.6012  0.7962
  166MOL0     O22322   0.530   9.255   8.078 -0.5258 -0.4768 -0.0346
  166MOL0     C22323   0.696   9.389   8.260  0.5464  0.6262  0.2217
  166MOL0     C22324   0.794   9.461   8.332 -0.2791 -0.8130  0.6859
  166MOL0     N22325   1.472   9.411   8.839 -0.1747  0.7265  0.8531
  166MOL0     N22326   1.526   9.320   8.911 -0.1078 -0.0746 -0.4200
  166MOL0     C22327   1.661   8.303   8.446 -1.1271  0.9147  0.6455
  166MOL0     C22328   1.728   8.190   8.393  0.9430  0.2782 -0.1245
  166MOL0     C22329   2.047   7.982   8.119 -0.1592  0.2184  0.0868
  166MOL0     C22330   1.984   7.854   8.132  0.1629  0.4042  0.9721
  166MOL0     C22331   2.044   7.738   8.084  0.7773  0.2272 -1.4326
  166MOL0     C22332   2.165   7.736   8.016  0.4049 -0.0817 -0.1626
  166MOL0     O22333   2.204   7.623   7.961 -0.0548 -0.2015 -0.3505
  166MOL0     C22334   2.344   7.603   7.925  0.8386  0.5750 -0.2299
  166MOL0     C22335   2.409   7.554   8.051 -0.3222 -1.2476  0.1526
  166MOL0     C22336   2.499   7.434   8.036 -0.4275  0.3642 -0.6122
  166MOL0     C22337   2.610   7.448   7.923  0.9327  0.4351 -0.2664
  166MOL0     C22338   2.685   7.327   7.899  0.8640  0.4786 -0.3779
  166MOL0     C22339   2.766   7.248   7.864 -0.8369 -0.0547 -1.0338
  166MOL0     C22340   2.227   7.865   8.003 -0.6951  0.3207 -0.0964
  166MOL0     C22341   2.180   7.982   8.072  0.4274  0.2417 -0.2685
  166MOL0     C22342   2.266   8.104   8.082 -0.2841  0.3879  0.4759
  166MOL0     H22343   1.800   8.293   8.073 -1.5675 -1.9511  0.6232
  166MOL0     H22344   1.665   8.487   8.155 -0.2507 -0.2037  1.2687
  166MOL0     H22345   1.462   8.449   8.560  0.8916  0.1827  3.1245
  166MOL0     H22346   1.625   8.534   8.574  0.3773 -1.0770  0.4141
  166MOL0     H22347   1.383   8.685   8.470  0.1598  0.2615 -1.6186
  166MOL0     H22348   1.534   8.750   8.536  0.3911 -1.1546  0.7609
  166MOL0     H22349   1.486   8.640   8.760 -1.1740 -4.4213  0.0913
  166MOL0     H22350   1.332   8.604   8.708  1.2644 -1.8543 -0.5733
  166MOL0     H22351   1.429   8.892   8.683 -1.2519  0.2923 -1.2447
  166MOL0     H22352   1.265   8.832   8.669 -0.0279  0.2198 -0.9811
  166MOL0     H22353   1.264   8.757   8.900  0.5310  0.0331 -1.7630
  166MOL0     H22354   1.438   8.779   8.904  1.7693 -0.0974 -3.1128
  166MOL0     H22355   1.312   9.040   8.851 -0.5377 -1.1725 -0.5309
  166MOL0     H22356   1.243   8.969   8.995 -1.2892 -2.7710 -0.6924
  166MOL0     H22357   1.544   9.001   8.920  0.3332 -4.2504  0.5191
  166MOL0     H22358   1.492   8.933   9.079  0.3382  0.9614  0.3361
  166MOL0     H22359   1.388   9.133   9.149 -0.4412  0.3035 -1.4303
  166MOL0     H22360   1.567   9.156   9.101  0.4516  1.1909 -1.2558
  166MOL0     H22361   1.225   9.273   8.995  0.9091 -2.8964 -1.9569
  166MOL0     H22362   1.202   9.570   8.899  0.9367  0.5565 -0.4843
  166MOL0     H22363   1.306   9.586   8.766  1.3851  1.3135  3.1344
  166MOL0     H22364   1.182   9.406   8.642  1.8325  2.1179 -0.6855
  166MOL0     H22365   1.057   9.412   8.774  0.6974  0.8632  1.2369
  166MOL0     H22366   1.145   9.642   8.591 -0.5970  1.2295 -0.1606
  166MOL0     H22367   1.027   9.658   8.719 -0.6782  2.0456 -2.4423
  166MOL0     H22368   0.910   9.623   8.511 -1.0493 -1.9966 -4.8270
  166MOL0     H22369   0.887   9.472   8.608 -0.3746 -1.2475 -0.2201
  166MOL0     H22370   1.020   9.205   8.341 -1.1480 -2.8134 -2.3472
  166MOL0     H22371   0.848   9.091   8.238  2.1368  0.5064  2.1761
  166MOL0     H22372   0.343   9.079   8.161  0.2326 -0.1155 -0.0169
  166MOL0     H22373   0.169   8.925   8.060  0.6143  0.5347  0.9827
  166MOL0     H22374   0.263   8.731   7.740  0.0691 -0.0851  0.4460
  166MOL0     H22375   0.147   8.617   7.774  0.0188  0.2838 -0.5605
  166MOL0     H22376   0.112   8.929   7.789 -1.0315  0.0263  2.8296
  166MOL0     H22377   0.046   8.832   7.652 -3.0602  1.6811  0.6838
  166MOL0     H22378  -0.074   8.700   7.818  1.3086  0.7158  0.8637
  166MOL0     H22379  -0.036   8.806   7.946  0.1726 -3.5110  0.4600
  166MOL0     H22380  -0.159   8.944   7.696 -0.9846 -1.3985 -1.2932
  166MOL0     H22381  -0.184   8.974   7.866 -1.4646 -0.2419  0.1759
  166MOL0     H22382  -0.264   8.735   7.698  2.9780  2.6411 -0.8300
  166MOL0     H22383  -0.371   8.874   7.734  0.4271  1.5037  0.9408
  166MOL0     H22384  -0.270   8.698   7.958  0.1076  2.4096  0.3011
  166MOL0     H22385  -0.386   8.815   7.976  3.4741 -0.3835  1.5829
  166MOL0     H22386  -0.458   8.567   7.804 -3.3878  0.6524 -0.5693
  166MOL0     H22387  -0.557   8.709   7.837 -0.1144  0.1849 -0.7279
  166MOL0     H22388  -0.457   8.519   8.061 -3.1013  0.0253  1.7129
  166MOL0     H22389  -0.552   8.664   8.072  1.4862  0.5683  0.5227
  166MOL0     H22390   0.483   8.684   7.917 -0.6247  0.9524 -0.2322
  166MOL0     H22391   0.638   8.818   7.985 -1.7076 -3.0568 -2.3924
  166MOL0     H22392   0.617   9.451   8.219  1.0924  1.8296  0.9354
  166MOL0     H22393   0.777   9.567   8.344  0.4825 -0.5521 -0.4382
  166MOL0     H22394   1.629   8.306   8.550  0.0742  0.6809  1.0402
  166MOL0     H22395   1.726   8.099   8.451 -0.0214 -1.2849 -2.4493
  166MOL0     H22396   1.888   7.839   8.181 -0.0847 -2.0216 -0.1093
  166MOL0     H22397   1.998   7.642   8.104  1.9031 -0.1749 -0.6411
  166MOL0     H22398   2.392   7.694   7.889  0.9683  0.8595  0.6232
  166MOL0     H22399   2.342   7.520   7.854 -1.2109 -0.0972  0.5275
  166MOL0     H22400   2.335   7.519   8.123  0.6188 -1.9359  0.8131
  166MOL0     H22401   2.466   7.632   8.102  1.9420 -1.9944 -1.0566
  166MOL0     H22402   2.432   7.349   8.019 -0.7631  0.7208 -1.0924
  166MOL0     H22403   2.551   7.415   8.130  0.2486  1.1174 -0.8257
  166MOL0     H22404   2.560   7.468   7.827  1.2846  0.8486 -0.3635
  166MOL0     H22405   2.680   7.529   7.943  0.6503  0.6008  0.0609
  166MOL0     H22406   2.838   7.182   7.819 -1.3046  0.4791 -2.6320
  166MOL0     H22407   2.327   7.861   7.962 -0.4227  1.1067  0.4772
  166MOL0     H22408   2.370   8.074   8.068 -0.8092 -0.8398 -1.2351
  166MOL0     H22409   2.242   8.175   8.003  1.2989 -0.1875 -0.5658
  166MOL0     H22410   2.259   8.141   8.185 -0.4321 -0.0131  0.6157
  167MOL0     O22411   0.394   0.320   3.315  0.2308  0.5198 -0.9825
  167MOL0     C22412   0.325   0.383   3.392  0.9551  0.8833  0.4226
  167MOL0     O22413   0.335   0.523   3.417  0.6058  0.0032  0.2938
  167MOL0     C22414   0.376   0.597   3.312  0.0273 -0.2924  0.0479
  167MOL0     C22415   0.287   0.624   3.203  0.1384  0.3880  0.4637
  167MOL0     C22416   0.321   0.719   3.108 -0.6348 -0.1673 -0.7274
  167MOL0     C22417   0.448   0.781   3.119 -0.5059  0.2430  0.5529
  167MOL0     O22418   0.489   0.876   3.033 -0.0040 -0.0802  0.6208
  167MOL0     C22419   0.413   0.904   2.908  0.0379  1.0450 -0.2852
  167MOL0     C22420   0.488   0.973   2.802 -0.8123 -0.1562 -0.3590
  167MOL0     C22421   0.598   0.868   2.756 -0.6752  0.0835  0.0198
  167MOL0     C22422   0.536   0.771   2.651  0.2332 -0.5583  0.3350
  167MOL0     C22423   0.635   0.668   2.605  0.8287  0.7156  0.0777
  167MOL0     C22424   0.764   0.736   2.542  0.9074  0.3295 -0.0287
  167MOL0     C22425   0.840   0.635   2.459  0.1633  0.8318  0.1586
  167MOL0     C22426   0.910   0.522   2.534 -0.0512 -0.9115  0.1415
  167MOL0     N22427   0.994   0.443   2.444 -0.5362 -0.5425  0.3785
  167MOL0     C22428   1.125   0.467   2.429 -0.4385 -0.2106 -0.6819
  167MOL0     C22429   1.160   0.377   2.337  0.4779  1.4416  0.4740
  167MOL0     C22430   1.303   0.371   2.281 -0.0996 -0.0420 -0.0369
  167MOL0     C22431   1.364   0.237   2.314  0.8080  1.4660  0.0745
  167MOL0     C22432   1.365   0.195   2.461 -0.5143  0.8574  0.3275
  167MOL0     C22433   1.419   0.051   2.474 -0.1376 -0.7156 -1.0832
  167MOL0     O22434   1.561   0.060   2.502  0.5159  0.3237  0.4740
  167MOL0     C22435   1.586   0.073   2.639  0.1735  0.0464 -0.4569
  167MOL0     C22436   1.528  -0.004   2.742  0.2499  0.8594 -0.8529
  167MOL0     C22437   1.568   0.014   2.878  0.2508 -0.4265  0.1792
  167MOL0     C22438   1.679   0.103   2.908  0.4549  0.9097  1.4434
  167MOL0     C22439   1.706   0.147   3.046  0.1033 -0.1286  0.3307
  167MOL0     O22440   1.648   0.082   3.149  0.9735  0.3001 -0.3954
  167MOL0     C22441   1.663   0.098   3.288  0.0232 -0.9241  0.4882
  167MOL0     C22442   1.622  -0.006   3.366 -0.5773  0.6384 -1.5054
  167MOL0     C22443   1.655  -0.006   3.506  0.9130 -0.6817 -0.4929
  167MOL0     C22444   1.708   0.108   3.566 -0.5792  0.7633 -0.3060
  167MOL0     O22445   1.738   0.100   3.703  0.6724  0.0016 -0.0584
  167MOL0     C22446   1.851   0.015   3.740 -0.7646  0.6805  0.0453
  167MOL0     C22447   1.899   0.075   3.875 -0.3852  0.1711 -0.9833
  167MOL0     C22448   2.021  -0.001   3.942  0.7291  0.1413 -0.1998
  167MOL0     C22449   2.040   0.053   4.084  0.3670  0.2482  0.4251
  167MOL0     C22450   2.138  -0.013   4.175 -1.0117  0.4643 -0.3236
  167MOL0     C22451   2.291   0.012   4.144  0.6269  0.6786 -0.0812
  167MOL0     C22452   2.384  -0.059   4.245 -0.3345  0.0793  0.4808
  167MOL0     C22453   2.392   0.017   4.376  0.6124 -0.2193 -0.1562
  167MOL0    Cl22454   2.553   0.104   4.369 -0.1401 -0.3463 -0.5321
  167MOL0     C22455   1.733   0.220   3.488  0.0223  1.0372 -0.3929
  167MOL0     C22456   1.717   0.214   3.352 -0.2067  0.0664  0.2119
  167MOL0     O22457   1.789   0.238   3.059 -0.3604  0.0031 -0.2301
  167MOL0     C22458   1.727   0.188   2.807  0.1219  0.3938 -0.4195
  167MOL0     C22459   1.682   0.169   2.675  0.2997 -0.8171 -0.7499
  167MOL0     N22460   1.060   0.294   2.300  0.0507 -0.0313 -0.4147
  167MOL0     N22461   0.954   0.334   2.364  0.9560  0.1049 -0.0407
  167MOL0     C22462   0.527   0.765   3.229 -0.3533 -1.0020  0.3502
  167MOL0     C22463   0.491   0.679   3.327 -0.3681  0.6694  0.8679
  167MOL0     C22464   0.237   0.302   3.469  0.2235  0.1382 -0.3446
  167MOL0     C22465   0.108   0.346   3.474  0.3548 -0.0692 -0.6680
  167MOL0     C22466   0.019   0.289   3.562 -0.0320 -0.3918 -0.0549
  167MOL0     C22467   0.050   0.169   3.627 -0.1941  0.8472  0.2038
  167MOL0     O22468  -0.042   0.097   3.707 -0.6124  0.0561 -0.3330
  167MOL0     C22469  -0.174   0.135   3.704  1.4808 -0.8302  0.0171
  167MOL0     C22470  -0.240   0.021   3.792 -0.3939 -0.9475 -0.4377
  167MOL0     C22471  -0.267  -0.114   3.720 -0.1181 -0.7038 -0.6283
  167MOL0     C22472  -0.383  -0.177   3.795  0.2611  0.9434  1.5537
  167MOL0     C22473  -0.420  -0.310   3.746 -0.2820 -1.0438  0.3928
  167MOL0     C22474  -0.437  -0.413   3.683 -0.7399 -0.9939 -0.8142
  167MOL0     C22475   0.179   0.119   3.607 -0.3481 -0.6502 -0.6171
  167MOL0     C22476   0.274   0.183   3.535 -0.2338  0.5857  0.8274
  167MOL0     C22477   0.410   0.121   3.519  0.0850  0.7531 -0.2588
  167MOL0     H22478   0.201   0.558   3.202 -0.5428  1.2508 -1.0428
  167MOL0     H22479   0.259   0.719   3.019  1.8270 -0.0638 -2.5724
  167MOL0     H22480   0.389   0.809   2.859 -0.4598 -0.0651  1.9877
  167MOL0     H22481   0.331   0.968   2.940 -0.7126 -0.5642  1.1740
  167MOL0     H22482   0.522   1.073   2.828 -1.2316 -0.3349  0.9808
  167MOL0     H22483   0.429   0.990   2.712 -0.6400  0.4983 -0.3491
  167MOL0     H22484   0.629   0.806   2.841 -3.3623  0.1274  1.1469
  167MOL0     H22485   0.682   0.925   2.717  0.5901  2.0193  4.8689
  167MOL0     H22486   0.452   0.718   2.697 -0.6241  1.1118  0.8068
  167MOL0     H22487   0.515   0.828   2.560  0.1444 -0.5380  0.3685
  167MOL0     H22488   0.669   0.609   2.691  2.5540  2.6515  0.8034
  167MOL0     H22489   0.595   0.594   2.536  0.6212 -0.4868  1.4364
  167MOL0     H22490   0.742   0.814   2.468  0.1399  0.7411  0.6166
  167MOL0     H22491   0.831   0.775   2.620 -0.7035  1.0524  1.0530
  167MOL0     H22492   0.903   0.700   2.397 -1.6667  2.3286 -0.2405
  167MOL0     H22493   0.774   0.590   2.384  1.2736 -1.7237  0.6398
  167MOL0     H22494   0.980   0.577   2.597 -1.9695  0.5533  1.1037
  167MOL0     H22495   0.843   0.452   2.586  0.7803 -1.0704  1.0401
  167MOL0     H22496   1.193   0.543   2.467  2.6192 -2.0845 -2.0639
  167MOL0     H22497   1.303   0.384   2.172 -1.4335  1.0844  0.0646
  167MOL0     H22498   1.347   0.463   2.322  0.6654 -0.2536 -0.3685
  167MOL0     H22499   1.305   0.175   2.245  0.7241  2.4757 -0.8003
  167MOL0     H22500   1.468   0.231   2.282  0.5233 -0.4924 -0.6024
  167MOL0     H22501   1.261   0.193   2.494 -1.4223  3.2432 -2.0877
  167MOL0     H22502   1.423   0.267   2.520 -0.3495  1.1470 -0.1862
  167MOL0     H22503   1.408  -0.005   2.380 -0.3177 -2.0856 -0.2783
  167MOL0     H22504   1.359   0.002   2.551  0.7775 -1.7866 -1.0250
  167MOL0     H22505   1.443  -0.068   2.720 -1.4547  2.7193  0.0037
  167MOL0     H22506   1.513  -0.031   2.959  1.3933  1.3393  2.0523
  167MOL0     H22507   1.576  -0.099   3.336 -0.5760 -0.4839  1.5791
  167MOL0     H22508   1.628  -0.097   3.560 -0.0994 -0.6275 -0.8779
  167MOL0     H22509   1.810  -0.084   3.760  3.4337 -1.4207 -0.6655
  167MOL0     H22510   1.916  -0.018   3.659  1.6098 -1.6825  2.6887
  167MOL0     H22511   1.931   0.179   3.862  0.1281  0.1997  0.3353
  167MOL0     H22512   1.812   0.068   3.941  1.8116  0.5244  2.1955
  167MOL0     H22513   2.003  -0.109   3.947  2.4919 -0.2467 -1.5114
  167MOL0     H22514   2.103   0.024   3.874 -2.4112  4.2904 -3.0159
  167MOL0     H22515   1.939   0.048   4.125  0.8100 -0.7051  1.4529
  167MOL0     H22516   2.055   0.162   4.077 -1.0084  0.4251 -0.0686
  167MOL0     H22517   2.116  -0.119   4.188  1.6855 -0.0976  0.1753
  167MOL0     H22518   2.116   0.024   4.275  2.5193 -0.0042  0.7552
  167MOL0     H22519   2.307  -0.041   4.049  0.6169 -0.9989  0.8104
  167MOL0     H22520   2.308   0.120   4.139 -2.7928  1.4989  2.5846
  167MOL0     H22521   2.486  -0.066   4.206 -0.0690 -2.1795  1.4339
  167MOL0     H22522   2.371  -0.166   4.267  0.0410 -0.6608 -2.4533
  167MOL0     H22523   2.308   0.087   4.387  0.8593  0.0873 -0.2009
  167MOL0     H22524   2.386  -0.057   4.456 -1.8756 -0.7674 -0.7670
  167MOL0     H22525   1.765   0.321   3.515 -2.5743  2.3422 -1.8338
  167MOL0     H22526   1.741   0.305   3.298  1.9510 -0.2174  0.5913
  167MOL0     H22527   1.788   0.276   2.830  0.1680  0.8826 -2.2460
  167MOL0     H22528   1.719   0.229   2.593  0.2959 -1.0744 -0.9433
  167MOL0     H22529   0.610   0.835   3.223 -3.3523  2.7888 -1.9395
  167MOL0     H22530   0.550   0.678   3.418  0.2265 -3.0154  0.5901
  167MOL0     H22531   0.074   0.428   3.412  1.8150  0.3176 -0.9781
  167MOL0     H22532  -0.082   0.322   3.585  0.6733  2.3096 -0.4786
  167MOL0     H22533  -0.209   0.127   3.600  1.5266 -0.4334 -0.0313
  167MOL0     H22534  -0.189   0.238   3.736  2.0833 -0.7041 -0.0854
  167MOL0     H22535  -0.339   0.057   3.823 -0.6657  0.0033 -2.2954
  167MOL0     H22536  -0.177   0.018   3.881 -0.3907  2.5328 -0.2179
  167MOL0     H22537  -0.176  -0.172   3.739  0.4491 -0.5511 -2.6620
  167MOL0     H22538  -0.282  -0.097   3.613  2.1600  2.0796 -0.6356
  167MOL0     H22539  -0.358  -0.203   3.899 -4.4550 -4.5842  1.8235
  167MOL0     H22540  -0.470  -0.112   3.803 -0.2299  0.3677  1.0482
  167MOL0     H22541  -0.446  -0.510   3.637 -2.5411 -1.5082  0.5078
  167MOL0     H22542   0.204   0.029   3.662  3.2746 -0.9169 -2.3441
  167MOL0     H22543   0.499   0.163   3.565  0.3944  0.0366 -0.1916
  167MOL0     H22544   0.408   0.032   3.581 -2.7614  1.8864  1.4899
  167MOL0     H22545   0.426   0.087   3.416 -2.8706 -0.1176 -0.5434
  168MOL0     O22546   4.615   1.446   4.624 -0.4537  0.4357  0.2767
  168MOL0     C22547   4.697   1.362   4.668  0.6329 -0.0608 -0.9258
  168MOL0     O22548   4.735   1.356   4.802 -0.2348  0.5577  0.2190
  168MOL0     C22549   4.706   1.443   4.903  0.1997 -0.4664 -0.2601
  168MOL0     C22550   4.673   1.573   4.892  0.1181 -0.3239 -0.2254
  168MOL0     C22551   4.631   1.649   5.000 -0.0520 -0.6242  0.2739
  168MOL0     C22552   4.616   1.594   5.122 -0.0202  0.4200  0.9003
  168MOL0     O22553   4.572   1.681   5.223 -0.1092 -0.8724  0.8928
  168MOL0     C22554   4.465   1.629   5.302  0.2296  0.0093  0.4658
  168MOL0     C22555   4.422   1.739   5.389  0.0047  0.2188 -1.1519
  168MOL0     C22556   4.308   1.685   5.485  0.7183 -0.8550  0.8287
  168MOL0     C22557   4.292   1.744   5.626 -0.3011 -0.7202 -0.5985
  168MOL0     C22558   4.321   1.650   5.740 -0.2471 -0.4513 -1.2260
  168MOL0     C22559   4.439   1.554   5.706  1.3074  0.1215 -0.2702
  168MOL0     C22560   4.517   1.512   5.837 -0.7457  0.3033  0.0267
  168MOL0     C22561   4.433   1.428   5.939  0.0936 -0.6794 -0.1469
  168MOL0     N22562   4.519   1.372   6.045 -0.5347 -0.3161 -0.0452
  168MOL0     C22563   4.521   1.421   6.177  0.1386 -0.0814 -0.5955
  168MOL0     C22564   4.585   1.335   6.247  0.3053  0.5714  0.4537
  168MOL0     C22565   4.602   1.327   6.398 -0.1826  0.9582  0.1112
  168MOL0     C22566   4.586   1.170   6.442 -0.0261  0.6611 -0.5391
  168MOL0     C22567   4.596   1.161   6.591  0.0482  0.5677  0.1771
  168MOL0     C22568   4.512   1.047   6.657  0.0349  0.5221  1.1114
  168MOL0     O22569   4.377   1.094   6.661 -0.3201 -0.0499  0.6678
  168MOL0     C22570   4.292   1.028   6.749  0.1447 -0.2255  0.1823
  168MOL0     C22571   4.194   1.103   6.800  0.2665 -0.2282 -0.4827
  168MOL0     C22572   4.094   1.044   6.878  0.1090 -0.4202 -1.2327
  168MOL0     C22573   4.105   0.911   6.914 -1.0056  0.5397  0.2646
  168MOL0     C22574   4.020   0.849   7.017  0.1533  0.5026 -0.3895
  168MOL0     O22575   3.891   0.881   7.010 -0.2764  0.2803 -0.2099
  168MOL0     C22576   3.800   0.789   7.053 -0.8933  0.5717  0.1872
  168MOL0     C22577   3.775   0.762   7.184  1.1354 -0.9189  0.4852
  168MOL0     C22578   3.675   0.677   7.220 -1.1639  0.5887  0.5150
  168MOL0     C22579   3.591   0.626   7.119  0.7077  0.2140 -0.0688
  168MOL0     O22580   3.494   0.531   7.145  0.0393 -0.2014 -0.0194
  168MOL0     C22581   3.413   0.545   7.259 -0.3020 -0.8872 -0.5558
  168MOL0     C22582   3.313   0.669   7.236 -1.1758 -1.0214 -0.4670
  168MOL0     C22583   3.256   0.700   7.373  0.3166 -1.2428 -0.1724
  168MOL0     C22584   3.187   0.838   7.391 -0.8305 -0.1245  0.0260
  168MOL0     C22585   3.145   0.868   7.542  0.1402  0.0205 -0.3018
  168MOL0     C22586   3.002   0.834   7.582 -0.5207 -0.3938  0.2778
  168MOL0     C22587   2.885   0.900   7.511  0.0466 -0.1976  1.0175
  168MOL0     C22588   2.755   0.836   7.557 -0.2928  0.5762 -1.0671
  168MOL0    Cl22589   2.715   0.888   7.728  0.1261 -0.1096 -0.2432
  168MOL0     C22590   3.603   0.667   6.985 -0.2858  0.0300 -0.1135
  168MOL0     C22591   3.709   0.753   6.951  0.3763  0.4584  0.0910
  168MOL0     O22592   4.064   0.751   7.075 -1.3101 -0.8807  0.0254
  168MOL0     C22593   4.212   0.832   6.865  0.3498  0.1004 -0.5252
  168MOL0     C22594   4.296   0.890   6.780 -1.3222 -0.4121 -0.2860
  168MOL0     N22595   4.654   1.248   6.156  0.3204  0.0816 -0.9343
  168MOL0     N22596   4.610   1.268   6.037  0.3760  0.2885  0.4480
  168MOL0     C22597   4.654   1.457   5.142  0.6898  1.1939  0.0815
  168MOL0     C22598   4.687   1.385   5.030 -0.3873  0.7800  1.5267
  168MOL0     C22599   4.769   1.269   4.580 -0.1513 -0.7094  0.5240
  168MOL0     C22600   4.879   1.194   4.626 -0.5711  0.5105  0.0687
  168MOL0     C22601   4.963   1.128   4.541 -1.0072  0.4361  0.3266
  168MOL0     C22602   4.941   1.125   4.402  1.0256 -0.3797 -0.2516
  168MOL0     O22603   5.037   1.070   4.311  0.4147 -0.7291 -0.0330
  168MOL0     C22604   5.147   0.996   4.365  0.5392  1.1802  0.2192
  168MOL0     C22605   5.113   0.846   4.361  0.0339  0.1791 -0.1370
  168MOL0     C22606   4.984   0.788   4.407  0.6459 -1.0482 -0.2747
  168MOL0     C22607   4.946   0.647   4.362 -0.3242  0.4140 -0.5250
  168MOL0     C22608   4.975   0.618   4.220 -0.3541 -0.4062 -0.0599
  168MOL0     C22609   4.993   0.602   4.105  0.3294  0.4894 -0.6369
  168MOL0     C22610   4.829   1.192   4.354  0.6010  0.2223 -0.4200
  168MOL0     C22611   4.744   1.261   4.437  0.3178  0.6510  0.2078
  168MOL0     C22612   4.642   1.338   4.359  0.7081 -0.3881 -0.4567
  168MOL0     H22613   4.694   1.624   4.799  1.6459 -2.5581 -1.2119
  168MOL0     H22614   4.613   1.755   4.980  3.2318  0.3934  2.0370
  168MOL0     H22615   4.386   1.592   5.236  1.8349  1.8380 -2.7398
  168MOL0     H22616   4.502   1.547   5.364 -0.7089 -1.0041 -0.2898
  168MOL0     H22617   4.379   1.825   5.337 -0.1809  1.2135  0.5594
  168MOL0     H22618   4.509   1.775   5.446  1.2738  0.1048 -2.9319
  168MOL0     H22619   4.318   1.576   5.492  2.2249 -0.7528  0.6261
  168MOL0     H22620   4.216   1.709   5.432  1.2931 -1.6351 -0.5559
  168MOL0     H22621   4.350   1.836   5.643 -1.6296 -0.1999  1.4789
  168MOL0     H22622   4.188   1.776   5.634 -1.0220 -2.6808 -1.6338
  168MOL0     H22623   4.341   1.716   5.824  1.7299  0.0270 -2.0106
  168MOL0     H22624   4.232   1.600   5.780 -1.7321  3.7187  1.3250
  168MOL0     H22625   4.395   1.469   5.653 -0.4334  1.2508 -0.7620
  168MOL0     H22626   4.506   1.608   5.639  3.1252 -2.2881 -0.5064
  168MOL0     H22627   4.553   1.601   5.890 -1.8424  0.6004  0.2955
  168MOL0     H22628   4.597   1.446   5.804  2.0972  3.7362 -0.5734
  168MOL0     H22629   4.358   1.490   5.990 -0.8989 -4.0547  2.9858
  168MOL0     H22630   4.381   1.346   5.890 -2.0030  0.8388 -0.6300
  168MOL0     H22631   4.467   1.505   6.218  4.0914  1.2658  2.4755
  168MOL0     H22632   4.701   1.364   6.427  0.8004 -2.0637  0.9320
  168MOL0     H22633   4.523   1.393   6.434 -3.0509 -0.1459 -3.5242
  168MOL0     H22634   4.485   1.137   6.416  0.1592  1.3896 -2.3065
  168MOL0     H22635   4.660   1.118   6.381  2.2964  3.9087 -0.8094
  168MOL0     H22636   4.559   1.251   6.641 -3.3698 -3.0941  5.2604
  168MOL0     H22637   4.700   1.140   6.618 -1.3073 -1.1125  5.0260
  168MOL0     H22638   4.541   1.036   6.762  2.0259 -1.3362  0.4271
  168MOL0     H22639   4.510   0.950   6.608  0.2959  0.6418  0.8587
  168MOL0     H22640   4.188   1.208   6.774 -1.1987 -0.3761 -0.8046
  168MOL0     H22641   4.016   1.109   6.917  0.4551  0.1118 -1.4183
  168MOL0     H22642   3.844   0.807   7.255  2.6916 -0.3896 -1.2624
  168MOL0     H22643   3.666   0.641   7.322 -0.8215 -0.8020  0.0741
  168MOL0     H22644   3.345   0.463   7.282 -0.4543 -1.0568 -1.5906
  168MOL0     H22645   3.478   0.555   7.347 -1.8726  3.0945  0.3749
  168MOL0     H22646   3.370   0.758   7.205 -0.8409 -1.9689 -2.8057
  168MOL0     H22647   3.231   0.664   7.164 -1.3337  3.0715 -0.7747
  168MOL0     H22648   3.187   0.624   7.411  0.9425 -1.3754  0.7075
  168MOL0     H22649   3.340   0.700   7.443 -0.0270 -3.3381  0.2957
  168MOL0     H22650   3.105   0.854   7.320  0.6706 -1.5635 -2.1280
  168MOL0     H22651   3.273   0.903   7.372  1.3278 -1.6359  3.5673
  168MOL0     H22652   3.162   0.975   7.556  0.2242  0.1814 -1.5484
  168MOL0     H22653   3.222   0.829   7.609  0.2825  0.7813 -0.0059
  168MOL0     H22654   2.995   0.726   7.568  1.4806 -1.0053  3.0244
  168MOL0     H22655   2.980   0.852   7.688 -0.4107 -1.2025  0.4453
  168MOL0     H22656   2.889   0.861   7.410 -2.9564 -0.2220  0.7985
  168MOL0     H22657   2.888   1.008   7.527 -1.1359 -0.2620  1.8714
  168MOL0     H22658   2.676   0.871   7.490 -2.3011 -0.4586  0.6151
  168MOL0     H22659   2.760   0.727   7.559 -1.9418  0.4713  1.2920
  168MOL0     H22660   3.540   0.636   6.902  0.8779 -1.4236 -0.4785
  168MOL0     H22661   3.734   0.793   6.853  1.9838 -0.0545  0.2589
  168MOL0     H22662   4.240   0.733   6.899 -0.8408  0.1514  0.6950
  168MOL0     H22663   4.363   0.819   6.733 -0.9289  1.7333 -3.2464
  168MOL0     H22664   4.634   1.403   5.234 -2.6932 -0.8288 -1.6084
  168MOL0     H22665   4.704   1.277   5.033  1.4349  0.9489 -0.1410
  168MOL0     H22666   4.901   1.192   4.732  1.1524  0.5390 -0.2635
  168MOL0     H22667   5.043   1.076   4.592 -1.1880 -1.0832 -0.8533
  168MOL0     H22668   5.197   1.034   4.454  4.1869 -0.7029 -0.7990
  168MOL0     H22669   5.220   1.016   4.285 -0.6750  5.0956 -0.1487
  168MOL0     H22670   5.193   0.794   4.416  1.3039 -1.9182 -3.5897
  168MOL0     H22671   5.135   0.817   4.257 -1.3755 -0.9243 -0.1495
  168MOL0     H22672   4.904   0.847   4.363  0.8104 -0.0746  0.6872
  168MOL0     H22673   4.962   0.805   4.513 -1.3120  2.1541 -1.0498
  168MOL0     H22674   4.994   0.569   4.422  0.9281 -1.3364 -3.5814
  168MOL0     H22675   4.838   0.642   4.378 -0.0380  3.9612  5.2606
  168MOL0     H22676   5.008   0.604   3.999 -2.4274 -1.6534 -1.1869
  168MOL0     H22677   4.825   1.185   4.246  1.1975 -4.1362 -0.3351
  168MOL0     H22678   4.653   1.319   4.251 -2.4955 -2.0330 -0.5941
  168MOL0     H22679   4.540   1.308   4.380  1.1215 -0.8839  0.9070
  168MOL0     H22680   4.651   1.443   4.389 -0.5452 -0.1410 -0.8995
  169MOL0     O22681   0.965   3.900   3.300 -0.0055 -0.5932  0.4222
  169MOL0     C22682   0.869   3.923   3.229  0.2117 -0.1701 -0.0576
  169MOL0     O22683   0.850   4.040   3.166  0.4592 -0.2096  0.3538
  169MOL0     C22684   0.912   4.150   3.214 -1.0962 -0.3725 -1.1470
  169MOL0     C22685   0.911   4.186   3.349 -0.6689 -0.2258 -0.5630
  169MOL0     C22686   0.954   4.308   3.392 -0.2642 -1.0548 -0.1864
  169MOL0     C22687   0.987   4.409   3.302  1.1867  2.3981 -0.2139
  169MOL0     O22688   1.011   4.526   3.353 -0.0540  0.1142 -0.0633
  169MOL0     C22689   1.030   4.640   3.279  0.1126 -0.1236 -0.0493
  169MOL0     C22690   1.075   4.758   3.372  0.4963 -0.8108  0.2983
  169MOL0     C22691   0.952   4.790   3.475 -0.7518 -0.2005  0.5976
  169MOL0     C22692   0.869   4.903   3.413  0.0318 -0.6993 -0.1465
  169MOL0     C22693   0.774   4.965   3.516  0.2615  0.0743  0.6887
  169MOL0     C22694   0.695   5.071   3.438  0.3554 -0.7512 -1.2630
  169MOL0     C22695   0.632   5.161   3.547 -0.0347 -1.3770 -0.4631
  169MOL0     C22696   0.531   5.273   3.500 -0.6449  0.0602 -0.1661
  169MOL0     N22697   0.402   5.215   3.451  0.1422  0.3306  0.7802
  169MOL0     C22698   0.374   5.163   3.329  0.7364 -0.3541  0.2814
  169MOL0     C22699   0.238   5.151   3.325  0.1160  0.4710 -0.3450
  169MOL0     C22700   0.156   5.086   3.215 -0.4388  0.0811  0.2776
  169MOL0     C22701   0.225   5.097   3.078 -0.4439 -0.1847  0.4996
  169MOL0     C22702   0.146   5.018   2.976  0.3765 -0.4411  1.4030
  169MOL0     C22703   0.202   5.032   2.832 -0.6804  0.4151  0.5279
  169MOL0     O22704   0.128   4.939   2.750 -0.7725 -1.2041 -0.3278
  169MOL0     C22705   0.175   4.822   2.715  0.6427 -0.4061  0.3966
  169MOL0     C22706   0.280   4.757   2.785  0.1573  0.2958  0.8308
  169MOL0     C22707   0.316   4.624   2.748 -0.8943  0.1971  0.3685
  169MOL0     C22708   0.262   4.561   2.637 -0.0267 -1.0296  1.0154
  169MOL0     C22709   0.310   4.422   2.602 -0.5102 -0.4988  0.1937
  169MOL0     O22710   0.260   4.365   2.492 -0.6394  0.1676  0.2283
  169MOL0     C22711   0.323   4.254   2.437 -0.3292 -0.0302 -0.3968
  169MOL0     C22712   0.242   4.184   2.345 -0.4918  0.4739 -0.6471
  169MOL0     C22713   0.286   4.076   2.274  0.6012  0.1302  0.7794
  169MOL0     C22714   0.414   4.029   2.285 -0.0991 -0.6392  0.6389
  169MOL0     O22715   0.449   3.914   2.227 -0.5078  0.4158  0.3472
  169MOL0     C22716   0.389   3.794   2.286  0.6165 -0.5416 -0.1993
  169MOL0     C22717   0.487   3.682   2.333  1.0258 -0.1667 -0.0600
  169MOL0     C22718   0.609   3.672   2.247  0.4884 -0.9209 -0.4565
  169MOL0     C22719   0.596   3.617   2.105 -0.0950 -0.4898 -0.7558
  169MOL0     C22720   0.564   3.462   2.108  0.5308 -0.5359  1.1027
  169MOL0     C22721   0.626   3.384   1.994 -0.5731  0.6847  0.0254
  169MOL0     C22722   0.538   3.363   1.862 -0.1409  0.1477  0.4920
  169MOL0     C22723   0.579   3.470   1.757 -0.5129  0.6003 -0.2136
  169MOL0    Cl22724   0.490   3.617   1.773  0.2099 -0.0922 -0.1796
  169MOL0     C22725   0.496   4.093   2.390  0.7182 -0.0709 -0.2120
  169MOL0     C22726   0.451   4.210   2.457  0.5229 -0.5549  1.0138
  169MOL0     O22727   0.383   4.369   2.686  0.2279  0.0823 -0.0207
  169MOL0     C22728   0.163   4.629   2.572  0.4711  0.9369 -0.5881
  169MOL0     C22729   0.117   4.755   2.611 -0.6618  0.2500  0.0566
  169MOL0     N22730   0.194   5.173   3.452  0.0435  0.8169 -0.4964
  169MOL0     N22731   0.294   5.207   3.520  0.0962  0.6516  0.1983
  169MOL0     C22732   0.983   4.381   3.167 -0.0733  0.1623 -1.1627
  169MOL0     C22733   0.942   4.250   3.119 -0.8974 -0.9326 -0.4227
  169MOL0     C22734   0.771   3.809   3.199 -0.6397 -0.0692  0.5827
  169MOL0     C22735   0.651   3.844   3.130 -0.2729 -0.0399 -0.5381
  169MOL0     C22736   0.565   3.741   3.091 -0.3528 -0.1831  0.3698
  169MOL0     C22737   0.597   3.605   3.110 -0.0021 -0.4657  0.1857
  169MOL0     O22738   0.511   3.505   3.066 -0.1498 -0.0963  0.3208
  169MOL0     C22739   0.379   3.526   3.067 -0.4208  1.1612  0.6184
  169MOL0     C22740   0.329   3.511   2.925  0.8359  0.5937  0.7377
  169MOL0     C22741   0.175   3.518   2.919  0.2211 -1.1447  0.7020
  169MOL0     C22742   0.123   3.477   2.771 -0.0165 -0.4373  0.3624
  169MOL0     C22743  -0.021   3.499   2.734  0.3021  0.6360  0.6786
  169MOL0     C22744  -0.143   3.501   2.703 -0.1647  0.3999 -0.0347
  169MOL0     C22745   0.712   3.574   3.180  0.0945 -0.4647  0.5734
  169MOL0     C22746   0.794   3.676   3.228 -0.2281 -0.0995  0.4726
  169MOL0     C22747   0.915   3.632   3.310 -0.0760  0.5527  0.4311
  169MOL0     H22748   0.885   4.102   3.413 -0.7664 -0.9372 -1.5116
  169MOL0     H22749   0.967   4.339   3.495  1.1749  0.3918 -0.7627
  169MOL0     H22750   1.119   4.629   3.217 -0.8680 -0.0998 -1.4933
  169MOL0     H22751   0.950   4.659   3.208  0.5611 -0.0123 -0.5304
  169MOL0     H22752   1.112   4.841   3.311  5.7302 -2.7878  0.2297
  169MOL0     H22753   1.171   4.733   3.419  0.1158 -0.7291  1.1517
  169MOL0     H22754   0.998   4.823   3.569  0.9914 -2.2655  0.5659
  169MOL0     H22755   0.891   4.701   3.492 -1.0095 -0.7072 -2.3760
  169MOL0     H22756   0.928   4.977   3.359 -0.0961  0.3864  1.1496
  169MOL0     H22757   0.794   4.852   3.351  0.0632  1.1107 -1.7938
  169MOL0     H22758   0.713   4.883   3.557 -0.0507 -0.5031 -0.8538
  169MOL0     H22759   0.837   5.010   3.593  3.9600 -2.0644 -0.8192
  169MOL0     H22760   0.761   5.128   3.372 -0.5394 -0.2662 -1.7561
  169MOL0     H22761   0.617   5.024   3.376 -1.2417  1.2921 -0.9231
  169MOL0     H22762   0.706   5.226   3.595 -1.8026  2.7045 -2.7051
  169MOL0     H22763   0.586   5.101   3.626  0.9904 -1.2102  0.2758
  169MOL0     H22764   0.517   5.337   3.587  2.0613  1.3021 -0.5197
  169MOL0     H22765   0.578   5.339   3.426 -1.2725  1.1122  0.3529
  169MOL0     H22766   0.447   5.153   3.249 -0.8333 -0.8652 -1.1370
  169MOL0     H22767   0.133   4.986   3.252 -0.0843 -0.2661 -0.4273
  169MOL0     H22768   0.054   5.125   3.208 -0.4542 -0.2835 -3.5978
  169MOL0     H22769   0.218   5.202   3.048 -5.2005 -0.8842 -1.8150
  169MOL0     H22770   0.329   5.064   3.070  0.1876  1.9152 -0.9481
  169MOL0     H22771   0.038   5.035   2.969  0.2716 -1.6437 -1.5450
  169MOL0     H22772   0.148   4.910   2.996  4.2111 -0.8049 -0.1422
  169MOL0     H22773   0.310   5.021   2.818 -0.9160  0.0884 -1.2733
  169MOL0     H22774   0.161   5.127   2.796  1.0820  0.6560 -0.9578
  169MOL0     H22775   0.341   4.802   2.862  0.8008  2.0795 -0.6571
  169MOL0     H22776   0.391   4.571   2.806 -1.8453 -1.0288  0.5268
  169MOL0     H22777   0.140   4.219   2.328 -0.7765 -0.4316 -0.8170
  169MOL0     H22778   0.212   4.023   2.215  3.5769 -2.4802 -0.9347
  169MOL0     H22779   0.319   3.831   2.361  1.4973  1.4446 -0.2817
  169MOL0     H22780   0.328   3.754   2.204  1.7131  0.1023 -1.3822
  169MOL0     H22781   0.510   3.688   2.440 -0.5627  1.2433  0.2488
  169MOL0     H22782   0.442   3.582   2.329  1.7656 -0.5459  0.7227
  169MOL0     H22783   0.672   3.761   2.242 -0.7012  0.0767  1.2147
  169MOL0     H22784   0.651   3.600   2.318 -2.5163 -0.1540  2.3328
  169MOL0     H22785   0.691   3.623   2.052  0.0145  0.1481 -0.4971
  169MOL0     H22786   0.518   3.675   2.055 -1.1256  0.7905  2.0997
  169MOL0     H22787   0.459   3.433   2.103  1.0593 -2.5892  0.8771
  169MOL0     H22788   0.612   3.417   2.195  4.4266 -1.2266 -1.1363
  169MOL0     H22789   0.721   3.431   1.968 -1.4677  1.7289 -1.5439
  169MOL0     H22790   0.636   3.285   2.039  2.5335  0.5886 -0.6736
  169MOL0     H22791   0.430   3.357   1.875  0.0590 -1.1390  1.8183
  169MOL0     H22792   0.569   3.269   1.815  0.3857  1.3979 -1.8329
  169MOL0     H22793   0.687   3.486   1.759  0.3412 -3.0339  5.1186
  169MOL0     H22794   0.554   3.425   1.660  3.3078 -0.7207 -0.7439
  169MOL0     H22795   0.596   4.059   2.413  1.3507 -0.7271 -3.3927
  169MOL0     H22796   0.518   4.258   2.528 -1.2140  1.6183  1.2919
  169MOL0     H22797   0.118   4.578   2.488 -3.6430 -0.0755  1.9070
  169MOL0     H22798   0.053   4.815   2.547 -0.1375  0.6984 -0.0563
  169MOL0     H22799   1.012   4.459   3.098  0.2099 -0.6225 -1.9521
  169MOL0     H22800   0.952   4.241   3.012 -0.6962 -2.6189 -0.2869
  169MOL0     H22801   0.637   3.947   3.096  1.7814 -0.1932 -1.9839
  169MOL0     H22802   0.487   3.773   3.023  1.2805  3.0950 -0.1819
  169MOL0     H22803   0.357   3.627   3.103 -2.2108  1.5649 -1.3549
  169MOL0     H22804   0.335   3.454   3.136 -1.7609 -0.0209 -1.3596
  169MOL0     H22805   0.379   3.429   2.873  2.3373  1.7155  0.3721
  169MOL0     H22806   0.356   3.596   2.862  0.6825 -0.5616 -0.9605
  169MOL0     H22807   0.146   3.621   2.941  0.0794 -0.3931 -2.4830
  169MOL0     H22808   0.129   3.452   2.993 -2.7119  1.7883  1.7238
  169MOL0     H22809   0.173   3.542   2.697 -0.2937  1.0073  1.3934
  169MOL0     H22810   0.163   3.376   2.758  2.9710  0.9554 -3.1846
  169MOL0     H22811  -0.240   3.530   2.668 -1.0321 -2.1527  0.0664
  169MOL0     H22812   0.745   3.475   3.210  2.2873 -1.3318 -3.8469
  169MOL0     H22813   1.012   3.659   3.266  0.2700 -2.3957 -0.8474
  169MOL0     H22814   0.908   3.674   3.411  0.8259 -0.0531  0.7626
  169MOL0     H22815   0.919   3.523   3.315 -0.1381  0.3321 -2.5429
  170MOL0     O22816  10.483   1.610   8.792 -0.2170 -0.0902 -0.3918
  170MOL0     C22817  10.596   1.640   8.749  0.3478 -0.5107 -0.1581
  170MOL0     O22818  10.639   1.769   8.725  0.0155  0.1574 -0.4142
  170MOL0     C22819  10.553   1.880   8.744  0.2965  1.1958  0.6446
  170MOL0     C22820  10.464   1.920   8.643  0.5001  0.4461  0.7172
  170MOL0     C22821  10.377   2.027   8.665  0.2994 -0.0053  0.2302
  170MOL0     C22822  10.405   2.112   8.778 -0.8954  0.4058  0.1340
  170MOL0     O22823  10.329   2.224   8.823  0.1649  0.4178 -0.0682
  170MOL0     C22824  10.283   2.314   8.718 -0.4506 -0.1526  0.3134
  170MOL0     C22825  10.241   2.437   8.792  1.1402 -0.5845  0.1206
  170MOL0     C22826  10.162   2.531   8.703 -0.4259  0.2312 -0.4083
  170MOL0     C22827  10.007   2.501   8.698  0.4109 -0.6317 -0.1216
  170MOL0     C22828   9.935   2.555   8.577  1.1016  0.1872 -0.3457
  170MOL0     C22829   9.954   2.703   8.539 -0.7396 -0.0172 -0.7207
  170MOL0     C22830   9.909   2.814   8.635 -0.0082 -0.1648 -0.1963
  170MOL0     C22831   9.757   2.803   8.648  0.0389  0.0437 -0.3477
  170MOL0     N22832   9.702   2.903   8.744  0.6687  0.3211  0.2344
  170MOL0     C22833   9.586   2.982   8.732 -0.7394  0.5036 -0.6142
  170MOL0     C22834   9.560   3.027   8.865  0.3366  0.3929  0.7312
  170MOL0     C22835   9.435   3.094   8.915  0.0015  0.3864  0.2212
  170MOL0     C22836   9.456   3.224   8.978 -0.7716 -0.4638  0.2651
  170MOL0     C22837   9.341   3.279   9.076 -0.3292  0.7338  0.6346
  170MOL0     C22838   9.204   3.288   9.016 -1.1732  0.3650  0.3562
  170MOL0     O22839   9.141   3.405   9.065 -0.7224 -0.5560 -0.2930
  170MOL0     C22840   9.001   3.420   9.036 -0.5707 -0.5630  1.0261
  170MOL0     C22841   8.932   3.346   8.953  0.6983  0.3583  0.9404
  170MOL0     C22842   8.803   3.366   8.919  0.5091 -0.4456  0.5662
  170MOL0     C22843   8.730   3.459   8.997  0.4656 -0.3457 -0.0687
  170MOL0     C22844   8.585   3.476   8.976 -0.3512 -0.0347  0.9721
  170MOL0     O22845   8.531   3.597   9.020 -0.2012  0.1335  0.5510
  170MOL0     C22846   8.435   3.666   8.961 -0.8514  0.6762 -0.8293
  170MOL0     C22847   8.367   3.758   9.045 -0.7328 -0.4772 -0.1256
  170MOL0     C22848   8.271   3.842   8.996  0.6738  0.3184  0.9449
  170MOL0     C22849   8.235   3.831   8.855 -0.2043 -0.0580 -0.2455
  170MOL0     O22850   8.129   3.912   8.819 -0.3610 -0.5441  0.0575
  170MOL0     C22851   8.115   3.933   8.682  0.1742 -0.3926  0.5077
  170MOL0     C22852   8.031   4.068   8.654 -0.7577  1.1615  0.6467
  170MOL0     C22853   8.093   4.197   8.703 -0.2483  0.1140 -0.0297
  170MOL0     C22854   8.032   4.312   8.632  0.5753 -0.1005 -1.0613
  170MOL0     C22855   8.033   4.315   8.484 -1.2825  0.1110  0.6122
  170MOL0     C22856   8.030   4.456   8.417 -0.4228  0.3867  0.5304
  170MOL0     C22857   7.890   4.510   8.454 -0.3171  1.5719  0.3842
  170MOL0     C22858   7.824   4.590   8.339  0.1822  0.1822  0.0113
  170MOL0    Cl22859   7.675   4.651   8.393  0.0216  0.4182  0.4181
  170MOL0     C22860   8.303   3.739   8.772  0.4755  0.4413 -0.6454
  170MOL0     C22861   8.398   3.650   8.829 -0.0342 -0.3626 -1.0612
  170MOL0     O22862   8.533   3.402   8.896  0.2522  0.2617  0.0519
  170MOL0     C22863   8.791   3.534   9.094  0.8344  0.2148  0.6730
  170MOL0     C22864   8.934   3.527   9.097 -0.0573 -0.3905 -0.5722
  170MOL0     N22865   9.654   2.981   8.943  0.5616  0.6816  0.1748
  170MOL0     N22866   9.738   2.898   8.880 -0.3590  0.7236  0.5811
  170MOL0     C22867  10.496   2.071   8.865  0.8155 -0.0594  0.0604
  170MOL0     C22868  10.568   1.952   8.861 -0.9884 -0.0039  0.1672
  170MOL0     C22869  10.702   1.541   8.739  0.5139  0.1973 -0.9730
  170MOL0     C22870  10.735   1.458   8.854  0.1663  0.2037 -0.4612
  170MOL0     C22871  10.829   1.364   8.843 -0.2701 -0.2655 -0.1754
  170MOL0     C22872  10.888   1.338   8.716  0.3954  0.1687 -1.7319
  170MOL0     O22873  10.975   1.235   8.676  0.1944  0.4620  0.4315
  170MOL0     C22874  11.016   1.142   8.773 -0.6723 -0.4631  0.4094
  170MOL0     C22875  10.937   1.009   8.782  0.1289 -0.4543 -0.8743
  170MOL0     C22876  10.979   0.949   8.912  1.1620 -0.1852  0.3159
  170MOL0     C22877  10.912   0.820   8.943  0.4247  0.5766  1.2850
  170MOL0     C22878  10.899   0.730   8.823  0.3479 -0.3847 -0.3033
  170MOL0     C22879  10.891   0.653   8.728 -0.0174  0.2653  0.5004
  170MOL0     C22880  10.859   1.423   8.614  0.8931 -0.0667 -0.0700
  170MOL0     C22881  10.760   1.514   8.615  0.1056 -0.6281  0.5661
  170MOL0     C22882  10.689   1.542   8.478 -0.1920 -0.8836 -0.8474
  170MOL0     H22883  10.447   1.864   8.551  2.9628  1.5813 -0.5543
  170MOL0     H22884  10.302   2.055   8.592  3.3376  1.3903 -2.6279
  170MOL0     H22885  10.371   2.337   8.657 -0.9274 -1.7427 -1.0595
  170MOL0     H22886  10.202   2.285   8.651 -1.5822  3.1274  0.0755
  170MOL0     H22887  10.326   2.498   8.823  0.9982  0.1314 -0.8555
  170MOL0     H22888  10.187   2.417   8.885  2.1439  3.1053  1.6909
  170MOL0     H22889  10.205   2.526   8.603 -0.4006  2.8236 -0.5917
  170MOL0     H22890  10.186   2.632   8.737  1.2287 -1.2410  3.4274
  170MOL0     H22891  10.005   2.392   8.694  0.1405 -0.5937 -1.8878
  170MOL0     H22892   9.964   2.526   8.795 -1.2565 -2.4853 -0.3424
  170MOL0     H22893   9.977   2.495   8.495 -0.6454 -0.4107 -0.8462
  170MOL0     H22894   9.828   2.531   8.584  1.2376 -0.3478 -0.0433
  170MOL0     H22895  10.054   2.711   8.496 -1.0023  0.3461 -1.2890
  170MOL0     H22896   9.898   2.719   8.446  3.0872  0.0337 -3.2627
  170MOL0     H22897   9.939   2.911   8.594  1.6511 -0.3067  0.6076
  170MOL0     H22898   9.952   2.805   8.735  1.0401  0.8036 -0.5370
  170MOL0     H22899   9.705   2.834   8.557 -1.8137  2.5272  1.4113
  170MOL0     H22900   9.740   2.701   8.685 -0.1996  0.3632  0.4598
  170MOL0     H22901   9.520   3.001   8.648 -1.9707 -0.1478  0.1628
  170MOL0     H22902   9.366   3.092   8.830 -0.0998  2.5126  0.2091
  170MOL0     H22903   9.385   3.022   8.980 -1.6019 -0.7906 -2.1542
  170MOL0     H22904   9.556   3.226   9.023  0.4803  1.9842 -2.3266
  170MOL0     H22905   9.465   3.302   8.902  1.1119 -2.6727 -1.9724
  170MOL0     H22906   9.367   3.379   9.111  2.1629  0.1778  0.5699
  170MOL0     H22907   9.341   3.220   9.169  1.3274  0.3802  0.4467
  170MOL0     H22908   9.156   3.201   9.062  1.0018  1.1021  4.5532
  170MOL0     H22909   9.203   3.292   8.907  1.8649  2.9386  0.2707
  170MOL0     H22910   8.975   3.257   8.910  1.5881  0.2940  1.9155
  170MOL0     H22911   8.756   3.314   8.837 -0.5985  4.7360 -2.4998
  170MOL0     H22912   8.411   3.781   9.142 -0.7658  2.3723 -0.6777
  170MOL0     H22913   8.250   3.925   9.062  4.5740  2.1083  0.2099
  170MOL0     H22914   8.206   3.950   8.624 -0.1531 -0.6654 -0.0847
  170MOL0     H22915   8.064   3.852   8.630 -4.6976  2.9678 -0.6263
  170MOL0     H22916   8.017   4.066   8.545  2.8042 -2.4476  0.0409
  170MOL0     H22917   7.932   4.062   8.702  0.0730 -0.0248  2.3087
  170MOL0     H22918   8.073   4.217   8.808 -5.5889  1.1643 -0.9467
  170MOL0     H22919   8.200   4.203   8.680  0.2404 -2.7592  1.1157
  170MOL0     H22920   8.067   4.409   8.669  0.1249 -0.7028  1.0725
  170MOL0     H22921   7.933   4.316   8.678  1.4492  0.2582  0.9070
  170MOL0     H22922   7.953   4.266   8.427  0.4610 -0.4168 -1.5629
  170MOL0     H22923   8.122   4.261   8.450 -2.0024 -0.2652 -0.7739
  170MOL0     H22924   8.115   4.513   8.455  1.1486  1.6829 -4.3209
  170MOL0     H22925   8.053   4.447   8.311  2.1929 -0.5874  1.1034
  170MOL0     H22926   7.901   4.566   8.548 -2.2393 -4.7126  5.0625
  170MOL0     H22927   7.830   4.428   8.495  1.0558  0.4872  0.2858
  170MOL0     H22928   7.888   4.664   8.291 -0.7000  0.8796 -0.1229
  170MOL0     H22929   7.806   4.521   8.256  0.7990  0.4771 -0.3723
  170MOL0     H22930   8.270   3.716   8.671 -0.2831 -0.4397 -0.2185
  170MOL0     H22931   8.451   3.574   8.772 -0.7439 -0.6428 -1.3588
  170MOL0     H22932   8.748   3.610   9.158 -0.5178 -1.7951  2.2868
  170MOL0     H22933   8.992   3.600   9.152 -0.4728 -0.6629  0.2403
  170MOL0     H22934  10.491   2.119   8.963  0.4444  1.0006 -0.4702
  170MOL0     H22935  10.635   1.929   8.943  0.5195  2.6009 -0.2177
  170MOL0     H22936  10.679   1.474   8.946 -0.1108 -0.5898 -0.4743
  170MOL0     H22937  10.856   1.307   8.931 -1.6470 -2.8034 -1.2602
  170MOL0     H22938  11.024   1.201   8.865 -0.6244 -0.3617  0.3408
  170MOL0     H22939  11.117   1.102   8.760 -0.2809 -0.0374  1.9394
  170MOL0     H22940  10.964   0.943   8.699 -1.6359 -2.4308  0.0531
  170MOL0     H22941  10.831   1.030   8.767  0.3967 -0.5369 -3.3244
  170MOL0     H22942  10.976   1.019   8.996  2.6094  0.0352  0.2058
  170MOL0     H22943  11.085   0.924   8.902  1.7743  2.9439 -3.4113
  170MOL0     H22944  10.964   0.756   9.015  1.8036 -1.9856 -1.7533
  170MOL0     H22945  10.821   0.847   8.997 -0.8812 -0.0349 -0.5032
  170MOL0     H22946  10.867   0.583   8.650 -0.6820  1.4351 -0.3847
  170MOL0     H22947  10.894   1.399   8.514  1.7496 -1.2914  0.4856
  170MOL0     H22948  10.709   1.464   8.404  2.8945 -0.7395 -0.2973
  170MOL0     H22949  10.581   1.542   8.490  0.0853 -0.4256  2.7130
  170MOL0     H22950  10.728   1.640   8.449  1.5679 -1.4879 -0.6855
  171MOL0     O22951   5.663   3.235   8.432  0.3302 -0.3458 -0.3193
  171MOL0     C22952   5.660   3.359   8.418 -0.6361 -0.8844 -0.5608
  171MOL0     O22953   5.549   3.435   8.421 -0.2390  0.3663 -0.6287
  171MOL0     C22954   5.427   3.376   8.420 -0.3823 -0.9403 -0.1367
  171MOL0     C22955   5.335   3.436   8.334 -0.2521 -0.2084  1.7185
  171MOL0     C22956   5.211   3.390   8.326  0.8867 -0.0337  0.5278
  171MOL0     C22957   5.168   3.269   8.395  1.0103 -0.6119  0.4398
  171MOL0     O22958   5.047   3.213   8.400  0.0570 -0.0075 -0.2868
  171MOL0     C22959   4.938   3.303   8.356 -0.0406  0.9974  1.2510
  171MOL0     C22960   4.796   3.234   8.359 -0.6023  0.1367  0.5436
  171MOL0     C22961   4.748   3.244   8.500 -0.0364 -0.3547 -0.7483
  171MOL0     C22962   4.678   3.381   8.553  1.2791 -0.7076  0.1267
  171MOL0     C22963   4.614   3.343   8.689 -0.0363  0.2709  0.3426
  171MOL0     C22964   4.581   3.476   8.777  0.5457 -0.4587  0.1833
  171MOL0     C22965   4.496   3.585   8.706  0.8583  0.0739 -0.7209
  171MOL0     C22966   4.548   3.730   8.689  0.2728 -0.0640  0.0773
  171MOL0     N22967   4.662   3.748   8.592 -0.0742  0.3056 -0.7076
  171MOL0     C22968   4.788   3.706   8.612 -0.4975 -0.2907 -0.1006
  171MOL0     C22969   4.851   3.716   8.490  0.7287  0.8024  0.3092
  171MOL0     C22970   4.991   3.681   8.468 -0.1017  0.7520  0.1683
  171MOL0     C22971   5.075   3.801   8.484 -0.3494 -0.5073  0.4870
  171MOL0     C22972   5.045   3.929   8.397 -0.0167 -0.1448  0.2650
  171MOL0     C22973   5.148   4.039   8.428  0.2752  0.6969 -0.1951
  171MOL0     O22974   5.159   4.056   8.566  0.1728 -0.3491 -0.3933
  171MOL0     C22975   5.246   4.157   8.610  1.0579  1.4378  0.2614
  171MOL0     C22976   5.337   4.222   8.526  0.0823 -0.9042 -0.5056
  171MOL0     C22977   5.423   4.312   8.582 -0.9135  1.0257  0.4046
  171MOL0     C22978   5.434   4.345   8.719  0.5330  0.3624  0.2467
  171MOL0     C22979   5.543   4.430   8.775 -0.5555  1.2128  0.7122
  171MOL0     O22980   5.653   4.459   8.693 -0.5184  0.2065  0.1557
  171MOL0     C22981   5.744   4.560   8.727  0.5218 -0.1871 -0.7614
  171MOL0     C22982   5.709   4.685   8.785  0.7009 -0.1490 -0.1844
  171MOL0     C22983   5.796   4.786   8.813 -0.6374  0.0817 -0.0777
  171MOL0     C22984   5.921   4.770   8.762  0.3844 -0.9279 -0.4978
  171MOL0     O22985   5.999   4.879   8.788 -0.0396  0.0747  0.6188
  171MOL0     C22986   6.138   4.857   8.813 -0.0278 -0.3064  0.0469
  171MOL0     C22987   6.131   4.817   8.961 -0.1237  0.2349  0.4132
  171MOL0     C22988   6.096   4.938   9.051 -0.4724 -0.3267  0.2957
  171MOL0     C22989   6.110   4.909   9.203 -0.7901  0.4355 -0.9014
  171MOL0     C22990   6.039   4.789   9.264  0.0947  0.2456  0.0919
  171MOL0     C22991   5.889   4.786   9.219 -0.1381  0.5569  0.0919
  171MOL0     C22992   5.805   4.686   9.288 -0.1267 -0.5099 -1.4487
  171MOL0     C22993   5.667   4.669   9.238  0.2610  0.0013  0.0900
  171MOL0    Cl22994   5.563   4.593   9.359  0.1925 -0.2795 -1.0961
  171MOL0     C22995   5.967   4.651   8.699  0.9663  0.6409  0.0218
  171MOL0     C22996   5.876   4.539   8.682 -0.5421  0.5695  0.2757
  171MOL0     O22997   5.545   4.459   8.890  0.5371 -1.2411 -0.0660
  171MOL0     C22998   5.338   4.281   8.800 -0.0762  0.5653  0.7784
  171MOL0     C22999   5.242   4.188   8.741  0.3528 -0.3862  0.6047
  171MOL0     N23000   4.757   3.765   8.402 -0.5761  0.5818 -0.0971
  171MOL0     N23001   4.639   3.771   8.460 -0.0313 -0.1830  0.7061
  171MOL0     C23002   5.264   3.205   8.479 -0.6526 -0.1457  0.4375
  171MOL0     C23003   5.395   3.262   8.493  0.6534  0.5457  0.0015
  171MOL0     C23004   5.784   3.424   8.386  0.4706  0.0796  1.5660
  171MOL0     C23005   5.784   3.522   8.282  0.2763  0.4982 -0.1065
  171MOL0     C23006   5.896   3.594   8.239  0.6950 -0.3621  0.2200
  171MOL0     C23007   6.011   3.578   8.299 -1.2530  0.8147 -0.0652
  171MOL0     O23008   6.129   3.639   8.266  0.8033 -0.2518 -0.4117
  171MOL0     C23009   6.158   3.719   8.157 -0.3383 -0.8417  0.1603
  171MOL0     C23010   6.135   3.633   8.024 -0.1197  0.0320  0.2122
  171MOL0     C23011   6.064   3.704   7.908  0.2113 -0.8262  0.1848
  171MOL0     C23012   6.150   3.835   7.880  0.3280 -0.2783 -0.3633
  171MOL0     C23013   6.124   3.959   7.956  0.2618  0.3858  0.6289
  171MOL0     C23014   6.121   4.053   8.034  0.6322 -0.5825  0.2317
  171MOL0     C23015   6.019   3.492   8.413 -0.3033 -0.1235 -0.2871
  171MOL0     C23016   5.903   3.421   8.460  0.2868 -0.0823 -0.3639
  171MOL0     C23017   5.900   3.332   8.589 -0.4970 -0.1706 -0.6621
  171MOL0     H23018   5.376   3.526   8.289  1.2718 -0.7790  1.9020
  171MOL0     H23019   5.124   3.445   8.292 -0.7784 -3.7861 -2.0092
  171MOL0     H23020   4.937   3.391   8.420 -0.2146  1.1767  1.0068
  171MOL0     H23021   4.952   3.325   8.249  0.2492  1.8091  1.4464
  171MOL0     H23022   4.797   3.129   8.328  1.7048  0.1193  0.5430
  171MOL0     H23023   4.727   3.294   8.299 -1.1440 -2.6731 -1.8693
  171MOL0     H23024   4.825   3.233   8.577 -1.3916 -1.8054  0.4703
  171MOL0     H23025   4.678   3.161   8.507 -2.0144  1.2103 -0.9534
  171MOL0     H23026   4.753   3.460   8.558  0.3766  0.2369 -0.8496
  171MOL0     H23027   4.594   3.423   8.497  1.6585  0.8069  0.6457
  171MOL0     H23028   4.524   3.287   8.666 -0.7975  0.7697  1.9806
  171MOL0     H23029   4.679   3.268   8.734  0.2365  0.5998  0.5019
  171MOL0     H23030   4.521   3.453   8.866 -0.7943  2.4324  0.1561
  171MOL0     H23031   4.676   3.516   8.815 -0.5620 -0.2161  2.9912
  171MOL0     H23032   4.399   3.602   8.754  2.1949  0.4010  2.0462
  171MOL0     H23033   4.481   3.551   8.603  0.7534 -2.1304 -0.0462
  171MOL0     H23034   4.471   3.800   8.657  0.7204  1.1738  1.6091
  171MOL0     H23035   4.588   3.779   8.778  5.1855  0.7597 -2.2414
  171MOL0     H23036   4.821   3.669   8.709 -1.8970  2.5861  1.6115
  171MOL0     H23037   5.021   3.595   8.528  1.3078  0.2653 -1.1817
  171MOL0     H23038   5.001   3.654   8.363 -1.7966 -0.9676  0.3878
  171MOL0     H23039   5.072   3.827   8.590 -3.3897 -0.8994  0.5909
  171MOL0     H23040   5.176   3.772   8.453 -0.7656 -0.5409 -0.9554
  171MOL0     H23041   4.946   3.972   8.414 -0.7477 -1.3347 -0.7605
  171MOL0     H23042   5.065   3.900   8.293  2.6968  1.0081  0.3872
  171MOL0     H23043   5.110   4.126   8.375  0.1913 -0.0002 -1.3126
  171MOL0     H23044   5.250   4.017   8.396  0.9034  2.0866  0.7682
  171MOL0     H23045   5.334   4.213   8.418  0.0516  0.2829 -0.6143
  171MOL0     H23046   5.501   4.358   8.523 -0.6035 -3.1180 -2.8689
  171MOL0     H23047   5.608   4.716   8.810  0.3010 -2.7797  1.9396
  171MOL0     H23048   5.765   4.872   8.873 -0.4855 -0.8240  1.3571
  171MOL0     H23049   6.170   4.774   8.750 -0.8768  0.2958 -1.2149
  171MOL0     H23050   6.196   4.948   8.795  0.0749 -0.8237 -2.7019
  171MOL0     H23051   6.047   4.751   8.981 -0.1736  0.0832 -0.3031
  171MOL0     H23052   6.231   4.783   8.989  0.7963  0.8818 -1.8728
  171MOL0     H23053   6.161   5.022   9.024  1.0870 -1.6065 -0.1152
  171MOL0     H23054   5.989   4.950   9.033 -0.4266  0.1813  0.3457
  171MOL0     H23055   6.072   4.994   9.260 -1.1720 -0.9500  0.9849
  171MOL0     H23056   6.216   4.894   9.226 -1.1410 -1.2895 -0.2117
  171MOL0     H23057   6.051   4.779   9.372  1.1781  0.3282 -0.0104
  171MOL0     H23058   6.090   4.697   9.234  0.1818  0.1545  0.5145
  171MOL0     H23059   5.835   4.881   9.232 -0.5094  0.4573 -0.6465
  171MOL0     H23060   5.884   4.780   9.110 -1.5932  2.1981  0.0149
  171MOL0     H23061   5.787   4.703   9.394 -1.6342  0.8541 -1.8605
  171MOL0     H23062   5.846   4.585   9.285  1.1419 -0.1876  1.6205
  171MOL0     H23063   5.620   4.766   9.218 -0.9930 -0.6776 -0.4016
  171MOL0     H23064   5.650   4.620   9.141 -3.0299  2.8966 -1.0044
  171MOL0     H23065   6.069   4.649   8.662  1.7067  2.3035  1.7830
  171MOL0     H23066   5.897   4.448   8.627 -1.4380  0.7267 -0.3444
  171MOL0     H23067   5.327   4.305   8.906 -1.5716 -0.6454  0.9261
  171MOL0     H23068   5.167   4.142   8.804 -2.6190  0.1552 -2.2751
  171MOL0     H23069   5.238   3.107   8.516  1.3455 -1.1460 -0.6060
  171MOL0     H23070   5.469   3.238   8.569 -1.3239  0.3868  2.0077
  171MOL0     H23071   5.688   3.528   8.232 -0.2391 -1.6383  0.5118
  171MOL0     H23072   5.894   3.671   8.162  0.8959 -0.9282 -0.3603
  171MOL0     H23073   6.258   3.761   8.161 -0.0678 -1.4734  0.1433
  171MOL0     H23074   6.086   3.802   8.153 -1.4366 -1.6096  2.3724
  171MOL0     H23075   6.074   3.545   8.048 -0.6640 -0.1319 -1.6574
  171MOL0     H23076   6.233   3.611   7.980  1.0094  2.5319  1.2567
  171MOL0     H23077   5.960   3.729   7.929 -0.3902 -1.7503 -1.4878
  171MOL0     H23078   6.077   3.646   7.816  2.2231  0.5176 -0.4446
  171MOL0     H23079   6.253   3.802   7.894  0.4260 -0.2979 -1.1201
  171MOL0     H23080   6.128   3.857   7.775 -0.5392 -2.6337 -0.7245
  171MOL0     H23081   6.089   4.137   8.092  0.6551 -0.6319  0.3144
  171MOL0     H23082   6.111   3.477   8.469 -1.1184 -1.1068  0.8406
  171MOL0     H23083   5.809   3.352   8.646  0.4067  0.0750  0.7738
  171MOL0     H23084   5.905   3.226   8.564 -1.4742  0.3116 -3.1202
  171MOL0     H23085   5.984   3.350   8.657 -0.5807  2.9967 -1.2410
  172MOL0     O23086   7.523   5.733   5.121 -0.9037 -0.5975  0.2211
  172MOL0     C23087   7.506   5.676   5.020 -0.0042  0.3808  0.9238
  172MOL0     O23088   7.549   5.543   4.993 -0.2461 -0.8124  0.7531
  172MOL0     C23089   7.539   5.461   5.100 -0.6744 -0.0569  0.4810
  172MOL0     C23090   7.646   5.458   5.191 -0.3613 -0.3644 -1.1452
  172MOL0     C23091   7.638   5.375   5.301  0.2347  0.0327 -0.0607
  172MOL0     C23092   7.528   5.282   5.312 -0.4627  0.7142  0.1956
  172MOL0     O23093   7.511   5.182   5.404  0.2116 -0.8038 -0.6333
  172MOL0     C23094   7.627   5.137   5.461  0.4452 -0.0157  0.1007
  172MOL0     C23095   7.579   5.026   5.551 -0.0757 -1.1646 -0.8758
  172MOL0     C23096   7.596   4.885   5.485  0.3194 -0.3436  0.0904
  172MOL0     C23097   7.621   4.778   5.590 -0.4636  0.3190 -0.4480
  172MOL0     C23098   7.766   4.820   5.671  0.8721  1.4424  0.5152
  172MOL0     C23099   7.849   4.703   5.715  0.0062 -0.7078  0.3311
  172MOL0     C23100   7.966   4.734   5.817 -0.1804  0.1644  0.0816
  172MOL0     C23101   7.999   4.606   5.897  0.9823  0.7791  0.9793
  172MOL0     N23102   8.143   4.572   5.890 -0.6921 -0.3773 -0.0851
  172MOL0     C23103   8.247   4.646   5.943  0.5115  0.7732  0.7575
  172MOL0     C23104   8.354   4.575   5.902  0.2374 -0.5688  0.3960
  172MOL0     C23105   8.504   4.603   5.920  0.7185  1.0878  0.9810
  172MOL0     C23106   8.553   4.531   6.052 -0.1691 -0.6705  0.6886
  172MOL0     C23107   8.576   4.378   6.039  0.0811  0.8044  0.3746
  172MOL0     C23108   8.711   4.332   5.970 -0.0059  0.6961 -0.0653
  172MOL0     O23109   8.827   4.393   6.015 -0.4918  0.1849 -0.2894
  172MOL0     C23110   8.872   4.351   6.142 -0.2572  0.8537 -0.1137
  172MOL0     C23111   8.933   4.449   6.225 -0.6596  0.2559 -0.0614
  172MOL0     C23112   8.971   4.428   6.358 -0.5366 -0.7127  0.6722
  172MOL0     C23113   8.965   4.298   6.425 -0.1227  0.2861 -0.5021
  172MOL0     C23114   9.010   4.279   6.565  0.0639 -0.2836  1.1560
  172MOL0     O23115   9.036   4.385   6.638  0.0570 -0.7299  0.1898
  172MOL0     C23116   9.039   4.385   6.770  0.1550  0.5371 -0.2640
  172MOL0     C23117   9.165   4.372   6.837 -0.2710  0.3159 -0.3163
  172MOL0     C23118   9.173   4.371   6.982  0.0663 -0.3109 -0.6013
  172MOL0     C23119   9.055   4.410   7.048 -0.3590  0.4006  0.1488
  172MOL0     O23120   9.045   4.425   7.186  0.2332 -0.6546 -0.2612
  172MOL0     C23121   9.134   4.372   7.289  0.2470 -0.1595  0.3731
  172MOL0     C23122   9.083   4.435   7.413 -0.3321 -0.3894 -0.7447
  172MOL0     C23123   9.181   4.439   7.529 -0.4483  0.9664  0.5784
  172MOL0     C23124   9.129   4.546   7.628  0.4389 -0.8860 -0.2749
  172MOL0     C23125   9.209   4.568   7.755  0.2142 -0.2656  0.2226
  172MOL0     C23126   9.360   4.569   7.741 -0.8979  0.2769  0.0103
  172MOL0     C23127   9.407   4.702   7.683 -0.5355 -0.4195 -0.4527
  172MOL0     C23128   9.545   4.703   7.612 -0.5531  0.8304 -0.2029
  172MOL0    Cl23129   9.685   4.621   7.702  0.0165 -0.2381 -0.4816
  172MOL0     C23130   8.932   4.421   6.980  0.8104 -0.0616 -0.3453
  172MOL0     C23131   8.921   4.405   6.841 -0.1131 -0.9836  0.3208
  172MOL0     O23132   9.024   4.164   6.599  0.6508 -0.0876  0.3786
  172MOL0     C23133   8.911   4.198   6.340 -0.3075  0.0619  0.1479
  172MOL0     C23134   8.870   4.223   6.203  0.3556  0.0061 -0.2311
  172MOL0     N23135   8.312   4.462   5.824  0.6659  0.8189  0.2198
  172MOL0     N23136   8.184   4.464   5.816  0.3884 -0.5583  0.5537
  172MOL0     C23137   7.427   5.287   5.223 -0.5931 -0.1123  0.7236
  172MOL0     C23138   7.433   5.371   5.112 -0.0490 -0.1116 -0.5997
  172MOL0     C23139   7.458   5.761   4.903  0.1214  0.8563  0.0823
  172MOL0     C23140   7.472   5.897   4.919 -0.1849 -0.1008  0.1664
  172MOL0     C23141   7.420   5.985   4.822 -0.3687 -0.7449 -0.4281
  172MOL0     C23142   7.338   5.941   4.713 -0.7741 -0.2605 -0.9300
  172MOL0     O23143   7.271   6.041   4.642 -0.4919 -0.2105 -0.2770
  172MOL0     C23144   7.149   5.998   4.572  0.2968 -0.6384 -1.4362
  172MOL0     C23145   7.100   6.110   4.473 -0.4928 -0.3803 -0.7356
  172MOL0     C23146   7.005   6.056   4.363 -0.2377  0.2132 -0.3876
  172MOL0     C23147   6.985   6.165   4.260 -1.0419 -0.0599 -0.5262
  172MOL0     C23148   6.905   6.112   4.156 -0.6548  0.1578 -0.0611
  172MOL0     C23149   6.826   6.072   4.075  0.5203 -0.7417  0.4433
  172MOL0     C23150   7.329   5.801   4.701  0.6632 -0.2437  0.4520
  172MOL0     C23151   7.387   5.713   4.795  0.5487 -0.8113 -0.1296
  172MOL0     C23152   7.372   5.565   4.785 -0.0314  0.2660  0.2588
  172MOL0     H23153   7.724   5.529   5.164  2.1373 -2.8183 -0.8136
  172MOL0     H23154   7.720   5.356   5.369  0.0485 -3.1420 -0.5969
  172MOL0     H23155   7.691   5.101   5.380  1.1129  0.4040  0.4298
  172MOL0     H23156   7.676   5.212   5.524 -0.8341  1.3455 -0.4650
  172MOL0     H23157   7.474   5.039   5.576 -0.2957 -0.2829 -2.1307
  172MOL0     H23158   7.648   5.040   5.635 -1.5405  0.9269  0.0618
  172MOL0     H23159   7.680   4.898   5.416  1.3325 -2.5378  0.8462
  172MOL0     H23160   7.519   4.851   5.415  2.2344 -1.4490 -1.5915
  172MOL0     H23161   7.540   4.804   5.659 -0.5747  1.9474 -1.1442
  172MOL0     H23162   7.613   4.677   5.548  3.1424 -0.9534  1.4641
  172MOL0     H23163   7.823   4.901   5.624  0.2465  1.6805  0.1550
  172MOL0     H23164   7.729   4.867   5.763  2.3292  2.3038  0.6964
  172MOL0     H23165   7.786   4.644   5.783 -1.0803  2.2360  2.0824
  172MOL0     H23166   7.859   4.641   5.626 -1.5808 -1.9378  0.9342
  172MOL0     H23167   7.930   4.814   5.882  1.3789  2.7026 -1.9881
  172MOL0     H23168   8.051   4.778   5.764 -0.3937 -1.8737 -2.0943
  172MOL0     H23169   7.978   4.626   6.002  0.0872 -2.3752  1.5016
  172MOL0     H23170   7.933   4.523   5.872  0.6280  0.7603  1.9422
  172MOL0     H23171   8.239   4.742   5.991 -1.1353  0.1774  1.7457
  172MOL0     H23172   8.562   4.555   5.840  2.0153  1.4341  1.6957
  172MOL0     H23173   8.528   4.709   5.928  0.4104  1.2113  0.3698
  172MOL0     H23174   8.644   4.580   6.087  0.7415 -0.7499 -1.3792
  172MOL0     H23175   8.472   4.561   6.119  0.8103  2.4295  0.6626
  172MOL0     H23176   8.501   4.327   5.978  1.0777 -0.6303  0.3017
  172MOL0     H23177   8.554   4.331   6.135 -0.3170 -3.7881 -1.7442
  172MOL0     H23178   8.704   4.358   5.864 -0.5850 -0.1954 -0.2524
  172MOL0     H23179   8.723   4.224   5.981 -1.9932  0.2853 -1.4257
  172MOL0     H23180   8.965   4.539   6.173 -0.8970 -1.1731 -2.8527
  172MOL0     H23181   9.025   4.509   6.406  1.3850 -0.6745 -1.3947
  172MOL0     H23182   9.260   4.356   6.787  2.8624  5.0544  3.2166
  172MOL0     H23183   9.265   4.356   7.038 -0.1049  1.8879  0.3325
  172MOL0     H23184   9.116   4.264   7.290 -0.7314 -0.0584 -1.7082
  172MOL0     H23185   9.238   4.393   7.265 -0.4264  1.6670 -1.1466
  172MOL0     H23186   9.054   4.541   7.407  0.2086 -0.0770  1.4487
  172MOL0     H23187   8.997   4.384   7.456  0.3263  2.1737  4.4109
  172MOL0     H23188   9.177   4.341   7.578 -1.9832  0.0674 -1.2267
  172MOL0     H23189   9.284   4.458   7.497  0.5391 -2.4656  1.2955
  172MOL0     H23190   9.023   4.524   7.645 -0.0469 -0.0180 -1.9722
  172MOL0     H23191   9.118   4.640   7.573 -1.3754 -2.2214 -2.3258
  172MOL0     H23192   9.189   4.489   7.829  0.6804  1.2197  1.9944
  172MOL0     H23193   9.175   4.654   7.813 -0.7772  1.3616 -2.5906
  172MOL0     H23194   9.397   4.545   7.842 -1.8938 -2.5815 -0.2120
  172MOL0     H23195   9.408   4.486   7.689 -2.5466 -2.1674  2.1096
  172MOL0     H23196   9.407   4.769   7.770 -2.6374 -3.5370  2.1517
  172MOL0     H23197   9.334   4.742   7.612 -2.1001  1.1152  1.8670
  172MOL0     H23198   9.541   4.627   7.534  0.8565 -0.2664  0.7666
  172MOL0     H23199   9.580   4.805   7.589  0.3899  0.7648  0.8760
  172MOL0     H23200   8.850   4.452   7.043  1.9653 -1.4212  1.9590
  172MOL0     H23201   8.826   4.423   6.791 -0.4414  0.0445  1.2828
  172MOL0     H23202   8.921   4.101   6.387  4.5315  0.7439  1.0408
  172MOL0     H23203   8.845   4.140   6.138  2.3060 -0.4006 -0.5416
  172MOL0     H23204   7.345   5.215   5.228 -1.3921  0.6939 -0.4635
  172MOL0     H23205   7.345   5.376   5.050  1.0433  0.0533 -2.1819
  172MOL0     H23206   7.527   5.943   5.001 -1.4585 -2.5580  2.5328
  172MOL0     H23207   7.416   6.093   4.838 -0.2019 -0.8423  0.2821
  172MOL0     H23208   7.073   5.954   4.637  0.1319 -3.3613 -3.3135
  172MOL0     H23209   7.192   5.915   4.515  1.7587 -1.0599  0.2223
  172MOL0     H23210   7.192   6.151   4.430 -0.7443 -1.1289 -2.0695
  172MOL0     H23211   7.048   6.197   4.513  2.2256  1.3074 -0.6411
  172MOL0     H23212   6.912   6.029   4.414  0.8931  2.5536  3.2781
  172MOL0     H23213   7.038   5.971   4.304 -4.4923 -1.3517 -0.8953
  172MOL0     H23214   6.922   6.243   4.302  0.3606 -0.5203  2.7564
  172MOL0     H23215   7.081   6.205   4.226 -1.0426  0.5532  0.1739
  172MOL0     H23216   6.771   6.044   3.988 -1.6328  0.1883  1.4467
  172MOL0     H23217   7.257   5.761   4.631  1.1677  2.3862 -1.7576
  172MOL0     H23218   7.318   5.529   4.697 -0.8465 -2.0168  1.6072
  172MOL0     H23219   7.471   5.518   4.784  0.1186  0.5040  1.7684
  172MOL0     H23220   7.325   5.519   4.872  0.1966  0.4822  0.4979
  173MOL0     O23221   8.027   6.052   0.592  0.1144 -0.0333  0.5827
  173MOL0     C23222   7.998   5.932   0.586 -0.8473 -0.0424  0.3008
  173MOL0     O23223   8.051   5.843   0.679  0.0787 -0.4380 -0.3150
  173MOL0     C23224   8.154   5.898   0.751  0.2509  1.4922  1.2364
  173MOL0     C23225   8.269   5.921   0.686 -0.7111  0.0538 -0.5506
  173MOL0     C23226   8.377   5.992   0.741  0.3211  1.1607  0.5023
  173MOL0     C23227   8.364   6.035   0.870 -0.3224 -0.7535 -0.3692
  173MOL0     O23228   8.466   6.120   0.928  0.1115 -0.4657 -0.0170
  173MOL0     C23229   8.478   6.245   0.860 -0.4511  0.8334 -0.0200
  173MOL0     C23230   8.585   6.330   0.920  0.0326 -0.3738  0.3989
  173MOL0     C23231   8.637   6.441   0.814 -0.4468 -0.1119 -0.9172
  173MOL0     C23232   8.730   6.386   0.700 -0.2280  0.0867 -0.3873
  173MOL0     C23233   8.752   6.495   0.587  0.4215 -0.2304  0.1379
  173MOL0     C23234   8.796   6.454   0.443  0.7684  0.0274  0.1034
  173MOL0     C23235   8.880   6.557   0.365  0.1982 -0.9480 -1.2604
  173MOL0     C23236   8.865   6.539   0.214 -0.7259  0.1329  0.3357
  173MOL0     N23237   8.980   6.555   0.131  0.2116  0.5164  0.0314
  173MOL0     C23238   9.058   6.448   0.089 -0.2808 -0.6125 -0.1800
  173MOL0     C23239   9.159   6.523   0.033 -1.1342  0.0215 -0.8875
  173MOL0     C23240   9.278   6.453  -0.036 -0.5319 -0.1886 -0.4215
  173MOL0     C23241   9.253   6.426  -0.184  0.3474  0.0833 -0.7928
  173MOL0     C23242   9.286   6.546  -0.273  0.4727  0.5843 -1.0326
  173MOL0     C23243   9.440   6.565  -0.283  0.3283 -0.4385  0.5060
  173MOL0     O23244   9.488   6.479  -0.385 -1.1713 -0.2011  0.3674
  173MOL0     C23245   9.598   6.515  -0.467  0.4488 -2.0220  0.4910
  173MOL0     C23246   9.632   6.418  -0.562 -0.3104 -0.1644 -0.6856
  173MOL0     C23247   9.728   6.442  -0.657  1.0809 -0.8957 -0.5709
  173MOL0     C23248   9.792   6.565  -0.675  0.5576  0.3120 -0.2299
  173MOL0     C23249   9.874   6.601  -0.789  0.8394 -0.5619 -0.0899
  173MOL0     O23250   9.924   6.734  -0.803  0.3024  0.0074 -0.5812
  173MOL0     C23251  10.025   6.753  -0.896 -0.6127 -0.5955  0.4294
  173MOL0     C23252  10.157   6.708  -0.872  0.2486  1.0837  0.4053
  173MOL0     C23253  10.261   6.749  -0.954  0.1811 -0.0416  0.3880
  173MOL0     C23254  10.235   6.830  -1.062 -0.6687  0.2222  0.7927
  173MOL0     O23255  10.331   6.881  -1.149 -0.3619 -0.8757  0.6290
  173MOL0     C23256  10.459   6.817  -1.147 -1.2405 -0.7386  1.0212
  173MOL0     C23257  10.534   6.876  -1.279  0.0427  0.5282 -0.1327
  173MOL0     C23258  10.556   7.022  -1.269  0.6353 -0.2215  0.0725
  173MOL0     C23259  10.652   7.070  -1.373  0.0854 -0.2204 -1.0960
  173MOL0     C23260  10.652   7.226  -1.379  0.2462  0.4224 -0.3848
  173MOL0     C23261  10.677   7.308  -1.252  1.2886 -0.6230 -0.2857
  173MOL0     C23262  10.820   7.318  -1.206 -0.4533  0.4153 -0.4158
  173MOL0     C23263  10.852   7.280  -1.062  0.4626  0.3922 -0.9207
  173MOL0    Cl23264  10.799   7.116  -1.003 -0.0462 -0.3094 -0.2586
  173MOL0     C23265  10.102   6.862  -1.093 -0.0799 -0.6053  0.1659
  173MOL0     C23266  10.005   6.834  -1.005 -0.3139  0.5913 -0.1827
  173MOL0     O23267   9.877   6.524  -0.885 -0.2062  0.8519  0.0581
  173MOL0     C23268   9.759   6.659  -0.578  0.1079 -0.8192 -0.1658
  173MOL0     C23269   9.669   6.636  -0.466 -0.8894 -0.0609  0.4177
  173MOL0     N23270   9.148   6.658   0.031  0.0602 -0.3404 -0.1289
  173MOL0     N23271   9.032   6.673   0.085  0.4972 -0.3182 -0.2344
  173MOL0     C23272   8.234   6.021   0.939 -1.8504 -1.2907  0.4927
  173MOL0     C23273   8.131   5.953   0.874  0.0220  0.2046  0.6773
  173MOL0     C23274   7.927   5.872   0.482  0.4136 -1.3537  0.5814
  173MOL0     C23275   7.946   5.742   0.438  0.1333  0.6778  0.4929
  173MOL0     C23276   7.864   5.671   0.344 -0.9772 -0.3063 -0.0941
  173MOL0     C23277   7.763   5.742   0.282  0.3742  0.3775  0.2142
  173MOL0     O23278   7.663   5.681   0.215  0.4351 -1.1244 -0.2580
  173MOL0     C23279   7.677   5.568   0.136 -0.2539 -0.3742 -0.0736
  173MOL0     C23280   7.630   5.444   0.206  0.5497 -0.2425 -1.3737
  173MOL0     C23281   7.467   5.429   0.218 -0.2426 -0.3118  0.0741
  173MOL0     C23282   7.432   5.301   0.290 -0.1600  0.0330  0.6317
  173MOL0     C23283   7.441   5.317   0.429 -0.2534  0.6943 -0.4671
  173MOL0     C23284   7.448   5.326   0.550  0.1522 -0.2454 -0.4523
  173MOL0     C23285   7.756   5.883   0.304  0.8441  0.7147 -0.0140
  173MOL0     C23286   7.831   5.943   0.405 -0.1965 -0.5620 -0.0929
  173MOL0     C23287   7.779   6.080   0.445 -0.4328 -0.9253 -0.2532
  173MOL0     H23288   8.271   5.892   0.582 -4.0689  0.1915 -0.7650
  173MOL0     H23289   8.465   6.016   0.683 -0.0208  5.5119  1.4055
  173MOL0     H23290   8.502   6.221   0.756 -1.2241 -1.1267  0.2262
  173MOL0     H23291   8.389   6.307   0.870 -1.0768 -0.1306  0.4889
  173MOL0     H23292   8.670   6.271   0.954 -1.3745 -3.4097 -1.0191
  173MOL0     H23293   8.534   6.378   1.005  1.1867 -1.0751  1.5253
  173MOL0     H23294   8.693   6.520   0.865  1.3438 -3.3306  2.6190
  173MOL0     H23295   8.553   6.493   0.766 -0.1175  1.2444 -0.0970
  173MOL0     H23296   8.830   6.368   0.739 -1.2641 -0.5499  2.2016
  173MOL0     H23297   8.695   6.287   0.673  1.1662 -1.4329  2.8398
  173MOL0     H23298   8.670   6.563   0.562  1.2159 -0.1474 -2.5999
  173MOL0     H23299   8.832   6.559   0.625  1.3707 -1.0225 -0.4884
  173MOL0     H23300   8.849   6.359   0.449 -0.7545 -1.0880 -2.3057
  173MOL0     H23301   8.700   6.439   0.393 -0.3174  1.9068  1.5114
  173MOL0     H23302   8.983   6.531   0.391  0.7522  2.8201  0.9713
  173MOL0     H23303   8.865   6.661   0.393  2.8961 -0.3269 -1.7687
  173MOL0     H23304   8.833   6.438   0.186 -2.2870  0.7926 -0.3795
  173MOL0     H23305   8.786   6.608   0.182 -0.2645  1.9121  2.7746
  173MOL0     H23306   9.042   6.343   0.110 -3.5339 -0.0184  0.8895
  173MOL0     H23307   9.372   6.505  -0.014 -2.5994  4.0392 -0.5356
  173MOL0     H23308   9.295   6.355   0.009  0.7397  1.2583  2.5450
  173MOL0     H23309   9.318   6.345  -0.217 -0.3221 -0.1951 -1.4578
  173MOL0     H23310   9.151   6.387  -0.190  0.4207 -0.3346  0.2978
  173MOL0     H23311   9.237   6.637  -0.237  1.9303  1.0292 -0.1010
  173MOL0     H23312   9.249   6.517  -0.372  0.9382  1.7150 -1.5530
  173MOL0     H23313   9.477   6.527  -0.187  0.1638 -3.4438 -0.4992
  173MOL0     H23314   9.460   6.671  -0.300 -0.9724 -0.4348 -1.1508
  173MOL0     H23315   9.589   6.319  -0.549  0.3344 -0.0356  4.4471
  173MOL0     H23316   9.744   6.374  -0.740  0.8240 -2.4932  0.6400
  173MOL0     H23317  10.172   6.652  -0.780  0.4670  0.7942  0.1917
  173MOL0     H23318  10.365   6.722  -0.941  0.7814  1.7106 -0.5284
  173MOL0     H23319  10.521   6.820  -1.057 -0.8155 -1.4370  0.7571
  173MOL0     H23320  10.438   6.712  -1.172 -4.3623 -0.3585  1.6332
  173MOL0     H23321  10.629   6.823  -1.281  0.8456  1.8160  1.6000
  173MOL0     H23322  10.479   6.858  -1.372 -0.2428  2.8323 -0.4518
  173MOL0     H23323  10.459   7.071  -1.277 -0.5178 -1.8080  2.9271
  173MOL0     H23324  10.588   7.044  -1.167  2.3493 -0.9605 -0.2574
  173MOL0     H23325  10.625   7.029  -1.471 -0.3719  0.3555 -1.2128
  173MOL0     H23326  10.745   7.029  -1.331 -0.4844  2.1632  2.9926
  173MOL0     H23327  10.549   7.253  -1.404 -0.1411 -1.2267 -0.6633
  173MOL0     H23328  10.707   7.266  -1.465 -2.2154  4.7068 -0.2864
  173MOL0     H23329  10.648   7.406  -1.291 -0.6240 -0.4814  1.3284
  173MOL0     H23330  10.601   7.294  -1.174  1.4833 -0.5190 -0.0745
  173MOL0     H23331  10.861   7.419  -1.209  3.2829 -0.9574 -1.4892
  173MOL0     H23332  10.878   7.253  -1.272  2.2393  3.5473 -1.4147
  173MOL0     H23333  10.960   7.279  -1.047  0.3308  2.3985  0.5823
  173MOL0     H23334  10.819   7.362  -0.997  1.4231  2.3708 -2.7804
  173MOL0     H23335  10.081   6.936  -1.170 -1.6288 -1.1301  0.0418
  173MOL0     H23336   9.902   6.869  -1.010 -1.0367 -1.2108  1.1077
  173MOL0     H23337   9.816   6.752  -0.584  1.2541 -1.5786 -2.2221
  173MOL0     H23338   9.648   6.712  -0.391 -0.4935 -0.0198  0.4853
  173MOL0     H23339   8.217   6.077   1.031  0.1229  0.2346  0.0061
  173MOL0     H23340   8.030   5.941   0.912 -1.1248 -2.6823 -2.7421
  173MOL0     H23341   8.029   5.680   0.469 -0.2263  0.5893  1.3341
  173MOL0     H23342   7.878   5.565   0.326 -1.6318  0.0948 -3.6813
  173MOL0     H23343   7.783   5.559   0.110 -1.0491 -5.1445 -2.8870
  173MOL0     H23344   7.618   5.588   0.046  1.7709 -0.6389 -1.5276
  173MOL0     H23345   7.664   5.439   0.310  2.2882  2.1503 -1.7413
  173MOL0     H23346   7.663   5.358   0.147  0.3193 -0.0095 -1.8511
  173MOL0     H23347   7.421   5.421   0.119 -0.3836 -1.0823  0.1990
  173MOL0     H23348   7.418   5.517   0.261  1.4971 -0.2018  1.9649
  173MOL0     H23349   7.336   5.261   0.255  1.9103 -2.7311 -2.4636
  173MOL0     H23350   7.498   5.220   0.259 -1.8812 -1.3206  0.3472
  173MOL0     H23351   7.473   5.343   0.653 -2.2849 -0.0323  0.1722
  173MOL0     H23352   7.669   5.933   0.262  0.1327  1.9351  2.6912
  173MOL0     H23353   7.794   6.107   0.550  2.1322 -0.8938 -0.5590
  173MOL0     H23354   7.837   6.148   0.382  2.7614 -4.0766 -1.0326
  173MOL0     H23355   7.671   6.086   0.429 -0.4030  1.1976 -0.0157
  174MOL0     O23356   1.785   7.589  11.080 -0.0409  0.4881 -0.1164
  174MOL0     C23357   1.830   7.702  11.075 -1.6871  0.2700 -0.1532
  174MOL0     O23358   1.840   7.791  11.178  0.3133 -0.2187  1.0622
  174MOL0     C23359   1.768   7.746  11.285  0.5902  0.8421  0.2599
  174MOL0     C23360   1.666   7.824  11.317 -0.1164 -1.1995  0.2535
  174MOL0     C23361   1.577   7.799  11.423  0.0559  0.3074  0.5230
  174MOL0     C23362   1.595   7.685  11.502 -0.2065 -0.1631  0.2578
  174MOL0     O23363   1.516   7.673  11.614  0.2774 -0.0433 -0.6843
  174MOL0     C23364   1.479   7.543  11.653 -0.1601  0.3620  0.1856
  174MOL0     C23365   1.361   7.526  11.751 -0.7340 -0.8814 -0.0266
  174MOL0     C23366   1.364   7.627  11.865  0.8221 -0.5384 -0.5055
  174MOL0     C23367   1.492   7.631  11.942 -0.5481  0.9723  1.0368
  174MOL0     C23368   1.492   7.728  12.068 -0.1048 -0.0068 -0.2152
  174MOL0     C23369   1.490   7.870  12.020 -0.2746 -0.0629 -0.4256
  174MOL0     C23370   1.376   7.950  12.076  0.4090 -0.8762  0.8797
  174MOL0     C23371   1.390   7.967  12.225 -0.1760 -0.0864 -0.7563
  174MOL0     N23372   1.478   8.085  12.245 -0.6425 -1.0888 -0.4308
  174MOL0     C23373   1.609   8.084  12.297 -0.8708  0.7420  0.7526
  174MOL0     C23374   1.646   8.214  12.306 -0.6031 -0.3650 -0.4382
  174MOL0     C23375   1.764   8.275  12.374 -0.7217  0.2201  0.8381
  174MOL0     C23376   1.736   8.350  12.499 -0.1248 -0.8261  0.9137
  174MOL0     C23377   1.776   8.269  12.621  0.2612 -0.1624  0.6976
  174MOL0     C23378   1.733   8.354  12.741  0.0957 -0.6413 -0.4879
  174MOL0     O23379   1.848   8.434  12.763  0.6034 -0.3753 -0.0341
  174MOL0     C23380   1.851   8.547  12.845  0.2885 -0.1862  0.9130
  174MOL0     C23381   1.762   8.576  12.948  1.1332  0.3568  0.4164
  174MOL0     C23382   1.774   8.694  13.027  0.0266  0.0126 -1.0223
  174MOL0     C23383   1.894   8.774  13.013  0.2113 -0.9162  1.0104
  174MOL0     C23384   1.922   8.896  13.095 -0.3987  0.6104 -0.1431
  174MOL0     O23385   2.049   8.947  13.105 -0.4509  0.6474  0.2508
  174MOL0     C23386   2.085   9.065  13.165  0.0310  0.0331  0.2308
  174MOL0     C23387   2.218   9.085  13.190  0.4603  0.2248 -0.3306
  174MOL0     C23388   2.261   9.209  13.235 -1.0513 -0.0091  0.0612
  174MOL0     C23389   2.166   9.311  13.252 -0.1917  0.9475 -0.8135
  174MOL0     O23390   2.205   9.436  13.296 -0.0361 -0.5336  0.6352
  174MOL0     C23391   2.299   9.447  13.406  0.1823  0.3275  0.7851
  174MOL0     C23392   2.435   9.486  13.356  1.0516 -1.4063  0.5370
  174MOL0     C23393   2.451   9.628  13.281 -0.3173  0.0695  0.3695
  174MOL0     C23394   2.406   9.642  13.133 -0.1573 -0.1367 -0.5995
  174MOL0     C23395   2.484   9.765  13.080  1.3825 -0.0104 -0.6181
  174MOL0     C23396   2.428   9.813  12.933  0.4736  0.3614 -0.6050
  174MOL0     C23397   2.535   9.901  12.878  0.4457  0.2914 -0.8207
  174MOL0     C23398   2.530   9.919  12.719 -0.2189 -0.1219  1.5977
  174MOL0    Cl23399   2.367   9.984  12.672  0.2327 -0.1370 -0.1909
  174MOL0     C23400   2.032   9.287  13.223  0.5098 -1.0891 -0.9995
  174MOL0     C23401   1.992   9.161  13.187  0.3649 -0.5771  0.2020
  174MOL0     O23402   1.827   8.928  13.163 -0.1924 -0.2120 -0.6508
  174MOL0     C23403   1.980   8.747  12.915 -0.1197 -0.0016  0.3398
  174MOL0     C23404   1.960   8.642  12.827 -0.3300  0.1191  0.3942
  174MOL0     N23405   1.532   8.288  12.268 -0.2490 -0.6733 -0.4101
  174MOL0     N23406   1.436   8.212  12.235 -0.6967  0.4903 -0.4837
  174MOL0     C23407   1.706   7.612  11.480  0.7326  1.3094 -0.3664
  174MOL0     C23408   1.794   7.636  11.366  0.6505  0.0528  0.9044
  174MOL0     C23409   1.874   7.751  10.935  0.6148 -0.6337 -1.0063
  174MOL0     C23410   1.970   7.849  10.932  0.5605 -0.5095  0.2229
  174MOL0     C23411   2.021   7.894  10.809 -0.1768  0.5567 -0.0288
  174MOL0     C23412   1.975   7.834  10.688 -0.2226  0.4911 -0.3772
  174MOL0     O23413   1.996   7.888  10.568 -0.4113 -0.5622 -0.1603
  174MOL0     C23414   2.135   7.941  10.541  0.7087 -0.0823  0.5260
  174MOL0     C23415   2.131   8.085  10.502  0.2190 -0.2194  0.0140
  174MOL0     C23416   2.048   8.113  10.373  0.8325  0.4444 -0.3637
  174MOL0     C23417   2.071   8.013  10.261  0.8211 -0.0813  0.6047
  174MOL0     C23418   2.009   8.055  10.135  0.2877 -0.6877  0.1937
  174MOL0     C23419   1.954   8.094  10.038  1.7989 -0.9776  0.4328
  174MOL0     C23420   1.869   7.752  10.698  0.5053 -0.7153  0.2638
  174MOL0     C23421   1.820   7.700  10.816 -0.3501 -0.2279  0.0086
  174MOL0     C23422   1.703   7.590  10.808  0.2370 -0.6617 -1.0594
  174MOL0     H23423   1.648   7.904  11.246  3.5888 -0.0980  0.3207
  174MOL0     H23424   1.490   7.864  11.434 -0.3895  0.3037 -2.2847
  174MOL0     H23425   1.464   7.465  11.579  2.1948 -1.7424  1.7519
  174MOL0     H23426   1.564   7.503  11.708 -0.6623 -0.8276  0.1291
  174MOL0     H23427   1.369   7.425  11.792 -0.0452 -0.5008  0.8041
  174MOL0     H23428   1.272   7.542  11.690 -0.3451  1.8876  0.0136
  174MOL0     H23429   1.283   7.599  11.932  2.3235 -1.6573  0.9071
  174MOL0     H23430   1.337   7.731  11.842  0.3868 -0.6790 -0.6373
  174MOL0     H23431   1.518   7.530  11.977  3.4355  1.2356 -0.5458
  174MOL0     H23432   1.568   7.656  11.868 -0.5276 -0.9479  0.3327
  174MOL0     H23433   1.411   7.705  12.138  0.2570  1.1594  0.6106
  174MOL0     H23434   1.585   7.721  12.124 -1.0952  2.9415  2.0522
  174MOL0     H23435   1.581   7.918  12.057 -0.9838  1.5662 -0.6648
  174MOL0     H23436   1.492   7.878  11.911 -1.2601  2.4308 -0.3414
  174MOL0     H23437   1.279   7.903  12.055 -0.6824  1.3198  0.7245
  174MOL0     H23438   1.378   8.046  12.023  0.2242 -2.3445 -2.0116
  174MOL0     H23439   1.294   7.994  12.270 -0.7566  2.3983 -3.2291
  174MOL0     H23440   1.428   7.872  12.264 -3.0622 -1.7241 -1.6919
  174MOL0     H23441   1.648   7.989  12.334  0.4595  1.0872  0.2975
  174MOL0     H23442   1.842   8.201  12.397 -1.0642  0.0984  1.6283
  174MOL0     H23443   1.817   8.346  12.310 -0.1702 -0.1177  0.9111
  174MOL0     H23444   1.797   8.441  12.503 -0.1501 -0.6941 -0.7494
  174MOL0     H23445   1.632   8.382  12.495  1.3023  4.9513 -0.1839
  174MOL0     H23446   1.881   8.241  12.632  0.9838  2.2796  0.5654
  174MOL0     H23447   1.709   8.184  12.605  0.7309 -0.2142 -1.3114
  174MOL0     H23448   1.710   8.287  12.824 -1.3917 -0.8359 -1.0280
  174MOL0     H23449   1.636   8.403  12.729 -0.8574 -2.4745 -0.6595
  174MOL0     H23450   1.681   8.504  12.953 -0.0986  1.5497 -1.3483
  174MOL0     H23451   1.699   8.719  13.101 -0.7971 -0.0067 -1.8457
  174MOL0     H23452   2.291   9.009  13.166 -2.7881 -2.8696 -1.1477
  174MOL0     H23453   2.363   9.227  13.266 -1.4946  3.8403 -0.2093
  174MOL0     H23454   2.268   9.515  13.486 -0.0856 -1.6906  2.4820
  174MOL0     H23455   2.316   9.349  13.452  3.8774  1.2303  1.6706
  174MOL0     H23456   2.492   9.496  13.449 -0.7952  2.3643  1.4561
  174MOL0     H23457   2.460   9.404  13.287  2.5576 -1.6168  1.2863
  174MOL0     H23458   2.404   9.703  13.345  3.0096  1.0928  1.8471
  174MOL0     H23459   2.553   9.666  13.277 -0.0016 -0.7932 -2.5674
  174MOL0     H23460   2.297   9.646  13.122 -0.5554  0.0351  2.3718
  174MOL0     H23461   2.441   9.563  13.066  0.5222 -0.7093  0.3976
  174MOL0     H23462   2.593   9.758  13.083  1.5270  1.5486 -1.2099
  174MOL0     H23463   2.454   9.845  13.148 -2.2911  0.0588 -2.0899
  174MOL0     H23464   2.401   9.726  12.873  2.2130 -1.0468  0.5584
  174MOL0     H23465   2.334   9.869  12.943 -0.5518 -1.2171 -1.0747
  174MOL0     H23466   2.635   9.875  12.915 -1.1417 -1.5785  2.5921
  174MOL0     H23467   2.524  10.002  12.919 -0.7325  0.2086 -0.8965
  174MOL0     H23468   2.601   9.998  12.692  0.0174 -1.1368 -0.9809
  174MOL0     H23469   2.559   9.831  12.661 -2.9053  0.5766 -1.0707
  174MOL0     H23470   1.957   9.365  13.235  0.5062 -1.4080  1.5073
  174MOL0     H23471   1.886   9.152  13.164 -1.2159  3.5501  4.1474
  174MOL0     H23472   2.076   8.793  12.894 -0.6464  0.6628 -0.6512
  174MOL0     H23473   2.037   8.612  12.757 -0.9688 -2.0624  0.5420
  174MOL0     H23474   1.737   7.538  11.553  4.4980  0.7745 -2.2666
  174MOL0     H23475   1.877   7.573  11.337 -0.5590 -1.2225  0.1347
  174MOL0     H23476   2.000   7.894  11.026  1.0019  0.7554 -0.4895
  174MOL0     H23477   2.077   7.987  10.812  0.3812  0.2457 -0.4575
  174MOL0     H23478   2.197   7.879  10.475 -0.6121 -0.3987 -0.4529
  174MOL0     H23479   2.200   7.945  10.629  2.0768  1.3379 -0.4943
  174MOL0     H23480   2.231   8.113  10.469  0.5443  0.4105  1.4821
  174MOL0     H23481   2.105   8.158  10.579  0.1226  1.0776 -1.2040
  174MOL0     H23482   2.073   8.215  10.346  1.6821  0.4829  0.5048
  174MOL0     H23483   1.946   8.103  10.412  0.6139  0.7932 -0.8389
  174MOL0     H23484   2.179   8.014  10.247  0.7545  3.4524 -0.4948
  174MOL0     H23485   2.028   7.918  10.294  1.5422 -0.4118  0.6114
  174MOL0     H23486   1.916   8.138   9.948  0.1518  3.9253  3.1910
  174MOL0     H23487   1.833   7.711  10.604 -0.2276  0.2758  0.0993
  174MOL0     H23488   1.700   7.546  10.707  2.8823  0.1928 -1.5882
  174MOL0     H23489   1.709   7.507  10.879 -1.4367  0.4137  0.4296
  174MOL0     H23490   1.603   7.635  10.810  0.3433 -0.3827  2.2526
  175MOL0     O23491   1.445   8.977   4.491 -0.2343 -0.8430 -0.2780
  175MOL0     C23492   1.493   9.074   4.432 -0.7965  0.3687  0.0683
  175MOL0     O23493   1.611   9.065   4.375  0.5874  0.6949  0.5031
  175MOL0     C23494   1.700   8.962   4.407  0.7513  0.1785  1.5183
  175MOL0     C23495   1.801   8.952   4.313 -0.7396 -0.4210  0.0291
  175MOL0     C23496   1.891   8.849   4.312 -0.6946 -0.0906 -0.4970
  175MOL0     C23497   1.887   8.753   4.415 -0.2286  0.1166 -0.2098
  175MOL0     O23498   1.975   8.648   4.415  0.7069 -0.8127 -0.3420
  175MOL0     C23499   2.104   8.655   4.362 -0.7813 -0.1933 -0.4280
  175MOL0     C23500   2.179   8.547   4.430 -0.4868  0.3269  1.1129
  175MOL0     C23501   2.316   8.543   4.367  0.4857  0.8053 -0.7124
  175MOL0     C23502   2.392   8.434   4.436 -0.7431  0.0877  0.2103
  175MOL0     C23503   2.523   8.408   4.364  0.5669  0.0005  0.2768
  175MOL0     C23504   2.575   8.257   4.393 -0.4675  0.6956 -0.0186
  175MOL0     C23505   2.679   8.230   4.293 -0.7399  0.0494 -0.8638
  175MOL0     C23506   2.731   8.083   4.296 -0.4446  0.0605  0.1292
  175MOL0     N23507   2.644   8.012   4.199  0.3043  0.1141  0.4228
  175MOL0     C23508   2.550   7.913   4.236 -0.9999 -0.1428  0.1727
  175MOL0     C23509   2.481   7.876   4.124  0.1869 -0.1035  0.1394
  175MOL0     C23510   2.397   7.755   4.111 -0.4565  0.2550  0.1313
  175MOL0     C23511   2.477   7.627   4.123  0.1498  0.0580  0.4481
  175MOL0     C23512   2.462   7.586   4.267  0.5845 -0.8054  0.5232
  175MOL0     C23513   2.540   7.451   4.290  0.8439 -0.5750 -0.4513
  175MOL0     O23514   2.562   7.408   4.421  0.1882  0.2260  0.4523
  175MOL0     C23515   2.468   7.342   4.497  0.6273  0.5810 -0.1008
  175MOL0     C23516   2.507   7.313   4.626 -0.1664  0.1555  0.4391
  175MOL0     C23517   2.440   7.227   4.707  0.1549  0.4889 -0.1916
  175MOL0     C23518   2.314   7.179   4.655 -0.4656  0.1455 -0.1108
  175MOL0     C23519   2.222   7.089   4.735  0.0825 -0.8209  0.4063
  175MOL0     O23520   2.278   7.047   4.843  0.2644  0.2865 -0.0494
  175MOL0     C23521   2.196   6.992   4.928 -0.4543 -0.9278 -0.7423
  175MOL0     C23522   2.228   6.856   4.961 -1.0935 -0.9648 -0.8137
  175MOL0     C23523   2.169   6.808   5.071  0.0819 -0.2536 -0.2734
  175MOL0     C23524   2.067   6.874   5.144 -0.4571  0.0209  0.3860
  175MOL0     O23525   1.983   6.822   5.235  0.8450  1.0765 -0.2785
  175MOL0     C23526   1.923   6.692   5.199 -0.1691 -0.3319  1.1351
  175MOL0     C23527   1.874   6.622   5.330  0.4965  0.1956 -0.2900
  175MOL0     C23528   1.983   6.580   5.434  0.1882 -0.0513 -0.1157
  175MOL0     C23529   2.024   6.431   5.404 -1.1086  0.2699 -0.2574
  175MOL0     C23530   2.181   6.408   5.422  0.8415  1.5996  0.2736
  175MOL0     C23531   2.205   6.257   5.430 -0.1427  0.0328  0.2004
  175MOL0     C23532   2.349   6.238   5.482 -1.0243  0.0759 -0.0371
  175MOL0     C23533   2.387   6.089   5.479  0.1740  0.3948  1.1632
  175MOL0    Cl23534   2.535   6.034   5.569  0.6196 -0.5918 -0.1094
  175MOL0     C23535   2.046   7.011   5.113 -0.7373  0.9225  0.3633
  175MOL0     C23536   2.116   7.069   5.013 -0.0666 -0.6330  0.2505
  175MOL0     O23537   2.117   7.061   4.685  0.6238  0.3611  0.0093
  175MOL0     C23538   2.266   7.228   4.535 -0.6561 -0.6090  0.7296
  175MOL0     C23539   2.347   7.295   4.447  0.5758  0.2974 -0.1367
  175MOL0     N23540   2.534   7.951   4.023  0.4569  0.0606  0.7879
  175MOL0     N23541   2.613   8.036   4.064 -0.7156 -0.2322 -0.7817
  175MOL0     C23542   1.785   8.755   4.500  0.3229 -0.2174  0.3858
  175MOL0     C23543   1.696   8.865   4.508  0.2309  0.9042  0.8782
  175MOL0     C23544   1.403   9.182   4.404 -1.0810 -0.3554  0.3738
  175MOL0     C23545   1.345   9.247   4.514  0.1205  0.8914  0.2122
  175MOL0     C23546   1.265   9.366   4.501  0.1812  0.4890  0.8408
  175MOL0     C23547   1.240   9.413   4.369 -0.2315  0.2035  0.7527
  175MOL0     O23548   1.151   9.516   4.365 -0.3321 -0.8262  0.1516
  175MOL0     C23549   1.017   9.470   4.355  0.0381 -1.0571 -0.3399
  175MOL0     C23550   0.953   9.513   4.223  0.4026  0.3665 -0.5584
  175MOL0     C23551   0.823   9.609   4.237  0.5634 -1.4965 -0.4002
  175MOL0     C23552   0.762   9.659   4.104 -0.3838 -0.7576  0.4693
  175MOL0     C23553   0.708   9.556   4.012  0.0741  0.0761 -0.9369
  175MOL0     C23554   0.667   9.480   3.931  0.6009  0.2033  0.4964
  175MOL0     C23555   1.295   9.341   4.257 -0.3539 -0.1580 -0.7047
  175MOL0     C23556   1.390   9.229   4.272 -0.3451 -1.0300  0.1903
  175MOL0     C23557   1.462   9.173   4.158  0.3242 -0.2263 -0.0436
  175MOL0     H23558   1.804   9.032   4.240 -0.0931 -0.9773 -0.5640
  175MOL0     H23559   1.962   8.835   4.232 -0.3203 -1.0829  0.0001
  175MOL0     H23560   2.104   8.632   4.254  0.8942  0.9353 -0.7013
  175MOL0     H23561   2.148   8.755   4.363 -0.4191 -0.2960 -2.0305
  175MOL0     H23562   2.124   8.455   4.408 -1.1132  0.9147  0.1625
  175MOL0     H23563   2.189   8.576   4.535 -0.0831 -0.0878  1.1949
  175MOL0     H23564   2.365   8.640   4.381  1.9140 -0.0738  0.7193
  175MOL0     H23565   2.312   8.514   4.261  1.8593  0.2422 -0.6382
  175MOL0     H23566   2.413   8.462   4.540  0.2890 -0.6586  0.2173
  175MOL0     H23567   2.341   8.337   4.432  3.6954 -2.4462 -3.2337
  175MOL0     H23568   2.518   8.428   4.257  2.4130 -1.7480 -0.1878
  175MOL0     H23569   2.599   8.472   4.409  0.1010  2.4378 -2.2012
  175MOL0     H23570   2.626   8.243   4.489 -1.3329  0.3385  0.3982
  175MOL0     H23571   2.494   8.184   4.384 -0.8696  0.9990  0.9188
  175MOL0     H23572   2.765   8.286   4.330  0.5307 -0.9873 -2.1419
  175MOL0     H23573   2.653   8.264   4.192  0.6497  0.2784 -1.1535
  175MOL0     H23574   2.838   8.077   4.272 -0.4394  0.1752  0.1222
  175MOL0     H23575   2.729   8.049   4.400  0.6605  0.4188  0.2868
  175MOL0     H23576   2.524   7.880   4.336  0.3017  2.0721  1.3130
  175MOL0     H23577   2.318   7.757   4.186 -2.0998 -1.8640 -1.4453
  175MOL0     H23578   2.352   7.756   4.011  0.9336  0.0265 -0.5210
  175MOL0     H23579   2.426   7.563   4.050 -1.0549  1.3733  0.0992
  175MOL0     H23580   2.580   7.630   4.085 -0.1076 -3.0859 -0.7939
  175MOL0     H23581   2.359   7.567   4.297  0.5675  0.4775  1.3528
  175MOL0     H23582   2.505   7.667   4.327  2.3578 -0.7252 -0.7783
  175MOL0     H23583   2.639   7.455   4.245  0.9139 -5.7743 -1.4576
  175MOL0     H23584   2.487   7.369   4.239  3.0815 -1.0018 -2.2589
  175MOL0     H23585   2.608   7.345   4.652 -0.8696  2.1541  0.8741
  175MOL0     H23586   2.482   7.196   4.802  1.6510 -0.1098 -1.0100
  175MOL0     H23587   2.313   6.806   4.915  1.7359 -0.5907  3.4276
  175MOL0     H23588   2.195   6.709   5.109  2.8024  1.0403  1.5601
  175MOL0     H23589   1.836   6.714   5.136  0.4868  0.6217  0.5333
  175MOL0     H23590   1.985   6.631   5.133 -0.6955 -0.2692  0.5713
  175MOL0     H23591   1.803   6.697   5.367 -2.6351 -1.3949 -2.5919
  175MOL0     H23592   1.809   6.537   5.310  2.7732 -1.3818 -1.3871
  175MOL0     H23593   2.070   6.645   5.436 -1.5883  2.4338  0.7828
  175MOL0     H23594   1.939   6.573   5.534  0.0529 -4.9898 -0.2518
  175MOL0     H23595   1.992   6.398   5.305  1.6720 -1.0284 -0.8061
  175MOL0     H23596   1.957   6.376   5.471  0.5342 -2.3976 -0.6311
  175MOL0     H23597   2.208   6.449   5.520 -0.1579 -1.2903  1.8958
  175MOL0     H23598   2.245   6.463   5.352  2.0242 -0.9924 -0.8100
  175MOL0     H23599   2.136   6.211   5.502  1.1001  0.6233  1.8086
  175MOL0     H23600   2.183   6.218   5.330 -0.8135 -0.5005  0.5408
  175MOL0     H23601   2.360   6.266   5.587  2.2482  1.0343 -0.5039
  175MOL0     H23602   2.425   6.295   5.428  1.7985 -2.1241  1.3257
  175MOL0     H23603   2.308   6.033   5.529 -1.7917  2.8598  1.0110
  175MOL0     H23604   2.390   6.052   5.376  0.8447  0.3565  1.1897
  175MOL0     H23605   1.975   7.066   5.174  0.6351  0.8409  2.0972
  175MOL0     H23606   2.093   7.174   4.997 -2.7360 -1.1892 -0.0794
  175MOL0     H23607   2.167   7.203   4.499 -0.1373  0.2557 -1.4648
  175MOL0     H23608   2.318   7.320   4.345  0.5816 -0.2721 -0.2863
  175MOL0     H23609   1.771   8.680   4.577 -3.4337  1.9253  2.0693
  175MOL0     H23610   1.624   8.856   4.589 -1.8733 -2.9180 -1.1474
  175MOL0     H23611   1.353   9.208   4.615  3.0200 -0.0946 -0.2972
  175MOL0     H23612   1.229   9.430   4.581 -1.2577  1.1476 -0.3057
  175MOL0     H23613   0.954   9.503   4.439  1.0137  1.3995 -0.4924
  175MOL0     H23614   1.015   9.362   4.365  0.2178 -0.9821  0.6463
  175MOL0     H23615   0.925   9.419   4.174  1.0201  0.3788 -0.9394
  175MOL0     H23616   1.023   9.548   4.147 -0.4960 -2.8799 -3.1132
  175MOL0     H23617   0.854   9.698   4.292  3.3360 -2.0254 -0.9814
  175MOL0     H23618   0.739   9.569   4.296 -0.2088  0.7946  0.1687
  175MOL0     H23619   0.690   9.739   4.123 -0.8733 -1.5425  2.1115
  175MOL0     H23620   0.842   9.702   4.043 -0.8821  0.0687  0.3834
  175MOL0     H23621   0.630   9.405   3.863 -0.8000  0.1349  1.3017
  175MOL0     H23622   1.277   9.383   4.159 -3.3130  0.5641  0.0243
  175MOL0     H23623   1.429   9.225   4.067 -0.0025  0.0113  0.2082
  175MOL0     H23624   1.570   9.184   4.164  0.8705 -4.4730  0.5354
  175MOL0     H23625   1.439   9.066   4.159 -1.0220  0.0354 -0.2039
  176MOL0     O23626   7.027   5.580   4.931  0.6046 -0.1782 -0.4745
  176MOL0     C23627   6.970   5.684   4.969  0.0053 -0.1928 -0.0149
  176MOL0     O23628   6.859   5.743   4.910 -0.3514  0.0227 -0.1694
  176MOL0     C23629   6.808   5.687   4.807  1.2122  0.5183  0.0836
  176MOL0     C23630   6.863   5.700   4.683 -0.3065 -0.3233  0.0887
  176MOL0     C23631   6.805   5.655   4.566 -0.3781  1.6779 -0.0233
  176MOL0     C23632   6.689   5.574   4.569 -0.0099 -0.6137  0.4397
  176MOL0     O23633   6.623   5.518   4.462 -0.9353 -0.1336 -0.8886
  176MOL0     C23634   6.703   5.452   4.368  0.1129 -0.7158 -0.0200
  176MOL0     C23635   6.664   5.303   4.379  0.9790  0.3661  0.3191
  176MOL0     C23636   6.748   5.207   4.460  0.3456 -0.2514  0.3979
  176MOL0     C23637   6.720   5.058   4.425 -0.6170  0.1268  0.3596
  176MOL0     C23638   6.765   4.950   4.533  0.4940 -1.4697  0.5356
  176MOL0     C23639   6.914   4.967   4.585 -0.8031 -0.0408  0.0316
  176MOL0     C23640   6.959   4.883   4.701 -0.4825 -0.0241 -0.4595
  176MOL0     C23641   6.864   4.895   4.821  0.5301 -0.2423  0.9609
  176MOL0     N23642   6.922   4.842   4.946 -0.0892 -0.1002 -0.6856
  176MOL0     C23643   7.016   4.918   5.015 -1.0024 -0.2962 -0.0215
  176MOL0     C23644   7.065   4.824   5.097  0.6553  0.2201 -0.7820
  176MOL0     C23645   7.151   4.838   5.207 -0.1842 -0.5189 -0.4861
  176MOL0     C23646   7.119   4.952   5.298  0.0769  0.5124 -0.7308
  176MOL0     C23647   7.029   4.906   5.422 -0.3836  0.2854 -0.2974
  176MOL0     C23648   6.991   5.020   5.513  0.3448  0.2980  0.6058
  176MOL0     O23649   7.088   5.131   5.528  0.0524 -0.0317  0.8597
  176MOL0     C23650   7.195   5.139   5.622  0.8292  0.0805 -0.0776
  176MOL0     C23651   7.220   5.050   5.732 -0.5953  0.5208  0.1926
  176MOL0     C23652   7.320   5.079   5.816 -1.1756  0.2266  0.1307
  176MOL0     C23653   7.408   5.194   5.789 -1.3174  1.0553  0.8605
  176MOL0     C23654   7.522   5.202   5.877  0.8907 -0.6012 -0.1765
  176MOL0     O23655   7.581   5.092   5.922  0.7644 -0.5828  0.7283
  176MOL0     C23656   7.668   5.074   6.019 -0.8062 -0.4062 -1.0893
  176MOL0     C23657   7.725   5.173   6.111  0.8440 -0.4966  0.7481
  176MOL0     C23658   7.796   5.136   6.223  0.1654 -0.9562 -0.1713
  176MOL0     C23659   7.832   5.001   6.236  0.3275 -0.3784 -0.1641
  176MOL0     O23660   7.931   4.986   6.336 -0.0590 -0.4211  1.0548
  176MOL0     C23661   7.983   4.858   6.352 -0.8346 -0.4082  0.3409
  176MOL0     C23662   8.073   4.841   6.483 -0.9579  0.2449 -0.3175
  176MOL0     C23663   7.999   4.879   6.611  0.2015  0.2288  0.2348
  176MOL0     C23664   8.041   4.801   6.736 -0.0008 -0.2689 -0.0318
  176MOL0     C23665   7.931   4.807   6.847 -0.3273  0.7537  0.3483
  176MOL0     C23666   7.959   4.719   6.963 -0.3491 -1.0074 -1.0836
  176MOL0     C23667   8.080   4.756   7.052  0.7677  0.5376  1.3046
  176MOL0     C23668   8.211   4.684   7.007 -0.6246 -0.2462 -0.4836
  176MOL0    Cl23669   8.356   4.761   7.089  0.6635 -0.2838  0.0052
  176MOL0     C23670   7.787   4.906   6.144  0.9356 -0.0157 -0.1404
  176MOL0     C23671   7.699   4.944   6.036  0.0888 -0.2436 -0.1764
  176MOL0     O23672   7.564   5.311   5.905  1.1031 -0.2561 -0.3023
  176MOL0     C23673   7.384   5.283   5.683 -0.0650 -0.1570 -0.0748
  176MOL0     C23674   7.273   5.251   5.602  0.0186 -0.4650 -0.3670
  176MOL0     N23675   7.001   4.707   5.082  0.1475  0.4737 -0.4454
  176MOL0     N23676   6.909   4.720   5.004 -1.5819 -0.1238  0.2190
  176MOL0     C23677   6.628   5.573   4.696 -1.6941 -0.0879  0.9067
  176MOL0     C23678   6.688   5.615   4.810 -0.6083 -0.0452 -0.5849
  176MOL0     C23679   7.034   5.748   5.086 -0.0774  0.2307 -0.0819
  176MOL0     C23680   7.170   5.772   5.097 -0.2699  0.5082 -0.4929
  176MOL0     C23681   7.227   5.844   5.209  0.2624 -0.5213  0.7054
  176MOL0     C23682   7.148   5.872   5.321 -0.0408  0.5955 -0.5665
  176MOL0     O23683   7.207   5.920   5.440 -0.2555 -0.6573  0.0083
  176MOL0     C23684   7.125   5.925   5.559 -0.0618 -1.2352 -0.5009
  176MOL0     C23685   7.214   5.953   5.676 -0.6934  0.3781  0.4690
  176MOL0     C23686   7.273   6.094   5.703  0.3057 -0.4839 -0.3469
  176MOL0     C23687   7.350   6.083   5.842 -0.5402 -0.1517  0.2921
  176MOL0     C23688   7.443   6.193   5.862 -0.7058 -0.2085  1.2062
  176MOL0     C23689   7.525   6.280   5.882 -0.6017 -0.6038 -0.9391
  176MOL0     C23690   7.009   5.839   5.308  0.2366  0.0490  0.0771
  176MOL0     C23691   6.953   5.776   5.195  0.1882 -0.4809 -0.1519
  176MOL0     C23692   6.807   5.729   5.205  0.5464  0.6088 -0.3827
  176MOL0     H23693   6.952   5.761   4.672 -2.5435  3.0039 -1.4570
  176MOL0     H23694   6.848   5.682   4.470  1.8167  0.0238  0.4235
  176MOL0     H23695   6.686   5.482   4.264  3.8715  1.4461 -0.1835
  176MOL0     H23696   6.810   5.454   4.391  0.0372  1.5144  0.3098
  176MOL0     H23697   6.684   5.258   4.282 -1.5679  1.4343 -0.7768
  176MOL0     H23698   6.556   5.296   4.388  0.9516 -0.1783 -0.3481
  176MOL0     H23699   6.726   5.226   4.566  1.5044  2.0318  0.3035
  176MOL0     H23700   6.850   5.235   4.433  0.6640 -0.1745  1.6285
  176MOL0     H23701   6.612   5.041   4.417 -0.6453  0.5818 -0.3490
  176MOL0     H23702   6.763   5.037   4.326  0.4745 -0.4708  0.9450
  176MOL0     H23703   6.698   4.969   4.617  0.0837  1.8800 -0.3780
  176MOL0     H23704   6.755   4.854   4.481  0.9424 -0.9916 -0.4686
  176MOL0     H23705   6.977   4.955   4.497  1.6699  1.2249  1.4964
  176MOL0     H23706   6.937   5.072   4.609  2.2187 -0.6803  0.3754
  176MOL0     H23707   7.059   4.915   4.734 -0.8630  1.2263 -0.4794
  176MOL0     H23708   6.974   4.777   4.678 -0.4522 -0.3608  0.9640
  176MOL0     H23709   6.825   4.997   4.833 -1.6378 -1.0348  1.1179
  176MOL0     H23710   6.783   4.831   4.784 -0.6483  1.8647 -0.3408
  176MOL0     H23711   7.052   5.020   5.002  0.3827 -0.7187  0.3480
  176MOL0     H23712   7.156   4.747   5.268 -1.5791 -0.3058 -0.0314
  176MOL0     H23713   7.252   4.860   5.171  0.2617 -1.3105  0.2635
  176MOL0     H23714   7.209   4.992   5.347 -1.3019  0.7145  1.8322
  176MOL0     H23715   7.066   5.034   5.250 -2.1350  0.7075  1.8177
  176MOL0     H23716   7.070   4.838   5.497 -0.7633 -0.3083 -0.6213
  176MOL0     H23717   6.944   4.856   5.375 -1.7981  1.3060  1.0878
  176MOL0     H23718   6.970   4.983   5.614  1.2936  3.2437  2.0017
  176MOL0     H23719   6.901   5.066   5.471  0.7672  1.3638  0.8269
  176MOL0     H23720   7.163   4.965   5.767  0.0827  0.2080  0.5396
  176MOL0     H23721   7.346   5.020   5.904 -0.5071 -0.6382 -0.6311
  176MOL0     H23722   7.701   5.279   6.098  0.3266 -0.9171 -2.6775
  176MOL0     H23723   7.818   5.214   6.295 -2.0377  2.6668 -3.0726
  176MOL0     H23724   7.897   4.791   6.361  1.1847 -3.1375  0.4500
  176MOL0     H23725   8.038   4.822   6.265 -0.5886  0.7490 -0.0001
  176MOL0     H23726   8.110   4.738   6.486 -0.9622  0.2711  1.7433
  176MOL0     H23727   8.158   4.908   6.466 -0.7883 -0.1682 -1.1673
  176MOL0     H23728   8.014   4.987   6.626  1.0080  0.3974 -1.4933
  176MOL0     H23729   7.895   4.855   6.591  0.9655 -1.7220 -1.7503
  176MOL0     H23730   8.143   4.832   6.762  1.0635 -2.1596 -1.6583
  176MOL0     H23731   8.065   4.697   6.712 -3.0770 -1.4053  1.2079
  176MOL0     H23732   7.845   4.757   6.802  3.0152 -6.6956  0.8426
  176MOL0     H23733   7.905   4.905   6.889  2.6273  0.6459  2.7184
  176MOL0     H23734   7.865   4.729   7.019 -0.4581 -1.0942 -1.2504
  176MOL0     H23735   7.972   4.621   6.916 -0.5601 -0.4747 -2.3023
  176MOL0     H23736   8.063   4.732   7.157 -0.1443  0.0814  1.0576
  176MOL0     H23737   8.094   4.863   7.038  2.5511  0.0526 -1.8196
  176MOL0     H23738   8.205   4.584   7.049 -1.2089  1.3259  3.5737
  176MOL0     H23739   8.222   4.677   6.898 -2.1608 -0.3141 -0.6504
  176MOL0     H23740   7.813   4.801   6.150  0.3356 -0.0789  1.9589
  176MOL0     H23741   7.668   4.869   5.964  0.2355 -0.2934 -0.1891
  176MOL0     H23742   7.453   5.364   5.663  1.5137 -1.6474 -0.9925
  176MOL0     H23743   7.249   5.310   5.514  0.8231 -1.5200 -1.3306
  176MOL0     H23744   6.542   5.510   4.718  0.7269 -3.3397  1.8987
  176MOL0     H23745   6.653   5.581   4.906 -2.3688 -0.6735 -1.4125
  176MOL0     H23746   7.242   5.740   5.022  1.1254  0.9919  0.5892
  176MOL0     H23747   7.333   5.867   5.218  0.4776 -2.1774  3.5526
  176MOL0     H23748   7.062   5.837   5.575  2.2987 -3.1684 -1.1109
  176MOL0     H23749   7.059   6.012   5.560  2.0091  0.4602  1.7943
  176MOL0     H23750   7.294   5.880   5.661  0.6794  2.1374 -1.4855
  176MOL0     H23751   7.167   5.910   5.765 -0.3680  0.0235  0.4734
  176MOL0     H23752   7.202   6.174   5.684  2.9413  2.0159 -0.4228
  176MOL0     H23753   7.351   6.113   5.629  1.2464 -1.2314  0.4212
  176MOL0     H23754   7.276   6.073   5.922 -0.6881 -0.3705  0.1266
  176MOL0     H23755   7.418   5.997   5.849 -2.0333 -1.6048 -2.0425
  176MOL0     H23756   7.610   6.344   5.883 -0.4177 -0.8066 -2.3898
  176MOL0     H23757   6.947   5.859   5.394 -1.5776  0.2982 -1.2295
  176MOL0     H23758   6.751   5.816   5.169 -0.2281  0.4041  0.2849
  176MOL0     H23759   6.806   5.636   5.147  4.3674  0.3780 -0.3193
  176MOL0     H23760   6.775   5.696   5.304  1.2226  0.3414 -0.2466
  177MOL0     O23761   3.122   7.552   8.911  0.3165  0.7715 -0.7167
  177MOL0     C23762   3.192   7.646   8.886 -0.5270 -0.3603  0.6097
  177MOL0     O23763   3.167   7.775   8.926  0.4126  0.4267 -0.6622
  177MOL0     C23764   3.256   7.870   8.908  0.1210 -0.8198  0.4979
  177MOL0     C23765   3.200   7.994   8.862  0.1154  0.0866  1.3971
  177MOL0     C23766   3.294   8.105   8.835  0.5286 -0.1592 -0.2064
  177MOL0     C23767   3.432   8.090   8.870 -0.1836  0.7229  0.5517
  177MOL0     O23768   3.506   8.203   8.856  0.4153  0.0821  0.3811
  177MOL0     C23769   3.632   8.205   8.912 -0.1778  0.6829 -0.7353
  177MOL0     C23770   3.700   8.335   8.872 -0.0470 -0.3843  0.0163
  177MOL0     C23771   3.748   8.337   8.724 -0.1530 -0.1092 -1.0301
  177MOL0     C23772   3.871   8.419   8.702  0.3919 -0.4640  0.0386
  177MOL0     C23773   3.940   8.364   8.569  0.9249 -0.7315  0.3120
  177MOL0     C23774   4.064   8.430   8.542 -0.2488 -0.3490 -0.0796
  177MOL0     C23775   4.124   8.398   8.409 -0.3803  0.9291  0.1762
  177MOL0     C23776   4.236   8.493   8.371  0.2804  0.3108 -0.9402
  177MOL0     N23777   4.287   8.477   8.235 -0.7871 -0.4210 -0.1002
  177MOL0     C23778   4.214   8.448   8.118 -1.0419 -0.6518  0.5855
  177MOL0     C23779   4.308   8.432   8.021 -0.0292  0.4104 -0.3508
  177MOL0     C23780   4.295   8.368   7.883 -0.0384 -0.1259 -0.2080
  177MOL0     C23781   4.252   8.223   7.899 -0.0559 -0.0392 -0.1960
  177MOL0     C23782   4.343   8.127   7.966 -0.0606 -0.3775  0.0879
  177MOL0     C23783   4.288   7.983   7.979 -0.6342 -0.3191  1.3817
  177MOL0     O23784   4.381   7.884   8.030  0.0808  0.2340 -0.3026
  177MOL0     C23785   4.353   7.756   8.025 -0.6992  0.2616  0.2520
  177MOL0     C23786   4.244   7.707   7.974  0.0712  0.2500  0.7382
  177MOL0     C23787   4.234   7.566   7.963 -0.2681 -0.1924 -1.0692
  177MOL0     C23788   4.341   7.486   8.008 -0.8069 -0.2330  0.5531
  177MOL0     C23789   4.319   7.335   8.007 -0.8288  1.0538  0.1037
  177MOL0     O23790   4.430   7.256   8.000 -0.6917 -0.1200 -0.7848
  177MOL0     C23791   4.430   7.120   7.993  0.4544 -0.7595 -0.2288
  177MOL0     C23792   4.463   7.066   7.876  0.1362 -0.3352  0.0146
  177MOL0     C23793   4.466   6.934   7.858  0.2853 -0.2172  0.2113
  177MOL0     C23794   4.443   6.844   7.965  0.6209 -0.0928 -1.2226
  177MOL0     O23795   4.469   6.712   7.957  0.0713  0.3590 -0.1646
  177MOL0     C23796   4.600   6.673   7.918  1.0480  0.1998  0.0844
  177MOL0     C23797   4.586   6.540   7.854  0.0477  0.1565  0.5960
  177MOL0     C23798   4.704   6.470   7.787  0.5822  1.3087 -0.3696
  177MOL0     C23799   4.759   6.546   7.664  0.4885 -0.8355 -0.9830
  177MOL0     C23800   4.853   6.462   7.587 -0.4362 -0.4082  0.3244
  177MOL0     C23801   4.883   6.554   7.453  0.3508 -0.7251 -1.0085
  177MOL0     C23802   4.986   6.495   7.351  0.3873 -0.0147  0.4138
  177MOL0     C23803   4.926   6.389   7.268 -0.2160  0.2615 -0.0692
  177MOL0    Cl23804   5.017   6.335   7.134  0.1837  0.0288  0.3058
  177MOL0     C23805   4.398   6.896   8.084  0.2971 -0.0822 -0.3387
  177MOL0     C23806   4.384   7.037   8.098  0.4866 -1.9761  0.2651
  177MOL0     O23807   4.207   7.297   7.999  0.5878  0.6605  0.0580
  177MOL0     C23808   4.473   7.542   8.057  0.2446 -0.4991 -0.5093
  177MOL0     C23809   4.467   7.681   8.065 -0.5892 -0.6795  0.9731
  177MOL0     N23810   4.434   8.462   8.086  0.0527  0.4371  0.1009
  177MOL0     N23811   4.420   8.493   8.207  0.6749  1.1736  0.2769
  177MOL0     C23812   3.477   7.973   8.918 -0.7223  0.3597 -0.5569
  177MOL0     C23813   3.394   7.862   8.938 -0.1374  1.0013  0.7229
  177MOL0     C23814   3.310   7.614   8.800  0.3057 -0.3470 -0.3307
  177MOL0     C23815   3.311   7.657   8.669  0.5675  0.2317 -0.3818
  177MOL0     C23816   3.419   7.639   8.585  0.7233  0.2056 -0.5991
  177MOL0     C23817   3.536   7.581   8.635  0.2912  0.1726  0.4959
  177MOL0     O23818   3.633   7.535   8.555 -0.8597 -0.5554  0.4794
  177MOL0     C23819   3.616   7.516   8.415 -0.2099 -0.4426  0.6287
  177MOL0     C23820   3.742   7.484   8.324 -0.5862 -0.0602 -0.3955
  177MOL0     C23821   3.845   7.594   8.316  0.2625  0.3063 -0.4647
  177MOL0     C23822   3.977   7.543   8.245  0.3028 -0.7576  0.1283
  177MOL0     C23823   4.046   7.435   8.306 -0.5151  0.0040  0.2408
  177MOL0     C23824   4.105   7.326   8.330 -0.1842 -0.1497  0.3264
  177MOL0     C23825   3.535   7.551   8.770  0.6429  0.5478 -0.4840
  177MOL0     C23826   3.427   7.552   8.853 -1.0550  0.1362  0.7236
  177MOL0     C23827   3.439   7.489   8.996 -0.0558 -0.4790  0.0815
  177MOL0     H23828   3.095   7.976   8.842  1.0114 -4.2833 -0.8241
  177MOL0     H23829   3.271   8.193   8.776  1.1222  0.8655  1.0699
  177MOL0     H23830   3.626   8.196   9.021  0.9706 -2.9644 -0.8324
  177MOL0     H23831   3.698   8.126   8.875 -0.0880  1.1504 -1.5818
  177MOL0     H23832   3.788   8.344   8.936  0.7416  3.4413 -1.3291
  177MOL0     H23833   3.636   8.421   8.895 -0.5545 -1.0244  1.0717
  177MOL0     H23834   3.662   8.366   8.662 -1.4013  0.4411  0.8826
  177MOL0     H23835   3.756   8.233   8.692 -2.0913 -1.8838  3.4308
  177MOL0     H23836   3.845   8.525   8.699 -0.6462 -0.7335 -1.6009
  177MOL0     H23837   3.938   8.401   8.787  1.3991  0.6190 -0.5024
  177MOL0     H23838   3.966   8.259   8.586  0.0991 -1.1348 -0.7995
  177MOL0     H23839   3.868   8.375   8.488 -0.6650  0.3132  1.7916
  177MOL0     H23840   4.040   8.536   8.542 -3.0933 -0.8436  2.1452
  177MOL0     H23841   4.127   8.411   8.629 -0.0805 -1.9062 -0.5106
  177MOL0     H23842   4.049   8.411   8.330  1.9798  1.5346 -2.1174
  177MOL0     H23843   4.156   8.293   8.411  0.0186  1.0568  1.4454
  177MOL0     H23844   4.195   8.594   8.371  2.2040  1.1665 -2.5490
  177MOL0     H23845   4.314   8.481   8.447  0.1719  2.0629 -0.5052
  177MOL0     H23846   4.106   8.444   8.118 -1.3835  3.3274 -1.0869
  177MOL0     H23847   4.242   8.427   7.808  3.1556  0.4901 -2.1596
  177MOL0     H23848   4.398   8.373   7.847 -0.6043  0.6240 -1.8120
  177MOL0     H23849   4.160   8.215   7.957  1.4130 -0.1949  2.2758
  177MOL0     H23850   4.237   8.171   7.804  0.6953  0.1897 -0.4483
  177MOL0     H23851   4.358   8.142   8.074 -2.3024  2.0508  0.1652
  177MOL0     H23852   4.441   8.137   7.918 -0.4353  1.2267 -0.4032
  177MOL0     H23853   4.252   7.965   7.878 -0.7540 -1.7866  1.6524
  177MOL0     H23854   4.199   7.985   8.043 -0.8004  4.3644  1.3132
  177MOL0     H23855   4.158   7.761   7.936 -0.2232 -0.0424  0.9907
  177MOL0     H23856   4.141   7.524   7.926 -0.0168 -0.3611 -1.5104
  177MOL0     H23857   4.484   7.138   7.797 -0.8093 -0.7623 -0.6426
  177MOL0     H23858   4.483   6.894   7.758 -1.2876  1.7649 -0.9327
  177MOL0     H23859   4.637   6.739   7.840 -2.0029 -1.1851 -2.8067
  177MOL0     H23860   4.669   6.670   8.003 -0.1401  0.6231  1.1026
  177MOL0     H23861   4.532   6.466   7.914  0.5613 -0.7711 -0.0698
  177MOL0     H23862   4.516   6.569   7.775  0.7608  1.0332  0.2670
  177MOL0     H23863   4.784   6.457   7.859  2.3851 -0.6327 -2.5742
  177MOL0     H23864   4.671   6.370   7.760 -0.9948  0.1647  4.7274
  177MOL0     H23865   4.793   6.646   7.692  0.9817 -0.9533 -1.1580
  177MOL0     H23866   4.666   6.557   7.606 -1.2394 -0.0104  1.7503
  177MOL0     H23867   4.811   6.364   7.563  1.6503 -1.6868  1.5469
  177MOL0     H23868   4.944   6.439   7.643  0.1945 -1.1212 -0.9392
  177MOL0     H23869   4.787   6.578   7.406 -0.4923  0.7765  1.3237
  177MOL0     H23870   4.911   6.648   7.500 -2.4504 -0.0461 -0.5461
  177MOL0     H23871   5.075   6.452   7.399 -0.4063 -0.2774  1.6809
  177MOL0     H23872   5.007   6.575   7.279 -2.2247 -0.7263 -1.2723
  177MOL0     H23873   4.915   6.306   7.340  0.7825 -0.5422 -0.8130
  177MOL0     H23874   4.823   6.415   7.243 -1.5229 -4.1478 -0.2767
  177MOL0     H23875   4.363   6.829   8.162 -2.6578 -2.7292 -3.6158
  177MOL0     H23876   4.339   7.076   8.190  0.0311 -0.1028 -0.7068
  177MOL0     H23877   4.549   7.474   8.093 -2.1414 -2.1281  1.8687
  177MOL0     H23878   4.557   7.731   8.099 -0.1222 -1.4656  0.8968
  177MOL0     H23879   3.584   7.962   8.927 -0.7411  0.5283 -0.1245
  177MOL0     H23880   3.445   7.777   8.983  2.2520  2.4060  0.8547
  177MOL0     H23881   3.211   7.690   8.642 -0.2235  0.5689  2.6428
  177MOL0     H23882   3.411   7.664   8.480 -0.4076 -1.4081 -0.9369
  177MOL0     H23883   3.579   7.609   8.370  0.6498  0.7509  2.3126
  177MOL0     H23884   3.542   7.436   8.405  0.8432 -1.4359  0.5363
  177MOL0     H23885   3.703   7.464   8.224 -4.0328 -0.3404  0.8680
  177MOL0     H23886   3.793   7.395   8.361  1.3609  1.7876  1.6425
  177MOL0     H23887   3.878   7.611   8.419  0.6760  1.0736 -0.7117
  177MOL0     H23888   3.819   7.689   8.268  1.9276  0.9164 -0.2331
  177MOL0     H23889   3.951   7.519   8.141 -3.8978  1.6845  0.3824
  177MOL0     H23890   4.036   7.635   8.244 -0.1347 -0.4388  1.2999
  177MOL0     H23891   4.153   7.233   8.353  0.2824  0.3500  1.4875
  177MOL0     H23892   3.616   7.498   8.819  0.5838  3.2251  2.8652
  177MOL0     H23893   3.506   7.402   8.995  2.8977  1.5938 -2.1915
  177MOL0     H23894   3.474   7.554   9.077 -0.9662 -1.8268  1.6330
  177MOL0     H23895   3.346   7.448   9.035 -0.4673 -0.3263 -0.7249
  178MOL0     O23896   4.193   0.370   5.933  0.2329 -0.5672 -1.0216
  178MOL0     C23897   4.239   0.385   5.825 -0.0845  0.5354 -0.1135
  178MOL0     O23898   4.375   0.376   5.799 -0.8746 -1.0822  0.5456
  178MOL0     C23899   4.461   0.341   5.901  0.0553  0.9116 -0.5406
  178MOL0     C23900   4.474   0.207   5.923 -0.5862  0.2445  0.4316
  178MOL0     C23901   4.559   0.163   6.027 -0.2157  0.1501  0.4017
  178MOL0     C23902   4.623   0.258   6.108  0.2217  0.5927 -0.0460
  178MOL0     O23903   4.713   0.225   6.204 -0.0701 -0.0591 -0.3918
  178MOL0     C23904   4.676   0.135   6.313  0.4443 -0.1939 -0.5026
  178MOL0     C23905   4.702  -0.005   6.273 -0.1320  0.9877 -0.0439
  178MOL0     C23906   4.838  -0.018   6.203  0.4030 -0.8052  0.1547
  178MOL0     C23907   4.872  -0.154   6.141  0.5579  0.8046 -0.0262
  178MOL0     C23908   4.997  -0.158   6.044 -0.2082 -0.1827 -0.0429
  178MOL0     C23909   5.029  -0.295   5.980 -0.5066  0.4445 -0.3498
  178MOL0     C23910   5.178  -0.287   5.925 -0.1484  0.9430  0.1322
  178MOL0     C23911   5.215  -0.395   5.810  1.0102 -0.5704 -0.1480
  178MOL0     N23912   5.159  -0.355   5.682 -0.3565 -0.1339 -0.3709
  178MOL0     C23913   5.206  -0.265   5.591 -0.5383 -0.2277  0.2645
  178MOL0     C23914   5.113  -0.267   5.489  0.4740  0.7099  0.4163
  178MOL0     C23915   5.117  -0.201   5.354  0.2168  0.5189 -1.2406
  178MOL0     C23916   5.243  -0.226   5.279  0.1935 -0.0506 -0.0810
  178MOL0     C23917   5.237  -0.154   5.132 -0.9968 -0.5574 -0.5866
  178MOL0     C23918   5.369  -0.201   5.060  0.2157  0.9005  0.2513
  178MOL0     O23919   5.373  -0.332   4.999  0.1547 -0.2553  0.1345
  178MOL0     C23920   5.329  -0.345   4.868  0.6269  0.9367  0.7172
  178MOL0     C23921   5.404  -0.308   4.759 -0.1321 -0.1219  0.9290
  178MOL0     C23922   5.350  -0.306   4.624 -0.1904  0.6415 -0.7255
  178MOL0     C23923   5.226  -0.375   4.595  0.2061 -0.2513 -0.9899
  178MOL0     C23924   5.174  -0.378   4.460  0.0635 -0.3815  0.2552
  178MOL0     O23925   5.238  -0.304   4.367  0.0666 -0.4677 -0.0568
  178MOL0     C23926   5.184  -0.307   4.239  0.4222 -0.7188 -1.6592
  178MOL0     C23927   5.096  -0.205   4.186  0.3941  0.0744  1.2668
  178MOL0     C23928   5.063  -0.214   4.056 -0.0056  0.5102  1.2266
  178MOL0     C23929   5.114  -0.309   3.967 -0.0652  0.0746  0.0986
  178MOL0     O23930   5.066  -0.301   3.841  0.3563 -0.4528 -0.3857
  178MOL0     C23931   5.121  -0.372   3.735 -0.5151 -0.1710  0.5950
  178MOL0     C23932   5.207  -0.287   3.635 -0.8437  0.6037  0.3268
  178MOL0     C23933   5.125  -0.174   3.573  0.7988  0.1206 -0.2406
  178MOL0     C23934   5.206  -0.062   3.513 -0.0540 -0.3994  0.5862
  178MOL0     C23935   5.278   0.036   3.606  0.0724 -0.5790  0.0694
  178MOL0     C23936   5.203   0.111   3.711 -0.4364 -0.2963  0.3866
  178MOL0     C23937   5.299   0.219   3.782 -0.2345  1.0145  1.1743
  178MOL0     C23938   5.223   0.290   3.890  0.4797  0.5351  0.1666
  178MOL0    Cl23939   5.187   0.186   4.033  0.0818  0.5404 -0.9220
  178MOL0     C23940   5.204  -0.401   4.012 -0.4908 -1.0165  0.1270
  178MOL0     C23941   5.245  -0.397   4.153  0.2835  0.5748  0.8597
  178MOL0     O23942   5.076  -0.454   4.436 -0.1954 -0.0304 -0.3994
  178MOL0     C23943   5.145  -0.401   4.708  0.2658  0.2278  0.6703
  178MOL0     C23944   5.202  -0.391   4.836  0.5999 -0.0211 -0.7479
  178MOL0     N23945   5.006  -0.359   5.530 -0.2606 -0.4210  0.2835
  178MOL0     N23946   5.048  -0.410   5.635  0.9316  0.8582  0.2148
  178MOL0     C23947   4.616   0.393   6.079  0.7973  0.8585  0.4797
  178MOL0     C23948   4.531   0.431   5.971 -0.0533 -0.3952 -0.2790
  178MOL0     C23949   4.150   0.413   5.716  0.2125  0.4354  0.9867
  178MOL0     C23950   4.195   0.368   5.586  0.9511 -0.0491 -0.3870
  178MOL0     C23951   4.117   0.394   5.473 -0.7236  1.1084  0.1975
  178MOL0     C23952   4.002   0.464   5.473 -1.0656 -0.1606 -0.3089
  178MOL0     O23953   3.938   0.481   5.351  0.9585 -0.1685  1.2001
  178MOL0     C23954   3.854   0.599   5.337 -0.1164  0.1886 -0.6522
  178MOL0     C23955   3.830   0.651   5.189  0.3405 -0.7776 -0.2748
  178MOL0     C23956   3.729   0.557   5.109  0.6549  0.0479 -0.6452
  178MOL0     C23957   3.715   0.618   4.969 -1.2293  0.3273  0.5360
  178MOL0     C23958   3.698   0.521   4.853 -1.1681  0.2468 -0.9512
  178MOL0     C23959   3.694   0.444   4.753  0.1890 -0.3549 -0.4643
  178MOL0     C23960   3.958   0.496   5.597 -0.2695 -0.4899 -0.2890
  178MOL0     C23961   4.025   0.481   5.722  0.3673 -0.4858 -0.7782
  178MOL0     C23962   3.965   0.556   5.839 -0.0405 -0.5419 -0.0901
  178MOL0     H23963   4.426   0.129   5.864 -2.9364 -0.0027  2.5072
  178MOL0     H23964   4.567   0.055   6.040 -2.0900  0.0422  1.0714
  178MOL0     H23965   4.718   0.158   6.411 -0.7430 -1.3669  0.3105
  178MOL0     H23966   4.568   0.137   6.330  0.5007  2.5486 -0.0325
  178MOL0     H23967   4.618  -0.028   6.208  0.2097  1.3565 -0.6244
  178MOL0     H23968   4.697  -0.069   6.361 -0.9842  0.4023 -0.5102
  178MOL0     H23969   4.924   0.018   6.260 -0.3039  0.9392  0.1738
  178MOL0     H23970   4.831   0.049   6.116 -0.7199 -3.1416 -1.6489
  178MOL0     H23971   4.891  -0.219   6.227  0.0214 -1.8265 -1.7742
  178MOL0     H23972   4.780  -0.194   6.098  0.9806 -2.6581  1.9269
  178MOL0     H23973   4.988  -0.083   5.965 -4.2815 -0.5319 -0.1006
  178MOL0     H23974   5.069  -0.129   6.121 -2.2388 -1.1190  2.3166
  178MOL0     H23975   5.027  -0.374   6.056  1.1857 -0.5710 -1.2901
  178MOL0     H23976   4.956  -0.304   5.900 -0.8189  1.5110 -0.2076
  178MOL0     H23977   5.246  -0.306   6.009  0.0625  2.1679  0.2577
  178MOL0     H23978   5.201  -0.189   5.881  3.4669 -0.8383 -2.4550
  178MOL0     H23979   5.322  -0.419   5.803  2.0518  0.7152  5.8837
  178MOL0     H23980   5.173  -0.487   5.852 -1.9364  1.4263  1.6792
  178MOL0     H23981   5.299  -0.212   5.613 -1.4928  1.1098  1.3167
  178MOL0     H23982   5.028  -0.239   5.302 -0.6411  0.4234  0.2536
  178MOL0     H23983   5.098  -0.093   5.359  2.6994  0.9431  0.7297
  178MOL0     H23984   5.331  -0.199   5.338 -1.3298 -0.6633  2.6226
  178MOL0     H23985   5.244  -0.334   5.262  0.2930 -0.5199  2.4840
  178MOL0     H23986   5.249  -0.047   5.154  2.8912 -0.6256 -1.5780
  178MOL0     H23987   5.147  -0.186   5.079  0.3319 -0.7884 -2.8195
  178MOL0     H23988   5.449  -0.190   5.134  0.0770  2.8263  0.1809
  178MOL0     H23989   5.382  -0.131   4.977 -3.5865  2.2459  0.5730
  178MOL0     H23990   5.507  -0.278   4.779 -0.0050  0.0118  0.0999
  178MOL0     H23991   5.414  -0.251   4.556  2.9382 -0.5148  1.0605
  178MOL0     H23992   5.034  -0.142   4.248 -0.8767  3.7519 -3.1455
  178MOL0     H23993   5.016  -0.126   4.013 -0.8024  0.3693  1.7755
  178MOL0     H23994   5.171  -0.467   3.756 -2.6646 -1.9361 -1.6270
  178MOL0     H23995   5.032  -0.403   3.679  1.5442 -4.3395 -0.7441
  178MOL0     H23996   5.288  -0.253   3.700  2.4550 -4.5930 -0.4116
  178MOL0     H23997   5.249  -0.361   3.566 -2.0624 -0.0640  0.2814
  178MOL0     H23998   5.069  -0.230   3.497  2.1799  1.5188 -2.4018
  178MOL0     H23999   5.054  -0.133   3.646  0.3952 -1.0259  0.0274
  178MOL0     H24000   5.131  -0.007   3.454 -0.3650  1.5214  2.6747
  178MOL0     H24001   5.277  -0.111   3.446 -0.8841  0.3463 -0.9104
  178MOL0     H24002   5.323   0.113   3.542 -1.3148 -1.8019 -2.5412
  178MOL0     H24003   5.360  -0.023   3.647 -0.5098 -1.4615 -0.0109
  178MOL0     H24004   5.128   0.170   3.658  0.9885  1.0004 -0.2766
  178MOL0     H24005   5.145   0.057   3.786 -1.0363  1.1224  0.9971
  178MOL0     H24006   5.330   0.300   3.714 -0.7292  0.9611  0.8791
  178MOL0     H24007   5.386   0.171   3.826  0.4874  0.5579 -0.6708
  178MOL0     H24008   5.283   0.377   3.917  5.3782 -1.8344 -1.7495
  178MOL0     H24009   5.130   0.338   3.860  2.2035  2.2723 -2.9150
  178MOL0     H24010   5.241  -0.473   3.940 -0.9123  1.6241 -2.9518
  178MOL0     H24011   5.328  -0.457   4.188 -1.0650 -1.3343  0.9493
  178MOL0     H24012   5.040  -0.425   4.698 -0.4817  3.0311  0.9488
  178MOL0     H24013   5.134  -0.420   4.915  1.9095 -1.5925 -0.1444
  178MOL0     H24014   4.653   0.463   6.152 -2.3384  1.9976  1.1251
  178MOL0     H24015   4.507   0.536   5.956  1.6847  0.2996  1.3322
  178MOL0     H24016   4.292   0.320   5.574  0.3290 -1.2801 -0.7595
  178MOL0     H24017   4.154   0.356   5.378  0.0657  1.0334  0.5198
  178MOL0     H24018   3.903   0.688   5.377 -1.6107  0.0098  1.7762
  178MOL0     H24019   3.760   0.593   5.392  1.7196  0.2876  2.7151
  178MOL0     H24020   3.927   0.665   5.141  0.4557  1.0816  0.4013
  178MOL0     H24021   3.799   0.756   5.191 -2.2167 -1.4809  0.2826
  178MOL0     H24022   3.631   0.536   5.153  2.0615 -1.1422  2.1540
  178MOL0     H24023   3.770   0.456   5.110  0.2029 -0.1672 -2.0405
  178MOL0     H24024   3.643   0.700   4.973  1.1135  2.4930  1.6978
  178MOL0     H24025   3.807   0.675   4.949 -0.1077 -1.1984  1.1419
  178MOL0     H24026   3.683   0.382   4.666 -2.3387 -1.0294  0.2352
  178MOL0     H24027   3.858   0.539   5.595  0.0170  0.1784 -0.7942
  178MOL0     H24028   4.016   0.545   5.935 -0.6521 -0.8002  0.2154
  178MOL0     H24029   3.950   0.661   5.814 -1.9585 -1.0055 -1.0969
  178MOL0     H24030   3.863   0.520   5.859  0.0136 -2.1988 -2.5072
  179MOL0     O24031   9.027   6.206   1.391  0.4963  0.0534  0.1439
  179MOL0     C24032   9.122   6.230   1.320  0.4691  0.3317  0.0083
  179MOL0     O24033   9.235   6.151   1.329  0.9540 -0.5291  0.8125
  179MOL0     C24034   9.220   6.017   1.369  0.3279 -0.7968  0.3876
  179MOL0     C24035   9.337   5.964   1.416 -0.2940  1.1085  0.3530
  179MOL0     C24036   9.345   5.823   1.462  1.0645 -0.1054 -0.3244
  179MOL0     C24037   9.231   5.740   1.467  0.6753 -0.4129 -0.4272
  179MOL0     O24038   9.240   5.608   1.506  0.3204 -0.0650 -0.4276
  179MOL0     C24039   9.119   5.546   1.547  0.7172 -0.5193 -0.7856
  179MOL0     C24040   9.052   5.608   1.664 -0.1738 -0.1503  0.2911
  179MOL0     C24041   9.150   5.650   1.771 -0.8412  0.7747 -1.3587
  179MOL0     C24042   9.233   5.533   1.840 -0.0070 -0.6579  0.6173
  179MOL0     C24043   9.275   5.551   1.993 -0.4545 -0.0798 -0.9018
  179MOL0     C24044   9.160   5.579   2.089 -0.2628  0.2657  0.0472
  179MOL0     C24045   9.194   5.634   2.215  0.2133 -0.3909 -0.2355
  179MOL0     C24046   9.282   5.539   2.308 -0.5128 -0.5659 -0.1086
  179MOL0     N24047   9.335   5.611   2.421  0.7465 -0.4825  0.2672
  179MOL0     C24048   9.400   5.734   2.425 -0.0357  0.7949 -0.1166
  179MOL0     C24049   9.413   5.752   2.564 -0.0747 -0.0499  0.4641
  179MOL0     C24050   9.493   5.860   2.630 -0.4743 -0.3678  0.0588
  179MOL0     C24051   9.411   5.988   2.664 -0.2355 -0.8757  0.6749
  179MOL0     C24052   9.498   6.096   2.730  0.7164 -0.4272 -0.1484
  179MOL0     C24053   9.601   6.165   2.650 -0.5032  0.2504 -0.5680
  179MOL0     O24054   9.536   6.254   2.552  0.6714  0.1821 -0.3710
  179MOL0     C24055   9.621   6.334   2.484  0.2860 -0.7121  0.7276
  179MOL0     C24056   9.760   6.349   2.495  0.1159  1.1847 -0.1927
  179MOL0     C24057   9.834   6.430   2.411 -0.1686  0.3512  0.0728
  179MOL0     C24058   9.763   6.515   2.316  0.1781  0.3846  0.3072
  179MOL0     C24059   9.835   6.599   2.216  0.3368  0.1094  0.0814
  179MOL0     O24060   9.954   6.558   2.168  0.1789 -0.4946  0.3358
  179MOL0     C24061  10.010   6.634   2.063  0.6283  0.3494 -0.9999
  179MOL0     C24062  10.126   6.696   2.094  0.1655 -0.5713  0.5513
  179MOL0     C24063  10.180   6.776   1.985 -0.2177 -0.1634  0.1515
  179MOL0     C24064  10.124   6.784   1.855 -1.8543 -0.5981 -0.1220
  179MOL0     O24065  10.194   6.860   1.762  0.7771 -0.1387  0.2077
  179MOL0     C24066  10.177   6.869   1.622  0.1373  0.2027  0.0351
  179MOL0     C24067  10.240   7.001   1.576  0.2901  0.0019 -0.0751
  179MOL0     C24068  10.287   7.027   1.423 -1.0026 -0.5687 -0.4475
  179MOL0     C24069  10.180   7.031   1.320 -0.8265  0.8889 -0.1240
  179MOL0     C24070  10.203   7.129   1.208 -0.4511  0.7315  0.6064
  179MOL0     C24071  10.333   7.082   1.125 -0.7506  0.6904 -0.4792
  179MOL0     C24072  10.349   7.162   0.987  0.1339 -0.8972  0.5054
  179MOL0     C24073  10.419   7.303   0.995  0.0592  0.1078  0.0669
  179MOL0    Cl24074  10.455   7.387   0.832 -0.7923 -0.2139 -0.1033
  179MOL0     C24075  10.016   6.707   1.833 -0.6799  0.3370 -0.6293
  179MOL0     C24076   9.961   6.628   1.935 -0.8068  0.3942  1.0274
  179MOL0     O24077   9.775   6.701   2.176 -0.3476 -0.3929  0.3503
  179MOL0     C24078   9.621   6.509   2.315 -0.7695  0.1573  0.5959
  179MOL0     C24079   9.550   6.421   2.400 -0.0301 -0.0456  0.1603
  179MOL0     N24080   9.350   5.649   2.626 -0.4593  0.1742  0.0539
  179MOL0     N24081   9.311   5.557   2.543  0.7943  1.3578 -0.5213
  179MOL0     C24082   9.114   5.802   1.428  0.0599 -0.8188 -0.3802
  179MOL0     C24083   9.110   5.935   1.378  0.1441  1.0364 -0.1495
  179MOL0     C24084   9.114   6.334   1.215 -0.3187 -0.3792 -0.4639
  179MOL0     C24085   8.987   6.387   1.187  0.9761  0.1476 -1.1916
  179MOL0     C24086   8.959   6.483   1.097  0.3615  0.2709  0.6631
  179MOL0     C24087   9.063   6.535   1.022 -0.2907 -0.8265 -0.8141
  179MOL0     O24088   9.027   6.643   0.948  0.1893 -0.1335 -0.0538
  179MOL0     C24089   9.107   6.690   0.841 -0.2357  0.0055  1.4088
  179MOL0     C24090   9.067   6.616   0.709  0.9093  0.0829 -0.1496
  179MOL0     C24091   9.189   6.583   0.620 -0.9239  0.1619 -0.8288
  179MOL0     C24092   9.266   6.712   0.583 -0.6176  0.3296  0.4518
  179MOL0     C24093   9.174   6.777   0.491  0.2845  0.6087  0.3397
  179MOL0     C24094   9.093   6.831   0.424  1.0523 -0.6523  0.7579
  179MOL0     C24095   9.191   6.480   1.033  0.3674 -0.0473  0.4304
  179MOL0     C24096   9.222   6.383   1.129 -0.1449  0.0386 -0.2479
  179MOL0     C24097   9.361   6.325   1.140 -0.8023  0.2339  1.0849
  179MOL0     H24098   9.416   6.038   1.426  1.0713  0.3011 -2.8421
  179MOL0     H24099   9.441   5.793   1.501  2.4012  0.4603 -2.9709
  179MOL0     H24100   9.054   5.532   1.460 -2.3713  1.6975  0.9553
  179MOL0     H24101   9.140   5.443   1.578  1.5320 -0.7998 -2.2030
  179MOL0     H24102   8.973   5.542   1.701  0.4911 -0.4218  1.2793
  179MOL0     H24103   8.995   5.696   1.632 -0.9114 -1.0801 -1.0557
  179MOL0     H24104   9.111   5.709   1.854  1.7051 -0.1005  0.5975
  179MOL0     H24105   9.226   5.713   1.724  0.3722 -0.2753 -0.8672
  179MOL0     H24106   9.187   5.434   1.832  1.4045 -1.2975  0.0578
  179MOL0     H24107   9.323   5.532   1.778  0.6033  1.7908  1.3511
  179MOL0     H24108   9.334   5.466   2.028 -0.0175  1.0261  1.2157
  179MOL0     H24109   9.353   5.628   1.997  0.9421 -1.4797  0.4735
  179MOL0     H24110   9.084   5.642   2.041  1.4891  2.2569 -0.2365
  179MOL0     H24111   9.117   5.480   2.108 -0.4236  0.3489  0.1185
  179MOL0     H24112   9.106   5.653   2.277  0.2044 -1.4083  0.0834
  179MOL0     H24113   9.248   5.727   2.193 -0.2917 -0.1318 -0.3884
  179MOL0     H24114   9.222   5.454   2.340 -0.6193  0.0705  1.5136
  179MOL0     H24115   9.364   5.500   2.248  0.7277  1.6032  0.0322
  179MOL0     H24116   9.440   5.796   2.346  2.6780 -0.7453 -0.1007
  179MOL0     H24117   9.538   5.830   2.725 -0.8705  1.6233  0.9262
  179MOL0     H24118   9.579   5.878   2.565  1.0675  1.1287  2.3585
  179MOL0     H24119   9.360   6.030   2.577  0.6131 -0.8282  0.1871
  179MOL0     H24120   9.328   5.967   2.732 -0.4116  1.2329  1.1914
  179MOL0     H24121   9.552   6.054   2.815 -1.7662  0.6633  2.0895
  179MOL0     H24122   9.434   6.173   2.774  4.6774  1.2399  3.3620
  179MOL0     H24123   9.682   6.106   2.608  1.4820  2.8861 -0.7143
  179MOL0     H24124   9.650   6.232   2.722  0.7589  1.5064 -2.4969
  179MOL0     H24125   9.820   6.286   2.561 -2.8445 -0.1224  1.4419
  179MOL0     H24126   9.943   6.431   2.414 -0.1714 -0.5948  1.6561
  179MOL0     H24127  10.155   6.696   2.199 -1.9992 -0.7744  1.2108
  179MOL0     H24128  10.277   6.823   2.001  1.5136 -3.0847 -0.9949
  179MOL0     H24129  10.237   6.792   1.572  0.1531  0.5281 -0.4676
  179MOL0     H24130  10.078   6.859   1.578  1.2566 -1.0512 -2.4083
  179MOL0     H24131  10.169   7.075   1.613  0.8899  0.0724  0.9525
  179MOL0     H24132  10.332   7.013   1.634  0.9229  1.7844 -1.3866
  179MOL0     H24133  10.328   7.129   1.425 -1.4238 -0.3319 -2.1212
  179MOL0     H24134  10.364   6.953   1.401  1.1883  0.3473  3.1819
  179MOL0     H24135  10.087   7.038   1.377 -0.6178  0.5435  0.2650
  179MOL0     H24136  10.172   6.929   1.281  1.0565  1.1787 -1.4230
  179MOL0     H24137  10.215   7.230   1.247 -0.4044  0.5872  0.9702
  179MOL0     H24138  10.118   7.121   1.141  1.1854 -0.6410 -1.4379
  179MOL0     H24139  10.413   7.111   1.195 -0.4501 -2.1619  0.4558
  179MOL0     H24140  10.336   6.975   1.107  0.7684  0.4163  1.1000
  179MOL0     H24141  10.246   7.161   0.948  0.2090  1.1292  0.1387
  179MOL0     H24142  10.417   7.112   0.919 -1.7004  0.6885 -2.7437
  179MOL0     H24143  10.361   7.373   1.056 -1.8359 -1.8663  0.6305
  179MOL0     H24144  10.508   7.285   1.056 -2.2183 -0.9195  3.3823
  179MOL0     H24145   9.971   6.705   1.734  0.4048 -5.3024 -1.3254
  179MOL0     H24146   9.894   6.545   1.913 -1.0027  1.0468 -1.1012
  179MOL0     H24147   9.556   6.576   2.261 -1.9302 -1.7518 -0.5048
  179MOL0     H24148   9.442   6.413   2.410  0.1826 -2.0638  1.2852
  179MOL0     H24149   9.020   5.748   1.427  0.4484 -1.7185  2.5290
  179MOL0     H24150   9.010   5.965   1.350 -0.5481 -0.8995  0.0452
  179MOL0     H24151   8.904   6.338   1.235  1.6620 -0.4259 -0.5675
  179MOL0     H24152   8.855   6.506   1.077  0.2863  0.3737  1.1645
  179MOL0     H24153   9.216   6.684   0.851 -0.0411 -0.5903 -0.6491
  179MOL0     H24154   9.088   6.796   0.822  0.3281 -0.2555 -0.9404
  179MOL0     H24155   9.002   6.678   0.647 -1.1095  0.0978  1.8432
  179MOL0     H24156   9.015   6.522   0.732  0.6668  0.1807 -0.2983
  179MOL0     H24157   9.157   6.518   0.539  0.4893  0.7579 -1.8990
  179MOL0     H24158   9.268   6.526   0.671 -0.4180  1.8520  0.3871
  179MOL0     H24159   9.298   6.779   0.663 -1.0147  1.1883 -0.0848
  179MOL0     H24160   9.350   6.674   0.525  0.4352  0.6146  1.7537
  179MOL0     H24161   9.020   6.870   0.356 -0.7731 -2.6345  1.4525
  179MOL0     H24162   9.268   6.499   0.958 -0.4158  0.0205 -0.3734
  179MOL0     H24163   9.410   6.360   1.231 -1.5618 -1.4207  2.1708
  179MOL0     H24164   9.358   6.216   1.135 -0.0357  0.2129 -3.1514
  179MOL0     H24165   9.426   6.351   1.056  2.1477  0.2796  3.2314
  180MOL0     O24166   1.077   8.964   5.116  0.0601  0.3259 -0.8037
  180MOL0     C24167   0.976   8.919   5.055 -0.0892  0.4078  0.1784
  180MOL0     O24168   0.961   8.799   4.992 -0.2036 -0.0212  0.2019
  180MOL0     C24169   1.059   8.714   5.037  0.0494  1.1869 -1.1283
  180MOL0     C24170   1.077   8.666   5.175 -0.7981 -0.6970  0.7268
  180MOL0     C24171   1.183   8.570   5.190  0.4268 -0.7765  0.4654
  180MOL0     C24172   1.262   8.521   5.086  0.5173  0.3887  0.3391
  180MOL0     O24173   1.370   8.432   5.106  0.2454  0.0480 -0.9181
  180MOL0     C24174   1.411   8.425   5.245 -0.1492 -0.2777  0.0894
  180MOL0     C24175   1.547   8.358   5.256  0.5040  0.0102  0.0820
  180MOL0     C24176   1.665   8.457   5.244 -0.4319 -0.3594 -0.5157
  180MOL0     C24177   1.778   8.369   5.187  0.9627  0.4499  0.3328
  180MOL0     C24178   1.916   8.445   5.191 -1.0274 -0.3461 -0.3253
  180MOL0     C24179   1.991   8.416   5.323 -0.4378  0.5448 -0.2048
  180MOL0     C24180   2.111   8.506   5.337  0.2137 -0.2933  0.0199
  180MOL0     C24181   2.200   8.484   5.452  0.5774  0.6041 -0.4018
  180MOL0     N24182   2.318   8.575   5.453  0.5932 -0.3034  0.1394
  180MOL0     C24183   2.402   8.599   5.351 -0.0354 -0.0088  1.4155
  180MOL0     C24184   2.510   8.662   5.400 -0.2094 -0.0324 -0.2368
  180MOL0     C24185   2.624   8.707   5.315 -0.4546  0.1950  0.7165
  180MOL0     C24186   2.758   8.651   5.351 -0.1237  0.9631  0.1643
  180MOL0     C24187   2.816   8.703   5.481 -0.6754  0.4543  0.2315
  180MOL0     C24188   2.958   8.659   5.492  0.2257 -0.0101 -0.2856
  180MOL0     O24189   3.029   8.728   5.597 -0.9636 -0.3657  0.6565
  180MOL0     C24190   3.167   8.715   5.582 -0.6608 -0.3998  0.5002
  180MOL0     C24191   3.243   8.768   5.688 -0.3853 -0.8622 -0.6972
  180MOL0     C24192   3.379   8.747   5.702 -0.7155  0.8441  0.8284
  180MOL0     C24193   3.441   8.660   5.613 -0.9453  0.0371  0.1204
  180MOL0     C24194   3.588   8.633   5.622  0.6589 -0.7163 -0.3268
  180MOL0     O24195   3.663   8.719   5.693  0.1522  0.3247  0.0924
  180MOL0     C24196   3.788   8.676   5.724 -1.0050 -0.2081  0.2266
  180MOL0     C24197   3.891   8.754   5.684 -0.2639 -0.3969 -0.0149
  180MOL0     C24198   4.026   8.726   5.716 -0.9856 -0.9157 -0.1528
  180MOL0     C24199   4.060   8.600   5.776  0.5591 -0.0881 -0.3913
  180MOL0     O24200   4.184   8.555   5.808  0.4146  0.3132 -0.6161
  180MOL0     C24201   4.273   8.660   5.841 -0.1233  0.7857 -0.2191
  180MOL0     C24202   4.411   8.614   5.866 -0.2599 -0.1298 -0.4870
  180MOL0     C24203   4.495   8.714   5.957  0.3651  0.1675 -1.0164
  180MOL0     C24204   4.633   8.655   5.990  0.2116  0.5530 -0.4536
  180MOL0     C24205   4.714   8.748   6.076  0.7077 -0.8162 -0.9872
  180MOL0     C24206   4.690   8.735   6.232  0.3334 -0.4765  1.3970
  180MOL0     C24207   4.773   8.839   6.308 -0.2319  0.0613  0.5560
  180MOL0     C24208   4.763   8.825   6.457  0.0680 -0.5680 -0.1542
  180MOL0    Cl24209   4.824   8.965   6.548  0.1521 -0.2359  0.2088
  180MOL0     C24210   3.947   8.516   5.808 -0.9384 -0.5357  1.7064
  180MOL0     C24211   3.813   8.557   5.789 -0.1845 -0.0325  0.2939
  180MOL0     O24212   3.625   8.535   5.550 -0.6145  0.4844 -0.0854
  180MOL0     C24213   3.367   8.604   5.509 -0.2973  0.3597  0.1156
  180MOL0     C24214   3.232   8.626   5.487  0.4770  0.0420 -0.5749
  180MOL0     N24215   2.475   8.697   5.529  0.5352 -0.4497  0.1007
  180MOL0     N24216   2.357   8.650   5.555  0.0025 -0.2067 -0.1394
  180MOL0     C24217   1.231   8.555   4.949 -0.2829 -1.1921 -0.3732
  180MOL0     C24218   1.127   8.649   4.928 -0.3747  0.4322  0.6716
  180MOL0     C24219   0.865   9.018   5.039 -0.1192  1.1731 -0.3377
  180MOL0     C24220   0.892   9.148   5.088  0.5305 -0.5806 -0.6928
  180MOL0     C24221   0.779   9.236   5.101 -0.2956 -1.3481  0.6192
  180MOL0     C24222   0.646   9.209   5.065  0.5763  0.0455  1.0622
  180MOL0     O24223   0.550   9.308   5.086  0.1660 -0.1203  0.0009
  180MOL0     C24224   0.411   9.290   5.087 -0.5795  0.1227 -0.2635
  180MOL0     C24225   0.345   9.422   5.114  0.0526 -0.9217 -1.0047
  180MOL0     C24226   0.379   9.478   5.255  0.5346  0.7786  0.6604
  180MOL0     C24227   0.279   9.588   5.295  0.1544  0.0938  0.2585
  180MOL0     C24228   0.326   9.643   5.421 -0.5424  0.0272  0.1110
  180MOL0     C24229   0.362   9.701   5.518 -0.3709 -0.0184 -0.4934
  180MOL0     C24230   0.629   9.078   5.010 -0.4810 -0.7877  0.4167
  180MOL0     C24231   0.730   8.982   5.004 -0.9226 -0.1451  0.7309
  180MOL0     C24232   0.685   8.837   4.972 -0.5676 -0.0687 -0.2029
  180MOL0     H24233   1.008   8.699   5.252 -0.4954 -2.5694  1.8704
  180MOL0     H24234   1.206   8.551   5.295  0.1757 -0.3486  0.6019
  180MOL0     H24235   1.431   8.524   5.286  3.3716 -1.7305  2.4504
  180MOL0     H24236   1.337   8.373   5.308  0.5874  0.2272  1.4250
  180MOL0     H24237   1.553   8.299   5.164  0.7542 -0.0536  0.1374
  180MOL0     H24238   1.562   8.294   5.343 -2.5753  0.8272  1.3432
  180MOL0     H24239   1.682   8.474   5.350  1.1684 -1.7627 -0.5129
  180MOL0     H24240   1.655   8.552   5.190 -2.7779  0.5710  1.3859
  180MOL0     H24241   1.793   8.275   5.240  0.0110 -0.0807 -0.3224
  180MOL0     H24242   1.768   8.339   5.082  1.1386 -0.4443  0.5639
  180MOL0     H24243   1.980   8.423   5.105 -0.8182  4.0469 -1.5392
  180MOL0     H24244   1.904   8.554   5.200  3.2009  0.2079  0.5915
  180MOL0     H24245   1.918   8.431   5.403 -1.3791  0.9312 -1.1146
  180MOL0     H24246   2.028   8.313   5.327 -2.9839 -0.5511 -1.9136
  180MOL0     H24247   2.079   8.610   5.334 -2.5199 -1.0754 -0.7968
  180MOL0     H24248   2.178   8.509   5.250  2.2489  4.0461  1.4714
  180MOL0     H24249   2.155   8.487   5.551  0.2486 -0.6383 -0.4886
  180MOL0     H24250   2.223   8.377   5.448  0.9889  0.6342  0.8045
  180MOL0     H24251   2.394   8.569   5.247  2.7369 -0.8802  1.3704
  180MOL0     H24252   2.597   8.667   5.216  0.6440  3.0717 -0.8508
  180MOL0     H24253   2.620   8.816   5.303  0.5676  0.0404 -1.6999
  180MOL0     H24254   2.733   8.545   5.361 -2.2422  1.4680  0.7491
  180MOL0     H24255   2.828   8.676   5.272  1.0179 -1.9603  0.1275
  180MOL0     H24256   2.754   8.661   5.560 -1.1190  0.8685  0.1050
  180MOL0     H24257   2.818   8.812   5.476  3.9964  0.5828  0.4248
  180MOL0     H24258   3.002   8.698   5.400  0.3572 -0.0855 -0.2550
  180MOL0     H24259   2.952   8.550   5.499  1.1728 -0.1714 -1.6975
  180MOL0     H24260   3.191   8.835   5.756 -2.3897 -3.7978  0.8805
  180MOL0     H24261   3.434   8.798   5.780  3.6544 -1.5149 -0.3962
  180MOL0     H24262   3.866   8.844   5.630 -1.3845 -1.5988 -1.5854
  180MOL0     H24263   4.097   8.802   5.685 -0.2499  0.3060  3.9435
  180MOL0     H24264   4.284   8.727   5.755  0.2723 -2.7018 -3.1286
  180MOL0     H24265   4.236   8.711   5.930  0.8005 -1.1715  1.3640
  180MOL0     H24266   4.402   8.519   5.919  3.1182  0.8191  2.1275
  180MOL0     H24267   4.467   8.600   5.772 -0.4559 -0.8037 -0.5099
  180MOL0     H24268   4.506   8.806   5.899 -2.3297  0.4206 -1.2832
  180MOL0     H24269   4.435   8.740   6.045  0.7670 -3.8790  0.6691
  180MOL0     H24270   4.692   8.644   5.898  3.1459 -2.1055  1.5411
  180MOL0     H24271   4.621   8.549   6.016  0.4651 -0.0513 -2.6135
  180MOL0     H24272   4.687   8.850   6.050 -0.3545 -1.3917 -2.2400
  180MOL0     H24273   4.818   8.724   6.051  1.6393 -1.4363  2.8722
  180MOL0     H24274   4.585   8.758   6.247  0.7741  1.5440  1.5988
  180MOL0     H24275   4.713   8.633   6.265  0.6241 -0.8779  0.0210
  180MOL0     H24276   4.738   8.938   6.276  0.9027  0.3429  0.1029
  180MOL0     H24277   4.877   8.828   6.274 -1.2903  1.3539 -3.6054
  180MOL0     H24278   4.656   8.830   6.478  0.2194 -1.2604  0.8591
  180MOL0     H24279   4.797   8.729   6.496 -1.6997 -1.9064 -1.7356
  180MOL0     H24280   3.973   8.414   5.835 -0.1984 -2.0844 -3.6240
  180MOL0     H24281   3.737   8.485   5.819  0.1752  0.2828  2.0911
  180MOL0     H24282   3.423   8.547   5.436 -2.6054 -2.4032  0.3190
  180MOL0     H24283   3.189   8.577   5.400 -0.6908 -1.6307  0.8726
  180MOL0     H24284   1.299   8.511   4.877  2.0053 -0.5514  1.2861
  180MOL0     H24285   1.096   8.672   4.826 -0.9759  0.1075  0.7808
  180MOL0     H24286   0.990   9.180   5.122 -0.4687 -0.6627  2.6282
  180MOL0     H24287   0.802   9.335   5.138 -1.9397 -1.0961  1.0806
  180MOL0     H24288   0.373   9.219   5.161 -0.4299  0.5107  0.1907
  180MOL0     H24289   0.398   9.247   4.988  1.2646 -3.8623  1.0022
  180MOL0     H24290   0.236   9.415   5.120 -0.2342  2.6017  3.1863
  180MOL0     H24291   0.371   9.494   5.036  1.7954 -1.3434 -0.8751
  180MOL0     H24292   0.481   9.518   5.251  1.2881 -1.1749 -1.5111
  180MOL0     H24293   0.376   9.401   5.332  1.8166  1.7554  1.7304
  180MOL0     H24294   0.275   9.650   5.205  2.3325 -2.7161 -1.9892
  180MOL0     H24295   0.184   9.543   5.327 -1.0494  3.3937  1.7135
  180MOL0     H24296   0.396   9.759   5.601 -2.5921  2.1565 -0.9796
  180MOL0     H24297   0.532   9.047   4.971 -0.4295 -0.9354  0.4050
  180MOL0     H24298   0.683   8.786   5.069 -2.5964  0.3761  0.0380
  180MOL0     H24299   0.583   8.817   4.936  0.4770 -4.9495 -1.0654
  180MOL0     H24300   0.744   8.788   4.894 -0.2754  0.6427 -0.4378
  181MOL0     O24301   0.900   5.290   7.414  0.6447  0.6069 -0.7188
  181MOL0     C24302   0.982   5.294   7.503 -0.6298 -1.2265 -0.1809
  181MOL0     O24303   1.115   5.291   7.490 -0.9824  0.0840  0.1478
  181MOL0     C24304   1.173   5.228   7.380 -0.2393  0.4234  0.3388
  181MOL0     C24305   1.240   5.106   7.387  0.3059 -0.7266  0.1709
  181MOL0     C24306   1.296   5.038   7.275  0.4333 -0.6862 -0.2948
  181MOL0     C24307   1.284   5.094   7.158 -0.0034 -0.3496  0.4087
  181MOL0     O24308   1.340   5.020   7.058 -0.3105  0.3458 -0.5372
  181MOL0     C24309   1.270   5.007   6.935 -0.3496 -0.5808  1.0018
  181MOL0     C24310   1.356   4.920   6.845  0.2491 -0.0061  0.5257
  181MOL0     C24311   1.294   4.886   6.702  0.0663 -0.4337 -0.4358
  181MOL0     C24312   1.390   4.811   6.604  0.4553  0.3559  0.3266
  181MOL0     C24313   1.309   4.722   6.505  0.6757 -0.4176 -0.6107
  181MOL0     C24314   1.402   4.633   6.429 -0.6977  0.0657 -1.0150
  181MOL0     C24315   1.330   4.529   6.340  0.3234  0.3069  0.2472
  181MOL0     C24316   1.287   4.396   6.405 -0.7749 -0.3668  0.4062
  181MOL0     N24317   1.200   4.299   6.328 -0.7849  0.3079 -0.6147
  181MOL0     C24318   1.245   4.175   6.293  0.7127 -0.5837 -0.1399
  181MOL0     C24319   1.148   4.127   6.204  0.3029 -0.4360  0.3915
  181MOL0     C24320   1.147   3.989   6.149  0.4215 -0.0524 -0.0854
  181MOL0     C24321   1.014   3.924   6.196  0.1234 -0.8056  0.2223
  181MOL0     C24322   0.985   3.794   6.128  0.1265 -0.2694 -0.8122
  181MOL0     C24323   1.088   3.694   6.166  0.0511  0.5456  0.2897
  181MOL0     O24324   1.097   3.664   6.316  0.0296 -0.5978  0.1676
  181MOL0     C24325   1.192   3.573   6.364  0.2061 -0.5168  0.1042
  181MOL0     C24326   1.198   3.557   6.497 -0.2711 -0.8945  0.3537
  181MOL0     C24327   1.303   3.474   6.557 -1.2438  0.7493 -0.3047
  181MOL0     C24328   1.396   3.402   6.488  1.2224  0.7645 -0.4070
  181MOL0     C24329   1.470   3.298   6.545  0.1214 -0.9157  0.1117
  181MOL0     O24330   1.484   3.297   6.678 -0.0865  0.4549 -0.1451
  181MOL0     C24331   1.580   3.221   6.739  0.7671  0.4002 -0.1471
  181MOL0     C24332   1.707   3.269   6.760  0.8474  0.0720 -0.1023
  181MOL0     C24333   1.824   3.195   6.782 -0.5995  0.3311  0.1701
  181MOL0     C24334   1.811   3.055   6.806 -0.0189  0.9011  0.5947
  181MOL0     O24335   1.922   2.983   6.825 -0.3707  0.1060 -0.3995
  181MOL0     C24336   1.909   2.841   6.835 -0.6308 -0.5877  0.2206
  181MOL0     C24337   2.051   2.783   6.819 -1.3429  0.2817 -0.5116
  181MOL0     C24338   2.129   2.775   6.947 -0.3022  0.4146  0.5641
  181MOL0     C24339   2.276   2.729   6.929  0.3318 -0.0626 -0.2663
  181MOL0     C24340   2.343   2.726   7.060  0.6176  0.4821  0.0815
  181MOL0     C24341   2.413   2.590   7.088  0.3097 -0.7690 -0.7180
  181MOL0     C24342   2.483   2.580   7.228 -0.2916  0.3597  0.6535
  181MOL0     C24343   2.576   2.450   7.241 -0.3713 -0.0486 -0.1987
  181MOL0    Cl24344   2.658   2.446   7.400  0.0854  0.0751 -0.1810
  181MOL0     C24345   1.680   2.999   6.800  0.3105 -0.1106  0.3039
  181MOL0     C24346   1.560   3.081   6.759 -0.8537  0.3349 -0.0355
  181MOL0     O24347   1.544   3.234   6.463  0.2207 -0.4882  0.2139
  181MOL0     C24348   1.375   3.411   6.350 -0.3016  0.4708 -0.3995
  181MOL0     C24349   1.290   3.508   6.286  0.0710  0.0822 -0.9610
  181MOL0     N24350   1.059   4.239   6.188 -0.6643 -0.3989  0.3326
  181MOL0     N24351   1.095   4.343   6.249  0.4075 -0.0595 -0.2189
  181MOL0     C24352   1.229   5.223   7.140 -0.4633  1.0920  0.1241
  181MOL0     C24353   1.158   5.278   7.249  0.7287  0.9573 -0.6400
  181MOL0     C24354   0.936   5.331   7.641  0.7872  0.1939 -0.4456
  181MOL0     C24355   0.971   5.241   7.747  0.2620  0.4761 -0.8939
  181MOL0     C24356   0.927   5.262   7.876 -0.9838 -0.0595  0.4277
  181MOL0     C24357   0.862   5.380   7.902  0.1310 -0.8282 -0.6834
  181MOL0     O24358   0.831   5.404   8.031  0.7627 -0.3682  0.7308
  181MOL0     C24359   0.923   5.490   8.089  0.0329 -0.0141  0.2869
  181MOL0     C24360   0.928   5.459   8.245  0.8116  0.5860  0.9190
  181MOL0     C24361   0.941   5.310   8.273  0.0972 -0.7937  0.1363
  181MOL0     C24362   0.965   5.283   8.429 -0.0979  0.6917 -0.1812
  181MOL0     C24363   1.092   5.352   8.482  0.4230 -0.5030  0.5344
  181MOL0     C24364   1.181   5.437   8.499  0.2990  0.2990  0.4640
  181MOL0     C24365   0.834   5.476   7.806  0.3593  0.6047  0.1899
  181MOL0     C24366   0.865   5.454   7.673 -0.3148  0.6704  0.2608
  181MOL0     C24367   0.835   5.562   7.573  0.5372  1.5355 -0.4699
  181MOL0     H24368   1.261   5.058   7.482  1.9555  1.6513  1.0940
  181MOL0     H24369   1.356   4.948   7.288  0.7690 -0.5952 -1.1641
  181MOL0     H24370   1.165   4.977   6.938 -0.7401  0.4634 -0.7204
  181MOL0     H24371   1.265   5.109   6.896 -0.6013 -0.4777  1.2963
  181MOL0     H24372   1.369   4.817   6.880  0.8164 -0.0389  0.2262
  181MOL0     H24373   1.452   4.970   6.831 -0.0694  0.7757  1.0494
  181MOL0     H24374   1.260   4.981   6.660 -1.1823 -0.0717  1.2942
  181MOL0     H24375   1.198   4.834   6.709 -0.5646  0.7583  0.0040
  181MOL0     H24376   1.448   4.886   6.550  2.2435 -1.6472 -0.7047
  181MOL0     H24377   1.456   4.742   6.658 -0.2466  0.2210  1.0262
  181MOL0     H24378   1.240   4.660   6.563  1.2631  0.9895  1.7460
  181MOL0     H24379   1.259   4.788   6.433 -0.5722  2.1219  2.3549
  181MOL0     H24380   1.464   4.697   6.365 -0.2369 -0.0118 -0.6492
  181MOL0     H24381   1.476   4.585   6.494 -2.3078 -1.9810 -0.6201
  181MOL0     H24382   1.382   4.511   6.245  1.1318  3.6948 -0.0705
  181MOL0     H24383   1.238   4.576   6.305  0.1804 -0.4023 -0.3437
  181MOL0     H24384   1.379   4.338   6.418  1.2685  1.8480 -2.6864
  181MOL0     H24385   1.235   4.409   6.500  0.3831 -4.2572  1.7699
  181MOL0     H24386   1.339   4.132   6.327  2.0826  3.4428  1.7835
  181MOL0     H24387   1.159   4.001   6.041  1.8788 -0.1543  0.0464
  181MOL0     H24388   1.229   3.933   6.195 -0.2837 -0.7801  0.3098
  181MOL0     H24389   1.009   3.898   6.302 -1.8107 -2.5517 -0.2353
  181MOL0     H24390   0.926   3.987   6.179 -1.5733 -1.8690  4.0029
  181MOL0     H24391   0.986   3.800   6.019  1.7914  0.7473 -0.7577
  181MOL0     H24392   0.881   3.768   6.150 -0.4839  1.3721 -1.6194
  181MOL0     H24393   1.188   3.719   6.128  0.3536 -1.1504 -0.1206
  181MOL0     H24394   1.065   3.602   6.112  3.5473  0.7828 -1.9158
  181MOL0     H24395   1.139   3.626   6.556 -1.9102 -0.5985 -1.5366
  181MOL0     H24396   1.312   3.465   6.665 -0.3472  1.3672 -0.3134
  181MOL0     H24397   1.735   3.373   6.748 -0.3810  0.2145 -2.2675
  181MOL0     H24398   1.924   3.238   6.777  0.9595 -2.5597  2.6719
  181MOL0     H24399   1.853   2.812   6.924  2.2176 -1.5839  1.8151
  181MOL0     H24400   1.853   2.803   6.749  0.5148 -0.2720 -0.6940
  181MOL0     H24401   2.050   2.680   6.782  0.8249 -0.0478  0.2398
  181MOL0     H24402   2.112   2.843   6.751  0.9580 -0.2740  0.9661
  181MOL0     H24403   2.143   2.880   6.977  1.1312  1.0443 -1.9988
  181MOL0     H24404   2.069   2.726   7.024 -1.8185 -0.2008 -0.9356
  181MOL0     H24405   2.317   2.797   6.854 -1.2812 -2.8694 -4.0820
  181MOL0     H24406   2.295   2.627   6.893 -2.0576 -0.6354 -0.1092
  181MOL0     H24407   2.276   2.741   7.144 -0.8918 -0.5497 -0.8914
  181MOL0     H24408   2.407   2.815   7.068  0.6770  0.3273  1.4532
  181MOL0     H24409   2.330   2.518   7.090 -2.1431  1.8663 -0.7327
  181MOL0     H24410   2.481   2.574   7.004 -0.2278  0.4724 -1.4084
  181MOL0     H24411   2.416   2.586   7.314 -1.6465  0.5566 -0.3774
  181MOL0     H24412   2.548   2.667   7.236 -2.5331  1.9402  3.8140
  181MOL0     H24413   2.522   2.355   7.248  1.9288 -1.4916 -1.1649
  181MOL0     H24414   2.649   2.446   7.160 -0.7363  0.7039 -0.5861
  181MOL0     H24415   1.648   2.896   6.796  1.6699 -0.5090 -1.8167
  181MOL0     H24416   1.473   3.019   6.741  0.2043 -0.6489 -2.1437
  181MOL0     H24417   1.439   3.346   6.291  1.8405  1.0789  1.1372
  181MOL0     H24418   1.276   3.495   6.179  0.9108  0.0998 -1.0775
  181MOL0     H24419   1.226   5.258   7.037 -0.3801 -0.5599 -0.4778
  181MOL0     H24420   1.117   5.378   7.242  0.0486  0.6290 -1.5190
  181MOL0     H24421   1.026   5.149   7.730 -1.0743 -0.5886  0.3489
  181MOL0     H24422   0.971   5.208   7.959 -3.5074 -0.0872  1.8411
  181MOL0     H24423   0.897   5.594   8.066 -1.3568 -1.0301 -3.5846
  181MOL0     H24424   1.019   5.468   8.042 -0.0632 -3.0552  1.2677
  181MOL0     H24425   0.834   5.484   8.296 -2.0888 -1.2199 -2.9980
  181MOL0     H24426   1.002   5.515   8.303  2.6269 -1.3863  0.6546
  181MOL0     H24427   1.016   5.270   8.204  0.6060  3.4091 -2.0767
  181MOL0     H24428   0.847   5.266   8.239  0.4595 -0.5999 -1.1890
  181MOL0     H24429   0.879   5.310   8.491  0.2677 -0.5849  0.9376
  181MOL0     H24430   0.967   5.174   8.440 -0.8837  0.4564 -2.0439
  181MOL0     H24431   1.259   5.509   8.487  1.6055 -1.3367 -1.5369
  181MOL0     H24432   0.787   5.570   7.834  2.7034  1.8159  0.2980
  181MOL0     H24433   0.880   5.538   7.476 -2.6662 -2.0376 -1.3342
  181MOL0     H24434   0.731   5.555   7.539  1.3870 -0.3972 -2.9978
  181MOL0     H24435   0.865   5.656   7.620  0.8002  0.7865  0.9127
  182MOL0     O24436   6.193   8.832  10.724  0.8508 -0.1645  0.1951
  182MOL0     C24437   6.204   8.878  10.834  0.6941  0.3174  1.1048
  182MOL0     O24438   6.197   9.013  10.857 -1.1498 -0.0105 -0.2347
  182MOL0     C24439   6.150   9.111  10.763  0.2551 -0.2171  0.0814
  182MOL0     C24440   6.031   9.081  10.689  0.9770  0.1354 -0.0795
  182MOL0     C24441   5.983   9.170  10.599  0.4660  0.4804  1.0716
  182MOL0     C24442   6.033   9.301  10.582  0.4862  0.0332 -0.5364
  182MOL0     O24443   5.982   9.404  10.495  0.8125  0.4177  0.1560
  182MOL0     C24444   5.858   9.369  10.426 -0.8886  0.2059  0.2274
  182MOL0     C24445   5.825   9.490  10.332  0.8266 -0.0070  1.1124
  182MOL0     C24446   5.730   9.442  10.222 -0.9104 -0.5314 -0.8451
  182MOL0     C24447   5.722   9.563  10.123 -0.3310  1.2022 -0.0161
  182MOL0     C24448   5.638   9.532  10.001  0.0127  0.0606 -0.0554
  182MOL0     C24449   5.610   9.673   9.930  0.1286 -0.2711 -0.2200
  182MOL0     C24450   5.529   9.657   9.797 -0.1625  0.3783 -0.9267
  182MOL0     C24451   5.527   9.779   9.701 -0.1206 -0.1186 -0.3842
  182MOL0     N24452   5.400   9.782   9.640  0.1823  0.4014 -0.1726
  182MOL0     C24453   5.352   9.691   9.545  0.3126 -0.2544  0.1266
  182MOL0     C24454   5.233   9.736   9.524  0.6561  0.0521 -0.6576
  182MOL0     C24455   5.125   9.676   9.453  0.5137  0.4263 -0.5901
  182MOL0     C24456   5.058   9.561   9.515  0.5237 -0.2882 -0.4957
  182MOL0     C24457   5.014   9.593   9.655 -0.4690  0.7871  0.6624
  182MOL0     C24458   4.928   9.478   9.705  0.4775 -0.6845 -0.0233
  182MOL0     O24459   4.804   9.477   9.637 -0.2455 -0.0140  0.2140
  182MOL0     C24460   4.717   9.388   9.695 -0.0692  0.2737 -0.4641
  182MOL0     C24461   4.748   9.288   9.792 -0.1367 -0.4258  0.3369
  182MOL0     C24462   4.656   9.198   9.836  0.2596  0.6425  0.1914
  182MOL0     C24463   4.521   9.194   9.800 -0.8777 -0.4901 -0.6484
  182MOL0     C24464   4.423   9.089   9.832 -0.5978  0.0076  0.3197
  182MOL0     O24465   4.478   8.991   9.913  0.0960  0.3358  0.2370
  182MOL0     C24466   4.414   8.865   9.912 -0.1535  0.4254  0.0337
  182MOL0     C24467   4.279   8.837   9.922 -0.2986  0.1317  0.3825
  182MOL0     C24468   4.233   8.701   9.918 -0.6970  0.1747  0.3805
  182MOL0     C24469   4.325   8.594   9.893  0.1581  0.5315  0.5849
  182MOL0     O24470   4.290   8.464   9.880 -0.8023 -0.1968 -0.1334
  182MOL0     C24471   4.166   8.428   9.927 -0.5924  0.3213 -0.4432
  182MOL0     C24472   4.137   8.272   9.924 -0.0732  0.1806  0.5271
  182MOL0     C24473   4.259   8.200   9.986 -0.6959 -0.1569  0.0595
  182MOL0     C24474   4.243   8.183  10.134 -0.2633  0.5345  0.2578
  182MOL0     C24475   4.347   8.086  10.200  0.3472 -0.9363  0.3540
  182MOL0     C24476   4.333   8.081  10.350  0.7789 -0.1968 -0.1450
  182MOL0     C24477   4.391   8.212  10.406  0.4557  0.9941  0.2127
  182MOL0     C24478   4.436   8.209  10.554 -0.0212  0.1092  0.2259
  182MOL0    Cl24479   4.577   8.111  10.582  0.3921 -0.4163 -0.1410
  182MOL0     C24480   4.458   8.632   9.887  0.3402  1.2128 -0.5981
  182MOL0     C24481   4.506   8.762   9.891  0.3718 -0.5703 -0.0486
  182MOL0     O24482   4.321   9.085   9.767  0.7629 -0.1686  0.6896
  182MOL0     C24483   4.487   9.312   9.716 -0.1596  0.0296  0.1715
  182MOL0     C24484   4.587   9.397   9.657  0.2276 -0.7113  0.5051
  182MOL0     N24485   5.208   9.843   9.607  0.7840  0.3598  0.5965
  182MOL0     N24486   5.315   9.872   9.672  0.3610 -0.6662 -0.2367
  182MOL0     C24487   6.156   9.325  10.642 -0.4803  0.1460  0.1340
  182MOL0     C24488   6.211   9.229  10.741 -0.1609  0.3048  0.4217
  182MOL0     C24489   6.233   8.791  10.954  0.2341 -0.5244 -0.2698
  182MOL0     C24490   6.192   8.843  11.075 -0.0540 -0.1818  0.3942
  182MOL0     C24491   6.210   8.779  11.190 -0.1427  0.4978  0.0049
  182MOL0     C24492   6.281   8.663  11.192  0.4147 -0.9990 -0.2984
  182MOL0     O24493   6.309   8.609  11.313 -0.7178  0.5411 -0.2449
  182MOL0     C24494   6.347   8.468  11.324  0.1431  0.1111 -0.4866
  182MOL0     C24495   6.413   8.459  11.457 -0.2354  0.7409 -0.0033
  182MOL0     C24496   6.337   8.518  11.584 -1.5413 -0.9268 -0.6082
  182MOL0     C24497   6.426   8.508  11.705 -0.8627 -0.2086 -0.2600
  182MOL0     C24498   6.462   8.380  11.757 -0.5609  0.4892  0.5845
  182MOL0     C24499   6.484   8.268  11.796 -0.0000  1.0872  0.0463
  182MOL0     C24500   6.327   8.606  11.075 -0.5017 -0.6436  0.9283
  182MOL0     C24501   6.312   8.671  10.948  0.2519 -0.6722 -0.5330
  182MOL0     C24502   6.355   8.604  10.827  0.2734 -0.3941  0.1059
  182MOL0     H24503   5.975   8.990  10.704  0.7910  0.5509  2.1105
  182MOL0     H24504   5.896   9.133  10.545  1.3154  3.3518 -2.6126
  182MOL0     H24505   5.875   9.280  10.364  1.5896 -2.0489  3.8076
  182MOL0     H24506   5.786   9.347  10.505  2.6622 -1.8834  3.2027
  182MOL0     H24507   5.925   9.507  10.290  0.9575  2.0284  2.1269
  182MOL0     H24508   5.791   9.586  10.371 -0.4508 -0.4919  1.2514
  182MOL0     H24509   5.634   9.420  10.270 -0.7097  0.7707  0.2070
  182MOL0     H24510   5.766   9.355  10.166  0.1270  0.6325 -2.0269
  182MOL0     H24511   5.682   9.647  10.179  0.3930  0.0310  2.3801
  182MOL0     H24512   5.822   9.577  10.080 -0.0349 -0.5542  0.0255
  182MOL0     H24513   5.701   9.464   9.942  0.1362 -0.0264  0.1736
  182MOL0     H24514   5.539   9.491  10.020 -0.2128 -0.3886 -1.9798
  182MOL0     H24515   5.562   9.737  10.005  0.5986 -0.1295 -0.0382
  182MOL0     H24516   5.702   9.721   9.896 -0.0449  0.4779  0.3343
  182MOL0     H24517   5.426   9.623   9.813  0.0703  0.1800  0.2360
  182MOL0     H24518   5.584   9.571   9.759  0.9295 -0.0439  1.4232
  182MOL0     H24519   5.540   9.871   9.758 -0.0004  1.0985 -2.3015
  182MOL0     H24520   5.617   9.781   9.639  0.2590  0.5840  0.1832
  182MOL0     H24521   5.406   9.614   9.491  0.8279  0.2196 -0.0406
  182MOL0     H24522   5.047   9.753   9.452 -0.8755 -0.6137  4.1921
  182MOL0     H24523   5.163   9.653   9.353  2.4717 -1.1987  0.4654
  182MOL0     H24524   4.963   9.543   9.464 -0.6692 -3.2556  2.4220
  182MOL0     H24525   5.114   9.467   9.522  0.7318 -0.0299  2.5612
  182MOL0     H24526   4.955   9.685   9.641 -2.2663 -0.5412 -1.1443
  182MOL0     H24527   5.101   9.600   9.720  1.6220 -1.3951 -1.6577
  182MOL0     H24528   4.917   9.480   9.814 -1.5623 -2.8146 -0.1165
  182MOL0     H24529   4.983   9.385   9.690  3.8738  1.2873 -0.9009
  182MOL0     H24530   4.848   9.262   9.825 -0.9360 -2.9998  0.8989
  182MOL0     H24531   4.680   9.113   9.899  0.7669  0.6839  0.0597
  182MOL0     H24532   4.212   8.923   9.927  2.1040  2.2075 -0.5586
  182MOL0     H24533   4.128   8.678   9.928 -0.6948 -0.9798 -1.6487
  182MOL0     H24534   4.153   8.466  10.028 -1.2177  4.3654 -1.8857
  182MOL0     H24535   4.089   8.481   9.870 -2.6668 -2.7689 -0.7770
  182MOL0     H24536   4.044   8.253   9.978 -1.4839 -2.8647 -2.5801
  182MOL0     H24537   4.115   8.237   9.823  1.7752 -1.6899  0.6865
  182MOL0     H24538   4.277   8.100   9.945  1.9614  1.5322 -3.3535
  182MOL0     H24539   4.352   8.250   9.957  0.5142 -3.5180 -2.5249
  182MOL0     H24540   4.144   8.139  10.149  0.1097 -0.0317  1.0986
  182MOL0     H24541   4.230   8.276  10.191  0.0087  0.8572 -0.2015
  182MOL0     H24542   4.450   8.111  10.175  0.2541 -1.2480 -0.3859
  182MOL0     H24543   4.333   7.985  10.159  1.6547 -1.9787  2.3097
  182MOL0     H24544   4.227   8.074  10.378  1.2112 -0.3172  1.5498
  182MOL0     H24545   4.394   7.997  10.386  0.9358 -2.3083 -4.5608
  182MOL0     H24546   4.328   8.300  10.389 -0.0937  0.6801  0.5927
  182MOL0     H24547   4.477   8.231  10.341 -0.4583  0.3018 -1.2679
  182MOL0     H24548   4.468   8.311  10.573  1.7920 -0.3157 -0.3261
  182MOL0     H24549   4.354   8.179  10.619  0.0577  0.0921  0.3169
  182MOL0     H24550   4.525   8.549   9.871 -2.1217 -0.4224 -3.3865
  182MOL0     H24551   4.610   8.790   9.877  0.0652  1.5316  1.3321
  182MOL0     H24552   4.384   9.335   9.693 -0.8005 -2.7801 -0.0801
  182MOL0     H24553   4.557   9.483   9.599  0.6368  0.4659  1.9526
  182MOL0     H24554   6.203   9.420  10.622  1.4864 -0.8106 -0.0376
  182MOL0     H24555   6.301   9.246  10.799 -1.1044 -4.5178  3.8605
  182MOL0     H24556   6.132   8.932  11.091 -0.8830 -1.2416  4.1636
  182MOL0     H24557   6.163   8.825  11.276  3.6483  0.4049  2.3468
  182MOL0     H24558   6.430   8.438  11.260  3.1852  0.6361  2.8769
  182MOL0     H24559   6.268   8.393  11.312  0.6698 -0.3127 -1.4162
  182MOL0     H24560   6.505   8.516  11.442 -0.9898  2.0118  0.0873
  182MOL0     H24561   6.443   8.357  11.482 -0.2157  1.2826  2.4307
  182MOL0     H24562   6.250   8.457  11.612  0.4205 -1.7547  4.9260
  182MOL0     H24563   6.306   8.621  11.567 -2.1888 -0.5068  2.5446
  182MOL0     H24564   6.518   8.565  11.692 -0.4535 -1.1512 -1.7215
  182MOL0     H24565   6.376   8.567  11.782 -0.3220 -0.0074 -0.0585
  182MOL0     H24566   6.514   8.177  11.844 -1.6649 -1.4264 -3.2832
  182MOL0     H24567   6.390   8.519  11.066 -1.5467 -1.3564  0.2918
  182MOL0     H24568   6.442   8.659  10.792  1.4999  1.1170  4.7593
  182MOL0     H24569   6.382   8.500  10.847 -4.5420 -2.0716 -0.8344
  182MOL0     H24570   6.283   8.607  10.745 -0.8547 -0.3611  1.0596
  183MOL0     O24571   9.632   3.256   4.772  0.0736 -0.0085 -0.8013
  183MOL0     C24572   9.701   3.355   4.759 -0.1371 -0.3288 -0.8146
  183MOL0     O24573   9.774   3.405   4.859  0.5903  0.2374 -0.6986
  183MOL0     C24574   9.880   3.330   4.915 -0.6455 -0.6959 -0.1215
  183MOL0     C24575   9.942   3.224   4.854  0.4577  0.2222  0.1334
  183MOL0     C24576  10.066   3.167   4.905  0.1171 -0.0366  0.1792
  183MOL0     C24577  10.116   3.217   5.026 -0.2756 -0.7920  0.8587
  183MOL0     O24578  10.226   3.154   5.076 -0.2915  0.0590 -0.7020
  183MOL0     C24579  10.219   3.016   5.093  1.1213  0.6575 -0.9178
  183MOL0     C24580  10.323   2.977   5.185 -0.2193 -0.7311 -0.5366
  183MOL0     C24581  10.355   2.826   5.195 -0.0450 -0.3299  0.9856
  183MOL0     C24582  10.212   2.769   5.230  0.4713  1.1283 -0.8035
  183MOL0     C24583  10.217   2.619   5.245 -0.1814  0.4966  0.4007
  183MOL0     C24584  10.089   2.533   5.263  0.1263  0.1911 -0.1863
  183MOL0     C24585  10.062   2.442   5.139  0.0524 -1.1593 -0.5589
  183MOL0     C24586   9.954   2.335   5.136 -0.0879 -0.6089  0.6358
  183MOL0     N24587   9.830   2.396   5.153  1.0502  0.7772  0.4583
  183MOL0     C24588   9.732   2.416   5.056  0.5268  0.7486 -0.1563
  183MOL0     C24589   9.641   2.492   5.109 -1.0648 -0.1567 -1.2904
  183MOL0     C24590   9.522   2.542   5.048  0.9374 -0.3208 -0.7387
  183MOL0     C24591   9.412   2.441   5.019  1.1407 -0.2795  0.5725
  183MOL0     C24592   9.293   2.525   4.954  0.4302  0.2215 -0.0707
  183MOL0     C24593   9.149   2.450   4.969 -1.1069 -0.4009  0.1443
  183MOL0     O24594   9.058   2.485   4.871 -0.2636  0.1439  0.9350
  183MOL0     C24595   8.941   2.404   4.842 -0.5044 -0.2843 -0.8086
  183MOL0     C24596   8.851   2.461   4.750 -0.1253 -0.7393  0.2804
  183MOL0     C24597   8.724   2.395   4.733 -0.8424 -0.3224 -0.0771
  183MOL0     C24598   8.709   2.260   4.781  0.6923 -0.0998 -0.0369
  183MOL0     C24599   8.577   2.203   4.777  0.3264  0.2411 -1.2009
  183MOL0     O24600   8.476   2.269   4.702  0.3544 -0.2469  0.1098
  183MOL0     C24601   8.344   2.229   4.712 -0.5180 -0.8238 -0.8304
  183MOL0     C24602   8.260   2.250   4.602 -0.4849  0.2915  1.5598
  183MOL0     C24603   8.126   2.237   4.616  0.2764 -0.2900 -1.1524
  183MOL0     C24604   8.063   2.202   4.737  0.8198  0.2743 -0.3446
  183MOL0     O24605   7.927   2.186   4.728  1.3287 -0.2121 -0.0268
  183MOL0     C24606   7.848   2.175   4.852  0.0218  0.3184  0.2873
  183MOL0     C24607   7.855   2.313   4.919 -0.0141  0.6110  0.0721
  183MOL0     C24608   7.740   2.360   4.995  0.0576 -0.5829 -0.5675
  183MOL0     C24609   7.775   2.456   5.106  0.4145 -0.8846 -0.0965
  183MOL0     C24610   7.641   2.455   5.195  0.3303 -0.3103  0.9846
  183MOL0     C24611   7.661   2.574   5.289  1.3070 -0.2103 -0.3472
  183MOL0     C24612   7.538   2.594   5.379 -0.7549  1.0825 -0.3524
  183MOL0     C24613   7.552   2.706   5.475  0.0451  0.3266 -0.0202
  183MOL0    Cl24614   7.662   2.657   5.608 -0.2182  0.3239 -0.4821
  183MOL0     C24615   8.151   2.174   4.846 -0.6091 -0.1534 -0.2575
  183MOL0     C24616   8.288   2.183   4.838  0.0769  0.0365 -0.2548
  183MOL0     O24617   8.562   2.097   4.824  0.4746 -0.0558 -0.0018
  183MOL0     C24618   8.809   2.202   4.853 -0.3732 -0.0384  0.7204
  183MOL0     C24619   8.927   2.270   4.887 -0.9304  0.2028  0.0251
  183MOL0     N24620   9.671   2.506   5.243 -0.6613 -0.9851 -0.3053
  183MOL0     N24621   9.787   2.452   5.266  0.2329  0.6411  0.6478
  183MOL0     C24622  10.064   3.322   5.084  0.2861  0.1750 -0.2096
  183MOL0     C24623   9.948   3.389   5.027  1.6303  0.6029  0.5155
  183MOL0     C24624   9.687   3.445   4.640 -0.0991  0.7736 -0.8316
  183MOL0     C24625   9.749   3.576   4.636 -0.0763 -1.3851 -0.7588
  183MOL0     C24626   9.735   3.669   4.531  0.2886  0.3488 -0.6530
  183MOL0     C24627   9.678   3.626   4.413 -0.1304 -1.6381 -0.5708
  183MOL0     O24628   9.682   3.715   4.308  0.7077  0.4309 -0.2432
  183MOL0     C24629   9.560   3.730   4.231 -0.4376 -0.3869 -0.1117
  183MOL0     C24630   9.547   3.883   4.191 -0.6880  0.8907  0.3514
  183MOL0     C24631   9.534   3.981   4.307 -0.2575  1.3756  0.5671
  183MOL0     C24632   9.423   3.961   4.408 -0.6759  0.4832  0.0295
  183MOL0     C24633   9.303   3.978   4.331 -0.1815 -0.3455  0.7525
  183MOL0     C24634   9.196   3.997   4.272 -1.1933 -0.5448  0.7601
  183MOL0     C24635   9.612   3.505   4.416  0.3808  1.0906  0.3855
  183MOL0     C24636   9.622   3.406   4.522 -0.0678 -0.3567 -0.0394
  183MOL0     C24637   9.559   3.271   4.505 -0.7987 -0.4496  0.3869
  183MOL0     H24638   9.913   3.187   4.757  2.9214 -2.1063  0.1778
  183MOL0     H24639  10.109   3.085   4.848 -0.7264 -2.2416  2.5482
  183MOL0     H24640  10.125   2.998   5.146  2.5662  1.9105  2.3471
  183MOL0     H24641  10.235   2.971   4.995 -0.0306 -0.7417 -0.5074
  183MOL0     H24642  10.309   3.035   5.277 -2.2204  0.1643 -1.3548
  183MOL0     H24643  10.418   3.017   5.149 -1.2756  0.5562 -2.0087
  183MOL0     H24644  10.428   2.814   5.275  2.0217 -0.2529 -0.8064
  183MOL0     H24645  10.409   2.788   5.108 -1.7063  0.4465 -0.4506
  183MOL0     H24646  10.177   2.802   5.328  2.0337 -0.5662  0.3997
  183MOL0     H24647  10.137   2.780   5.152  0.4910 -0.8415 -1.1598
  183MOL0     H24648  10.268   2.581   5.156  3.8279  1.3276  2.1170
  183MOL0     H24649  10.284   2.595   5.329  0.5889 -2.0327 -0.8376
  183MOL0     H24650  10.084   2.475   5.355 -4.7787 -0.2231 -0.4416
  183MOL0     H24651   9.999   2.594   5.268 -3.9028 -5.0857  0.6609
  183MOL0     H24652  10.159   2.393   5.124 -0.5309 -2.0632 -1.5240
  183MOL0     H24653  10.045   2.502   5.049  2.4170 -0.6080 -0.7092
  183MOL0     H24654   9.944   2.286   5.039 -0.4922  0.5109  0.0914
  183MOL0     H24655   9.968   2.257   5.211 -2.8911 -1.9573 -0.0934
  183MOL0     H24656   9.740   2.379   4.954 -0.6010  2.4213 -0.8995
  183MOL0     H24657   9.479   2.616   5.116 -0.8490 -1.4450 -0.5654
  183MOL0     H24658   9.555   2.579   4.951  2.0631 -0.8820 -0.5777
  183MOL0     H24659   9.451   2.361   4.955  0.9094  1.6807 -2.1708
  183MOL0     H24660   9.389   2.401   5.119  3.9938 -0.7972  1.1003
  183MOL0     H24661   9.293   2.537   4.845 -1.5950  2.6959  0.1087
  183MOL0     H24662   9.273   2.626   4.990 -4.0914 -0.0547 -1.1569
  183MOL0     H24663   9.103   2.478   5.064  0.3732  1.3965  0.3857
  183MOL0     H24664   9.167   2.343   4.969 -0.7980 -0.5641 -4.6743
  183MOL0     H24665   8.869   2.558   4.705 -0.3667 -0.4488  0.7971
  183MOL0     H24666   8.634   2.443   4.694 -3.1613 -2.6569  2.0068
  183MOL0     H24667   8.295   2.286   4.506 -0.0649 -0.1275  1.5501
  183MOL0     H24668   8.064   2.264   4.531 -2.2576  1.8292  1.1679
  183MOL0     H24669   7.745   2.163   4.819 -0.2458  3.6238 -0.3956
  183MOL0     H24670   7.886   2.095   4.917 -2.6345  0.0002  1.6109
  183MOL0     H24671   7.937   2.305   4.992 -1.3296  1.4822  1.7171
  183MOL0     H24672   7.864   2.397   4.850  1.7005  1.2104  0.9662
  183MOL0     H24673   7.672   2.396   4.917 -2.4054 -0.4718  1.4888
  183MOL0     H24674   7.687   2.273   5.036  0.0904 -0.6300 -0.6240
  183MOL0     H24675   7.797   2.552   5.058 -0.9891 -0.5771 -0.1461
  183MOL0     H24676   7.871   2.425   5.149  1.0470  0.7321 -0.2577
  183MOL0     H24677   7.624   2.362   5.250 -1.7015 -2.3578 -2.7485
  183MOL0     H24678   7.561   2.471   5.123 -1.5553  2.0865  3.4023
  183MOL0     H24679   7.745   2.539   5.350  1.7344 -0.3276 -0.9978
  183MOL0     H24680   7.681   2.667   5.236 -1.0306  0.4758 -0.1132
  183MOL0     H24681   7.520   2.505   5.440 -1.2063  0.4008 -1.4523
  183MOL0     H24682   7.455   2.615   5.311 -1.1223 -1.0915 -0.6563
  183MOL0     H24683   7.600   2.795   5.432  0.3092  0.4192  0.4620
  183MOL0     H24684   7.457   2.725   5.525  2.2429  2.5372  3.8255
  183MOL0     H24685   8.116   2.138   4.943 -1.1471 -1.6472 -0.9752
  183MOL0     H24686   8.357   2.174   4.922  0.0459  2.7905  0.1731
  183MOL0     H24687   8.798   2.099   4.887 -0.7930  0.5706  2.6026
  183MOL0     H24688   9.003   2.210   4.936  0.3013 -0.6524 -2.7245
  183MOL0     H24689  10.126   3.356   5.167 -0.6559 -1.6390  1.3127
  183MOL0     H24690   9.925   3.488   5.066  2.1390  0.3322  1.5551
  183MOL0     H24691   9.807   3.598   4.725 -2.4615  0.4607  0.4585
  183MOL0     H24692   9.786   3.764   4.547  2.4053 -1.0071  1.3039
  183MOL0     H24693   9.469   3.712   4.289 -0.9515 -1.8035 -1.2968
  183MOL0     H24694   9.568   3.664   4.144  1.5763  0.5977 -0.7380
  183MOL0     H24695   9.458   3.896   4.130 -2.0627 -0.2366  2.0301
  183MOL0     H24696   9.632   3.911   4.127 -0.3431 -0.6873  0.0630
  183MOL0     H24697   9.522   4.081   4.264  0.1702  1.0662 -0.2891
  183MOL0     H24698   9.632   3.992   4.354 -0.8224  2.7305  1.4767
  183MOL0     H24699   9.431   3.858   4.445  0.1448  0.5556  0.0704
  183MOL0     H24700   9.427   4.032   4.491  5.3559  2.6305 -1.5494
  183MOL0     H24701   9.110   4.031   4.218 -0.4267  1.2080  0.5723
  183MOL0     H24702   9.571   3.480   4.318  1.4923  0.8367 -0.0373
  183MOL0     H24703   9.552   3.258   4.396 -0.5133  1.4664  0.1030
  183MOL0     H24704   9.635   3.195   4.527 -0.7315 -0.3141  0.6151
  183MOL0     H24705   9.464   3.271   4.559  0.3446  0.6071  2.4982
  184MOL0     O24706   8.260   6.694   1.375 -0.6803 -0.7115  0.6960
  184MOL0     C24707   8.149   6.709   1.318 -0.3074  0.6440  0.1055
  184MOL0     O24708   8.063   6.605   1.302 -0.0012  0.0072  0.2968
  184MOL0     C24709   8.115   6.479   1.320 -0.1496  0.0229  0.3664
  184MOL0     C24710   8.082   6.415   1.435  0.5404 -0.1282  0.1533
  184MOL0     C24711   8.140   6.291   1.472  0.1972  0.6334 -0.6741
  184MOL0     C24712   8.214   6.223   1.370  0.1842  1.0724 -0.6208
  184MOL0     O24713   8.250   6.090   1.370 -0.7005 -0.1967  0.4480
  184MOL0     C24714   8.242   6.011   1.485 -0.2661 -0.7974 -0.3163
  184MOL0     C24715   8.279   5.871   1.474  0.2522  0.0546  0.7796
  184MOL0     C24716   8.194   5.811   1.356 -0.5364 -0.9821  0.0929
  184MOL0     C24717   8.146   5.669   1.378 -1.0079  0.6367 -0.2042
  184MOL0     C24718   8.020   5.626   1.293 -0.2169  0.2859 -0.1156
  184MOL0     C24719   8.053   5.625   1.142  0.4588 -0.4999  0.0433
  184MOL0     C24720   7.924   5.604   1.055  0.5959 -0.1594  0.1771
  184MOL0     C24721   7.928   5.618   0.905 -0.5230 -0.0241 -0.1733
  184MOL0     N24722   7.796   5.624   0.834 -0.7104 -0.1790 -1.0977
  184MOL0     C24723   7.723   5.736   0.808 -0.5022 -0.2324  0.6177
  184MOL0     C24724   7.619   5.701   0.735  0.5397 -0.0283 -1.0141
  184MOL0     C24725   7.511   5.794   0.695 -0.6012  0.2415 -1.0076
  184MOL0     C24726   7.492   5.783   0.542 -0.1594 -0.7887  0.3034
  184MOL0     C24727   7.365   5.842   0.499  0.8002  0.3313 -0.3354
  184MOL0     C24728   7.375   5.863   0.351 -0.4468  0.3042  0.4469
  184MOL0     O24729   7.413   6.001   0.330  0.0570  0.0647  0.2114
  184MOL0     C24730   7.436   6.051   0.203 -0.5055  0.2921 -0.1979
  184MOL0     C24731   7.426   5.976   0.091 -0.1194 -0.3219  0.3947
  184MOL0     C24732   7.490   6.022  -0.026 -0.3699 -1.1316  0.4656
  184MOL0     C24733   7.547   6.157  -0.032 -0.8797  0.1696  0.6168
  184MOL0     C24734   7.598   6.212  -0.161 -0.0095 -0.8188  0.6033
  184MOL0     O24735   7.651   6.337  -0.147 -0.5223  0.2578  0.2204
  184MOL0     C24736   7.721   6.394  -0.254 -0.2554  0.2835 -0.1527
  184MOL0     C24737   7.857   6.427  -0.244 -0.4836  0.0356 -0.0411
  184MOL0     C24738   7.933   6.491  -0.340 -1.3788  0.5363 -0.2310
  184MOL0     C24739   7.868   6.525  -0.452 -0.4799 -0.5183  0.6388
  184MOL0     O24740   7.943   6.592  -0.549  0.2885  0.5355 -0.4461
  184MOL0     C24741   7.958   6.545  -0.679 -0.7062 -0.5603  0.0090
  184MOL0     C24742   8.070   6.446  -0.703 -0.1134  0.2885  0.7988
  184MOL0     C24743   8.207   6.475  -0.647 -1.0846 -0.1314 -0.1785
  184MOL0     C24744   8.330   6.406  -0.717  0.9285 -0.2482 -0.2598
  184MOL0     C24745   8.461   6.445  -0.660 -0.9200 -0.0801 -0.4968
  184MOL0     C24746   8.588   6.443  -0.758 -0.5375  0.6145  1.2579
  184MOL0     C24747   8.597   6.292  -0.795 -0.5373 -0.5654  1.1117
  184MOL0     C24748   8.668   6.263  -0.925 -0.6505 -0.4025 -1.0611
  184MOL0    Cl24749   8.642   6.098  -0.961 -0.1291 -0.0203 -0.2513
  184MOL0     C24750   7.731   6.496  -0.474  0.5719  0.2968  0.2479
  184MOL0     C24751   7.662   6.438  -0.370  0.5096 -0.0517 -0.2049
  184MOL0     O24752   7.608   6.142  -0.258 -0.4634  0.4413  0.0164
  184MOL0     C24753   7.558   6.232   0.084 -0.0432 -0.4147 -0.3582
  184MOL0     C24754   7.492   6.174   0.199  0.1486 -0.1715 -0.9594
  184MOL0     N24755   7.630   5.565   0.716 -0.5129  0.5577 -0.6242
  184MOL0     N24756   7.735   5.525   0.769 -0.4376 -0.1907 -0.4973
  184MOL0     C24757   8.244   6.281   1.258 -0.5547 -0.0691  0.5475
  184MOL0     C24758   8.196   6.411   1.228 -0.4482 -1.0636 -0.2936
  184MOL0     C24759   8.099   6.846   1.263  1.0553  0.6509 -0.4816
  184MOL0     C24760   8.197   6.944   1.264 -1.1009 -0.7889 -0.7122
  184MOL0     C24761   8.173   7.071   1.209 -0.0137  0.8162 -0.1769
  184MOL0     C24762   8.039   7.104   1.168  0.8948 -0.7840  0.1376
  184MOL0     O24763   8.019   7.231   1.128 -0.3130 -0.0089  0.8474
  184MOL0     C24764   8.078   7.349   1.186  0.1214 -0.6678 -0.1833
  184MOL0     C24765   8.078   7.347   1.340 -0.7242  0.1536  1.2812
  184MOL0     C24766   7.941   7.361   1.419  0.1699  0.0096  0.4425
  184MOL0     C24767   7.954   7.433   1.563  0.6376  0.7548  0.6434
  184MOL0     C24768   8.043   7.352   1.648  0.2584  0.1709 -0.2251
  184MOL0     C24769   8.116   7.289   1.728  0.1981  0.4496  0.7032
  184MOL0     C24770   7.938   7.006   1.172 -0.3862  0.4765  0.5604
  184MOL0     C24771   7.967   6.884   1.215 -0.3407  0.7120  0.5919
  184MOL0     C24772   7.852   6.784   1.228 -0.4196 -0.4070 -0.3495
  184MOL0     H24773   8.009   6.451   1.506  0.2504 -1.3080  0.4810
  184MOL0     H24774   8.116   6.235   1.562 -0.7172 -0.6291 -1.6624
  184MOL0     H24775   8.311   6.052   1.559  2.0779 -3.3813 -0.9240
  184MOL0     H24776   8.136   6.022   1.513 -0.8770 -4.0458 -1.0120
  184MOL0     H24777   8.275   5.811   1.565  0.1465  1.3245  1.6254
  184MOL0     H24778   8.378   5.867   1.428  0.0337 -0.1574  0.3147
  184MOL0     H24779   8.257   5.817   1.267 -0.2891  3.0559  0.3758
  184MOL0     H24780   8.103   5.867   1.334  0.2592 -0.1225 -1.1310
  184MOL0     H24781   8.232   5.603   1.364 -0.6336  1.1544 -0.4045
  184MOL0     H24782   8.104   5.653   1.478 -3.6227 -1.2327 -1.4982
  184MOL0     H24783   7.988   5.526   1.324  0.2578 -0.5127 -2.0723
  184MOL0     H24784   7.938   5.694   1.316 -2.1409 -1.7410 -0.6880
  184MOL0     H24785   8.081   5.727   1.117 -0.0896 -0.6074 -1.0798
  184MOL0     H24786   8.140   5.559   1.130  3.8712  3.1101  2.4702
  184MOL0     H24787   7.851   5.678   1.089  1.6364  1.0041 -0.0955
  184MOL0     H24788   7.880   5.506   1.079 -1.3905  0.6072 -0.1725
  184MOL0     H24789   8.000   5.696   0.878 -1.7218  0.5304 -1.8696
  184MOL0     H24790   7.973   5.521   0.881  0.9378  0.1820  1.5145
  184MOL0     H24791   7.735   5.840   0.837  1.9246 -0.8636  2.1550
  184MOL0     H24792   7.416   5.763   0.741  1.2667 -1.0940  2.2941
  184MOL0     H24793   7.549   5.892   0.727 -0.2689 -0.3023  0.3111
  184MOL0     H24794   7.574   5.842   0.501 -0.6456  1.9716  2.9122
  184MOL0     H24795   7.497   5.682   0.499  0.5437  0.4489 -2.7605
  184MOL0     H24796   7.327   5.931   0.549 -3.9338 -0.4272 -2.0121
  184MOL0     H24797   7.282   5.774   0.524 -1.6080  2.9100 -0.7552
  184MOL0     H24798   7.282   5.833   0.302 -0.4535 -1.8774  1.6315
  184MOL0     H24799   7.460   5.810   0.306 -0.5635 -1.4779  2.1543
  184MOL0     H24800   7.393   5.874   0.070 -0.0267 -0.2319 -0.2090
  184MOL0     H24801   7.483   5.967  -0.119 -0.1324 -3.2214  1.6299
  184MOL0     H24802   7.910   6.411  -0.150  1.1453  2.4954 -0.4431
  184MOL0     H24803   8.038   6.511  -0.322 -1.2280 -1.3868  1.4185
  184MOL0     H24804   7.865   6.491  -0.699 -1.9698  0.3483  2.9137
  184MOL0     H24805   7.973   6.630  -0.747  2.6022  0.1600  1.4554
  184MOL0     H24806   8.041   6.348  -0.667 -1.3495 -0.1119 -1.1370
  184MOL0     H24807   8.087   6.429  -0.810  2.5643 -0.9764  1.3450
  184MOL0     H24808   8.215   6.584  -0.649 -2.0888 -0.0432 -2.0007
  184MOL0     H24809   8.216   6.455  -0.540  2.2149  2.3787  0.1911
  184MOL0     H24810   8.320   6.426  -0.824 -0.0142  0.7826  0.0030
  184MOL0     H24811   8.293   6.304  -0.702  1.5801 -0.1340  3.1325
  184MOL0     H24812   8.476   6.396  -0.563  3.7214  2.0905  0.1595
  184MOL0     H24813   8.461   6.552  -0.637  3.2907  0.4565 -2.0987
  184MOL0     H24814   8.571   6.512  -0.841 -1.3632 -0.7079  0.2776
  184MOL0     H24815   8.672   6.484  -0.702  1.9454  2.6710 -3.3934
  184MOL0     H24816   8.497   6.254  -0.819  1.5210 -5.2937 -1.2503
  184MOL0     H24817   8.637   6.241  -0.707 -1.1713  0.4367  2.0069
  184MOL0     H24818   8.622   6.323  -1.004 -1.3076  0.6199  0.0682
  184MOL0     H24819   8.776   6.279  -0.926 -0.5810  0.8437  3.6955
  184MOL0     H24820   7.702   6.531  -0.572  0.1490  0.0089  0.2651
  184MOL0     H24821   7.555   6.427  -0.379  0.0847  1.8813  1.5197
  184MOL0     H24822   7.597   6.333   0.091 -2.0587  0.5483 -2.0084
  184MOL0     H24823   7.488   6.223   0.296 -0.4786 -0.3784 -0.8732
  184MOL0     H24824   8.298   6.220   1.187  0.0941 -0.0418  1.0093
  184MOL0     H24825   8.214   6.455   1.130 -0.6250  1.3226  0.6802
  184MOL0     H24826   8.294   6.912   1.300 -1.6148 -0.1357  1.3471
  184MOL0     H24827   8.254   7.142   1.195  1.8941 -1.1476  0.4581
  184MOL0     H24828   8.014   7.434   1.162  0.3783 -0.3917  0.0913
  184MOL0     H24829   8.177   7.370   1.145 -0.6170 -0.3643 -1.8839
  184MOL0     H24830   8.135   7.436   1.369  1.2471 -0.8162  0.5854
  184MOL0     H24831   8.140   7.267   1.383  1.8497  0.9947 -0.6527
  184MOL0     H24832   7.883   7.268   1.424  2.0863 -1.2114  1.2944
  184MOL0     H24833   7.874   7.419   1.356  2.6624  3.1936  0.4696
  184MOL0     H24834   7.972   7.541   1.560  0.5114  0.8327  2.1069
  184MOL0     H24835   7.854   7.416   1.604  1.1281 -2.6259  0.6929
  184MOL0     H24836   8.194   7.241   1.783 -0.2869  0.1468  1.1299
  184MOL0     H24837   7.835   7.037   1.156 -0.2400  2.1513  2.5537
  184MOL0     H24838   7.764   6.837   1.190 -0.1154 -0.3629 -1.0046
  184MOL0     H24839   7.869   6.700   1.160 -1.5209  1.2751 -2.8641
  184MOL0     H24840   7.834   6.758   1.333  0.2907  1.0778  0.1679
  185MOL0     O24841   8.469   6.106   6.529 -0.3495 -0.5291 -0.2246
  185MOL0     C24842   8.470   6.219   6.481 -0.3436 -0.3764  0.3610
  185MOL0     O24843   8.583   6.284   6.440 -0.0407 -0.6263 -0.3721
  185MOL0     C24844   8.711   6.235   6.434  0.3564  1.1673  1.3327
  185MOL0     C24845   8.755   6.103   6.473 -0.6726 -0.3400  0.2750
  185MOL0     C24846   8.873   6.054   6.437 -0.2244 -0.1386  0.0467
  185MOL0     C24847   8.959   6.123   6.361  0.1072  0.1834  1.1800
  185MOL0     O24848   9.080   6.067   6.325 -0.5313 -0.0055 -0.0805
  185MOL0     C24849   9.181   6.152   6.271 -0.1277 -0.2674  0.6207
  185MOL0     C24850   9.305   6.067   6.277  0.6240 -0.5857  0.0131
  185MOL0     C24851   9.344   6.066   6.429 -0.5104 -0.6475 -0.9783
  185MOL0     C24852   9.475   5.981   6.458  0.1323  0.2528 -0.1437
  185MOL0     C24853   9.510   5.995   6.609 -0.1867  0.7988  0.5377
  185MOL0     C24854   9.613   6.109   6.645 -0.5237  0.9997  0.0362
  185MOL0     C24855   9.750   6.078   6.581 -0.1947 -1.2903 -0.3709
  185MOL0     C24856   9.854   6.193   6.617 -0.1128 -0.1400 -0.2379
  185MOL0     N24857   9.990   6.157   6.585 -0.5708  0.4462  0.2769
  185MOL0     C24858  10.097   6.241   6.552 -0.7813  0.2890 -0.3202
  185MOL0     C24859  10.203   6.156   6.523  0.5298 -1.0521 -0.0352
  185MOL0     C24860  10.344   6.186   6.482  0.1238  0.0785 -0.6587
  185MOL0     C24861  10.410   6.242   6.613  0.4495  0.5915 -0.5664
  185MOL0     C24862  10.551   6.277   6.585 -0.7553 -0.7186 -0.5771
  185MOL0     C24863  10.646   6.157   6.542  0.1795 -0.0824  0.1976
  185MOL0     O24864  10.666   6.183   6.400 -0.1679  0.7861 -0.2726
  185MOL0     C24865  10.762   6.272   6.355 -0.3346  0.5522  0.2320
  185MOL0     C24866  10.860   6.334   6.445 -0.6530  0.4582 -0.1201
  185MOL0     C24867  10.963   6.409   6.388 -0.0186  0.3503 -0.2689
  185MOL0     C24868  10.962   6.443   6.254 -0.0752  0.0896 -0.0771
  185MOL0     C24869  11.073   6.527   6.183 -0.4738 -0.0961 -0.7627
  185MOL0     O24870  11.058   6.565   6.048 -0.3574 -0.6224 -0.5513
  185MOL0     C24871  11.139   6.660   5.991 -0.4276  0.4237  0.4824
  185MOL0     C24872  11.264   6.712   6.030 -0.3621 -0.1183 -0.4340
  185MOL0     C24873  11.333   6.812   5.954  0.9201  0.0780 -0.2764
  185MOL0     C24874  11.266   6.865   5.839  1.0967 -0.4849  0.0908
  185MOL0     O24875  11.305   6.955   5.752 -0.3894 -0.7751  0.2359
  185MOL0     C24876  11.421   7.040   5.777  0.0821  0.2508 -0.0538
  185MOL0     C24877  11.429   7.130   5.661  1.1265  0.2070  0.8780
  185MOL0     C24878  11.533   7.240   5.680  0.5346 -0.3186  0.2174
  185MOL0     C24879  11.521   7.363   5.593  0.2158  0.8521 -0.0121
  185MOL0     C24880  11.400   7.459   5.615 -0.1706  0.0821 -0.1820
  185MOL0     C24881  11.418   7.593   5.540  0.1429 -0.6762  0.2095
  185MOL0     C24882  11.298   7.680   5.565  0.8102 -0.6444  1.3307
  185MOL0     C24883  11.287   7.813   5.474  0.9838 -0.6929 -0.3928
  185MOL0    Cl24884  11.278   7.781   5.294  0.3447  0.1524 -0.1931
  185MOL0     C24885  11.146   6.807   5.804  1.3431 -0.7553  0.7169
  185MOL0     C24886  11.085   6.703   5.873 -0.3331 -0.5643  0.2023
  185MOL0     O24887  11.170   6.560   6.257 -0.3265  0.1362  0.3334
  185MOL0     C24888  10.862   6.396   6.169 -0.3538 -0.2832  0.4442
  185MOL0     C24889  10.772   6.306   6.221  0.0911  0.2111 -0.9125
  185MOL0     N24890  10.157   6.032   6.538  0.4895  0.9095  0.2280
  185MOL0     N24891  10.034   6.032   6.578 -0.0199  0.7219 -0.6338
  185MOL0     C24892   8.923   6.251   6.312 -0.9755 -0.6349  0.2940
  185MOL0     C24893   8.797   6.298   6.346  0.0463 -1.2435  0.9548
  185MOL0     C24894   8.349   6.288   6.443  0.8931 -0.4450  0.3380
  185MOL0     C24895   8.324   6.365   6.328  0.9893  0.7421 -0.5722
  185MOL0     C24896   8.199   6.413   6.293  0.3053  0.5728 -0.2889
  185MOL0     C24897   8.085   6.391   6.362  0.4988 -1.1836 -0.2893
  185MOL0     O24898   7.954   6.416   6.323 -0.0226  0.5293  0.1702
  185MOL0     C24899   7.932   6.393   6.183 -1.1874  0.0167 -0.7449
  185MOL0     C24900   7.952   6.242   6.155  0.1497 -0.6576  0.4620
  185MOL0     C24901   7.912   6.214   6.007  0.2979 -0.0491  0.8312
  185MOL0     C24902   7.811   6.105   5.977 -0.6196 -0.1804 -0.7226
  185MOL0     C24903   7.888   5.984   5.942 -0.2541 -0.1297  1.0207
  185MOL0     C24904   7.951   5.889   5.912  0.4668 -0.7177 -0.5705
  185MOL0     C24905   8.102   6.308   6.470 -0.6210 -0.1308  0.3262
  185MOL0     C24906   8.226   6.262   6.522 -0.5038 -0.1385 -0.2097
  185MOL0     C24907   8.214   6.197   6.654 -0.5927 -0.7644  0.4983
  185MOL0     H24908   8.688   6.043   6.534 -0.1122 -0.8031  0.4368
  185MOL0     H24909   8.888   5.947   6.448  4.0981  0.4139  1.1515
  185MOL0     H24910   9.152   6.175   6.168 -1.4814  2.3589  1.4941
  185MOL0     H24911   9.206   6.244   6.325  2.0230 -1.3245  1.5370
  185MOL0     H24912   9.384   6.110   6.216  1.0032 -1.6358 -0.2524
  185MOL0     H24913   9.286   5.963   6.247 -0.3358 -0.2377 -0.6273
  185MOL0     H24914   9.266   6.024   6.493 -1.2409 -3.6276 -3.5913
  185MOL0     H24915   9.362   6.169   6.461  2.6110 -1.6466  0.8734
  185MOL0     H24916   9.439   5.879   6.437  0.9194  0.6207 -3.9975
  185MOL0     H24917   9.551   5.999   6.382 -0.0959  1.0208 -0.2011
  185MOL0     H24918   9.419   6.011   6.667 -0.6560 -1.0629  0.3992
  185MOL0     H24919   9.562   5.902   6.636  0.4558  1.2770  0.9497
  185MOL0     H24920   9.579   6.202   6.601  0.2449  0.9211 -0.7529
  185MOL0     H24921   9.625   6.111   6.754  1.7785 -0.4535 -0.1285
  185MOL0     H24922   9.745   6.076   6.472  1.3124  4.6514 -0.9107
  185MOL0     H24923   9.796   5.982   6.602  2.7005 -0.8898 -3.8583
  185MOL0     H24924   9.827   6.287   6.567 -0.4195 -1.3012 -2.3919
  185MOL0     H24925   9.862   6.204   6.725  1.0465 -2.2272 -0.0605
  185MOL0     H24926  10.094   6.349   6.539 -0.5407  0.5038  1.1989
  185MOL0     H24927  10.379   6.090   6.443  0.7816  0.0289  0.0374
  185MOL0     H24928  10.343   6.262   6.404 -1.6492  1.6435  0.7804
  185MOL0     H24929  10.355   6.324   6.660 -0.5507 -1.0498  1.2870
  185MOL0     H24930  10.414   6.157   6.683 -2.6901  0.3376 -0.5497
  185MOL0     H24931  10.606   6.329   6.664 -1.5824 -0.7462  0.0246
  185MOL0     H24932  10.546   6.356   6.510 -0.1289  1.5553  1.6537
  185MOL0     H24933  10.598   6.061   6.564 -3.8758  1.3286 -1.4441
  185MOL0     H24934  10.744   6.154   6.589  2.1082 -1.0991 -3.5389
  185MOL0     H24935  10.860   6.317   6.552  0.7956  2.3056  0.2143
  185MOL0     H24936  11.034   6.450   6.460 -0.4508 -0.7248  0.8072
  185MOL0     H24937  11.311   6.678   6.121  1.5361 -0.6020 -1.5441
  185MOL0     H24938  11.436   6.832   5.978  2.2693 -2.6037 -3.1484
  185MOL0     H24939  11.402   7.088   5.873  0.1300 -2.0092  1.1743
  185MOL0     H24940  11.514   6.982   5.776  1.0925  1.8269 -1.5974
  185MOL0     H24941  11.447   7.072   5.569  0.4653  0.8643  0.3162
  185MOL0     H24942  11.328   7.171   5.648 -0.8195 -4.2508 -0.2712
  185MOL0     H24943  11.535   7.271   5.785  4.4261  0.9846 -0.0617
  185MOL0     H24944  11.632   7.197   5.663  0.6236 -0.3695  0.8194
  185MOL0     H24945  11.526   7.349   5.485  1.4247  0.6247  0.0648
  185MOL0     H24946  11.609   7.422   5.621 -1.6665  2.4059  3.2187
  185MOL0     H24947  11.381   7.468   5.722 -0.3810 -0.4945 -0.1650
  185MOL0     H24948  11.303   7.419   5.585 -0.8365  1.1174  0.5483
  185MOL0     H24949  11.510   7.644   5.570 -1.1927  2.0869 -0.0616
  185MOL0     H24950  11.423   7.560   5.435  0.6623 -1.4776  0.4791
  185MOL0     H24951  11.310   7.725   5.664 -0.8137  1.2775  0.7269
  185MOL0     H24952  11.207   7.619   5.567  0.0691  0.3094 -0.7086
  185MOL0     H24953  11.193   7.858   5.505  0.9292 -1.0423 -0.0407
  185MOL0     H24954  11.373   7.877   5.497  1.1764 -1.8660  2.5647
  185MOL0     H24955  11.087   6.853   5.725 -0.0266 -1.2881  1.4030
  185MOL0     H24956  11.008   6.640   5.831  0.6121 -0.8154 -1.2284
  185MOL0     H24957  10.867   6.420   6.064  2.3783 -0.7373  0.3865
  185MOL0     H24958  10.697   6.259   6.157 -1.1841  2.6213 -1.3210
  185MOL0     H24959   8.987   6.318   6.256 -0.7993 -2.9023 -2.4377
  185MOL0     H24960   8.767   6.397   6.315  1.6973 -1.0248 -0.1051
  185MOL0     H24961   8.404   6.394   6.260 -0.0856  0.6380 -1.9195
  185MOL0     H24962   8.183   6.468   6.201  0.7319  0.0567 -0.6767
  185MOL0     H24963   7.987   6.451   6.108  1.2180 -2.3773 -0.9925
  185MOL0     H24964   7.823   6.406   6.175 -1.2145  1.7640  1.7171
  185MOL0     H24965   7.907   6.179   6.232 -1.3587 -0.7265 -0.4276
  185MOL0     H24966   8.060   6.228   6.153  0.0196 -2.1200  1.5736
  185MOL0     H24967   7.997   6.202   5.940  1.3557 -0.7922  2.2750
  185MOL0     H24968   7.861   6.307   5.979  0.6414 -0.0729  0.0875
  185MOL0     H24969   7.743   6.094   6.062  1.0974 -1.6232  0.5381
  185MOL0     H24970   7.752   6.136   5.890  2.0729  1.9016 -1.9274
  185MOL0     H24971   8.005   5.800   5.886  2.7344 -1.5540  5.4355
  185MOL0     H24972   8.018   6.272   6.528  1.1154 -0.5899  2.7126
  185MOL0     H24973   8.167   6.100   6.631 -5.5981  2.0023 -2.8493
  185MOL0     H24974   8.309   6.186   6.706 -0.9787  1.3357  1.7544
  185MOL0     H24975   8.144   6.250   6.719  2.1271  0.0342  2.9700
  186MOL0     O24976   5.381   9.334   9.059 -1.0893  0.0153 -0.4339
  186MOL0     C24977   5.387   9.399   8.961 -0.4157  0.1441  0.6049
  186MOL0     O24978   5.458   9.366   8.849  0.4531  0.5332 -0.1301
  186MOL0     C24979   5.469   9.451   8.747  0.2046  0.7372  0.8542
  186MOL0     C24980   5.545   9.571   8.755  0.2034 -0.1896 -0.6377
  186MOL0     C24981   5.555   9.643   8.639 -0.1019 -0.8548  0.4103
  186MOL0     C24982   5.516   9.606   8.509 -0.3957  1.0268 -0.1859
  186MOL0     O24983   5.551   9.686   8.410 -0.4378 -0.1592 -0.0061
  186MOL0     C24984   5.477   9.683   8.286 -0.3072 -0.3766 -0.3993
  186MOL0     C24985   5.517   9.804   8.201 -0.6898  0.1318  0.7100
  186MOL0     C24986   5.427   9.815   8.077 -0.6648 -0.1875  0.5911
  186MOL0     C24987   5.489   9.890   7.959 -0.5445 -0.4268 -0.1845
  186MOL0     C24988   5.497   9.800   7.833  0.2699  1.2639 -0.7893
  186MOL0     C24989   5.568   9.877   7.714 -0.5608  0.4259 -0.1105
  186MOL0     C24990   5.556   9.781   7.596 -0.0679 -0.4297 -0.4507
  186MOL0     C24991   5.529   9.864   7.460 -0.6845 -0.4760 -0.1542
  186MOL0     N24992   5.402   9.928   7.456  0.6710  0.2188 -0.4256
  186MOL0     C24993   5.289   9.869   7.388  0.4911 -1.1901 -0.4539
  186MOL0     C24994   5.193   9.961   7.407  0.7959 -0.4943  0.0992
  186MOL0     C24995   5.049   9.947   7.369 -0.8333 -0.6679 -0.1045
  186MOL0     C24996   4.959  10.052   7.438  0.0472 -0.1516  0.0651
  186MOL0     C24997   4.944  10.184   7.346  0.0383  0.3253 -0.5121
  186MOL0     C24998   4.940  10.311   7.426 -0.2093 -0.7145 -0.9105
  186MOL0     O24999   4.984  10.413   7.334 -0.0450 -0.1155  0.4384
  186MOL0     C25000   5.070  10.515   7.368 -0.2995  0.5686  0.5805
  186MOL0     C25001   5.144  10.579   7.268 -0.0491  0.1453  1.3548
  186MOL0     C25002   5.222  10.681   7.302  0.1386  0.3051 -0.5491
  186MOL0     C25003   5.245  10.728   7.433  0.5588 -0.6020  0.5328
  186MOL0     C25004   5.342  10.844   7.467 -0.1561  0.5669 -0.0588
  186MOL0     O25005   5.430  10.891   7.365  0.8625  0.4433 -0.6445
  186MOL0     C25006   5.514  10.998   7.384  0.4319  0.0914 -0.4153
  186MOL0     C25007   5.649  10.989   7.343  0.4371 -0.9136  1.3683
  186MOL0     C25008   5.737  11.094   7.375  0.5060 -0.6013 -0.9348
  186MOL0     C25009   5.687  11.215   7.444 -0.5255 -0.2604  0.1322
  186MOL0     O25010   5.767  11.322   7.476  0.2318  0.3964  0.3361
  186MOL0     C25011   5.870  11.362   7.383 -0.2275 -0.2177  0.0691
  186MOL0     C25012   5.953  11.473   7.453  0.5676  0.4519 -0.2655
  186MOL0     C25013   6.034  11.414   7.574 -0.0805 -0.9737  0.2431
  186MOL0     C25014   6.128  11.528   7.629 -0.2159 -0.7684  0.4749
  186MOL0     C25015   6.084  11.584   7.757  0.6483 -0.5710 -0.4250
  186MOL0     C25016   6.189  11.699   7.793  0.2265  0.2957 -0.1815
  186MOL0     C25017   6.171  11.753   7.939  0.1431  1.9278 -0.2560
  186MOL0     C25018   6.296  11.818   7.993  0.7922 -0.4112 -0.5351
  186MOL0    Cl25019   6.439  11.710   7.998 -0.2776  0.1730  0.0197
  186MOL0     C25020   5.555  11.228   7.471  0.1763  0.0443 -0.0386
  186MOL0     C25021   5.470  11.120   7.445 -0.3060 -0.9299 -0.4734
  186MOL0     O25022   5.333  10.894   7.579  0.5000  0.7569  0.4169
  186MOL0     C25023   5.175  10.664   7.540  0.3130 -0.5021 -0.0782
  186MOL0     C25024   5.096  10.559   7.504  0.0092  0.3340  1.0433
  186MOL0     N25025   5.246  10.083   7.459 -0.6038  0.3913  0.2262
  186MOL0     N25026   5.376  10.055   7.495 -0.3043  0.2553  0.3740
  186MOL0     C25027   5.440   9.489   8.505 -0.7128  0.0206 -1.0318
  186MOL0     C25028   5.425   9.414   8.617  0.7221 -0.5247 -0.7931
  186MOL0     C25029   5.306   9.506   8.953  0.4883 -0.4013  0.6926
  186MOL0     C25030   5.210   9.502   8.848  0.9018  0.0622  0.9616
  186MOL0     C25031   5.126   9.613   8.819  0.6875 -0.8531  0.3267
  186MOL0     C25032   5.158   9.731   8.894 -0.3230  0.1287 -1.2348
  186MOL0     O25033   5.100   9.852   8.896 -0.1481  0.5851  0.0764
  186MOL0     C25034   4.996   9.881   8.797 -0.4358  0.1082 -1.4483
  186MOL0     C25035   4.928  10.016   8.807  0.1799  0.1888  0.3050
  186MOL0     C25036   4.872  10.034   8.952 -1.0374  0.3754  0.3516
  186MOL0     C25037   4.756  10.133   8.960 -0.5639 -0.2421 -0.6476
  186MOL0     C25038   4.625  10.098   8.912  0.3162 -0.3343 -0.0349
  186MOL0     C25039   4.514  10.079   8.868 -0.4178  0.5548 -0.0670
  186MOL0     C25040   5.258   9.736   8.998  0.1138 -0.2624  0.7210
  186MOL0     C25041   5.324   9.621   9.029  0.8759  0.0431  0.2694
  186MOL0     C25042   5.440   9.615   9.132 -0.1404 -0.8590  0.6805
  186MOL0     H25043   5.589   9.602   8.849 -1.3728  3.1726 -0.8577
  186MOL0     H25044   5.629   9.722   8.639  0.4044 -1.3199  1.1625
  186MOL0     H25045   5.491   9.592   8.226 -0.4285 -1.3882  1.0541
  186MOL0     H25046   5.371   9.686   8.312 -0.1407  2.6090  0.2615
  186MOL0     H25047   5.619   9.778   8.171 -1.8507 -3.0556 -1.0517
  186MOL0     H25048   5.508   9.902   8.247 -1.2447 -0.8962  2.8960
  186MOL0     H25049   5.342   9.876   8.108 -0.6275 -1.0292  2.4699
  186MOL0     H25050   5.370   9.724   8.053 -2.6775  0.7864  1.4452
  186MOL0     H25051   5.432   9.977   7.925  1.7676  0.1800 -2.8875
  186MOL0     H25052   5.588   9.931   7.980 -0.2583  0.2465 -2.5629
  186MOL0     H25053   5.548   9.707   7.860 -1.2117  0.2422 -1.3325
  186MOL0     H25054   5.398   9.773   7.795  1.0159 -3.0389 -0.2687
  186MOL0     H25055   5.521   9.973   7.692  0.3702  0.6911 -1.0109
  186MOL0     H25056   5.668   9.890   7.756  0.2471  1.1505 -2.1091
  186MOL0     H25057   5.477   9.705   7.598  1.5199 -2.3569 -3.1816
  186MOL0     H25058   5.648   9.722   7.582  1.5430  0.5386  4.0879
  186MOL0     H25059   5.596   9.950   7.463 -1.3864  0.1131 -0.8224
  186MOL0     H25060   5.541   9.809   7.367 -0.7069 -1.8147  0.6142
  186MOL0     H25061   5.295   9.768   7.350 -2.0377 -2.5771  2.4075
  186MOL0     H25062   5.046   9.967   7.262  0.4465  2.3178  0.3281
  186MOL0     H25063   5.014   9.843   7.373 -2.6869 -0.0780 -0.0706
  186MOL0     H25064   4.856  10.018   7.447  0.0841 -0.5728 -0.9677
  186MOL0     H25065   4.999  10.073   7.537  2.7395  0.1381 -0.9970
  186MOL0     H25066   4.852  10.182   7.287 -1.1392  0.0749  1.2436
  186MOL0     H25067   5.038  10.186   7.290  0.7866  0.5074  0.6911
  186MOL0     H25068   5.003  10.297   7.514  1.0364  1.1119 -1.4306
  186MOL0     H25069   4.836  10.329   7.456  0.3488 -1.2915  1.5921
  186MOL0     H25070   5.123  10.548   7.166  1.4733 -0.0177  1.0726
  186MOL0     H25071   5.279  10.730   7.223  3.5045 -1.4157  0.6193
  186MOL0     H25072   5.679  10.904   7.283  0.1013 -0.0580 -0.0442
  186MOL0     H25073   5.842  11.095   7.347  0.2647  1.9621 -2.0054
  186MOL0     H25074   5.940  11.284   7.351 -0.6137 -0.0211 -1.3082
  186MOL0     H25075   5.833  11.399   7.287  0.2714  0.6421  0.1992
  186MOL0     H25076   6.019  11.514   7.375  0.0791 -1.2698 -1.6460
  186MOL0     H25077   5.882  11.552   7.480 -1.4231 -2.0030  2.1996
  186MOL0     H25078   5.974  11.378   7.658 -4.6439  4.0938 -0.2470
  186MOL0     H25079   6.099  11.340   7.526  3.1620  0.4292  2.1256
  186MOL0     H25080   6.149  11.604   7.553 -1.7003 -1.5581 -0.7873
  186MOL0     H25081   6.230  11.492   7.649  0.8149  1.8928  0.4634
  186MOL0     H25082   6.082  11.502   7.830 -0.2169 -0.0236  0.1817
  186MOL0     H25083   5.987  11.633   7.761  1.9768  2.1402  1.8848
  186MOL0     H25084   6.292  11.667   7.775  0.3597 -0.1107  1.2257
  186MOL0     H25085   6.175  11.779   7.719 -1.5690 -0.3207 -0.5552
  186MOL0     H25086   6.137  11.667   7.996  1.1278  0.1949 -2.1677
  186MOL0     H25087   6.083  11.818   7.948 -2.4198 -1.1252 -1.5958
  186MOL0     H25088   6.314  11.911   7.939 -2.1778  0.9565  0.6094
  186MOL0     H25089   6.281  11.838   8.100 -0.9399 -2.6938 -0.2645
  186MOL0     H25090   5.515  11.318   7.515 -0.8769 -0.4701  0.0949
  186MOL0     H25091   5.366  11.140   7.467 -0.3772 -2.6174  0.8752
  186MOL0     H25092   5.178  10.688   7.645  1.7324 -1.0636  0.0410
  186MOL0     H25093   5.035  10.502   7.573 -0.2252  0.5619  1.0250
  186MOL0     H25094   5.404   9.446   8.412 -1.6307 -0.5712 -0.4111
  186MOL0     H25095   5.373   9.319   8.627  1.1567 -0.6677  0.2356
  186MOL0     H25096   5.196   9.410   8.793 -0.8723  2.1541 -2.4364
  186MOL0     H25097   5.053   9.612   8.739 -0.7724 -1.2865  1.6180
  186MOL0     H25098   4.920   9.802   8.807  0.5509 -0.6310  0.7934
  186MOL0     H25099   5.046   9.869   8.701  3.2238  1.8612  0.0675
  186MOL0     H25100   4.853  10.020   8.728 -2.8819 -2.8884  2.7580
  186MOL0     H25101   5.006  10.090   8.787  0.4765 -0.0585  0.5303
  186MOL0     H25102   4.949  10.060   9.025 -0.9084 -2.2243  1.2664
  186MOL0     H25103   4.837   9.934   8.982 -3.1070  1.5291  2.0753
  186MOL0     H25104   4.744  10.146   9.068  1.3165 -1.1665 -0.2800
  186MOL0     H25105   4.787  10.231   8.920 -3.4747  2.3879  2.8783
  186MOL0     H25106   4.439  10.038   8.804  0.7109 -0.8787 -0.5379
  186MOL0     H25107   5.285   9.817   9.064  3.0189 -0.6734  0.1823
  186MOL0     H25108   5.402   9.549   9.210 -3.6437 -0.5798 -0.6378
  186MOL0     H25109   5.530   9.569   9.090 -1.0495 -0.4889 -1.8517
  186MOL0     H25110   5.473   9.715   9.164  1.3325 -1.5717  1.5178
  187MOL0     O25111   2.559   2.916   1.321  0.5807 -0.0999 -0.2909
  187MOL0     C25112   2.525   3.021   1.378  0.2440  0.2169 -0.7509
  187MOL0     O25113   2.586   3.136   1.366 -0.4038  0.2710 -0.3136
  187MOL0     C25114   2.687   3.159   1.281 -0.0457  0.3173 -0.2596
  187MOL0     C25115   2.668   3.256   1.182  0.6545 -0.5823 -0.3468
  187MOL0     C25116   2.764   3.275   1.085 -0.4588  0.1891  0.9849
  187MOL0     C25117   2.895   3.221   1.101 -0.7696 -0.9673 -0.1284
  187MOL0     O25118   2.996   3.260   1.018 -0.5747 -0.9119  0.0381
  187MOL0     C25119   2.976   3.389   0.942  0.1350  0.1055  0.3402
  187MOL0     C25120   3.108   3.440   0.863 -0.6052  0.5065  0.3456
  187MOL0     C25121   3.190   3.314   0.814 -0.2029 -1.8000 -0.3313
  187MOL0     C25122   3.304   3.261   0.901 -0.0939 -0.8085 -1.1418
  187MOL0     C25123   3.429   3.346   0.909 -0.3732  0.0015 -0.2052
  187MOL0     C25124   3.551   3.279   0.973  0.2672  0.0285 -0.5295
  187MOL0     C25125   3.533   3.253   1.119  0.1327  0.0066  0.6318
  187MOL0     C25126   3.665   3.242   1.194  0.2686 -0.4429 -0.6264
  187MOL0     N25127   3.748   3.133   1.144 -0.5640  0.0170 -0.1661
  187MOL0     C25128   3.868   3.144   1.071  0.5908 -0.6990 -0.2066
  187MOL0     C25129   3.915   3.016   1.057  0.1693 -1.2050  0.0950
  187MOL0     C25130   4.041   2.975   0.988 -0.0876 -0.0633  0.6334
  187MOL0     C25131   4.026   2.869   0.861  0.8208  0.7956  0.8146
  187MOL0     C25132   4.021   2.943   0.728 -0.0498  0.1915  0.0922
  187MOL0     C25133   3.996   2.833   0.614 -0.2112 -0.3767 -0.5078
  187MOL0     O25134   4.112   2.749   0.590  0.5776  0.9131 -0.3783
  187MOL0     C25135   4.231   2.802   0.553 -0.0020  0.6946 -1.6957
  187MOL0     C25136   4.224   2.880   0.442 -0.7440 -0.4724  0.1726
  187MOL0     C25137   4.353   2.932   0.400  0.9915 -0.1236  0.2026
  187MOL0     C25138   4.476   2.885   0.445  0.3419 -0.5091 -0.2911
  187MOL0     C25139   4.601   2.911   0.367  0.7686  0.0499  0.0711
  187MOL0     O25140   4.600   2.983   0.253  0.5007  0.0559  0.7087
  187MOL0     C25141   4.717   3.019   0.183  0.0611 -0.9266 -1.4014
  187MOL0     C25142   4.718   3.021   0.047  0.3164  0.6301  0.0910
  187MOL0     C25143   4.823   3.055  -0.028  0.5880 -0.0872  0.1751
  187MOL0     C25144   4.941   3.085   0.031 -0.9575 -0.3876  0.6180
  187MOL0     O25145   5.043   3.118  -0.055 -0.2205  0.2402  0.3112
  187MOL0     C25146   5.162   3.031  -0.047 -0.7940 -0.1440  0.0484
  187MOL0     C25147   5.265   3.079  -0.160 -0.5094  0.3571  0.1740
  187MOL0     C25148   5.211   3.039  -0.312  0.1180 -0.2775 -0.2068
  187MOL0     C25149   5.294   3.101  -0.420 -0.1024 -0.4829  0.6200
  187MOL0     C25150   5.230   3.074  -0.562  0.3404 -0.2902 -0.0018
  187MOL0     C25151   5.338   3.122  -0.669 -0.2680 -0.2665 -0.7178
  187MOL0     C25152   5.283   3.141  -0.811  0.4013  1.0851  1.2194
  187MOL0     C25153   5.391   3.171  -0.917 -0.6745  0.0980 -0.6409
  187MOL0    Cl25154   5.322   3.172  -1.088  0.0637 -0.1578  0.2816
  187MOL0     C25155   4.949   3.102   0.168 -0.1077  0.5226  0.3906
  187MOL0     C25156   4.838   3.069   0.249  0.7071 -1.2757 -0.2965
  187MOL0     O25157   4.699   2.866   0.423 -0.1516 -0.1053 -0.0706
  187MOL0     C25158   4.480   2.801   0.557  0.1517  0.5564  0.5715
  187MOL0     C25159   4.360   2.760   0.616  0.5118 -0.0706  1.1217
  187MOL0     N25160   3.825   2.931   1.118  0.1944 -0.1201 -0.6007
  187MOL0     N25161   3.719   3.001   1.161  0.1169 -0.9332 -0.2095
  187MOL0     C25162   2.918   3.114   1.196  0.0327 -0.4021  0.2984
  187MOL0     C25163   2.812   3.083   1.282  0.7765 -0.1812 -0.8890
  187MOL0     C25164   2.410   3.022   1.467  0.0724  0.2268  0.3705
  187MOL0     C25165   2.385   2.911   1.554 -0.0391 -0.1911  0.3688
  187MOL0     C25166   2.260   2.892   1.629 -0.0427  0.0880 -0.6008
  187MOL0     C25167   2.162   2.993   1.627  0.3608  0.3846  0.0876
  187MOL0     O25168   2.045   2.971   1.699 -0.9593  0.4476 -0.5215
  187MOL0     C25169   1.992   3.093   1.738  0.3851  0.6456 -0.6812
  187MOL0     C25170   1.902   3.073   1.866  0.2136 -0.1707  0.2216
  187MOL0     C25171   1.760   3.021   1.852  0.2542  0.9203 -0.3252
  187MOL0     C25172   1.743   2.893   1.773 -0.1642  0.2547  0.3403
  187MOL0     C25173   1.600   2.850   1.762  0.9282  0.3705  0.7293
  187MOL0     C25174   1.495   2.785   1.753 -0.3374 -0.8092 -0.1972
  187MOL0     C25175   2.181   3.104   1.536  0.2931  0.1972  1.1157
  187MOL0     C25176   2.299   3.116   1.454  0.5086  0.0559  0.4132
  187MOL0     C25177   2.292   3.211   1.348  0.6003 -0.7036  0.6462
  187MOL0     H25178   2.570   3.303   1.182  0.0546 -1.6575  1.9360
  187MOL0     H25179   2.734   3.342   1.005 -0.4692  1.5687  2.1048
  187MOL0     H25180   2.891   3.374   0.875 -0.4090  1.9385  0.5796
  187MOL0     H25181   2.952   3.472   1.009 -4.4563  0.9635 -1.9887
  187MOL0     H25182   3.161   3.513   0.925 -0.9656  1.4553 -0.4341
  187MOL0     H25183   3.089   3.510   0.781  1.0527  0.1400 -0.3782
  187MOL0     H25184   3.239   3.343   0.721  1.8432  1.3615  1.5050
  187MOL0     H25185   3.118   3.237   0.786 -1.3678 -1.2500  1.0078
  187MOL0     H25186   3.268   3.253   1.004 -4.8398 -3.3556 -2.6808
  187MOL0     H25187   3.328   3.158   0.873  1.3449 -1.3094  1.5538
  187MOL0     H25188   3.449   3.373   0.805  0.7284 -0.8667 -0.2423
  187MOL0     H25189   3.399   3.438   0.960 -1.5321 -2.3298  3.8000
  187MOL0     H25190   3.566   3.188   0.914 -0.9832 -0.4752 -0.0933
  187MOL0     H25191   3.638   3.338   0.940 -1.5538  1.2700 -3.5166
  187MOL0     H25192   3.470   3.167   1.144  0.9956 -0.1552  2.3651
  187MOL0     H25193   3.478   3.333   1.169  0.7771  1.9393 -1.6076
  187MOL0     H25194   3.713   3.338   1.176 -2.3416  1.3950  1.3939
  187MOL0     H25195   3.663   3.236   1.304  0.7407  0.4864 -0.5571
  187MOL0     H25196   3.916   3.237   1.044  1.7147  0.7401  5.4246
  187MOL0     H25197   4.097   3.057   0.943  2.1065 -0.6322  2.1872
  187MOL0     H25198   4.104   2.931   1.065 -1.0589  1.3608  2.3043
  187MOL0     H25199   4.113   2.803   0.864  2.4656  2.8171  3.2648
  187MOL0     H25200   3.932   2.817   0.879 -1.3446  4.4690  1.2712
  187MOL0     H25201   4.108   3.007   0.711 -1.6657  2.7387  0.8392
  187MOL0     H25202   3.938   3.015   0.727 -2.4030 -2.3455  0.6288
  187MOL0     H25203   3.971   2.877   0.517  2.4955  1.5676 -0.4435
  187MOL0     H25204   3.917   2.770   0.656  0.6540  1.0761  3.7974
  187MOL0     H25205   4.144   2.919   0.380  1.4138 -1.5636 -3.5932
  187MOL0     H25206   4.347   3.004   0.318  0.6778  0.4545  0.7239
  187MOL0     H25207   4.641   2.959   0.003  1.5716  1.0948 -3.0229
  187MOL0     H25208   4.825   3.044  -0.136 -2.8023 -2.6445  0.1937
  187MOL0     H25209   5.213   3.035   0.050 -1.0663  0.3663  0.1688
  187MOL0     H25210   5.147   2.926  -0.074  1.9773 -0.8216  0.7871
  187MOL0     H25211   5.276   3.187  -0.162 -0.8112  0.3962  0.5809
  187MOL0     H25212   5.360   3.029  -0.137 -0.0890  1.0994  0.0825
  187MOL0     H25213   5.207   2.932  -0.334 -3.1841 -0.1026 -0.9267
  187MOL0     H25214   5.108   3.077  -0.313  0.1823 -0.0898 -2.2472
  187MOL0     H25215   5.397   3.066  -0.424 -0.6497 -2.2675  1.1021
  187MOL0     H25216   5.307   3.207  -0.401 -1.7167 -0.2593  0.6558
  187MOL0     H25217   5.136   3.130  -0.565 -0.5905 -1.7939  0.2013
  187MOL0     H25218   5.217   2.966  -0.571 -2.8300 -0.0918  0.9240
  187MOL0     H25219   5.375   3.218  -0.634 -0.7711 -1.3606  3.4790
  187MOL0     H25220   5.422   3.052  -0.679 -0.8635 -0.7980 -2.3610
  187MOL0     H25221   5.213   3.225  -0.812  1.4310  1.9676  1.5468
  187MOL0     H25222   5.214   3.059  -0.833  1.2290  0.6650  0.0776
  187MOL0     H25223   5.435   3.269  -0.896  0.7088 -1.1216  2.8310
  187MOL0     H25224   5.471   3.096  -0.918 -1.2649 -0.5423 -0.4457
  187MOL0     H25225   5.025   3.149   0.229 -0.8153  2.3300 -0.0401
  187MOL0     H25226   4.837   3.087   0.356  0.0211  0.1843 -0.5193
  187MOL0     H25227   4.566   2.745   0.591 -2.3261 -2.6539  2.0616
  187MOL0     H25228   4.358   2.682   0.692 -3.3489 -0.1309  1.1779
  187MOL0     H25229   3.016   3.068   1.202  0.3370  0.0937 -0.6040
  187MOL0     H25230   2.801   3.004   1.355 -1.0991 -0.7030 -1.6613
  187MOL0     H25231   2.454   2.829   1.542 -0.8831 -0.5283 -3.4932
  187MOL0     H25232   2.266   2.814   1.704 -1.4889  2.6021  2.2949
  187MOL0     H25233   1.935   3.140   1.657 -0.3283  1.8815  0.5139
  187MOL0     H25234   2.075   3.158   1.766  0.7340 -0.2859  0.4884
  187MOL0     H25235   1.881   3.165   1.920 -2.3262 -0.0698 -0.7958
  187MOL0     H25236   1.958   3.015   1.940  0.3047 -2.7816 -1.7376
  187MOL0     H25237   1.693   3.090   1.801 -1.1486 -1.0261 -1.2621
  187MOL0     H25238   1.705   2.991   1.942 -0.3737 -2.5568 -1.6914
  187MOL0     H25239   1.786   2.890   1.672 -0.5176  0.9380  0.1627
  187MOL0     H25240   1.793   2.811   1.825 -0.7787 -0.6618 -0.4780
  187MOL0     H25241   1.408   2.724   1.753 -0.8991 -0.0210 -0.0229
  187MOL0     H25242   2.109   3.184   1.526  0.2675  0.0887  0.3621
  187MOL0     H25243   2.368   3.288   1.358 -1.5069  1.7525 -0.8949
  187MOL0     H25244   2.310   3.157   1.254 -1.5206 -1.0460  0.3799
  187MOL0     H25245   2.197   3.265   1.340  1.7556  1.4815  0.9943
  188MOL0     O25246   4.080   6.535   8.713 -0.0295  0.2681 -0.5149
  188MOL0     C25247   4.065   6.608   8.614  0.2135  0.1941 -0.1460
  188MOL0     O25248   4.141   6.710   8.587  0.0681 -0.2974  0.5989
  188MOL0     C25249   4.232   6.757   8.674  0.9361  0.3954 -0.0047
  188MOL0     C25250   4.366   6.759   8.647  0.3717  0.5367  1.1291
  188MOL0     C25251   4.454   6.795   8.744  0.1099 -0.5162 -0.4832
  188MOL0     C25252   4.414   6.845   8.874  0.3532  0.3886  0.8751
  188MOL0     O25253   4.504   6.880   8.974  0.4129 -0.2298 -0.1517
  188MOL0     C25254   4.638   6.911   8.927  0.5478 -0.4515  0.1949
  188MOL0     C25255   4.711   6.988   9.046 -0.1643 -0.3605  0.6170
  188MOL0     C25256   4.695   7.140   9.065  0.2347  0.2734  0.9360
  188MOL0     C25257   4.752   7.226   8.952 -0.2957  0.3870 -1.0831
  188MOL0     C25258   4.716   7.374   8.977  0.5965 -1.2130 -0.1347
  188MOL0     C25259   4.816   7.464   8.903 -0.0004  0.9408  0.0670
  188MOL0     C25260   4.836   7.416   8.760 -0.0493 -0.8028  0.0314
  188MOL0     C25261   4.906   7.518   8.669  0.1539  0.5304 -1.3539
  188MOL0     N25262   4.814   7.595   8.582 -0.5547  1.0419  0.1458
  188MOL0     C25263   4.717   7.679   8.621 -0.1577  0.7614 -0.3508
  188MOL0     C25264   4.653   7.696   8.498  1.1941 -0.6288 -0.0437
  188MOL0     C25265   4.513   7.753   8.486 -0.5716  0.2557  0.5021
  188MOL0     C25266   4.445   7.769   8.630 -0.6273  0.7796 -0.2158
  188MOL0     C25267   4.296   7.801   8.636  0.8008 -0.4781 -0.7230
  188MOL0     C25268   4.205   7.717   8.548 -0.6588 -0.6059  0.8371
  188MOL0     O25269   4.063   7.749   8.549 -0.3338 -0.6971 -0.1260
  188MOL0     C25270   4.026   7.861   8.482 -0.8940 -0.0567  0.5823
  188MOL0     C25271   3.908   7.915   8.523 -0.2981 -0.2276  0.6318
  188MOL0     C25272   3.852   8.028   8.454  0.7032  0.5496  0.6798
  188MOL0     C25273   3.897   8.061   8.324 -0.7549  0.7202 -0.1352
  188MOL0     C25274   3.839   8.171   8.238  0.0391  0.2068  0.1293
  188MOL0     O25275   3.916   8.229   8.136 -0.0597 -0.0276  0.0809
  188MOL0     C25276   3.857   8.316   8.052  0.8819  1.1440  0.6265
  188MOL0     C25277   3.863   8.448   8.074  0.5218  0.5567  0.1497
  188MOL0     C25278   3.812   8.536   7.972  0.4513  0.0449 -0.5738
  188MOL0     C25279   3.746   8.492   7.856 -0.2525 -0.4710 -0.4305
  188MOL0     O25280   3.713   8.576   7.754 -0.1114  0.0961 -0.0959
  188MOL0     C25281   3.664   8.712   7.801 -0.3155  0.0750  1.2690
  188MOL0     C25282   3.757   8.831   7.782 -0.7432 -0.4505 -0.5530
  188MOL0     C25283   3.748   8.936   7.904  0.0039 -0.2314  0.4199
  188MOL0     C25284   3.620   9.024   7.922  2.0739  0.4154  0.9255
  188MOL0     C25285   3.614   9.115   8.053 -0.0490 -0.3108  0.2418
  188MOL0     C25286   3.684   9.243   8.030 -0.6295  0.0193 -0.3999
  188MOL0     C25287   3.698   9.322   8.163  0.9738  0.4501  0.7585
  188MOL0     C25288   3.777   9.448   8.141 -0.5854 -0.9822 -0.2759
  188MOL0    Cl25289   3.684   9.563   8.047 -0.3700  0.0790 -0.0242
  188MOL0     C25290   3.730   8.357   7.847 -1.3370 -0.2500  0.3727
  188MOL0     C25291   3.793   8.271   7.937 -0.8121  0.4375  0.1883
  188MOL0     O25292   3.722   8.202   8.268  0.9088 -0.1742  0.5811
  188MOL0     C25293   4.026   8.004   8.287  1.0289 -0.2729 -0.7694
  188MOL0     C25294   4.081   7.901   8.361  0.0397 -0.5453  0.1350
  188MOL0     N25295   4.718   7.640   8.396 -0.2401 -0.7547  0.3280
  188MOL0     N25296   4.823   7.584   8.448  0.1782  0.7314  0.8636
  188MOL0     C25297   4.275   6.857   8.896  0.0292  0.4717 -0.3653
  188MOL0     C25298   4.182   6.815   8.796 -0.5916  0.0894 -0.4903
  188MOL0     C25299   3.937   6.590   8.548  0.3995 -0.7282 -0.3913
  188MOL0     C25300   3.923   6.580   8.409 -0.4160  0.3760 -0.4550
  188MOL0     C25301   3.797   6.568   8.348 -0.2398 -0.3860 -0.3690
  188MOL0     C25302   3.683   6.564   8.419 -1.1540 -0.1894 -0.3437
  188MOL0     O25303   3.583   6.545   8.328 -0.4119 -0.7428  1.1209
  188MOL0     C25304   3.472   6.452   8.349 -0.1086  1.1128 -0.3427
  188MOL0     C25305   3.343   6.466   8.261 -0.2047 -0.5990 -1.0808
  188MOL0     C25306   3.237   6.551   8.341 -1.0370  0.3013  0.3483
  188MOL0     C25307   3.138   6.615   8.241  0.4071  0.2502  0.5167
  188MOL0     C25308   3.004   6.646   8.296  0.1245 -0.0767  0.5238
  188MOL0     C25309   2.891   6.681   8.339 -0.3785  0.4998 -0.0125
  188MOL0     C25310   3.680   6.570   8.561 -0.3520  0.3856  0.3604
  188MOL0     C25311   3.811   6.580   8.622  0.6433  0.7017  1.0800
  188MOL0     C25312   3.817   6.568   8.774 -0.0121  0.4281 -0.1574
  188MOL0     H25313   4.396   6.723   8.549  3.5435 -1.7965  2.8048
  188MOL0     H25314   4.561   6.797   8.728  0.1616 -0.9142 -0.2109
  188MOL0     H25315   4.693   6.819   8.908  2.5197  0.8398 -0.7548
  188MOL0     H25316   4.631   6.976   8.839 -2.4488 -1.5995 -0.5222
  188MOL0     H25317   4.816   6.971   9.019  0.1422  2.7495 -0.5638
  188MOL0     H25318   4.707   6.947   9.147  0.8524  0.4434  1.0020
  188MOL0     H25319   4.757   7.158   9.153  1.0993  4.3177 -0.2733
  188MOL0     H25320   4.592   7.162   9.093  0.3682 -0.1981  1.8353
  188MOL0     H25321   4.861   7.219   8.941  0.1601  4.1199 -0.3230
  188MOL0     H25322   4.700   7.186   8.864 -0.4678 -0.7424 -0.4894
  188MOL0     H25323   4.613   7.389   8.941  0.4494 -1.0650  0.3382
  188MOL0     H25324   4.731   7.398   9.082  2.7879 -0.8586 -0.4825
  188MOL0     H25325   4.775   7.565   8.897  1.2494  1.3834 -1.9578
  188MOL0     H25326   4.914   7.466   8.951  1.0487  1.6890 -1.9675
  188MOL0     H25327   4.739   7.390   8.718  0.6646 -0.0239 -2.2774
  188MOL0     H25328   4.898   7.326   8.762  1.9151  0.4336  3.4720
  188MOL0     H25329   4.963   7.585   8.734 -1.7394  0.0292  0.9880
  188MOL0     H25330   4.960   7.452   8.601 -1.4081  1.2361 -3.3532
  188MOL0     H25331   4.704   7.704   8.726  1.6408  0.3289  0.0075
  188MOL0     H25332   4.523   7.854   8.445  0.6205 -0.5024 -1.1951
  188MOL0     H25333   4.451   7.695   8.418 -0.8941  0.1222  0.9046
  188MOL0     H25334   4.455   7.672   8.680 -2.2551  1.3718  1.3657
  188MOL0     H25335   4.498   7.845   8.686 -3.3680  2.5645  0.1608
  188MOL0     H25336   4.282   7.905   8.606  0.2087 -0.3683 -0.0901
  188MOL0     H25337   4.250   7.778   8.732  1.8907 -0.7243 -0.2387
  188MOL0     H25338   4.211   7.614   8.582 -1.2271 -0.0222  2.8610
  188MOL0     H25339   4.233   7.720   8.443 -3.5443 -2.4559 -0.1261
  188MOL0     H25340   3.881   7.874   8.620 -0.2251  1.2936  1.3310
  188MOL0     H25341   3.765   8.081   8.492 -1.3282 -0.4185 -2.2761
  188MOL0     H25342   3.914   8.495   8.158  2.1458  1.2239 -1.1348
  188MOL0     H25343   3.820   8.640   8.002 -1.0069  0.0834 -0.2096
  188MOL0     H25344   3.571   8.739   7.750 -0.7720 -0.9745  1.5121
  188MOL0     H25345   3.627   8.702   7.904 -3.0886 -0.1171  0.3586
  188MOL0     H25346   3.854   8.780   7.786 -1.5586 -2.0371  2.5020
  188MOL0     H25347   3.750   8.882   7.686  3.8552 -0.4666 -1.1205
  188MOL0     H25348   3.764   8.883   7.998 -0.9988  0.6171  1.1014
  188MOL0     H25349   3.825   9.012   7.888  3.9876 -3.8976  0.1903
  188MOL0     H25350   3.536   8.954   7.930  2.8971 -0.9219 -1.4230
  188MOL0     H25351   3.590   9.075   7.830 -0.4340 -0.1659  1.3528
  188MOL0     H25352   3.660   9.055   8.132  1.7706 -0.4158 -0.8496
  188MOL0     H25353   3.517   9.138   8.098  0.3551  1.8042  0.1314
  188MOL0     H25354   3.774   9.221   7.972 -0.3580 -1.3511  0.4918
  188MOL0     H25355   3.606   9.294   7.973  0.1758  0.4633 -1.1179
  188MOL0     H25356   3.755   9.256   8.229 -0.6044  0.0819  1.7928
  188MOL0     H25357   3.608   9.345   8.219  0.4920 -1.7384  0.9694
  188MOL0     H25358   3.826   9.480   8.234 -1.5680 -1.6974  0.5048
  188MOL0     H25359   3.858   9.414   8.076  0.6451 -3.3140  2.2348
  188MOL0     H25360   3.708   8.302   7.756 -1.3965 -2.4566  1.6498
  188MOL0     H25361   3.806   8.165   7.917  0.0246  0.0014  2.7169
  188MOL0     H25362   4.086   8.042   8.205  2.5059 -0.6173  0.1211
  188MOL0     H25363   4.168   7.854   8.317  0.2253  1.8424 -2.3472
  188MOL0     H25364   4.237   6.890   8.992  1.1878  0.7010  0.0295
  188MOL0     H25365   4.079   6.806   8.827 -0.2108  1.3228  1.2319
  188MOL0     H25366   4.014   6.564   8.351  0.9382 -0.3562  1.7657
  188MOL0     H25367   3.790   6.564   8.240  1.7352  1.4034 -0.6353
  188MOL0     H25368   3.441   6.435   8.452  0.9331 -1.7841 -0.4230
  188MOL0     H25369   3.499   6.353   8.313 -4.3865 -0.8373  1.1900
  188MOL0     H25370   3.305   6.365   8.244 -3.5865  0.7379 -2.3746
  188MOL0     H25371   3.367   6.506   8.162  1.6846  0.7272 -0.1402
  188MOL0     H25372   3.280   6.642   8.384 -5.6219  3.4037 -0.9012
  188MOL0     H25373   3.188   6.492   8.419 -0.4239  1.5481  1.7284
  188MOL0     H25374   3.188   6.692   8.182  2.8519 -1.1433  0.6221
  188MOL0     H25375   3.120   6.537   8.166 -2.8239  2.5222 -1.3378
  188MOL0     H25376   2.789   6.697   8.367 -0.5657 -1.7752  0.8494
  188MOL0     H25377   3.584   6.557   8.611  0.4661 -1.4904  1.5476
  188MOL0     H25378   3.891   6.634   8.820  0.1232  1.1234 -1.3282
  188MOL0     H25379   3.723   6.605   8.817 -0.4389  0.2447 -0.9071
  188MOL0     H25380   3.831   6.464   8.807 -1.1637  0.1569 -0.4686
  189MOL0     O25381  10.487   2.448   0.332  0.1574  0.0137  0.2979
  189MOL0     C25382  10.587   2.485   0.273  0.1978  0.6006 -0.9080
  189MOL0     O25383  10.596   2.589   0.188 -0.0285  0.5033  0.1748
  189MOL0     C25384  10.485   2.634   0.118  0.5938  0.0764  1.6683
  189MOL0     C25385  10.412   2.738   0.159  1.1447 -1.0774 -0.1307
  189MOL0     C25386  10.288   2.776   0.097 -0.1648  0.0399 -0.1854
  189MOL0     C25387  10.248   2.717  -0.025  0.4937 -0.0573 -0.0088
  189MOL0     O25388  10.135   2.767  -0.091  0.4342 -1.2331  0.4618
  189MOL0     C25389  10.116   2.723  -0.228 -0.0993  0.9619  1.0874
  189MOL0     C25390  10.026   2.810  -0.328  0.8127  0.5125 -0.9373
  189MOL0     C25391   9.867   2.791  -0.278 -0.5416 -0.2139  0.2044
  189MOL0     C25392   9.776   2.867  -0.378 -0.5582 -0.4863 -0.3392
  189MOL0     C25393   9.638   2.818  -0.369 -0.5111  1.0406 -0.2208
  189MOL0     C25394   9.573   2.823  -0.230  0.4319  0.4980 -0.4472
  189MOL0     C25395   9.429   2.790  -0.220  0.3385 -0.5027  0.1427
  189MOL0     C25396   9.396   2.653  -0.271  0.4877 -0.7878  0.1407
  189MOL0     N25397   9.250   2.631  -0.271 -0.1061  0.0424  0.4543
  189MOL0     C25398   9.179   2.552  -0.361 -0.4284  0.9793 -0.5006
  189MOL0     C25399   9.062   2.516  -0.300  1.1902  0.8729 -0.3558
  189MOL0     C25400   8.960   2.415  -0.351 -1.3774 -0.6986 -0.1506
  189MOL0     C25401   8.822   2.472  -0.364  0.3550 -0.7692  0.1161
  189MOL0     C25402   8.713   2.382  -0.315  0.2085  0.0578  0.3840
  189MOL0     C25403   8.708   2.248  -0.406  0.2214  0.6128 -0.1244
  189MOL0     O25404   8.591   2.166  -0.374  0.3020  0.3969 -0.4063
  189MOL0     C25405   8.588   2.034  -0.382 -0.0872  1.5374  0.3158
  189MOL0     C25406   8.686   1.961  -0.448  0.3378  0.1490 -0.5461
  189MOL0     C25407   8.679   1.819  -0.449  0.3096  0.4959 -0.3456
  189MOL0     C25408   8.586   1.753  -0.372  0.1315  0.3000  0.0423
  189MOL0     C25409   8.585   1.606  -0.357 -0.3641 -0.0426  0.4559
  189MOL0     O25410   8.680   1.534  -0.428  0.2592  0.7050 -0.1071
  189MOL0     C25411   8.685   1.406  -0.412 -0.4019  1.0570  0.3450
  189MOL0     C25412   8.768   1.339  -0.320 -1.2066 -0.6873 -0.0822
  189MOL0     C25413   8.771   1.196  -0.310 -0.3769  0.3097  0.6488
  189MOL0     C25414   8.691   1.124  -0.403 -0.2931  0.6000 -0.4771
  189MOL0     O25415   8.707   0.987  -0.394  0.2495 -0.6303 -0.0040
  189MOL0     C25416   8.590   0.916  -0.361 -0.1986 -0.2425 -0.0124
  189MOL0     C25417   8.607   0.764  -0.389  0.5337 -1.2317  0.6465
  189MOL0     C25418   8.615   0.723  -0.536  0.0740 -0.1286 -0.1259
  189MOL0     C25419   8.610   0.572  -0.542  0.5526  0.3210  1.2254
  189MOL0     C25420   8.607   0.513  -0.689 -0.2293 -0.1431  0.5139
  189MOL0     C25421   8.640   0.367  -0.681 -0.1010 -0.8033  0.4100
  189MOL0     C25422   8.648   0.288  -0.812 -0.9469 -0.2083  0.2411
  189MOL0     C25423   8.750   0.168  -0.807  0.4855  0.2012 -0.1704
  189MOL0    Cl25424   8.788   0.106  -0.972 -0.0571  0.1983 -0.2949
  189MOL0     C25425   8.608   1.185  -0.494  0.1943 -0.5297  0.9571
  189MOL0     C25426   8.609   1.326  -0.498  0.1914  0.2343  0.4093
  189MOL0     O25427   8.498   1.562  -0.283 -0.6300 -0.3452 -0.0202
  189MOL0     C25428   8.485   1.833  -0.306 -0.0906  0.0144 -0.0087
  189MOL0     C25429   8.491   1.967  -0.314 -0.0301 -0.3283 -0.3837
  189MOL0     N25430   9.065   2.552  -0.158 -0.0200 -0.5201 -0.5291
  189MOL0     N25431   9.184   2.621  -0.148  0.6737 -0.2180  0.8306
  189MOL0     C25432  10.322   2.606  -0.069 -0.0777  0.0280  0.8530
  189MOL0     C25433  10.437   2.564   0.001 -0.2875  0.0274  0.6007
  189MOL0     C25434  10.717   2.447   0.335 -0.5736  1.4985 -0.1858
  189MOL0     C25435  10.731   2.445   0.476  0.0459 -0.4811  0.0966
  189MOL0     C25436  10.860   2.422   0.527 -0.1761  0.0979  0.7683
  189MOL0     C25437  10.975   2.399   0.444  0.2654 -0.1404 -0.1007
  189MOL0     O25438  11.085   2.369   0.518 -0.1550 -0.8667 -0.2036
  189MOL0     C25439  11.185   2.284   0.463 -0.8068  1.1461  0.0929
  189MOL0     C25440  11.167   2.142   0.504  0.6049 -0.1786  0.4048
  189MOL0     C25441  11.185   2.102   0.654  0.2203  0.1786 -0.2669
  189MOL0     C25442  11.323   2.051   0.683 -1.0725  0.1108 -0.4492
  189MOL0     C25443  11.434   2.148   0.671 -0.6435 -0.7270  0.3450
  189MOL0     C25444  11.522   2.232   0.673 -0.4217 -0.1366 -0.7801
  189MOL0     C25445  10.965   2.400   0.304 -1.1920  0.0602  0.1080
  189MOL0     C25446  10.835   2.420   0.248 -0.0710 -0.4191 -0.4638
  189MOL0     C25447  10.825   2.400   0.095  1.0247 -0.3823 -0.5508
  189MOL0     H25448  10.445   2.783   0.253  0.8791 -2.7692  0.8087
  189MOL0     H25449  10.238   2.864   0.136 -0.8328 -0.8242  0.9536
  189MOL0     H25450  10.216   2.721  -0.273 -0.6382  0.5756 -0.1406
  189MOL0     H25451  10.073   2.623  -0.232 -1.8485  1.5992  2.3665
  189MOL0     H25452  10.050   2.779  -0.430  1.1857 -0.2533 -0.6254
  189MOL0     H25453  10.048   2.917  -0.328 -2.2262  1.2125 -1.6086
  189MOL0     H25454   9.852   2.832  -0.178  1.0333 -2.0599  1.2761
  189MOL0     H25455   9.836   2.687  -0.264 -2.9614  0.6452  1.8154
  189MOL0     H25456   9.790   2.974  -0.359  0.9488 -0.4845 -1.2577
  189MOL0     H25457   9.815   2.852  -0.479 -1.7326 -0.1886 -0.8522
  189MOL0     H25458   9.578   2.877  -0.439  0.4500 -0.0388 -2.0423
  189MOL0     H25459   9.633   2.715  -0.407 -2.6333  0.8421  0.4286
  189MOL0     H25460   9.636   2.761  -0.165  2.4176 -0.5048 -3.1500
  189MOL0     H25461   9.580   2.931  -0.210 -2.7696  0.3317  2.4807
  189MOL0     H25462   9.374   2.855  -0.288 -0.6319 -1.0716  0.3737
  189MOL0     H25463   9.394   2.793  -0.117 -2.8111 -0.6764 -0.8106
  189MOL0     H25464   9.432   2.641  -0.374 -0.1849  1.6356 -0.4553
  189MOL0     H25465   9.432   2.581  -0.198 -3.2940 -1.7146  1.3268
  189MOL0     H25466   9.211   2.525  -0.461 -1.0298 -1.6898 -0.0351
  189MOL0     H25467   8.988   2.369  -0.446  0.8746  0.2223  0.0070
  189MOL0     H25468   8.951   2.332  -0.280  2.3748 -2.0649 -1.0547
  189MOL0     H25469   8.814   2.568  -0.312  1.5472  0.5159 -1.9119
  189MOL0     H25470   8.804   2.506  -0.467 -0.9455  1.7216  1.0918
  189MOL0     H25471   8.616   2.429  -0.331  0.1031 -0.2050  0.2357
  189MOL0     H25472   8.725   2.342  -0.214  0.9789 -2.6542 -0.6852
  189MOL0     H25473   8.801   2.192  -0.392  0.4828  1.7051  3.8382
  189MOL0     H25474   8.683   2.270  -0.510 -3.2527 -0.4576  0.3685
  189MOL0     H25475   8.769   2.002  -0.505  2.0397 -1.3409  0.7343
  189MOL0     H25476   8.752   1.762  -0.505 -1.0972 -1.5940 -0.1359
  189MOL0     H25477   8.825   1.402  -0.252  0.8526 -0.3384 -2.0413
  189MOL0     H25478   8.837   1.145  -0.242  0.5704 -1.6152 -1.5753
  189MOL0     H25479   8.544   0.935  -0.263  0.6965 -0.0653  0.3820
  189MOL0     H25480   8.509   0.937  -0.432  0.9009  0.9450 -0.9662
  189MOL0     H25481   8.699   0.728  -0.341  2.2602 -0.1219 -1.6466
  189MOL0     H25482   8.523   0.706  -0.349  2.2788 -4.7153 -0.2610
  189MOL0     H25483   8.531   0.762  -0.593 -1.1137  0.9169  2.2012
  189MOL0     H25484   8.712   0.758  -0.570  0.9625 -1.5894  0.7665
  189MOL0     H25485   8.513   0.545  -0.500  0.6480  1.0093  1.9013
  189MOL0     H25486   8.676   0.517  -0.474 -1.6231 -4.5041 -0.2058
  189MOL0     H25487   8.697   0.552  -0.736  1.2502 -1.7503  1.8613
  189MOL0     H25488   8.519   0.542  -0.748  0.9819  0.0170 -1.2782
  189MOL0     H25489   8.734   0.360  -0.626  0.7121  0.0235 -0.8423
  189MOL0     H25490   8.561   0.324  -0.619 -1.1946 -1.8029 -1.5847
  189MOL0     H25491   8.676   0.345  -0.900  1.2459 -1.5790 -0.0185
  189MOL0     H25492   8.545   0.251  -0.813  0.1315 -3.9705  3.1770
  189MOL0     H25493   8.841   0.188  -0.748  0.2455 -0.3588  0.3953
  189MOL0     H25494   8.695   0.093  -0.750 -1.7384  2.6878  1.1853
  189MOL0     H25495   8.550   1.127  -0.565 -1.3668 -0.3148  2.0249
  189MOL0     H25496   8.552   1.388  -0.566  2.7162 -0.4108 -2.5298
  189MOL0     H25497   8.397   1.782  -0.268 -0.5141 -2.2038 -3.4994
  189MOL0     H25498   8.421   2.022  -0.252  3.1031  2.6868  0.8086
  189MOL0     H25499  10.294   2.551  -0.158  1.6587  0.0858  0.2516
  189MOL0     H25500  10.496   2.482  -0.038 -0.0025 -0.5922  2.2716
  189MOL0     H25501  10.649   2.462   0.545 -1.7539 -1.3860 -1.7237
  189MOL0     H25502  10.865   2.431   0.635  1.9594 -1.1934  0.8267
  189MOL0     H25503  11.281   2.320   0.501  0.5137 -0.8166 -1.1962
  189MOL0     H25504  11.189   2.289   0.354 -1.6053 -0.2714 -0.0246
  189MOL0     H25505  11.233   2.072   0.451  0.5133  0.6124 -0.8050
  189MOL0     H25506  11.067   2.112   0.470  1.3429 -1.0838 -1.1190
  189MOL0     H25507  11.117   2.020   0.678 -0.6308 -0.1226 -3.2724
  189MOL0     H25508  11.172   2.190   0.717  2.7878  0.4831 -0.0450
  189MOL0     H25509  11.312   2.019   0.787 -2.1965  2.6852  0.2936
  189MOL0     H25510  11.349   1.961   0.626  0.7483 -1.3148  2.3769
  189MOL0     H25511  11.592   2.314   0.675  0.4567 -0.8642  0.3352
  189MOL0     H25512  11.052   2.374   0.244  0.8287 -0.0704  2.8772
  189MOL0     H25513  10.727   2.398   0.047 -0.3845  4.5704  1.5353
  189MOL0     H25514  10.880   2.477   0.040  1.7918 -2.1999 -2.5023
  189MOL0     H25515  10.866   2.305   0.059 -1.4677 -0.3791 -3.7911
  190MOL0     O25516  11.050   0.332   3.929 -0.5051  0.8634 -0.7080
  190MOL0     C25517  10.967   0.259   3.885  0.1470  0.7427 -0.0336
  190MOL0     O25518  10.936   0.232   3.757 -0.2241 -0.0481 -0.1850
  190MOL0     C25519  11.026   0.267   3.660 -0.5539 -0.6531  0.1428
  190MOL0     C25520  11.052   0.158   3.576  0.3158 -0.4862 -0.3350
  190MOL0     C25521  11.133   0.178   3.459 -0.4487  0.4326 -0.5824
  190MOL0     C25522  11.183   0.303   3.430  0.6603  0.9997 -0.3057
  190MOL0     O25523  11.270   0.336   3.331  0.8625 -0.2395  0.9216
  190MOL0     C25524  11.307   0.234   3.232 -0.0422 -0.6582  0.0142
  190MOL0     C25525  11.405   0.308   3.148  0.6418 -0.0550 -0.7327
  190MOL0     C25526  11.402   0.245   3.009  0.1000  0.6571 -0.1626
  190MOL0     C25527  11.521   0.293   2.928 -0.2307  0.2657  0.8239
  190MOL0     C25528  11.560   0.237   2.786  0.4041 -0.1119  0.1972
  190MOL0     C25529  11.669   0.128   2.766  1.2707 -0.3822 -0.1591
  190MOL0     C25530  11.680   0.082   2.614 -0.5155  0.8000 -0.8307
  190MOL0     C25531  11.811  -0.005   2.612  0.2812  0.4294 -0.6550
  190MOL0     N25532  11.873  -0.027   2.484 -0.2799 -0.9122 -0.1966
  190MOL0     C25533  11.879   0.075   2.384 -0.4641  0.3107 -1.0913
  190MOL0     C25534  11.975   0.045   2.302 -1.1910  0.4882 -0.0031
  190MOL0     C25535  12.051   0.113   2.190  0.8942  0.8270 -0.1124
  190MOL0     C25536  11.951   0.110   2.070  0.5304  0.4940 -0.1475
  190MOL0     C25537  11.851   0.226   2.081  0.0984 -0.1105 -0.2845
  190MOL0     C25538  11.724   0.196   1.991 -0.1859  0.5790  0.1906
  190MOL0     O25539  11.613   0.162   2.076  0.5957 -0.3901 -0.6374
  190MOL0     C25540  11.593   0.034   2.101  0.7112  0.6242  0.8282
  190MOL0     C25541  11.572  -0.055   1.982 -0.7954 -0.0444 -1.5475
  190MOL0     C25542  11.569  -0.189   1.998  1.2909  0.2228 -0.0650
  190MOL0     C25543  11.578  -0.248   2.129 -0.1822 -0.0910  0.4349
  190MOL0     C25544  11.564  -0.395   2.144 -0.2070  0.8261 -1.0833
  190MOL0     O25545  11.614  -0.446   2.253  1.0360 -0.0883  0.3572
  190MOL0     C25546  11.620  -0.578   2.267 -0.8322 -0.6511 -0.0212
  190MOL0     C25547  11.522  -0.640   2.341  0.0497  0.9537 -0.7361
  190MOL0     C25548  11.544  -0.778   2.366  0.0622  0.2231  0.8079
  190MOL0     C25549  11.661  -0.845   2.327 -0.1812 -0.8818 -0.1399
  190MOL0     O25550  11.690  -0.980   2.343 -0.3518  0.4462  0.1442
  190MOL0     C25551  11.575  -1.065   2.337 -1.1551 -0.0061  0.3936
  190MOL0     C25552  11.541  -1.086   2.484 -0.0411 -0.2223 -0.2420
  190MOL0     C25553  11.392  -1.147   2.489 -0.0441 -0.6492 -0.8319
  190MOL0     C25554  11.276  -1.065   2.431 -0.6328  0.3333 -0.0516
  190MOL0     C25555  11.132  -1.137   2.418  0.4942  0.1423  0.0490
  190MOL0     C25556  11.083  -1.201   2.556  0.6793  0.7725  0.1728
  190MOL0     C25557  10.940  -1.246   2.539  0.2373  0.1855  0.0023
  190MOL0     C25558  10.916  -1.357   2.444 -0.2563 -0.0744 -0.9774
  190MOL0    Cl25559  10.960  -1.506   2.504 -0.5155  0.2942 -0.2072
  190MOL0     C25560  11.744  -0.775   2.243 -0.0333 -0.3815 -0.6813
  190MOL0     C25561  11.730  -0.641   2.217 -0.7652 -0.4142  0.7302
  190MOL0     O25562  11.502  -0.470   2.062 -0.8735 -0.0201 -0.1678
  190MOL0     C25563  11.605  -0.173   2.237  0.2219 -0.7745  0.5975
  190MOL0     C25564  11.611  -0.035   2.219 -0.2774 -0.8187 -0.7364
  190MOL0     N25565  12.009  -0.092   2.333 -0.5452  0.3870 -0.7445
  190MOL0     N25566  11.955  -0.133   2.447 -0.2760  0.4723 -0.7874
  190MOL0     C25567  11.159   0.412   3.529  0.1282  0.5878 -0.2574
  190MOL0     C25568  11.077   0.385   3.643 -0.7910 -0.0170 -0.4674
  190MOL0     C25569  10.894   0.179   3.974  0.0503  0.5193 -1.1998
  190MOL0     C25570  10.867   0.045   3.946  0.6654 -0.1999 -0.5333
  190MOL0     C25571  10.786  -0.044   4.015  0.4153  0.7415 -0.1732
  190MOL0     C25572  10.721   0.007   4.129 -0.3667 -0.3572 -0.0678
  190MOL0     O25573  10.627  -0.073   4.185 -0.3095  0.4408  0.2864
  190MOL0     C25574  10.562  -0.041   4.307  0.0001 -0.1203  0.9068
  190MOL0     C25575  10.596  -0.144   4.406  0.4398 -0.8284 -0.1771
  190MOL0     C25576  10.501  -0.268   4.420 -0.1476  0.0132 -0.2085
  190MOL0     C25577  10.509  -0.340   4.285  0.1917  0.5255 -0.0664
  190MOL0     C25578  10.442  -0.470   4.299 -0.2340 -0.2535 -0.1852
  190MOL0     C25579  10.375  -0.572   4.295  0.2241  0.3703  0.5695
  190MOL0     C25580  10.748   0.141   4.166 -0.7496  0.8858 -0.1733
  190MOL0     C25581  10.831   0.224   4.090  0.1097  0.0965  0.9986
  190MOL0     C25582  10.852   0.356   4.145 -0.0631 -0.1963 -0.2054
  190MOL0     H25583  10.996   0.072   3.611 -0.0728 -0.9687 -2.0549
  190MOL0     H25584  11.139   0.089   3.398 -3.4123  1.2166 -2.2261
  190MOL0     H25585  11.346   0.146   3.283 -0.7588 -0.8212  0.2930
  190MOL0     H25586  11.220   0.207   3.171 -0.8282  0.9783  0.3436
  190MOL0     H25587  11.501   0.303   3.199  0.6118  0.6640 -0.5945
  190MOL0     H25588  11.372   0.410   3.124 -2.8561 -1.4531 -2.6832
  190MOL0     H25589  11.317   0.268   2.943  0.2161 -2.5377 -1.6274
  190MOL0     H25590  11.400   0.136   3.021 -0.0275  0.3859 -2.2450
  190MOL0     H25591  11.507   0.400   2.910 -0.4078 -0.1977 -2.6226
  190MOL0     H25592  11.609   0.268   2.987  2.9377  1.5176 -2.9556
  190MOL0     H25593  11.476   0.208   2.722  1.9722  0.0545 -2.0558
  190MOL0     H25594  11.588   0.329   2.734 -2.4852  0.0610 -1.2461
  190MOL0     H25595  11.765   0.149   2.814  1.5163 -0.4396 -0.6073
  190MOL0     H25596  11.626   0.049   2.827 -0.7665 -0.7841 -1.9807
  190MOL0     H25597  11.690   0.175   2.558  2.5646  1.3616  0.4181
  190MOL0     H25598  11.593   0.018   2.596  0.6266 -0.9715 -0.3804
  190MOL0     H25599  11.876   0.042   2.687 -1.8551  2.7464 -0.1120
  190MOL0     H25600  11.782  -0.102   2.654  1.3381  0.4455  0.1691
  190MOL0     H25601  11.834   0.174   2.384  1.3380  1.1594 -1.7779
  190MOL0     H25602  12.087   0.212   2.218  1.3085  0.2963  1.3409
  190MOL0     H25603  12.136   0.052   2.158  0.8829  2.0696 -2.7434
  190MOL0     H25604  12.009   0.122   1.978  2.8683  2.3682  1.4527
  190MOL0     H25605  11.906   0.011   2.070  2.0564 -0.2245  0.3837
  190MOL0     H25606  11.888   0.312   2.024 -3.2504 -0.4416 -3.3211
  190MOL0     H25607  11.822   0.242   2.186  3.1910 -2.6809  1.1346
  190MOL0     H25608  11.742   0.110   1.927 -0.1644  1.2806 -0.7790
  190MOL0     H25609  11.693   0.279   1.926  0.1643  0.7287  0.2100
  190MOL0     H25610  11.578  -0.019   1.880 -0.8199 -1.1963 -1.9655
  190MOL0     H25611  11.556  -0.262   1.919 -0.1643 -2.1946  2.2694
  190MOL0     H25612  11.441  -0.578   2.376  0.2347  1.1727 -0.6924
  190MOL0     H25613  11.461  -0.822   2.420 -0.6479  0.9455  0.3303
  190MOL0     H25614  11.500  -1.026   2.268  1.4100  1.2709 -1.8636
  190MOL0     H25615  11.605  -1.158   2.288 -0.7016  0.8534 -1.0309
  190MOL0     H25616  11.613  -1.151   2.533  0.9263  0.0294 -1.2740
  190MOL0     H25617  11.548  -0.997   2.547  0.7165  0.6234 -1.4744
  190MOL0     H25618  11.396  -1.250   2.451  0.7711 -0.1649 -2.1348
  190MOL0     H25619  11.374  -1.164   2.595  0.8109  0.4059 -0.5035
  190MOL0     H25620  11.294  -1.006   2.341 -1.2433  0.8414  0.1489
  190MOL0     H25621  11.263  -0.998   2.517 -3.0909 -0.0182 -0.0879
  190MOL0     H25622  11.129  -1.204   2.331  0.3032  2.3267 -1.7246
  190MOL0     H25623  11.056  -1.063   2.391  0.7270  0.7365  0.9834
  190MOL0     H25624  11.140  -1.292   2.576 -2.4607 -1.6396 -0.8828
  190MOL0     H25625  11.088  -1.138   2.645  0.8886 -1.3802  1.7641
  190MOL0     H25626  10.894  -1.157   2.496  2.0462  0.5121 -1.4318
  190MOL0     H25627  10.893  -1.271   2.634 -2.1790 -1.6437 -1.5566
  190MOL0     H25628  10.810  -1.355   2.418 -1.2021  0.3263  2.4224
  190MOL0     H25629  10.963  -1.337   2.347  0.6983 -1.8863 -0.9403
  190MOL0     H25630  11.838  -0.818   2.209  1.5124  1.4329  1.0425
  190MOL0     H25631  11.804  -0.601   2.148 -0.4016 -1.5939  0.4089
  190MOL0     H25632  11.618  -0.219   2.335 -1.5329 -0.3722  1.0533
  190MOL0     H25633  11.629   0.032   2.302 -1.0925 -0.2004 -1.0462
  190MOL0     H25634  11.199   0.512   3.510 -2.8755  2.3599  1.9050
  190MOL0     H25635  11.059   0.476   3.699 -0.1211 -0.8693  1.2095
  190MOL0     H25636  10.929   0.020   3.861  2.3908  0.9128  0.3406
  190MOL0     H25637  10.773  -0.146   3.983  2.2769  0.5897 -0.5568
  190MOL0     H25638  10.454  -0.038   4.288  0.4775 -0.6761 -2.5473
  190MOL0     H25639  10.581   0.056   4.354 -0.0866  0.4921 -0.2889
  190MOL0     H25640  10.588  -0.100   4.506 -2.0200  1.2009 -1.1491
  190MOL0     H25641  10.700  -0.176   4.393  0.6595 -0.9592  1.5602
  190MOL0     H25642  10.402  -0.237   4.455  0.4249 -0.1797  1.6660
  190MOL0     H25643  10.544  -0.331   4.498 -2.4798 -0.2834  0.9176
  190MOL0     H25644  10.469  -0.284   4.201 -0.3253 -3.7172 -2.9630
  190MOL0     H25645  10.613  -0.364   4.260 -0.2377 -3.3357  1.1915
  190MOL0     H25646  10.303  -0.652   4.287 -3.6966  3.7429 -1.7726
  190MOL0     H25647  10.704   0.194   4.250 -2.3856  2.7406 -2.0910
  190MOL0     H25648  10.772   0.383   4.215  0.2854 -0.6388  0.3764
  190MOL0     H25649  10.952   0.364   4.189  0.0634  0.5022 -0.6159
  190MOL0     H25650  10.842   0.430   4.066 -1.1068 -0.4066 -0.2805
  191MOL0     O25651   0.728   4.941   7.478  1.0824 -0.1528 -0.0083
  191MOL0     C25652   0.686   5.043   7.424 -0.5990  0.2302 -0.2069
  191MOL0     O25653   0.719   5.080   7.293  0.0947  0.1217  0.8620
  191MOL0     C25654   0.797   4.981   7.224 -0.0734 -0.2533 -0.0224
  191MOL0     C25655   0.932   4.964   7.247 -0.7533 -0.3765  0.0910
  191MOL0     C25656   1.010   4.863   7.196  1.0564 -0.6886 -0.3895
  191MOL0     C25657   0.944   4.786   7.093 -1.1320  0.1340  0.3340
  191MOL0     O25658   1.016   4.694   7.023 -0.7244  1.0215  0.2288
  191MOL0     C25659   1.003   4.562   7.076 -1.0073  0.0233 -1.2310
  191MOL0     C25660   1.104   4.461   7.023  0.5165 -0.0351 -0.7266
  191MOL0     C25661   1.244   4.531   7.030 -0.8886 -0.3013  0.6830
  191MOL0     C25662   1.349   4.420   7.032 -0.2298 -0.5449  0.3094
  191MOL0     C25663   1.493   4.482   7.028 -0.7172  1.0196  0.3663
  191MOL0     C25664   1.539   4.537   6.879  0.0438 -0.5820 -0.0911
  191MOL0     C25665   1.551   4.435   6.767  0.1731  0.3477  0.3875
  191MOL0     C25666   1.658   4.470   6.664 -0.3937 -0.1972  0.2228
  191MOL0     N25667   1.792   4.413   6.689 -0.3551 -0.3063  0.3277
  191MOL0     C25668   1.851   4.363   6.811 -0.1061 -0.7960  0.0775
  191MOL0     C25669   1.966   4.301   6.773 -0.0523  0.1459 -0.3719
  191MOL0     C25670   2.030   4.208   6.874  0.9951 -1.3736  0.5513
  191MOL0     C25671   1.996   4.220   7.023  0.0058  0.2288  0.3669
  191MOL0     C25672   2.037   4.360   7.080  0.1670  0.5897 -0.7994
  191MOL0     C25673   2.114   4.341   7.210  0.4448  0.5834 -0.0315
  191MOL0     O25674   2.051   4.246   7.298 -0.6020 -0.2662  0.6897
  191MOL0     C25675   1.948   4.277   7.385  0.2838 -0.8908  0.1136
  191MOL0     C25676   1.913   4.195   7.488  0.2175  0.4345 -0.5309
  191MOL0     C25677   1.815   4.232   7.581 -0.0744 -0.2094  1.0588
  191MOL0     C25678   1.747   4.356   7.572 -1.3163 -0.1743  0.1908
  191MOL0     C25679   1.651   4.398   7.676 -1.5314 -0.5062  0.3440
  191MOL0     O25680   1.614   4.533   7.673  0.1922 -0.6746 -0.1745
  191MOL0     C25681   1.530   4.571   7.773  0.3364  0.0867 -0.1216
  191MOL0     C25682   1.566   4.678   7.863 -0.1517 -0.1538 -1.3811
  191MOL0     C25683   1.476   4.725   7.965 -0.2487  0.3167  0.7721
  191MOL0     C25684   1.351   4.671   7.980  0.2910 -0.0709  0.6453
  191MOL0     O25685   1.252   4.724   8.063  0.8268 -0.5942 -0.3469
  191MOL0     C25686   1.271   4.856   8.109  0.3173  0.0363 -0.4341
  191MOL0     C25687   1.142   4.933   8.144  0.0582  0.2234 -0.1739
  191MOL0     C25688   1.028   4.851   8.191  0.4310 -1.2980  0.3915
  191MOL0     C25689   0.927   4.933   8.273  0.4092 -0.3876  0.2673
  191MOL0     C25690   0.804   4.839   8.304 -0.0509  0.0865  0.2995
  191MOL0     C25691   0.705   4.914   8.394  1.3421 -0.1622  0.2705
  191MOL0     C25692   0.748   4.912   8.540 -0.0555  0.1304 -0.4315
  191MOL0     C25693   0.642   4.981   8.613  0.6780  0.0913 -0.4506
  191MOL0    Cl25694   0.649   5.154   8.579  0.4607  0.7713 -0.1508
  191MOL0     C25695   1.322   4.558   7.908 -0.6530  0.3135 -0.0551
  191MOL0     C25696   1.402   4.512   7.804  0.6734 -0.0813  0.0470
  191MOL0     O25697   1.626   4.319   7.759  0.4508 -0.7615 -0.1361
  191MOL0     C25698   1.790   4.447   7.476  0.4719  0.4624  0.0979
  191MOL0     C25699   1.880   4.404   7.377 -0.5211  0.0209 -0.0101
  191MOL0     N25700   1.978   4.308   6.639  1.0395  0.4091  0.5799
  191MOL0     N25701   1.887   4.383   6.590 -0.0027 -0.8926 -0.6128
  191MOL0     C25702   0.820   4.811   7.056  0.8175 -0.0749 -0.4133
  191MOL0     C25703   0.747   4.907   7.123 -0.2150  0.7840  0.0663
  191MOL0     C25704   0.587   5.134   7.488 -0.4733  0.8277  0.2225
  191MOL0     C25705   0.589   5.273   7.465  0.6491  0.1991  0.1935
  191MOL0     C25706   0.517   5.363   7.548  0.7071  0.4047  0.6703
  191MOL0     C25707   0.445   5.320   7.658 -0.3678  0.3559 -0.1256
  191MOL0     O25708   0.383   5.404   7.751 -0.4647  0.3461  0.3588
  191MOL0     C25709   0.329   5.526   7.698  0.2498  0.4670  0.1983
  191MOL0     C25710   0.247   5.589   7.816 -0.3843 -0.6867  0.8200
  191MOL0     C25711   0.334   5.596   7.945 -0.6612 -0.1877 -0.9421
  191MOL0     C25712   0.481   5.654   7.924  0.1144 -0.7538 -0.9276
  191MOL0     C25713   0.558   5.665   8.046  0.0440 -0.0769 -0.9637
  191MOL0     C25714   0.626   5.663   8.145 -0.6161 -0.0897 -0.6246
  191MOL0     C25715   0.439   5.187   7.686  0.2411  0.1370 -0.2996
  191MOL0     C25716   0.502   5.084   7.600  0.0569  0.3271 -0.7016
  191MOL0     C25717   0.484   4.934   7.636 -0.5895 -0.6189  0.3387
  191MOL0     H25718   0.974   5.032   7.320  2.3986 -1.2686 -0.7091
  191MOL0     H25719   1.118   4.849   7.198  1.3501  0.2555 -3.5541
  191MOL0     H25720   1.010   4.560   7.185  2.3649 -0.5252 -1.3599
  191MOL0     H25721   0.903   4.527   7.048 -0.7965  0.4108 -2.5441
  191MOL0     H25722   1.079   4.439   6.919  0.5969 -3.0240 -0.1900
  191MOL0     H25723   1.112   4.371   7.084  0.5901  1.4811  1.6188
  191MOL0     H25724   1.258   4.595   7.118 -0.8841  0.4643  0.1319
  191MOL0     H25725   1.254   4.593   6.941 -0.5160 -1.2515  0.0446
  191MOL0     H25726   1.338   4.348   7.114  0.9257  0.4003  1.3155
  191MOL0     H25727   1.333   4.359   6.942  1.7249 -1.7446  0.7138
  191MOL0     H25728   1.506   4.556   7.107 -0.6228  0.8292  0.5284
  191MOL0     H25729   1.559   4.398   7.053 -0.1646  1.7324  1.3130
  191MOL0     H25730   1.467   4.614   6.850 -3.0121 -2.9842  0.5873
  191MOL0     H25731   1.629   4.596   6.897 -0.2959  0.6574 -2.2082
  191MOL0     H25732   1.454   4.435   6.717  0.4668 -1.3791 -0.2403
  191MOL0     H25733   1.572   4.332   6.797 -2.4054 -1.1391 -2.3555
  191MOL0     H25734   1.624   4.419   6.573 -3.5873  1.4539  0.3646
  191MOL0     H25735   1.661   4.579   6.661 -3.4687  0.0675  2.3288
  191MOL0     H25736   1.799   4.377   6.906 -1.0283  0.9028 -0.6308
  191MOL0     H25737   1.992   4.115   6.832 -0.4509 -0.8955  0.7159
  191MOL0     H25738   2.139   4.201   6.870  1.1053 -0.1279 -3.3637
  191MOL0     H25739   1.888   4.215   7.037  0.3330  0.4967  3.7532
  191MOL0     H25740   2.038   4.131   7.070 -0.1781  0.6948  1.4579
  191MOL0     H25741   1.955   4.431   7.083  1.2178  1.8397 -0.8241
  191MOL0     H25742   2.100   4.421   7.015 -1.1840  1.3284 -1.4466
  191MOL0     H25743   2.136   4.435   7.261  1.4969  0.1864  0.2835
  191MOL0     H25744   2.209   4.287   7.198  0.3180 -0.0615  1.5318
  191MOL0     H25745   1.957   4.097   7.503 -0.3395 -0.0453 -1.8573
  191MOL0     H25746   1.789   4.173   7.669  1.9771 -1.9021  0.6060
  191MOL0     H25747   1.658   4.735   7.853  0.0227 -0.3519 -0.9179
  191MOL0     H25748   1.522   4.797   8.032 -0.6672  0.5846  0.7750
  191MOL0     H25749   1.332   4.854   8.200 -0.2074 -2.6812 -0.0741
  191MOL0     H25750   1.314   4.919   8.031 -0.4778 -0.5884 -1.3957
  191MOL0     H25751   1.161   5.015   8.213 -2.4000  0.1686  0.6739
  191MOL0     H25752   1.100   4.975   8.052 -0.8030 -0.6120 -0.1784
  191MOL0     H25753   0.982   4.817   8.097 -2.5466  0.7682  0.9615
  191MOL0     H25754   1.064   4.763   8.245  1.8684 -0.0292  1.5917
  191MOL0     H25755   0.897   5.022   8.217  0.2407 -0.4246  0.2987
  191MOL0     H25756   0.970   4.960   8.370  1.1628 -1.6699  0.3183
  191MOL0     H25757   0.840   4.743   8.343 -0.0876 -1.8608 -3.9145
  191MOL0     H25758   0.756   4.807   8.211  2.0146  0.1949 -0.8571
  191MOL0     H25759   0.697   5.016   8.355 -0.2582 -0.4094 -0.1004
  191MOL0     H25760   0.604   4.879   8.371 -0.3615  4.2436  0.0503
  191MOL0     H25761   0.838   4.968   8.569  1.6587 -1.7695 -1.7775
  191MOL0     H25762   0.743   4.810   8.578  0.9147  0.0333 -0.5264
  191MOL0     H25763   0.543   4.940   8.591  1.9357 -1.9157 -2.9332
  191MOL0     H25764   0.660   4.970   8.720  2.5946 -0.6133 -0.7999
  191MOL0     H25765   1.223   4.517   7.926 -0.3996  0.2691  1.2929
  191MOL0     H25766   1.366   4.427   7.746 -2.7521  0.3602  1.2989
  191MOL0     H25767   1.757   4.550   7.475  0.9496  0.6214 -0.3774
  191MOL0     H25768   1.903   4.473   7.297  2.8835 -0.4039  0.4578
  191MOL0     H25769   0.776   4.747   6.981  0.5572 -2.5154  1.6851
  191MOL0     H25770   0.641   4.929   7.110  0.2532  6.8080  3.0434
  191MOL0     H25771   0.644   5.310   7.379 -0.5463  2.0481  0.1597
  191MOL0     H25772   0.530   5.468   7.523 -1.0384  0.8440  1.4697
  191MOL0     H25773   0.269   5.488   7.614  0.1540 -1.1963  0.9723
  191MOL0     H25774   0.410   5.592   7.667  0.5263  0.5673  1.1063
  191MOL0     H25775   0.149   5.542   7.829 -1.1976  0.6573 -0.2522
  191MOL0     H25776   0.235   5.695   7.791 -1.8433 -1.1639 -0.6467
  191MOL0     H25777   0.348   5.497   7.990 -5.3824 -0.0920  1.4078
  191MOL0     H25778   0.273   5.646   8.021 -3.8178 -5.2082  0.3575
  191MOL0     H25779   0.547   5.591   7.862  0.9305  0.0874 -0.9311
  191MOL0     H25780   0.473   5.750   7.873  0.2054 -0.3125 -0.1296
  191MOL0     H25781   0.693   5.654   8.229  3.2125  0.0240 -3.3712
  191MOL0     H25782   0.387   5.162   7.778  2.8876  0.1575  1.3247
  191MOL0     H25783   0.401   4.918   7.706  0.2064  1.0017  1.7532
  191MOL0     H25784   0.453   4.874   7.551 -0.3079 -1.3355  0.7279
  191MOL0     H25785   0.573   4.908   7.694  0.1612  0.8738 -0.0870
  192MOL0     O25786   6.858   7.580   3.694 -0.4364  0.5062 -0.1823
  192MOL0     C25787   6.778   7.516   3.757 -0.1279  0.7885 -0.2316
  192MOL0     O25788   6.719   7.398   3.714  0.3448  0.4388 -0.4683
  192MOL0     C25789   6.752   7.331   3.597  0.0105 -0.0378 -0.8355
  192MOL0     C25790   6.754   7.384   3.471 -1.0699 -0.7054  0.3212
  192MOL0     C25791   6.758   7.298   3.367 -0.4433  0.8775 -0.1665
  192MOL0     C25792   6.767   7.164   3.376  0.1995  0.3412 -0.8230
  192MOL0     O25793   6.755   7.082   3.270  0.6746 -0.3254 -0.5350
  192MOL0     C25794   6.786   6.945   3.281 -0.2722  0.7330 -0.1562
  192MOL0     C25795   6.830   6.886   3.151  0.0034 -0.3006 -1.6375
  192MOL0     C25796   6.881   6.745   3.157  0.1532  0.9351  0.6650
  192MOL0     C25797   6.920   6.676   3.028 -0.2940  0.4107  0.5312
  192MOL0     C25798   7.005   6.556   3.058  1.1396  0.1138 -0.3121
  192MOL0     C25799   6.917   6.438   3.122  0.4081 -0.1354  0.6467
  192MOL0     C25800   6.991   6.325   3.172  0.2151 -0.0239 -0.3256
  192MOL0     C25801   6.888   6.250   3.268 -0.3407  0.1419  0.2320
  192MOL0     N25802   6.948   6.123   3.294  0.3780  0.8957  0.0333
  192MOL0     C25803   7.056   6.103   3.383 -0.6554  0.0213  0.0276
  192MOL0     C25804   7.123   5.999   3.336  0.1640  0.4223 -0.1023
  192MOL0     C25805   7.265   5.971   3.396  0.1043 -0.5861  0.4218
  192MOL0     C25806   7.301   5.826   3.364 -0.8887 -0.3058 -0.2502
  192MOL0     C25807   7.439   5.786   3.424 -0.0086 -0.0791  0.0729
  192MOL0     C25808   7.556   5.787   3.330  0.4446 -0.7434  0.7568
  192MOL0     O25809   7.666   5.752   3.411 -0.2378  0.4479 -0.1852
  192MOL0     C25810   7.780   5.762   3.336 -0.5263 -0.0721 -0.2799
  192MOL0     C25811   7.900   5.744   3.412 -0.7179  0.7833  0.8877
  192MOL0     C25812   8.020   5.749   3.338 -0.9684  0.3686 -0.5861
  192MOL0     C25813   8.039   5.776   3.201 -0.5086  0.9654  0.7309
  192MOL0     C25814   8.178   5.770   3.148  0.0382 -0.1531  0.7901
  192MOL0     O25815   8.186   5.702   3.028  0.2357  0.0973  0.9649
  192MOL0     C25816   8.304   5.707   2.962  1.0608 -0.4546  0.3780
  192MOL0     C25817   8.369   5.596   2.910  0.5320  0.5005  0.1540
  192MOL0     C25818   8.500   5.610   2.860  0.6111  0.0694 -0.6627
  192MOL0     C25819   8.568   5.728   2.866  0.4174 -0.8863 -0.6525
  192MOL0     O25820   8.697   5.755   2.826  1.0845  0.1732 -0.1182
  192MOL0     C25821   8.795   5.680   2.896  0.6672  0.4371 -0.2641
  192MOL0     C25822   8.928   5.748   2.903 -0.0310  0.2350  0.8798
  192MOL0     C25823   9.037   5.658   2.980  0.7388 -0.4633 -0.4520
  192MOL0     C25824   9.142   5.752   3.037  0.5283 -0.3179  0.5457
  192MOL0     C25825   9.257   5.682   3.091  0.7755 -0.0476 -1.4270
  192MOL0     C25826   9.343   5.758   3.196  0.8459 -0.0573 -0.5521
  192MOL0     C25827   9.419   5.871   3.131  1.0020 -0.2547  0.0644
  192MOL0     C25828   9.546   5.910   3.208 -0.8212 -0.4595 -0.1323
  192MOL0    Cl25829   9.642   6.040   3.129  0.3014  0.3169  0.3344
  192MOL0     C25830   8.494   5.847   2.892  0.1261 -0.4425  0.1256
  192MOL0     C25831   8.362   5.840   2.936 -1.1049  0.8753  0.6346
  192MOL0     O25832   8.272   5.819   3.213  0.6461 -0.3147  0.8416
  192MOL0     C25833   7.923   5.790   3.126 -0.6429  0.7109 -0.0393
  192MOL0     C25834   7.795   5.786   3.189 -0.4376  0.5839 -0.0484
  192MOL0     N25835   7.052   5.940   3.232 -0.1606 -0.3204  0.1302
  192MOL0     N25836   6.945   6.013   3.207 -0.2906 -0.6894 -0.3562
  192MOL0     C25837   6.773   7.109   3.501 -0.0055 -0.3261  0.8213
  192MOL0     C25838   6.764   7.189   3.613  0.0093  0.8255  0.1226
  192MOL0     C25839   6.741   7.547   3.897 -0.4196 -0.4060  0.2600
  192MOL0     C25840   6.737   7.688   3.928 -0.2600  0.0562 -0.0309
  192MOL0     C25841   6.731   7.732   4.060 -0.5240 -0.8076  0.3105
  192MOL0     C25842   6.709   7.647   4.160 -0.7121  0.2284 -0.5831
  192MOL0     O25843   6.707   7.691   4.291  0.2300 -0.8492  0.1554
  192MOL0     C25844   6.703   7.829   4.312 -1.0502 -0.9607 -1.0282
  192MOL0     C25845   6.725   7.847   4.461  0.1406  0.2824 -1.1646
  192MOL0     C25846   6.750   7.999   4.486 -0.2212  0.2894 -0.7427
  192MOL0     C25847   6.903   8.010   4.489  0.2809 -0.0863 -0.2568
  192MOL0     C25848   6.939   8.154   4.495 -0.6584  0.6882 -0.2260
  192MOL0     C25849   6.947   8.264   4.515 -0.2083 -0.3661  0.9682
  192MOL0     C25850   6.711   7.502   4.135 -0.5847  0.0666 -0.0793
  192MOL0     C25851   6.726   7.452   4.004 -0.1033 -1.0229 -1.1579
  192MOL0     C25852   6.730   7.302   3.990 -0.5140 -0.5334 -1.0920
  192MOL0     H25853   6.756   7.491   3.453 -0.1923 -0.8467 -0.4932
  192MOL0     H25854   6.760   7.350   3.272  0.4957  3.0702  0.9863
  192MOL0     H25855   6.868   6.919   3.348 -2.6922 -1.5133  2.1733
  192MOL0     H25856   6.706   6.878   3.315  0.5107 -0.8022 -1.2202
  192MOL0     H25857   6.905   6.951   3.104  0.4666  0.7615  0.4726
  192MOL0     H25858   6.739   6.878   3.092 -1.8671  3.2170  0.4468
  192MOL0     H25859   6.801   6.685   3.202  0.5365 -0.7290 -0.7613
  192MOL0     H25860   6.957   6.736   3.235  0.7760 -2.1997 -0.2009
  192MOL0     H25861   6.831   6.652   2.969  1.2627  0.0285 -1.7877
  192MOL0     H25862   6.979   6.749   2.972 -0.7945  0.4229  0.0135
  192MOL0     H25863   7.049   6.504   2.972 -3.1036 -1.2037 -1.9519
  192MOL0     H25864   7.089   6.593   3.118  0.9491  0.0398  0.0025
  192MOL0     H25865   6.853   6.476   3.202 -3.0088 -2.1118 -0.9037
  192MOL0     H25866   6.843   6.406   3.047  1.2997  0.7187 -0.6504
  192MOL0     H25867   7.077   6.366   3.226 -0.1665  0.6529 -0.2193
  192MOL0     H25868   7.022   6.261   3.088 -0.0040  0.4783 -0.7972
  192MOL0     H25869   6.882   6.292   3.369 -0.1783 -0.2275  0.3974
  192MOL0     H25870   6.789   6.247   3.223 -0.9743 -1.2069  1.6175
  192MOL0     H25871   7.079   6.162   3.471 -3.5458 -0.9558  1.5954
  192MOL0     H25872   7.340   6.045   3.366 -1.3081  0.5100 -0.5793
  192MOL0     H25873   7.246   5.978   3.504  0.0409 -0.4848  0.4044
  192MOL0     H25874   7.230   5.759   3.414  0.8040 -0.2030  2.5428
  192MOL0     H25875   7.303   5.819   3.255  0.1156  1.1314 -0.3566
  192MOL0     H25876   7.425   5.685   3.464 -1.4678  0.6448  1.4906
  192MOL0     H25877   7.457   5.848   3.512 -1.2748 -0.2769  0.4924
  192MOL0     H25878   7.555   5.886   3.284 -1.4339 -0.5564  1.0787
  192MOL0     H25879   7.531   5.718   3.249 -3.0814  2.1523 -0.9382
  192MOL0     H25880   7.905   5.733   3.520  0.1923 -0.2611  0.7562
  192MOL0     H25881   8.105   5.742   3.406 -3.2155 -3.0935  2.2592
  192MOL0     H25882   8.321   5.499   2.918  1.6315 -0.1634 -1.0057
  192MOL0     H25883   8.555   5.526   2.819  0.7028  0.7403 -1.9697
  192MOL0     H25884   8.750   5.670   2.995 -0.7241  2.2417 -0.6748
  192MOL0     H25885   8.804   5.581   2.850  0.8357 -1.3652  3.2923
  192MOL0     H25886   8.964   5.771   2.802 -1.2545 -2.3337 -0.2490
  192MOL0     H25887   8.921   5.841   2.959  0.0400  0.7728  0.0224
  192MOL0     H25888   9.000   5.588   3.055  1.5931 -0.7583 -0.3015
  192MOL0     H25889   9.070   5.596   2.896 -2.0290 -1.0022 -1.2549
  192MOL0     H25890   9.099   5.821   3.111 -1.6632 -0.8103 -0.2219
  192MOL0     H25891   9.168   5.821   2.956 -3.0669  0.2507 -0.2895
  192MOL0     H25892   9.314   5.661   3.000  2.1766 -1.2983 -0.2844
  192MOL0     H25893   9.227   5.585   3.131 -1.4786  1.0733 -0.1656
  192MOL0     H25894   9.284   5.798   3.278  4.0590  1.1495  1.3383
  192MOL0     H25895   9.421   5.697   3.242  0.2384  1.0406  2.0902
  192MOL0     H25896   9.359   5.959   3.106  1.6003  0.1074 -0.0980
  192MOL0     H25897   9.458   5.831   3.038 -1.3197 -4.5697  0.6812
  192MOL0     H25898   9.524   5.958   3.303  0.3725  0.6878 -0.3982
  192MOL0     H25899   9.616   5.829   3.231 -1.2945 -1.3218 -1.5884
  192MOL0     H25900   8.532   5.948   2.881 -0.0642 -0.5694 -2.2315
  192MOL0     H25901   8.304   5.923   2.975 -0.7587  1.5539 -0.2645
  192MOL0     H25902   7.938   5.786   3.018  2.5438 -1.2339  0.3371
  192MOL0     H25903   7.706   5.796   3.128 -0.7559 -2.6402 -0.2865
  192MOL0     H25904   6.795   7.004   3.513  1.6640 -0.1711 -0.5334
  192MOL0     H25905   6.768   7.154   3.715 -3.2095  4.6240  1.8506
  192MOL0     H25906   6.773   7.756   3.851 -3.9610  3.2595  0.7671
  192MOL0     H25907   6.738   7.840   4.073 -0.6865 -1.0055  2.2913
  192MOL0     H25908   6.606   7.869   4.280 -0.2089  1.1088 -1.1451
  192MOL0     H25909   6.785   7.879   4.260 -0.4311 -1.4920 -0.5832
  192MOL0     H25910   6.812   7.791   4.499  0.2786 -0.0412 -1.9529
  192MOL0     H25911   6.631   7.827   4.514 -1.2679  2.4507 -2.6904
  192MOL0     H25912   6.706   8.024   4.583  1.5782 -1.8609  0.7447
  192MOL0     H25913   6.703   8.053   4.404 -1.0726 -1.7815 -1.7097
  192MOL0     H25914   6.921   7.966   4.587  0.2397  1.7106  0.6114
  192MOL0     H25915   6.963   7.964   4.411  2.9145  1.4127  0.7411
  192MOL0     H25916   6.956   8.361   4.558 -1.1447  0.4146 -0.5352
  192MOL0     H25917   6.708   7.439   4.223 -0.3129  1.0005  0.6204
  192MOL0     H25918   6.824   7.269   3.944 -1.1136 -1.2656 -1.8081
  192MOL0     H25919   6.720   7.247   4.084  1.4807  0.3996 -0.2710
  192MOL0     H25920   6.658   7.276   3.913 -2.1803  3.1454 -1.0187
  193MOL0     O25921   9.333   9.652   8.721 -0.6215 -0.3863 -0.0352
  193MOL0     C25922   9.232   9.590   8.685  1.5397 -0.0631 -0.7614
  193MOL0     O25923   9.119   9.641   8.623  0.4807 -1.0621 -0.7825
  193MOL0     C25924   9.078   9.769   8.626 -0.2559 -0.1094  0.3611
  193MOL0     C25925   9.163   9.878   8.641  0.5195  0.1797 -0.1190
  193MOL0     C25926   9.115  10.001   8.639  0.7175  0.2987  0.5205
  193MOL0     C25927   8.981  10.027   8.661  1.0233 -0.3611 -1.1352
  193MOL0     O25928   8.941  10.160   8.666  0.5724  0.7701  0.7114
  193MOL0     C25929   8.830  10.187   8.582 -0.4646  0.2254  0.3896
  193MOL0     C25930   8.834  10.333   8.532  1.0146 -0.7703  0.1084
  193MOL0     C25931   8.791  10.438   8.661 -0.4195  0.6391 -0.3425
  193MOL0     C25932   8.751  10.576   8.600  0.2378 -0.0948  0.1246
  193MOL0     C25933   8.792  10.690   8.693  0.1652 -0.0915 -0.4990
  193MOL0     C25934   8.942  10.719   8.692 -0.6440 -1.3060  0.2804
  193MOL0     C25935   8.977  10.794   8.560  0.5808 -0.1434 -0.0429
  193MOL0     C25936   9.134  10.793   8.534 -0.6543 -0.2859 -0.7089
  193MOL0     N25937   9.166  10.855   8.404  0.1676 -0.6695  0.0534
  193MOL0     C25938   9.173  10.785   8.285  0.5311 -0.3546 -0.3672
  193MOL0     C25939   9.185  10.879   8.190 -0.3237  0.5996  1.0390
  193MOL0     C25940   9.228  10.855   8.053  0.2426 -0.4285 -0.2162
  193MOL0     C25941   9.136  10.757   7.985  0.5030 -0.3786  0.6797
  193MOL0     C25942   9.175  10.692   7.849 -0.7030 -1.2247 -0.8534
  193MOL0     C25943   9.297  10.606   7.861 -1.2406 -0.4343  0.3914
  193MOL0     O25944   9.416  10.686   7.868  0.9357 -0.0350  0.2136
  193MOL0     C25945   9.529  10.612   7.832 -0.1103  0.1855 -0.4260
  193MOL0     C25946   9.537  10.481   7.869  0.6330 -0.2741 -0.7230
  193MOL0     C25947   9.627  10.390   7.820 -1.1412  0.1082  0.0558
  193MOL0     C25948   9.716  10.443   7.720 -0.0851 -0.0033 -0.0454
  193MOL0     C25949   9.831  10.363   7.674 -0.2456 -1.5504  0.5345
  193MOL0     O25950   9.911  10.408   7.575  0.6074  0.4692 -0.2299
  193MOL0     C25951  10.022  10.339   7.539  0.6433  0.8762 -0.2383
  193MOL0     C25952  10.122  10.310   7.633 -0.5327  0.4753 -0.1444
  193MOL0     C25953  10.245  10.246   7.592  0.2936 -0.3602  0.3019
  193MOL0     C25954  10.266  10.212   7.452  0.7912 -0.9392  0.0378
  193MOL0     O25955  10.368  10.150   7.403  0.9887 -0.1898  0.5260
  193MOL0     C25956  10.483  10.164   7.479  0.0229  0.8275  0.9418
  193MOL0     C25957  10.587  10.070   7.423 -0.3443  0.3073 -1.0501
  193MOL0     C25958  10.688  10.131   7.319 -0.5879 -0.2428 -0.7049
  193MOL0     C25959  10.812  10.041   7.296 -0.5707  0.3664 -0.8234
  193MOL0     C25960  10.799   9.951   7.177  0.2784 -0.1071 -0.2436
  193MOL0     C25961  10.931   9.869   7.134 -0.3667 -0.0493 -0.7704
  193MOL0     C25962  10.953   9.745   7.214  0.4718  0.3257  1.2568
  193MOL0     C25963  11.087   9.682   7.169 -0.1131  0.3472 -0.0539
  193MOL0    Cl25964  11.211   9.779   7.254  0.3582  0.3497  0.1936
  193MOL0     C25965  10.160  10.242   7.363  0.1499 -0.1998  0.5192
  193MOL0     C25966  10.045  10.301   7.406 -0.0819 -0.5033 -0.4819
  193MOL0     O25967   9.838  10.251   7.726 -0.3339  0.5474  0.2095
  193MOL0     C25968   9.710  10.589   7.683  0.1128  0.3882 -1.5687
  193MOL0     C25969   9.613  10.667   7.733 -0.8732 -0.3705  0.7439
  193MOL0     N25970   9.171  11.004   8.247 -0.4728  0.6038 -0.3718
  193MOL0     N25971   9.158  10.988   8.373 -0.8726  1.0882 -0.1877
  193MOL0     C25972   8.885   9.923   8.648 -0.1492 -0.0807  0.1060
  193MOL0     C25973   8.938   9.793   8.631 -0.5058 -0.2514 -0.8562
  193MOL0     C25974   9.216   9.444   8.704 -0.8827  0.0788 -0.3423
  193MOL0     C25975   9.094   9.393   8.743 -0.7997  0.5990 -0.0661
  193MOL0     C25976   9.078   9.260   8.774  0.8084  0.3615  0.5658
  193MOL0     C25977   9.181   9.173   8.754  0.8304 -0.3215 -0.3080
  193MOL0     O25978   9.158   9.050   8.797  0.2721  0.0620  0.1738
  193MOL0     C25979   9.209   8.958   8.691 -0.3248  0.8790  0.0443
  193MOL0     C25980   9.179   8.810   8.738  1.2308 -0.8145  0.2755
  193MOL0     C25981   9.022   8.778   8.744 -0.0996 -0.1876 -0.4120
  193MOL0     C25982   8.986   8.642   8.802  0.5190 -0.1737 -0.2450
  193MOL0     C25983   9.031   8.626   8.944 -1.1884 -1.0384 -0.3755
  193MOL0     C25984   9.076   8.619   9.055 -0.4002 -0.1975  0.1566
  193MOL0     C25985   9.305   9.219   8.704  0.5645 -0.5688  0.6932
  193MOL0     C25986   9.326   9.355   8.683  0.2546  0.1675 -1.0002
  193MOL0     C25987   9.460   9.398   8.636 -0.7468 -0.1329 -0.4768
  193MOL0     H25988   9.271   9.875   8.652  0.3814 -0.1013  1.4304
  193MOL0     H25989   9.182  10.086   8.654  1.1161 -0.1557  1.3554
  193MOL0     H25990   8.833  10.125   8.491  0.5256 -1.9613  1.8433
  193MOL0     H25991   8.729  10.180   8.624 -1.2756 -3.2648 -1.7754
  193MOL0     H25992   8.752  10.331   8.460 -1.0466  1.9612  2.1479
  193MOL0     H25993   8.918  10.377   8.477 -1.7472  3.2786 -1.3411
  193MOL0     H25994   8.879  10.444   8.727  0.0706  0.3588 -0.9565
  193MOL0     H25995   8.709  10.396   8.719 -0.2884 -2.7806 -2.3795
  193MOL0     H25996   8.782  10.582   8.495 -1.0966 -1.5476 -0.4015
  193MOL0     H25997   8.643  10.580   8.586  0.5248 -0.1869 -2.7818
  193MOL0     H25998   8.727  10.773   8.666 -0.8222 -0.2138  1.3356
  193MOL0     H25999   8.763  10.663   8.795 -3.5791 -2.5384 -1.9899
  193MOL0     H26000   8.956  10.794   8.770 -6.4512  3.0612 -2.1529
  193MOL0     H26001   9.015  10.639   8.710  0.6265  0.3232  3.0998
  193MOL0     H26002   8.938  10.894   8.579  2.1638  0.3910  0.5945
  193MOL0     H26003   8.917  10.749   8.481 -0.9262 -4.1367  3.0405
  193MOL0     H26004   9.194  10.830   8.618 -3.6967  1.2310  0.9710
  193MOL0     H26005   9.155  10.687   8.514  2.7764  0.2690 -0.5977
  193MOL0     H26006   9.185  10.679   8.266  0.0342 -0.2031 -1.6071
  193MOL0     H26007   9.231  10.949   7.997 -0.5908 -0.4751 -0.3495
  193MOL0     H26008   9.332  10.821   8.047  0.7454  0.9720  0.3969
  193MOL0     H26009   9.097  10.678   8.050 -2.1807 -1.9832 -2.5734
  193MOL0     H26010   9.046  10.812   7.954  0.4318  0.3205  2.0640
  193MOL0     H26011   9.187  10.769   7.772  0.2617 -1.0107 -0.5073
  193MOL0     H26012   9.095  10.627   7.812 -0.6505 -0.6652 -2.0091
  193MOL0     H26013   9.295  10.534   7.779 -1.0015 -2.8045  2.3834
  193MOL0     H26014   9.298  10.552   7.956  1.1582 -1.6277 -0.2285
  193MOL0     H26015   9.473  10.438   7.945  2.3962 -0.9462  0.4431
  193MOL0     H26016   9.638  10.287   7.853 -2.0334 -0.2405 -0.7011
  193MOL0     H26017  10.109  10.337   7.737 -2.3250  3.1796 -0.9695
  193MOL0     H26018  10.313  10.220   7.672  0.9130 -2.7301 -0.8772
  193MOL0     H26019  10.526  10.264   7.471  1.1850  0.1706 -3.4185
  193MOL0     H26020  10.455  10.133   7.580 -3.4932 -3.0367 -0.9306
  193MOL0     H26021  10.652  10.044   7.507 -1.1848 -3.0307 -1.2825
  193MOL0     H26022  10.544   9.976   7.387  0.1580 -0.4132  0.1456
  193MOL0     H26023  10.645  10.161   7.223  0.4021  2.2538 -0.4433
  193MOL0     H26024  10.725  10.224   7.363  1.0764 -0.4496 -1.6092
  193MOL0     H26025  10.829   9.981   7.387 -1.8004  1.5874  0.2559
  193MOL0     H26026  10.894  10.106   7.267 -1.9527  3.2301  1.2210
  193MOL0     H26027  10.786  10.024   7.097 -1.0612  0.6347  0.6081
  193MOL0     H26028  10.717   9.882   7.199  2.6221 -2.6165  1.3276
  193MOL0     H26029  10.921   9.827   7.034  0.4883 -2.3532  0.0441
  193MOL0     H26030  11.027   9.921   7.128 -0.3126 -0.2971 -2.3286
  193MOL0     H26031  10.869   9.680   7.187 -1.3134  2.2669  1.9357
  193MOL0     H26032  10.955   9.765   7.321  5.0468  1.9480  1.0639
  193MOL0     H26033  11.088   9.575   7.193  1.2066  1.2308  5.0334
  193MOL0     H26034  11.109   9.701   7.063 -0.4677  0.6471 -0.0743
  193MOL0     H26035  10.174  10.223   7.257 -1.6064 -0.1073  0.2491
  193MOL0     H26036   9.975  10.331   7.329  0.1238  0.3682 -0.3416
  193MOL0     H26037   9.778  10.642   7.617 -0.5570  3.5100  0.0368
  193MOL0     H26038   9.602  10.772   7.706  0.8866 -1.0360 -3.2397
  193MOL0     H26039   8.779   9.946   8.640  0.3166  2.2718  0.0745
  193MOL0     H26040   8.867   9.711   8.624 -1.7063  0.2221  2.9212
  193MOL0     H26041   9.005   9.453   8.761 -0.0784  1.7019 -0.0708
  193MOL0     H26042   8.981   9.223   8.806  2.0209 -3.2643  0.5088
  193MOL0     H26043   9.318   8.962   8.688 -0.3631  1.6517 -0.7619
  193MOL0     H26044   9.163   8.973   8.593  3.7548 -0.0645 -2.2158
  193MOL0     H26045   9.223   8.802   8.838 -0.0597 -1.0359  0.8404
  193MOL0     H26046   9.222   8.735   8.671 -0.5798 -0.1916 -1.7172
  193MOL0     H26047   8.971   8.810   8.652 -1.4950 -0.6831  0.1511
  193MOL0     H26048   8.984   8.848   8.819  0.7510  2.1961 -2.0828
  193MOL0     H26049   8.878   8.632   8.783 -0.1527  3.0353  1.2208
  193MOL0     H26050   9.038   8.561   8.751  2.5105  1.1001 -0.3412
  193MOL0     H26051   9.115   8.608   9.154  0.3298  1.2342  0.0551
  193MOL0     H26052   9.390   9.158   8.676  1.1559  0.8801 -0.8424
  193MOL0     H26053   9.526   9.438   8.714 -2.9698 -0.5415  1.7326
  193MOL0     H26054   9.510   9.321   8.577 -2.3257  0.1749 -2.3157
  193MOL0     H26055   9.439   9.476   8.563 -0.9139  0.2419 -0.0343
  194MOL0     O26056   8.681   3.244   7.405  0.1815  0.8236  0.3281
  194MOL0     C26057   8.760   3.213   7.318 -0.4558  0.0910 -0.6829
  194MOL0     O26058   8.897   3.239   7.313  0.4356 -0.4455  1.0454
  194MOL0     C26059   8.951   3.294   7.421  0.7999 -0.4210  0.2329
  194MOL0     C26060   9.049   3.226   7.487 -1.4343 -0.0155 -0.8988
  194MOL0     C26061   9.098   3.291   7.607  0.1479  0.0603 -0.2015
  194MOL0     C26062   9.052   3.409   7.652  0.4637 -1.2650 -0.0858
  194MOL0     O26063   9.099   3.492   7.757  0.9000 -0.6572  0.3136
  194MOL0     C26064   9.215   3.464   7.833 -0.3636  0.1052  0.4995
  194MOL0     C26065   9.264   3.596   7.901  0.3276  0.6242 -0.3242
  194MOL0     C26066   9.413   3.587   7.944 -0.0222  0.3404  1.1544
  194MOL0     C26067   9.468   3.733   7.990 -1.3141 -0.9142 -0.5384
  194MOL0     C26068   9.580   3.730   8.102 -0.7618 -0.4169  0.1674
  194MOL0     C26069   9.515   3.695   8.240  0.5115  0.4863 -0.5538
  194MOL0     C26070   9.448   3.803   8.319  0.0833  0.8854 -0.3256
  194MOL0     C26071   9.296   3.806   8.309 -0.5104 -0.7574 -0.3153
  194MOL0     N26072   9.256   3.939   8.352  0.4648  0.4148  0.8421
  194MOL0     C26073   9.298   3.995   8.470 -0.2315 -0.3321 -1.1410
  194MOL0     C26074   9.222   4.100   8.497  0.1519  0.1271  0.1283
  194MOL0     C26075   9.224   4.183   8.613  0.0665 -0.5108  0.2165
  194MOL0     C26076   9.285   4.330   8.598  0.5859  0.2372  0.6028
  194MOL0     C26077   9.441   4.330   8.558  1.4375  0.3032  0.2802
  194MOL0     C26078   9.471   4.476   8.516  0.0615 -0.4856  0.3341
  194MOL0     O26079   9.597   4.473   8.442 -0.1810 -0.2325 -0.3708
  194MOL0     C26080   9.630   4.588   8.377  0.4135  0.4171  0.5485
  194MOL0     C26081   9.572   4.710   8.408 -0.4530  0.5509  0.4291
  194MOL0     C26082   9.625   4.829   8.354 -0.2759 -1.1369  0.5081
  194MOL0     C26083   9.714   4.825   8.239 -0.2239 -0.1626  0.1037
  194MOL0     C26084   9.749   4.951   8.164  0.1690  0.3725  0.7695
  194MOL0     O26085   9.655   5.048   8.174 -0.3227 -0.0922 -0.4791
  194MOL0     C26086   9.677   5.165   8.108  0.0067  0.1389 -0.0610
  194MOL0     C26087   9.607   5.275   8.173 -0.4667  0.1750  0.3710
  194MOL0     C26088   9.618   5.397   8.124 -0.6543 -0.4911  0.6048
  194MOL0     C26089   9.678   5.408   7.999  0.3064  0.6959 -0.5537
  194MOL0     O26090   9.682   5.539   7.952  1.0289 -0.2139  0.4909
  194MOL0     C26091   9.797   5.606   7.994  0.2706 -0.5417  0.5267
  194MOL0     C26092   9.783   5.750   7.949 -0.2440  0.3110  0.5247
  194MOL0     C26093   9.671   5.821   8.026  0.3104 -0.8263 -0.2564
  194MOL0     C26094   9.623   5.945   7.949 -0.2981  0.9104  0.1399
  194MOL0     C26095   9.518   6.019   8.023 -0.0451  0.5260  0.2254
  194MOL0     C26096   9.567   6.069   8.161  0.3541  0.8717 -1.2467
  194MOL0     C26097   9.535   5.981   8.292  0.6022 -0.2471  0.5961
  194MOL0     C26098   9.385   5.959   8.313 -0.4797  0.1378 -0.0610
  194MOL0    Cl26099   9.366   5.894   8.486 -0.1297 -0.0953  0.4762
  194MOL0     C26100   9.753   5.310   7.935 -0.4861 -0.1390  0.3692
  194MOL0     C26101   9.743   5.184   7.983 -0.0001  0.8090  0.5756
  194MOL0     O26102   9.856   4.953   8.100  0.1879  0.0556  0.1290
  194MOL0     C26103   9.773   4.701   8.203  0.6149 -0.0544 -0.1931
  194MOL0     C26104   9.727   4.580   8.271 -0.2148 -0.5193 -0.1002
  194MOL0     N26105   9.140   4.113   8.389 -0.7582  0.2654 -0.5651
  194MOL0     N26106   9.153   4.017   8.308  0.5952 -0.0263  0.2185
  194MOL0     C26107   8.961   3.480   7.570  0.4869 -0.5390 -0.8559
  194MOL0     C26108   8.911   3.418   7.465  0.1234 -0.7108  0.9244
  194MOL0     C26109   8.711   3.126   7.207 -0.6765 -1.3533 -0.1193
  194MOL0     C26110   8.636   3.018   7.241 -0.3460  1.4553 -0.8886
  194MOL0     C26111   8.599   2.917   7.158  0.7357  0.3340 -0.0225
  194MOL0     C26112   8.640   2.924   7.030 -0.3023 -0.7185  0.9838
  194MOL0     O26113   8.597   2.818   6.956 -0.5353 -0.3755  0.4993
  194MOL0     C26114   8.628   2.814   6.810 -0.3722 -0.3096  0.4647
  194MOL0     C26115   8.593   2.685   6.752  0.0398  0.0134 -0.3193
  194MOL0     C26116   8.672   2.563   6.820 -0.2995 -1.2429  0.2326
  194MOL0     C26117   8.621   2.434   6.798 -0.0122 -0.8356  0.3003
  194MOL0     C26118   8.699   2.302   6.800 -0.5979  0.3040 -0.5283
  194MOL0     C26119   8.754   2.192   6.807  0.6823 -0.6096  0.1445
  194MOL0     C26120   8.711   3.037   6.985 -0.1499 -0.3566  0.1968
  194MOL0     C26121   8.753   3.134   7.068  0.5103  0.2831  0.2488
  194MOL0     C26122   8.829   3.260   7.019 -0.4212 -0.8639  0.1689
  194MOL0     H26123   9.064   3.122   7.462 -2.5666 -1.1315  2.4954
  194MOL0     H26124   9.167   3.244   7.677  0.2691 -0.2574 -0.5282
  194MOL0     H26125   9.201   3.390   7.912  0.7363 -2.9434 -1.9040
  194MOL0     H26126   9.297   3.429   7.769  1.3788  1.9544  1.5882
  194MOL0     H26127   9.200   3.603   7.989  2.6394  0.2821  1.4701
  194MOL0     H26128   9.251   3.676   7.827 -3.6662  1.1542  0.7327
  194MOL0     H26129   9.472   3.540   7.865 -2.3837  1.0039 -1.1711
  194MOL0     H26130   9.424   3.520   8.029  1.3499  1.5103  1.9422
  194MOL0     H26131   9.505   3.799   7.911 -0.1104  1.9368  2.2152
  194MOL0     H26132   9.390   3.788   8.043 -1.3564 -2.2321  0.8512
  194MOL0     H26133   9.652   3.649   8.085  0.3619  0.1831  1.7851
  194MOL0     H26134   9.633   3.825   8.099 -0.9308 -0.3577 -1.5769
  194MOL0     H26135   9.441   3.615   8.225  1.7225 -0.4775 -1.5965
  194MOL0     H26136   9.597   3.657   8.303 -0.8848 -1.8026  0.0175
  194MOL0     H26137   9.497   3.899   8.298 -0.2343  1.3789  1.1016
  194MOL0     H26138   9.461   3.787   8.426  2.1095  2.9024 -0.1831
  194MOL0     H26139   9.266   3.785   8.206  2.1100  0.1460 -1.3675
  194MOL0     H26140   9.241   3.733   8.368  0.8192 -0.4167  1.4256
  194MOL0     H26141   9.372   3.960   8.542  2.6469  0.1566 -3.6817
  194MOL0     H26142   9.118   4.184   8.643  0.1141 -3.1061  0.6988
  194MOL0     H26143   9.286   4.138   8.691  1.8275  3.1559  1.1410
  194MOL0     H26144   9.241   4.390   8.518  1.4526 -1.3345 -1.1354
  194MOL0     H26145   9.274   4.394   8.685 -0.6740  2.3853 -1.0374
  194MOL0     H26146   9.462   4.248   8.488  0.2007 -0.4087  0.7072
  194MOL0     H26147   9.498   4.305   8.647  1.5826  1.4750  0.5260
  194MOL0     H26148   9.494   4.523   8.612  1.6502 -0.5224  0.0014
  194MOL0     H26149   9.391   4.517   8.454 -0.8603 -0.7800  1.3016
  194MOL0     H26150   9.501   4.725   8.489 -1.2936 -1.4245  0.1045
  194MOL0     H26151   9.587   4.925   8.385 -1.4148 -0.9733 -1.2389
  194MOL0     H26152   9.559   5.271   8.271 -1.5933 -2.8744 -0.1868
  194MOL0     H26153   9.574   5.486   8.167  1.6025  0.9274  0.1543
  194MOL0     H26154   9.818   5.599   8.101  0.0860  0.0292  0.6007
  194MOL0     H26155   9.876   5.550   7.942  0.7821 -0.4849  1.2253
  194MOL0     H26156   9.872   5.810   7.966 -0.2229  1.0553 -1.7898
  194MOL0     H26157   9.778   5.748   7.839  0.1240 -1.2691  0.5053
  194MOL0     H26158   9.582   5.762   8.048  0.3220 -1.0740 -0.8610
  194MOL0     H26159   9.713   5.854   8.121 -1.8643  0.7000  0.2497
  194MOL0     H26160   9.585   5.921   7.849 -3.1256 -0.0252  1.3316
  194MOL0     H26161   9.711   6.009   7.940  0.4476  0.2933  2.4336
  194MOL0     H26162   9.429   5.956   8.030 -0.3198  0.7803 -0.7793
  194MOL0     H26163   9.497   6.113   7.972 -1.5489  0.6228  0.9766
  194MOL0     H26164   9.670   6.105   8.154 -0.2459  3.3387  1.0628
  194MOL0     H26165   9.505   6.158   8.175 -2.8618  0.0336 -6.9111
  194MOL0     H26166   9.565   6.036   8.382 -2.1955 -0.8185  2.0029
  194MOL0     H26167   9.593   5.889   8.300 -0.1917 -0.7075  1.2012
  194MOL0     H26168   9.326   6.051   8.301 -1.6964 -0.8127 -1.7692
  194MOL0     H26169   9.350   5.881   8.245  3.7441  0.0872 -2.5017
  194MOL0     H26170   9.798   5.306   7.836  3.3464 -2.6322  1.9856
  194MOL0     H26171   9.782   5.098   7.929  3.1530  1.9665  0.8076
  194MOL0     H26172   9.839   4.698   8.117 -0.7475 -1.9227 -1.2476
  194MOL0     H26173   9.767   4.486   8.234  1.4270  0.0210  0.2123
  194MOL0     H26174   8.928   3.582   7.591  1.4742  0.0138 -1.9093
  194MOL0     H26175   8.826   3.465   7.416  1.3133  2.0639  1.3596
  194MOL0     H26176   8.613   3.003   7.346  0.2882  1.7369 -0.7018
  194MOL0     H26177   8.538   2.830   7.178 -0.3467  0.4848 -2.3218
  194MOL0     H26178   8.732   2.843   6.793 -1.2346  3.7853  1.1851
  194MOL0     H26179   8.570   2.886   6.752 -0.5999  1.1658  2.4278
  194MOL0     H26180   8.626   2.685   6.648 -0.8436  1.0035 -0.6065
  194MOL0     H26181   8.485   2.668   6.762 -0.3009  1.4214 -1.3279
  194MOL0     H26182   8.681   2.580   6.927 -1.6036  1.1516  0.0184
  194MOL0     H26183   8.774   2.564   6.781  0.5195 -0.2783  2.2877
  194MOL0     H26184   8.539   2.426   6.870 -0.5827  0.2818 -0.1867
  194MOL0     H26185   8.576   2.441   6.698 -0.5852 -1.7213  0.4869
  194MOL0     H26186   8.802   2.099   6.827 -1.5627 -1.6093  1.1913
  194MOL0     H26187   8.724   3.052   6.878 -2.5032  1.0343  0.0247
  194MOL0     H26188   8.789   3.358   7.047  5.3541  1.7886  0.6130
  194MOL0     H26189   8.925   3.258   7.070 -1.8460  2.9351  3.5120
  194MOL0     H26190   8.848   3.251   6.911  0.7444 -0.8380  0.3582
  195MOL0     O26191   8.846   6.734   4.605 -0.2167 -0.7103 -0.6063
  195MOL0     C26192   8.760   6.692   4.530 -0.2785  0.1040 -0.2259
  195MOL0     O26193   8.675   6.770   4.462 -0.1554  0.4561 -0.7048
  195MOL0     C26194   8.665   6.897   4.511 -0.3015 -0.7069 -1.0085
  195MOL0     C26195   8.680   7.006   4.428 -0.4657 -0.2863  0.6397
  195MOL0     C26196   8.664   7.133   4.471  0.1804 -0.4741  0.3681
  195MOL0     C26197   8.640   7.160   4.605  0.3998  0.0358 -0.0877
  195MOL0     O26198   8.633   7.279   4.658  0.2512  0.0614 -0.1901
  195MOL0     C26199   8.526   7.368   4.605 -0.0785 -0.0076  0.2252
  195MOL0     C26200   8.564   7.519   4.632  0.1162  1.2833  0.3235
  195MOL0     C26201   8.655   7.582   4.526  1.1661 -0.4648 -0.2446
  195MOL0     C26202   8.801   7.527   4.512  0.8956 -0.2699  0.8563
  195MOL0     C26203   8.882   7.624   4.401  0.2399 -1.1244 -0.1626
  195MOL0     C26204   9.021   7.563   4.397  0.4946  0.7884  0.3829
  195MOL0     C26205   9.092   7.590   4.254  0.8150 -0.0811 -1.5828
  195MOL0     C26206   9.222   7.503   4.256 -0.3600 -0.8448  0.4370
  195MOL0     N26207   9.282   7.493   4.123  0.3300  0.9353 -0.1731
  195MOL0     C26208   9.300   7.604   4.049  0.5182 -0.6312  0.0768
  195MOL0     C26209   9.370   7.558   3.948  0.0295  0.0761  0.7685
  195MOL0     C26210   9.420   7.642   3.837  0.3976  0.7445 -0.4077
  195MOL0     C26211   9.330   7.640   3.726  0.3380  0.7700  0.5412
  195MOL0     C26212   9.304   7.497   3.671 -0.5545  0.1005 -0.1222
  195MOL0     C26213   9.246   7.508   3.526 -0.8986 -0.1047  0.0821
  195MOL0     O26214   9.226   7.379   3.464  0.4204  0.5766 -0.1394
  195MOL0     C26215   9.087   7.374   3.429  0.5046  0.8097  0.8490
  195MOL0     C26216   9.071   7.352   3.292 -0.3926  0.0844 -0.1850
  195MOL0     C26217   8.938   7.333   3.239  0.4737 -0.4884  0.0724
  195MOL0     C26218   8.829   7.360   3.328  0.2502  0.7555  0.5696
  195MOL0     C26219   8.701   7.357   3.258 -0.2026  0.5062 -0.2951
  195MOL0     O26220   8.593   7.302   3.322 -0.3209 -0.0650 -0.5135
  195MOL0     C26221   8.520   7.201   3.258 -0.0204 -1.9564  0.8392
  195MOL0     C26222   8.441   7.111   3.332 -0.1875 -0.1104  0.1986
  195MOL0     C26223   8.378   7.006   3.275 -0.7382  0.2264 -0.1857
  195MOL0     C26224   8.395   6.979   3.138  0.5240 -0.7136 -1.0297
  195MOL0     O26225   8.359   6.856   3.081  0.1400  0.6933 -0.7094
  195MOL0     C26226   8.231   6.822   3.029  0.2867 -0.5764  0.3212
  195MOL0     C26227   8.188   6.687   3.080 -0.1332 -0.3655 -0.6542
  195MOL0     C26228   8.052   6.643   3.021 -0.1022 -1.0320 -0.8446
  195MOL0     C26229   8.046   6.616   2.870 -0.9700 -1.2232  0.2391
  195MOL0     C26230   7.913   6.572   2.814 -1.1766 -0.7720  0.0612
  195MOL0     C26231   7.860   6.664   2.696  0.0750  0.2305 -0.3449
  195MOL0     C26232   7.729   6.594   2.631 -0.9715  0.0454 -0.8781
  195MOL0     C26233   7.686   6.672   2.506 -0.3512 -0.4293 -0.6187
  195MOL0    Cl26234   7.579   6.574   2.415  0.0869  0.0955  0.5640
  195MOL0     C26235   8.459   7.072   3.061 -0.7136 -0.0569 -0.5880
  195MOL0     C26236   8.521   7.179   3.115 -0.1087  0.3317 -0.4399
  195MOL0     O26237   8.697   7.427   3.154 -0.8560 -0.8364  0.0931
  195MOL0     C26238   8.844   7.388   3.469 -0.1618 -0.1465 -0.0342
  195MOL0     C26239   8.970   7.386   3.515 -0.1265 -1.0829 -0.5287
  195MOL0     N26240   9.398   7.422   3.955 -0.2501  0.0675  0.2892
  195MOL0     N26241   9.352   7.386   4.069  0.4200  1.4350  0.2156
  195MOL0     C26242   8.633   7.054   4.693 -0.2289 -0.5772  0.2898
  195MOL0     C26243   8.643   6.924   4.646 -0.1323  0.4998 -0.2137
  195MOL0     C26244   8.754   6.548   4.509 -0.1578 -0.2153  0.1403
  195MOL0     C26245   8.702   6.498   4.385  0.7791 -0.0510  0.9120
  195MOL0     C26246   8.686   6.364   4.362  0.3983  0.3714  0.2603
  195MOL0     C26247   8.736   6.270   4.458 -1.2942 -0.6020  0.3838
  195MOL0     O26248   8.719   6.146   4.426  0.3292 -0.4648  0.2742
  195MOL0     C26249   8.799   6.038   4.479  0.7777 -0.2679 -0.0659
  195MOL0     C26250   8.796   5.916   4.388 -0.7520  0.9870  0.1201
  195MOL0     C26251   8.673   5.830   4.422 -0.0100 -0.4012 -0.4634
  195MOL0     C26252   8.700   5.691   4.405 -0.7818 -0.8366 -0.0537
  195MOL0     C26253   8.699   5.660   4.262  0.2247 -0.1502  1.2188
  195MOL0     C26254   8.725   5.641   4.146 -0.0894  0.1082 -0.0703
  195MOL0     C26255   8.787   6.313   4.578  0.0661  0.5457 -0.9253
  195MOL0     C26256   8.790   6.448   4.614  0.4299  0.1435  0.6599
  195MOL0     C26257   8.848   6.484   4.752 -0.5920  0.3479  0.1611
  195MOL0     H26258   8.683   6.993   4.320 -0.3591 -0.0345  0.6096
  195MOL0     H26259   8.651   7.216   4.402 -2.9860  0.9960  2.4832
  195MOL0     H26260   8.505   7.351   4.499 -0.8576 -0.1445  0.3912
  195MOL0     H26261   8.434   7.341   4.657 -0.6079  4.3866  1.9430
  195MOL0     H26262   8.613   7.534   4.729 -2.0691  3.3736  1.2203
  195MOL0     H26263   8.480   7.589   4.642 -1.5132 -0.3446 -1.2248
  195MOL0     H26264   8.659   7.688   4.552  0.5750  0.2585 -2.8002
  195MOL0     H26265   8.605   7.575   4.429  1.5795  1.3847 -0.6225
  195MOL0     H26266   8.832   7.530   4.616  1.8174 -1.4384  0.6386
  195MOL0     H26267   8.794   7.421   4.486 -0.4389 -0.0180  0.0663
  195MOL0     H26268   8.827   7.609   4.307 -1.2660  1.3761  0.2247
  195MOL0     H26269   8.872   7.731   4.421  0.9083 -0.5136 -2.7766
  195MOL0     H26270   9.083   7.611   4.474  2.2502  0.4897 -0.7833
  195MOL0     H26271   9.014   7.457   4.420  2.4399  0.3436 -0.8752
  195MOL0     H26272   9.114   7.696   4.240  0.5104 -0.0971 -2.2103
  195MOL0     H26273   9.027   7.572   4.168  1.3101  0.3429 -2.0487
  195MOL0     H26274   9.299   7.549   4.319  1.3126 -0.0396 -2.0526
  195MOL0     H26275   9.197   7.402   4.291  0.4413 -1.2784 -0.1940
  195MOL0     H26276   9.259   7.703   4.066 -2.6118 -1.6849 -0.5321
  195MOL0     H26277   9.433   7.742   3.878 -0.6062 -0.4368  3.1912
  195MOL0     H26278   9.516   7.606   3.799  0.9276 -0.1647  1.6880
  195MOL0     H26279   9.236   7.688   3.757 -0.0810 -0.9532  2.1583
  195MOL0     H26280   9.373   7.699   3.645 -2.2248  2.9470  0.6261
  195MOL0     H26281   9.238   7.435   3.732 -0.9727  0.0789 -0.5975
  195MOL0     H26282   9.404   7.457   3.653 -0.2397  0.5017  0.6696
  195MOL0     H26283   9.323   7.558   3.467  2.5706 -1.0319  3.3948
  195MOL0     H26284   9.158   7.573   3.533 -0.8840 -0.0567 -0.1877
  195MOL0     H26285   9.156   7.342   3.225 -0.6329  1.5671 -0.7425
  195MOL0     H26286   8.924   7.323   3.131  0.8694  1.3461 -0.1885
  195MOL0     H26287   8.421   7.122   3.438 -0.8893 -2.4864  0.3903
  195MOL0     H26288   8.338   6.953   3.361  1.8629 -1.0488  0.3349
  195MOL0     H26289   8.161   6.904   3.049 -1.3739 -1.7054 -0.6427
  195MOL0     H26290   8.235   6.819   2.920 -0.3455  2.8732  0.0841
  195MOL0     H26291   8.266   6.618   3.049  3.6158  3.7472 -1.4541
  195MOL0     H26292   8.186   6.697   3.189  1.1997  1.0626 -0.7262
  195MOL0     H26293   8.009   6.558   3.074 -2.8701  0.0768 -1.1779
  195MOL0     H26294   7.979   6.721   3.041 -0.5612 -0.6400 -3.6427
  195MOL0     H26295   8.125   6.544   2.846 -0.7157 -1.3105  1.2905
  195MOL0     H26296   8.062   6.710   2.816 -1.9399 -0.7289  0.7811
  195MOL0     H26297   7.841   6.586   2.894 -0.1845  0.9941  0.7005
  195MOL0     H26298   7.906   6.465   2.792  0.6694 -0.4964 -2.2594
  195MOL0     H26299   7.825   6.765   2.719 -0.6774  0.0935 -0.8523
  195MOL0     H26300   7.933   6.683   2.617 -0.9294 -0.4232 -1.4595
  195MOL0     H26301   7.645   6.594   2.701  0.5257  2.7204  1.0819
  195MOL0     H26302   7.759   6.491   2.606 -0.8318 -0.4666  1.2199
  195MOL0     H26303   7.636   6.763   2.540 -2.1673 -1.7096  0.2994
  195MOL0     H26304   7.768   6.713   2.445  0.3881  0.8667  1.1518
  195MOL0     H26305   8.489   7.051   2.959  1.8793 -0.6638  0.2284
  195MOL0     H26306   8.574   7.239   3.042  0.8863  1.1342  0.9089
  195MOL0     H26307   8.768   7.412   3.543  1.0532 -1.1572  1.6227
  195MOL0     H26308   8.980   7.384   3.623 -1.2858  0.3018 -0.3623
  195MOL0     H26309   8.610   7.075   4.797  0.5210 -1.4535  0.6503
  195MOL0     H26310   8.629   6.850   4.724  0.7323  0.5606  0.0114
  195MOL0     H26311   8.673   6.568   4.307  1.5063  1.8604  2.2703
  195MOL0     H26312   8.649   6.327   4.267 -0.5822 -0.4902  0.9486
  195MOL0     H26313   8.763   6.017   4.581  0.4947  4.7549  1.1695
  195MOL0     H26314   8.901   6.075   4.491  0.2641  2.4440 -2.7842
  195MOL0     H26315   8.884   5.856   4.412  0.0418  2.3800  0.7930
  195MOL0     H26316   8.804   5.943   4.282 -0.8639 -3.3452 -1.2138
  195MOL0     H26317   8.582   5.846   4.363 -0.9551  0.0106  1.0506
  195MOL0     H26318   8.643   5.839   4.527 -2.6100 -4.7537 -0.5854
  195MOL0     H26319   8.799   5.659   4.442 -0.1563  0.9915 -0.0582
  195MOL0     H26320   8.633   5.622   4.456 -0.1463 -0.8870  0.7235
  195MOL0     H26321   8.746   5.642   4.041 -3.3223  1.2575 -0.8390
  195MOL0     H26322   8.819   6.237   4.648 -0.6117 -0.7757 -1.9984
  195MOL0     H26323   8.807   6.413   4.824  0.7001 -2.6919 -1.9360
  195MOL0     H26324   8.957   6.491   4.761 -0.3673  1.2878 -2.3555
  195MOL0     H26325   8.809   6.584   4.776  0.4233  0.2505  2.5254
  196MOL0     O26326   4.037   8.372   2.767 -0.4650  0.0082 -0.4213
  196MOL0     C26327   4.080   8.403   2.659  0.5751  0.2802  0.4524
  196MOL0     O26328   4.204   8.365   2.613 -0.5071 -0.7087  0.2512
  196MOL0     C26329   4.288   8.290   2.688 -1.5229 -0.4520  0.4346
  196MOL0     C26330   4.255   8.156   2.716 -0.0986  0.6864 -0.3142
  196MOL0     C26331   4.347   8.071   2.785 -1.2988  1.0312  0.8903
  196MOL0     C26332   4.474   8.122   2.820 -0.2897 -0.7812 -0.1942
  196MOL0     O26333   4.553   8.040   2.904 -0.4819 -0.1246  0.4201
  196MOL0     C26334   4.546   8.066   3.043  0.4600 -0.2514  0.0584
  196MOL0     C26335   4.591   7.957   3.136 -0.9209  0.9613  0.6343
  196MOL0     C26336   4.601   8.003   3.282 -0.0929  0.7606  0.1323
  196MOL0     C26337   4.462   7.986   3.336  0.4525  0.6769  0.6720
  196MOL0     C26338   4.441   8.072   3.468 -0.1180  0.6122 -0.2493
  196MOL0     C26339   4.318   8.014   3.525 -0.6661  0.5786 -0.4040
  196MOL0     C26340   4.273   8.075   3.650 -0.1769  0.2281 -0.7748
  196MOL0     C26341   4.353   8.011   3.768 -0.7081 -1.1015  0.4157
  196MOL0     N26342   4.361   7.865   3.772 -0.1087 -0.6467 -0.5052
  196MOL0     C26343   4.470   7.788   3.732 -0.0977  0.0945 -0.4031
  196MOL0     C26344   4.445   7.666   3.780 -0.0809  0.1033  0.2600
  196MOL0     C26345   4.537   7.546   3.760  0.0638  0.6269 -0.3359
  196MOL0     C26346   4.613   7.491   3.892  0.3171  1.1725  0.5957
  196MOL0     C26347   4.740   7.577   3.906 -0.1504 -0.2233  0.8241
  196MOL0     C26348   4.846   7.487   3.974 -0.1103 -0.1685  0.0733
  196MOL0     O26349   4.981   7.541   3.989  0.3218 -0.0396 -0.0338
  196MOL0     C26350   5.093   7.499   3.910 -0.0791  0.2176  0.3403
  196MOL0     C26351   5.200   7.592   3.914  0.0683 -0.1411  0.3606
  196MOL0     C26352   5.316   7.574   3.835  0.5708 -0.1876 -0.0034
  196MOL0     C26353   5.326   7.473   3.740  1.3150 -0.0635  0.6554
  196MOL0     C26354   5.453   7.449   3.658  0.1907 -0.0428  0.5326
  196MOL0     O26355   5.449   7.344   3.577 -0.1615 -0.1522 -0.5223
  196MOL0     C26356   5.561   7.279   3.537 -0.5704 -0.1842  0.2467
  196MOL0     C26357   5.629   7.324   3.427 -0.2290 -0.1572 -0.0463
  196MOL0     C26358   5.759   7.269   3.395  0.3801  0.4495  1.1548
  196MOL0     C26359   5.815   7.163   3.475 -0.7358  0.5689  0.1800
  196MOL0     O26360   5.934   7.103   3.453  0.1236 -0.7628 -0.0399
  196MOL0     C26361   6.048   7.191   3.421  0.0846 -0.2303  0.0219
  196MOL0     C26362   6.189   7.139   3.426 -0.9417  0.2221  0.3222
  196MOL0     C26363   6.225   7.069   3.560  0.8074  0.2507 -0.2199
  196MOL0     C26364   6.360   6.998   3.563  0.1741 -0.5155  0.3944
  196MOL0     C26365   6.395   6.927   3.692 -0.4745 -0.5140  0.0701
  196MOL0     C26366   6.548   6.903   3.706 -0.3960  0.7979  0.8797
  196MOL0     C26367   6.572   6.858   3.845  0.4078 -0.3951  0.2591
  196MOL0     C26368   6.718   6.820   3.869 -0.3535 -0.6018 -0.0498
  196MOL0    Cl26369   6.805   6.974   3.914 -0.4541  0.0139 -0.4714
  196MOL0     C26370   5.737   7.114   3.580 -0.0658  0.4811 -0.6997
  196MOL0     C26371   5.614   7.171   3.611  0.2563 -0.1560  0.0180
  196MOL0     O26372   5.552   7.509   3.686  0.9162  0.3171 -0.1615
  196MOL0     C26373   5.228   7.372   3.741  0.0888 -0.3755 -0.3495
  196MOL0     C26374   5.108   7.400   3.815 -0.5164 -0.2567 -0.6513
  196MOL0     N26375   4.324   7.668   3.834 -0.2398 -0.4878 -0.2862
  196MOL0     N26376   4.271   7.788   3.840 -0.7478  0.5807 -0.1269
  196MOL0     C26377   4.507   8.262   2.805  0.6669  2.1501  0.2667
  196MOL0     C26378   4.412   8.344   2.737  0.5390  0.6056 -1.0827
  196MOL0     C26379   4.006   8.479   2.569  0.2207 -1.0819  0.2821
  196MOL0     C26380   4.051   8.493   2.434 -0.7787 -0.0458 -0.7353
  196MOL0     C26381   3.993   8.565   2.335  0.1991 -0.1336  0.2874
  196MOL0     C26382   3.867   8.624   2.360  0.1274  0.4202 -0.2206
  196MOL0     O26383   3.791   8.699   2.270  0.1161  0.8363  0.0297
  196MOL0     C26384   3.834   8.694   2.138  0.2148  0.6240 -0.1187
  196MOL0     C26385   3.747   8.789   2.049  0.2528  0.4416 -0.6716
  196MOL0     C26386   3.801   8.779   1.907  0.4673  0.0714 -0.8593
  196MOL0     C26387   3.929   8.860   1.892 -0.1327 -0.6778 -0.1978
  196MOL0     C26388   3.943   8.902   1.747 -0.4966 -0.5811  0.1345
  196MOL0     C26389   3.939   8.949   1.639 -0.3793 -1.1931  1.5624
  196MOL0     C26390   3.807   8.592   2.479 -0.3936 -0.7460 -0.4730
  196MOL0     C26391   3.872   8.539   2.589 -0.4841  0.1911  0.3417
  196MOL0     C26392   3.784   8.500   2.704  1.0969  0.3233 -0.1382
  196MOL0     H26393   4.164   8.114   2.674  0.0280 -0.1177  0.2136
  196MOL0     H26394   4.340   7.970   2.824 -0.2840  1.2612  1.6853
  196MOL0     H26395   4.619   8.145   3.059  1.3076 -1.2232  1.2170
  196MOL0     H26396   4.444   8.097   3.067  0.7000  0.7286 -0.1698
  196MOL0     H26397   4.687   7.920   3.098 -1.8874 -2.4983  1.2587
  196MOL0     H26398   4.524   7.871   3.132 -1.5923  1.3678  2.4220
  196MOL0     H26399   4.635   8.105   3.301  1.3299  0.3840 -0.2959
  196MOL0     H26400   4.659   7.927   3.334 -2.4350 -1.1416  0.1596
  196MOL0     H26401   4.390   8.016   3.259  1.5823 -2.7386 -1.9887
  196MOL0     H26402   4.447   7.878   3.347 -0.0378  0.6796  0.0848
  196MOL0     H26403   4.529   8.058   3.531  0.9877  2.1733 -1.3425
  196MOL0     H26404   4.433   8.177   3.438 -0.2603  0.2875 -1.4236
  196MOL0     H26405   4.240   8.033   3.451 -1.8384  0.2860  0.7224
  196MOL0     H26406   4.315   7.905   3.532  0.5786  0.5985  0.8936
  196MOL0     H26407   4.168   8.044   3.661  0.0439  0.4268  3.1332
  196MOL0     H26408   4.288   8.183   3.665  3.0350 -0.5237  3.2137
  196MOL0     H26409   4.451   8.059   3.769 -0.8479 -0.5471 -2.6515
  196MOL0     H26410   4.298   8.049   3.855 -0.1010  4.2400 -1.1639
  196MOL0     H26411   4.564   7.830   3.697  0.4742  0.7081  1.6806
  196MOL0     H26412   4.474   7.476   3.706  0.6877  1.8802 -2.8203
  196MOL0     H26413   4.610   7.577   3.684 -0.0423  2.5262  0.2701
  196MOL0     H26414   4.549   7.505   3.979 -2.7171 -2.3213 -0.8374
  196MOL0     H26415   4.614   7.382   3.884 -0.7305  1.3154 -3.0176
  196MOL0     H26416   4.711   7.663   3.967  0.0143  0.9717 -0.7089
  196MOL0     H26417   4.779   7.610   3.809 -2.3432 -0.2207 -0.1318
  196MOL0     H26418   4.839   7.382   3.942 -0.2052 -0.4317  0.9224
  196MOL0     H26419   4.825   7.483   4.082  0.8468  0.6741  0.3033
  196MOL0     H26420   5.188   7.673   3.985  2.2059 -0.7524  1.5230
  196MOL0     H26421   5.394   7.649   3.842  0.3321 -0.0071  0.8153
  196MOL0     H26422   5.603   7.405   3.359 -0.3557  1.0739  1.4179
  196MOL0     H26423   5.812   7.308   3.309 -3.9853  3.9439 -0.3331
  196MOL0     H26424   6.023   7.216   3.318  0.8806 -2.7316 -0.8415
  196MOL0     H26425   6.032   7.282   3.480 -0.9328 -1.2675  1.4218
  196MOL0     H26426   6.219   7.081   3.338  0.8976 -0.7749  1.5425
  196MOL0     H26427   6.261   7.221   3.429 -0.9243  0.2129  0.1468
  196MOL0     H26428   6.220   7.144   3.639 -0.3634  0.9296 -0.9099
  196MOL0     H26429   6.140   7.001   3.568 -0.7633  1.4587 -4.3161
  196MOL0     H26430   6.438   7.073   3.548  1.5723 -1.4602  2.4121
  196MOL0     H26431   6.365   6.936   3.474 -1.5797  0.0300 -0.1163
  196MOL0     H26432   6.353   6.826   3.690 -1.7813  0.0139  0.3214
  196MOL0     H26433   6.351   6.978   3.778  2.5754 -1.3338  2.2968
  196MOL0     H26434   6.572   6.833   3.626 -3.2139 -0.0527  0.6705
  196MOL0     H26435   6.605   6.994   3.686  1.7705 -0.7151 -0.1916
  196MOL0     H26436   6.510   6.772   3.869  0.7175 -1.5041 -2.4847
  196MOL0     H26437   6.550   6.939   3.915 -1.4507 -1.6683  1.2073
  196MOL0     H26438   6.720   6.760   3.960  1.8316 -0.4436  0.0632
  196MOL0     H26439   6.753   6.755   3.788 -0.3588  0.9602 -1.3538
  196MOL0     H26440   5.765   7.024   3.634  1.0238 -1.4084 -4.0819
  196MOL0     H26441   5.557   7.136   3.696  2.1269  1.9714  2.2731
  196MOL0     H26442   5.237   7.281   3.683  1.7291  0.4234 -1.4072
  196MOL0     H26443   5.025   7.331   3.824  1.1701 -2.2459  0.4519
  196MOL0     H26444   4.609   8.286   2.835  1.4865  1.0012 -1.4226
  196MOL0     H26445   4.425   8.452   2.732 -0.2898  0.7940  0.4286
  196MOL0     H26446   4.144   8.439   2.418  0.2612  0.8416  1.7464
  196MOL0     H26447   4.039   8.590   2.240 -0.9832  4.4712  0.6940
  196MOL0     H26448   3.818   8.589   2.111  2.4727 -0.1855  1.3798
  196MOL0     H26449   3.939   8.717   2.116  1.0532 -0.7205  2.1275
  196MOL0     H26450   3.756   8.892   2.085 -0.9222  0.3584 -0.1049
  196MOL0     H26451   3.643   8.759   2.065  0.6392 -0.3523  0.5127
  196MOL0     H26452   3.716   8.816   1.849 -0.6917  3.1433  2.4055
  196MOL0     H26453   3.822   8.673   1.889 -1.0680 -0.3996 -0.0038
  196MOL0     H26454   3.932   8.952   1.950 -0.4830  1.0803 -2.8293
  196MOL0     H26455   4.007   8.785   1.913 -0.5108 -2.0763 -3.2112
  196MOL0     H26456   3.929   8.987   1.540  3.0920 -0.2827  1.4301
  196MOL0     H26457   3.704   8.623   2.494  0.4194  1.3333  1.5460
  196MOL0     H26458   3.693   8.560   2.692  2.9380  3.4369  0.6025
  196MOL0     H26459   3.744   8.398   2.697 -3.4644  1.8679  0.1088
  196MOL0     H26460   3.825   8.524   2.803 -0.4485  1.9427  0.1719
  197MOL0     O26461   9.194   9.089   0.537 -0.2130 -0.8634 -0.5312
  197MOL0     C26462   9.281   8.999   0.551  0.1787 -0.0170  0.5868
  197MOL0     O26463   9.406   9.005   0.613 -0.3491  0.0649  0.0599
  197MOL0     C26464   9.432   9.116   0.684  0.7537 -0.9336  1.1564
  197MOL0     C26465   9.366   9.138   0.799 -0.3385  0.9335 -0.7954
  197MOL0     C26466   9.401   9.257   0.875 -0.6085 -0.4407  1.0593
  197MOL0     C26467   9.469   9.360   0.808 -0.4340  0.0341  0.3091
  197MOL0     O26468   9.479   9.473   0.889 -0.2251 -0.9460 -0.0682
  197MOL0     C26469   9.480   9.603   0.838  0.0066 -0.4495  0.3031
  197MOL0     C26470   9.503   9.713   0.942 -0.3969 -0.1160  0.5982
  197MOL0     C26471   9.649   9.734   0.985 -0.1616  0.4245 -0.2490
  197MOL0     C26472   9.670   9.810   1.120  0.0917 -0.2372 -0.0508
  197MOL0     C26473   9.810   9.862   1.147 -0.2210  0.6278 -0.0254
  197MOL0     C26474   9.818   9.971   1.256 -0.5588 -0.0446 -0.1758
  197MOL0     C26475   9.715   9.960   1.369  1.2230 -0.1586 -0.1034
  197MOL0     C26476   9.662  10.086   1.429 -0.7027  0.0669  0.5845
  197MOL0     N26477   9.768  10.181   1.452  0.3730 -0.1892 -0.2014
  197MOL0     C26478   9.847  10.176   1.564  0.4716 -0.7213 -0.1913
  197MOL0     C26479   9.930  10.282   1.557  0.3606 -0.0996  0.9868
  197MOL0     C26480  10.040  10.325   1.649 -0.7510  0.3611 -0.5872
  197MOL0     C26481  10.041  10.476   1.679 -0.6339 -0.1841 -0.2809
  197MOL0     C26482  10.168  10.534   1.755 -0.2994 -0.6420 -0.0376
  197MOL0     C26483  10.160  10.688   1.765 -0.9015  0.2249 -0.4383
  197MOL0     O26484  10.057  10.714   1.863  0.3518  0.0164 -0.6493
  197MOL0     C26485  10.084  10.699   1.999  0.3724 -0.2819 -0.0038
  197MOL0     C26486   9.968  10.693   2.081 -0.5300  0.7908  0.2325
  197MOL0     C26487   9.978  10.669   2.222 -0.1143 -0.0248  0.8129
  197MOL0     C26488  10.105  10.652   2.279 -0.6266 -0.6406  0.8200
  197MOL0     C26489  10.114  10.616   2.415  0.3995 -0.2696  0.5696
  197MOL0     O26490  10.241  10.609   2.472  0.5551 -0.4744 -0.0149
  197MOL0     C26491  10.257  10.580   2.609  1.2808 -1.3128  0.2403
  197MOL0     C26492  10.336  10.663   2.691  0.5330 -0.3933 -0.3188
  197MOL0     C26493  10.344  10.639   2.831  0.6542  0.1703 -0.7727
  197MOL0     C26494  10.268  10.552   2.894  0.4098 -0.3162  0.3532
  197MOL0     O26495  10.277  10.545   3.029  0.9655 -0.1045  0.5997
  197MOL0     C26496  10.196  10.444   3.097 -0.4113  0.0497  0.0024
  197MOL0     C26497  10.200  10.456   3.242 -0.6243 -0.1610  0.4102
  197MOL0     C26498  10.325  10.394   3.310  0.6985 -0.0459 -0.6986
  197MOL0     C26499  10.295  10.379   3.452 -0.8760 -0.5712 -0.6492
  197MOL0     C26500  10.254  10.237   3.484 -0.2781  0.7325  0.1984
  197MOL0     C26501  10.194  10.257   3.624 -0.1433  0.7294 -0.3228
  197MOL0     C26502  10.195  10.132   3.715  0.2984 -0.0730 -1.0281
  197MOL0     C26503  10.148  10.184   3.851  0.5168  1.1544 -1.1187
  197MOL0    Cl26504  10.048  10.059   3.947  0.5342 -0.1302 -0.2067
  197MOL0     C26505  10.177  10.477   2.822 -0.5062  0.2397  0.7128
  197MOL0     C26506  10.181  10.487   2.682  0.5453  0.9473  0.3564
  197MOL0     O26507  10.009  10.599   2.474 -0.2056  0.8922 -1.0395
  197MOL0     C26508  10.225  10.670   2.195 -0.0323 -0.9052 -0.2679
  197MOL0     C26509  10.204  10.694   2.056  0.5182 -0.0313  0.8496
  197MOL0     N26510   9.882  10.367   1.457 -0.2410  0.9467  0.9532
  197MOL0     N26511   9.792  10.302   1.391 -0.9009 -0.5524  0.5745
  197MOL0     C26512   9.520   9.339   0.681  0.6327 -0.5168  0.6398
  197MOL0     C26513   9.514   9.213   0.620  0.7010 -0.6085  0.1076
  197MOL0     C26514   9.245   8.855   0.512  0.2103  0.7504  0.8146
  197MOL0     C26515   9.316   8.747   0.566  0.2229 -0.4105 -1.2712
  197MOL0     C26516   9.299   8.615   0.522  0.8526  0.4330  0.0799
  197MOL0     C26517   9.202   8.585   0.430  0.2304 -0.2471 -0.1135
  197MOL0     O26518   9.179   8.452   0.414  0.4588 -0.9693 -0.3321
  197MOL0     C26519   9.138   8.407   0.281  0.2115 -0.4415 -0.2034
  197MOL0     C26520   8.986   8.429   0.277 -0.2645  0.4771  0.1768
  197MOL0     C26521   8.936   8.481   0.143 -0.6469 -0.6130 -0.1313
  197MOL0     C26522   8.946   8.367   0.026 -0.4560 -0.7068 -0.3372
  197MOL0     C26523   9.081   8.360  -0.025  1.2365 -0.6021 -0.1570
  197MOL0     C26524   9.199   8.370  -0.055  0.1763  0.6962  0.2286
  197MOL0     C26525   9.128   8.682   0.374 -0.2880 -0.9032  0.4594
  197MOL0     C26526   9.152   8.823   0.411 -0.7928  0.0180 -0.3626
  197MOL0     C26527   9.095   8.945   0.326 -0.7542 -0.6527  0.6110
  197MOL0     H26528   9.284   9.074   0.832 -0.7412  0.7020 -2.1991
  197MOL0     H26529   9.370   9.282   0.976 -1.7052  0.9658  0.4104
  197MOL0     H26530   9.564   9.613   0.769 -0.3391 -2.6590 -0.5137
  197MOL0     H26531   9.383   9.620   0.791  0.6666 -1.6661 -1.6283
  197MOL0     H26532   9.443   9.686   1.029  1.7960  0.3589  2.3521
  197MOL0     H26533   9.454   9.807   0.914  1.0487  0.0045 -1.7964
  197MOL0     H26534   9.690   9.800   0.907  0.4801 -0.0608 -0.3343
  197MOL0     H26535   9.687   9.633   1.002 -1.1016  0.0854 -0.1142
  197MOL0     H26536   9.613   9.900   1.099 -2.3498 -2.2644 -3.0735
  197MOL0     H26537   9.641   9.744   1.202  2.2029 -3.2085 -1.4955
  197MOL0     H26538   9.880   9.783   1.177 -0.5629  0.5386  0.5425
  197MOL0     H26539   9.853   9.897   1.052  2.8446  0.5654  1.2038
  197MOL0     H26540   9.920   9.959   1.294  0.0134  2.1443 -0.9066
  197MOL0     H26541   9.811  10.075   1.223  0.9816  0.0658 -0.2030
  197MOL0     H26542   9.747   9.905   1.459  2.3446  1.6031  0.6393
  197MOL0     H26543   9.628   9.902   1.339  0.7672  0.6599 -0.3839
  197MOL0     H26544   9.603  10.132   1.349  0.9253 -0.1712 -0.8082
  197MOL0     H26545   9.592  10.079   1.513 -0.3985  1.3171  0.9674
  197MOL0     H26546   9.842  10.109   1.649 -0.6574 -0.5438 -0.1025
  197MOL0     H26547  10.051  10.266   1.740 -1.9275 -0.6372 -1.0573
  197MOL0     H26548  10.139  10.297   1.609 -1.4049  0.6833 -2.5612
  197MOL0     H26549  10.038  10.533   1.586  0.2211 -1.0182 -0.8285
  197MOL0     H26550   9.954  10.498   1.742 -0.1216  1.6550 -0.1409
  197MOL0     H26551  10.255  10.506   1.696  1.4397  2.0438  1.0404
  197MOL0     H26552  10.179  10.502   1.859  1.0510  2.2950  0.8393
  197MOL0     H26553  10.141  10.719   1.662  1.0877  0.5785 -0.7460
  197MOL0     H26554  10.254  10.736   1.794 -0.7474  1.9030 -3.2715
  197MOL0     H26555   9.865  10.705   2.049 -0.1596  2.8232 -0.3716
  197MOL0     H26556   9.881  10.674   2.271 -1.3342  0.6332 -1.4901
  197MOL0     H26557  10.379  10.755   2.652 -4.5120  1.1875 -3.1915
  197MOL0     H26558  10.410  10.698   2.894  1.7690  1.4092 -2.9401
  197MOL0     H26559  10.099  10.454   3.049 -2.3066 -3.4770  2.6567
  197MOL0     H26560  10.231  10.342   3.078 -0.5626 -0.3152  1.5171
  197MOL0     H26561  10.171  10.559   3.264 -0.0311  0.3800 -1.1955
  197MOL0     H26562  10.108  10.408   3.275 -0.5335 -1.6018 -1.2665
  197MOL0     H26563  10.356  10.297   3.272  0.8588 -0.8103  1.2862
  197MOL0     H26564  10.411  10.461   3.310 -1.2317  2.7109  1.6402
  197MOL0     H26565  10.224  10.457   3.481 -0.6917  0.6525 -3.2725
  197MOL0     H26566  10.387  10.389   3.512 -1.4309  0.7426  0.0312
  197MOL0     H26567  10.349  10.188   3.510 -0.1664  0.4498 -0.7302
  197MOL0     H26568  10.197  10.195   3.401  2.6578 -1.6211 -0.8052
  197MOL0     H26569  10.266  10.323   3.673  3.0678 -1.4450 -1.7211
  197MOL0     H26570  10.094  10.299   3.616 -0.1457  1.0617  1.2174
  197MOL0     H26571  10.295  10.091   3.732  1.2550  2.3452 -0.4251
  197MOL0     H26572  10.129  10.057   3.670 -1.3514  1.6557 -1.6344
  197MOL0     H26573  10.241  10.219   3.897  1.5157  0.3029 -2.3915
  197MOL0     H26574  10.093  10.278   3.845 -2.2175 -0.3148 -0.5150
  197MOL0     H26575  10.131  10.389   2.866  1.7426 -1.2679  0.1982
  197MOL0     H26576  10.103  10.437   2.624 -0.5547  1.2385  1.5319
  197MOL0     H26577  10.325  10.675   2.236 -1.4401 -0.4463  3.5134
  197MOL0     H26578  10.293  10.707   1.995 -0.6544 -1.0252 -1.1771
  197MOL0     H26579   9.559   9.431   0.639 -1.6032 -0.1621 -0.8118
  197MOL0     H26580   9.562   9.185   0.527 -0.2857  0.7993 -0.8705
  197MOL0     H26581   9.381   8.757   0.652 -0.5698  4.2248 -0.9545
  197MOL0     H26582   9.351   8.529   0.562  0.7214 -0.2254 -1.1307
  197MOL0     H26583   9.161   8.301   0.263 -2.8749 -1.0254 -1.3337
  197MOL0     H26584   9.187   8.452   0.194 -0.3404 -2.3497 -1.5619
  197MOL0     H26585   8.950   8.495   0.357 -3.1992 -1.3464  0.5070
  197MOL0     H26586   8.945   8.331   0.305  4.6137 -1.0235  3.3470
  197MOL0     H26587   8.990   8.569   0.106 -0.5619 -1.0468 -1.0674
  197MOL0     H26588   8.828   8.497   0.145 -0.6177 -0.4427  1.9393
  197MOL0     H26589   8.912   8.271   0.065  1.5426 -1.4541 -0.3524
  197MOL0     H26590   8.874   8.399  -0.050 -1.1643  1.1567  1.0287
  197MOL0     H26591   9.301   8.367  -0.089  1.1742 -1.5730  3.0730
  197MOL0     H26592   9.065   8.674   0.286 -0.0401  0.7602  0.0964
  197MOL0     H26593   9.010   8.993   0.376  0.4090  2.9971 -0.5973
  197MOL0     H26594   9.176   9.013   0.300  1.4881 -3.2312  0.4051
  197MOL0     H26595   9.064   8.917   0.225  1.5852  3.4877 -1.5296
  198MOL0     O26596   5.804   4.575   7.111 -0.5124 -0.3753  0.0084
  198MOL0     C26597   5.887   4.533   7.036 -0.1222  1.0037  0.1477
  198MOL0     O26598   5.873   4.412   6.978 -0.4164 -0.4041 -0.0667
  198MOL0     C26599   5.749   4.353   6.977  1.6284 -0.6344 -0.4216
  198MOL0     C26600   5.697   4.318   7.104  0.2919 -0.1589 -0.1408
  198MOL0     C26601   5.583   4.231   7.120 -0.3498  1.4682  0.5497
  198MOL0     C26602   5.513   4.193   7.000  0.0093  0.9719  0.0162
  198MOL0     O26603   5.406   4.110   6.994 -0.8601 -0.4840  0.3245
  198MOL0     C26604   5.372   4.044   7.114  0.1584 -0.7252  0.0984
  198MOL0     C26605   5.263   4.121   7.191  0.8888 -0.5061 -0.5408
  198MOL0     C26606   5.126   4.122   7.132  0.2639  0.2652  0.7918
  198MOL0     C26607   5.052   4.235   7.183  0.8480 -0.0357  0.3037
  198MOL0     C26608   5.049   4.345   7.081  0.6110 -0.3663 -0.9363
  198MOL0     C26609   4.977   4.480   7.122 -0.1549  0.7116  0.0521
  198MOL0     C26610   4.824   4.481   7.149 -0.3320  0.1277  0.7868
  198MOL0     C26611   4.763   4.621   7.188 -0.3607  0.6206  0.6819
  198MOL0     N26612   4.766   4.715   7.076 -0.1274  0.2895 -0.3075
  198MOL0     C26613   4.769   4.846   7.083  0.1372 -0.3146 -0.7951
  198MOL0     C26614   4.788   4.880   6.956 -0.0347  0.1926  1.0012
  198MOL0     C26615   4.815   5.018   6.899  0.2304 -0.3747  0.7318
  198MOL0     C26616   4.965   5.045   6.868 -0.6320  0.1491  0.8618
  198MOL0     C26617   5.063   5.024   6.974  0.2719  0.0881 -0.5700
  198MOL0     C26618   5.049   5.129   7.087 -0.1772  0.1861  0.2214
  198MOL0     O26619   4.932   5.109   7.167  0.6351  0.0490  0.8191
  198MOL0     C26620   4.946   5.038   7.288  1.0710  1.0894 -0.5293
  198MOL0     C26621   4.856   5.053   7.390 -0.4405 -0.5407 -0.1101
  198MOL0     C26622   4.855   4.974   7.503  0.1194 -0.1391  0.0168
  198MOL0     C26623   4.948   4.865   7.520 -0.1423 -1.0307  0.0758
  198MOL0     C26624   4.963   4.811   7.653  0.5998  0.1879 -0.0170
  198MOL0     O26625   5.066   4.725   7.675  0.1893 -0.1199  0.1706
  198MOL0     C26626   5.044   4.638   7.774  0.4526  0.4195 -1.1134
  198MOL0     C26627   4.939   4.551   7.761 -0.0279 -0.0159 -0.4847
  198MOL0     C26628   4.919   4.444   7.849 -0.4553 -0.0782 -0.7465
  198MOL0     C26629   5.008   4.433   7.965  0.1183 -0.8965  0.0915
  198MOL0     O26630   5.002   4.325   8.053 -0.3138 -0.0349 -0.0885
  198MOL0     C26631   4.956   4.328   8.183  0.3700  0.3026  1.1488
  198MOL0     C26632   4.841   4.231   8.200  0.2960  0.0268 -0.4951
  198MOL0     C26633   4.773   4.248   8.335  0.5898  0.0784 -0.4415
  198MOL0     C26634   4.680   4.132   8.368 -0.0154 -0.1210 -0.2766
  198MOL0     C26635   4.601   4.146   8.497  0.0535  0.1026 -0.1667
  198MOL0     C26636   4.698   4.183   8.615  0.6648  0.7495 -0.8995
  198MOL0     C26637   4.613   4.185   8.739 -0.0013  1.3056 -0.8247
  198MOL0     C26638   4.710   4.215   8.850  0.5927  0.8699  0.0395
  198MOL0    Cl26639   4.618   4.185   9.001  0.2616 -0.1700  0.3701
  198MOL0     C26640   5.123   4.515   7.975 -0.0703 -0.4356  1.1509
  198MOL0     C26641   5.140   4.613   7.873  0.0727 -0.0164 -0.8028
  198MOL0     O26642   4.875   4.841   7.735 -0.2586 -0.1935  0.2973
  198MOL0     C26643   5.038   4.850   7.411  0.3260 -0.1372 -0.1496
  198MOL0     C26644   5.044   4.932   7.307  0.5401 -0.5472 -0.0339
  198MOL0     N26645   4.780   4.767   6.878 -0.2413 -0.2081  0.4625
  198MOL0     N26646   4.758   4.670   6.945  0.4213 -0.0813 -0.3069
  198MOL0     C26647   5.553   4.241   6.875 -0.2120  0.1338  0.7037
  198MOL0     C26648   5.672   4.315   6.865 -0.4109 -0.6366 -0.6119
  198MOL0     C26649   6.005   4.614   7.001  0.2124  0.2537 -0.3982
  198MOL0     C26650   6.055   4.600   6.872 -0.5333  0.2401 -0.8976
  198MOL0     C26651   6.149   4.687   6.826 -0.3465 -0.8149 -0.8799
  198MOL0     C26652   6.221   4.783   6.904  0.8710 -0.0085 -1.0159
  198MOL0     O26653   6.314   4.885   6.875 -0.0228  0.0164 -0.3788
  198MOL0     C26654   6.314   4.943   6.737 -0.3247 -0.9687  0.1832
  198MOL0     C26655   6.442   5.033   6.707  1.0252  0.0702 -0.0426
  198MOL0     C26656   6.450   5.155   6.815 -0.0859 -0.0071 -0.4752
  198MOL0     C26657   6.318   5.230   6.840  0.0997  0.0103  0.3720
  198MOL0     C26658   6.328   5.335   6.939  0.3845 -0.7416  0.4941
  198MOL0     C26659   6.355   5.416   7.023 -0.1721  0.2683 -0.9313
  198MOL0     C26660   6.174   4.789   7.040  0.7040  0.3923  0.4283
  198MOL0     C26661   6.062   4.709   7.085 -0.7699 -0.7160 -0.7756
  198MOL0     C26662   6.012   4.757   7.219 -1.0789  0.5123  0.4287
  198MOL0     H26663   5.748   4.354   7.193  1.1397 -0.3939 -0.5150
  198MOL0     H26664   5.560   4.188   7.217 -0.2001  2.2805  0.9502
  198MOL0     H26665   5.317   3.955   7.082 -0.0673 -1.1357  1.5443
  198MOL0     H26666   5.460   4.012   7.171  2.0121 -0.6560 -2.5630
  198MOL0     H26667   5.306   4.221   7.200 -1.9561  0.7284  0.6223
  198MOL0     H26668   5.254   4.081   7.292 -1.0052 -4.3669 -2.0287
  198MOL0     H26669   5.071   4.039   7.178 -1.4935  2.3060  2.6904
  198MOL0     H26670   5.130   4.123   7.023 -2.0892  2.3032  0.6427
  198MOL0     H26671   4.955   4.193   7.211  1.4864 -0.9844  1.1742
  198MOL0     H26672   5.090   4.276   7.277 -1.4555  0.2268  1.1716
  198MOL0     H26673   5.148   4.378   7.048  0.5970  0.9407  0.2204
  198MOL0     H26674   4.984   4.317   6.998 -0.2727  3.5965 -1.7523
  198MOL0     H26675   5.026   4.509   7.215  0.3635 -4.9481  1.9257
  198MOL0     H26676   4.999   4.559   7.049 -1.2678  2.8359  1.8857
  198MOL0     H26677   4.803   4.412   7.231  0.9349 -1.2586  0.0019
  198MOL0     H26678   4.772   4.434   7.065  0.5692 -3.8547  2.2322
  198MOL0     H26679   4.655   4.610   7.203 -0.3366 -0.9636 -0.1673
  198MOL0     H26680   4.814   4.667   7.273 -1.0959  0.2397  1.3422
  198MOL0     H26681   4.777   4.908   7.172  1.2319  1.4801 -2.0975
  198MOL0     H26682   4.748   5.023   6.812  1.8073 -4.7743 -1.0228
  198MOL0     H26683   4.782   5.095   6.970  2.5786  2.2000 -0.7650
  198MOL0     H26684   4.998   4.979   6.788  2.5014 -0.2550  2.3729
  198MOL0     H26685   4.985   5.144   6.826 -1.5187 -1.0079 -2.6382
  198MOL0     H26686   5.165   5.007   6.940  0.7145 -1.6123  1.3642
  198MOL0     H26687   5.044   4.926   7.020  1.8177 -0.3007 -0.6964
  198MOL0     H26688   5.075   5.229   7.051  1.3012 -0.3835 -0.3685
  198MOL0     H26689   5.137   5.116   7.151  0.2373  1.3788 -0.0707
  198MOL0     H26690   4.777   5.126   7.375  0.1665 -0.3243 -2.6913
  198MOL0     H26691   4.768   4.997   7.563  0.4545  1.0510  0.0695
  198MOL0     H26692   4.857   4.571   7.692 -0.0575  1.5914 -0.0236
  198MOL0     H26693   4.831   4.379   7.849  1.1066 -2.2969  0.0601
  198MOL0     H26694   5.039   4.298   8.248  0.0243 -1.0751  0.9790
  198MOL0     H26695   4.908   4.425   8.202  0.6930  0.8457 -0.5751
  198MOL0     H26696   4.772   4.242   8.115 -1.8701  4.3891  1.4927
  198MOL0     H26697   4.877   4.128   8.196 -0.0521 -0.0704 -2.1828
  198MOL0     H26698   4.842   4.255   8.418 -1.1473 -1.8379  1.2844
  198MOL0     H26699   4.706   4.334   8.339 -2.1878 -1.9663  0.2038
  198MOL0     H26700   4.733   4.038   8.382 -1.1776 -0.6462  0.7750
  198MOL0     H26701   4.615   4.115   8.282  1.6064 -1.2488 -1.3267
  198MOL0     H26702   4.545   4.052   8.504 -0.8724  0.7119  1.3578
  198MOL0     H26703   4.526   4.226   8.491  0.9081  1.0327  0.9553
  198MOL0     H26704   4.774   4.106   8.629  3.2742  3.1539 -0.7110
  198MOL0     H26705   4.753   4.278   8.609  2.6637 -0.4080 -1.6784
  198MOL0     H26706   4.564   4.089   8.754  2.1859  0.4600  1.7450
  198MOL0     H26707   4.532   4.259   8.731 -1.1579  0.2972  0.9418
  198MOL0     H26708   4.797   4.148   8.847 -0.0906 -0.0073 -2.0581
  198MOL0     H26709   4.739   4.320   8.843  1.2241  0.8440  1.7176
  198MOL0     H26710   5.193   4.503   8.057  0.7134  3.8792  1.3560
  198MOL0     H26711   5.225   4.682   7.879  0.1663 -0.0786 -1.3272
  198MOL0     H26712   5.122   4.783   7.420  0.1068 -0.4396 -0.3560
  198MOL0     H26713   5.105   4.910   7.220  2.1525 -1.2049  1.1975
  198MOL0     H26714   5.500   4.208   6.787 -1.1672  1.3211  0.8125
  198MOL0     H26715   5.695   4.336   6.762 -2.0221 -2.3480 -1.3886
  198MOL0     H26716   6.011   4.537   6.795 -0.1602 -0.0576 -0.8737
  198MOL0     H26717   6.178   4.684   6.721 -1.5692 -0.1084 -1.2621
  198MOL0     H26718   6.227   5.009   6.728 -0.1625 -0.7136  0.4576
  198MOL0     H26719   6.311   4.865   6.660  0.1421  1.0542 -2.0228
  198MOL0     H26720   6.446   5.073   6.606 -0.5766  1.2456  0.3151
  198MOL0     H26721   6.528   4.968   6.727 -0.9274 -1.9764  2.4804
  198MOL0     H26722   6.535   5.222   6.800  1.2934 -0.8315  2.8403
  198MOL0     H26723   6.467   5.098   6.907  0.4620  1.4243  0.3314
  198MOL0     H26724   6.301   5.290   6.750  2.8804  0.1396 -0.1388
  198MOL0     H26725   6.237   5.164   6.872  0.9678 -0.7385  1.0881
  198MOL0     H26726   6.370   5.494   7.095 -1.7559  1.7902 -2.1703
  198MOL0     H26727   6.210   4.869   7.104 -0.8348  1.7051 -0.2915
  198MOL0     H26728   5.948   4.843   7.198  1.6754  1.6580 -5.0809
  198MOL0     H26729   5.978   4.675   7.283 -2.4631  1.1883  0.6008
  198MOL0     H26730   6.092   4.801   7.280  0.5369 -0.8197 -0.6347
  199MOL0     O26731   2.343   3.489   1.714 -0.0344  0.4451  0.3647
  199MOL0     C26732   2.454   3.484   1.767  0.0927  0.1164 -0.4923
  199MOL0     O26733   2.481   3.441   1.895  1.2474  0.3617  0.0152
  199MOL0     C26734   2.380   3.429   1.992 -1.3629 -0.2969  0.2175
  199MOL0     C26735   2.247   3.437   1.965  0.1577  0.7400 -0.9137
  199MOL0     C26736   2.152   3.439   2.065 -1.1959  0.1303 -0.5052
  199MOL0     C26737   2.189   3.422   2.199  0.0058 -0.0066  0.5058
  199MOL0     O26738   2.089   3.410   2.287  0.3940  0.2914 -0.2850
  199MOL0     C26739   2.116   3.461   2.414 -0.0642  0.3118 -0.1633
  199MOL0     C26740   1.987   3.473   2.499 -0.5012 -0.3084 -0.2207
  199MOL0     C26741   1.930   3.327   2.523  0.0869 -0.0559  0.3374
  199MOL0     C26742   1.814   3.332   2.624 -0.1476 -0.1146 -0.0485
  199MOL0     C26743   1.787   3.182   2.683 -0.0707 -0.3472 -0.4012
  199MOL0     C26744   1.653   3.200   2.771  0.0833  0.2235  0.0572
  199MOL0     C26745   1.587   3.066   2.820 -0.7061 -0.4692 -1.1020
  199MOL0     C26746   1.471   3.104   2.919 -0.4375 -0.6674  0.0371
  199MOL0     N26747   1.402   2.994   2.985  0.2270 -0.0070  0.2090
  199MOL0     C26748   1.305   3.016   3.074  0.3021 -0.9087 -0.0742
  199MOL0     C26749   1.263   2.891   3.102  0.0953 -0.0006 -0.0733
  199MOL0     C26750   1.150   2.855   3.190  0.3056 -0.2174 -0.2299
  199MOL0     C26751   1.196   2.846   3.344  0.4226 -0.0651  0.4164
  199MOL0     C26752   1.329   2.770   3.367  0.4335 -0.3347  0.7025
  199MOL0     C26753   1.348   2.747   3.519 -0.1468  0.2691 -0.2099
  199MOL0     O26754   1.238   2.706   3.598  0.6678  0.5312 -0.4760
  199MOL0     C26755   1.244   2.761   3.721  0.2419 -0.5990 -0.7228
  199MOL0     C26756   1.176   2.878   3.765 -0.1156 -0.2323  0.6398
  199MOL0     C26757   1.167   2.915   3.906  0.0255  0.7021  0.0211
  199MOL0     C26758   1.240   2.840   4.004  0.0513 -0.0821  0.2250
  199MOL0     C26759   1.232   2.863   4.147  0.1758  0.1351 -0.2715
  199MOL0     O26760   1.306   2.776   4.225 -0.1778  0.0529  0.9522
  199MOL0     C26761   1.332   2.771   4.355  0.0504  0.5753  0.3925
  199MOL0     C26762   1.421   2.671   4.380 -0.1048  0.1090 -0.1748
  199MOL0     C26763   1.480   2.662   4.505 -0.3074 -0.3485  0.4949
  199MOL0     C26764   1.425   2.734   4.612  0.3892 -0.3294 -0.4446
  199MOL0     O26765   1.463   2.693   4.734  0.2632 -0.0948  0.2246
  199MOL0     C26766   1.396   2.743   4.848 -0.7873  0.1209 -0.1627
  199MOL0     C26767   1.480   2.855   4.906 -0.3379  1.0190 -0.2418
  199MOL0     C26768   1.621   2.799   4.944  0.1250  0.5595 -0.6250
  199MOL0     C26769   1.678   2.896   5.043 -0.1141  0.7163 -0.8557
  199MOL0     C26770   1.790   2.834   5.140  0.1140 -0.2379 -0.0385
  199MOL0     C26771   1.900   2.754   5.068 -0.0132  0.9045 -0.0218
  199MOL0     C26772   2.001   2.693   5.177 -0.0578 -0.6820 -0.2083
  199MOL0     C26773   1.982   2.555   5.227  0.7326 -0.1599 -0.2077
  199MOL0    Cl26774   2.137   2.497   5.279  0.3481 -0.2511  0.0188
  199MOL0     C26775   1.328   2.841   4.584  0.2780  0.3375  0.3278
  199MOL0     C26776   1.285   2.853   4.456  1.0385  0.4154  0.4168
  199MOL0     O26777   1.166   2.958   4.188 -0.6368  0.0068 -0.0888
  199MOL0     C26778   1.303   2.727   3.956 -0.7202 -0.3506 -0.2621
  199MOL0     C26779   1.307   2.696   3.823  0.4777  1.7378  1.1734
  199MOL0     N26780   1.328   2.794   3.023  0.6801  0.3555 -0.3385
  199MOL0     N26781   1.420   2.864   2.966  0.7296 -1.4926  0.1133
  199MOL0     C26782   2.325   3.401   2.233  0.0632 -0.3870 -0.5082
  199MOL0     C26783   2.418   3.422   2.135 -0.0875 -0.0046  0.2129
  199MOL0     C26784   2.574   3.523   1.689  0.8869 -0.7657  0.9977
  199MOL0     C26785   2.593   3.445   1.578 -0.6166  0.4610  0.0900
  199MOL0     C26786   2.712   3.461   1.507 -1.0667  0.0688 -0.3850
  199MOL0     C26787   2.816   3.563   1.539 -0.1542  0.4809  0.4888
  199MOL0     O26788   2.938   3.571   1.479 -0.5361  0.5436 -0.0022
  199MOL0     C26789   2.965   3.490   1.366  0.1017  0.9401  0.7928
  199MOL0     C26790   3.109   3.523   1.314 -0.6506 -0.4474 -0.0374
  199MOL0     C26791   3.225   3.473   1.407 -0.0926  0.4670 -0.8137
  199MOL0     C26792   3.241   3.313   1.415 -0.4672 -0.5081  0.4753
  199MOL0     C26793   3.368   3.260   1.475  0.1689  0.1290  1.5125
  199MOL0     C26794   3.466   3.204   1.512 -0.2411  1.6934 -0.3108
  199MOL0     C26795   2.795   3.634   1.655  0.7788 -0.4575 -0.4077
  199MOL0     C26796   2.676   3.618   1.725 -0.5285 -1.0902  0.0749
  199MOL0     C26797   2.675   3.705   1.852 -0.2187  0.1950  0.0655
  199MOL0     H26798   2.204   3.433   1.866  3.1761  1.3590 -2.3850
  199MOL0     H26799   2.047   3.448   2.040 -1.1074  1.6599 -0.4094
  199MOL0     H26800   2.181   3.401   2.478 -2.4938  1.2905  3.5309
  199MOL0     H26801   2.153   3.564   2.411 -2.2726  1.1312 -2.4815
  199MOL0     H26802   1.916   3.530   2.438  0.6616 -0.5813 -1.9074
  199MOL0     H26803   1.987   3.534   2.590 -1.9402 -0.1965 -0.2669
  199MOL0     H26804   2.007   3.263   2.567 -2.0588 -0.9427  3.0970
  199MOL0     H26805   1.886   3.275   2.437 -0.7654 -0.4843  1.0163
  199MOL0     H26806   1.824   3.410   2.699 -1.0431  0.8727 -0.9104
  199MOL0     H26807   1.728   3.370   2.568  0.3321  0.2199 -0.5734
  199MOL0     H26808   1.776   3.104   2.606 -0.8955  0.3787 -1.0421
  199MOL0     H26809   1.872   3.160   2.748  0.6481 -0.5640 -1.3849
  199MOL0     H26810   1.683   3.253   2.861 -0.0378  0.1682  0.1304
  199MOL0     H26811   1.579   3.259   2.716 -1.0042  2.1259  3.3050
  199MOL0     H26812   1.661   3.011   2.878 -0.5689  0.7744 -0.0524
  199MOL0     H26813   1.559   3.003   2.735 -2.6368 -0.0000 -0.8486
  199MOL0     H26814   1.502   3.176   2.995 -1.4784  2.0538 -1.9477
  199MOL0     H26815   1.402   3.161   2.856  0.4314  2.3944  1.6290
  199MOL0     H26816   1.282   3.115   3.114  0.2174  0.2818 -2.8732
  199MOL0     H26817   1.073   2.931   3.172 -0.8001 -1.3555 -0.4737
  199MOL0     H26818   1.104   2.758   3.168 -1.6756  0.1937  1.6726
  199MOL0     H26819   1.195   2.947   3.387  0.7339 -0.5066  1.4956
  199MOL0     H26820   1.118   2.788   3.394  0.8641 -1.0320  0.0011
  199MOL0     H26821   1.415   2.824   3.326  1.3858 -2.4841 -0.2796
  199MOL0     H26822   1.326   2.668   3.327  0.9472  0.1221 -0.5672
  199MOL0     H26823   1.404   2.830   3.564  2.8389 -1.1388 -1.0647
  199MOL0     H26824   1.421   2.666   3.526 -2.7351 -2.1225  1.2794
  199MOL0     H26825   1.127   2.943   3.693 -0.2097  2.3359  2.8614
  199MOL0     H26826   1.100   2.994   3.937  0.0953 -0.0086  2.1090
  199MOL0     H26827   1.464   2.610   4.302 -2.2918 -1.2491 -0.4034
  199MOL0     H26828   1.552   2.582   4.517  0.2024  0.2599  1.6500
  199MOL0     H26829   1.301   2.784   4.813  0.4103  4.1026  0.7887
  199MOL0     H26830   1.380   2.661   4.919 -2.2917 -1.2152 -1.9228
  199MOL0     H26831   1.495   2.942   4.842  0.8613  1.2519  0.3273
  199MOL0     H26832   1.429   2.882   4.999  1.0783  1.2870  0.4842
  199MOL0     H26833   1.639   2.697   4.978  4.3190  1.4434  0.4615
  199MOL0     H26834   1.688   2.788   4.858  0.3620 -2.5736 -0.1496
  199MOL0     H26835   1.591   2.925   5.102  0.6843 -0.3131  0.9207
  199MOL0     H26836   1.730   2.984   5.005  4.6173 -0.7163  1.4932
  199MOL0     H26837   1.748   2.762   5.211 -1.6063 -2.3854 -2.9733
  199MOL0     H26838   1.836   2.916   5.196 -3.0370  0.9212  1.0733
  199MOL0     H26839   1.852   2.672   5.014 -1.0690 -0.0727  2.2849
  199MOL0     H26840   1.959   2.819   5.003  1.4323  1.4352  1.7258
  199MOL0     H26841   1.998   2.757   5.265 -1.1367  0.6704 -1.1909
  199MOL0     H26842   2.103   2.710   5.139 -0.4221  0.6164 -0.6300
  199MOL0     H26843   1.892   2.558   5.290  0.5394  1.8403 -0.4990
  199MOL0     H26844   1.958   2.499   5.136  1.5075  2.4149 -2.1096
  199MOL0     H26845   1.280   2.908   4.654 -2.1271  0.0744 -0.9756
  199MOL0     H26846   1.204   2.923   4.438  1.6343  0.4762 -2.5481
  199MOL0     H26847   1.336   2.654   4.029 -2.4938  0.2151  1.1560
  199MOL0     H26848   1.367   2.611   3.794 -0.3742  1.4046  0.3494
  199MOL0     H26849   2.349   3.392   2.338 -1.2496 -3.2132 -0.3634
  199MOL0     H26850   2.525   3.420   2.152 -0.1380  0.2913  0.5740
  199MOL0     H26851   2.515   3.383   1.537  1.3525 -0.6660 -2.1869
  199MOL0     H26852   2.725   3.399   1.419 -2.4981 -1.3067  0.3132
  199MOL0     H26853   2.898   3.518   1.284  1.5773  3.7945  0.4081
  199MOL0     H26854   2.958   3.386   1.398  1.4784  0.7434  0.5112
  199MOL0     H26855   3.120   3.626   1.281  1.3382 -0.7181 -0.3267
  199MOL0     H26856   3.130   3.469   1.222 -3.5555 -3.6715  0.9623
  199MOL0     H26857   3.209   3.511   1.509  1.1195 -0.1020 -0.3945
  199MOL0     H26858   3.317   3.521   1.373 -0.6386  2.0773 -0.1442
  199MOL0     H26859   3.153   3.277   1.470 -2.0484 -0.1373 -1.7261
  199MOL0     H26860   3.236   3.282   1.310 -0.3400 -1.4757  0.7383
  199MOL0     H26861   3.560   3.158   1.538 -0.9195  0.4670  0.0192
  199MOL0     H26862   2.876   3.700   1.685  2.3419 -0.6418 -3.7992
  199MOL0     H26863   2.573   3.722   1.888 -0.3911 -0.1084 -0.2726
  199MOL0     H26864   2.737   3.669   1.934 -2.0179 -1.9438  0.5764
  199MOL0     H26865   2.719   3.800   1.822  2.0011  0.5447  3.7528
  200MOL0     O26866   7.722   6.062   0.967  0.6515  0.8567  0.4451
  200MOL0     C26867   7.777   6.072   1.073  0.7273  0.3536 -0.7793
  200MOL0     O26868   7.888   6.154   1.092  0.6020 -0.0605  0.2929
  200MOL0     C26869   7.892   6.263   1.000  0.6939 -0.2749  0.2802
  200MOL0     C26870   7.825   6.375   1.039  0.3795 -1.4244  0.8468
  200MOL0     C26871   7.815   6.495   0.965  0.2807 -0.3163 -0.1500
  200MOL0     C26872   7.887   6.498   0.833  0.4473  0.0268 -0.1627
  200MOL0     O26873   7.910   6.600   0.749 -0.9651  0.2404  0.2306
  200MOL0     C26874   7.840   6.727   0.774  0.3788 -0.9372  0.0996
  200MOL0     C26875   7.869   6.821   0.654 -0.0410  0.6621  0.1385
  200MOL0     C26876   7.829   6.968   0.681  1.0347  0.0674 -0.1181
  200MOL0     C26877   7.901   7.051   0.567 -0.7272 -0.3117 -0.5599
  200MOL0     C26878   7.887   7.203   0.597  0.7693  0.6929  0.1224
  200MOL0     C26879   7.935   7.291   0.476 -0.4720  0.2275 -0.0710
  200MOL0     C26880   8.064   7.375   0.514 -0.2759 -0.0857 -0.1750
  200MOL0     C26881   8.034   7.464   0.641  0.3306 -0.6852  0.0925
  200MOL0     N26882   7.913   7.538   0.638 -0.1995  0.5424  0.3964
  200MOL0     C26883   7.879   7.642   0.559 -0.4920  0.2874  0.7442
  200MOL0     C26884   7.747   7.655   0.578  0.1539 -0.7157 -0.3583
  200MOL0     C26885   7.664   7.750   0.508 -0.0772  0.4459  0.4822
  200MOL0     C26886   7.592   7.852   0.594  1.4032 -0.0784  0.3482
  200MOL0     C26887   7.682   7.932   0.675  0.1192 -0.2910 -0.8545
  200MOL0     C26888   7.789   7.998   0.594  0.1026 -0.8652 -0.0244
  200MOL0     O26889   7.866   8.089   0.673  0.1231 -0.0966  0.4941
  200MOL0     C26890   7.817   8.213   0.694  0.3692  0.0093  1.4112
  200MOL0     C26891   7.904   8.302   0.747 -0.1234 -1.0169 -0.0947
  200MOL0     C26892   7.885   8.443   0.739  0.5063 -0.1175 -0.0717
  200MOL0     C26893   7.766   8.491   0.691 -0.5460 -0.1509 -0.0670
  200MOL0     C26894   7.736   8.646   0.697 -0.0103  0.5917 -0.9768
  200MOL0     O26895   7.607   8.687   0.721 -0.3619  0.6835  0.5778
  200MOL0     C26896   7.579   8.817   0.746  0.1609  0.8068  0.1541
  200MOL0     C26897   7.484   8.856   0.851 -1.2146  0.2655 -0.9459
  200MOL0     C26898   7.445   8.984   0.869 -0.1735 -0.7791  0.1771
  200MOL0     C26899   7.492   9.091   0.785 -0.3493 -0.1377 -0.3301
  200MOL0     O26900   7.440   9.213   0.807 -0.0173 -0.6153 -0.0075
  200MOL0     C26901   7.492   9.318   0.724 -0.0885 -0.3602 -0.4292
  200MOL0     C26902   7.442   9.457   0.776 -0.0687  0.3029  0.5809
  200MOL0     C26903   7.289   9.490   0.765 -0.6918  0.1731  0.1312
  200MOL0     C26904   7.246   9.553   0.904  0.6554 -0.1213  0.6786
  200MOL0     C26905   7.090   9.562   0.897  0.1918  0.1967 -0.0556
  200MOL0     C26906   7.033   9.635   1.021  0.5049  0.2333  0.1927
  200MOL0     C26907   6.869   9.623   1.014  1.2145  0.3109  0.1362
  200MOL0     C26908   6.803   9.684   1.148  0.4512 -0.3101 -0.2619
  200MOL0    Cl26909   6.620   9.707   1.127  0.1023 -0.0929 -0.1111
  200MOL0     C26910   7.561   9.045   0.675 -0.9850  0.1634  0.6959
  200MOL0     C26911   7.608   8.915   0.650  0.5278  0.7565  0.0759
  200MOL0     O26912   7.835   8.713   0.693  0.1356 -0.1093  0.4709
  200MOL0     C26913   7.660   8.402   0.669  0.6170 -0.1909 -0.6900
  200MOL0     C26914   7.690   8.265   0.653 -1.0898  0.2001 -0.8246
  200MOL0     N26915   7.701   7.577   0.676 -0.9956  0.0544 -0.1808
  200MOL0     N26916   7.807   7.504   0.709 -0.0275  0.3794 -0.7512
  200MOL0     C26917   7.957   6.378   0.798 -0.3776 -0.2163 -0.7680
  200MOL0     C26918   7.962   6.262   0.880  1.2056  0.1236  0.4293
  200MOL0     C26919   7.739   5.978   1.192  0.0639 -0.6419 -1.8386
  200MOL0     C26920   7.826   5.986   1.305  0.2733 -0.3873  0.0392
  200MOL0     C26921   7.801   5.905   1.414  0.4735  0.2040  0.3281
  200MOL0     C26922   7.702   5.805   1.425 -0.4432 -1.1837  0.3416
  200MOL0     O26923   7.692   5.719   1.531 -0.9820  0.0736  0.4762
  200MOL0     C26924   7.614   5.604   1.529  1.5781 -0.2737 -1.0337
  200MOL0     C26925   7.618   5.522   1.662  0.1128 -0.3470 -0.7432
  200MOL0     C26926   7.557   5.376   1.644  0.5691  0.0282  0.0456
  200MOL0     C26927   7.407   5.356   1.613 -0.4998  0.1876  0.7001
  200MOL0     C26928   7.338   5.401   1.730 -0.2943 -0.6520  0.2683
  200MOL0     C26929   7.260   5.436   1.806 -0.5737  0.2372 -0.0950
  200MOL0     C26930   7.627   5.792   1.313  0.6538  0.3690 -1.0073
  200MOL0     C26931   7.642   5.874   1.201 -0.2190 -0.3794 -0.1017
  200MOL0     C26932   7.545   5.853   1.093 -0.2989  0.4583 -0.7599
  200MOL0     H26933   7.763   6.376   1.128 -1.5370  2.5886 -0.2759
  200MOL0     H26934   7.763   6.583   1.001 -2.9350 -2.2079  0.2124
  200MOL0     H26935   7.733   6.714   0.792  0.6973 -2.0252  1.3756
  200MOL0     H26936   7.880   6.782   0.860  4.0170 -1.1897 -1.2480
  200MOL0     H26937   7.812   6.785   0.568  0.7581  2.7093 -1.3484
  200MOL0     H26938   7.973   6.813   0.621 -0.7770 -1.3629 -1.9121
  200MOL0     H26939   7.870   6.995   0.779  1.1891 -0.4440 -0.0363
  200MOL0     H26940   7.721   6.983   0.689  1.6175  5.0913  2.0204
  200MOL0     H26941   8.009   7.044   0.551 -0.5823  0.4941  0.0028
  200MOL0     H26942   7.853   7.017   0.475  0.6152 -2.0228 -0.6668
  200MOL0     H26943   7.783   7.234   0.611  0.8905  2.0405 -1.5902
  200MOL0     H26944   7.945   7.220   0.688 -0.0515  2.9098  0.2982
  200MOL0     H26945   7.958   7.237   0.384 -2.0762 -0.1725 -0.2749
  200MOL0     H26946   7.855   7.361   0.449 -1.2661 -0.1251  1.2472
  200MOL0     H26947   8.087   7.438   0.427 -3.5591  2.1730  0.3855
  200MOL0     H26948   8.149   7.308   0.532 -0.8911 -0.4020  1.7353
  200MOL0     H26949   8.032   7.396   0.727  1.9024 -0.0385  0.6760
  200MOL0     H26950   8.107   7.543   0.661  0.3451  0.0220 -2.4311
  200MOL0     H26951   7.955   7.697   0.505 -0.9129 -0.0459 -0.2037
  200MOL0     H26952   7.718   7.792   0.423  1.7673 -3.5969 -0.5622
  200MOL0     H26953   7.586   7.686   0.465  0.7451 -0.6772  0.6388
  200MOL0     H26954   7.537   7.907   0.517  0.1746 -2.0816 -0.2687
  200MOL0     H26955   7.516   7.800   0.653  0.8505  0.5308  0.1887
  200MOL0     H26956   7.735   7.876   0.753 -1.5962  1.2288  1.5481
  200MOL0     H26957   7.622   8.011   0.721 -0.2269 -1.1623  0.2495
  200MOL0     H26958   7.753   8.061   0.512 -3.0185 -1.0909  1.0204
  200MOL0     H26959   7.860   7.929   0.549  0.3438  0.5786 -1.9895
  200MOL0     H26960   7.998   8.276   0.795 -0.5798 -0.3082  1.2363
  200MOL0     H26961   7.970   8.505   0.767  1.9587 -1.4737 -1.2778
  200MOL0     H26962   7.432   8.788   0.917 -3.3400  3.2185  0.6725
  200MOL0     H26963   7.378   9.011   0.949 -2.6221  0.6105 -2.1619
  200MOL0     H26964   7.600   9.317   0.741 -0.4202 -1.3059  2.1651
  200MOL0     H26965   7.466   9.306   0.619 -1.1072  2.9069 -0.6560
  200MOL0     H26966   7.487   9.478   0.873  0.4495 -0.9525  0.6368
  200MOL0     H26967   7.495   9.530   0.714  0.2383  0.5358  1.1145
  200MOL0     H26968   7.265   9.545   0.674  3.5390  0.3425 -1.0671
  200MOL0     H26969   7.242   9.392   0.759  1.8014 -1.1340  0.8060
  200MOL0     H26970   7.286   9.655   0.908  1.3692 -0.4093  0.9774
  200MOL0     H26971   7.283   9.496   0.989 -0.8999  0.2556  1.6535
  200MOL0     H26972   7.032   9.469   0.895 -0.4002  0.5121  1.3568
  200MOL0     H26973   7.061   9.608   0.802  0.1842 -0.6882 -0.4927
  200MOL0     H26974   7.081   9.605   1.114  0.7269  1.9375  0.6639
  200MOL0     H26975   7.073   9.736   1.017  1.7956 -0.2969 -0.6901
  200MOL0     H26976   6.847   9.516   1.011 -0.0698  0.4448  2.2831
  200MOL0     H26977   6.840   9.674   0.922  0.4960 -1.5633 -0.7209
  200MOL0     H26978   6.824   9.625   1.238  0.3852  0.2234  0.1060
  200MOL0     H26979   6.851   9.782   1.155  0.0745 -0.1086 -0.4392
  200MOL0     H26980   7.594   9.112   0.596  0.6188  0.3174  1.4544
  200MOL0     H26981   7.649   8.882   0.555  1.0659  1.2964  0.1146
  200MOL0     H26982   7.563   8.440   0.638 -0.2509 -0.3601  1.6073
  200MOL0     H26983   7.601   8.208   0.629 -0.4701 -1.6053  0.8754
  200MOL0     H26984   8.002   6.377   0.699  2.0580  1.2016  0.2621
  200MOL0     H26985   8.022   6.176   0.853 -2.9316 -2.0475 -3.2082
  200MOL0     H26986   7.899   6.065   1.323 -2.3703  2.0179  1.0980
  200MOL0     H26987   7.848   5.921   1.510 -1.3470  0.8457  1.1619
  200MOL0     H26988   7.630   5.546   1.438 -0.4470  0.2247 -1.7538
  200MOL0     H26989   7.509   5.634   1.527  1.2872 -0.7086  2.0403
  200MOL0     H26990   7.576   5.584   1.742  1.6649  1.0028 -0.9053
  200MOL0     H26991   7.722   5.513   1.696  0.1010 -0.1647 -0.6574
  200MOL0     H26992   7.580   5.335   1.743  0.4662 -0.1440 -0.0027
  200MOL0     H26993   7.620   5.320   1.575 -0.2117  1.3480 -1.8004
  200MOL0     H26994   7.370   5.411   1.527 -1.0019 -0.2788  0.6147
  200MOL0     H26995   7.383   5.251   1.593 -1.8203  0.0474  2.6874
  200MOL0     H26996   7.191   5.477   1.877 -1.1684 -4.1556  2.2209
  200MOL0     H26997   7.553   5.713   1.322  2.4730 -1.2133  1.4242
  200MOL0     H26998   7.521   5.943   1.037 -0.1029 -0.0917 -1.7652
  200MOL0     H26999   7.579   5.772   1.026  0.4073  3.0491 -3.7957
  200MOL0     H27000   7.452   5.833   1.147  1.6075 -2.4140  1.7931
  201MOL0     O27001  10.165   3.605   8.735  0.4965  0.1061 -1.1315
  201MOL0     C27002  10.064   3.536   8.777 -0.6051  0.3552 -0.2816
  201MOL0     O27003   9.935   3.579   8.761  0.1075 -0.0872 -1.0641
  201MOL0     C27004   9.910   3.679   8.670 -0.2937  0.1901  0.6158
  201MOL0     C27005   9.891   3.644   8.537  0.3082  0.7405 -0.0635
  201MOL0     C27006   9.851   3.738   8.441  0.3374  1.6725 -0.8674
  201MOL0     C27007   9.832   3.875   8.473 -0.8510 -0.0259  0.1448
  201MOL0     O27008   9.772   3.959   8.381  0.0134 -0.0223 -0.1621
  201MOL0     C27009   9.860   4.068   8.349  0.0386  0.3075 -0.7872
  201MOL0     C27010   9.804   4.143   8.224  0.1008 -0.2750 -0.2597
  201MOL0     C27011   9.654   4.171   8.241  0.1993 -0.1665 -0.2266
  201MOL0     C27012   9.589   4.241   8.120  0.1268 -0.7125 -0.6300
  201MOL0     C27013   9.440   4.278   8.156 -0.2859  0.0927 -0.3053
  201MOL0     C27014   9.397   4.414   8.101  0.2029 -0.1341  0.7027
  201MOL0     C27015   9.261   4.477   8.108  0.0051 -0.4657 -0.2402
  201MOL0     C27016   9.182   4.467   8.241 -0.3092 -0.2162  0.1874
  201MOL0     N27017   9.033   4.466   8.246 -0.6300 -0.2378 -0.0874
  201MOL0     C27018   8.955   4.351   8.214 -0.2670 -0.0144 -0.6058
  201MOL0     C27019   8.835   4.407   8.210 -0.3258 -0.8697 -0.7383
  201MOL0     C27020   8.719   4.327   8.176  0.6136  0.0414  0.4956
  201MOL0     C27021   8.644   4.357   8.042 -0.6763  0.1565 -0.5793
  201MOL0     C27022   8.593   4.494   8.037  0.2373  0.6044  0.6345
  201MOL0     C27023   8.517   4.537   7.904 -0.5083 -0.6606  1.1106
  201MOL0     O27024   8.480   4.674   7.909  0.3703 -0.4756  0.0614
  201MOL0     C27025   8.346   4.704   7.919 -1.1708  0.7060 -0.1361
  201MOL0     C27026   8.240   4.620   7.923 -0.0713 -0.7726  0.5000
  201MOL0     C27027   8.106   4.664   7.897 -0.3592 -0.0643  0.1289
  201MOL0     C27028   8.077   4.799   7.877 -0.4807  0.4503  0.0458
  201MOL0     C27029   7.933   4.840   7.869 -0.0048 -0.3433  1.1059
  201MOL0     O27030   7.843   4.736   7.868 -0.5329  0.3775  0.3328
  201MOL0     C27031   7.712   4.781   7.849 -0.5760 -0.2077 -0.7006
  201MOL0     C27032   7.622   4.738   7.954  0.1801 -1.1363  0.3228
  201MOL0     C27033   7.489   4.757   7.944  0.8171  0.1115  0.8409
  201MOL0     C27034   7.441   4.825   7.831 -0.6664  0.4019  0.1134
  201MOL0     O27035   7.309   4.846   7.841 -0.0075  0.4063 -0.7713
  201MOL0     C27036   7.228   4.854   7.724  0.3808  0.2863  0.1304
  201MOL0     C27037   7.079   4.862   7.774  0.3822  0.4203 -0.9255
  201MOL0     C27038   6.979   4.862   7.651 -0.0880  0.6019  0.1302
  201MOL0     C27039   6.949   4.722   7.580  0.4996  0.0341  0.1193
  201MOL0     C27040   6.811   4.717   7.512  0.3404 -0.2361 -0.2690
  201MOL0     C27041   6.786   4.818   7.400 -0.6545  0.4338 -0.2767
  201MOL0     C27042   6.642   4.862   7.381 -0.5728 -0.3833  0.2806
  201MOL0     C27043   6.549   4.751   7.340 -0.7375  0.0728  0.4446
  201MOL0    Cl27044   6.383   4.827   7.343 -0.2367  0.2606  0.0136
  201MOL0     C27045   7.520   4.867   7.722  0.1008 -1.1156 -0.0563
  201MOL0     C27046   7.662   4.846   7.731  0.1691  0.0923 -0.3316
  201MOL0     O27047   7.907   4.965   7.870  0.7123 -0.1485  0.4280
  201MOL0     C27048   8.183   4.887   7.897 -0.4881  0.0977  0.4673
  201MOL0     C27049   8.316   4.843   7.909 -0.3051 -0.1522 -0.5642
  201MOL0     N27050   8.833   4.544   8.240  1.1569  0.4803  0.1122
  201MOL0     N27051   8.953   4.575   8.257  0.0277 -0.4863 -1.1345
  201MOL0     C27052   9.846   3.902   8.610 -0.2543  0.3235  0.3017
  201MOL0     C27053   9.881   3.809   8.706 -0.1535  0.6935 -0.6539
  201MOL0     C27054  10.097   3.412   8.856 -0.1485 -0.2967 -0.1376
  201MOL0     C27055  10.232   3.384   8.884 -0.3760  0.4234 -0.3559
  201MOL0     C27056  10.264   3.259   8.957 -0.4619  0.6507 -0.0720
  201MOL0     C27057  10.170   3.159   8.978 -1.4443 -0.7070 -0.8993
  201MOL0     O27058  10.210   3.043   9.035 -0.8568 -0.1353  0.2985
  201MOL0     C27059  10.119   2.941   9.075  0.5155  0.2277 -0.3761
  201MOL0     C27060  10.208   2.826   9.137  0.4495 -0.6732 -0.0463
  201MOL0     C27061  10.311   2.775   9.025  0.4093 -0.0736 -0.0095
  201MOL0     C27062  10.381   2.648   9.060  0.1604 -0.8775  0.2848
  201MOL0     C27063  10.492   2.625   8.970 -0.1076  0.4735 -0.7936
  201MOL0     C27064  10.569   2.619   8.878 -0.7739 -0.3386  0.6421
  201MOL0     C27065  10.037   3.186   8.936 -1.0602  0.8018 -0.5540
  201MOL0     C27066  10.004   3.310   8.885 -0.7286 -0.1086  0.7310
  201MOL0     C27067   9.856   3.328   8.848 -0.4527 -0.5221  0.2817
  201MOL0     H27068   9.899   3.538   8.514 -3.1672 -0.5786  3.5884
  201MOL0     H27069   9.828   3.716   8.337 -4.7704  4.0295 -0.5665
  201MOL0     H27070   9.862   4.150   8.421 -1.4850  1.6628 -2.1981
  201MOL0     H27071   9.954   4.019   8.323  0.1677 -0.6251  1.2474
  201MOL0     H27072   9.821   4.073   8.142  2.9403 -1.6573  1.3423
  201MOL0     H27073   9.861   4.236   8.221  1.1018 -0.8259  0.7785
  201MOL0     H27074   9.642   4.232   8.331  1.4160 -0.6562  0.2997
  201MOL0     H27075   9.608   4.074   8.259 -0.1854  0.6437  4.6983
  201MOL0     H27076   9.638   4.336   8.096  0.1932 -0.1780  1.3893
  201MOL0     H27077   9.608   4.182   8.030  1.2369  0.6647 -1.3536
  201MOL0     H27078   9.377   4.190   8.138 -1.5504  1.0633 -0.7116
  201MOL0     H27079   9.442   4.274   8.265 -0.5157 -2.2604 -0.3234
  201MOL0     H27080   9.467   4.482   8.150  1.1401 -0.4565 -0.1459
  201MOL0     H27081   9.412   4.411   7.992 -3.9906 -1.6527 -0.0248
  201MOL0     H27082   9.198   4.439   8.027 -2.3217  2.7297 -0.1187
  201MOL0     H27083   9.275   4.582   8.080  0.0580 -0.7941 -1.5038
  201MOL0     H27084   9.218   4.387   8.307 -2.3473 -0.1865  1.4173
  201MOL0     H27085   9.220   4.559   8.286  0.9686  0.3268 -1.8810
  201MOL0     H27086   8.999   4.255   8.186 -0.0587  0.5700 -2.3900
  201MOL0     H27087   8.763   4.228   8.169 -1.0202 -0.6712 -0.2865
  201MOL0     H27088   8.641   4.324   8.252  0.9385  1.6798  0.9359
  201MOL0     H27089   8.725   4.346   7.969 -0.6688  1.0253 -0.7080
  201MOL0     H27090   8.561   4.288   8.022  0.8302 -2.3780  1.2497
  201MOL0     H27091   8.683   4.555   8.028  0.1320  0.7451  0.5240
  201MOL0     H27092   8.539   4.522   8.128  2.2314  1.4865  1.6114
  201MOL0     H27093   8.442   4.464   7.872 -1.1310 -0.4058  1.9471
  201MOL0     H27094   8.595   4.534   7.827 -1.8516 -0.4242 -0.2802
  201MOL0     H27095   8.244   4.512   7.925 -1.1956 -0.9218 -2.1098
  201MOL0     H27096   8.027   4.590   7.899 -0.9282  0.5321  1.4032
  201MOL0     H27097   7.667   4.705   8.047  4.6080  1.6100 -0.5753
  201MOL0     H27098   7.420   4.699   8.004 -1.0630 -0.0054 -1.2652
  201MOL0     H27099   7.246   4.952   7.678 -3.7373 -0.1745 -3.0276
  201MOL0     H27100   7.228   4.781   7.642 -1.3615  1.4051 -0.9316
  201MOL0     H27101   7.037   4.784   7.839 -1.6218 -0.5956 -3.2487
  201MOL0     H27102   7.070   4.962   7.818 -0.3129  0.3839 -0.9658
  201MOL0     H27103   6.882   4.893   7.692 -0.2266  2.7127 -1.6542
  201MOL0     H27104   7.000   4.948   7.586 -2.4095  2.2220  1.3685
  201MOL0     H27105   6.955   4.644   7.656  2.1138  2.4274  2.6684
  201MOL0     H27106   7.031   4.699   7.511  0.9868  1.6770  0.0890
  201MOL0     H27107   6.729   4.729   7.582  2.8263 -0.8689  2.9983
  201MOL0     H27108   6.784   4.620   7.469 -1.9603  0.6899 -1.0608
  201MOL0     H27109   6.835   4.912   7.428  2.6017 -1.0107 -0.6205
  201MOL0     H27110   6.844   4.777   7.316 -1.9717 -0.5269 -0.7496
  201MOL0     H27111   6.649   4.943   7.308  2.1465 -1.1116 -0.3610
  201MOL0     H27112   6.609   4.910   7.473 -2.0403 -2.7497  1.0841
  201MOL0     H27113   6.566   4.721   7.236 -2.5073 -0.4681  0.2793
  201MOL0     H27114   6.560   4.661   7.401 -1.3043  1.3402  2.5170
  201MOL0     H27115   7.492   4.929   7.637  0.9672  1.9331  1.7244
  201MOL0     H27116   7.722   4.868   7.643 -3.4722  1.6079 -2.6928
  201MOL0     H27117   8.156   4.992   7.892 -0.2074  0.1671 -5.3249
  201MOL0     H27118   8.400   4.912   7.901  0.5030 -1.0880 -0.3255
  201MOL0     H27119   9.833   4.008   8.628 -2.1382  0.5453 -1.8906
  201MOL0     H27120   9.878   3.846   8.809 -1.4339  1.7482 -1.0413
  201MOL0     H27121  10.311   3.455   8.863  2.0453 -2.1009 -0.3280
  201MOL0     H27122  10.368   3.248   8.986 -0.2966  0.7890 -0.6021
  201MOL0     H27123  10.059   2.892   8.997 -0.5367 -0.1561  0.6395
  201MOL0     H27124  10.055   2.983   9.153  0.0842  2.1617 -1.7110
  201MOL0     H27125  10.144   2.739   9.154 -1.7837  1.0176  0.6612
  201MOL0     H27126  10.260   2.857   9.227  2.4974 -1.6294 -0.8254
  201MOL0     H27127  10.385   2.855   9.013 -1.8172  2.0630 -0.3283
  201MOL0     H27128  10.251   2.763   8.935  0.2592 -0.1404  0.0999
  201MOL0     H27129  10.431   2.679   9.152 -0.5697  2.9458 -0.4243
  201MOL0     H27130  10.311   2.564   9.057 -1.0722  0.1283 -2.1295
  201MOL0     H27131  10.652   2.612   8.810 -2.0039  2.3934 -1.3017
  201MOL0     H27132   9.955   3.119   8.955 -0.8084  0.2966 -1.1865
  201MOL0     H27133   9.851   3.348   8.740 -1.4689  1.0262  0.5961
  201MOL0     H27134   9.807   3.231   8.857 -0.2152 -1.1855 -3.8004
  201MOL0     H27135   9.818   3.416   8.900  1.9002  0.1630  0.9826
  202MOL0     O27136   9.038   8.928  10.981 -1.1469 -0.2663 -0.3021
  202MOL0     C27137   9.040   9.026  10.903 -0.2941  1.1592 -0.9100
  202MOL0     O27138   9.126   9.050  10.801 -0.0457 -0.4952 -0.5744
  202MOL0     C27139   9.235   8.969  10.777  0.2625  1.0811 -0.6848
  202MOL0     C27140   9.359   9.026  10.751 -0.2561  0.3932 -0.5117
  202MOL0     C27141   9.469   8.957  10.721  0.0356 -0.5072 -0.4724
  202MOL0     C27142   9.459   8.820  10.713 -0.2619 -0.3117 -0.3287
  202MOL0     O27143   9.564   8.733  10.681 -0.1182  0.7107 -0.2794
  202MOL0     C27144   9.703   8.794  10.653  0.5790  0.8396 -0.1559
  202MOL0     C27145   9.791   8.671  10.637  0.0375 -0.1829  0.0594
  202MOL0     C27146   9.769   8.598  10.499  0.0891 -0.4473  0.8060
  202MOL0     C27147   9.898   8.590  10.418  0.6299  0.3076 -0.5587
  202MOL0     C27148   9.854   8.508  10.297 -0.8632  0.3607  0.2134
  202MOL0     C27149   9.979   8.438  10.243 -0.4991  0.5146 -0.3911
  202MOL0     C27150   9.941   8.341  10.129  0.3814 -1.0175 -0.9634
  202MOL0     C27151   9.944   8.414   9.995  0.4901 -0.2504 -0.9649
  202MOL0     N27152  10.070   8.401   9.932 -0.7714 -0.3522  0.0623
  202MOL0     C27153  10.202   8.436   9.970  0.8167 -0.6720  0.4064
  202MOL0     C27154  10.291   8.345   9.911  0.1678 -0.2005 -0.5983
  202MOL0     C27155  10.438   8.348   9.926 -0.1770 -1.0548 -0.4784
  202MOL0     C27156  10.483   8.325  10.073 -0.3156  0.1796 -0.2537
  202MOL0     C27157  10.563   8.437  10.143 -0.4183 -0.6064  0.0072
  202MOL0     C27158  10.498   8.575  10.163  0.4174  0.0579 -0.4223
  202MOL0     O27159  10.402   8.564  10.269  0.1302 -0.3308  0.4531
  202MOL0     C27160  10.320   8.672  10.317 -0.3281  0.7280  0.6805
  202MOL0     C27161  10.296   8.781  10.232  0.1386  0.2726  0.6020
  202MOL0     C27162  10.224   8.895  10.277  0.2207  0.8646 -0.8470
  202MOL0     C27163  10.174   8.896  10.410  0.3577 -0.1346 -1.0258
  202MOL0     C27164  10.087   8.997  10.458  0.0310  0.0261  0.0620
  202MOL0     O27165  10.098   9.039  10.587 -0.3385  0.3925 -0.2000
  202MOL0     C27166   9.999   9.111  10.647  0.0806 -0.3401 -0.4530
  202MOL0     C27167   9.914   9.038  10.732  0.2205 -0.7635 -0.0617
  202MOL0     C27168   9.802   9.103  10.785 -0.5881 -0.2778  0.0985
  202MOL0     C27169   9.775   9.247  10.764  0.4461  1.2021  0.5334
  202MOL0     O27170   9.676   9.303  10.834  0.3386 -0.2899 -0.3105
  202MOL0     C27171   9.609   9.418  10.766  0.7089 -0.0290 -0.8143
  202MOL0     C27172   9.678   9.540  10.826 -0.0490  0.9346  0.7288
  202MOL0     C27173   9.661   9.667  10.742  0.6730 -0.1490  0.1141
  202MOL0     C27174   9.722   9.797  10.793  0.4251  1.2615 -0.4523
  202MOL0     C27175   9.674   9.920  10.708  0.1433 -0.4161 -0.4002
  202MOL0     C27176   9.677  10.035  10.810  0.4205  0.2840 -0.1034
  202MOL0     C27177   9.661  10.167  10.740 -0.1995  0.3989  0.0722
  202MOL0     C27178   9.622  10.290  10.830 -0.8876 -0.0873  0.7103
  202MOL0    Cl27179   9.706  10.279  10.999  0.1905 -0.4055 -0.1318
  202MOL0     C27180   9.873   9.308  10.684 -1.1115 -0.4803 -0.5580
  202MOL0     C27181   9.977   9.250  10.615 -0.6731 -0.3843  0.8293
  202MOL0     O27182  10.010   9.043  10.373 -0.3725  0.2455  0.3972
  202MOL0     C27183  10.187   8.784  10.495 -0.1392 -1.4163 -0.1060
  202MOL0     C27184  10.264   8.675  10.444 -0.1504 -0.1505 -0.0407
  202MOL0     N27185  10.217   8.274   9.824  0.2042  0.7703  0.8849
  202MOL0     N27186  10.091   8.300   9.849 -0.2213  0.0810 -0.3292
  202MOL0     C27187   9.338   8.757  10.736 -1.0039  0.6167  0.8271
  202MOL0     C27188   9.225   8.825  10.764 -0.5962 -0.2460 -0.5306
  202MOL0     C27189   8.924   9.114  10.916  0.1729  0.4327 -0.0055
  202MOL0     C27190   8.903   9.215  10.821 -0.2189 -0.2564  0.5650
  202MOL0     C27191   8.800   9.309  10.823 -0.4238 -0.0668 -0.1657
  202MOL0     C27192   8.695   9.300  10.913 -0.8158 -0.3944 -0.2320
  202MOL0     O27193   8.577   9.368  10.889  0.4126  0.8096  0.3032
  202MOL0     C27194   8.524   9.443  11.001 -0.3614  0.7906  0.8877
  202MOL0     C27195   8.620   9.536  11.077 -0.5608 -0.1507 -0.1484
  202MOL0     C27196   8.671   9.669  11.009 -0.7591 -0.3466 -0.5242
  202MOL0     C27197   8.753   9.758  11.100  0.0644  0.1186 -0.1027
  202MOL0     C27198   8.896   9.723  11.132 -0.0407  0.3766  0.3529
  202MOL0     C27199   9.003   9.696  11.180 -0.0377  0.2764  0.6858
  202MOL0     C27200   8.702   9.199  11.008  0.2221 -0.0649 -0.0178
  202MOL0     C27201   8.815   9.112  11.016  0.3282 -0.1244  0.5738
  202MOL0     C27202   8.816   9.012  11.120 -0.1679  1.1294 -0.3052
  202MOL0     H27203   9.369   9.133  10.766  3.0610 -0.0472  1.6121
  202MOL0     H27204   9.562   9.013  10.725 -1.5472  2.2818  0.1846
  202MOL0     H27205   9.695   8.860  10.567  0.0464  1.6726  0.5188
  202MOL0     H27206   9.741   8.844  10.742  1.6559 -1.5418  0.8259
  202MOL0     H27207   9.757   8.602  10.715  0.3242  1.2869  1.5478
  202MOL0     H27208   9.894   8.708  10.638 -1.3444  4.1622  0.1481
  202MOL0     H27209   9.689   8.638  10.435 -0.7747 -4.1822 -0.6824
  202MOL0     H27210   9.741   8.495  10.523  0.2308 -0.1581  2.2726
  202MOL0     H27211   9.933   8.690  10.391 -0.1659  1.4384  2.2836
  202MOL0     H27212   9.983   8.545  10.469  3.1913  3.3922 -1.7773
  202MOL0     H27213   9.781   8.432  10.324 -1.2651 -0.8908 -3.8468
  202MOL0     H27214   9.816   8.574  10.218  4.4334  1.4369 -1.8206
  202MOL0     H27215  10.061   8.507  10.218  1.7414 -1.9852 -0.3358
  202MOL0     H27216  10.023   8.379  10.323  2.1191  1.0580 -1.3050
  202MOL0     H27217   9.838   8.306  10.147  0.1950  1.0194  2.8129
  202MOL0     H27218  10.008   8.255  10.133  2.6901  0.7206 -0.5566
  202MOL0     H27219   9.871   8.358   9.936 -2.0766  1.1230  0.7200
  202MOL0     H27220   9.909   8.518   9.997 -0.0026 -0.4035 -1.3787
  202MOL0     H27221  10.241   8.509  10.041  2.3558 -0.6285 -0.4273
  202MOL0     H27222  10.481   8.272   9.861  0.2583 -2.6781  1.5811
  202MOL0     H27223  10.476   8.446   9.896  3.1467 -2.1374 -0.2700
  202MOL0     H27224  10.395   8.294  10.130 -0.2276 -2.7090 -1.5462
  202MOL0     H27225  10.545   8.235  10.075 -0.6301 -0.0461 -0.5458
  202MOL0     H27226  10.653   8.453  10.083 -1.9523 -0.1646 -2.3098
  202MOL0     H27227  10.596   8.406  10.243  0.0812  1.0901  0.3875
  202MOL0     H27228  10.454   8.615  10.071  1.3418  2.3674  0.0675
  202MOL0     H27229  10.574   8.643  10.201 -0.0142 -0.5931  1.7179
  202MOL0     H27230  10.335   8.784  10.131 -1.4610 -2.2579 -0.2031
  202MOL0     H27231  10.201   8.980  10.214  0.6250  2.7071  1.3582
  202MOL0     H27232   9.937   8.933  10.745  0.1100 -0.8431 -0.5018
  202MOL0     H27233   9.725   9.061  10.850 -1.2218  1.4666  0.5313
  202MOL0     H27234   9.609   9.411  10.657 -1.5806  0.2713 -0.8969
  202MOL0     H27235   9.502   9.416  10.793  0.2905 -4.0495 -2.0568
  202MOL0     H27236   9.643   9.546  10.929 -1.6449 -1.2488  0.3877
  202MOL0     H27237   9.787   9.536  10.815 -0.1247  0.1885  0.1327
  202MOL0     H27238   9.711   9.652  10.646  1.9623  0.4602  0.6672
  202MOL0     H27239   9.553   9.682  10.726  0.2698 -1.5022  1.3213
  202MOL0     H27240   9.832   9.790  10.789  0.4096 -2.4493  1.2028
  202MOL0     H27241   9.678   9.807  10.893 -0.9092 -0.6946 -0.7837
  202MOL0     H27242   9.572   9.908  10.669 -0.8160 -2.3177  2.3923
  202MOL0     H27243   9.748   9.939  10.631  2.4230 -0.1470  1.7502
  202MOL0     H27244   9.602  10.017  10.888  0.4598  1.5695  0.2585
  202MOL0     H27245   9.775  10.031  10.858 -1.2633 -3.0833  3.6202
  202MOL0     H27246   9.581  10.161  10.666  1.4840 -0.0510 -1.8066
  202MOL0     H27247   9.746  10.192  10.676 -0.1493  1.0392  0.3783
  202MOL0     H27248   9.662  10.383  10.790 -0.1844 -0.6291  0.1156
  202MOL0     H27249   9.513  10.298  10.836 -0.8660 -0.1249  1.2107
  202MOL0     H27250   9.867   9.415  10.666 -0.1785 -0.6528 -2.1213
  202MOL0     H27251  10.043   9.312  10.555 -0.2658 -0.0932  1.5588
  202MOL0     H27252  10.151   8.788  10.597  0.8173  1.0231  0.2024
  202MOL0     H27253  10.282   8.594  10.515  1.4415  2.2974  2.5669
  202MOL0     H27254   9.355   8.651  10.722 -0.8832  0.8112 -0.6394
  202MOL0     H27255   9.128   8.780  10.785  0.6780 -1.1175  4.8455
  202MOL0     H27256   8.976   9.232  10.743  0.8519 -2.9305  0.8603
  202MOL0     H27257   8.797   9.388  10.748 -2.6488  0.3903  0.3119
  202MOL0     H27258   8.458   9.382  11.064 -0.1153 -2.8079 -1.9812
  202MOL0     H27259   8.442   9.501  10.957  1.7177  3.7306  0.5945
  202MOL0     H27260   8.711   9.481  11.104 -0.1275  1.5246  2.0920
  202MOL0     H27261   8.558   9.554  11.165  0.1916  1.4202  0.0999
  202MOL0     H27262   8.580   9.727  10.988 -1.7783 -1.6374  0.1870
  202MOL0     H27263   8.719   9.638  10.916 -0.1894 -0.7062 -0.1125
  202MOL0     H27264   8.764   9.851  11.042 -0.5185 -0.0072 -0.4282
  202MOL0     H27265   8.705   9.773  11.197 -0.1163 -0.7712 -0.0432
  202MOL0     H27266   9.093   9.670  11.231  1.5655  0.2428 -1.9777
  202MOL0     H27267   8.610   9.176  11.062 -0.3754 -0.3766 -1.1475
  202MOL0     H27268   8.811   8.909  11.086  3.2103  1.0227 -0.8841
  202MOL0     H27269   8.902   9.033  11.186 -1.7650  1.0094  1.9442
  202MOL0     H27270   8.729   9.028  11.185 -0.8365 -1.5522 -0.4282
  203MOL0     O27271  10.072   3.962   9.842  0.7580  0.1503  0.6523
  203MOL0     C27272  10.115   3.987   9.728 -0.1298  1.0370 -0.0307
  203MOL0     O27273  10.136   4.106   9.678  0.2052 -1.2004 -0.3937
  203MOL0     C27274  10.123   4.233   9.741 -0.5203  0.1230 -0.4701
  203MOL0     C27275  10.012   4.270   9.819  0.0181  1.2151  1.1778
  203MOL0     C27276   9.995   4.402   9.863 -0.4790 -1.1533  0.6432
  203MOL0     C27277  10.089   4.498   9.838 -0.4578 -0.3138 -0.3125
  203MOL0     O27278  10.073   4.627   9.886 -1.2594 -0.8706 -0.1085
  203MOL0     C27279  10.198   4.702   9.917  0.1568  0.6801  0.6043
  203MOL0     C27280  10.180   4.816  10.018  0.5216  0.2379 -0.4056
  203MOL0     C27281  10.164   4.771  10.170 -0.0995 -0.7243  0.4277
  203MOL0     C27282  10.109   4.624  10.188  0.2892  0.7106 -0.1709
  203MOL0     C27283  10.085   4.609  10.327  0.2090 -0.2315 -0.2290
  203MOL0     C27284  10.011   4.476  10.355 -0.0845 -0.3158  0.3097
  203MOL0     C27285   9.977   4.474  10.505 -0.3456  0.0149 -0.6394
  203MOL0     C27286   9.867   4.365  10.541  0.8259 -0.3008  0.0403
  203MOL0     N27287   9.845   4.345  10.681  0.6266 -0.3295  0.1395
  203MOL0     C27288   9.730   4.378  10.753 -0.1957  0.3287 -0.1195
  203MOL0     C27289   9.748   4.328  10.882  0.4540  0.0096 -0.5282
  203MOL0     C27290   9.642   4.356  10.992 -0.6896  0.0455  0.0042
  203MOL0     C27291   9.572   4.232  11.044 -0.2783  0.0884  0.0386
  203MOL0     C27292   9.510   4.259  11.179  0.4873  0.0667  0.0376
  203MOL0     C27293   9.418   4.383  11.189 -0.1114 -0.7268 -0.4684
  203MOL0     O27294   9.329   4.376  11.309 -0.7853 -0.5438  0.1417
  203MOL0     C27295   9.312   4.493  11.378 -0.1089  0.5012 -0.4326
  203MOL0     C27296   9.330   4.620  11.319  0.1971 -0.3475  0.4342
  203MOL0     C27297   9.293   4.735  11.381 -0.3443 -0.0301  0.8399
  203MOL0     C27298   9.254   4.735  11.512  0.0214 -0.2281 -0.0695
  203MOL0     C27299   9.224   4.854  11.579  0.3084 -0.9816 -1.2832
  203MOL0     O27300   9.158   4.836  11.702 -1.2548 -0.2311  0.3202
  203MOL0     C27301   9.127   4.959  11.762  0.8790 -0.2322 -0.0945
  203MOL0     C27302   9.213   5.054  11.822 -0.3646  0.0873 -0.6718
  203MOL0     C27303   9.167   5.162  11.900  0.4305 -0.3192  0.1959
  203MOL0     C27304   9.025   5.189  11.905  0.5693 -0.0199 -0.3555
  203MOL0     O27305   8.975   5.305  11.970  1.0365 -0.2107 -0.4393
  203MOL0     C27306   8.838   5.318  12.006  0.0846 -0.9410 -0.3053
  203MOL0     C27307   8.803   5.263  12.139  0.7169  0.1227  0.3933
  203MOL0     C27308   8.865   5.346  12.251 -0.2599 -0.2177 -0.1389
  203MOL0     C27309   8.805   5.304  12.380 -0.5413 -0.6171 -0.1046
  203MOL0     C27310   8.860   5.398  12.483  0.3702 -0.8289  0.8543
  203MOL0     C27311   9.000   5.377  12.541 -0.9798 -0.6937 -0.9537
  203MOL0     C27312   9.046   5.512  12.582 -0.0409 -0.9304  0.0416
  203MOL0     C27313   9.185   5.514  12.653 -0.0829 -0.5968 -1.2024
  203MOL0    Cl27314   9.175   5.411  12.801  0.0522 -0.4697 -0.1558
  203MOL0     C27315   8.937   5.087  11.851 -0.5854  0.3516 -0.1066
  203MOL0     C27316   8.994   4.974  11.798  0.1241 -0.5108  0.7265
  203MOL0     O27317   9.241   4.962  11.522  0.5174  0.5614 -0.3623
  203MOL0     C27318   9.256   4.606  11.574  0.1057 -1.7803 -0.0695
  203MOL0     C27319   9.271   4.484  11.508 -0.9681 -0.4095 -0.4667
  203MOL0     N27320   9.870   4.264  10.884  1.0057  0.5909  0.3627
  203MOL0     N27321   9.924   4.280  10.773  0.2997  0.3135 -0.2717
  203MOL0     C27322  10.195   4.466   9.751 -0.2212  0.0145 -0.6273
  203MOL0     C27323  10.218   4.331   9.708 -0.2994  0.8593 -0.6235
  203MOL0     C27324  10.177   3.873   9.641 -0.3707  0.1400  0.0743
  203MOL0     C27325  10.309   3.903   9.594  1.1273  0.8499  0.4663
  203MOL0     C27326  10.364   3.803   9.506  0.8581  1.0340 -1.4325
  203MOL0     C27327  10.299   3.684   9.469 -0.1879  0.5510  0.1432
  203MOL0     O27328  10.382   3.603   9.386  0.4016 -0.9770 -0.8039
  203MOL0     C27329  10.317   3.490   9.324 -0.7904 -0.6328  0.8459
  203MOL0     C27330  10.431   3.393   9.282  0.2463 -0.2963 -0.1210
  203MOL0     C27331  10.481   3.327   9.409 -0.0264  0.3180  0.6122
  203MOL0     C27332  10.599   3.245   9.381 -0.8922 -0.2436 -0.0485
  203MOL0     C27333  10.559   3.140   9.288  0.0007 -0.3367 -0.0674
  203MOL0     C27334  10.501   3.061   9.216  0.2202  1.5754 -0.5391
  203MOL0     C27335  10.172   3.657   9.515  0.7579 -0.7069  0.1248
  203MOL0     C27336  10.117   3.752   9.603  0.0529  0.0530 -0.3002
  203MOL0     C27337   9.978   3.727   9.624  0.2963  0.0430  0.4424
  203MOL0     H27338   9.948   4.187   9.848  0.5261  1.5639  3.5844
  203MOL0     H27339   9.899   4.428   9.906 -1.5683 -1.7332 -1.3254
  203MOL0     H27340  10.279   4.632   9.938  1.1744  1.4179 -0.6954
  203MOL0     H27341  10.231   4.750   9.824 -0.8774 -2.0695 -1.2913
  203MOL0     H27342  10.103   4.892   9.999 -0.7015 -1.3803 -2.3514
  203MOL0     H27343  10.267   4.880  10.002  0.9496 -0.1027  0.5290
  203MOL0     H27344  10.097   4.846  10.212  0.7272  0.3393 -0.0961
  203MOL0     H27345  10.264   4.774  10.216  0.5416 -2.4383 -0.7254
  203MOL0     H27346  10.015   4.609  10.133  0.3810 -3.7058  0.5524
  203MOL0     H27347  10.181   4.555  10.143 -0.0053 -1.7869  2.8626
  203MOL0     H27348  10.173   4.615  10.392 -1.2927 -0.1333  1.8825
  203MOL0     H27349  10.024   4.693  10.360  1.2190 -0.4559  2.4510
  203MOL0     H27350   9.924   4.469  10.290  0.6907 -1.9145 -0.6263
  203MOL0     H27351  10.081   4.396  10.329  2.2520  1.1449  1.6442
  203MOL0     H27352   9.937   4.571  10.540 -3.6045 -1.4947  0.2522
  203MOL0     H27353  10.067   4.440  10.557  1.0235  2.1390 -1.4916
  203MOL0     H27354   9.778   4.402  10.490  1.1516  1.1662  0.5073
  203MOL0     H27355   9.905   4.271  10.499 -0.5888  0.2074 -2.5511
  203MOL0     H27356   9.642   4.422  10.707  1.6773  2.9170 -1.5159
  203MOL0     H27357   9.700   4.395  11.077  0.9650  1.0156 -1.4911
  203MOL0     H27358   9.574   4.435  10.959  0.0827  2.3801  3.3502
  203MOL0     H27359   9.500   4.210  10.965  1.1786  1.4650 -1.7665
  203MOL0     H27360   9.642   4.147  11.042  1.6942  1.5460  2.2678
  203MOL0     H27361   9.591   4.261  11.252 -0.5242 -0.4029  1.2171
  203MOL0     H27362   9.449   4.172  11.206  0.2398 -0.2075 -1.3312
  203MOL0     H27363   9.345   4.391  11.107 -0.3981 -0.0441 -0.1510
  203MOL0     H27364   9.477   4.474  11.190  0.2651 -0.9743  0.1779
  203MOL0     H27365   9.350   4.645  11.215  1.8238  4.0506  1.5921
  203MOL0     H27366   9.295   4.829  11.327 -3.5782  0.8817  2.0435
  203MOL0     H27367   9.319   5.033  11.816 -0.0957 -0.9661  3.9383
  203MOL0     H27368   9.237   5.232  11.946  0.1011 -0.8370  1.5521
  203MOL0     H27369   8.827   5.426  12.018  3.1995 -0.8271  3.2062
  203MOL0     H27370   8.774   5.286  11.923  2.2900 -2.2635 -1.6021
  203MOL0     H27371   8.694   5.265  12.152  0.9151  2.0361  2.0864
  203MOL0     H27372   8.843   5.161  12.142 -2.4559 -1.2154  1.3399
  203MOL0     H27373   8.971   5.323  12.266 -0.2106 -0.4327 -0.7747
  203MOL0     H27374   8.860   5.453  12.228 -0.7978 -0.4058 -0.9313
  203MOL0     H27375   8.836   5.200  12.396  1.4790 -0.4949 -2.5783
  203MOL0     H27376   8.697   5.320  12.374 -0.5374  0.6130  2.0541
  203MOL0     H27377   8.795   5.394  12.571  0.4409  0.4811  0.9770
  203MOL0     H27378   8.856   5.499  12.442  2.4084 -1.0115  0.0783
  203MOL0     H27379   8.986   5.309  12.626 -1.2077  0.4065 -0.0847
  203MOL0     H27380   9.058   5.329  12.462  1.6759 -1.5874  1.3623
  203MOL0     H27381   8.974   5.551  12.655  3.5261 -0.4153  3.6607
  203MOL0     H27382   9.056   5.572  12.491 -0.5660  0.1485  0.6803
  203MOL0     H27383   9.255   5.466  12.585 -0.3207  0.7239 -2.4440
  203MOL0     H27384   9.215   5.619  12.665  0.3356 -0.9596  1.4887
  203MOL0     H27385   8.830   5.086  11.870 -0.3758 -2.2170  1.3350
  203MOL0     H27386   8.918   4.908  11.756  0.8371  0.5277 -2.4813
  203MOL0     H27387   9.231   4.615  11.679 -0.8282  0.0262 -0.3931
  203MOL0     H27388   9.258   4.388  11.555 -1.3897 -0.2782 -0.3113
  203MOL0     H27389  10.276   4.532   9.721  0.9578 -2.0958 -2.3904
  203MOL0     H27390  10.310   4.304   9.656  0.8026  0.7420  1.2770
  203MOL0     H27391  10.362   3.995   9.617  1.7966  0.3862  0.8078
  203MOL0     H27392  10.466   3.812   9.471  1.5497 -2.5342 -0.7498
  203MOL0     H27393  10.275   3.531   9.232  1.5113  3.0239  1.2190
  203MOL0     H27394  10.243   3.439   9.386 -1.7020 -0.7571 -0.3021
  203MOL0     H27395  10.492   3.458   9.218 -0.9608  0.6905 -0.3002
  203MOL0     H27396  10.392   3.319   9.211  0.2262  0.1531 -0.5863
  203MOL0     H27397  10.411   3.265   9.467  0.5806 -1.0203 -0.0351
  203MOL0     H27398  10.516   3.402   9.480  0.4533 -0.1745  0.9088
  203MOL0     H27399  10.690   3.296   9.350  0.4189 -0.7351  2.7170
  203MOL0     H27400  10.613   3.194   9.477 -0.7070 -0.3356 -0.1247
  203MOL0     H27401  10.462   2.981   9.157 -2.3553 -0.4156  3.3627
  203MOL0     H27402  10.115   3.571   9.481  1.1480 -0.1504 -2.0760
  203MOL0     H27403   9.922   3.755   9.535  1.9019 -1.6341 -1.1803
  203MOL0     H27404   9.953   3.621   9.633 -2.2619  0.5518 -0.0561
  203MOL0     H27405   9.935   3.774   9.713  0.0076 -1.4265  1.1089
  204MOL0     O27406   7.193   4.295   8.657 -0.2583 -0.2685 -0.5109
  204MOL0     C27407   7.222   4.407   8.702 -0.0541  0.2635  0.4561
  204MOL0     O27408   7.342   4.479   8.656  0.3243 -0.0117 -0.4506
  204MOL0     C27409   7.397   4.418   8.543 -0.0897  0.4312 -0.4645
  204MOL0     C27410   7.396   4.500   8.430  0.2179 -0.8583  0.9668
  204MOL0     C27411   7.449   4.445   8.310 -0.7408 -0.5881 -1.0193
  204MOL0     C27412   7.519   4.320   8.313  0.4475 -0.5583  0.6204
  204MOL0     O27413   7.567   4.276   8.193 -0.5151  0.5197 -0.7455
  204MOL0     C27414   7.589   4.132   8.183 -0.3608  0.5883 -1.3075
  204MOL0     C27415   7.641   4.105   8.040 -0.3537  0.4080 -0.5065
  204MOL0     C27416   7.747   4.217   8.007  0.3330  0.1099 -0.3301
  204MOL0     C27417   7.827   4.170   7.885 -0.0503 -0.1755 -0.9218
  204MOL0     C27418   7.931   4.275   7.848  0.1074 -0.5021  0.3756
  204MOL0     C27419   8.033   4.216   7.757  0.2576 -0.3308  0.1158
  204MOL0     C27420   7.975   4.147   7.626  1.4551 -0.0446 -0.2394
  204MOL0     C27421   8.083   4.102   7.526  0.5941  0.4118  0.4040
  204MOL0     N27422   8.170   4.014   7.607  0.1532 -0.2279 -0.1362
  204MOL0     C27423   8.134   3.922   7.699 -0.0277  1.1680 -1.0531
  204MOL0     C27424   8.247   3.892   7.768 -0.0603 -0.6983  0.4930
  204MOL0     C27425   8.261   3.790   7.881  0.5188 -0.4668 -0.4412
  204MOL0     C27426   8.304   3.660   7.822 -0.7706  0.3524  0.4044
  204MOL0     C27427   8.376   3.573   7.922 -0.8964  0.4320  0.6246
  204MOL0     C27428   8.434   3.441   7.859 -0.0232  0.4854  0.9183
  204MOL0     O27429   8.507   3.357   7.956 -0.3659 -0.0878  0.0845
  204MOL0     C27430   8.587   3.251   7.914 -0.3056  0.6562 -0.9239
  204MOL0     C27431   8.640   3.260   7.784  0.3618 -0.2705 -0.2387
  204MOL0     C27432   8.728   3.154   7.745  0.0948 -0.0922  0.3928
  204MOL0     C27433   8.751   3.045   7.836  1.0862  0.4296  0.6492
  204MOL0     C27434   8.841   2.935   7.795  2.2380 -0.7309 -0.2219
  204MOL0     O27435   8.868   2.914   7.665 -0.2203  0.6153  0.1054
  204MOL0     C27436   8.953   2.813   7.639  0.1371 -0.0872  0.2551
  204MOL0     C27437   9.077   2.834   7.573 -0.2107 -0.0821 -0.1031
  204MOL0     C27438   9.168   2.728   7.551 -0.3569 -0.6542 -0.0687
  204MOL0     C27439   9.140   2.596   7.585  0.0431  0.5518 -0.0043
  204MOL0     O27440   9.225   2.489   7.561 -1.1149 -0.2175  0.0562
  204MOL0     C27441   9.311   2.497   7.442  0.3263  0.0233 -0.3013
  204MOL0     C27442   9.338   2.350   7.407  0.4123  0.7643 -0.1274
  204MOL0     C27443   9.436   2.374   7.284  0.3671 -0.0363 -0.2285
  204MOL0     C27444   9.498   2.241   7.243 -0.2155 -0.1207  0.6745
  204MOL0     C27445   9.629   2.199   7.304  0.0673  0.7494  0.6529
  204MOL0     C27446   9.725   2.170   7.193 -0.0791  0.3575 -0.5939
  204MOL0     C27447   9.700   2.032   7.143 -0.3184 -0.6322 -0.1900
  204MOL0     C27448   9.757   2.028   6.999  0.6968  0.5486 -0.3692
  204MOL0    Cl27449   9.915   2.092   6.984  0.2888 -0.0564  0.4982
  204MOL0     C27450   9.021   2.568   7.639  0.5067 -0.5524 -0.8259
  204MOL0     C27451   8.930   2.676   7.670  0.6326 -0.0603 -0.9119
  204MOL0     O27452   8.891   2.874   7.888 -0.3239 -0.5451 -0.1830
  204MOL0     C27453   8.671   3.031   7.947 -0.0173 -0.3888  0.6059
  204MOL0     C27454   8.591   3.129   7.987  0.6635  0.5028  0.7495
  204MOL0     N27455   8.351   3.976   7.711  0.2702  0.8948  0.4219
  204MOL0     N27456   8.296   4.045   7.629  0.3659  0.1839  0.2337
  204MOL0     C27457   7.519   4.246   8.437  0.0311 -0.7479  1.0891
  204MOL0     C27458   7.452   4.290   8.553  0.4258  0.2833 -0.7679
  204MOL0     C27459   7.146   4.466   8.810  0.0237  0.6236 -0.3653
  204MOL0     C27460   7.190   4.592   8.866  0.1883 -0.2602 -0.0243
  204MOL0     C27461   7.121   4.647   8.971 -0.3671 -0.1440  0.2025
  204MOL0     C27462   7.017   4.580   9.035 -0.2183  0.0809  0.5977
  204MOL0     O27463   6.975   4.651   9.143 -0.0317 -0.3770 -0.0953
  204MOL0     C27464   6.839   4.625   9.186  1.8179 -0.8405 -0.1669
  204MOL0     C27465   6.729   4.681   9.091  0.3507 -0.0846  0.4465
  204MOL0     C27466   6.593   4.638   9.157 -0.0720  0.6234 -0.3773
  204MOL0     C27467   6.576   4.493   9.179  0.4062 -0.0088  0.3678
  204MOL0     C27468   6.435   4.462   9.215  0.1622  0.6547 -0.9588
  204MOL0     C27469   6.319   4.437   9.239 -0.1023  0.4982  0.1754
  204MOL0     C27470   6.968   4.470   8.979  0.4037  0.8630 -0.2445
  204MOL0     C27471   7.016   4.408   8.865 -0.9438  0.9837  0.7871
  204MOL0     C27472   6.932   4.303   8.793  0.2197 -1.2952 -0.4748
  204MOL0     H27473   7.360   4.602   8.441  0.4064 -0.1006 -3.5498
  204MOL0     H27474   7.445   4.504   8.220  4.1553  0.3736 -0.9035
  204MOL0     H27475   7.668   4.104   8.253 -2.6557  0.7125  1.5273
  204MOL0     H27476   7.501   4.071   8.205 -0.1033  0.2598 -1.1638
  204MOL0     H27477   7.556   4.107   7.971 -1.5010 -0.1537  0.8517
  204MOL0     H27478   7.688   4.006   8.038 -0.0910  0.3500  3.1041
  204MOL0     H27479   7.827   4.232   8.080  0.6092  0.6605 -0.7380
  204MOL0     H27480   7.705   4.311   7.968  3.3721  2.2220  1.0493
  204MOL0     H27481   7.878   4.076   7.910  2.3656  1.2312 -0.2007
  204MOL0     H27482   7.770   4.147   7.795  1.1413 -3.9857 -0.8961
  204MOL0     H27483   7.889   4.368   7.810 -1.1652 -0.0895  2.6187
  204MOL0     H27484   7.973   4.311   7.942  1.2389  1.0079 -0.6591
  204MOL0     H27485   8.088   4.305   7.725 -1.1690  0.7244  0.4779
  204MOL0     H27486   8.087   4.143   7.819  1.5623 -1.5098 -2.2786
  204MOL0     H27487   7.912   4.219   7.573  0.1755 -2.0254 -1.5253
  204MOL0     H27488   7.909   4.062   7.642  0.4226  0.4207 -1.7942
  204MOL0     H27489   8.039   4.044   7.445 -0.5082  2.0855 -0.2616
  204MOL0     H27490   8.125   4.196   7.488 -3.7682  1.7136 -1.9440
  204MOL0     H27491   8.034   3.880   7.705 -0.8313  3.1373  0.3779
  204MOL0     H27492   8.328   3.836   7.954  0.5958 -0.4069 -0.5499
  204MOL0     H27493   8.163   3.784   7.929 -0.4088 -0.4804 -2.2333
  204MOL0     H27494   8.224   3.602   7.775 -0.0590  1.1820 -2.0210
  204MOL0     H27495   8.375   3.686   7.742 -3.2067  1.5018 -1.5436
  204MOL0     H27496   8.315   3.540   8.007  0.5805  3.7420  3.1958
  204MOL0     H27497   8.448   3.639   7.971 -2.1320  3.8974 -1.8362
  204MOL0     H27498   8.501   3.484   7.784  2.5153 -1.0587  2.1557
  204MOL0     H27499   8.351   3.381   7.819  0.3243 -0.5912  1.7662
  204MOL0     H27500   8.634   3.343   7.714 -0.4293 -0.7696 -0.7800
  204MOL0     H27501   8.770   3.150   7.645 -0.0487  3.3981  0.0823
  204MOL0     H27502   9.108   2.930   7.535  0.4534 -0.2720 -0.0450
  204MOL0     H27503   9.261   2.750   7.499 -0.9493  1.6228 -0.3026
  204MOL0     H27504   9.258   2.548   7.362  0.4411  1.5939  0.5765
  204MOL0     H27505   9.409   2.540   7.465 -0.2852  0.5901  1.3993
  204MOL0     H27506   9.372   2.291   7.493 -1.0583  2.0153  1.3660
  204MOL0     H27507   9.250   2.301   7.366  0.0491  0.9352  0.4378
  204MOL0     H27508   9.376   2.417   7.204  1.4864  0.5223 -0.7913
  204MOL0     H27509   9.510   2.451   7.310  1.0157 -0.7368  0.0427
  204MOL0     H27510   9.500   2.242   7.134  1.0925 -0.7522  0.6655
  204MOL0     H27511   9.439   2.154   7.275  2.0782 -1.9715  0.1979
  204MOL0     H27512   9.610   2.116   7.373  1.9088 -2.2504 -2.1422
  204MOL0     H27513   9.674   2.270   7.374  1.8934  0.2147  0.0905
  204MOL0     H27514   9.729   2.241   7.110  3.1785 -0.0907 -0.9443
  204MOL0     H27515   9.824   2.173   7.240  0.4068  1.2239 -1.6536
  204MOL0     H27516   9.596   2.001   7.143  0.2938 -2.8439 -0.6031
  204MOL0     H27517   9.756   1.957   7.200  0.6963 -0.7763 -1.3212
  204MOL0     H27518   9.756   1.920   6.978 -1.1484  0.6515 -1.0645
  204MOL0     H27519   9.682   2.075   6.935 -0.3684  0.1623  0.5656
  204MOL0     H27520   8.993   2.464   7.647  1.7484 -0.8346  0.2672
  204MOL0     H27521   8.835   2.673   7.723 -0.5596  0.4927 -2.9051
  204MOL0     H27522   8.672   2.930   7.989  2.3047 -0.0544  1.4974
  204MOL0     H27523   8.526   3.129   8.074 -1.6430  1.8023 -0.8467
  204MOL0     H27524   7.565   4.149   8.426  2.7433  0.6102 -0.4656
  204MOL0     H27525   7.464   4.246   8.651  1.8659 -0.1137 -1.1019
  204MOL0     H27526   7.270   4.658   8.836  0.9373 -0.4861  1.3906
  204MOL0     H27527   7.139   4.751   8.998 -1.5899  0.6241 -1.7157
  204MOL0     H27528   6.829   4.677   9.282  1.8470  1.4204 -1.3162
  204MOL0     H27529   6.826   4.517   9.198 -1.4903 -0.4649  0.5704
  204MOL0     H27530   6.732   4.634   8.993  0.6938 -2.8221  1.6861
  204MOL0     H27531   6.724   4.790   9.085 -1.3479 -0.1621 -0.0702
  204MOL0     H27532   6.516   4.697   9.105  0.9920  1.5351 -0.9638
  204MOL0     H27533   6.600   4.679   9.258  1.7953  0.8642 -0.5705
  204MOL0     H27534   6.599   4.440   9.086 -0.2004  2.9057 -1.5732
  204MOL0     H27535   6.647   4.445   9.247  1.6760 -0.0766 -0.9553
  204MOL0     H27536   6.216   4.412   9.254  0.3593 -2.3788 -0.7846
  204MOL0     H27537   6.885   4.417   9.025 -1.1432  2.6983 -0.8039
  204MOL0     H27538   6.959   4.200   8.818 -0.3473 -0.8478  2.2947
  204MOL0     H27539   6.825   4.319   8.808  0.1853  1.4444 -2.9167
  204MOL0     H27540   6.942   4.311   8.685  1.6630 -2.7639 -0.4885
  205MOL0     O27541   1.682  10.454   5.949 -0.1769 -0.1374  0.0815
  205MOL0     C27542   1.602  10.540   5.915  1.1068 -0.3081 -0.2848
  205MOL0     O27543   1.574  10.571   5.786 -0.2202  0.7411 -0.1062
  205MOL0     C27544   1.600  10.479   5.686  0.8208  0.1065 -0.0921
  205MOL0     C27545   1.587  10.342   5.700 -0.0321 -0.5762  0.8220
  205MOL0     C27546   1.630  10.248   5.604  0.0252 -0.3406 -0.4863
  205MOL0     C27547   1.678  10.303   5.482  0.0049  0.8351  0.3776
  205MOL0     O27548   1.709  10.223   5.377 -0.1186  0.3588 -0.3688
  205MOL0     C27549   1.828  10.131   5.395 -0.0359 -0.3647  0.0990
  205MOL0     C27550   1.773   9.991   5.390 -0.8228 -0.4253 -0.0357
  205MOL0     C27551   1.877   9.896   5.446  0.2510  0.9524  0.3374
  205MOL0     C27552   1.996   9.854   5.359  0.0864  0.3997  0.5516
  205MOL0     C27553   2.047   9.724   5.419  0.2852  0.3595 -0.1174
  205MOL0     C27554   2.159   9.657   5.343 -0.4562  0.1894 -0.1135
  205MOL0     C27555   2.198   9.523   5.406  0.3096 -0.0427  0.3635
  205MOL0     C27556   2.292   9.436   5.322 -0.4419 -0.3208  0.9425
  205MOL0     N27557   2.416   9.508   5.290  1.1188 -0.8115 -0.1477
  205MOL0     C27558   2.475   9.599   5.374  0.3076 -0.9820 -0.0583
  205MOL0     C27559   2.586   9.644   5.310  0.3361  0.0238  1.1783
  205MOL0     C27560   2.693   9.742   5.359  0.0805  0.2019  0.1957
  205MOL0     C27561   2.656   9.881   5.389 -0.0057  0.2294 -0.3084
  205MOL0     C27562   2.772   9.981   5.415 -0.0796 -0.0475 -0.8470
  205MOL0     C27563   2.869   9.949   5.523  0.1271  0.2348 -0.0272
  205MOL0     O27564   2.921  10.057   5.606  0.8058  0.3973 -0.7677
  205MOL0     C27565   2.827  10.119   5.685 -0.5869 -0.5915 -0.2652
  205MOL0     C27566   2.794  10.072   5.807 -0.6629 -0.3185  0.1339
  205MOL0     C27567   2.704  10.134   5.887  0.4092  1.3116 -0.6190
  205MOL0     C27568   2.651  10.258   5.856  0.2994 -0.4790  0.0631
  205MOL0     C27569   2.542  10.313   5.944  0.3887 -0.5319 -0.6947
  205MOL0     O27570   2.492  10.236   6.048 -0.2338 -0.3122 -0.2658
  205MOL0     C27571   2.380  10.276   6.123  0.3664 -1.1201  0.0301
  205MOL0     C27572   2.306  10.398   6.111  0.6992 -0.3830 -0.0699
  205MOL0     C27573   2.193  10.415   6.195 -1.0841 -0.3331  0.7368
  205MOL0     C27574   2.147  10.311   6.267  0.2457  0.7182  0.8293
  205MOL0     O27575   2.029  10.312   6.339  0.8859  0.4074 -0.5686
  205MOL0     C27576   2.018  10.428   6.425 -0.0409 -1.6582  0.6199
  205MOL0     C27577   1.927  10.400   6.541 -0.7658  0.3727  0.7114
  205MOL0     C27578   1.909  10.529   6.623  0.4354  0.7995 -0.6221
  205MOL0     C27579   1.907  10.523   6.781  0.0688 -1.6322 -0.2227
  205MOL0     C27580   1.869  10.653   6.838 -0.1956 -0.7444  0.4060
  205MOL0     C27581   1.952  10.769   6.777 -0.1346 -0.3107  0.7479
  205MOL0     C27582   1.929  10.899   6.853  0.3530 -0.6227  0.4939
  205MOL0     C27583   2.046  10.985   6.827  0.6224 -0.2182 -0.0865
  205MOL0    Cl27584   2.014  11.160   6.847 -0.2061 -0.3258  0.1471
  205MOL0     C27585   2.217  10.187   6.275 -0.1094 -0.2157 -0.4505
  205MOL0     C27586   2.334  10.176   6.199 -0.2005 -0.2536  1.1183
  205MOL0     O27587   2.507  10.428   5.918  0.4776 -0.2617 -0.6059
  205MOL0     C27588   2.684  10.313   5.729 -0.2952 -1.3080 -0.2500
  205MOL0     C27589   2.771  10.247   5.640 -0.9058 -0.1594  0.3187
  205MOL0     N27590   2.588   9.576   5.183 -0.9937 -0.1328 -0.2857
  205MOL0     N27591   2.481   9.496   5.179 -0.0364 -0.1643  0.5480
  205MOL0     C27592   1.668  10.437   5.461  0.4832  0.2021  0.6984
  205MOL0     C27593   1.632  10.525   5.562 -1.2878 -1.0772 -0.0179
  205MOL0     C27594   1.533  10.617   6.023  0.4117 -1.0299  0.4317
  205MOL0     C27595   1.437  10.718   5.975 -1.2980  0.1125  0.5274
  205MOL0     C27596   1.391  10.816   6.057 -0.4167 -0.7122  0.5244
  205MOL0     C27597   1.417  10.819   6.191 -0.7978  0.1088 -0.2052
  205MOL0     O27598   1.384  10.923   6.274  0.6389 -0.4354 -0.8406
  205MOL0     C27599   1.254  10.993   6.247  0.0816 -0.0808  0.0107
  205MOL0     C27600   1.210  11.069   6.377 -0.0548 -0.3110 -0.5230
  205MOL0     C27601   1.064  11.057   6.402 -0.7864 -0.2942  0.4921
  205MOL0     C27602   1.038  11.087   6.552  0.8583  0.9249 -1.2396
  205MOL0     C27603   1.072  11.220   6.592  1.6936  0.0723 -0.1171
  205MOL0     C27604   1.138  11.319   6.624  0.7674 -0.3347 -0.3576
  205MOL0     C27605   1.508  10.723   6.240  0.3307  0.3455  0.1353
  205MOL0     C27606   1.556  10.612   6.160  0.4435 -0.2892 -0.5480
  205MOL0     C27607   1.649  10.516   6.239  0.0583  0.7838  0.8289
  205MOL0     H27608   1.558  10.304   5.797  0.9133 -1.3765  0.8055
  205MOL0     H27609   1.642  10.141   5.611 -2.2916 -0.6282  0.0653
  205MOL0     H27610   1.899  10.139   5.312  0.1155  1.1137  0.3452
  205MOL0     H27611   1.863  10.154   5.496 -2.3687  0.3273  0.8119
  205MOL0     H27612   1.740   9.967   5.289 -1.1410  1.4778 -0.4319
  205MOL0     H27613   1.681   9.976   5.448 -0.6083  0.4483  0.5481
  205MOL0     H27614   1.833   9.796   5.449  3.2019 -0.4567  0.6434
  205MOL0     H27615   1.911   9.926   5.545  2.2648 -5.6891  2.1347
  205MOL0     H27616   1.978   9.835   5.253  1.0879  2.3736 -0.0242
  205MOL0     H27617   2.077   9.925   5.378  2.3809 -2.2224  1.3026
  205MOL0     H27618   2.082   9.742   5.521  1.4772  1.0937 -0.6273
  205MOL0     H27619   1.970   9.646   5.421 -1.3353  1.8914  0.6119
  205MOL0     H27620   2.127   9.650   5.239  0.7828  0.8242 -0.5555
  205MOL0     H27621   2.249   9.719   5.352 -0.4273 -0.0770  2.2235
  205MOL0     H27622   2.111   9.456   5.412  2.2114 -2.9412 -1.7047
  205MOL0     H27623   2.233   9.547   5.507  1.1460  2.1174 -0.3970
  205MOL0     H27624   2.317   9.338   5.365  1.7648 -1.1984 -2.0371
  205MOL0     H27625   2.247   9.413   5.225  0.4916  0.3912  0.3290
  205MOL0     H27626   2.446   9.622   5.476 -0.7192  0.3164 -0.6001
  205MOL0     H27627   2.731   9.698   5.452  1.1429 -2.3794 -1.3329
  205MOL0     H27628   2.773   9.752   5.286 -2.2537  1.0400 -2.3956
  205MOL0     H27629   2.609   9.916   5.297  0.0093 -1.4904 -1.0099
  205MOL0     H27630   2.575   9.879   5.462 -1.9833  0.2216 -2.3948
  205MOL0     H27631   2.739  10.079   5.449  2.6646  0.0621  1.9741
  205MOL0     H27632   2.831   9.987   5.322 -0.9881  0.2479 -1.4186
  205MOL0     H27633   2.953   9.890   5.485 -1.3232 -3.2684  1.8218
  205MOL0     H27634   2.823   9.878   5.592  1.3018  1.1266  1.7645
  205MOL0     H27635   2.831   9.970   5.820 -2.0004 -0.9159 -0.5437
  205MOL0     H27636   2.715  10.089   5.985  3.1040 -1.7362 -2.1136
  205MOL0     H27637   2.317  10.484   6.046  2.4987  0.4238  1.2427
  205MOL0     H27638   2.121  10.495   6.184  1.2254  1.7967 -0.0496
  205MOL0     H27639   2.115  10.459   6.466  0.9150  0.3326 -2.7957
  205MOL0     H27640   1.967  10.499   6.360  1.1082 -0.0443  1.4002
  205MOL0     H27641   1.825  10.373   6.514 -0.7152 -0.0526  0.9377
  205MOL0     H27642   1.971  10.321   6.602  3.2863  2.5158  0.9471
  205MOL0     H27643   1.989  10.598   6.596  0.2892  1.6134  0.9285
  205MOL0     H27644   1.817  10.581   6.594 -1.0778 -2.0092 -1.2738
  205MOL0     H27645   2.008  10.492   6.812  1.5568  2.0683 -0.9004
  205MOL0     H27646   1.836  10.445   6.810  1.2074 -1.7484  2.5788
  205MOL0     H27647   1.887  10.642   6.946  0.2469  0.4951  0.4732
  205MOL0     H27648   1.767  10.686   6.818  1.2579  3.5556 -0.8795
  205MOL0     H27649   2.057  10.747   6.798  0.7818  0.7404 -2.1698
  205MOL0     H27650   1.940  10.788   6.670  2.2810 -0.2216  0.4420
  205MOL0     H27651   1.914  10.873   6.958 -0.3177  0.4093  0.6633
  205MOL0     H27652   1.841  10.939   6.803 -1.0119 -2.8925  0.8907
  205MOL0     H27653   2.115  10.962   6.909 -1.4772 -5.3802  0.5990
  205MOL0     H27654   2.086  10.968   6.726 -1.7829 -3.4854 -0.6262
  205MOL0     H27655   2.172  10.108   6.334 -2.7408  2.3133  1.1346
  205MOL0     H27656   2.389  10.083   6.190  2.3800  1.2522  0.1448
  205MOL0     H27657   2.653  10.413   5.700  0.1192  0.0574  3.5316
  205MOL0     H27658   2.788  10.277   5.537  0.5256  1.7578  1.0500
  205MOL0     H27659   1.693  10.495   5.373 -4.0908  3.0743  0.9557
  205MOL0     H27660   1.604  10.629   5.549  0.7152  0.0588  3.6059
  205MOL0     H27661   1.397  10.701   5.875 -1.1292 -0.7492  0.5925
  205MOL0     H27662   1.333  10.894   6.008  2.7772 -0.3174 -3.1516
  205MOL0     H27663   1.176  10.929   6.207  0.6916 -0.1491 -1.1138
  205MOL0     H27664   1.267  11.077   6.179  2.0541 -0.0160  0.4099
  205MOL0     H27665   1.243  11.173   6.368  2.8613 -1.1637 -0.8447
  205MOL0     H27666   1.265  11.042   6.467 -2.8554 -0.2120  1.3118
  205MOL0     H27667   1.028  10.957   6.374 -4.6882  1.0452  0.1496
  205MOL0     H27668   1.000  11.124   6.344  1.3092  0.4602 -1.0921
  205MOL0     H27669   0.930  11.078   6.570  1.4707  1.6569  4.5490
  205MOL0     H27670   1.084  11.007   6.611  0.6336  1.4618 -0.3366
  205MOL0     H27671   1.192  11.409   6.646 -0.4242 -0.0797  1.9673
  205MOL0     H27672   1.539  10.729   6.343 -0.8825  2.7415  0.4242
  205MOL0     H27673   1.753  10.550   6.244 -0.3408  1.8978  3.3622
  205MOL0     H27674   1.620  10.509   6.345 -2.7274  0.1632  0.0979
  205MOL0     H27675   1.646  10.416   6.196  0.6373  1.3881 -0.6611
  206MOL0     O27676  11.450   2.069   8.479 -0.1719  1.0486 -0.0674
  206MOL0     C27677  11.464   2.062   8.356 -1.3241 -0.6522  0.3493
  206MOL0     O27678  11.422   2.163   8.273  0.3972  0.3231 -0.3604
  206MOL0     C27679  11.361   2.278   8.316  0.3132  0.4486  0.3672
  206MOL0     C27680  11.421   2.370   8.403 -0.8281  0.2219 -1.4181
  206MOL0     C27681  11.350   2.492   8.444  0.3942  0.2842 -0.4318
  206MOL0     C27682  11.219   2.513   8.393 -0.1759 -0.4483  0.2514
  206MOL0     O27683  11.157   2.626   8.431  0.1196  0.1395 -0.2966
  206MOL0     C27684  11.016   2.653   8.398  0.1247  0.8444  0.3224
  206MOL0     C27685  10.951   2.765   8.479 -0.9482 -0.3753  0.0572
  206MOL0     C27686  10.799   2.773   8.457 -0.1955 -0.1235 -0.9643
  206MOL0     C27687  10.715   2.871   8.548 -0.0690  0.5168 -0.9515
  206MOL0     C27688  10.573   2.876   8.493  0.0756 -0.8573  0.2276
  206MOL0     C27689  10.475   2.925   8.597  0.2741  0.6713 -0.2338
  206MOL0     C27690  10.338   2.949   8.539  0.2351  0.3838  0.0591
  206MOL0     C27691  10.254   3.022   8.650 -0.5726  0.6010 -0.4314
  206MOL0     N27692  10.190   3.134   8.596  0.6580 -0.0262 -0.3685
  206MOL0     C27693  10.259   3.238   8.540  0.6408  0.2838 -0.3154
  206MOL0     C27694  10.173   3.328   8.501 -0.7849 -0.5990  0.1551
  206MOL0     C27695  10.193   3.446   8.417  0.2441  0.1430 -0.1886
  206MOL0     C27696  10.334   3.501   8.415  0.6060 -0.3339  0.2151
  206MOL0     C27697  10.330   3.648   8.362  0.0372 -0.4887  0.0468
  206MOL0     C27698  10.460   3.725   8.361 -0.1441  0.6719  0.0139
  206MOL0     O27699  10.436   3.845   8.299 -0.1798 -0.1123  1.0323
  206MOL0     C27700  10.350   3.940   8.354 -0.4588 -0.0312  0.6115
  206MOL0     C27701  10.333   4.057   8.282  1.0467 -1.1539  0.2050
  206MOL0     C27702  10.271   4.173   8.339 -0.5272  1.0314 -0.3756
  206MOL0     C27703  10.213   4.161   8.462  1.4461 -0.6830  0.2104
  206MOL0     C27704  10.147   4.274   8.533  0.4382 -0.7507 -0.3114
  206MOL0     O27705  10.081   4.254   8.656  0.2488  0.6787 -0.0685
  206MOL0     C27706  10.015   4.353   8.732 -0.7109 -0.3441 -0.8326
  206MOL0     C27707   9.946   4.461   8.676 -0.9268  0.6045 -0.2043
  206MOL0     C27708   9.886   4.559   8.751 -0.3550  0.3731  0.3294
  206MOL0     C27709   9.881   4.547   8.889 -0.9237 -1.1470  0.4807
  206MOL0     O27710   9.838   4.637   8.982  0.0415 -0.5289  0.1300
  206MOL0     C27711   9.904   4.758   8.983 -0.3814 -0.3808  0.5507
  206MOL0     C27712   9.864   4.828   9.113 -0.6081 -0.3347 -0.0209
  206MOL0     C27713   9.964   4.949   9.125 -0.1295 -0.3603  0.0129
  206MOL0     C27714   9.924   5.074   9.045 -0.0643  0.1041 -0.3514
  206MOL0     C27715   9.934   5.188   9.145 -0.9151 -0.5147  0.9412
  206MOL0     C27716   9.850   5.320   9.101 -0.3892  0.4010  0.4926
  206MOL0     C27717   9.889   5.440   9.187 -0.9137  0.1604 -0.1777
  206MOL0     C27718   9.779   5.546   9.202 -0.6862  0.8397 -0.1922
  206MOL0    Cl27719   9.665   5.476   9.321 -0.1202  0.0385 -0.1108
  206MOL0     C27720   9.933   4.429   8.945  1.1116  0.0920  0.1098
  206MOL0     C27721  10.000   4.338   8.869  0.3676  0.0879 -0.1487
  206MOL0     O27722  10.153   4.378   8.471  0.0741 -0.2130 -0.2304
  206MOL0     C27723  10.225   4.041   8.533  0.5344 -0.9105 -0.0462
  206MOL0     C27724  10.301   3.943   8.487  0.4947  0.8989 -0.0259
  206MOL0     N27725  10.046   3.285   8.551 -0.1604  0.1408  0.6781
  206MOL0     N27726  10.057   3.172   8.610 -0.3820 -0.7109  0.7407
  206MOL0     C27727  11.157   2.421   8.308  0.1285  0.6420  0.2448
  206MOL0     C27728  11.237   2.311   8.262  0.0241 -0.6128 -0.3358
  206MOL0     C27729  11.539   1.939   8.313  0.1969 -0.1151 -0.1236
  206MOL0     C27730  11.522   1.816   8.391 -0.2352 -0.7998 -0.7752
  206MOL0     C27731  11.605   1.699   8.375  0.3263  0.1404 -0.3184
  206MOL0     C27732  11.699   1.707   8.276 -0.3614  0.8394  0.5266
  206MOL0     O27733  11.768   1.597   8.257 -0.3137  0.4428  0.0766
  206MOL0     C27734  11.905   1.616   8.308  0.2733  0.4789 -0.3795
  206MOL0     C27735  11.998   1.670   8.204 -0.2917 -0.8974  1.4707
  206MOL0     C27736  12.137   1.619   8.228  0.2834 -0.2795 -0.5964
  206MOL0     C27737  12.232   1.684   8.128 -0.3811 -0.5599 -0.1026
  206MOL0     C27738  12.216   1.621   7.995  0.4921  0.0226 -0.3140
  206MOL0     C27739  12.199   1.562   7.887 -0.6196 -0.2128 -0.9435
  206MOL0     C27740  11.717   1.814   8.200  0.2363 -1.2543 -0.0021
  206MOL0     C27741  11.638   1.935   8.216 -0.2533  0.4162 -0.4699
  206MOL0     C27742  11.673   2.052   8.135  0.0193  0.5538  0.0901
  206MOL0     H27743  11.520   2.372   8.448 -1.0798  3.5486 -0.7909
  206MOL0     H27744  11.398   2.552   8.521  3.0742  1.1298 -2.5939
  206MOL0     H27745  11.008   2.677   8.291  1.3135 -1.1566 -0.2700
  206MOL0     H27746  10.965   2.561   8.427  2.9091 -0.0673  2.9085
  206MOL0     H27747  11.003   2.858   8.455 -1.4618 -0.0737  0.0797
  206MOL0     H27748  10.960   2.762   8.588  1.7326  1.2400 -0.0270
  206MOL0     H27749  10.775   2.666   8.459  2.4074 -0.7791  0.1840
  206MOL0     H27750  10.784   2.808   8.354 -1.1608  0.0783 -0.7644
  206MOL0     H27751  10.723   2.824   8.647 -0.3307  0.3063 -1.0268
  206MOL0     H27752  10.763   2.969   8.544  0.2239  0.3315 -4.4640
  206MOL0     H27753  10.574   2.945   8.408  0.3114 -0.1297  0.8130
  206MOL0     H27754  10.549   2.780   8.447  0.8838  0.4616 -3.2706
  206MOL0     H27755  10.473   2.847   8.674  1.2381 -0.9311 -1.7657
  206MOL0     H27756  10.507   3.017   8.648 -3.6856  0.5279  3.0950
  206MOL0     H27757  10.298   2.850   8.515 -0.0684  0.1866  1.3159
  206MOL0     H27758  10.340   3.008   8.448  0.4444  0.0460 -0.1606
  206MOL0     H27759  10.175   2.964   8.698 -1.5827  1.7990 -0.5857
  206MOL0     H27760  10.320   3.056   8.730 -0.5534 -1.0098  0.2627
  206MOL0     H27761  10.360   3.246   8.501  0.6002  4.6310 -0.0151
  206MOL0     H27762  10.151   3.423   8.319 -2.5294 -2.5425  1.4526
  206MOL0     H27763  10.126   3.521   8.460 -0.9873 -0.1282 -1.5578
  206MOL0     H27764  10.382   3.502   8.513 -0.8875  1.0460  0.9853
  206MOL0     H27765  10.401   3.441   8.353  2.7388  0.8589  1.2599
  206MOL0     H27766  10.254   3.710   8.410  0.8285 -1.1843  2.3648
  206MOL0     H27767  10.295   3.635   8.259 -3.2508  3.3718  0.4748
  206MOL0     H27768  10.536   3.670   8.305 -1.4490  0.2415 -1.3912
  206MOL0     H27769  10.500   3.738   8.463  0.3883  0.2312 -0.1331
  206MOL0     H27770  10.389   4.066   8.189  0.3146 -2.7186 -0.4227
  206MOL0     H27771  10.296   4.266   8.288  2.0033 -0.0304 -1.2649
  206MOL0     H27772   9.963   4.504   8.577 -0.4683  4.2311  1.2899
  206MOL0     H27773   9.849   4.644   8.695 -1.5814  0.9924  1.9919
  206MOL0     H27774  10.012   4.739   8.988 -0.7814 -2.5410  3.7837
  206MOL0     H27775   9.875   4.825   8.902 -0.0259 -0.5338  0.2939
  206MOL0     H27776   9.760   4.862   9.111 -1.3652 -2.5412 -0.8770
  206MOL0     H27777   9.880   4.761   9.198 -1.4999 -0.1159  0.3344
  206MOL0     H27778   9.975   4.966   9.232  1.6423 -1.2430 -0.0042
  206MOL0     H27779  10.064   4.919   9.094 -0.1028 -1.9559  1.4901
  206MOL0     H27780   9.818   5.068   9.017  0.2212  0.1638 -1.4621
  206MOL0     H27781   9.982   5.090   8.954  0.7771  3.8000  0.6492
  206MOL0     H27782  10.042   5.206   9.141 -1.3735  2.9717 -3.3016
  206MOL0     H27783   9.910   5.165   9.249  0.1658 -0.6284  1.1754
  206MOL0     H27784   9.866   5.347   8.995  0.7633  3.0277  1.2357
  206MOL0     H27785   9.747   5.300   9.132  0.4248 -2.4539  1.6611
  206MOL0     H27786   9.980   5.477   9.140 -0.9072 -0.8562 -1.0029
  206MOL0     H27787   9.921   5.409   9.286  2.7546 -0.1080 -1.2907
  206MOL0     H27788   9.831   5.637   9.233 -0.9576  0.4277  1.6043
  206MOL0     H27789   9.735   5.568   9.104  0.6813  1.7168 -0.6425
  206MOL0     H27790   9.931   4.422   9.053 -2.7330 -0.5663  0.1234
  206MOL0     H27791  10.054   4.254   8.911  1.3039 -0.6095 -2.5456
  206MOL0     H27792  10.172   4.032   8.627 -1.3313  0.0039 -0.9719
  206MOL0     H27793  10.313   3.859   8.555 -0.2828  1.2871  0.6117
  206MOL0     H27794  11.054   2.438   8.276 -0.0737 -1.2997 -0.2503
  206MOL0     H27795  11.194   2.242   8.190 -3.1622 -0.3129  1.0968
  206MOL0     H27796  11.446   1.817   8.469  0.0154 -1.4127 -0.5163
  206MOL0     H27797  11.576   1.609   8.428 -2.2477  0.4260 -1.1473
  206MOL0     H27798  11.950   1.524   8.345  0.5193  0.5924 -0.3956
  206MOL0     H27799  11.902   1.687   8.392  0.0861 -1.4299  1.2957
  206MOL0     H27800  11.996   1.779   8.212  1.7479 -0.5380 -1.2925
  206MOL0     H27801  11.968   1.643   8.101 -0.9060  0.2948  1.3212
  206MOL0     H27802  12.151   1.512   8.211 -0.4689 -0.2221 -1.6609
  206MOL0     H27803  12.165   1.653   8.328  0.7100  2.9102 -1.6709
  206MOL0     H27804  12.214   1.792   8.124  3.9478  0.4548  1.8629
  206MOL0     H27805  12.333   1.676   8.169 -0.2458 -0.8430 -0.4831
  206MOL0     H27806  12.166   1.488   7.817 -0.9027 -2.1923  1.1735
  206MOL0     H27807  11.784   1.813   8.115  0.0740 -1.0058 -0.1319
  206MOL0     H27808  11.671   2.033   8.027  0.4874  0.6207  0.0696
  206MOL0     H27809  11.605   2.137   8.142  0.2853  0.7910 -0.1949
  206MOL0     H27810  11.781   2.066   8.145  1.0437 -4.4087 -1.2043
  207MOL0     O27811   5.040   6.278  10.250  0.0150 -0.3654 -0.4363
  207MOL0     C27812   5.124   6.191  10.267 -0.5298  0.0318 -0.6005
  207MOL0     O27813   5.099   6.051  10.282  0.2884  0.9499 -0.4423
  207MOL0     C27814   4.976   5.998  10.279  0.3447  0.5191  0.9037
  207MOL0     C27815   4.945   5.902  10.379 -0.6011 -0.2447  0.1929
  207MOL0     C27816   4.838   5.824  10.360  0.6688 -0.2883  0.6847
  207MOL0     C27817   4.749   5.837  10.256  0.3710 -0.5253 -0.0346
  207MOL0     O27818   4.632   5.762  10.258 -0.6567  0.3871  0.6032
  207MOL0     C27819   4.553   5.765  10.131  0.1268 -0.7287  0.3499
  207MOL0     C27820   4.474   5.629  10.105 -0.9479  0.0048 -0.3210
  207MOL0     C27821   4.352   5.625  10.189 -0.1327  1.2922  0.1960
  207MOL0     C27822   4.275   5.487  10.193 -0.1825  0.6200  0.6757
  207MOL0     C27823   4.142   5.498  10.276 -0.0177  0.6749  0.4430
  207MOL0     C27824   4.151   5.530  10.420 -0.3521  0.4123 -0.1914
  207MOL0     C27825   4.186   5.410  10.507  0.2410 -0.5137  0.0336
  207MOL0     C27826   4.204   5.438  10.648  0.7576  0.0797  0.0050
  207MOL0     N27827   4.097   5.517  10.723 -0.0711  0.3786 -0.3355
  207MOL0     C27828   4.130   5.629  10.798 -0.1497  0.4883 -0.1958
  207MOL0     C27829   4.012   5.689  10.824 -0.4203 -0.6725  0.0040
  207MOL0     C27830   4.003   5.813  10.897 -0.5923 -0.0942  0.2677
  207MOL0     C27831   3.938   5.924  10.817  0.7371  0.0289 -0.1021
  207MOL0     C27832   3.947   6.059  10.875  0.2732 -0.1832  0.3206
  207MOL0     C27833   4.073   6.144  10.866 -0.4429  0.2405  0.4483
  207MOL0     O27834   4.055   6.278  10.894  0.1976  0.0110 -0.1331
  207MOL0     C27835   4.172   6.354  10.919  1.0819  0.0999 -0.0749
  207MOL0     C27836   4.304   6.306  10.922  0.5215  0.0635  0.6969
  207MOL0     C27837   4.414   6.394  10.939 -0.4030  0.5475  0.2476
  207MOL0     C27838   4.386   6.535  10.958  0.1201  0.4564 -0.3069
  207MOL0     C27839   4.500   6.626  10.955 -0.6511  0.5407 -0.2084
  207MOL0     O27840   4.495   6.729  11.044 -0.1319 -0.1185  0.2119
  207MOL0     C27841   4.582   6.841  11.021  0.4663 -0.9349 -1.2509
  207MOL0     C27842   4.713   6.841  10.977  0.5712  0.1316 -0.4279
  207MOL0     C27843   4.785   6.961  10.951  0.2147 -0.3922 -0.9936
  207MOL0     C27844   4.717   7.088  10.948 -0.6660 -0.0835  0.9241
  207MOL0     O27845   4.798   7.190  10.929  0.4706 -0.2898  0.8757
  207MOL0     C27846   4.735   7.301  10.855 -1.0161  0.8769 -1.0590
  207MOL0     C27847   4.720   7.269  10.708 -0.7971  0.7818 -0.3436
  207MOL0     C27848   4.825   7.335  10.626  0.1132  0.6504 -0.2131
  207MOL0     C27849   4.812   7.283  10.475 -0.6291 -0.1351 -0.0439
  207MOL0     C27850   4.833   7.398  10.371 -0.0166  0.5976 -0.5223
  207MOL0     C27851   4.703   7.431  10.302  0.0870 -0.3145  0.2595
  207MOL0     C27852   4.706   7.554  10.203  0.2128 -0.3419  0.1122
  207MOL0     C27853   4.571   7.579  10.131 -0.5171  0.2914  0.0642
  207MOL0    Cl27854   4.574   7.742  10.076 -0.1907 -0.2800 -0.0671
  207MOL0     C27855   4.580   7.085  10.994 -0.6438 -1.1770  0.8591
  207MOL0     C27856   4.517   6.963  11.037  0.1379 -0.6688 -0.5900
  207MOL0     O27857   4.600   6.596  10.890 -0.0549  0.1095  0.4651
  207MOL0     C27858   4.243   6.582  10.951  1.2266  0.3601 -0.0002
  207MOL0     C27859   4.149   6.483  10.930 -0.0179 -0.2422 -0.3481
  207MOL0     N27860   3.906   5.598  10.786 -0.0989  0.0349 -0.1881
  207MOL0     N27861   3.962   5.490  10.730  0.8240 -0.5763 -0.1565
  207MOL0     C27862   4.777   5.933  10.161  0.1228 -1.2953  0.1675
  207MOL0     C27863   4.893   6.012  10.175 -1.0465 -0.8088  0.2953
  207MOL0     C27864   5.265   6.238  10.269 -0.7684  0.8293  0.6943
  207MOL0     C27865   5.350   6.171  10.181 -0.4522 -0.0571 -0.2251
  207MOL0     C27866   5.484   6.220  10.174 -0.0410  0.3602  0.1490
  207MOL0     C27867   5.527   6.327  10.239 -0.7672  0.4870  0.6433
  207MOL0     O27868   5.652   6.366  10.216 -0.0917  0.0546  0.2140
  207MOL0     C27869   5.716   6.474  10.284  0.9507 -0.2026 -0.5222
  207MOL0     C27870   5.857   6.498  10.253 -0.1659 -0.3992 -0.4725
  207MOL0     C27871   5.948   6.397  10.331 -0.1177 -0.3262 -0.2232
  207MOL0     C27872   5.965   6.271  10.243  0.6858  0.0147  0.6140
  207MOL0     C27873   6.063   6.174  10.297  0.0776  0.2128  0.1090
  207MOL0     C27874   6.130   6.112  10.370 -0.3274  0.4895  0.7651
  207MOL0     C27875   5.442   6.403  10.319 -0.0035  0.1527 -0.6194
  207MOL0     C27876   5.313   6.354  10.345  1.0303  0.7813  0.2048
  207MOL0     C27877   5.224   6.422  10.436 -0.0102 -0.0422 -0.6981
  207MOL0     H27878   5.011   5.881  10.462  0.6891  2.6796  0.0121
  207MOL0     H27879   4.818   5.748  10.434  3.4854 -0.0765  1.7930
  207MOL0     H27880   4.502   5.861  10.116  1.9513  0.8785  3.4618
  207MOL0     H27881   4.630   5.760  10.054 -0.7334 -1.7337 -0.4777
  207MOL0     H27882   4.544   5.549  10.127 -1.0823 -0.4507 -1.4976
  207MOL0     H27883   4.436   5.626  10.003 -3.3260  1.5554  0.4187
  207MOL0     H27884   4.296   5.706  10.142 -0.1980  0.1978 -1.7020
  207MOL0     H27885   4.383   5.654  10.290  0.2061 -0.7836  0.7311
  207MOL0     H27886   4.244   5.454  10.094  1.8734 -0.1544  0.2275
  207MOL0     H27887   4.339   5.406  10.232 -0.3091 -0.3509 -1.0215
  207MOL0     H27888   4.088   5.577  10.222  1.5288  2.4358  1.3674
  207MOL0     H27889   4.077   5.410  10.267 -1.4497  0.8865  5.5570
  207MOL0     H27890   4.229   5.604  10.435 -1.5445  1.3745  1.5746
  207MOL0     H27891   4.054   5.573  10.445  0.1931  1.5203  0.0419
  207MOL0     H27892   4.281   5.370  10.471 -0.1368 -0.9728 -0.4624
  207MOL0     H27893   4.111   5.332  10.491 -3.0364  2.5753 -1.0031
  207MOL0     H27894   4.213   5.338  10.692  0.3258  0.7362  1.6600
  207MOL0     H27895   4.293   5.496  10.675 -1.3408  2.3104  2.7922
  207MOL0     H27896   4.230   5.658  10.828 -0.1382  1.3481 -1.0122
  207MOL0     H27897   3.943   5.800  10.987 -1.0053  3.0494  0.5717
  207MOL0     H27898   4.106   5.840  10.921 -1.2359  0.4071  2.7189
  207MOL0     H27899   3.975   5.912  10.714 -0.1051  0.5783 -0.4778
  207MOL0     H27900   3.830   5.907  10.819  0.9173 -1.1353  0.4624
  207MOL0     H27901   3.911   6.065  10.978 -1.0332  0.8226 -0.1714
  207MOL0     H27902   3.872   6.113  10.817 -2.2138 -2.0742  1.5908
  207MOL0     H27903   4.104   6.129  10.763 -1.2729  0.4825  0.1537
  207MOL0     H27904   4.155   6.112  10.931  0.9563  0.6443 -1.0717
  207MOL0     H27905   4.335   6.202  10.919  1.6589  0.4016 -1.7743
  207MOL0     H27906   4.517   6.362  10.948 -0.5237  0.6562  2.7797
  207MOL0     H27907   4.758   6.743  10.985 -0.9009 -0.5297  0.0312
  207MOL0     H27908   4.890   6.945  10.928  0.2605 -0.4966 -0.7163
  207MOL0     H27909   4.647   7.330  10.913 -0.2348 -1.2030  1.3623
  207MOL0     H27910   4.805   7.385  10.861  0.7701 -0.6600  1.7771
  207MOL0     H27911   4.729   7.160  10.698  1.0769  0.4055  3.5904
  207MOL0     H27912   4.617   7.299  10.689 -0.4068  1.4648 -1.4960
  207MOL0     H27913   4.815   7.444  10.633  1.5763  0.8329 -0.7298
  207MOL0     H27914   4.920   7.296  10.662 -0.7649 -1.1043  0.3543
  207MOL0     H27915   4.725   7.222  10.451 -0.9624  1.1513 -2.4914
  207MOL0     H27916   4.897   7.214  10.470 -1.3494 -1.0461  0.1200
  207MOL0     H27917   4.903   7.355  10.298  0.0631  2.0060 -1.3191
  207MOL0     H27918   4.878   7.482  10.426  0.6506 -0.4704  0.6286
  207MOL0     H27919   4.677   7.340  10.247  0.8230 -0.8184  0.7258
  207MOL0     H27920   4.626   7.444  10.378 -1.0234 -4.2926  0.0038
  207MOL0     H27921   4.790   7.541  10.134  0.2614 -0.4183  0.1845
  207MOL0     H27922   4.733   7.647  10.254  0.0910 -1.2136  1.8602
  207MOL0     H27923   4.555   7.519  10.041  0.5237 -2.3081  1.4975
  207MOL0     H27924   4.482   7.567  10.194  0.9449 -0.9335  2.0434
  207MOL0     H27925   4.523   7.177  11.008 -1.5565 -1.6472  0.3355
  207MOL0     H27926   4.415   6.958  11.075  0.3333 -0.0815  0.0310
  207MOL0     H27927   4.208   6.682  10.974 -5.1549 -0.9710 -1.9525
  207MOL0     H27928   4.044   6.510  10.924  0.1194  0.7657  1.2338
  207MOL0     H27929   4.720   5.954  10.070  2.5800  1.1384 -0.9557
  207MOL0     H27930   4.919   6.080  10.095 -5.4622  0.7657 -0.1036
  207MOL0     H27931   5.317   6.082  10.128 -0.1984 -0.4314  0.2398
  207MOL0     H27932   5.554   6.168  10.110 -1.2876  0.7935 -1.6319
  207MOL0     H27933   5.692   6.458  10.390 -3.5054 -2.6496 -1.6203
  207MOL0     H27934   5.661   6.564  10.256  0.4179 -0.4089 -0.1546
  207MOL0     H27935   5.882   6.599  10.287  1.0948 -1.3229  1.4742
  207MOL0     H27936   5.868   6.503  10.144 -0.7222  2.3723 -0.4927
  207MOL0     H27937   5.899   6.374  10.426 -1.9217  0.1438 -0.9980
  207MOL0     H27938   6.042   6.450  10.347 -1.1161  1.7295 -0.8704
  207MOL0     H27939   5.869   6.225  10.219  1.2575 -0.9964  0.2035
  207MOL0     H27940   6.004   6.303  10.146 -0.5257  1.2613  0.5047
  207MOL0     H27941   6.204   6.066  10.432  0.1664  3.5089  2.6465
  207MOL0     H27942   5.472   6.479  10.391 -1.7939 -1.2485  1.7082
  207MOL0     H27943   5.283   6.476  10.512 -0.4145  3.2421 -2.5295
  207MOL0     H27944   5.169   6.507  10.395 -0.3243  0.5375  0.8315
  207MOL0     H27945   5.146   6.364  10.486 -1.7018  1.3015 -1.6534
  208MOL0     O27946   2.681   7.633   2.763  0.3716 -0.3927 -0.1815
  208MOL0     C27947   2.641   7.736   2.828  0.4942 -0.8574  1.3194
  208MOL0     O27948   2.711   7.840   2.868 -0.2825  0.4269 -0.1780
  208MOL0     C27949   2.845   7.847   2.846  0.6309  0.6091 -0.6801
  208MOL0     C27950   2.904   7.963   2.795  0.4653 -0.3957  0.6692
  208MOL0     C27951   3.044   7.966   2.774  0.2409 -0.3815  0.4976
  208MOL0     C27952   3.130   7.853   2.800  0.9629  0.9982 -0.3140
  208MOL0     O27953   3.268   7.857   2.783  0.3000  0.3003  1.4470
  208MOL0     C27954   3.355   7.753   2.823 -1.1916 -0.6125  0.7491
  208MOL0     C27955   3.353   7.640   2.729 -1.1168  0.3065 -0.2716
  208MOL0     C27956   3.479   7.546   2.731  0.5748  0.6900 -0.6571
  208MOL0     C27957   3.440   7.403   2.768 -0.4086  0.5552  0.3715
  208MOL0     C27958   3.557   7.304   2.756  0.0838 -0.4587  0.5826
  208MOL0     C27959   3.670   7.327   2.861 -0.3190 -0.6981  0.0310
  208MOL0     C27960   3.622   7.289   3.007 -0.3958 -0.0811  0.4260
  208MOL0     C27961   3.629   7.134   3.009 -0.1830 -0.0454 -0.0164
  208MOL0     N27962   3.638   7.090   3.148  0.0580 -0.0175  0.3307
  208MOL0     C27963   3.550   7.012   3.215  0.0532  0.5125 -0.6853
  208MOL0     C27964   3.609   6.971   3.330  0.4146 -0.2569 -0.3162
  208MOL0     C27965   3.542   6.889   3.436  0.8050 -0.5135  0.5690
  208MOL0     C27966   3.526   6.737   3.390  0.8022 -0.5092  0.7917
  208MOL0     C27967   3.474   6.656   3.508  0.0498 -0.6879 -0.3533
  208MOL0     C27968   3.569   6.604   3.621  0.0596 -0.3283 -0.1258
  208MOL0     O27969   3.512   6.527   3.719  0.4305  0.4898 -0.1910
  208MOL0     C27970   3.577   6.464   3.818  0.1567 -0.3036  0.3745
  208MOL0     C27971   3.677   6.370   3.800  0.1536 -1.1379  0.1572
  208MOL0     C27972   3.737   6.306   3.907  0.1476 -0.2076  0.2511
  208MOL0     C27973   3.703   6.348   4.031  0.5567 -1.1232  0.7933
  208MOL0     C27974   3.763   6.284   4.154 -0.0853 -0.0248  0.6867
  208MOL0     O27975   3.696   6.300   4.278  0.2432  0.0684 -0.4661
  208MOL0     C27976   3.728   6.203   4.377  0.7754  0.4619 -0.6469
  208MOL0     C27977   3.619   6.160   4.456 -0.2819 -0.1549 -0.5518
  208MOL0     C27978   3.632   6.077   4.568 -0.4682 -0.4987  0.1989
  208MOL0     C27979   3.763   6.044   4.606  0.0720 -0.0932  0.6203
  208MOL0     O27980   3.779   5.991   4.729  0.2358  0.0250 -0.1143
  208MOL0     C27981   3.824   5.849   4.721 -0.1040 -0.6810  0.8352
  208MOL0     C27982   3.704   5.756   4.731  0.7164 -0.3230 -0.1534
  208MOL0     C27983   3.737   5.612   4.710  0.1573  0.3555 -0.5504
  208MOL0     C27984   3.798   5.598   4.563 -0.6238 -0.3515 -0.8929
  208MOL0     C27985   3.768   5.459   4.521 -0.0536  0.4517  0.3388
  208MOL0     C27986   3.811   5.439   4.376 -0.1791  0.3330  1.0749
  208MOL0     C27987   3.792   5.287   4.343  0.5259 -0.9286  0.1770
  208MOL0     C27988   3.875   5.196   4.442  0.1710  1.0559 -0.3855
  208MOL0    Cl27989   3.903   5.035   4.358  0.2883 -0.6789 -0.4029
  208MOL0     C27990   3.873   6.086   4.527 -0.2116  0.2931  0.1944
  208MOL0     C27991   3.855   6.158   4.410  0.2209 -0.6690 -0.5686
  208MOL0     O27992   3.861   6.218   4.127  0.2394 -0.3757 -0.5914
  208MOL0     C27993   3.622   6.462   4.048  0.8001  0.3481  0.7564
  208MOL0     C27994   3.556   6.512   3.943  0.8522  0.4115  0.0669
  208MOL0     N27995   3.732   7.038   3.332 -0.2629  0.2252 -0.7903
  208MOL0     N27996   3.756   7.105   3.222 -0.2255  0.5200  0.3751
  208MOL0     C27997   3.072   7.748   2.871  0.0844 -0.0052  0.1518
  208MOL0     C27998   2.937   7.745   2.895  0.9584 -0.5951  0.9185
  208MOL0     C27999   2.495   7.757   2.842  0.4026  0.0525  0.8333
  208MOL0     C28000   2.446   7.889   2.856 -0.7361 -1.2548  0.1180
  208MOL0     C28001   2.309   7.923   2.862  0.6057  0.1169 -0.8427
  208MOL0     C28002   2.213   7.821   2.830 -0.0439 -0.8644 -0.7230
  208MOL0     O28003   2.081   7.838   2.813 -0.1845 -1.0907  0.2132
  208MOL0     C28004   2.015   7.967   2.771 -0.1267  0.3827  0.1744
  208MOL0     C28005   1.925   8.029   2.885 -0.3894 -0.3547 -0.1700
  208MOL0     C28006   1.845   8.159   2.837 -0.5293 -0.2430 -0.1415
  208MOL0     C28007   1.938   8.276   2.790 -0.2159  0.5417 -0.7042
  208MOL0     C28008   2.043   8.312   2.887  0.6203  0.2380  0.4007
  208MOL0     C28009   2.125   8.347   2.965 -0.1190  0.4065  0.3717
  208MOL0     C28010   2.257   7.690   2.822 -1.0603 -0.2358  0.1721
  208MOL0     C28011   2.389   7.662   2.839 -0.8440 -0.2639 -0.4498
  208MOL0     C28012   2.417   7.518   2.843  0.9332 -0.0559 -0.0972
  208MOL0     H28013   2.838   8.045   2.769  2.5232  0.6045 -1.7535
  208MOL0     H28014   3.085   8.061   2.744 -0.8937 -0.4768 -1.5557
  208MOL0     H28015   3.449   7.810   2.817 -0.6811 -1.0604  3.3823
  208MOL0     H28016   3.340   7.733   2.929 -3.0308  1.3547  0.9319
  208MOL0     H28017   3.333   7.674   2.627  3.7092 -2.9123 -2.7452
  208MOL0     H28018   3.264   7.580   2.748  2.3071 -4.7631  1.9296
  208MOL0     H28019   3.548   7.580   2.809  1.8373 -1.6512 -0.6546
  208MOL0     H28020   3.527   7.539   2.634 -2.4584 -1.4188 -2.1848
  208MOL0     H28021   3.390   7.397   2.865  0.5103  0.5560  0.8593
  208MOL0     H28022   3.372   7.362   2.693 -0.5516 -0.5313  1.0680
  208MOL0     H28023   3.505   7.208   2.754 -0.4821 -0.1796 -3.0040
  208MOL0     H28024   3.601   7.322   2.658  2.9448  4.0712  2.3491
  208MOL0     H28025   3.755   7.265   2.830 -1.2401 -2.7508  1.4052
  208MOL0     H28026   3.707   7.430   2.863  0.0332 -0.7368 -2.1291
  208MOL0     H28027   3.531   7.341   3.037  2.2688  4.1586  1.9608
  208MOL0     H28028   3.685   7.327   3.087 -1.4179 -2.0326  2.2729
  208MOL0     H28029   3.545   7.080   2.963  0.8522 -0.6917 -1.2352
  208MOL0     H28030   3.724   7.096   2.971  0.4144 -1.5359  2.6853
  208MOL0     H28031   3.447   6.989   3.188  0.1667  1.4991 -2.1245
  208MOL0     H28032   3.598   6.893   3.530  0.5332  0.2463  0.7108
  208MOL0     H28033   3.446   6.941   3.441  0.8941  0.2562 -2.9824
  208MOL0     H28034   3.463   6.728   3.300 -2.4279  1.8815  2.5733
  208MOL0     H28035   3.628   6.710   3.364  0.9271 -1.1603  1.9088
  208MOL0     H28036   3.401   6.582   3.475 -2.1015 -0.9546  4.2219
  208MOL0     H28037   3.407   6.725   3.560 -0.4231 -0.6934 -0.9498
  208MOL0     H28038   3.620   6.683   3.676 -2.7439  0.4783  1.5618
  208MOL0     H28039   3.633   6.534   3.567 -2.8774 -3.7712  0.4530
  208MOL0     H28040   3.686   6.325   3.701  0.3743  0.7612 -0.7275
  208MOL0     H28041   3.804   6.222   3.890  2.2938  0.8727  2.6125
  208MOL0     H28042   3.526   6.208   4.427  0.0772  2.4751  2.1623
  208MOL0     H28043   3.548   6.061   4.634 -0.3581  1.0531  0.7556
  208MOL0     H28044   3.877   5.828   4.628 -0.7780  0.2647  0.2219
  208MOL0     H28045   3.894   5.818   4.800 -1.3052 -1.0968  1.7635
  208MOL0     H28046   3.649   5.752   4.826 -0.1480  0.4730 -0.6021
  208MOL0     H28047   3.623   5.782   4.661  2.3953 -0.9099 -2.4457
  208MOL0     H28048   3.800   5.580   4.794 -0.9044  1.4934  0.7426
  208MOL0     H28049   3.641   5.560   4.724  1.1649 -1.2991  0.5976
  208MOL0     H28050   3.906   5.611   4.565 -0.7447  0.8567  1.3564
  208MOL0     H28051   3.757   5.674   4.497 -0.6430  3.1730  2.8018
  208MOL0     H28052   3.660   5.446   4.526 -0.2505 -0.1113 -3.1421
  208MOL0     H28053   3.834   5.405   4.590  0.6858  1.2630  0.2847
  208MOL0     H28054   3.736   5.493   4.316  2.4323  2.0467 -0.8873
  208MOL0     H28055   3.916   5.464   4.355 -1.0222  1.1107 -3.1367
  208MOL0     H28056   3.828   5.279   4.239  2.6790 -1.3620  0.8983
  208MOL0     H28057   3.685   5.267   4.352  0.7728 -3.2439 -1.2012
  208MOL0     H28058   3.977   5.233   4.452  2.0290 -2.6881 -3.0620
  208MOL0     H28059   3.830   5.186   4.541 -0.7950 -0.4324 -0.9346
  208MOL0     H28060   3.973   6.067   4.563 -0.1290 -3.7657 -1.5827
  208MOL0     H28061   3.933   6.197   4.345 -0.6991  0.8567 -0.8055
  208MOL0     H28062   3.603   6.498   4.149  0.7035 -1.7153  1.5242
  208MOL0     H28063   3.472   6.580   3.951  0.4345 -0.1053  0.1626
  208MOL0     H28064   3.134   7.663   2.902 -2.5080 -2.2190 -0.3875
  208MOL0     H28065   2.902   7.664   2.957  2.1265 -3.6838 -2.1215
  208MOL0     H28066   2.521   7.967   2.852  0.8875 -2.7389  0.1733
  208MOL0     H28067   2.275   8.024   2.883  2.4206  0.3120  1.5514
  208MOL0     H28068   1.940   7.958   2.692  0.5827 -1.1495 -0.3798
  208MOL0     H28069   2.090   8.043   2.748  1.3412 -0.3131  2.2975
  208MOL0     H28070   1.985   8.058   2.972  0.0570  4.6370 -1.8059
  208MOL0     H28071   1.845   7.962   2.919  0.1462 -0.3245  1.2086
  208MOL0     H28072   1.780   8.179   2.922  1.5233 -0.4606  1.5539
  208MOL0     H28073   1.792   8.119   2.749  1.9249  0.3041 -1.9689
  208MOL0     H28074   1.982   8.244   2.695  1.0498 -1.5211  0.4924
  208MOL0     H28075   1.876   8.364   2.772 -1.0210 -0.0333 -0.7761
  208MOL0     H28076   2.195   8.371   3.043  1.8107  0.6479 -1.3461
  208MOL0     H28077   2.188   7.608   2.804  2.0468 -3.2439  0.8714
  208MOL0     H28078   2.509   7.490   2.894  1.4346 -0.2891 -1.1206
  208MOL0     H28079   2.334   7.455   2.877 -0.2851 -0.4820 -3.4939
  208MOL0     H28080   2.430   7.491   2.738  0.9944 -1.3741  0.2346
  209MOL0     O28081   5.695   8.626   0.989  0.4907  0.4027  0.8216
  209MOL0     C28082   5.567   8.641   0.983 -0.1932 -0.3672 -0.5320
  209MOL0     O28083   5.484   8.684   1.084  0.8605  0.0992 -0.5672
  209MOL0     C28084   5.537   8.712   1.205  0.7597 -0.0012 -0.2510
  209MOL0     C28085   5.533   8.836   1.269  0.0584 -0.4863  0.1674
  209MOL0     C28086   5.575   8.847   1.405 -0.3993  0.2770  0.5433
  209MOL0     C28087   5.631   8.737   1.475 -0.9125 -1.3670 -0.2242
  209MOL0     O28088   5.673   8.746   1.604  0.3647  0.4967  0.2622
  209MOL0     C28089   5.710   8.631   1.675 -0.3077  0.3810 -0.5137
  209MOL0     C28090   5.678   8.665   1.825  0.1593 -0.4966  0.0340
  209MOL0     C28091   5.727   8.552   1.923  0.3104  0.6727 -0.5045
  209MOL0     C28092   5.747   8.599   2.074  0.4855  1.0120 -0.3079
  209MOL0     C28093   5.799   8.493   2.168 -0.1982  0.5671 -0.1902
  209MOL0     C28094   5.853   8.543   2.305  0.1398 -0.3289  0.5821
  209MOL0     C28095   5.755   8.647   2.394  0.8171  0.5133 -0.2099
  209MOL0     C28096   5.636   8.566   2.444 -0.2621 -0.0659 -0.6875
  209MOL0     N28097   5.669   8.453   2.529 -1.1714 -0.4087  0.7433
  209MOL0     C28098   5.719   8.465   2.656 -0.8024 -0.1850 -0.6186
  209MOL0     C28099   5.757   8.341   2.691  0.5116  0.3609  0.6342
  209MOL0     C28100   5.849   8.302   2.808 -0.5103 -0.2834  0.1415
  209MOL0     C28101   5.751   8.281   2.921 -0.2334  0.1332 -0.8312
  209MOL0     C28102   5.812   8.216   3.050 -0.0383 -0.3056 -0.7031
  209MOL0     C28103   5.701   8.212   3.165 -0.5908 -0.5779  1.2090
  209MOL0     O28104   5.752   8.137   3.280 -0.0474 -1.2489 -0.4419
  209MOL0     C28105   5.753   8.218   3.390 -0.5022 -0.0218 -0.2005
  209MOL0     C28106   5.637   8.269   3.439 -0.5457 -0.2894 -0.6809
  209MOL0     C28107   5.631   8.339   3.568  0.7096  0.8607  0.0572
  209MOL0     C28108   5.750   8.351   3.650  0.5000  0.5426 -0.1998
  209MOL0     C28109   5.737   8.419   3.780 -0.8660 -0.5060 -0.7789
  209MOL0     O28110   5.618   8.404   3.853 -0.2838 -0.8699 -0.2838
  209MOL0     C28111   5.593   8.485   3.958  0.2598 -0.2453  0.4945
  209MOL0     C28112   5.613   8.626   3.959 -0.5070  0.1962 -0.4228
  209MOL0     C28113   5.561   8.696   4.068  0.2941 -0.4402 -0.3848
  209MOL0     C28114   5.519   8.628   4.188 -0.3717 -0.6310 -0.1217
  209MOL0     O28115   5.499   8.713   4.300  0.3227 -0.4597  0.0156
  209MOL0     C28116   5.467   8.652   4.426  0.6205 -0.1818  0.7534
  209MOL0     C28117   5.412   8.768   4.514 -0.8544 -0.6604  0.1998
  209MOL0     C28118   5.328   8.690   4.626 -0.5029  0.5216  0.0668
  209MOL0     C28119   5.397   8.568   4.706  0.5469 -0.7298  0.4705
  209MOL0     C28120   5.534   8.592   4.778  2.3178  0.7827 -0.2007
  209MOL0     C28121   5.628   8.473   4.776 -0.0444  1.1451  0.4086
  209MOL0     C28122   5.765   8.500   4.837 -0.1974  0.6881  0.1329
  209MOL0     C28123   5.821   8.630   4.777 -0.7050  0.2050 -1.0207
  209MOL0    Cl28124   5.968   8.657   4.873 -0.2149 -0.0929  0.0976
  209MOL0     C28125   5.521   8.485   4.190  0.0766 -0.5446 -0.1982
  209MOL0     C28126   5.558   8.422   4.073 -0.4630  1.3283  0.2293
  209MOL0     O28127   5.842   8.475   3.818  0.2731  0.0564  0.6905
  209MOL0     C28128   5.867   8.296   3.591  0.6945  1.0909 -0.1897
  209MOL0     C28129   5.863   8.229   3.473 -0.4540 -0.1267 -0.1229
  209MOL0     N28130   5.711   8.261   2.589  0.0874 -0.1841 -0.4134
  209MOL0     N28131   5.659   8.328   2.488  0.0346 -0.6705 -0.0248
  209MOL0     C28132   5.628   8.614   1.407 -0.1548 -0.5852  0.7511
  209MOL0     C28133   5.594   8.602   1.271 -0.2466 -0.2362  0.5568
  209MOL0     C28134   5.514   8.599   0.854  0.1372 -0.5139  0.2719
  209MOL0     C28135   5.381   8.559   0.858  0.0136  0.3942  0.7118
  209MOL0     C28136   5.301   8.517   0.752 -0.3381  0.0095 -0.5267
  209MOL0     C28137   5.361   8.527   0.622  0.0322  0.8896  0.3180
  209MOL0     O28138   5.281   8.485   0.525  0.0865 -0.2691  0.0078
  209MOL0     C28139   5.312   8.517   0.390  0.4685 -0.2536  0.6812
  209MOL0     C28140   5.362   8.390   0.308 -0.1867  0.0297 -1.3199
  209MOL0     C28141   5.499   8.327   0.359 -0.0649 -0.5785  0.8023
  209MOL0     C28142   5.543   8.201   0.286 -0.3889 -0.0089  0.1072
  209MOL0     C28143   5.509   8.085   0.365  0.2735 -1.3490  0.6656
  209MOL0     C28144   5.491   7.988   0.428 -0.8042  0.1045 -0.2129
  209MOL0     C28145   5.491   8.570   0.616  0.2891 -0.7288  0.6435
  209MOL0     C28146   5.570   8.607   0.728  0.0126  0.1903  0.4369
  209MOL0     C28147   5.708   8.660   0.701  0.4798 -0.8883 -0.3506
  209MOL0     H28148   5.487   8.920   1.217  2.2784 -1.2988 -3.4962
  209MOL0     H28149   5.550   8.939   1.457 -2.5697  0.9167 -1.4265
  209MOL0     H28150   5.649   8.542   1.655 -0.8558  0.5203  0.4896
  209MOL0     H28151   5.811   8.600   1.646 -1.2339 -1.9654 -1.5072
  209MOL0     H28152   5.571   8.683   1.834 -0.2249 -1.2779 -2.3581
  209MOL0     H28153   5.715   8.765   1.850  3.8019 -1.3502 -1.2956
  209MOL0     H28154   5.815   8.497   1.891  0.6928 -0.3369  2.0041
  209MOL0     H28155   5.651   8.473   1.933 -0.0072  1.2389  2.9222
  209MOL0     H28156   5.800   8.695   2.071  0.6737  0.9723  1.0821
  209MOL0     H28157   5.646   8.629   2.105 -0.0666  1.4410 -2.3214
  209MOL0     H28158   5.716   8.423   2.181  0.5179 -0.1072  0.9086
  209MOL0     H28159   5.884   8.451   2.114 -0.9254 -0.2484 -0.7214
  209MOL0     H28160   5.888   8.457   2.363  0.2195 -1.4222 -1.0220
  209MOL0     H28161   5.945   8.599   2.283  0.6333 -1.2373  0.2435
  209MOL0     H28162   5.732   8.741   2.343 -1.3212 -0.1651 -0.5991
  209MOL0     H28163   5.814   8.675   2.482  0.4261 -2.1248  0.9790
  209MOL0     H28164   5.572   8.634   2.501 -1.8816 -2.2068  0.1712
  209MOL0     H28165   5.572   8.538   2.359 -0.2833 -1.7959 -0.1344
  209MOL0     H28166   5.732   8.549   2.723  1.6609 -3.3477  3.3416
  209MOL0     H28167   5.913   8.217   2.784 -1.6058 -1.1060  0.0769
  209MOL0     H28168   5.922   8.381   2.827 -0.8036 -0.4374  2.2066
  209MOL0     H28169   5.721   8.383   2.948 -1.0438 -0.7838  2.2245
  209MOL0     H28170   5.665   8.219   2.893 -0.2125  0.3786 -1.4357
  209MOL0     H28171   5.889   8.280   3.094 -1.3562 -1.1638  3.2388
  209MOL0     H28172   5.856   8.117   3.036 -1.5051 -0.7895 -2.3928
  209MOL0     H28173   5.608   8.170   3.126 -1.0768 -2.7230  4.2448
  209MOL0     H28174   5.684   8.318   3.189 -0.7730 -1.0238  3.3017
  209MOL0     H28175   5.544   8.268   3.383 -0.3950  2.0404 -1.0542
  209MOL0     H28176   5.535   8.385   3.591  0.9771  1.9003 -0.7913
  209MOL0     H28177   5.646   8.677   3.869  1.3959  2.7980  1.5702
  209MOL0     H28178   5.541   8.803   4.075  1.7404 -0.1207 -0.8158
  209MOL0     H28179   5.394   8.572   4.412  0.6215  0.1298 -1.3665
  209MOL0     H28180   5.556   8.604   4.469  0.9383  0.5138  0.8949
  209MOL0     H28181   5.484   8.831   4.567 -0.1283 -1.8802  0.7261
  209MOL0     H28182   5.331   8.824   4.466  1.2092  2.5500  0.1696
  209MOL0     H28183   5.288   8.761   4.698  2.2188  1.1135  1.1166
  209MOL0     H28184   5.242   8.639   4.581 -1.0854  0.7684  0.8785
  209MOL0     H28185   5.395   8.491   4.628 -1.8602 -0.3661  0.1111
  209MOL0     H28186   5.320   8.523   4.769 -1.3403  1.6108 -0.0388
  209MOL0     H28187   5.503   8.616   4.880  1.2023 -1.4975  0.0684
  209MOL0     H28188   5.574   8.680   4.728  0.9410  0.5395 -1.8148
  209MOL0     H28189   5.582   8.382   4.816 -1.7391  1.3772 -0.9177
  209MOL0     H28190   5.634   8.449   4.669 -0.1596  1.9506  0.2202
  209MOL0     H28191   5.837   8.418   4.834 -2.2873 -1.3793  2.4139
  209MOL0     H28192   5.756   8.515   4.945 -1.1810  0.7887  0.0484
  209MOL0     H28193   5.848   8.620   4.671  5.2666  2.7547 -0.1371
  209MOL0     H28194   5.746   8.708   4.792 -0.9634  0.4653 -3.2623
  209MOL0     H28195   5.485   8.425   4.272  2.5134 -1.9043 -0.0350
  209MOL0     H28196   5.554   8.313   4.069  1.5558  1.2466 -0.9132
  209MOL0     H28197   5.964   8.311   3.638  1.9861 -3.0640 -1.1869
  209MOL0     H28198   5.962   8.192   3.449  0.6424  0.6073  2.8426
  209MOL0     H28199   5.656   8.520   1.453 -1.3701 -1.7544 -0.8041
  209MOL0     H28200   5.622   8.509   1.223 -2.7260 -0.6313 -0.2989
  209MOL0     H28201   5.326   8.553   0.951 -0.2563 -1.5163  0.4663
  209MOL0     H28202   5.201   8.477   0.769  0.0292 -0.9548 -0.5514
  209MOL0     H28203   5.381   8.600   0.372 -0.1512 -0.0436 -0.8929
  209MOL0     H28204   5.214   8.544   0.349  1.5241  2.9729 -0.0386
  209MOL0     H28205   5.369   8.424   0.204 -2.9414 -1.3435 -2.0741
  209MOL0     H28206   5.296   8.303   0.308  1.3156 -1.1591 -0.0174
  209MOL0     H28207   5.489   8.299   0.464  0.8440 -1.5291  0.6578
  209MOL0     H28208   5.581   8.398   0.341 -1.3124  0.7999  0.3683
  209MOL0     H28209   5.497   8.216   0.188 -1.0770 -1.0641  0.2414
  209MOL0     H28210   5.651   8.202   0.272  0.1332 -0.2645  3.2733
  209MOL0     H28211   5.467   7.909   0.495 -1.7430  1.2692  0.8819
  209MOL0     H28212   5.532   8.588   0.517  3.3429 -2.8175  1.3778
  209MOL0     H28213   5.714   8.693   0.597 -4.2656  2.0413  0.0114
  209MOL0     H28214   5.722   8.750   0.762  0.1647 -0.4953 -0.8575
  209MOL0     H28215   5.774   8.576   0.726  2.0285  0.8270  1.7440
  210MOL0     O28216   1.288   5.297   4.015  0.8164  0.0418  0.5247
  210MOL0     C28217   1.166   5.274   4.020  0.8594 -0.0013  1.0468
  210MOL0     O28218   1.077   5.373   4.061  0.5561  0.7196  0.6534
  210MOL0     C28219   1.108   5.496   4.104  0.6061  0.8306  0.3608
  210MOL0     C28220   1.192   5.590   4.030 -0.3358  0.4025  0.1459
  210MOL0     C28221   1.234   5.707   4.100  0.7421  0.6654  1.7633
  210MOL0     C28222   1.190   5.736   4.225  0.0398  0.3203 -1.0432
  210MOL0     O28223   1.250   5.845   4.281  0.6909 -0.9474 -0.1949
  210MOL0     C28224   1.228   5.891   4.415  0.7526 -0.7555  0.6403
  210MOL0     C28225   1.350   5.894   4.493 -0.3128  0.2862  0.2003
  210MOL0     C28226   1.362   5.989   4.615 -0.0097 -0.9294  0.2104
  210MOL0     C28227   1.378   5.919   4.748 -0.4384 -0.2441 -0.4602
  210MOL0     C28228   1.339   6.023   4.862  0.2378 -0.4473 -0.3316
  210MOL0     C28229   1.407   6.172   4.858 -0.4831 -0.3423 -0.2430
  210MOL0     C28230   1.558   6.168   4.883 -0.1930 -0.9145 -0.2032
  210MOL0     C28231   1.637   6.292   4.841  0.5073  0.1235 -0.2279
  210MOL0     N28232   1.758   6.314   4.927  0.2898 -0.3478  0.1169
  210MOL0     C28233   1.885   6.279   4.884  0.3025  0.7187 -0.8321
  210MOL0     C28234   1.960   6.337   4.981 -1.1957 -0.9503  0.3386
  210MOL0     C28235   2.110   6.339   4.973 -0.6306  0.1729  0.8590
  210MOL0     C28236   2.160   6.420   4.846 -0.2920 -0.0566  0.9315
  210MOL0     C28237   2.086   6.545   4.796  0.0588  0.1319 -0.4176
  210MOL0     C28238   2.150   6.619   4.676  0.2350  1.1012  0.0009
  210MOL0     O28239   2.290   6.637   4.707 -0.4393 -0.4614  0.1041
  210MOL0     C28240   2.374   6.730   4.649  0.3028  0.4363 -0.9859
  210MOL0     C28241   2.504   6.716   4.686 -0.0571  0.2010  0.7028
  210MOL0     C28242   2.600   6.806   4.642 -0.4998 -0.3000  0.4033
  210MOL0     C28243   2.573   6.911   4.542  0.2103 -1.4284  0.3690
  210MOL0     C28244   2.684   6.998   4.486  1.1363  0.0932 -0.0453
  210MOL0     O28245   2.656   7.102   4.398  1.7275  0.4654 -0.3304
  210MOL0     C28246   2.769   7.138   4.333 -0.7802  0.2119  0.5256
  210MOL0     C28247   2.799   7.083   4.208 -0.4774  0.7132  0.4176
  210MOL0     C28248   2.916   7.113   4.138  0.2352 -0.0646  0.3386
  210MOL0     C28249   2.987   7.225   4.176 -0.3491 -0.2072  0.2717
  210MOL0     O28250   3.097   7.276   4.106 -0.0475 -0.2705  0.1547
  210MOL0     C28251   3.128   7.235   3.972  0.6786  1.0168 -0.1370
  210MOL0     C28252   3.234   7.322   3.910 -0.0138 -0.3617  0.2105
  210MOL0     C28253   3.358   7.322   3.998 -1.0521  0.0440  0.0077
  210MOL0     C28254   3.467   7.395   3.913 -0.2210  0.9611 -0.0175
  210MOL0     C28255   3.601   7.412   3.987 -0.7781 -0.5601  0.6135
  210MOL0     C28256   3.706   7.454   3.893 -0.0339 -0.1604 -0.3860
  210MOL0     C28257   3.855   7.401   3.916 -1.4076  0.0663 -0.0394
  210MOL0     C28258   3.878   7.251   3.923 -0.9309 -0.1670  0.5407
  210MOL0    Cl28259   3.779   7.163   3.798 -0.1917 -0.0930 -0.5722
  210MOL0     C28260   2.958   7.290   4.295 -0.1889 -0.2877  0.3415
  210MOL0     C28261   2.848   7.247   4.372 -0.1496  0.6232 -0.4458
  210MOL0     O28262   2.798   6.960   4.516 -0.3389  0.9537 -0.5684
  210MOL0     C28263   2.434   6.916   4.512 -0.0765 -0.0674 -0.5544
  210MOL0     C28264   2.341   6.833   4.565  0.3350 -0.2309 -0.8580
  210MOL0     N28265   1.887   6.377   5.089 -0.6081 -0.5543 -0.1656
  210MOL0     N28266   1.771   6.378   5.046  0.9449  1.0967 -0.1559
  210MOL0     C28267   1.093   5.655   4.284 -0.2271  0.1424 -0.1973
  210MOL0     C28268   1.060   5.528   4.232  0.7251 -0.2383  0.3235
  210MOL0     C28269   1.116   5.140   3.983 -0.5060  0.4928  0.4255
  210MOL0     C28270   0.971   5.130   3.987  0.4140 -0.8632 -0.3959
  210MOL0     C28271   0.899   5.016   3.966  0.3894  0.9988  0.7035
  210MOL0     C28272   0.965   4.901   3.915  0.1897 -0.4054  0.6035
  210MOL0     O28273   0.912   4.782   3.879 -0.5403  0.8919 -0.1918
  210MOL0     C28274   0.765   4.765   3.875 -0.6693  0.2470 -0.7120
  210MOL0     C28275   0.728   4.628   3.821 -0.4369  0.0773  0.6433
  210MOL0     C28276   0.578   4.601   3.808 -0.3603  0.4272  0.5504
  210MOL0     C28277   0.543   4.462   3.745 -0.2723  0.2495  0.4370
  210MOL0     C28278   0.599   4.446   3.613 -0.0524  0.2682 -0.3335
  210MOL0     C28279   0.663   4.443   3.509  0.1914  0.3963  0.6395
  210MOL0     C28280   1.102   4.912   3.896  0.0498 -0.7098 -0.1946
  210MOL0     C28281   1.179   5.031   3.925 -0.6472  1.2624  1.0024
  210MOL0     C28282   1.329   5.031   3.876  0.3727 -0.0907  0.1854
  210MOL0     H28283   1.228   5.559   3.932 -3.0354 -1.6131 -0.3241
  210MOL0     H28284   1.310   5.764   4.049  0.4171 -0.9390 -0.7459
  210MOL0     H28285   1.198   5.996   4.403 -1.3725 -1.4978 -1.2945
  210MOL0     H28286   1.143   5.850   4.471 -0.2960 -1.3291 -1.2792
  210MOL0     H28287   1.431   5.908   4.421  1.5684  1.3840  2.4030
  210MOL0     H28288   1.343   5.797   4.542 -1.0520 -0.6683 -1.6764
  210MOL0     H28289   1.275   6.055   4.621  1.8566  1.6081  2.4422
  210MOL0     H28290   1.441   6.063   4.599 -2.0977  1.7563  1.4763
  210MOL0     H28291   1.316   5.829   4.756  0.6750 -0.8614  1.9912
  210MOL0     H28292   1.485   5.903   4.765 -0.3314 -1.1527 -1.8305
  210MOL0     H28293   1.232   6.039   4.844  0.4285  0.5361 -0.6871
  210MOL0     H28294   1.337   5.982   4.964  2.4454  2.0937  0.8643
  210MOL0     H28295   1.395   6.221   4.761  0.9630  3.0167  1.0892
  210MOL0     H28296   1.374   6.244   4.934  0.6659  0.7174 -0.7093
  210MOL0     H28297   1.602   6.085   4.827  2.7350  0.7393 -0.5410
  210MOL0     H28298   1.583   6.164   4.990 -0.9976  0.8355  0.0809
  210MOL0     H28299   1.659   6.273   4.735  0.8377 -0.0444 -0.1288
  210MOL0     H28300   1.589   6.390   4.845  1.1411  0.3916  0.8335
  210MOL0     H28301   1.922   6.224   4.797  0.5466 -0.3631 -0.0688
  210MOL0     H28302   2.159   6.392   5.055 -0.7956 -0.3480  1.3063
  210MOL0     H28303   2.143   6.235   4.960 -1.4285  0.2228 -2.5205
  210MOL0     H28304   2.267   6.441   4.853  0.1893 -1.4168 -1.3039
  210MOL0     H28305   2.142   6.351   4.763  0.4250  1.9631 -0.9960
  210MOL0     H28306   2.074   6.624   4.871 -0.6739 -1.2709  1.0097
  210MOL0     H28307   1.983   6.511   4.779 -1.4171  3.3321  1.2287
  210MOL0     H28308   2.090   6.708   4.655  0.7392  1.4044 -0.1677
  210MOL0     H28309   2.133   6.549   4.593  1.6056 -1.0921  1.4569
  210MOL0     H28310   2.517   6.626   4.746 -1.4336  1.0756  2.4223
  210MOL0     H28311   2.705   6.791   4.665 -0.3564 -0.4198 -0.3118
  210MOL0     H28312   2.729   7.010   4.169 -1.2684  1.3140  0.6789
  210MOL0     H28313   2.934   7.068   4.041 -0.6919 -0.1221  0.1801
  210MOL0     H28314   3.149   7.128   3.978 -1.7694  0.5136  1.1168
  210MOL0     H28315   3.040   7.251   3.909 -1.4676  2.4501  2.9769
  210MOL0     H28316   3.245   7.280   3.810  1.8550 -1.9771  1.0193
  210MOL0     H28317   3.208   7.427   3.893 -2.4257 -0.7233  1.2260
  210MOL0     H28318   3.358   7.374   4.094 -1.8923  0.1306 -0.0284
  210MOL0     H28319   3.386   7.217   4.012  1.1060  0.5442 -0.2283
  210MOL0     H28320   3.433   7.491   3.874  0.6507  0.7749 -1.2901
  210MOL0     H28321   3.484   7.333   3.825  0.2853 -0.8422  1.2819
  210MOL0     H28322   3.636   7.321   4.036 -2.4342 -2.7770 -2.0777
  210MOL0     H28323   3.583   7.480   4.071 -1.0995 -0.6104  0.5854
  210MOL0     H28324   3.679   7.436   3.789 -0.5237  2.4171 -0.7533
  210MOL0     H28325   3.710   7.562   3.906  1.0474 -0.4616  2.8812
  210MOL0     H28326   3.901   7.453   4.001  0.0761  1.0481 -1.3795
  210MOL0     H28327   3.907   7.442   3.829 -1.5748  2.7013  1.0108
  210MOL0     H28328   3.985   7.229   3.914 -0.6647  0.7158  1.4713
  210MOL0     H28329   3.844   7.207   4.017 -1.1050 -0.9029  0.1407
  210MOL0     H28330   3.004   7.383   4.326  0.8552 -0.6807  0.0205
  210MOL0     H28331   2.837   7.293   4.470 -0.2804  0.0523 -0.1911
  210MOL0     H28332   2.394   6.995   4.448  2.0289 -0.6930 -2.8002
  210MOL0     H28333   2.235   6.842   4.544  0.5376 -1.2014 -2.4112
  210MOL0     H28334   1.059   5.679   4.385  2.5620  2.7171  0.2465
  210MOL0     H28335   0.999   5.455   4.284 -1.0998  0.9655 -0.0193
  210MOL0     H28336   0.908   5.215   4.010 -0.3752 -1.7708  0.9734
  210MOL0     H28337   0.791   5.009   3.977  0.2912 -3.9153 -0.6982
  210MOL0     H28338   0.727   4.842   3.808 -1.1761  1.1175  0.5433
  210MOL0     H28339   0.716   4.779   3.972  0.5145  2.0151 -0.3188
  210MOL0     H28340   0.784   4.550   3.873  0.9261  1.0833  0.7638
  210MOL0     H28341   0.773   4.622   3.721 -1.0724 -0.7100  0.4000
  210MOL0     H28342   0.537   4.673   3.737  0.6803  1.0244  0.5367
  210MOL0     H28343   0.519   4.612   3.899  1.8242 -0.5185  2.1752
  210MOL0     H28344   0.590   4.393   3.816 -0.3683  2.7336  3.0849
  210MOL0     H28345   0.434   4.451   3.743 -0.3701  1.0933  0.7513
  210MOL0     H28346   0.730   4.457   3.427 -1.0577  3.0200 -0.0583
  210MOL0     H28347   1.153   4.829   3.848  1.2828  0.8223 -1.6581
  210MOL0     H28348   1.387   5.052   3.966 -1.2196 -1.2894  1.5654
  210MOL0     H28349   1.359   4.937   3.828  2.4905  0.8755 -0.5114
  210MOL0     H28350   1.340   5.109   3.801 -1.0026 -1.4033 -1.4691
  211MOL0     O28351   0.499   1.371   8.999  0.6885  0.2288 -0.3401
  211MOL0     C28352   0.432   1.299   8.918  0.7776  0.1629 -0.8368
  211MOL0     O28353   0.346   1.339   8.827  0.4334  0.1815 -0.4618
  211MOL0     C28354   0.361   1.473   8.786 -0.0450 -0.2863 -0.1598
  211MOL0     C28355   0.483   1.549   8.784  0.7212  0.3611 -0.4575
  211MOL0     C28356   0.482   1.683   8.740 -0.6677  0.0211  0.1789
  211MOL0     C28357   0.372   1.754   8.701  0.3146  0.1446  0.8247
  211MOL0     O28358   0.384   1.884   8.665  0.4065  0.3416 -0.0288
  211MOL0     C28359   0.293   1.946   8.574  0.1286  0.0511  0.4061
  211MOL0     C28360   0.339   2.088   8.541 -0.2661  0.7468  0.1942
  211MOL0     C28361   0.448   2.087   8.440 -0.0840  0.1489  0.7983
  211MOL0     C28362   0.531   2.212   8.469  0.1907  0.6180 -0.3320
  211MOL0     C28363   0.642   2.206   8.366  0.6725  0.4882  0.1469
  211MOL0     C28364   0.764   2.111   8.404 -0.1541 -0.3284 -0.2738
  211MOL0     C28365   0.850   2.165   8.521  0.5307  0.4623  0.0116
  211MOL0     C28366   0.905   2.306   8.500 -0.1948  0.0110 -0.2090
  211MOL0     N28367   0.862   2.390   8.613 -0.1673 -0.2357 -0.3630
  211MOL0     C28368   0.897   2.374   8.750  0.5151 -0.1451 -0.1630
  211MOL0     C28369   0.814   2.463   8.814 -0.6803  0.1548  0.0990
  211MOL0     C28370   0.834   2.506   8.961  0.1406 -0.7083  0.0119
  211MOL0     C28371   0.915   2.646   8.971  1.3391  0.1167 -0.0610
  211MOL0     C28372   1.061   2.640   8.926 -0.0002 -0.2740 -0.3836
  211MOL0     C28373   1.159   2.547   9.004 -0.3116 -0.5620 -0.4107
  211MOL0     O28374   1.280   2.572   8.924 -0.7752  0.7152 -0.0946
  211MOL0     C28375   1.411   2.561   8.966  0.5684 -0.5247 -0.2888
  211MOL0     C28376   1.429   2.520   9.096 -0.9541 -0.3033  0.5148
  211MOL0     C28377   1.559   2.518   9.150  0.1219 -0.1615 -0.1123
  211MOL0     C28378   1.672   2.551   9.067 -0.3085  0.0196  0.3614
  211MOL0     C28379   1.804   2.561   9.137 -0.0721  0.0437  0.1678
  211MOL0     O28380   1.907   2.614   9.056  0.5222  0.1377 -0.2923
  211MOL0     C28381   2.029   2.614   9.109  0.2711 -0.8622 -0.5293
  211MOL0     C28382   2.127   2.526   9.073  0.0920  0.3034  0.3945
  211MOL0     C28383   2.251   2.515   9.133  0.8835 -0.6955 -0.6358
  211MOL0     C28384   2.275   2.604   9.243  0.4159  0.1388  0.1831
  211MOL0     O28385   2.405   2.598   9.292 -0.6212 -0.6101 -0.9985
  211MOL0     C28386   2.445   2.664   9.411  0.4709  0.4520 -0.1335
  211MOL0     C28387   2.476   2.810   9.400 -0.4072  0.5578 -0.4320
  211MOL0     C28388   2.606   2.835   9.322 -0.4798  0.1121  0.8750
  211MOL0     C28389   2.637   2.982   9.332 -0.8264 -0.6234  0.5653
  211MOL0     C28390   2.555   3.067   9.236  1.0373 -0.3932  0.6614
  211MOL0     C28391   2.591   3.217   9.238 -0.0624  1.1942 -1.2140
  211MOL0     C28392   2.508   3.308   9.144  0.1090  0.4118  0.3150
  211MOL0     C28393   2.605   3.426   9.108 -0.4874  1.0525  0.7769
  211MOL0    Cl28394   2.636   3.539   9.246 -0.2928 -0.2248  0.0448
  211MOL0     C28395   2.173   2.680   9.294 -0.3857 -0.1822  0.0960
  211MOL0     C28396   2.053   2.696   9.230  0.0512  0.2992  0.7241
  211MOL0     O28397   1.819   2.524   9.258 -0.9658 -0.7370  0.2891
  211MOL0     C28398   1.651   2.570   8.926  0.4755  0.0253 -1.0280
  211MOL0     C28399   1.521   2.577   8.879  0.2249  0.3131  0.4123
  211MOL0     N28400   0.739   2.531   8.721  1.1106  0.3365 -0.5756
  211MOL0     N28401   0.767   2.491   8.598  0.3880  0.6080 -0.3703
  211MOL0     C28402   0.255   1.682   8.705  0.7237  0.4938  1.0330
  211MOL0     C28403   0.252   1.543   8.733 -0.3558  0.3433 -1.0123
  211MOL0     C28404   0.450   1.144   8.928  0.0538  0.0554  0.2102
  211MOL0     C28405   0.437   1.067   8.802  0.1806  0.3669 -0.0756
  211MOL0     C28406   0.486   0.933   8.797 -0.3386 -0.2038  0.5423
  211MOL0     C28407   0.528   0.873   8.918  0.1104 -1.0695  0.7081
  211MOL0     O28408   0.562   0.745   8.913  0.1806 -0.0530 -1.1281
  211MOL0     C28409   0.704   0.722   8.904  0.2311  0.4413 -0.1794
  211MOL0     C28410   0.747   0.585   8.954  1.1503 -0.8984  0.2909
  211MOL0     C28411   0.674   0.478   8.878 -0.0053 -0.1126  0.3634
  211MOL0     C28412   0.688   0.472   8.726  0.7233 -0.0740 -0.0683
  211MOL0     C28413   0.820   0.435   8.686 -0.3734  0.2845 -0.5675
  211MOL0     C28414   0.928   0.412   8.627 -0.4016  0.0488  0.2389
  211MOL0     C28415   0.536   0.943   9.037 -0.3021  0.9060 -0.2583
  211MOL0     C28416   0.483   1.077   9.044 -0.0772  0.1730 -0.4027
  211MOL0     C28417   0.462   1.140   9.170 -0.3979  0.0405  1.2346
  211MOL0     H28418   0.582   1.511   8.807  1.0133  0.9193 -0.7709
  211MOL0     H28419   0.580   1.731   8.737 -1.6362  2.1522 -2.8261
  211MOL0     H28420   0.281   1.878   8.489 -1.5584 -1.3738  1.7143
  211MOL0     H28421   0.191   1.955   8.610  0.6696 -0.2373  2.1077
  211MOL0     H28422   0.378   2.136   8.631  1.3518 -3.4102  1.9335
  211MOL0     H28423   0.246   2.141   8.517  0.1605  2.3326  1.8334
  211MOL0     H28424   0.410   2.102   8.338 -2.9927  1.8212  2.0172
  211MOL0     H28425   0.502   1.992   8.447  0.5274  0.1674 -2.1046
  211MOL0     H28426   0.481   2.305   8.441  2.2239  2.5002  1.8302
  211MOL0     H28427   0.575   2.225   8.568  1.0576  3.1879 -0.9871
  211MOL0     H28428   0.606   2.182   8.266  2.7469 -0.4938 -0.4096
  211MOL0     H28429   0.680   2.308   8.353  0.0838  0.5856 -0.9410
  211MOL0     H28430   0.736   2.009   8.431  0.4363 -0.1003  1.3656
  211MOL0     H28431   0.836   2.110   8.322  0.2461  1.3826  0.0143
  211MOL0     H28432   0.937   2.107   8.554 -0.1145  0.1067  1.1404
  211MOL0     H28433   0.789   2.151   8.611  0.0178  1.0284 -0.2413
  211MOL0     H28434   1.015   2.299   8.500 -0.2542 -2.0282  1.1575
  211MOL0     H28435   0.876   2.341   8.401  0.6479 -2.3736 -1.3972
  211MOL0     H28436   0.978   2.308   8.777  2.2387  1.1082 -1.9227
  211MOL0     H28437   0.732   2.516   8.998 -0.2500 -2.3790 -0.5003
  211MOL0     H28438   0.880   2.425   9.018 -1.3820 -0.2068  2.1007
  211MOL0     H28439   0.875   2.728   8.911  2.7825 -0.4230 -1.8808
  211MOL0     H28440   0.913   2.678   9.076  0.4963 -0.5973  0.1559
  211MOL0     H28441   1.117   2.734   8.937  1.8220 -1.5892  5.3659
  211MOL0     H28442   1.064   2.618   8.819  3.3134 -1.1202 -0.2332
  211MOL0     H28443   1.130   2.442   9.003 -1.7572 -0.2063  0.5968
  211MOL0     H28444   1.174   2.576   9.109  1.1608  2.5414 -1.3539
  211MOL0     H28445   1.355   2.472   9.159  1.5806 -3.0313  1.6365
  211MOL0     H28446   1.576   2.483   9.251  2.2315 -3.5427 -1.4698
  211MOL0     H28447   2.108   2.459   8.990 -0.3715  1.5332 -0.5228
  211MOL0     H28448   2.309   2.431   9.096  1.2986  1.0360 -4.4661
  211MOL0     H28449   2.380   2.651   9.498 -0.2907  1.2653 -0.5496
  211MOL0     H28450   2.531   2.608   9.446 -0.0796 -0.4119 -0.1321
  211MOL0     H28451   2.388   2.860   9.359  0.1272  3.4217  1.5817
  211MOL0     H28452   2.480   2.836   9.506 -3.1469 -3.2796  0.8285
  211MOL0     H28453   2.697   2.790   9.361  0.5603  2.0187  0.7694
  211MOL0     H28454   2.608   2.801   9.218  2.6304 -2.0542  1.5005
  211MOL0     H28455   2.739   3.004   9.300 -0.9933 -2.0838 -1.1244
  211MOL0     H28456   2.615   3.021   9.432 -2.6999 -1.5015  0.5414
  211MOL0     H28457   2.453   3.070   9.273 -0.5096 -1.0066 -3.0794
  211MOL0     H28458   2.560   3.036   9.131 -0.1476  3.4277 -0.7089
  211MOL0     H28459   2.590   3.260   9.339  3.3908  0.6308 -0.8063
  211MOL0     H28460   2.699   3.223   9.219 -0.0758  1.7541 -1.1412
  211MOL0     H28461   2.423   3.362   9.187  0.4879  0.8881  0.4770
  211MOL0     H28462   2.467   3.255   9.058  0.1017 -1.3909  1.3754
  211MOL0     H28463   2.698   3.384   9.069 -2.2927 -1.0210 -1.5687
  211MOL0     H28464   2.571   3.473   9.015  0.9602 -1.3460 -1.0810
  211MOL0     H28465   2.188   2.727   9.390  1.0980  0.4031 -0.3843
  211MOL0     H28466   1.963   2.740   9.273  0.8248 -0.1051  2.8877
  211MOL0     H28467   1.738   2.595   8.867  0.8454  0.2231 -0.4118
  211MOL0     H28468   1.485   2.602   8.780 -0.1379  0.4807  0.5864
  211MOL0     H28469   0.163   1.709   8.654  0.5356 -3.2888 -1.0009
  211MOL0     H28470   0.155   1.494   8.724 -0.8149  1.1999 -0.8353
  211MOL0     H28471   0.412   1.107   8.704  1.0825  0.0780 -0.4330
  211MOL0     H28472   0.484   0.872   8.707  0.1653  1.8311 -0.9248
  211MOL0     H28473   0.759   0.785   8.974  0.6942  1.4734 -1.4124
  211MOL0     H28474   0.752   0.743   8.807  3.3631 -3.9899  0.1213
  211MOL0     H28475   0.723   0.576   9.061 -3.4873 -2.2221 -0.6091
  211MOL0     H28476   0.854   0.575   8.937  1.2647 -1.7840  1.3920
  211MOL0     H28477   0.567   0.481   8.901 -0.1325  0.3553 -0.2710
  211MOL0     H28478   0.704   0.381   8.919 -0.6557  0.5103  2.4551
  211MOL0     H28479   0.618   0.400   8.684 -1.1709  0.0315  2.7077
  211MOL0     H28480   0.665   0.565   8.672 -0.5598 -0.6583 -0.5623
  211MOL0     H28481   1.007   0.405   8.556 -0.1503  0.2365  0.4975
  211MOL0     H28482   0.556   0.886   9.127 -2.9107 -0.2583 -0.3168
  211MOL0     H28483   0.553   1.194   9.199 -0.4798  1.0776 -0.2949
  211MOL0     H28484   0.381   1.213   9.180  1.1829  1.6646  3.1665
  211MOL0     H28485   0.455   1.056   9.240  1.5677  1.1437  2.8707
  212MOL0     O28486   9.126   3.479   8.289  0.3324  0.7481 -0.1317
  212MOL0     C28487   9.025   3.427   8.254  0.6049 -0.2338 -1.0873
  212MOL0     O28488   9.015   3.323   8.174 -0.7836  0.0690  0.3437
  212MOL0     C28489   9.110   3.249   8.111  0.8813  0.0635 -1.0109
  212MOL0     C28490   9.073   3.173   7.999 -0.2860 -0.4804 -1.0102
  212MOL0     C28491   9.164   3.094   7.941 -0.6398  0.0131 -0.4274
  212MOL0     C28492   9.301   3.096   7.970  0.1334 -0.4368  0.3316
  212MOL0     O28493   9.391   3.006   7.922 -0.1729 -1.1519 -0.7427
  212MOL0     C28494   9.366   2.941   7.796  0.3620 -0.2600 -0.5137
  212MOL0     C28495   9.457   2.822   7.807 -0.3853 -1.2708  0.1373
  212MOL0     C28496   9.605   2.862   7.780 -0.2522 -0.0147  0.0431
  212MOL0     C28497   9.694   2.730   7.766  0.4326 -1.2778 -0.0742
  212MOL0     C28498   9.840   2.776   7.768 -0.2615  0.2677  0.6882
  212MOL0     C28499   9.937   2.664   7.718  0.8468 -0.2134 -0.2009
  212MOL0     C28500  10.080   2.710   7.740 -1.1764  0.1742  0.6724
  212MOL0     C28501  10.143   2.740   7.602 -0.5384 -0.7887  0.2540
  212MOL0     N28502  10.282   2.781   7.621  1.2750 -0.4362  0.0834
  212MOL0     C28503  10.319   2.883   7.706 -0.2299  0.1486  0.4189
  212MOL0     C28504  10.446   2.878   7.693 -1.1342 -1.4348  0.0466
  212MOL0     C28505  10.522   2.989   7.765 -0.1376  0.2912  0.1864
  212MOL0     C28506  10.513   2.988   7.917 -0.1311  0.1056 -0.0417
  212MOL0     C28507  10.609   3.096   7.979  0.6951  0.6467 -0.3598
  212MOL0     C28508  10.541   3.230   7.976  0.3836  0.0090 -0.1503
  212MOL0     O28509  10.639   3.327   8.032  0.2995 -0.7395  1.1524
  212MOL0     C28510  10.615   3.461   8.023  0.7639  0.0622  0.8488
  212MOL0     C28511  10.506   3.519   7.967  0.0710 -0.1515 -0.5105
  212MOL0     C28512  10.495   3.658   7.965  0.5890  0.4109  0.1604
  212MOL0     C28513  10.595   3.744   8.009 -0.7273 -1.3181  0.3746
  212MOL0     C28514  10.595   3.892   7.980 -0.2499 -0.1450  0.0523
  212MOL0     O28515  10.705   3.967   8.003 -0.2781  0.5880 -0.4182
  212MOL0     C28516  10.686   4.087   8.054  0.3786 -0.7712  0.7411
  212MOL0     C28517  10.718   4.202   7.984  0.6849  0.0585  0.0798
  212MOL0     C28518  10.709   4.334   8.026 -0.2368  0.7789 -0.3292
  212MOL0     C28519  10.664   4.363   8.153  0.2592  1.0582 -0.4775
  212MOL0     O28520  10.668   4.499   8.197 -0.8734 -0.2600  0.7165
  212MOL0     C28521  10.543   4.533   8.253 -0.2453 -0.2471 -1.6687
  212MOL0     C28522  10.457   4.589   8.139 -0.7375 -0.0429  0.4218
  212MOL0     C28523  10.310   4.611   8.184  1.1407 -0.3309 -0.4801
  212MOL0     C28524  10.302   4.686   8.315  0.2347 -0.1226 -0.1592
  212MOL0     C28525  10.152   4.697   8.342  0.0976 -0.8422  0.4430
  212MOL0     C28526  10.119   4.793   8.452  0.4282 -0.3560  0.3435
  212MOL0     C28527   9.972   4.845   8.454 -1.3804 -0.2581  0.1254
  212MOL0     C28528   9.961   4.948   8.572  0.4522 -0.0731 -0.5486
  212MOL0    Cl28529   9.793   4.991   8.600  0.0147 -0.1980 -0.5257
  212MOL0     C28530  10.629   4.253   8.238 -0.1829  0.4613  0.4560
  212MOL0     C28531  10.653   4.112   8.191 -0.2969  0.3010 -0.1440
  212MOL0     O28532  10.496   3.938   7.927  0.1551 -0.8031 -0.4223
  212MOL0     C28533  10.706   3.690   8.071  0.5283  1.1015  0.2260
  212MOL0     C28534  10.707   3.548   8.087 -0.0128 -0.6656 -0.1981
  212MOL0     N28535  10.496   2.791   7.601 -0.3407 -0.0808 -0.2795
  212MOL0     N28536  10.391   2.729   7.553 -0.3695 -0.3585  1.1331
  212MOL0     C28537   9.340   3.194   8.065 -0.7052 -0.5397  0.2398
  212MOL0     C28538   9.245   3.262   8.140  0.6845 -0.5485 -0.8460
  212MOL0     C28539   8.894   3.471   8.321  0.7108  0.6682  0.7414
  212MOL0     C28540   8.778   3.427   8.259  0.4166 -0.4895 -0.2099
  212MOL0     C28541   8.647   3.471   8.297  0.0190  0.1331  0.5177
  212MOL0     C28542   8.637   3.540   8.414 -0.5010  0.8980 -0.6087
  212MOL0     O28543   8.521   3.597   8.460 -0.4314  0.5514  0.1605
  212MOL0     C28544   8.493   3.719   8.383 -0.5440 -0.2545  0.1422
  212MOL0     C28545   8.352   3.733   8.328  0.5822  0.5563 -0.0572
  212MOL0     C28546   8.321   3.870   8.273  0.3803  0.3421  0.3909
  212MOL0     C28547   8.164   3.897   8.248 -0.1420 -0.9260 -0.1339
  212MOL0     C28548   8.142   4.033   8.195 -0.9682 -0.3683 -0.0454
  212MOL0     C28549   8.119   4.147   8.164 -0.2323 -0.0802  0.0387
  212MOL0     C28550   8.750   3.558   8.485 -0.4526 -0.1772 -0.0224
  212MOL0     C28551   8.881   3.550   8.435  0.6584 -0.5302 -0.6073
  212MOL0     C28552   8.989   3.595   8.532 -1.2106 -0.0054 -1.0550
  212MOL0     H28553   8.967   3.160   7.979 -1.0505  0.7178  1.7140
  212MOL0     H28554   9.119   3.035   7.862  0.5632  0.0295 -1.1497
  212MOL0     H28555   9.263   2.905   7.795  0.5914 -0.9286 -0.5016
  212MOL0     H28556   9.386   3.006   7.711  0.1386 -1.3723 -1.4325
  212MOL0     H28557   9.426   2.751   7.730  0.8109 -2.1138  0.4122
  212MOL0     H28558   9.440   2.775   7.904 -0.4988  0.2439  0.8825
  212MOL0     H28559   9.635   2.932   7.858  1.5559  0.4822 -1.0311
  212MOL0     H28560   9.612   2.908   7.680 -1.5270  0.6793  0.2634
  212MOL0     H28561   9.684   2.658   7.848  2.2884  0.6017  1.9338
  212MOL0     H28562   9.666   2.672   7.678  2.4186 -0.5353 -1.2588
  212MOL0     H28563   9.848   2.864   7.704  1.4372 -0.2756  0.0894
  212MOL0     H28564   9.854   2.805   7.872 -2.8134  1.1374  0.8743
  212MOL0     H28565   9.923   2.577   7.784 -0.1916  0.1974  0.1523
  212MOL0     H28566   9.925   2.636   7.613 -2.7172  0.9540 -0.2420
  212MOL0     H28567  10.133   2.624   7.782  4.2598  2.1890 -1.2620
  212MOL0     H28568  10.083   2.790   7.814 -0.0852 -1.9335  3.0529
  212MOL0     H28569  10.139   2.658   7.529 -2.8429  1.4364 -2.3274
  212MOL0     H28570  10.085   2.826   7.571 -2.3571 -1.4379  1.6626
  212MOL0     H28571  10.253   2.952   7.758  0.4671  0.2974  1.1326
  212MOL0     H28572  10.627   2.977   7.735 -0.6075 -3.6006 -0.4808
  212MOL0     H28573  10.479   3.074   7.712 -0.4488 -1.2613 -2.2546
  212MOL0     H28574  10.406   3.001   7.935 -0.8830 -1.2035 -2.9368
  212MOL0     H28575  10.533   2.892   7.964 -0.9069  0.7097  1.6337
  212MOL0     H28576  10.709   3.085   7.936  1.2375  2.0260  0.4810
  212MOL0     H28577  10.625   3.071   8.084  1.9066 -0.2790 -0.7331
  212MOL0     H28578  10.443   3.239   8.022 -0.0075  0.1947 -1.0041
  212MOL0     H28579  10.512   3.267   7.878 -1.7388  2.8980  1.3976
  212MOL0     H28580  10.428   3.455   7.925 -0.4058  1.1214 -1.6220
  212MOL0     H28581  10.403   3.684   7.913 -0.0425 -3.5229 -1.0837
  212MOL0     H28582  10.757   4.187   7.884  1.4777  0.2981  0.3450
  212MOL0     H28583  10.752   4.413   7.966  3.5157 -2.8523 -2.9468
  212MOL0     H28584  10.500   4.448   8.306  0.9832 -1.4941 -2.6086
  212MOL0     H28585  10.584   4.609   8.320 -1.6920 -0.0263 -0.9904
  212MOL0     H28586  10.488   4.681   8.088 -1.0959  1.1909  2.3479
  212MOL0     H28587  10.451   4.511   8.062  0.0445 -1.1430  1.4520
  212MOL0     H28588  10.242   4.657   8.112 -0.3967  0.4531  1.3757
  212MOL0     H28589  10.276   4.507   8.198  1.0814 -0.3864 -1.0106
  212MOL0     H28590  10.343   4.786   8.300 -6.0947  2.6947 -2.5465
  212MOL0     H28591  10.345   4.633   8.400 -0.9870  0.2167  0.6901
  212MOL0     H28592  10.117   4.598   8.372  0.0632 -0.9919 -0.0735
  212MOL0     H28593  10.095   4.734   8.256 -0.1572 -1.2487  0.4333
  212MOL0     H28594  10.146   4.744   8.546  3.4077 -0.8341 -0.6574
  212MOL0     H28595  10.196   4.871   8.447  0.1324 -0.1580 -1.7366
  212MOL0     H28596   9.897   4.768   8.476  0.8387 -1.7729  2.9026
  212MOL0     H28597   9.951   4.894   8.358  0.0585 -0.4776 -0.3195
  212MOL0     H28598  10.001   4.908   8.665  3.5201  2.7084 -0.4883
  212MOL0     H28599  10.015   5.041   8.553 -2.2021  1.6916 -0.0145
  212MOL0     H28600  10.602   4.257   8.343 -0.9255  1.0749  0.2532
  212MOL0     H28601  10.655   4.036   8.268  2.7890  0.1127 -0.2871
  212MOL0     H28602  10.790   3.738   8.119  1.6461 -1.1999  0.6814
  212MOL0     H28603  10.786   3.512   8.152 -0.3901  0.8332  1.1699
  212MOL0     H28604   9.446   3.195   8.090 -0.6245  0.6733 -0.1186
  212MOL0     H28605   9.274   3.314   8.231  0.5930 -3.7837  1.1892
  212MOL0     H28606   8.803   3.377   8.166  1.1241 -1.5130  0.5050
  212MOL0     H28607   8.555   3.452   8.244 -0.1602 -0.0263  0.8830
  212MOL0     H28608   8.567   3.740   8.304 -0.9138 -0.1695 -0.1838
  212MOL0     H28609   8.504   3.798   8.458  1.9259 -0.9467  0.5933
  212MOL0     H28610   8.281   3.706   8.408 -1.2561 -2.4467 -2.4570
  212MOL0     H28611   8.340   3.666   8.242  0.4621 -0.7416  0.9312
  212MOL0     H28612   8.376   3.858   8.179 -1.0196 -0.6845 -0.3457
  212MOL0     H28613   8.367   3.950   8.331  2.2163 -1.5309  1.6743
  212MOL0     H28614   8.126   3.825   8.176 -1.4434 -1.3357  0.9228
  212MOL0     H28615   8.108   3.890   8.342 -1.5467  2.4757 -0.5603
  212MOL0     H28616   8.109   4.249   8.133 -2.3620  0.2306  1.5217
  212MOL0     H28617   8.730   3.613   8.577 -0.8045 -2.5450  1.3874
  212MOL0     H28618   8.957   3.613   8.635 -1.4236 -2.0409 -0.7278
  212MOL0     H28619   9.070   3.522   8.531 -1.9361 -0.8381 -0.7198
  212MOL0     H28620   9.031   3.690   8.497 -0.0153 -0.6649 -1.4208
  213MOL0     O28621   9.730   2.204  10.132  0.4406 -0.7472  0.2645
  213MOL0     C28622   9.821   2.285  10.155  0.0886  0.4947  0.4692
  213MOL0     O28623   9.882   2.355  10.057 -0.3501  1.2099 -0.9861
  213MOL0     C28624   9.826   2.365   9.941 -0.6678  0.3253  0.3065
  213MOL0     C28625   9.704   2.442   9.920 -0.5156  0.7633  0.8816
  213MOL0     C28626   9.659   2.481   9.791  0.0801 -0.1521 -0.6604
  213MOL0     C28627   9.732   2.429   9.686  0.5491  0.2321  0.2630
  213MOL0     O28628   9.664   2.448   9.563 -0.3703  0.6945 -0.0355
  213MOL0     C28629   9.695   2.366   9.448 -1.2721 -0.1656  0.5107
  213MOL0     C28630   9.573   2.385   9.359  0.0392 -0.5029  0.0610
  213MOL0     C28631   9.442   2.345   9.432 -0.2721 -0.5562  0.5991
  213MOL0     C28632   9.394   2.204   9.394  0.5125 -0.2230 -0.2288
  213MOL0     C28633   9.254   2.180   9.450 -1.0276  0.2204  0.1300
  213MOL0     C28634   9.216   2.040   9.414  0.5153  0.1377  0.1042
  213MOL0     C28635   9.282   1.922   9.499 -0.3652 -0.0697 -0.1748
  213MOL0     C28636   9.303   1.787   9.426 -0.4882  0.4383 -0.6655
  213MOL0     N28637   9.303   1.667   9.513  0.4613  0.6726 -0.3573
  213MOL0     C28638   9.213   1.646   9.616  1.1029 -0.3260 -0.1446
  213MOL0     C28639   9.247   1.526   9.669  0.8011 -0.8886  0.1151
  213MOL0     C28640   9.180   1.463   9.792 -0.3594 -0.4519 -0.4701
  213MOL0     C28641   9.220   1.530   9.911 -0.3736 -1.1283  0.1149
  213MOL0     C28642   9.150   1.488  10.035  0.4624 -0.0616  0.2465
  213MOL0     C28643   9.192   1.570  10.158  0.9974 -0.3360  0.4691
  213MOL0     O28644   9.147   1.507  10.278 -0.4872 -0.6003  0.4737
  213MOL0     C28645   9.064   1.581  10.356 -0.0194 -0.9541 -0.0599
  213MOL0     C28646   9.085   1.560  10.487  0.0620  0.5356  0.3765
  213MOL0     C28647   9.021   1.637  10.585  0.3550 -0.2086  0.3834
  213MOL0     C28648   8.939   1.744  10.546  0.7850 -0.3848  0.3577
  213MOL0     C28649   8.870   1.827  10.641 -1.3187  0.6712  0.6509
  213MOL0     O28650   8.762   1.902  10.595  0.4139  0.8465 -0.2874
  213MOL0     C28651   8.657   1.947  10.675 -0.4362  0.7193 -0.3731
  213MOL0     C28652   8.583   2.056  10.637  0.5027 -0.3530  0.0422
  213MOL0     C28653   8.468   2.103  10.708  0.2120 -0.4511  1.3965
  213MOL0     C28654   8.423   2.035  10.821  0.4540 -0.3688  1.1084
  213MOL0     O28655   8.305   2.068  10.889 -0.3812  0.5035  0.2021
  213MOL0     C28656   8.291   2.204  10.936  0.0495 -0.1385  0.1662
  213MOL0     C28657   8.148   2.233  10.959  0.1067 -0.0984  0.5992
  213MOL0     C28658   8.085   2.142  11.072 -0.2188  0.6643  0.4252
  213MOL0     C28659   7.961   2.212  11.141 -0.4623  0.3868 -0.2165
  213MOL0     C28660   7.869   2.125  11.242  1.0640  0.0172  0.0439
  213MOL0     C28661   7.821   1.992  11.180  0.3763  0.0948  0.2764
  213MOL0     C28662   7.714   1.938  11.268  0.0674 -0.8205 -0.1879
  213MOL0     C28663   7.642   1.812  11.216 -0.1136 -0.0735  0.9672
  213MOL0    Cl28664   7.505   1.879  11.112 -0.0605  0.0367 -0.3279
  213MOL0     C28665   8.495   1.919  10.859 -1.0732 -0.7354  0.6224
  213MOL0     C28666   8.607   1.877  10.782  0.4975  0.9784  0.1484
  213MOL0     O28667   8.907   1.807  10.757  0.7422  0.1410 -0.2678
  213MOL0     C28668   8.912   1.764  10.406 -0.4543  0.3856  0.3148
  213MOL0     C28669   8.975   1.684  10.318  0.7517  0.3463  0.6163
  213MOL0     N28670   9.360   1.484   9.607  0.5080  0.1834  0.4215
  213MOL0     N28671   9.394   1.572   9.515 -0.3800  0.3196  0.0157
  213MOL0     C28672   9.854   2.358   9.699  0.0169  0.3309 -0.0561
  213MOL0     C28673   9.906   2.334   9.829  1.3853 -0.2482  0.6318
  213MOL0     C28674   9.849   2.299  10.291 -0.5249  0.4161 -0.5053
  213MOL0     C28675   9.744   2.308  10.395 -0.5219  0.1743  0.4749
  213MOL0     C28676   9.770   2.327  10.530 -0.2049 -0.0800  0.6897
  213MOL0     C28677   9.900   2.317  10.570  0.5823  0.8456 -0.5644
  213MOL0     O28678   9.916   2.329  10.703  0.5031 -0.8361 -0.6469
  213MOL0     C28679  10.011   2.235  10.764  0.6374 -0.9498  0.0391
  213MOL0     C28680   9.976   2.193  10.903  0.5823  0.6111 -0.3405
  213MOL0     C28681  10.025   2.284  11.014 -0.3945 -1.0175  0.3581
  213MOL0     C28682  10.030   2.213  11.146 -0.8949 -0.5413  0.5710
  213MOL0     C28683  10.096   2.289  11.258 -0.1058  0.2288 -0.1793
  213MOL0     C28684  10.145   2.323  11.363  0.1006 -0.1194 -0.9174
  213MOL0     C28685  10.007   2.291  10.476  1.1163 -1.0571 -0.6763
  213MOL0     C28686   9.983   2.289  10.338  0.7628 -0.3749  0.2126
  213MOL0     C28687  10.105   2.291  10.257  0.1180  0.2640 -0.3892
  213MOL0     H28688   9.653   2.469  10.012 -0.4712 -1.6922  1.7084
  213MOL0     H28689   9.567   2.536   9.779 -0.8240 -0.4021  3.5446
  213MOL0     H28690   9.788   2.401   9.403 -1.8233  2.1953  1.0288
  213MOL0     H28691   9.714   2.262   9.476  0.0888 -0.6177 -1.8486
  213MOL0     H28692   9.593   2.322   9.272 -2.5526 -2.2091  0.5684
  213MOL0     H28693   9.563   2.484   9.315  0.8494 -0.1608  0.6127
  213MOL0     H28694   9.370   2.419   9.395  2.4192  1.3190 -1.2681
  213MOL0     H28695   9.437   2.357   9.540  1.4124  0.1847  0.6249
  213MOL0     H28696   9.391   2.205   9.285 -1.9876 -0.5964 -0.2373
  213MOL0     H28697   9.465   2.128   9.429 -1.9191 -2.5244  0.0635
  213MOL0     H28698   9.256   2.179   9.559  1.2672  1.4624  0.1509
  213MOL0     H28699   9.196   2.257   9.398  0.0233  0.5255 -0.6449
  213MOL0     H28700   9.108   2.043   9.430  0.4194  0.1277 -0.5068
  213MOL0     H28701   9.223   2.016   9.307 -2.3546  0.0664 -0.1588
  213MOL0     H28702   9.214   1.918   9.585 -2.6306  0.2486 -1.8422
  213MOL0     H28703   9.376   1.956   9.543 -0.9353  0.4978  0.6322
  213MOL0     H28704   9.217   1.771   9.361  1.3132 -0.5948 -2.9538
  213MOL0     H28705   9.388   1.787   9.357 -1.1718 -0.0369 -1.5259
  213MOL0     H28706   9.132   1.709   9.650 -0.6601 -2.7209  0.3626
  213MOL0     H28707   9.071   1.459   9.787 -0.5951 -0.0651  2.6418
  213MOL0     H28708   9.211   1.360   9.808 -1.8815 -0.9392 -0.4738
  213MOL0     H28709   9.328   1.529   9.931 -0.5352  0.9981  1.3928
  213MOL0     H28710   9.195   1.636   9.899  1.3605 -0.9648 -3.5028
  213MOL0     H28711   9.167   1.384  10.067 -1.2998 -0.3689  0.3054
  213MOL0     H28712   9.044   1.508  10.017  1.2935  1.6739 -4.0306
  213MOL0     H28713   9.167   1.676  10.155  1.5299 -0.1168  2.2529
  213MOL0     H28714   9.302   1.568  10.157  1.1321  2.4574  1.1696
  213MOL0     H28715   9.169   1.497  10.515  0.6482  1.0365 -0.2463
  213MOL0     H28716   9.044   1.604  10.686  1.0164  3.0870  1.4453
  213MOL0     H28717   8.604   2.106  10.543 -0.3860 -1.5811 -0.8377
  213MOL0     H28718   8.407   2.185  10.671 -0.7635 -1.4851  0.6283
  213MOL0     H28719   8.357   2.236  11.016  1.1115  3.6816 -1.9920
  213MOL0     H28720   8.314   2.286  10.867  1.9164  1.1577  2.2245
  213MOL0     H28721   8.133   2.334  10.998 -2.8017 -0.4466  0.6416
  213MOL0     H28722   8.099   2.233  10.861  1.4920 -0.3343 -0.1167
  213MOL0     H28723   8.056   2.045  11.030 -0.4697  0.7324  0.4397
  213MOL0     H28724   8.165   2.132  11.146  0.1841  1.7151  0.1374
  213MOL0     H28725   7.892   2.243  11.062  0.0990 -0.2699 -0.9816
  213MOL0     H28726   7.990   2.296  11.205 -2.9080  0.0783  1.4685
  213MOL0     H28727   7.778   2.186  11.252  1.6908  1.1046 -0.6605
  213MOL0     H28728   7.913   2.117  11.341  0.6136  2.4676  0.5014
  213MOL0     H28729   7.769   2.022  11.089 -0.2705  1.8261  1.1676
  213MOL0     H28730   7.908   1.929  11.161  2.8012  3.4773 -0.8152
  213MOL0     H28731   7.625   2.000  11.284 -1.1163 -2.1979 -1.2094
  213MOL0     H28732   7.768   1.922  11.362  0.8743 -1.4454 -0.7512
  213MOL0     H28733   7.705   1.748  11.154  0.5494  1.8202 -0.4152
  213MOL0     H28734   7.604   1.749  11.297  0.8764  0.1170  1.5914
  213MOL0     H28735   8.445   1.864  10.937 -0.0520  1.0562  2.6578
  213MOL0     H28736   8.646   1.782  10.818 -1.2882 -0.7938 -2.2635
  213MOL0     H28737   8.855   1.841  10.356  0.4050  0.3050 -0.8604
  213MOL0     H28738   8.959   1.707  10.213  0.0618  0.8311  0.8210
  213MOL0     H28739   9.914   2.343   9.610 -1.3605 -0.8009 -0.8142
  213MOL0     H28740   9.998   2.277   9.837  1.3089 -0.9249 -2.0822
  213MOL0     H28741   9.640   2.319  10.364  0.3257 -0.9428 -3.2854
  213MOL0     H28742   9.693   2.364  10.597 -0.5182 -0.4255  0.5250
  213MOL0     H28743  10.113   2.275  10.760  0.8806 -1.6252 -2.2814
  213MOL0     H28744  10.009   2.142  10.707 -0.1849  0.6379 -2.7558
  213MOL0     H28745  10.023   2.094  10.909  1.1286  0.5674 -3.4376
  213MOL0     H28746   9.867   2.184  10.912  0.7110 -0.5366  0.3049
  213MOL0     H28747   9.961   2.373  11.017  1.9381  0.7365  3.3943
  213MOL0     H28748  10.126   2.313  10.986 -0.0588 -1.1159  1.4253
  213MOL0     H28749   9.927   2.185  11.169 -2.0006  0.0781 -2.9529
  213MOL0     H28750  10.094   2.126  11.131 -2.4917 -1.5732 -0.5790
  213MOL0     H28751  10.181   2.367  11.454 -0.8179 -2.9953  0.9561
  213MOL0     H28752  10.105   2.286  10.521  0.5504  0.8804  0.8997
  213MOL0     H28753  10.159   2.385  10.266  1.5294 -0.5914  0.4420
  213MOL0     H28754  10.169   2.214  10.300 -0.2516  1.4593  2.5208
  213MOL0     H28755  10.085   2.253  10.156 -4.1148  0.7064  0.0881
  214MOL0     O28756   5.495   6.138   0.541  0.0296  0.8021 -0.8736
  214MOL0     C28757   5.542   6.093   0.436  0.0767  0.0105  0.8963
  214MOL0     O28758   5.678   6.120   0.405  0.5222 -1.5178 -0.2832
  214MOL0     C28759   5.772   6.170   0.497 -0.3362  1.3170 -0.4372
  214MOL0     C28760   5.772   6.136   0.635 -0.0239 -0.6254 -0.4558
  214MOL0     C28761   5.885   6.165   0.713  0.2816  0.1773 -0.0229
  214MOL0     C28762   5.996   6.222   0.658  0.7250 -0.3966  0.1104
  214MOL0     O28763   6.093   6.254   0.753  0.3844 -0.2066  0.8363
  214MOL0     C28764   6.215   6.314   0.692 -0.0194 -0.6533 -0.4268
  214MOL0     C28765   6.331   6.312   0.791  0.3717 -0.7600 -1.4738
  214MOL0     C28766   6.287   6.370   0.931 -0.4629  0.1878 -0.4411
  214MOL0     C28767   6.408   6.378   1.020  0.8691 -0.8969  0.3129
  214MOL0     C28768   6.352   6.434   1.162  0.1338  0.2633  0.6782
  214MOL0     C28769   6.278   6.570   1.162 -0.2762 -0.8106  0.3183
  214MOL0     C28770   6.349   6.698   1.100  0.8229  0.2190  0.9838
  214MOL0     C28771   6.384   6.806   1.199  0.2343 -0.4303 -0.6730
  214MOL0     N28772   6.259   6.889   1.218  0.3535 -0.1415 -0.1143
  214MOL0     C28773   6.203   6.939   1.337  0.5822  0.6960  0.0454
  214MOL0     C28774   6.119   7.037   1.291  0.1523 -0.0818 -0.4869
  214MOL0     C28775   6.035   7.137   1.383 -0.3572  0.1698  0.4649
  214MOL0     C28776   6.030   7.280   1.311 -0.5276 -0.4257  0.0413
  214MOL0     C28777   5.894   7.290   1.241  0.6921 -0.8930  0.1092
  214MOL0     C28778   5.867   7.417   1.153 -0.0264 -0.6635 -0.2696
  214MOL0     O28779   5.803   7.531   1.212  0.0148 -0.6270 -0.3685
  214MOL0     C28780   5.870   7.653   1.191  0.0135  0.2909 -0.3204
  214MOL0     C28781   6.002   7.665   1.245  0.4003 -0.3639  0.4492
  214MOL0     C28782   6.073   7.781   1.211  0.4303 -0.7915  0.1293
  214MOL0     C28783   6.006   7.890   1.155  0.0879  0.0948 -0.3396
  214MOL0     C28784   6.072   8.023   1.112  0.8760  0.5843 -1.2648
  214MOL0     O28785   6.002   8.104   1.025  0.5256  0.2751  0.8621
  214MOL0     C28786   6.043   8.227   0.990 -0.0938  0.7150  0.3715
  214MOL0     C28787   5.963   8.341   1.017  0.0644 -0.0675 -0.9033
  214MOL0     C28788   5.994   8.463   0.983  0.0794 -0.5876 -0.7080
  214MOL0     C28789   6.116   8.478   0.926 -0.2000 -0.5473 -0.3194
  214MOL0     O28790   6.177   8.603   0.923 -0.2514  0.3424  0.7850
  214MOL0     C28791   6.149   8.698   1.021 -0.0138 -0.6496  0.1727
  214MOL0     C28792   6.248   8.817   1.011 -1.1239  1.2515  0.7469
  214MOL0     C28793   6.207   8.945   1.074  0.2468 -0.9314  0.9889
  214MOL0     C28794   6.286   9.066   1.020  0.2231  0.2349  0.3247
  214MOL0     C28795   6.216   9.186   1.091  0.6298  0.2627 -0.2256
  214MOL0     C28796   6.287   9.305   1.034  0.1133 -0.3276  0.3676
  214MOL0     C28797   6.215   9.435   1.095  0.2779 -0.2681  0.4605
  214MOL0     C28798   6.297   9.554   1.106 -0.1810 -0.1799 -0.3508
  214MOL0    Cl28799   6.321   9.637   0.955  0.0647 -0.0383  0.1657
  214MOL0     C28800   6.199   8.368   0.893 -1.2784  0.4713  0.0678
  214MOL0     C28801   6.164   8.237   0.924  0.0220  0.4799  0.0884
  214MOL0     O28802   6.173   8.053   1.170 -0.1551  0.8081  1.1842
  214MOL0     C28803   5.866   7.874   1.125  0.3625 -0.6821  0.3316
  214MOL0     C28804   5.798   7.746   1.130 -0.6478 -0.0979  0.7413
  214MOL0     N28805   6.121   7.035   1.158  1.0348 -0.6606  0.4436
  214MOL0     N28806   6.203   6.953   1.109  0.2322  0.0301  1.0286
  214MOL0     C28807   6.004   6.257   0.525  0.3455  0.8326 -0.1071
  214MOL0     C28808   5.892   6.222   0.449  0.6818 -0.4859 -0.1209
  214MOL0     C28809   5.459   6.009   0.349 -0.6515  0.0032  0.1885
  214MOL0     C28810   5.526   5.934   0.248  0.3132 -0.4018  0.5237
  214MOL0     C28811   5.459   5.846   0.167 -1.5927 -0.7218 -0.2947
  214MOL0     C28812   5.327   5.830   0.183  0.3380  0.0413 -1.2549
  214MOL0     O28813   5.272   5.748   0.087  0.3469  0.0645  0.2927
  214MOL0     C28814   5.128   5.784   0.059  0.6943  0.0940 -0.7901
  214MOL0     C28815   5.094   5.737  -0.087 -0.1235 -0.2019 -1.1223
  214MOL0     C28816   5.119   5.584  -0.097  0.6530  0.1358 -1.0587
  214MOL0     C28817   5.050   5.494  -0.210  0.1534 -0.7448  0.2623
  214MOL0     C28818   4.897   5.493  -0.200 -0.2302 -0.1690 -0.2636
  214MOL0     C28819   4.770   5.479  -0.201 -0.6704  0.6720  0.3043
  214MOL0     C28820   5.254   5.907   0.273 -0.1661  0.1351  0.0565
  214MOL0     C28821   5.325   5.995   0.361 -0.4925 -0.6390 -0.3199
  214MOL0     C28822   5.239   6.047   0.475  0.4749  0.8916  0.1927
  214MOL0     H28823   5.687   6.097   0.690  1.5491  0.8261  3.3565
  214MOL0     H28824   5.873   6.153   0.820  1.5263 -1.1732 -0.0097
  214MOL0     H28825   6.249   6.255   0.607 -0.5330  0.9927 -1.8509
  214MOL0     H28826   6.204   6.419   0.660 -1.5639 -1.1787 -1.7759
  214MOL0     H28827   6.419   6.368   0.757 -0.6625  3.6453  2.2979
  214MOL0     H28828   6.355   6.206   0.806 -0.3335 -0.9075 -1.3893
  214MOL0     H28829   6.225   6.292   0.977  1.2881 -1.4377 -0.7343
  214MOL0     H28830   6.247   6.471   0.920 -2.2090 -0.2830  0.9228
  214MOL0     H28831   6.447   6.277   1.030 -3.2212 -2.7058  0.2133
  214MOL0     H28832   6.479   6.446   0.973  2.2617 -1.4314  1.5625
  214MOL0     H28833   6.284   6.358   1.202 -0.1291 -0.8260 -1.6444
  214MOL0     H28834   6.448   6.440   1.214  1.7048  1.7494 -2.1708
  214MOL0     H28835   6.172   6.554   1.138 -0.5148 -0.1620  0.9243
  214MOL0     H28836   6.267   6.592   1.269  1.6752 -0.4687  0.4759
  214MOL0     H28837   6.284   6.741   1.024 -1.3904  1.9484  3.6692
  214MOL0     H28838   6.443   6.670   1.051  0.1756 -1.2743  0.5350
  214MOL0     H28839   6.423   6.776   1.296 -1.8715 -0.4283  0.2288
  214MOL0     H28840   6.452   6.879   1.153 -2.2532  0.5524 -3.1008
  214MOL0     H28841   6.208   6.915   1.443 -1.7637 -0.5794 -0.0636
  214MOL0     H28842   5.942   7.080   1.388  0.2065 -0.6726  3.3721
  214MOL0     H28843   6.068   7.143   1.487  0.0955 -1.3350  0.4416
  214MOL0     H28844   6.041   7.356   1.389  4.6412  0.9718 -1.6489
  214MOL0     H28845   6.116   7.297   1.246  0.5179 -0.7640  1.2677
  214MOL0     H28846   5.817   7.290   1.320  0.5336 -0.1284 -0.0416
  214MOL0     H28847   5.874   7.203   1.177 -1.7735 -1.0878  1.0089
  214MOL0     H28848   5.807   7.382   1.068 -0.3224 -3.3138  0.9176
  214MOL0     H28849   5.965   7.455   1.125  0.7613  0.7409  3.7221
  214MOL0     H28850   6.053   7.586   1.300  0.3779 -0.3148  0.5411
  214MOL0     H28851   6.180   7.782   1.229  0.2666  0.2855  1.2351
  214MOL0     H28852   5.859   8.325   1.045  0.7750 -0.4852  1.6792
  214MOL0     H28853   5.926   8.544   1.005 -1.0670 -1.8083  0.4485
  214MOL0     H28854   6.051   8.743   1.005  0.7104  0.4816 -1.2503
  214MOL0     H28855   6.142   8.655   1.122 -1.5464 -1.6813 -0.3520
  214MOL0     H28856   6.345   8.787   1.051 -0.9019  0.8559 -0.0661
  214MOL0     H28857   6.254   8.824   0.902 -0.1671 -2.5699  0.4250
  214MOL0     H28858   6.100   8.963   1.057  0.3990  0.8986  1.7440
  214MOL0     H28859   6.221   8.936   1.182  0.5288  0.1650  1.0562
  214MOL0     H28860   6.276   9.076   0.912  1.3609 -2.0421 -0.0499
  214MOL0     H28861   6.394   9.063   1.036  0.6177 -1.4778 -2.0954
  214MOL0     H28862   6.230   9.192   1.199  0.1444  0.6780 -0.1825
  214MOL0     H28863   6.108   9.186   1.077  0.6075  1.3738 -0.1032
  214MOL0     H28864   6.387   9.294   1.078  0.8159 -1.2050 -1.3335
  214MOL0     H28865   6.290   9.310   0.925 -1.2322 -0.5931  0.2959
  214MOL0     H28866   6.171   9.411   1.193 -0.2722 -1.8555 -0.1503
  214MOL0     H28867   6.127   9.457   1.034 -1.1494 -1.0829  2.1151
  214MOL0     H28868   6.249   9.629   1.168  0.4290  0.1247 -0.2419
  214MOL0     H28869   6.392   9.531   1.156 -1.2283  0.1402  1.8992
  214MOL0     H28870   6.294   8.390   0.845 -2.1431  2.2858 -0.8656
  214MOL0     H28871   6.228   8.153   0.896 -0.5366 -0.0410  0.3427
  214MOL0     H28872   5.812   7.962   1.092  1.1530  0.0587  0.9880
  214MOL0     H28873   5.699   7.726   1.092 -1.4259  2.8953  0.9268
  214MOL0     H28874   6.079   6.311   0.468  0.9844 -0.3117 -0.3953
  214MOL0     H28875   5.901   6.239   0.343 -0.5280  1.7566  0.0714
  214MOL0     H28876   5.634   5.935   0.236  0.9746 -3.6539  4.0240
  214MOL0     H28877   5.509   5.784   0.095 -0.2212 -0.4034  0.3555
  214MOL0     H28878   5.119   5.893   0.059 -2.0516  0.0559  2.7296
  214MOL0     H28879   5.057   5.737   0.128  1.5342  1.2196  0.9284
  214MOL0     H28880   5.158   5.805  -0.145 -1.0103  3.8820  2.1943
  214MOL0     H28881   4.990   5.767  -0.101 -0.9471  1.9112  5.7697
  214MOL0     H28882   5.089   5.531  -0.006 -0.9435 -0.4929 -1.8932
  214MOL0     H28883   5.220   5.558  -0.130 -0.2259 -1.7674 -2.4974
  214MOL0     H28884   5.073   5.541  -0.306 -1.9230 -2.4982 -1.1967
  214MOL0     H28885   5.078   5.389  -0.206 -2.8486 -1.6243  1.5565
  214MOL0     H28886   4.664   5.465  -0.197 -0.7569  0.9543 -0.7221
  214MOL0     H28887   5.146   5.899   0.279 -0.2125 -0.7018 -1.4107
  214MOL0     H28888   5.134   6.033   0.450  1.3202 -1.3976 -2.6491
  214MOL0     H28889   5.263   5.980   0.558  0.7219  0.0828 -0.5211
  214MOL0     H28890   5.251   6.154   0.493  0.6412  0.9686 -0.3739
  215MOL0     O28891   8.123   2.844   5.660 -0.1590 -0.2485 -0.4300
  215MOL0     C28892   8.091   2.910   5.760  0.3129  0.0725 -0.0210
  215MOL0     O28893   8.173   2.934   5.862 -0.4901  0.6796 -0.3268
  215MOL0     C28894   8.286   2.854   5.863 -1.7242 -0.2901 -1.0075
  215MOL0     C28895   8.399   2.881   5.787  0.8765  0.6737 -0.2238
  215MOL0     C28896   8.515   2.797   5.808  0.2117 -0.2241 -0.2666
  215MOL0     C28897   8.531   2.715   5.916  0.4861  1.0860 -0.8818
  215MOL0     O28898   8.639   2.649   5.957 -0.5729  0.1518 -0.2748
  215MOL0     C28899   8.756   2.639   5.871 -0.0919 -0.5960  0.5245
  215MOL0     C28900   8.858   2.750   5.901  0.0254  0.4587 -0.8426
  215MOL0     C28901   8.988   2.745   5.827 -0.5727  0.6469 -0.2848
  215MOL0     C28902   9.080   2.858   5.861  0.6804 -0.4466 -0.4198
  215MOL0     C28903   9.212   2.830   5.792 -0.2499  0.0735 -0.7248
  215MOL0     C28904   9.301   2.950   5.817  0.6142 -0.8952  0.0382
  215MOL0     C28905   9.413   2.955   5.706 -0.3590  0.9345  0.0483
  215MOL0     C28906   9.542   3.008   5.762 -0.5526  0.8741  0.0147
  215MOL0     N28907   9.559   3.155   5.738  0.2524  0.8176 -0.2535
  215MOL0     C28908   9.573   3.213   5.614  0.0625  1.8831  0.3703
  215MOL0     C28909   9.610   3.337   5.637  0.4293 -0.3684 -0.0714
  215MOL0     C28910   9.623   3.446   5.531 -0.0579  0.0886 -0.2015
  215MOL0     C28911   9.738   3.533   5.579  0.2094  0.9231 -0.0093
  215MOL0     C28912   9.792   3.629   5.489  0.0325  0.8899  0.3842
  215MOL0     C28913   9.866   3.568   5.368  0.0899 -0.1869 -0.8337
  215MOL0     O28914   9.881   3.681   5.275  0.0243 -0.4971 -0.2692
  215MOL0     C28915   9.803   3.715   5.169 -0.2315  0.1398  0.4392
  215MOL0     C28916   9.704   3.627   5.122  0.2300 -0.4727  0.1896
  215MOL0     C28917   9.622   3.653   5.010 -0.6849 -0.2022 -0.6743
  215MOL0     C28918   9.659   3.763   4.940  0.2826 -1.3019  1.3311
  215MOL0     C28919   9.579   3.788   4.818  0.8059  0.9753 -0.6177
  215MOL0     O28920   9.477   3.692   4.801  0.8712 -0.0881  0.8497
  215MOL0     C28921   9.374   3.719   4.712 -0.0411 -0.5027 -0.1125
  215MOL0     C28922   9.302   3.845   4.696 -0.2315 -0.3288  0.1689
  215MOL0     C28923   9.201   3.836   4.601  0.2814 -0.4192  0.2174
  215MOL0     C28924   9.172   3.719   4.531  0.0656 -0.0603 -0.0537
  215MOL0     O28925   9.071   3.721   4.438  0.4118  0.3960 -0.0905
  215MOL0     C28926   8.977   3.618   4.465 -0.2408  0.5763  0.4466
  215MOL0     C28927   8.841   3.642   4.391 -0.3814  0.0906  0.0800
  215MOL0     C28928   8.738   3.546   4.436 -0.1840 -0.0700 -0.0836
  215MOL0     C28929   8.758   3.408   4.380  0.2147  0.3048 -0.0492
  215MOL0     C28930   8.811   3.316   4.493 -1.3048  0.7658  0.1475
  215MOL0     C28931   8.714   3.204   4.535  0.0942 -0.8217 -0.1990
  215MOL0     C28932   8.770   3.106   4.639 -0.3008  0.5708 -1.0090
  215MOL0     C28933   8.747   3.136   4.784  0.0686 -0.7536 -0.5539
  215MOL0    Cl28934   8.584   3.115   4.826 -0.0174  0.1772  0.2066
  215MOL0     C28935   9.244   3.602   4.550  0.2060  0.4429  0.6115
  215MOL0     C28936   9.337   3.599   4.646 -0.6499  0.2223 -0.8125
  215MOL0     O28937   9.579   3.893   4.763  0.7032 -0.1733  0.0951
  215MOL0     C28938   9.762   3.850   4.974  0.5005  0.0660  0.2676
  215MOL0     C28939   9.835   3.827   5.095 -0.1893  0.1548 -0.4219
  215MOL0     N28940   9.626   3.355   5.771  0.1481  0.2060  0.0018
  215MOL0     N28941   9.583   3.243   5.829 -0.9422  0.4427 -1.1458
  215MOL0     C28942   8.419   2.685   5.991  0.6898  0.1797  0.0854
  215MOL0     C28943   8.295   2.744   5.951  0.6926  1.1734 -0.2557
  215MOL0     C28944   7.954   2.976   5.754  0.1344  1.0233  0.1383
  215MOL0     C28945   7.863   2.929   5.645 -1.2029 -0.1717 -0.5876
  215MOL0     C28946   7.730   2.993   5.647  0.9965  0.2026 -0.7311
  215MOL0     C28947   7.680   3.080   5.750  0.1091 -0.3544 -0.2917
  215MOL0     O28948   7.555   3.141   5.750  0.0420  0.9720  0.2131
  215MOL0     C28949   7.567   3.283   5.767  0.0534  0.0134  0.7430
  215MOL0     C28950   7.478   3.347   5.656  0.0910  0.6167  0.7395
  215MOL0     C28951   7.331   3.344   5.678 -0.5479 -0.5611  0.5968
  215MOL0     C28952   7.258   3.424   5.565 -0.8122  0.8956 -1.0751
  215MOL0     C28953   7.303   3.562   5.579 -0.3452  0.0035  0.4860
  215MOL0     C28954   7.331   3.678   5.556  0.4147 -0.3321  0.3730
  215MOL0     C28955   7.771   3.112   5.849 -0.2889 -0.8394  0.2331
  215MOL0     C28956   7.905   3.071   5.851  0.0038  0.5364  0.8895
  215MOL0     C28957   7.985   3.122   5.979 -0.3008  0.4505  0.8532
  215MOL0     H28958   8.376   2.946   5.704  0.2890 -1.1027 -1.5251
  215MOL0     H28959   8.594   2.824   5.739 -0.2628 -4.7120 -2.9611
  215MOL0     H28960   8.806   2.545   5.897  3.6667  1.4276  1.4308
  215MOL0     H28961   8.739   2.645   5.763  1.1035  1.7076  0.3858
  215MOL0     H28962   8.892   2.737   6.004 -2.0306 -2.5765 -0.4142
  215MOL0     H28963   8.819   2.851   5.887  0.9539  1.3658  2.1887
  215MOL0     H28964   8.958   2.752   5.722 -0.3027  1.3185 -0.3226
  215MOL0     H28965   9.033   2.646   5.834  1.5678  1.6668  3.5131
  215MOL0     H28966   9.022   2.950   5.853 -2.0418 -2.0375 -0.0080
  215MOL0     H28967   9.092   2.846   5.969  2.8753 -0.7688 -0.6507
  215MOL0     H28968   9.253   2.732   5.819 -0.9154 -0.4813 -1.6295
  215MOL0     H28969   9.196   2.836   5.683 -0.7636  0.0182 -0.6565
  215MOL0     H28970   9.247   3.044   5.803  2.2147 -0.2170 -2.2830
  215MOL0     H28971   9.342   2.950   5.918 -0.5588  0.8215  0.5560
  215MOL0     H28972   9.375   3.019   5.626 -0.6203  1.4763  0.5895
  215MOL0     H28973   9.425   2.852   5.672  4.0375  1.6371 -1.1516
  215MOL0     H28974   9.564   2.966   5.860 -0.7439 -0.8720 -0.6576
  215MOL0     H28975   9.608   2.950   5.696 -0.7904  0.1378  0.4138
  215MOL0     H28976   9.545   3.172   5.518  0.1673  0.5422  0.8781
  215MOL0     H28977   9.634   3.406   5.430 -2.7725  3.3228 -2.0029
  215MOL0     H28978   9.539   3.515   5.542  0.7831  0.8442  2.1172
  215MOL0     H28979   9.699   3.591   5.663 -0.1401 -0.0932  0.5462
  215MOL0     H28980   9.821   3.473   5.618 -0.9922 -0.1480  0.9849
  215MOL0     H28981   9.849   3.698   5.552  0.2480  0.2767  0.8773
  215MOL0     H28982   9.718   3.701   5.454  0.7477  1.7961  0.6761
  215MOL0     H28983   9.814   3.480   5.329  2.6828 -1.8905 -0.6403
  215MOL0     H28984   9.966   3.531   5.390  2.4834  6.4360  1.8116
  215MOL0     H28985   9.697   3.533   5.175 -0.8379 -0.5029  0.0294
  215MOL0     H28986   9.556   3.570   4.987  0.0951 -0.5249 -1.8371
  215MOL0     H28987   9.322   3.932   4.757  1.3114 -2.5665  3.1272
  215MOL0     H28988   9.134   3.917   4.573 -0.8252 -1.5266 -0.4641
  215MOL0     H28989   9.016   3.522   4.429  2.8159  2.3524 -1.3974
  215MOL0     H28990   8.951   3.610   4.571  0.6768 -1.8944  0.5412
  215MOL0     H28991   8.803   3.744   4.397 -2.6066 -0.7573  1.7470
  215MOL0     H28992   8.861   3.628   4.284 -0.8209  4.2072 -0.7004
  215MOL0     H28993   8.713   3.537   4.542 -0.4769 -0.8541 -0.2097
  215MOL0     H28994   8.645   3.589   4.400 -1.4812 -1.9169  0.8529
  215MOL0     H28995   8.814   3.406   4.286  0.0242 -0.2609 -0.1540
  215MOL0     H28996   8.661   3.362   4.359  0.9242 -0.6262 -1.4715
  215MOL0     H28997   8.853   3.376   4.574 -1.2972 -1.0691  1.5642
  215MOL0     H28998   8.890   3.261   4.441 -1.1482  0.2013  0.9761
  215MOL0     H28999   8.619   3.247   4.569 -0.5537  0.1508 -2.9960
  215MOL0     H29000   8.668   3.152   4.450 -2.5933 -0.4549  0.9329
  215MOL0     H29001   8.876   3.083   4.631 -0.5043 -0.1603 -1.9260
  215MOL0     H29002   8.716   3.010   4.630  1.1818 -0.3898 -0.0204
  215MOL0     H29003   8.796   3.075   4.860  3.4500 -0.2488 -2.1617
  215MOL0     H29004   8.784   3.237   4.802  0.7974 -0.9909 -0.7189
  215MOL0     H29005   9.221   3.513   4.493  0.1864  0.1640  1.0527
  215MOL0     H29006   9.392   3.508   4.670 -0.2485  0.4981 -0.6727
  215MOL0     H29007   9.778   3.937   4.911 -0.0892 -0.6302 -0.8802
  215MOL0     H29008   9.913   3.891   5.136  1.0561 -1.4164 -0.2438
  215MOL0     H29009   8.432   2.608   6.066  1.1128 -1.0706 -1.2185
  215MOL0     H29010   8.200   2.708   5.990 -0.0534 -0.5586 -3.4005
  215MOL0     H29011   7.895   2.867   5.562 -1.4635  0.7665 -1.4123
  215MOL0     H29012   7.658   2.955   5.574 -1.9593 -0.3694  2.2514
  215MOL0     H29013   7.668   3.319   5.746  0.0912 -1.4749 -2.1703
  215MOL0     H29014   7.542   3.307   5.870 -0.5795 -3.3388  1.4913
  215MOL0     H29015   7.494   3.313   5.554 -2.3865  4.8120 -1.3428
  215MOL0     H29016   7.519   3.449   5.651  0.0914  0.5334 -2.0116
  215MOL0     H29017   7.322   3.391   5.776  0.2923 -0.2949  0.5552
  215MOL0     H29018   7.306   3.238   5.690 -3.0893  0.1106  1.8267
  215MOL0     H29019   7.276   3.379   5.467  0.2878 -2.7170  0.6095
  215MOL0     H29020   7.153   3.425   5.596 -0.1772 -2.4014  1.6335
  215MOL0     H29021   7.353   3.783   5.544 -1.8865 -0.1475 -4.7582
  215MOL0     H29022   7.729   3.176   5.926 -1.4421 -1.6543  0.3136
  215MOL0     H29023   8.001   3.040   6.049 -2.5975 -0.3617  0.5065
  215MOL0     H29024   8.084   3.155   5.946  1.0832 -3.2285  0.8172
  215MOL0     H29025   7.927   3.204   6.021 -3.5627 -0.8822 -0.6753
  216MOL0     O29026   4.782   1.072   2.045 -0.0109 -0.2621 -0.6098
  216MOL0     C29027   4.802   1.149   1.955  0.3938  0.5813  0.1270
  216MOL0     O29028   4.919   1.218   1.935 -1.1129 -0.5352  0.8491
  216MOL0     C29029   5.023   1.205   2.036  0.3176  0.0247  0.3521
  216MOL0     C29030   5.107   1.091   2.043  0.4485  0.1077  0.7765
  216MOL0     C29031   5.210   1.085   2.133 -0.1451  0.3109  0.2849
  216MOL0     C29032   5.253   1.198   2.215  0.7284 -1.2258 -0.5763
  216MOL0     O29033   5.359   1.183   2.296  0.6897 -0.0389 -0.6170
  216MOL0     C29034   5.359   1.272   2.408  0.2409  0.1216 -0.2370
  216MOL0     C29035   5.468   1.243   2.514  0.3230 -0.0173  0.6346
  216MOL0     C29036   5.611   1.290   2.479 -0.0560  0.6813  0.6016
  216MOL0     C29037   5.707   1.282   2.600 -0.7314  0.3553  0.5581
  216MOL0     C29038   5.713   1.412   2.694 -0.1886  0.0236 -0.3052
  216MOL0     C29039   5.770   1.404   2.836  1.3577 -0.9338 -0.8446
  216MOL0     C29040   5.760   1.547   2.902 -0.6808 -0.5922  0.0719
  216MOL0     C29041   5.769   1.545   3.058  0.8447 -0.7814  0.0940
  216MOL0     N29042   5.898   1.516   3.113  1.1027  0.7340  0.5015
  216MOL0     C29043   6.016   1.542   3.061 -0.0829  0.0559  0.4773
  216MOL0     C29044   6.104   1.470   3.139 -0.2048  0.2116  0.2366
  216MOL0     C29045   6.257   1.442   3.107  0.8479  0.9549  0.0633
  216MOL0     C29046   6.257   1.315   3.009  0.4534  0.4325  0.1512
  216MOL0     C29047   6.285   1.357   2.865  1.0686  1.0378  0.4040
  216MOL0     C29048   6.261   1.239   2.771 -0.1555 -0.0871 -0.1987
  216MOL0     O29049   6.306   1.258   2.642 -0.4136 -0.3406  0.4201
  216MOL0     C29050   6.267   1.368   2.567 -1.0206  1.0357 -1.0981
  216MOL0     C29051   6.137   1.430   2.574 -0.4701  0.6137  0.2366
  216MOL0     C29052   6.102   1.535   2.494 -0.2516 -0.2275  0.3494
  216MOL0     C29053   6.184   1.575   2.384 -0.4601  0.2924  0.5363
  216MOL0     C29054   6.139   1.677   2.280 -0.4948 -0.7093 -0.3511
  216MOL0     O29055   6.021   1.747   2.292  0.0944  0.5729  0.6007
  216MOL0     C29056   5.998   1.826   2.181 -0.2387 -0.4995  0.0751
  216MOL0     C29057   6.053   1.946   2.155  0.9399  0.4755 -0.7304
  216MOL0     C29058   6.004   2.024   2.043 -0.9024 -0.7185  0.0953
  216MOL0     C29059   5.899   1.987   1.966 -0.1345  0.1987  0.9673
  216MOL0     O29060   5.827   2.062   1.879 -0.3522 -0.5091 -0.5763
  216MOL0     C29061   5.900   2.169   1.820 -0.7857  0.5230  0.1386
  216MOL0     C29062   5.831   2.211   1.691  0.2646  0.8605  0.4600
  216MOL0     C29063   5.682   2.258   1.708  0.4325  0.2244  0.4671
  216MOL0     C29064   5.626   2.303   1.571  0.6531  0.0518  0.0614
  216MOL0     C29065   5.485   2.255   1.566 -0.4862  0.1074  0.7265
  216MOL0     C29066   5.405   2.343   1.464 -1.1218 -0.0189 -0.5511
  216MOL0     C29067   5.264   2.282   1.455  0.7385 -0.3681 -0.1710
  216MOL0     C29068   5.250   2.216   1.318  0.7040  0.5699 -0.1077
  216MOL0    Cl29069   5.265   2.348   1.186  0.0763 -0.2017  0.0726
  216MOL0     C29070   5.835   1.866   2.013  0.4150  0.5914  0.6923
  216MOL0     C29071   5.887   1.786   2.108  0.2747 -0.0798  0.3663
  216MOL0     O29072   6.217   1.690   2.190  0.1318  0.1154 -0.4162
  216MOL0     C29073   6.311   1.509   2.371 -0.0637 -0.0218 -0.0454
  216MOL0     C29074   6.347   1.408   2.465  0.6196 -0.7875  0.3852
  216MOL0     N29075   6.033   1.428   3.249 -0.1600  0.7038 -0.5058
  216MOL0     N29076   5.913   1.450   3.228 -0.1091 -0.3200 -0.4768
  216MOL0     C29077   5.163   1.309   2.214 -0.3582 -0.3932  1.0124
  216MOL0     C29078   5.054   1.311   2.121  0.5838 -0.3916  0.1510
  216MOL0     C29079   4.678   1.174   1.878 -0.4288  0.8370  0.6758
  216MOL0     C29080   4.566   1.240   1.937 -0.6227  0.9631  0.1282
  216MOL0     C29081   4.453   1.278   1.861  1.1983  0.1660  0.5329
  216MOL0     C29082   4.463   1.280   1.726  0.0476  0.2426  0.9630
  216MOL0     O29083   4.357   1.316   1.651 -0.5300 -0.0257  0.1716
  216MOL0     C29084   4.355   1.292   1.513  0.9009  0.1844 -0.6507
  216MOL0     C29085   4.204   1.294   1.456 -1.2523  0.4968 -0.7710
  216MOL0     C29086   4.216   1.252   1.307  0.1118 -0.2320  0.5384
  216MOL0     C29087   4.066   1.242   1.254  0.1107  0.9253 -1.0598
  216MOL0     C29088   4.041   1.306   1.123  0.7101 -0.0522 -0.2309
  216MOL0     C29089   4.026   1.350   1.017  0.2663  0.0681  0.4932
  216MOL0     C29090   4.576   1.232   1.664 -1.0435  0.0736  0.5772
  216MOL0     C29091   4.678   1.178   1.739 -0.4375  0.5880  0.1815
  216MOL0     C29092   4.798   1.129   1.662  0.0009  0.7468 -0.9044
  216MOL0     H29093   5.084   1.013   1.971  2.1811 -0.9577  1.3151
  216MOL0     H29094   5.251   0.986   2.149  1.4388  0.0502 -4.0512
  216MOL0     H29095   5.378   1.370   2.366 -4.4290  0.8077 -1.3116
  216MOL0     H29096   5.267   1.284   2.466  2.3129 -2.1168  4.0190
  216MOL0     H29097   5.469   1.136   2.535  0.7517  0.1295  1.3772
  216MOL0     H29098   5.445   1.298   2.606  1.6350 -0.7921  1.4491
  216MOL0     H29099   5.604   1.395   2.448 -2.6727 -0.3115 -2.8006
  216MOL0     H29100   5.639   1.218   2.402  0.3170 -0.3819  1.7019
  216MOL0     H29101   5.669   1.202   2.664 -1.9539  2.2630  2.3171
  216MOL0     H29102   5.807   1.264   2.559  0.7237  2.8697  2.7093
  216MOL0     H29103   5.774   1.484   2.638  0.5057 -0.0434  0.3557
  216MOL0     H29104   5.610   1.448   2.705  0.2036  0.5629  1.9401
  216MOL0     H29105   5.720   1.331   2.901 -0.7022  0.2443 -1.0201
  216MOL0     H29106   5.875   1.380   2.817  1.3928  0.8739 -3.5190
  216MOL0     H29107   5.665   1.586   2.866  0.2303 -0.3101 -2.1794
  216MOL0     H29108   5.840   1.604   2.854  0.3488 -1.0264  1.2096
  216MOL0     H29109   5.748   1.644   3.099  0.8988 -1.6300  2.2941
  216MOL0     H29110   5.688   1.484   3.099  1.1210 -1.6870 -0.6464
  216MOL0     H29111   6.039   1.595   2.969  1.1749  1.7645  1.7146
  216MOL0     H29112   6.306   1.528   3.061 -0.4789  1.5056 -0.3692
  216MOL0     H29113   6.315   1.415   3.196  0.3287  3.0659  1.0941
  216MOL0     H29114   6.326   1.236   3.041 -2.4650 -2.6293 -0.5305
  216MOL0     H29115   6.166   1.255   3.016  1.2592 -0.7481  0.9727
  216MOL0     H29116   6.386   1.397   2.854  0.9087  1.4744  0.5473
  216MOL0     H29117   6.207   1.430   2.847  1.3273  0.8916 -1.6190
  216MOL0     H29118   6.154   1.217   2.768 -1.2399  4.2561 -1.9543
  216MOL0     H29119   6.299   1.146   2.814  0.6047  0.1182 -0.4096
  216MOL0     H29120   6.076   1.393   2.656  1.3899 -2.6760  0.3285
  216MOL0     H29121   6.003   1.579   2.500 -1.9075 -3.5762  0.4888
  216MOL0     H29122   6.137   1.976   2.217  2.5499 -3.4766 -0.7433
  216MOL0     H29123   6.059   2.117   2.039  1.7088 -2.1536 -4.0401
  216MOL0     H29124   5.914   2.258   1.882  3.2789 -0.1956  0.5243
  216MOL0     H29125   6.000   2.136   1.790 -0.9618  0.6041 -0.5478
  216MOL0     H29126   5.887   2.289   1.639 -0.1179  0.0641 -1.2460
  216MOL0     H29127   5.825   2.128   1.619 -4.3893  1.0516  0.3482
  216MOL0     H29128   5.629   2.171   1.748 -0.9949  0.1786 -1.4194
  216MOL0     H29129   5.674   2.338   1.782 -0.6486  2.5110 -1.9966
  216MOL0     H29130   5.691   2.271   1.490 -0.6723 -0.1443 -0.9620
  216MOL0     H29131   5.628   2.413   1.575  1.2952  0.3062 -3.7962
  216MOL0     H29132   5.440   2.253   1.666 -0.4378 -0.6822  0.7445
  216MOL0     H29133   5.492   2.156   1.519  1.8360  1.8695 -3.0919
  216MOL0     H29134   5.398   2.440   1.515 -0.5284 -0.2526 -0.0071
  216MOL0     H29135   5.466   2.351   1.373  1.4635  0.8176  1.1408
  216MOL0     H29136   5.187   2.359   1.465 -0.2711 -1.3021 -0.6089
  216MOL0     H29137   5.241   2.205   1.529  0.3180 -1.9243 -1.8554
  216MOL0     H29138   5.332   2.143   1.319 -1.0004 -1.4809  2.1140
  216MOL0     H29139   5.157   2.159   1.320  0.1995  1.3729 -0.5414
  216MOL0     H29140   5.743   1.829   1.968  1.0756 -0.5974  0.2867
  216MOL0     H29141   5.837   1.698   2.148 -0.5564  1.4263  2.8421
  216MOL0     H29142   6.391   1.526   2.300  3.1224 -4.4946  1.9495
  216MOL0     H29143   6.441   1.355   2.453  0.3235 -1.0070 -1.1405
  216MOL0     H29144   5.185   1.406   2.257  0.6683  0.6598 -1.6510
  216MOL0     H29145   4.984   1.393   2.113  0.1550 -0.5801  1.7759
  216MOL0     H29146   4.560   1.254   2.044 -1.2338  0.4610  0.1670
  216MOL0     H29147   4.358   1.316   1.897 -1.0923  0.7350 -5.0201
  216MOL0     H29148   4.385   1.187   1.502 -3.2178 -2.1987  5.5448
  216MOL0     H29149   4.411   1.363   1.451  1.1380 -0.0855 -0.7539
  216MOL0     H29150   4.173   1.398   1.472 -2.2789  0.1721 -0.5788
  216MOL0     H29151   4.142   1.225   1.514 -1.0674 -1.4546 -2.7834
  216MOL0     H29152   4.256   1.151   1.301  0.9296  0.1513 -1.9989
  216MOL0     H29153   4.286   1.308   1.243 -0.3202 -0.7661 -0.4293
  216MOL0     H29154   4.041   1.136   1.239  2.1482  0.4794 -1.5497
  216MOL0     H29155   3.991   1.279   1.324  0.9277  1.3132 -0.3734
  216MOL0     H29156   3.990   1.381   0.921 -0.0761 -0.5009  0.4316
  216MOL0     H29157   4.589   1.227   1.556  1.5924 -2.7832  0.8991
  216MOL0     H29158   4.811   1.026   1.694 -0.8387  1.9221  4.0875
  216MOL0     H29159   4.772   1.133   1.555 -3.3382 -1.1769 -0.3215
  216MOL0     H29160   4.889   1.184   1.686  0.8865 -1.3018  0.6016
  217MOL0     O29161   1.423   2.318   6.526  1.3880  0.5723 -0.1165
  217MOL0     C29162   1.429   2.412   6.444  0.0201  0.3599  0.7122
  217MOL0     O29163   1.338   2.439   6.357  0.0062  0.9311 -0.3763
  217MOL0     C29164   1.212   2.401   6.380  0.5957 -0.3706 -0.8748
  217MOL0     C29165   1.126   2.460   6.482  0.6607  0.3206 -0.5751
  217MOL0     C29166   0.988   2.417   6.492 -0.5142  0.1874 -0.5727
  217MOL0     C29167   0.937   2.329   6.398 -0.1411 -0.0317  0.2468
  217MOL0     O29168   0.807   2.309   6.405 -0.2330  0.2286 -0.5892
  217MOL0     C29169   0.741   2.182   6.372  0.8383 -0.6724  0.6539
  217MOL0     C29170   0.608   2.165   6.436 -0.9679  0.2795 -0.7247
  217MOL0     C29171   0.550   2.029   6.398  0.9922 -0.4207 -0.2935
  217MOL0     C29172   0.404   2.033   6.435  0.3881  0.4546  0.8293
  217MOL0     C29173   0.341   1.896   6.427  0.9731  0.6731  0.0147
  217MOL0     C29174   0.398   1.774   6.522 -0.7519 -0.4932  0.7688
  217MOL0     C29175   0.369   1.792   6.677  0.0446  0.3503 -0.2169
  217MOL0     C29176   0.468   1.720   6.759 -0.0777  0.2673 -0.3983
  217MOL0     N29177   0.605   1.783   6.741  0.4176  0.3365  0.5009
  217MOL0     C29178   0.636   1.896   6.802 -0.2508  0.3411  0.0438
  217MOL0     C29179   0.774   1.905   6.793 -0.3950  1.4536  1.0876
  217MOL0     C29180   0.858   2.013   6.856  0.0136 -0.3144  0.4301
  217MOL0     C29181   0.860   2.142   6.767  0.2816 -0.1601 -0.0147
  217MOL0     C29182   0.949   2.248   6.831 -0.6225 -1.4515 -0.3215
  217MOL0     C29183   1.089   2.207   6.850 -0.5480 -0.0116 -0.8217
  217MOL0     O29184   1.158   2.319   6.906 -0.2969  0.2735 -0.6972
  217MOL0     C29185   1.281   2.295   6.958  0.6704 -0.3331 -1.2176
  217MOL0     C29186   1.309   2.310   7.098 -0.1049  1.0263 -0.4137
  217MOL0     C29187   1.433   2.276   7.146  0.3793  0.0809 -0.6702
  217MOL0     C29188   1.534   2.242   7.064 -0.2208 -0.2116 -0.7291
  217MOL0     C29189   1.670   2.221   7.135  0.9491 -0.4967  0.0014
  217MOL0     O29190   1.667   2.195   7.272 -0.6233  0.0410 -0.3725
  217MOL0     C29191   1.787   2.183   7.341  0.8686 -0.3287 -0.0969
  217MOL0     C29192   1.873   2.287   7.355 -1.0217 -0.4472  0.6903
  217MOL0     C29193   1.997   2.263   7.429 -0.1450  0.4332 -0.5953
  217MOL0     C29194   2.027   2.137   7.481  0.8402  0.7456  1.0739
  217MOL0     O29195   2.146   2.120   7.549 -0.1983 -0.2220 -0.6960
  217MOL0     C29196   2.166   1.999   7.635  0.1428 -1.5238 -0.5664
  217MOL0     C29197   2.274   2.027   7.747  0.0698 -0.7951  0.1806
  217MOL0     C29198   2.217   2.111   7.863 -0.1241 -0.3164 -0.6003
  217MOL0     C29199   2.107   2.042   7.949 -0.6373  0.2991  0.1600
  217MOL0     C29200   2.180   1.950   8.044 -0.0999  0.1403  0.4256
  217MOL0     C29201   2.081   1.905   8.157 -0.4380 -0.2888  0.6590
  217MOL0     C29202   1.963   1.825   8.100  0.0241 -0.9357 -0.1131
  217MOL0     C29203   2.000   1.700   8.024  0.4111 -0.3058 -0.2400
  217MOL0    Cl29204   1.861   1.583   7.970 -0.0862 -0.3478  0.2587
  217MOL0     C29205   1.934   2.030   7.447 -1.0653 -0.1462 -0.4035
  217MOL0     C29206   1.815   2.057   7.370 -0.2162  0.3172  0.4065
  217MOL0     O29207   1.765   2.230   7.061 -0.6907 -0.2955  0.1360
  217MOL0     C29208   1.521   2.246   6.932  0.1424 -0.1190  1.0721
  217MOL0     C29209   1.398   2.271   6.875  0.6428 -0.2431 -0.6984
  217MOL0     N29210   0.814   1.799   6.717 -0.1522  0.0149 -0.6205
  217MOL0     N29211   0.715   1.736   6.675  0.3809 -0.0613 -0.7924
  217MOL0     C29212   1.020   2.269   6.311 -0.5589 -0.2618 -0.0114
  217MOL0     C29213   1.149   2.302   6.300  1.2470  1.3313 -0.2794
  217MOL0     C29214   1.548   2.496   6.441  1.5661  0.4527 -0.3985
  217MOL0     C29215   1.557   2.583   6.331  0.0419 -0.3358  0.0539
  217MOL0     C29216   1.660   2.661   6.314 -0.3291  0.1097 -0.0552
  217MOL0     C29217   1.758   2.672   6.402 -1.4793 -0.3046 -1.1576
  217MOL0     O29218   1.856   2.773   6.399  0.1240 -0.4333 -0.0197
  217MOL0     C29219   1.877   2.862   6.283  0.0540  0.4427 -0.4342
  217MOL0     C29220   1.876   3.005   6.336 -0.1172  0.0401  0.6812
  217MOL0     C29221   1.924   3.021   6.473 -0.9766  0.1353 -0.1733
  217MOL0     C29222   2.059   2.959   6.491 -0.4556 -0.3393  0.5990
  217MOL0     C29223   2.161   3.022   6.409  0.5292 -0.0630  0.0737
  217MOL0     C29224   2.246   3.075   6.349 -0.3530  1.4303  0.2405
  217MOL0     C29225   1.755   2.593   6.516 -0.2975  0.0493 -0.5333
  217MOL0     C29226   1.650   2.497   6.535 -0.2170  0.7610  0.1017
  217MOL0     C29227   1.655   2.416   6.658 -0.7204  0.0726  0.9599
  217MOL0     H29228   1.152   2.533   6.557 -0.8681 -2.2339  2.7091
  217MOL0     H29229   0.925   2.463   6.568 -2.1753 -0.7097 -1.3470
  217MOL0     H29230   0.712   2.207   6.269  0.0977  2.5189  1.5287
  217MOL0     H29231   0.814   2.101   6.376 -0.0521 -1.4196  3.0102
  217MOL0     H29232   0.534   2.243   6.420 -2.5592 -1.0264  0.0269
  217MOL0     H29233   0.646   2.167   6.538  1.0373  1.6380 -1.4185
  217MOL0     H29234   0.599   1.948   6.452 -0.8189  1.3231  4.5905
  217MOL0     H29235   0.561   2.019   6.290 -1.0914 -0.2173 -0.5693
  217MOL0     H29236   0.391   2.080   6.533  2.9927  0.8273  1.0540
  217MOL0     H29237   0.354   2.097   6.362  0.6480  0.4997  0.6907
  217MOL0     H29238   0.238   1.896   6.464  1.7194 -0.7104  2.2693
  217MOL0     H29239   0.341   1.865   6.322 -1.0740 -2.3710  0.7744
  217MOL0     H29240   0.360   1.675   6.493 -2.3034  0.5769 -1.0599
  217MOL0     H29241   0.505   1.776   6.499 -1.3040  0.3700 -2.1056
  217MOL0     H29242   0.268   1.764   6.707 -0.1287  1.8634  0.7305
  217MOL0     H29243   0.372   1.901   6.693  2.6413  0.6508 -2.0535
  217MOL0     H29244   0.434   1.733   6.862 -1.0376 -0.4602 -0.6107
  217MOL0     H29245   0.463   1.612   6.742 -2.5568 -0.1036  1.9289
  217MOL0     H29246   0.565   1.952   6.862 -1.5578  0.0560 -1.1860
  217MOL0     H29247   0.828   2.047   6.956 -1.4026  0.4634 -0.2326
  217MOL0     H29248   0.959   1.974   6.873  0.8760  1.6106 -0.0120
  217MOL0     H29249   0.904   2.111   6.672 -1.8998 -0.7915 -0.8568
  217MOL0     H29250   0.762   2.188   6.752  0.0559 -1.1976 -2.0333
  217MOL0     H29251   0.914   2.278   6.931  0.4541  1.6534 -0.7789
  217MOL0     H29252   0.947   2.340   6.772 -0.3429 -2.0338 -1.2630
  217MOL0     H29253   1.145   2.172   6.764 -1.5372 -3.8511 -0.0751
  217MOL0     H29254   1.105   2.115   6.906  2.7796 -3.1485 -6.1189
  217MOL0     H29255   1.229   2.337   7.166  1.2319 -1.0285  2.1262
  217MOL0     H29256   1.440   2.284   7.254  0.4907 -2.0825 -0.4561
  217MOL0     H29257   1.852   2.387   7.318  3.3377  1.7318  3.2889
  217MOL0     H29258   2.060   2.345   7.462 -0.0656 -0.4159  1.5354
  217MOL0     H29259   2.071   1.973   7.683  2.4281 -2.7985  3.7766
  217MOL0     H29260   2.193   1.908   7.581 -0.9801 -0.6106 -2.7787
  217MOL0     H29261   2.306   1.932   7.790 -2.2410 -2.0001 -0.5839
  217MOL0     H29262   2.362   2.071   7.699  1.1490 -4.0254 -1.1136
  217MOL0     H29263   2.307   2.149   7.913  2.2827 -3.9814 -1.7469
  217MOL0     H29264   2.176   2.203   7.821  1.0295 -0.4849 -2.1831
  217MOL0     H29265   2.037   1.985   7.887  0.5985  0.1906 -1.2075
  217MOL0     H29266   2.060   2.123   8.004  0.0692  1.2107 -0.5451
  217MOL0     H29267   2.268   2.003   8.081  0.9598 -0.4543 -1.1699
  217MOL0     H29268   2.212   1.867   7.981 -1.3898 -0.0716  0.0107
  217MOL0     H29269   2.133   1.845   8.232  2.0268  1.1474  0.2272
  217MOL0     H29270   2.040   1.993   8.208 -1.7110  0.4821 -1.5634
  217MOL0     H29271   1.899   1.896   8.047 -0.5814  0.2974  2.1040
  217MOL0     H29272   1.902   1.799   8.188 -1.3291 -0.4673 -0.8890
  217MOL0     H29273   2.039   1.733   7.927 -0.6569  1.4769 -0.1055
  217MOL0     H29274   2.079   1.650   8.082  1.8845  3.1934  1.0682
  217MOL0     H29275   1.945   1.929   7.486 -0.6030  0.3365  0.7743
  217MOL0     H29276   1.745   1.976   7.358 -0.1035  0.1066  1.1480
  217MOL0     H29277   1.599   2.249   6.856 -0.6047  1.3300  0.2992
  217MOL0     H29278   1.398   2.269   6.766  2.3195 -4.0105 -0.7924
  217MOL0     H29279   0.998   2.200   6.230  2.7276 -0.7250 -0.6780
  217MOL0     H29280   1.213   2.255   6.226  1.8921  2.5841 -0.5472
  217MOL0     H29281   1.484   2.561   6.254 -1.3524 -1.3423  1.6135
  217MOL0     H29282   1.652   2.711   6.218  0.2712 -1.7247 -1.1148
  217MOL0     H29283   1.814   2.861   6.194  0.6042 -2.8181 -0.9016
  217MOL0     H29284   1.978   2.838   6.249 -0.2366  1.5170 -2.1626
  217MOL0     H29285   1.770   3.033   6.330  0.3840  1.8129 -2.7021
  217MOL0     H29286   1.917   3.087   6.276  0.9243 -1.0755 -0.1782
  217MOL0     H29287   1.864   2.975   6.552  1.8839  1.6878  3.1298
  217MOL0     H29288   1.922   3.128   6.494  1.3306 -0.2382  2.4490
  217MOL0     H29289   2.072   2.982   6.597  0.3736  0.5202  0.3246
  217MOL0     H29290   2.057   2.850   6.481 -2.7504 -0.1234 -2.9396
  217MOL0     H29291   2.322   3.090   6.275 -4.3011 -1.4073 -5.1185
  217MOL0     H29292   1.834   2.612   6.588 -2.7332  1.2981  2.0070
  217MOL0     H29293   1.749   2.434   6.709  1.9004 -1.0227 -2.9789
  217MOL0     H29294   1.575   2.449   6.724 -3.3143  3.0282 -3.1756
  217MOL0     H29295   1.638   2.309   6.638  0.9934  0.3565 -3.0861
  218MOL0     O29296   8.309   8.810   2.482 -0.0939  0.9442 -0.9140
  218MOL0     C29297   8.371   8.911   2.515  0.2770  0.3861  0.3610
  218MOL0     O29298   8.344   8.979   2.625 -0.3048 -0.5197 -0.4325
  218MOL0     C29299   8.245   8.946   2.715  0.2367  0.3139  0.3088
  218MOL0     C29300   8.128   8.874   2.681 -0.7352 -0.0616  0.1328
  218MOL0     C29301   8.020   8.858   2.766 -0.4646 -0.2251 -0.8450
  218MOL0     C29302   8.029   8.923   2.897 -0.9034  1.2897  0.4806
  218MOL0     O29303   7.918   8.921   2.972 -0.0884  0.4255 -0.1719
  218MOL0     C29304   7.932   8.875   3.103 -0.7175  0.8383  0.0950
  218MOL0     C29305   7.799   8.838   3.157  0.2021 -0.4389 -0.2218
  218MOL0     C29306   7.805   8.725   3.266  0.5490 -0.0217  0.4150
  218MOL0     C29307   7.812   8.585   3.197  0.6407 -0.3059  0.4301
  218MOL0     C29308   7.821   8.475   3.298  0.1176  0.5320 -0.1700
  218MOL0     C29309   7.957   8.476   3.366  0.1606 -0.2907  1.0985
  218MOL0     C29310   7.983   8.354   3.440 -0.7911 -0.7728 -0.2127
  218MOL0     C29311   7.902   8.359   3.574  0.3463  0.1652  0.7157
  218MOL0     N29312   7.937   8.255   3.674 -0.0921 -0.6825 -0.5853
  218MOL0     C29313   7.865   8.134   3.693  0.9912  0.2517  0.2082
  218MOL0     C29314   7.912   8.082   3.809  0.3082  0.7116 -1.2868
  218MOL0     C29315   7.847   7.977   3.899 -0.3279 -0.1467  0.4205
  218MOL0     C29316   7.746   8.032   4.002  0.7236 -0.1447  0.3999
  218MOL0     C29317   7.671   8.159   3.953  0.9108  0.1661  0.1275
  218MOL0     C29318   7.572   8.209   4.067  0.0759 -0.9467  0.4137
  218MOL0     O29319   7.488   8.109   4.118  0.6933 -0.1406 -0.2980
  218MOL0     C29320   7.445   8.133   4.247  0.4838  0.6658  0.4283
  218MOL0     C29321   7.418   8.259   4.317  0.7708  0.5159 -0.0232
  218MOL0     C29322   7.364   8.272   4.447 -0.2215  0.0918  1.3110
  218MOL0     C29323   7.333   8.152   4.507  0.8879 -0.4601 -0.4644
  218MOL0     C29324   7.271   8.152   4.645 -0.8449  0.2341 -0.8441
  218MOL0     O29325   7.270   8.038   4.721 -0.5030  0.3070 -0.1430
  218MOL0     C29326   7.218   8.047   4.851 -0.5635  0.6605  0.2425
  218MOL0     C29327   7.097   8.115   4.881 -0.6208 -0.0335  0.0467
  218MOL0     C29328   7.058   8.123   5.012  0.6575 -1.1337  0.7340
  218MOL0     C29329   7.125   8.064   5.120 -0.4712  0.4432 -0.1293
  218MOL0     O29330   7.091   8.069   5.253  0.2720 -0.8264  0.4243
  218MOL0     C29331   7.201   8.098   5.345 -0.6108  0.6269  0.5573
  218MOL0     C29332   7.164   8.179   5.470 -0.2347  0.8275  0.3014
  218MOL0     C29333   7.295   8.181   5.550  0.1598 -0.4254 -0.5265
  218MOL0     C29334   7.265   8.231   5.699 -0.5776  0.5973 -1.3151
  218MOL0     C29335   7.387   8.210   5.782 -0.3475  0.2479 -0.2339
  218MOL0     C29336   7.372   8.265   5.926 -1.0066 -0.7552  0.1762
  218MOL0     C29337   7.253   8.233   6.010 -0.8819 -0.8191  0.6791
  218MOL0     C29338   7.300   8.211   6.151 -0.6318  0.4452  1.0501
  218MOL0    Cl29339   7.153   8.250   6.257 -0.3256 -0.5564 -0.4567
  218MOL0     C29340   7.237   7.982   5.081 -0.0152 -0.1749 -0.3447
  218MOL0     C29341   7.288   7.978   4.949  1.0320  0.6472 -0.0575
  218MOL0     O29342   7.223   8.263   4.670 -0.2737 -0.5196  0.4976
  218MOL0     C29343   7.346   8.024   4.439  0.1992  0.0976 -0.1572
  218MOL0     C29344   7.405   8.014   4.311 -0.5395 -0.3539 -0.1332
  218MOL0     N29345   8.010   8.167   3.859  0.2305  0.7706 -0.4187
  218MOL0     N29346   8.025   8.267   3.775 -0.2501 -0.0640 -0.8184
  218MOL0     C29347   8.141   8.998   2.930 -0.1327  0.4663  0.2400
  218MOL0     C29348   8.245   9.009   2.841 -0.6510  0.7409  0.7028
  218MOL0     C29349   8.478   8.957   2.421  0.0126 -0.6761  0.7961
  218MOL0     C29350   8.489   9.099   2.401 -0.6592  0.2666 -0.3767
  218MOL0     C29351   8.598   9.151   2.317 -0.1250  0.3313 -0.0181
  218MOL0     C29352   8.689   9.061   2.255  1.4912  0.4086  0.1118
  218MOL0     O29353   8.803   9.110   2.199  0.0145  0.4143 -0.0418
  218MOL0     C29354   8.915   9.031   2.153  0.3471  0.2977 -0.3483
  218MOL0     C29355   9.007   9.020   2.272  0.5747 -0.5045 -0.8569
  218MOL0     C29356   8.976   8.937   2.394  0.3447  0.5408  0.4629
  218MOL0     C29357   9.099   8.932   2.495 -0.6362  0.6303 -0.1454
  218MOL0     C29358   9.084   8.825   2.595  0.1837  0.4675  0.3278
  218MOL0     C29359   9.060   8.732   2.673 -0.5411  0.7899  0.7870
  218MOL0     C29360   8.678   8.922   2.282  0.2616  0.4169  0.9347
  218MOL0     C29361   8.575   8.867   2.361  0.2506 -0.2463 -1.3636
  218MOL0     C29362   8.598   8.725   2.396  0.7718  0.9650  0.1030
  218MOL0     H29363   8.113   8.851   2.576  0.5660 -0.8362  0.0942
  218MOL0     H29364   7.930   8.803   2.739 -0.2043 -1.7533  1.1596
  218MOL0     H29365   7.991   8.783   3.098  0.0939  1.3986 -3.8795
  218MOL0     H29366   7.987   8.937   3.174  1.3984 -0.2568 -0.5123
  218MOL0     H29367   7.730   8.810   3.077 -0.2353  1.4147 -0.5357
  218MOL0     H29368   7.744   8.927   3.188 -1.5509 -1.4291 -0.3737
  218MOL0     H29369   7.713   8.728   3.325  2.1577 -2.6159  3.3664
  218MOL0     H29370   7.882   8.750   3.340  2.9382 -1.0849 -1.5520
  218MOL0     H29371   7.719   8.568   3.142  1.2309  2.6540 -1.6944
  218MOL0     H29372   7.894   8.587   3.125  2.5639  1.5560  2.4985
  218MOL0     H29373   7.742   8.485   3.372  1.6906 -0.7905  1.7937
  218MOL0     H29374   7.809   8.376   3.253  1.1466  0.5666 -0.5603
  218MOL0     H29375   8.039   8.477   3.294 -0.8163  0.6393 -0.0375
  218MOL0     H29376   7.965   8.562   3.433 -0.1376 -1.2157  2.3563
  218MOL0     H29377   8.090   8.353   3.464 -1.7002 -1.9613  4.7386
  218MOL0     H29378   7.961   8.264   3.382 -3.2682 -0.7706  0.6160
  218MOL0     H29379   7.909   8.451   3.632 -1.3565  0.0477  1.1607
  218MOL0     H29380   7.794   8.347   3.556  0.0014  1.5167  1.7566
  218MOL0     H29381   7.771   8.100   3.651 -0.8065  0.0141  4.0034
  218MOL0     H29382   7.795   7.908   3.832  2.1799  2.2395 -4.5501
  218MOL0     H29383   7.921   7.925   3.961  1.4065  2.4196  0.6474
  218MOL0     H29384   7.678   7.949   4.024 -0.0269 -0.7014 -3.3431
  218MOL0     H29385   7.781   8.056   4.103 -0.0545  0.5183  0.5299
  218MOL0     H29386   7.605   8.129   3.872 -4.1046  3.6140  2.4102
  218MOL0     H29387   7.746   8.232   3.922 -0.1721  0.9065 -0.8520
  218MOL0     H29388   7.508   8.283   4.018 -1.9549 -1.0922  2.6802
  218MOL0     H29389   7.632   8.263   4.141 -2.8622 -0.1019  2.3660
  218MOL0     H29390   7.423   8.358   4.272  0.9035  0.9731  0.9695
  218MOL0     H29391   7.355   8.369   4.496  0.9954  1.7395 -1.4808
  218MOL0     H29392   7.046   8.168   4.802 -0.1484  1.3111  0.6151
  218MOL0     H29393   6.959   8.165   5.028  0.9072 -0.4026  0.4149
  218MOL0     H29394   7.220   7.997   5.383 -1.9341  0.1802  0.1016
  218MOL0     H29395   7.292   8.142   5.304  0.8772 -1.1314  1.7977
  218MOL0     H29396   7.127   8.279   5.447 -2.4430 -0.4492 -2.2931
  218MOL0     H29397   7.086   8.129   5.528 -0.1452  1.6707  1.1712
  218MOL0     H29398   7.345   8.084   5.559  2.6556  0.9717  2.3295
  218MOL0     H29399   7.355   8.258   5.501 -2.5913  1.2920 -1.4697
  218MOL0     H29400   7.174   8.191   5.744 -0.2293  2.9942  1.9141
  218MOL0     H29401   7.249   8.339   5.698 -0.7870  0.7448  2.3273
  218MOL0     H29402   7.472   8.242   5.721 -0.0754  0.3697  0.2067
  218MOL0     H29403   7.412   8.104   5.792  0.6246  0.6124  1.5363
  218MOL0     H29404   7.463   8.234   5.977 -0.0950 -0.4412 -1.2175
  218MOL0     H29405   7.367   8.374   5.926 -0.5350 -0.7199 -0.7959
  218MOL0     H29406   7.195   8.149   5.973 -1.7309  0.1198 -0.1527
  218MOL0     H29407   7.186   8.319   6.019 -0.4946 -0.3189 -0.9143
  218MOL0     H29408   7.327   8.106   6.172  1.8286  1.2413  2.2766
  218MOL0     H29409   7.381   8.279   6.181  1.4326 -1.0501 -0.7827
  218MOL0     H29410   7.290   7.918   5.152  0.2659 -3.4665 -3.2339
  218MOL0     H29411   7.383   7.930   4.925  0.7997  0.0925  0.1323
  218MOL0     H29412   7.326   7.936   4.499 -1.4130  0.0472 -0.7270
  218MOL0     H29413   7.409   7.925   4.250 -1.5189  0.4286 -1.3831
  218MOL0     H29414   8.150   9.025   3.034 -1.7492  2.1138 -0.0082
  218MOL0     H29415   8.337   9.058   2.870  0.0785  0.4748 -1.0611
  218MOL0     H29416   8.429   9.177   2.446  1.9440  0.7965  2.5275
  218MOL0     H29417   8.609   9.258   2.308 -0.3629  0.3236 -0.4324
  218MOL0     H29418   8.975   9.089   2.082  0.6289 -1.4785 -1.6362
  218MOL0     H29419   8.888   8.932   2.115 -0.0248  0.0892  0.4572
  218MOL0     H29420   9.011   9.121   2.315  0.3262 -0.6917 -0.3945
  218MOL0     H29421   9.106   8.989   2.236 -1.3937 -2.7054 -5.0768
  218MOL0     H29422   8.957   8.834   2.362 -0.5894  0.0814  2.3726
  218MOL0     H29423   8.884   8.968   2.444  0.5526  0.9435  0.5946
  218MOL0     H29424   9.200   8.932   2.452 -1.4913 -2.7553 -2.5219
  218MOL0     H29425   9.093   9.029   2.546 -0.3621  2.3077 -3.0506
  218MOL0     H29426   9.041   8.651   2.741 -3.6581  0.6995 -0.0519
  218MOL0     H29427   8.756   8.859   2.241  0.9661  1.7382  0.1704
  218MOL0     H29428   8.519   8.658   2.362  0.5983  0.7794  0.8526
  218MOL0     H29429   8.698   8.700   2.358  0.8353  0.6807  0.4478
  218MOL0     H29430   8.595   8.703   2.503 -1.1885 -0.7490 -0.2547
  219MOL0     O29431   0.461   5.249   6.031  0.3783 -0.0350 -0.0302
  219MOL0     C29432   0.435   5.195   6.142  0.1866 -0.3633  0.7330
  219MOL0     O29433   0.428   5.061   6.172  1.0814  0.0477 -0.2487
  219MOL0     C29434   0.486   4.963   6.106 -0.3310  0.5334 -0.7078
  219MOL0     C29435   0.476   4.839   6.168 -0.5769  0.0565  0.1000
  219MOL0     C29436   0.527   4.727   6.108  0.2043  0.0760  0.2329
  219MOL0     C29437   0.602   4.728   5.993  0.9117  1.0158  0.2994
  219MOL0     O29438   0.650   4.617   5.922 -0.1656  0.4599  0.0589
  219MOL0     C29439   0.655   4.489   5.978  0.6509 -0.6457 -0.0164
  219MOL0     C29440   0.682   4.375   5.887 -0.9391  0.2315 -0.5391
  219MOL0     C29441   0.727   4.245   5.949 -1.1941  0.0642 -0.1987
  219MOL0     C29442   0.752   4.133   5.858  0.7510 -0.4158 -0.2403
  219MOL0     C29443   0.716   3.997   5.920  1.0168  0.1504 -1.0220
  219MOL0     C29444   0.755   3.888   5.822 -0.8172  0.1144  0.2497
  219MOL0     C29445   0.691   3.750   5.862 -0.2502 -0.3829 -0.5122
  219MOL0     C29446   0.533   3.757   5.830 -0.0860 -0.1294  0.0073
  219MOL0     N29447   0.475   3.631   5.883 -0.2195  0.5071  0.0922
  219MOL0     C29448   0.390   3.551   5.811  0.5733 -0.4948  0.2021
  219MOL0     C29449   0.362   3.447   5.885  0.7190 -0.1038 -0.3273
  219MOL0     C29450   0.269   3.342   5.840  0.6773 -0.1833  0.2025
  219MOL0     C29451   0.121   3.374   5.869 -0.6729 -0.1909 -0.0319
  219MOL0     C29452   0.026   3.293   5.773 -0.2634  0.0055  0.2342
  219MOL0     C29453  -0.122   3.296   5.816 -0.2826  0.1112 -1.1152
  219MOL0     O29454  -0.209   3.298   5.697 -0.5799  0.1568  0.1770
  219MOL0     C29455  -0.336   3.242   5.708  0.1711 -0.2175 -0.1936
  219MOL0     C29456  -0.401   3.218   5.836 -0.7953  0.9405 -0.1558
  219MOL0     C29457  -0.520   3.138   5.829  1.1934  0.4807  0.3414
  219MOL0     C29458  -0.588   3.099   5.709 -0.3675  0.4025  0.0433
  219MOL0     C29459  -0.713   3.023   5.705  0.8209  0.7977  0.0597
  219MOL0     O29460  -0.756   2.982   5.583  0.1931  0.4604 -0.6574
  219MOL0     C29461  -0.828   2.865   5.567 -0.4041 -0.7681 -1.0221
  219MOL0     C29462  -0.862   2.841   5.425 -0.3970 -0.1954 -0.2543
  219MOL0     C29463  -0.922   2.721   5.382 -0.2752 -0.1468  0.4715
  219MOL0     C29464  -0.965   2.634   5.482  0.3376  0.3992  0.3202
  219MOL0     O29465  -1.044   2.526   5.435  0.6334  0.0525  0.2755
  219MOL0     C29466  -1.106   2.441   5.535  0.5017 -1.3286 -0.1451
  219MOL0     C29467  -1.182   2.336   5.465  0.1093 -0.6658 -0.3572
  219MOL0     C29468  -1.223   2.219   5.562 -0.3916  1.0522  0.8133
  219MOL0     C29469  -1.378   2.195   5.541 -0.1708  0.6130  0.2023
  219MOL0     C29470  -1.459   2.275   5.632 -0.0658 -0.4316 -1.0033
  219MOL0     C29471  -1.604   2.265   5.602  0.0611 -0.1541 -0.1822
  219MOL0     C29472  -1.689   2.323   5.714 -0.4093 -0.2167  0.0516
  219MOL0     C29473  -1.837   2.298   5.694  0.2211  0.1262  0.0737
  219MOL0    Cl29474  -1.883   2.132   5.735 -0.0610 -0.1409  0.2596
  219MOL0     C29475  -0.953   2.674   5.608 -0.0500 -0.4866 -0.1547
  219MOL0     C29476  -0.879   2.775   5.659  0.2713 -0.6383 -0.6539
  219MOL0     O29477  -0.765   2.996   5.818 -0.0688  0.5133 -0.1194
  219MOL0     C29478  -0.534   3.156   5.585 -0.7696  0.3394 -0.1434
  219MOL0     C29479  -0.407   3.227   5.597 -0.1776  0.1478  0.1678
  219MOL0     N29480   0.439   3.452   5.998  0.2788  0.4087  0.7802
  219MOL0     N29481   0.503   3.557   5.993  0.0219 -0.3768 -0.4748
  219MOL0     C29482   0.606   4.848   5.923 -0.8124 -0.6686  0.0301
  219MOL0     C29483   0.543   4.968   5.981 -0.1229  0.4209 -0.2180
  219MOL0     C29484   0.411   5.290   6.251  0.7680 -0.6515 -0.0834
  219MOL0     C29485   0.451   5.259   6.383  0.0230 -0.2882 -0.0819
  219MOL0     C29486   0.428   5.346   6.494 -0.6062 -0.4565  0.1203
  219MOL0     C29487   0.336   5.454   6.472 -0.6590 -0.0893  0.3003
  219MOL0     O29488   0.314   5.552   6.573 -0.5662 -0.7263  0.2370
  219MOL0     C29489   0.354   5.514   6.707  0.0325 -0.1473  1.0104
  219MOL0     C29490   0.278   5.622   6.798 -0.3965  0.7122  0.7970
  219MOL0     C29491   0.329   5.769   6.786  0.7000  0.5356 -0.9118
  219MOL0     C29492   0.416   5.818   6.899 -0.4922 -0.4589  1.4191
  219MOL0     C29493   0.340   5.842   7.023  0.3950  0.2147  0.1156
  219MOL0     C29494   0.259   5.875   7.110 -0.1416 -0.2832 -0.7466
  219MOL0     C29495   0.301   5.490   6.346 -0.1543 -0.5418  0.7658
  219MOL0     C29496   0.345   5.412   6.236  0.3754 -0.3493  0.0296
  219MOL0     C29497   0.308   5.477   6.101 -0.0350  0.7011 -0.1617
  219MOL0     H29498   0.419   4.837   6.260 -0.9155  0.1015 -0.1062
  219MOL0     H29499   0.495   4.630   6.146  2.7035 -1.5706 -1.4990
  219MOL0     H29500   0.725   4.475   6.061 -0.4344 -2.3282  0.6613
  219MOL0     H29501   0.553   4.468   6.012  1.2704  0.4194  2.7524
  219MOL0     H29502   0.763   4.407   5.821 -0.6473 -0.5053 -0.5418
  219MOL0     H29503   0.596   4.358   5.822 -2.9761  0.4465  1.9408
  219MOL0     H29504   0.641   4.207   6.004 -1.3113 -2.5258 -1.9965
  219MOL0     H29505   0.805   4.261   6.025 -0.3161  2.2386 -1.4709
  219MOL0     H29506   0.689   4.136   5.769  0.3186 -4.7779 -0.2958
  219MOL0     H29507   0.858   4.131   5.830  1.1063 -0.6453  1.0601
  219MOL0     H29508   0.773   3.993   6.013  4.0733  0.9624 -2.7430
  219MOL0     H29509   0.608   3.985   5.937  1.8512 -2.3305  4.5746
  219MOL0     H29510   0.713   3.904   5.722 -2.3365 -1.7202  0.5276
  219MOL0     H29511   0.864   3.889   5.813 -0.8489 -0.8779 -0.3928
  219MOL0     H29512   0.712   3.725   5.966  0.6889 -2.8453 -1.2393
  219MOL0     H29513   0.748   3.681   5.799  0.1070 -0.2312 -0.3585
  219MOL0     H29514   0.486   3.835   5.890  0.9241  0.3408  0.2099
  219MOL0     H29515   0.500   3.770   5.727 -1.0085  3.0685  0.6154
  219MOL0     H29516   0.353   3.571   5.711  2.8342 -0.0119 -0.6000
  219MOL0     H29517   0.287   3.339   5.732  0.5859 -0.0127  0.1834
  219MOL0     H29518   0.289   3.245   5.886 -2.5650  0.4308  3.3235
  219MOL0     H29519   0.095   3.334   5.967  0.3225 -0.5205  0.1049
  219MOL0     H29520   0.094   3.480   5.860 -3.1508 -0.8484 -1.3959
  219MOL0     H29521   0.058   3.190   5.790  4.4125  1.5016  2.3012
  219MOL0     H29522   0.040   3.321   5.668 -0.9748  1.1318  0.4208
  219MOL0     H29523  -0.130   3.376   5.890  2.2795 -0.2329 -0.3954
  219MOL0     H29524  -0.151   3.217   5.885  0.0415  0.4703 -0.5595
  219MOL0     H29525  -0.356   3.253   5.928 -0.1859 -0.0677 -0.0628
  219MOL0     H29526  -0.569   3.120   5.924 -0.7994  1.5608 -0.4153
  219MOL0     H29527  -0.831   2.921   5.358  0.0196 -2.2976 -2.7063
  219MOL0     H29528  -0.918   2.702   5.276  2.0445  1.1292  0.2631
  219MOL0     H29529  -1.028   2.400   5.599  2.0230 -0.0158 -1.0659
  219MOL0     H29530  -1.178   2.507   5.584  0.1358  0.1573 -2.5137
  219MOL0     H29531  -1.265   2.393   5.423  0.9738 -0.7799 -2.3027
  219MOL0     H29532  -1.121   2.292   5.386  0.8670 -1.2685  0.5307
  219MOL0     H29533  -1.174   2.127   5.528 -3.1508  0.1484 -1.0139
  219MOL0     H29534  -1.189   2.239   5.665 -0.9752  0.9106  1.0365
  219MOL0     H29535  -1.399   2.090   5.563 -2.0764  1.3235  2.1702
  219MOL0     H29536  -1.400   2.218   5.436 -3.7642 -4.7894 -0.6482
  219MOL0     H29537  -1.428   2.380   5.629  2.5917 -1.1189 -0.6920
  219MOL0     H29538  -1.427   2.253   5.734  1.4414  1.3993 -1.0086
  219MOL0     H29539  -1.621   2.303   5.501 -1.7720  0.4767  0.3261
  219MOL0     H29540  -1.630   2.158   5.600 -0.0251 -0.2489  2.4881
  219MOL0     H29541  -1.680   2.432   5.704 -1.0644 -0.1816 -0.1845
  219MOL0     H29542  -1.663   2.281   5.811  2.0908 -1.3668 -1.0272
  219MOL0     H29543  -1.901   2.361   5.756 -0.7452 -1.5996  0.8998
  219MOL0     H29544  -1.866   2.308   5.589  1.5298 -0.3621 -0.3592
  219MOL0     H29545  -0.993   2.606   5.683  4.0485 -0.0614  2.7773
  219MOL0     H29546  -0.874   2.786   5.766 -0.0020 -3.5018 -0.2822
  219MOL0     H29547  -0.584   3.142   5.490  0.0197 -3.4506 -0.1442
  219MOL0     H29548  -0.359   3.252   5.502 -2.4062  2.0995 -0.5409
  219MOL0     H29549   0.658   4.857   5.828 -0.9063  0.7735  0.0982
  219MOL0     H29550   0.547   5.050   5.909  0.2178  2.0735  1.5803
  219MOL0     H29551   0.501   5.167   6.411 -2.3437 -0.4600  4.5208
  219MOL0     H29552   0.468   5.317   6.590 -0.1039  1.7270  0.6261
  219MOL0     H29553   0.463   5.519   6.716  0.2565  0.9871 -1.4074
  219MOL0     H29554   0.321   5.412   6.730 -0.2746 -0.7415 -1.7353
  219MOL0     H29555   0.284   5.594   6.904  0.7542  0.1703  0.6040
  219MOL0     H29556   0.170   5.625   6.780 -0.5119  6.1468  0.7701
  219MOL0     H29557   0.245   5.836   6.765  1.3380  1.5797 -0.1928
  219MOL0     H29558   0.401   5.787   6.705  0.8796  0.0823 -0.8542
  219MOL0     H29559   0.503   5.757   6.925 -1.1466 -1.8983  0.3512
  219MOL0     H29560   0.453   5.919   6.880 -4.5221  0.9197 -0.1225
  219MOL0     H29561   0.170   5.880   7.170 -2.8026  1.1249 -4.4723
  219MOL0     H29562   0.259   5.589   6.327  0.4412 -0.7434 -2.0178
  219MOL0     H29563   0.266   5.578   6.110 -1.1424  0.1587  1.0483
  219MOL0     H29564   0.407   5.505   6.064  1.7748 -0.8764  3.0752
  219MOL0     H29565   0.250   5.412   6.035  0.3779 -2.0928  2.0643
  220MOL0     O29566   9.152   0.256  10.141 -0.0960  0.8442  0.2612
  220MOL0     C29567   9.130   0.154  10.213  0.3451 -1.7001  0.5426
  220MOL0     O29568   9.014   0.088  10.209  0.0759 -0.8930  0.1195
  220MOL0     C29569   8.913   0.161  10.150 -0.7832  0.0836  0.3958
  220MOL0     C29570   8.823   0.218  10.216  0.1616  0.1017  0.1213
  220MOL0     C29571   8.705   0.261  10.148 -1.1070 -0.5605 -0.3979
  220MOL0     C29572   8.702   0.279  10.006  0.2170  0.4918 -0.4641
  220MOL0     O29573   8.589   0.322   9.936  0.6476  0.0778 -0.0577
  220MOL0     C29574   8.585   0.470   9.943  0.0061 -1.0363 -0.1580
  220MOL0     C29575   8.544   0.521   9.809  0.0979  0.5857 -0.0385
  220MOL0     C29576   8.567   0.673   9.791  0.3634  0.0150 -0.5396
  220MOL0     C29577   8.492   0.728   9.663 -0.4420 -0.2546 -0.1020
  220MOL0     C29578   8.510   0.877   9.629 -0.0205  0.5083  0.1473
  220MOL0     C29579   8.415   0.971   9.720 -0.2348  0.7016 -0.3667
  220MOL0     C29580   8.453   1.115   9.696  0.3124  0.7515 -0.4541
  220MOL0     C29581   8.349   1.194   9.761  0.3031 -0.3290 -0.2565
  220MOL0     N29582   8.363   1.333   9.729 -0.0965  0.2574 -0.1675
  220MOL0     C29583   8.271   1.407   9.664  0.6950  0.5657  1.1813
  220MOL0     C29584   8.330   1.525   9.620  1.3807 -0.0461 -0.8441
  220MOL0     C29585   8.262   1.636   9.554 -0.4953 -0.4430 -0.1664
  220MOL0     C29586   8.183   1.721   9.656 -0.2956  0.0351  0.1387
  220MOL0     C29587   8.261   1.806   9.752 -0.6588 -0.6927 -0.1364
  220MOL0     C29588   8.299   1.950   9.714 -0.7085  0.4635 -0.0420
  220MOL0     O29589   8.193   2.049   9.697 -0.3315  0.1425  0.3771
  220MOL0     C29590   8.139   2.118   9.803  1.2740  0.1870 -0.2339
  220MOL0     C29591   8.041   2.209   9.774 -0.1824 -0.5107 -0.2153
  220MOL0     C29592   7.983   2.289   9.876 -0.0006  1.0299  0.3770
  220MOL0     C29593   8.029   2.277   9.999 -0.2950  0.3126  0.0454
  220MOL0     C29594   7.961   2.362  10.107 -1.4236  0.1176  0.4861
  220MOL0     O29595   7.851   2.435  10.073  0.2799  0.8646 -0.9037
  220MOL0     C29596   7.782   2.535  10.138 -0.1296  0.4271 -0.6382
  220MOL0     C29597   7.753   2.519  10.278 -1.0587 -1.1203 -0.2608
  220MOL0     C29598   7.679   2.623  10.342 -0.1125 -0.2680  0.5539
  220MOL0     C29599   7.643   2.736  10.261 -0.2599  1.4467  0.3220
  220MOL0     O29600   7.557   2.839  10.300 -0.0536 -0.3923  0.3264
  220MOL0     C29601   7.534   2.838  10.440 -0.2219 -0.1048 -0.3887
  220MOL0     C29602   7.480   2.978  10.479  0.1206  0.6039 -0.1963
  220MOL0     C29603   7.446   2.978  10.626  0.4949  0.5139 -0.3039
  220MOL0     C29604   7.397   3.118  10.660  0.5437  0.1715 -0.5261
  220MOL0     C29605   7.325   3.137  10.800  0.5631  0.0481  1.1363
  220MOL0     C29606   7.419   3.176  10.906  1.2064  0.1391 -0.1180
  220MOL0     C29607   7.344   3.191  11.043  0.3341  1.3033 -0.4167
  220MOL0     C29608   7.428   3.241  11.167 -1.6728 -0.4319 -0.0104
  220MOL0    Cl29609   7.336   3.349  11.279  0.0489 -0.0187  0.2153
  220MOL0     C29610   7.684   2.746  10.125 -0.6468  0.8178 -0.0059
  220MOL0     C29611   7.753   2.642  10.072  0.5257 -0.1809  0.7728
  220MOL0     O29612   8.009   2.351  10.223  0.2074 -0.4596 -0.4239
  220MOL0     C29613   8.136   2.190  10.040  0.1792  0.0479  1.3525
  220MOL0     C29614   8.183   2.116   9.934  0.1038  0.4013 -0.3560
  220MOL0     N29615   8.461   1.514   9.653 -0.1339  0.0125 -0.3602
  220MOL0     N29616   8.479   1.401   9.716 -0.0242 -0.3403 -0.1691
  220MOL0     C29617   8.804   0.207   9.938  0.4633 -1.4713  0.7541
  220MOL0     C29618   8.916   0.160  10.008 -1.1141 -0.2184  0.5816
  220MOL0     C29619   9.243   0.084  10.283 -0.5291  0.8800  0.0786
  220MOL0     C29620   9.365   0.078  10.214  0.5564 -0.6405 -0.4171
  220MOL0     C29621   9.480   0.029  10.277  0.8707  0.1023  0.5737
  220MOL0     C29622   9.478  -0.034  10.400  0.2225 -0.4497 -0.2597
  220MOL0     O29623   9.589  -0.090  10.457 -0.1156  0.6072 -0.7696
  220MOL0     C29624   9.681   0.004  10.518 -0.1053 -0.9227  0.3192
  220MOL0     C29625   9.822  -0.011  10.455 -0.8448 -0.3653  0.3753
  220MOL0     C29626   9.862  -0.153  10.461 -1.2664 -0.4712  0.3266
  220MOL0     C29627  10.008  -0.180  10.425  1.3473  1.0631 -0.4296
  220MOL0     C29628  10.095  -0.199  10.531  0.9189  0.4850 -0.4149
  220MOL0     C29629  10.186  -0.210  10.607  0.0388 -0.5082  0.5903
  220MOL0     C29630   9.356  -0.033  10.468 -0.4056 -0.0419 -1.2533
  220MOL0     C29631   9.245   0.036  10.414  0.4527  1.0761 -0.1200
  220MOL0     C29632   9.116   0.036  10.499  0.4417  0.4773 -0.9361
  220MOL0     H29633   8.815   0.219  10.325 -1.8489  1.6772  0.0179
  220MOL0     H29634   8.620   0.311  10.192 -0.4582  0.4790 -0.2842
  220MOL0     H29635   8.506   0.502  10.012 -0.6569  2.1238 -2.1855
  220MOL0     H29636   8.676   0.523   9.970  0.8091 -1.7266 -1.4078
  220MOL0     H29637   8.441   0.494   9.785  1.0921 -0.6928 -3.5436
  220MOL0     H29638   8.599   0.467   9.731  1.8682  4.1929 -1.5278
  220MOL0     H29639   8.674   0.697   9.799 -0.3346  3.3306  0.2287
  220MOL0     H29640   8.519   0.726   9.874  0.9164  1.9572 -1.4033
  220MOL0     H29641   8.530   0.683   9.570 -2.1099  0.9373 -1.4263
  220MOL0     H29642   8.386   0.712   9.686 -0.0333 -1.3904  1.0806
  220MOL0     H29643   8.614   0.908   9.644  0.5512 -1.2786  0.1358
  220MOL0     H29644   8.477   0.893   9.526  1.3099 -3.0165 -0.9693
  220MOL0     H29645   8.309   0.946   9.711 -0.3356 -0.6335  2.9393
  220MOL0     H29646   8.437   0.951   9.825  1.5071 -1.3013 -1.0541
  220MOL0     H29647   8.462   1.134   9.589  2.3918 -0.0801 -0.4709
  220MOL0     H29648   8.551   1.130   9.743  1.9385 -0.0854 -3.3225
  220MOL0     H29649   8.248   1.162   9.733 -1.0870  1.1353  2.6033
  220MOL0     H29650   8.354   1.173   9.868  3.4403 -0.9827 -0.4489
  220MOL0     H29651   8.167   1.379   9.659  1.2693 -1.5100 -1.5664
  220MOL0     H29652   8.340   1.696   9.507  2.3093 -2.0173  2.1623
  220MOL0     H29653   8.181   1.604   9.487  0.8639 -1.8844 -1.2010
  220MOL0     H29654   8.100   1.774   9.608 -0.8006  2.5000  3.4385
  220MOL0     H29655   8.127   1.653   9.721 -3.9670  0.7470 -1.9528
  220MOL0     H29656   8.348   1.753   9.791 -0.7276 -1.3549 -0.8602
  220MOL0     H29657   8.195   1.825   9.837  1.1365 -1.7184  1.5574
  220MOL0     H29658   8.366   1.947   9.628  1.2237 -4.2228  1.3265
  220MOL0     H29659   8.368   1.992   9.788  2.4968 -1.4822 -1.7284
  220MOL0     H29660   7.992   2.214   9.677  0.8403 -3.3524 -0.9916
  220MOL0     H29661   7.902   2.354   9.846 -0.3425  1.0206  1.2380
  220MOL0     H29662   7.784   2.438  10.343 -2.5435 -0.2191  1.6990
  220MOL0     H29663   7.648   2.625  10.446 -3.0638 -0.1995 -0.2378
  220MOL0     H29664   7.458   2.760  10.439  0.3488 -0.6630 -1.1286
  220MOL0     H29665   7.619   2.811  10.503 -3.0020  0.4759  3.9798
  220MOL0     H29666   7.554   3.057  10.467  2.4732 -1.5298 -0.4679
  220MOL0     H29667   7.395   3.004  10.415  0.2679  0.1788 -0.5649
  220MOL0     H29668   7.373   2.898  10.642  0.4554  0.3854 -1.1195
  220MOL0     H29669   7.538   2.958  10.683  0.0302 -2.2269 -0.3770
  220MOL0     H29670   7.325   3.149  10.584 -1.5638  0.1735  1.3447
  220MOL0     H29671   7.468   3.201  10.657 -0.7203  1.3769  0.7851
  220MOL0     H29672   7.287   3.039  10.829  1.7172 -0.6546  0.3406
  220MOL0     H29673   7.240   3.203  10.778  0.4970 -1.1761 -3.4174
  220MOL0     H29674   7.498   3.101  10.913 -0.0713 -1.0689  3.8344
  220MOL0     H29675   7.456   3.276  10.882 -2.9643  2.4414  2.0173
  220MOL0     H29676   7.296   3.097  11.070  1.8104  0.8429  0.7150
  220MOL0     H29677   7.266   3.267  11.027  0.1435  0.9750 -1.0700
  220MOL0     H29678   7.473   3.167  11.233  0.3547 -0.3502 -1.1867
  220MOL0     H29679   7.509   3.306  11.131 -2.3731 -0.6497 -2.1101
  220MOL0     H29680   7.661   2.837  10.072 -3.9206  1.1655  1.7252
  220MOL0     H29681   7.747   2.631   9.965 -0.4821 -2.4041  0.9994
  220MOL0     H29682   8.164   2.167  10.142 -1.0513  1.4429  2.0442
  220MOL0     H29683   8.254   2.036   9.950 -2.7286 -3.5648 -4.7751
  220MOL0     H29684   8.796   0.216   9.830  0.9016  3.7280  0.9048
  220MOL0     H29685   9.000   0.115   9.957 -0.7965  0.9324  0.0646
  220MOL0     H29686   9.381   0.107  10.111 -2.4752 -1.1594 -1.1329
  220MOL0     H29687   9.568   0.039  10.215 -0.3235  3.1097 -0.8161
  220MOL0     H29688   9.678   0.001  10.627 -1.1831  1.7532  0.4335
  220MOL0     H29689   9.637   0.103  10.505 -0.3696 -1.2207 -1.3063
  220MOL0     H29690   9.907   0.048  10.490 -0.0828 -0.2851 -1.4508
  220MOL0     H29691   9.817   0.010  10.347 -2.8522 -1.3678  0.2270
  220MOL0     H29692   9.805  -0.214  10.390  2.2300 -1.2095 -2.0942
  220MOL0     H29693   9.848  -0.192  10.563  0.0592 -2.7158 -0.2804
  220MOL0     H29694  10.008  -0.277  10.373  1.9766 -0.8887  2.9201
  220MOL0     H29695  10.063  -0.103  10.372  0.4254  2.8834  1.1343
  220MOL0     H29696  10.258  -0.193  10.684 -0.5905 -0.1875  1.1168
  220MOL0     H29697   9.351  -0.082  10.565  2.5386 -0.2841 -1.1279
  220MOL0     H29698   9.147   0.026  10.603  1.0308  1.4186 -1.0074
  220MOL0     H29699   9.056   0.127  10.499 -2.3992 -1.2348  0.6463
  220MOL0     H29700   9.056  -0.050  10.468  1.4405 -0.2856 -0.8463
  221MOL0     O29701   8.761   5.968   3.923 -0.1850 -0.2212 -0.8754
  221MOL0     C29702   8.689   6.055   3.881  0.3289  0.0358  0.7024
  221MOL0     O29703   8.574   6.031   3.804  0.6421 -0.9511 -0.5562
  221MOL0     C29704   8.530   5.901   3.778  0.1591 -0.9436  0.5984
  221MOL0     C29705   8.499   5.807   3.879  0.1076  0.9988  0.5394
  221MOL0     C29706   8.459   5.673   3.841  0.4967 -0.7532 -0.3289
  221MOL0     C29707   8.423   5.644   3.709  0.1543 -0.9392  0.1070
  221MOL0     O29708   8.369   5.527   3.662 -0.5262  0.1398 -0.1497
  221MOL0     C29709   8.347   5.414   3.750 -0.3104 -0.4944  0.4936
  221MOL0     C29710   8.220   5.434   3.845  0.2753  0.6264  1.0241
  221MOL0     C29711   8.085   5.432   3.763 -0.6489  0.5525 -0.1003
  221MOL0     C29712   7.986   5.522   3.835 -0.1824 -0.0388  0.7292
  221MOL0     C29713   7.844   5.465   3.812  0.5256  0.4649  0.1919
  221MOL0     C29714   7.727   5.550   3.869  0.4228 -0.8560 -0.2425
  221MOL0     C29715   7.595   5.534   3.800 -0.9560  0.0488  0.1161
  221MOL0     C29716   7.538   5.392   3.821 -0.0628  0.6280  0.0265
  221MOL0     N29717   7.416   5.374   3.754 -0.2323  0.5400 -0.1158
  221MOL0     C29718   7.396   5.401   3.625  0.6269 -0.0599  0.3847
  221MOL0     C29719   7.262   5.389   3.617  0.4156 -0.4772  0.0825
  221MOL0     C29720   7.180   5.422   3.503 -0.6361 -0.1632  0.7516
  221MOL0     C29721   7.216   5.340   3.365  0.3407 -0.0719  0.8775
  221MOL0     C29722   7.136   5.205   3.334  0.1338  0.4303  0.4016
  221MOL0     C29723   7.161   5.094   3.446 -0.5191 -0.4050  0.4694
  221MOL0     O29724   7.301   5.054   3.448 -0.0139  1.3305  0.2636
  221MOL0     C29725   7.364   5.009   3.559 -0.1620 -0.9146 -0.4666
  221MOL0     C29726   7.306   5.011   3.683 -0.7550  0.8083 -0.6958
  221MOL0     C29727   7.388   4.978   3.797 -0.9313 -0.3920 -1.3710
  221MOL0     C29728   7.526   4.955   3.790 -0.6079  0.2459  0.3700
  221MOL0     C29729   7.600   4.932   3.913  0.1713  0.4651  0.4617
  221MOL0     O29730   7.532   4.858   4.005 -0.7939  0.4169 -0.2900
  221MOL0     C29731   7.607   4.836   4.124 -0.5346 -1.0668 -0.2464
  221MOL0     C29732   7.546   4.745   4.201  0.0120  0.8246  0.1874
  221MOL0     C29733   7.585   4.697   4.322 -0.6453 -0.2460  1.0476
  221MOL0     C29734   7.699   4.745   4.382 -0.8248 -0.2654  1.4125
  221MOL0     O29735   7.733   4.698   4.506  0.0531  0.0518  0.5217
  221MOL0     C29736   7.698   4.792   4.611  0.1455  0.4066  0.7168
  221MOL0     C29737   7.722   4.743   4.757 -0.3648  0.0446  0.8627
  221MOL0     C29738   7.872   4.690   4.768  0.2200  0.9120  0.7497
  221MOL0     C29739   7.983   4.794   4.800 -0.4429  1.0596  0.5344
  221MOL0     C29740   8.110   4.756   4.727  0.2226  0.0702  0.2259
  221MOL0     C29741   8.211   4.870   4.703 -0.3508  0.5087  0.0240
  221MOL0     C29742   8.253   4.916   4.838 -0.1713 -0.2662 -0.3418
  221MOL0     C29743   8.340   5.036   4.834 -0.0887  0.4952 -0.1429
  221MOL0    Cl29744   8.266   5.191   4.870 -0.0412  0.1294  0.1160
  221MOL0     C29745   7.778   4.837   4.310 -0.0856 -0.2181 -0.2050
  221MOL0     C29746   7.733   4.886   4.179 -0.3208 -0.3973 -0.0116
  221MOL0     O29747   7.719   4.972   3.911 -0.2618  0.6479 -0.3800
  221MOL0     C29748   7.579   4.966   3.653  0.1073 -0.3202 -0.4789
  221MOL0     C29749   7.503   4.992   3.545  0.4218 -0.1750  0.4320
  221MOL0     N29750   7.210   5.356   3.740 -0.1310 -0.3130 -0.2632
  221MOL0     N29751   7.301   5.343   3.817 -0.4621 -0.0692  0.7151
  221MOL0     C29752   8.443   5.739   3.605 -0.6371 -0.2315 -0.8172
  221MOL0     C29753   8.507   5.858   3.644 -0.1656  0.4410  0.4530
  221MOL0     C29754   8.726   6.198   3.898  0.1864 -0.4974 -0.1290
  221MOL0     C29755   8.656   6.282   3.812  0.4790  0.3351 -0.1405
  221MOL0     C29756   8.674   6.421   3.829 -1.2581 -0.6077  0.0876
  221MOL0     C29757   8.752   6.486   3.930  0.5008  0.0664  0.2549
  221MOL0     O29758   8.751   6.621   3.961 -0.4495 -0.4650 -0.1719
  221MOL0     C29759   8.662   6.703   3.877  0.1900  0.2835 -0.6345
  221MOL0     C29760   8.619   6.814   3.974 -0.3760  0.1228  1.1244
  221MOL0     C29761   8.502   6.889   3.907  0.2716 -0.1592 -0.1462
  221MOL0     C29762   8.446   6.998   3.989 -0.2736 -0.0345 -1.3015
  221MOL0     C29763   8.406   6.967   4.127  0.6004  1.4748 -0.7310
  221MOL0     C29764   8.403   6.949   4.248  0.4900  0.2506  0.8736
  221MOL0     C29765   8.816   6.397   4.018 -0.4973  0.8162 -0.0152
  221MOL0     C29766   8.817   6.257   3.997 -0.3246 -0.5237  1.1447
  221MOL0     C29767   8.884   6.178   4.097 -0.5418 -0.2353 -0.8420
  221MOL0     H29768   8.536   5.843   3.975  0.7825  2.4145 -0.2265
  221MOL0     H29769   8.447   5.607   3.926  0.3100  0.3007  0.4827
  221MOL0     H29770   8.335   5.321   3.694  0.2116  0.0279 -0.4989
  221MOL0     H29771   8.445   5.410   3.799 -0.1749 -1.7359  0.1565
  221MOL0     H29772   8.234   5.513   3.919 -0.4967 -0.1005  1.9684
  221MOL0     H29773   8.214   5.343   3.906  0.0062 -0.5114 -0.6332
  221MOL0     H29774   8.053   5.328   3.749  1.1764 -0.0664 -0.0366
  221MOL0     H29775   8.113   5.470   3.664 -0.4350  0.0671 -0.2307
  221MOL0     H29776   7.998   5.510   3.943 -0.0286  1.6132  0.9161
  221MOL0     H29777   7.991   5.629   3.814  0.8294  0.4220  3.0009
  221MOL0     H29778   7.832   5.461   3.703  1.8858  1.8607 -0.0466
  221MOL0     H29779   7.828   5.364   3.852  1.0219  0.6996  1.0107
  221MOL0     H29780   7.707   5.531   3.974 -2.4077 -0.7996 -0.7119
  221MOL0     H29781   7.773   5.650   3.864  1.6229 -1.4025 -3.8900
  221MOL0     H29782   7.621   5.553   3.695  0.2249  0.6051  0.4968
  221MOL0     H29783   7.532   5.614   3.839 -0.0273 -0.3492  2.5951
  221MOL0     H29784   7.612   5.321   3.782  1.9256  2.6462 -0.1508
  221MOL0     H29785   7.523   5.381   3.928 -3.4270  2.3070 -0.1515
  221MOL0     H29786   7.456   5.411   3.535  1.1910 -1.6262  0.5554
  221MOL0     H29787   7.075   5.424   3.533 -0.2723  0.4241  2.0806
  221MOL0     H29788   7.203   5.525   3.474  0.7227 -1.5616 -3.8332
  221MOL0     H29789   7.200   5.405   3.278 -0.0774  1.7249  2.2380
  221MOL0     H29790   7.320   5.304   3.364 -0.3581 -2.2726 -0.2562
  221MOL0     H29791   7.169   5.155   3.242  1.3625 -0.7608  1.4373
  221MOL0     H29792   7.028   5.222   3.333 -0.0434 -0.5243  1.1016
  221MOL0     H29793   7.090   5.011   3.444 -1.5277  0.4314 -0.5989
  221MOL0     H29794   7.136   5.145   3.539  1.1418 -0.3609  0.9268
  221MOL0     H29795   7.203   5.031   3.710 -0.9374 -1.0685  0.1487
  221MOL0     H29796   7.344   4.964   3.895  2.0668  0.3408  0.2057
  221MOL0     H29797   7.453   4.703   4.163  0.4867  0.7928 -0.9738
  221MOL0     H29798   7.527   4.625   4.378  1.5435 -0.7404  2.7953
  221MOL0     H29799   7.748   4.887   4.594  0.9637 -0.4448 -2.2391
  221MOL0     H29800   7.591   4.811   4.598  0.3758  1.3351  0.0829
  221MOL0     H29801   7.722   4.827   4.828  0.5137  1.9558 -1.2928
  221MOL0     H29802   7.645   4.668   4.776 -2.0664  1.6896  0.7907
  221MOL0     H29803   7.859   4.622   4.853 -0.1054  1.3028  1.0162
  221MOL0     H29804   7.898   4.642   4.673 -0.0120  3.6492 -0.7933
  221MOL0     H29805   7.986   4.805   4.909 -2.6617  0.6573  0.6746
  221MOL0     H29806   7.943   4.888   4.762  0.9285  1.5613  0.2823
  221MOL0     H29807   8.082   4.734   4.623 -3.6618  0.1231  1.1197
  221MOL0     H29808   8.144   4.656   4.757 -3.4464 -1.5660 -0.4990
  221MOL0     H29809   8.298   4.843   4.641 -1.7071  1.0846 -2.2662
  221MOL0     H29810   8.154   4.948   4.651 -1.0087  0.4003  0.5658
  221MOL0     H29811   8.291   4.828   4.891  1.4920  1.3118  1.2025
  221MOL0     H29812   8.166   4.955   4.892 -0.5483 -0.9330 -0.4603
  221MOL0     H29813   8.425   5.011   4.898  1.8485 -1.2089 -3.1305
  221MOL0     H29814   8.378   5.048   4.732  2.0018 -0.6543  0.4361
  221MOL0     H29815   7.872   4.868   4.353  0.0112  2.0781 -1.9184
  221MOL0     H29816   7.793   4.965   4.134 -2.0031  1.2125  0.4440
  221MOL0     H29817   7.684   4.946   3.634  0.6530  0.7452  1.1713
  221MOL0     H29818   7.561   4.997   3.453  2.8865  1.3881  1.9515
  221MOL0     H29819   8.425   5.717   3.501 -0.7165 -4.4615 -0.0765
  221MOL0     H29820   8.518   5.938   3.572  3.1857 -0.4914 -0.2608
  221MOL0     H29821   8.605   6.248   3.723 -0.1272  2.9799 -0.8971
  221MOL0     H29822   8.633   6.485   3.751  0.2583 -2.1559 -2.0895
  221MOL0     H29823   8.565   6.656   3.858 -0.0526  0.2033  0.6629
  221MOL0     H29824   8.703   6.731   3.780  2.6211 -2.6819 -0.6226
  221MOL0     H29825   8.698   6.889   3.983  0.7818 -0.6008 -1.8333
  221MOL0     H29826   8.591   6.761   4.065 -0.9808 -4.4111 -1.4022
  221MOL0     H29827   8.418   6.819   3.898  0.5593 -0.5920  0.4673
  221MOL0     H29828   8.521   6.937   3.811 -1.7049  1.2698  0.0993
  221MOL0     H29829   8.523   7.075   3.996 -0.2019 -0.0942 -1.4423
  221MOL0     H29830   8.357   7.048   3.947 -0.3255  0.7671 -0.2806
  221MOL0     H29831   8.415   6.929   4.353  1.1953  2.6118  1.3028
  221MOL0     H29832   8.862   6.449   4.101  2.6431 -0.6680 -0.6965
  221MOL0     H29833   8.818   6.104   4.143 -0.2172  0.4358  0.7955
  221MOL0     H29834   8.963   6.116   4.055  0.3348  2.5251 -3.6304
  221MOL0     H29835   8.929   6.226   4.185 -0.4898 -3.4473  1.0317
  222MOL0     O29836   6.976   0.597  10.462  0.1849  0.6188 -0.6848
  222MOL0     C29837   6.981   0.635  10.343  0.8700  0.0326  0.0151
  222MOL0     O29838   7.038   0.564  10.239  0.0358 -0.0431 -0.2822
  222MOL0     C29839   7.119   0.461  10.268  0.0462 -1.4237 -0.0422
  222MOL0     C29840   7.228   0.482  10.346  0.2823 -1.0789 -0.0319
  222MOL0     C29841   7.313   0.379  10.375 -0.6606 -0.1707 -0.5880
  222MOL0     C29842   7.289   0.251  10.341  0.6930 -0.4765  0.4944
  222MOL0     O29843   7.361   0.158  10.416 -1.0724 -0.6123  0.3262
  222MOL0     C29844   7.396   0.028  10.362  0.7227 -0.5619 -0.1037
  222MOL0     C29845   7.337  -0.085  10.455  0.2056  0.0169 -0.1170
  222MOL0     C29846   7.440  -0.130  10.562 -0.5016  0.4235  0.9838
  222MOL0     C29847   7.367  -0.217  10.663 -0.2632 -0.5913  0.9129
  222MOL0     C29848   7.462  -0.304  10.746 -0.5669  0.6604  0.0279
  222MOL0     C29849   7.582  -0.227  10.816  1.0826 -0.7000 -0.1355
  222MOL0     C29850   7.697  -0.309  10.869 -0.0752 -0.3822  1.6183
  222MOL0     C29851   7.830  -0.226  10.880 -0.5060 -0.4354  0.2375
  222MOL0     N29852   7.947  -0.319  10.906 -0.4898 -0.5148  0.2673
  222MOL0     C29853   7.998  -0.347  11.022 -0.5610  0.5459 -1.0397
  222MOL0     C29854   8.097  -0.441  10.988 -0.8537 -1.4295 -0.3235
  222MOL0     C29855   8.188  -0.501  11.084 -0.8461 -0.0685 -0.6845
  222MOL0     C29856   8.290  -0.601  11.017 -0.6965  0.1974 -0.6302
  222MOL0     C29857   8.362  -0.694  11.125  0.3201 -0.5682 -0.4371
  222MOL0     C29858   8.434  -0.610  11.234  0.7598  0.5952 -0.1165
  222MOL0     O29859   8.546  -0.547  11.184 -0.2629  0.0580  0.6734
  222MOL0     C29860   8.615  -0.480  11.275 -0.3409  1.4172  0.6859
  222MOL0     C29861   8.564  -0.441  11.402  0.0435 -0.6274  0.6099
  222MOL0     C29862   8.630  -0.362  11.484  1.3659 -0.3255 -0.1293
  222MOL0     C29863   8.760  -0.311  11.457  0.7761 -0.0860  0.4674
  222MOL0     C29864   8.831  -0.211  11.539 -0.3412  0.6435 -1.0234
  222MOL0     O29865   8.960  -0.181  11.499 -0.5416  0.3543 -0.7911
  222MOL0     C29866   9.023  -0.120  11.604 -0.4376 -0.0314  0.5383
  222MOL0     C29867   9.100  -0.181  11.696  0.0636 -0.3753  0.6015
  222MOL0     C29868   9.137  -0.118  11.813  0.3997 -0.2464  0.3286
  222MOL0     C29869   9.104   0.016  11.835 -0.0499  0.1768 -0.3055
  222MOL0     O29870   9.154   0.086  11.935  0.6100 -0.1864 -0.5386
  222MOL0     C29871   9.260   0.030  12.012  0.0941 -0.4332 -0.3459
  222MOL0     C29872   9.327   0.114  12.121 -0.7926 -1.4060  0.3693
  222MOL0     C29873   9.372   0.250  12.074 -0.8132 -0.4437  0.6685
  222MOL0     C29874   9.256   0.352  12.046 -0.8154 -0.2771  0.3003
  222MOL0     C29875   9.230   0.380  11.892 -0.2548  0.6435  0.3535
  222MOL0     C29876   9.287   0.519  11.837  0.3949  0.8980 -0.5461
  222MOL0     C29877   9.191   0.628  11.887  0.7740  0.5593 -0.1368
  222MOL0     C29878   9.181   0.730  11.783  0.1374  1.2407  0.3092
  222MOL0    Cl29879   9.337   0.811  11.799  0.1052  0.0239 -0.2039
  222MOL0     C29880   9.043   0.093  11.736 -0.5123  0.2680 -1.4634
  222MOL0     C29881   9.004   0.027  11.617  0.1066  1.0842 -0.4673
  222MOL0     O29882   8.777  -0.164  11.643 -0.1970 -0.2851 -0.6441
  222MOL0     C29883   8.813  -0.358  11.331 -0.6169  0.1403  0.3997
  222MOL0     C29884   8.745  -0.443  11.246 -0.6843 -0.7790 -0.8932
  222MOL0     N29885   8.086  -0.468  10.851 -0.4636 -0.6369 -0.2770
  222MOL0     N29886   8.005  -0.390  10.806 -0.1361  0.6056 -0.4343
  222MOL0     C29887   7.183   0.219  10.260 -0.6624  0.3441 -0.4692
  222MOL0     C29888   7.105   0.332  10.211  0.1423 -0.0232  0.3080
  222MOL0     C29889   6.909   0.763  10.320  0.3163  0.0708 -0.5464
  222MOL0     C29890   6.837   0.782  10.203 -0.6262  0.0731  0.3537
  222MOL0     C29891   6.757   0.897  10.169  0.0161  0.2832 -0.1242
  222MOL0     C29892   6.754   0.997  10.259 -0.6714  0.6029 -0.5322
  222MOL0     O29893   6.676   1.104  10.229 -0.8063 -0.1248  0.4175
  222MOL0     C29894   6.667   1.232  10.283 -0.0173  0.0463 -0.2621
  222MOL0     C29895   6.615   1.332  10.175  0.1871  0.2141 -0.6120
  222MOL0     C29896   6.713   1.353  10.067  0.6889 -0.4175  0.1823
  222MOL0     C29897   6.676   1.473   9.968  0.4825 -0.9739  0.0817
  222MOL0     C29898   6.594   1.424   9.853 -0.2462 -0.5763  0.2933
  222MOL0     C29899   6.548   1.390   9.747 -1.0226  0.5695  0.6948
  222MOL0     C29900   6.845   0.983  10.375  1.0735 -0.9206 -0.5835
  222MOL0     C29901   6.914   0.873  10.404  1.1482  0.5199 -0.4189
  222MOL0     C29902   7.008   0.883  10.520 -0.2011  0.1024 -0.6697
  222MOL0     H29903   7.233   0.570  10.410 -4.4611  1.5318 -2.6974
  222MOL0     H29904   7.401   0.390  10.438 -0.4933  3.0492 -1.2217
  222MOL0     H29905   7.357   0.006  10.263  1.1029 -0.0203 -0.3786
  222MOL0     H29906   7.505   0.017  10.356  0.8977 -1.0166  2.4844
  222MOL0     H29907   7.305  -0.174  10.399 -0.6140  0.8991 -1.0868
  222MOL0     H29908   7.248  -0.053  10.510  0.7034 -0.2558  0.8688
  222MOL0     H29909   7.490  -0.047  10.612 -0.4095  0.6112  0.5875
  222MOL0     H29910   7.520  -0.183  10.509 -0.2829  2.9497 -1.4703
  222MOL0     H29911   7.298  -0.167  10.731  1.1332  1.3770  0.9571
  222MOL0     H29912   7.308  -0.290  10.607  2.4004 -1.5595 -0.8652
  222MOL0     H29913   7.400  -0.350  10.824  0.0453 -0.9089 -0.3649
  222MOL0     H29914   7.506  -0.387  10.690 -0.6759  1.5396 -1.4175
  222MOL0     H29915   7.627  -0.153  10.749 -0.4430  1.4982  1.1078
  222MOL0     H29916   7.539  -0.159  10.890 -1.6048  1.5261 -3.3943
  222MOL0     H29917   7.725  -0.389  10.800 -0.6687  1.3480 -0.7248
  222MOL0     H29918   7.657  -0.344  10.965 -0.7880  1.5977  2.0911
  222MOL0     H29919   7.844  -0.181  10.782 -0.2822 -2.7357 -0.8526
  222MOL0     H29920   7.816  -0.151  10.958 -0.0244 -1.4662  1.3463
  222MOL0     H29921   7.974  -0.298  11.116  3.4008  4.4608 -1.7323
  222MOL0     H29922   8.250  -0.417  11.117 -1.6908  0.2522  0.1250
  222MOL0     H29923   8.130  -0.549  11.163 -1.1355 -0.3093 -1.0418
  222MOL0     H29924   8.225  -0.666  10.958 -1.6213  2.3923 -2.1993
  222MOL0     H29925   8.353  -0.566  10.935 -4.5960 -2.8048 -5.4956
  222MOL0     H29926   8.442  -0.756  11.083 -0.4647 -1.8256 -0.1375
  222MOL0     H29927   8.283  -0.759  11.162  0.3032  0.0550  0.6668
  222MOL0     H29928   8.462  -0.687  11.306 -1.2357 -1.0023 -0.9513
  222MOL0     H29929   8.365  -0.538  11.278  1.6144  0.9124  0.7399
  222MOL0     H29930   8.463  -0.466  11.434 -0.4552  1.6935  1.0216
  222MOL0     H29931   8.591  -0.325  11.578  0.6291  1.1493 -0.9908
  222MOL0     H29932   9.117  -0.282  11.660 -2.2476  0.0301 -1.9736
  222MOL0     H29933   9.186  -0.174  11.891  0.7199  1.2898  1.2741
  222MOL0     H29934   9.214  -0.057  12.060 -1.0784  0.1017 -0.4748
  222MOL0     H29935   9.341   0.020  11.939 -1.1711  1.4905 -2.1174
  222MOL0     H29936   9.277   0.134  12.217 -0.8663  0.7560 -0.0671
  222MOL0     H29937   9.413   0.056  12.154 -0.2069 -1.4431 -1.1832
  222MOL0     H29938   9.427   0.306  12.150  1.5606  0.3027 -1.4359
  222MOL0     H29939   9.445   0.231  11.994  0.2779  1.5137  1.1500
  222MOL0     H29940   9.271   0.454  12.084  0.6078 -0.4261  0.2136
  222MOL0     H29941   9.160   0.323  12.088 -1.2204 -1.6073 -1.4428
  222MOL0     H29942   9.122   0.367  11.881 -0.4554  0.2970  2.3062
  222MOL0     H29943   9.273   0.293  11.843 -3.7138 -2.1464  1.8077
  222MOL0     H29944   9.394   0.530  11.861  0.6986 -0.5392 -1.1342
  222MOL0     H29945   9.279   0.530  11.729 -3.7316 -0.2695 -0.5019
  222MOL0     H29946   9.222   0.673  11.981  2.2018  0.3888 -0.4967
  222MOL0     H29947   9.088   0.593  11.901  1.6079 -1.2769  1.8755
  222MOL0     H29948   9.169   0.689  11.683  0.6312  1.5104  0.1372
  222MOL0     H29949   9.093   0.791  11.807 -0.5006 -1.1738  5.5929
  222MOL0     H29950   9.035   0.201  11.743  1.9755  0.4193  0.9736
  222MOL0     H29951   8.954   0.095  11.549 -0.1742  1.1136 -0.2360
  222MOL0     H29952   8.904  -0.321  11.286 -1.8874  1.6164 -1.1495
  222MOL0     H29953   8.791  -0.467  11.150 -1.6514  1.2763 -1.9232
  222MOL0     H29954   7.160   0.114  10.248 -3.0440  0.5695  1.3309
  222MOL0     H29955   7.025   0.302  10.143  0.8312  0.6675 -0.8496
  222MOL0     H29956   6.852   0.719  10.116 -1.9799  1.3011 -0.8349
  222MOL0     H29957   6.696   0.890  10.080  0.3843 -3.9143 -0.2842
  222MOL0     H29958   6.769   1.256  10.315  0.5401 -0.6656 -1.4628
  222MOL0     H29959   6.596   1.247  10.365 -0.3950  2.8770 -0.9980
  222MOL0     H29960   6.605   1.423  10.234 -2.3169 -0.8086  0.7031
  222MOL0     H29961   6.516   1.301  10.142  1.1078 -1.9797 -1.5443
  222MOL0     H29962   6.719   1.259  10.012  2.1930 -0.3682  0.2168
  222MOL0     H29963   6.812   1.373  10.109  0.6773  4.2092 -1.4078
  222MOL0     H29964   6.614   1.548  10.017  0.5259 -0.9240  0.0589
  222MOL0     H29965   6.769   1.515   9.930 -0.7870  3.4086  1.1860
  222MOL0     H29966   6.507   1.368   9.650 -1.0096 -2.2070  1.2596
  222MOL0     H29967   6.861   1.073  10.434  0.1578 -1.0042 -0.1905
  222MOL0     H29968   7.107   0.893  10.473 -0.4179  1.1782 -0.9265
  222MOL0     H29969   6.984   0.971  10.580 -1.3508 -1.5686  1.4519
  222MOL0     H29970   6.993   0.816  10.605 -0.2409  0.9095 -0.0292
  223MOL0     O29971   1.563   1.274   4.258 -0.3162  0.5069 -0.3314
  223MOL0     C29972   1.487   1.222   4.180  0.5538 -0.9313 -0.3098
  223MOL0     O29973   1.470   1.256   4.053  0.0177 -0.2025 -0.1932
  223MOL0     C29974   1.558   1.336   3.977  0.8087  0.3311 -0.2383
  223MOL0     C29975   1.695   1.336   3.997 -0.0654  1.7705 -0.2992
  223MOL0     C29976   1.778   1.426   3.915 -0.9526  0.5007 -0.4625
  223MOL0     C29977   1.717   1.504   3.809 -0.0208 -0.7195  0.2283
  223MOL0     O29978   1.777   1.599   3.724 -0.0252  0.6878 -0.4702
  223MOL0     C29979   1.912   1.647   3.753 -0.2896  0.0616 -0.7959
  223MOL0     C29980   1.982   1.718   3.634  0.2748 -0.2681 -0.2811
  223MOL0     C29981   2.126   1.739   3.669  0.6287 -0.1807 -0.1237
  223MOL0     C29982   2.226   1.773   3.556 -0.1222  1.1776 -0.9956
  223MOL0     C29983   2.382   1.736   3.583 -0.0824 -0.1975  0.2987
  223MOL0     C29984   2.420   1.773   3.727  0.5872  0.6014  0.3523
  223MOL0     C29985   2.397   1.924   3.772 -0.9858  0.1162  0.1023
  223MOL0     C29986   2.416   1.959   3.927  0.5435  0.6573 -0.2854
  223MOL0     N29987   2.313   1.897   4.018  0.3911 -0.1742  0.4409
  223MOL0     C29988   2.306   1.756   4.055  0.6799  0.4460  0.8552
  223MOL0     C29989   2.201   1.755   4.131  0.8241  0.2111 -0.5677
  223MOL0     C29990   2.139   1.635   4.205 -0.1885 -0.7802 -0.5332
  223MOL0     C29991   2.232   1.625   4.329  0.2649  0.7766 -0.1315
  223MOL0     C29992   2.251   1.476   4.374 -0.2119 -0.7204 -0.9064
  223MOL0     C29993   2.118   1.421   4.430  0.3804 -0.3014  0.9029
  223MOL0     O29994   2.071   1.496   4.547 -0.3866  0.4738  0.5244
  223MOL0     C29995   2.138   1.471   4.667  0.1692 -0.4306 -0.3336
  223MOL0     C29996   2.109   1.555   4.778  0.5344  0.5723 -0.4863
  223MOL0     C29997   2.173   1.534   4.905 -0.6609  0.5915  0.5031
  223MOL0     C29998   2.289   1.454   4.917 -0.2055  0.6966  0.3267
  223MOL0     C29999   2.380   1.442   5.037  0.0030  0.6732 -0.2825
  223MOL0     O30000   2.337   1.523   5.139 -1.2732  0.5502  1.4301
  223MOL0     C30001   2.395   1.515   5.270 -1.2280 -0.9459  0.5250
  223MOL0     C30002   2.458   1.399   5.325 -0.6117  0.3081 -0.2078
  223MOL0     C30003   2.522   1.424   5.446  0.7200  0.5373  0.8265
  223MOL0     C30004   2.528   1.548   5.509 -0.0194  0.2357  0.0951
  223MOL0     O30005   2.586   1.581   5.630 -0.8162 -0.0249 -0.0131
  223MOL0     C30006   2.693   1.502   5.691  0.4643 -0.0102 -0.1590
  223MOL0     C30007   2.722   1.553   5.821 -0.2661  0.2790 -0.6912
  223MOL0     C30008   2.837   1.478   5.902 -1.1898  1.6624 -0.8136
  223MOL0     C30009   2.822   1.325   5.906 -0.2896  0.5674 -0.6033
  223MOL0     C30010   2.926   1.244   5.990 -0.8848  0.1726 -0.5305
  223MOL0     C30011   2.866   1.122   6.052  0.2543 -0.1433 -1.7759
  223MOL0     C30012   2.775   1.189   6.171  0.6749  0.7868 -0.5266
  223MOL0     C30013   2.701   1.074   6.258  0.7972  0.0219 -0.4079
  223MOL0    Cl30014   2.577   0.988   6.161  0.3257  0.1624 -0.0412
  223MOL0     C30015   2.454   1.661   5.462  0.5098  0.1859 -0.0526
  223MOL0     C30016   2.391   1.644   5.338 -0.6302  1.1496 -0.6101
  223MOL0     O30017   2.483   1.375   5.036 -0.0351  1.0383  0.7376
  223MOL0     C30018   2.303   1.360   4.810  1.0167 -0.6584  0.1693
  223MOL0     C30019   2.222   1.365   4.689 -0.4747  0.5188 -0.3564
  223MOL0     N30020   2.150   1.887   4.156  1.1126  0.4636 -0.5674
  223MOL0     N30021   2.210   1.959   4.075 -0.2215 -0.1455 -1.0343
  223MOL0     C30022   1.581   1.479   3.783  0.3435 -0.4239 -0.5623
  223MOL0     C30023   1.499   1.419   3.884  0.4129 -0.8423  1.4175
  223MOL0     C30024   1.421   1.099   4.226  0.4992 -0.0772  0.4224
  223MOL0     C30025   1.393   0.996   4.126 -0.1322 -0.7478 -0.3393
  223MOL0     C30026   1.327   0.878   4.159 -0.1812  0.5430  0.1636
  223MOL0     C30027   1.325   0.847   4.305  0.0230  1.0577  0.6578
  223MOL0     O30028   1.267   0.729   4.340  0.9401 -0.6317  0.3726
  223MOL0     C30029   1.227   0.702   4.472  0.3616 -0.4210 -0.3900
  223MOL0     C30030   1.359   0.635   4.538 -0.0669 -0.0872  1.0322
  223MOL0     C30031   1.402   0.516   4.444  0.4462  0.9349 -0.0535
  223MOL0     C30032   1.475   0.404   4.517  0.3333 -0.4296 -0.8899
  223MOL0     C30033   1.372   0.305   4.557  0.2314 -0.6458  0.2621
  223MOL0     C30034   1.278   0.239   4.585  0.0028  0.3125 -0.4866
  223MOL0     C30035   1.345   0.942   4.393  0.7668 -0.2379 -0.7927
  223MOL0     C30036   1.387   1.073   4.360  0.1268 -0.2481 -0.7994
  223MOL0     C30037   1.416   1.176   4.468  0.1346 -0.2060 -0.2835
  223MOL0     H30038   1.742   1.276   4.073  0.9134  2.8964  0.0136
  223MOL0     H30039   1.884   1.426   3.939 -1.2717 -2.6033  1.3991
  223MOL0     H30040   1.901   1.719   3.835 -0.4867 -1.2844  0.3887
  223MOL0     H30041   1.980   1.569   3.789  0.5089  0.6675 -0.9544
  223MOL0     H30042   1.929   1.811   3.612  0.7871  0.6275  1.9817
  223MOL0     H30043   1.964   1.664   3.541 -0.9416  1.0415 -0.8483
  223MOL0     H30044   2.165   1.659   3.733  0.5838 -0.4790 -0.4646
  223MOL0     H30045   2.127   1.829   3.731  1.9817 -1.5394  1.9573
  223MOL0     H30046   2.195   1.728   3.461  1.4432 -1.4331 -0.3999
  223MOL0     H30047   2.239   1.880   3.536  3.2431  1.4039  1.4159
  223MOL0     H30048   2.410   1.631   3.572  2.0628  0.4683 -1.4566
  223MOL0     H30049   2.450   1.792   3.518  0.3497 -0.3388  0.6251
  223MOL0     H30050   2.356   1.716   3.795  0.5407 -0.8464 -0.8609
  223MOL0     H30051   2.521   1.742   3.756 -0.9185 -2.4937  2.9567
  223MOL0     H30052   2.295   1.952   3.744 -1.6261 -1.6462  0.5160
  223MOL0     H30053   2.467   1.992   3.723 -1.8823  1.5860  0.8215
  223MOL0     H30054   2.515   1.916   3.945  1.3425  2.2527 -0.7297
  223MOL0     H30055   2.426   2.067   3.941  0.1827  1.0213 -2.4930
  223MOL0     H30056   2.367   1.670   4.028  0.9633  0.7913  0.3750
  223MOL0     H30057   2.033   1.658   4.219 -0.0635  0.7059 -1.7549
  223MOL0     H30058   2.140   1.544   4.145 -4.3833  0.0805 -2.2962
  223MOL0     H30059   2.331   1.654   4.292 -0.1467 -0.4404 -2.3403
  223MOL0     H30060   2.215   1.695   4.411 -1.0758  3.5866 -2.5919
  223MOL0     H30061   2.319   1.458   4.458 -0.1439 -0.4904 -0.9119
  223MOL0     H30062   2.280   1.406   4.295 -1.4118 -1.4819 -0.6956
  223MOL0     H30063   2.127   1.313   4.447  0.1148 -0.1551  2.0820
  223MOL0     H30064   2.040   1.437   4.356 -0.2791 -1.1495  1.3929
  223MOL0     H30065   2.026   1.624   4.783  0.2512  0.1942  4.2289
  223MOL0     H30066   2.158   1.586   4.999 -0.4721 -1.0023  1.4516
  223MOL0     H30067   2.457   1.298   5.286  0.5461 -0.6632  2.1212
  223MOL0     H30068   2.556   1.330   5.486 -0.3867 -0.6210 -0.7983
  223MOL0     H30069   2.658   1.399   5.690 -0.8892  0.4247 -1.4642
  223MOL0     H30070   2.781   1.504   5.626  0.2980 -1.9341 -0.4979
  223MOL0     H30071   2.742   1.660   5.809  4.7096 -0.5832 -2.3121
  223MOL0     H30072   2.631   1.553   5.881 -0.3217  3.4804 -0.6019
  223MOL0     H30073   2.943   1.496   5.880 -0.9977  1.5480 -0.0192
  223MOL0     H30074   2.818   1.502   6.007 -0.5307 -1.8701  0.2695
  223MOL0     H30075   2.823   1.288   5.803  1.9480 -0.3298 -0.3117
  223MOL0     H30076   2.716   1.313   5.931 -0.3522  1.2956 -0.4807
  223MOL0     H30077   2.971   1.300   6.073  0.2161 -0.0095 -0.9778
  223MOL0     H30078   3.017   1.209   5.939 -0.0154 -1.3700  1.8525
  223MOL0     H30079   2.802   1.068   5.982 -3.9960  3.0238 -0.7285
  223MOL0     H30080   2.935   1.058   6.108  0.3036  3.8083  3.4642
  223MOL0     H30081   2.706   1.265   6.133  0.5585  0.4183 -1.0589
  223MOL0     H30082   2.835   1.257   6.232  0.9426  2.4865 -2.5863
  223MOL0     H30083   2.775   1.005   6.299 -2.6060 -3.2765  0.8123
  223MOL0     H30084   2.658   1.136   6.337  3.0190  3.0009 -1.3604
  223MOL0     H30085   2.434   1.747   5.525  0.2542 -0.0351  0.1718
  223MOL0     H30086   2.347   1.730   5.289 -3.4055 -1.6946 -3.6251
  223MOL0     H30087   2.380   1.283   4.818  2.6583  0.7759 -1.0052
  223MOL0     H30088   2.237   1.287   4.616 -0.2568 -0.1734  0.4092
  223MOL0     H30089   1.538   1.525   3.695  2.0753  2.4201 -0.0370
  223MOL0     H30090   1.394   1.410   3.857  0.8581  2.0332 -2.1499
  223MOL0     H30091   1.421   1.011   4.022  2.6063  1.7462  0.6033
  223MOL0     H30092   1.296   0.812   4.078  1.1983  1.3692 -1.0728
  223MOL0     H30093   1.156   0.621   4.451 -0.6515  0.8445 -2.0762
  223MOL0     H30094   1.180   0.781   4.532  1.7758  0.5165 -0.4788
  223MOL0     H30095   1.325   0.596   4.634 -2.0784  0.0315  0.4043
  223MOL0     H30096   1.442   0.706   4.549 -0.6391  0.9468 -0.8475
  223MOL0     H30097   1.471   0.560   4.371 -2.5305  0.7098 -3.3104
  223MOL0     H30098   1.325   0.478   4.375  0.0387  0.1267  0.8249
  223MOL0     H30099   1.549   0.361   4.450 -2.1580  1.5625 -5.4184
  223MOL0     H30100   1.521   0.429   4.613 -0.0984  0.4623 -0.9054
  223MOL0     H30101   1.200   0.178   4.625  2.5296 -2.4002  0.7628
  223MOL0     H30102   1.320   0.933   4.498 -0.5176  2.3295 -0.7948
  223MOL0     H30103   1.523   1.190   4.489 -0.5156  1.6248  2.4686
  223MOL0     H30104   1.374   1.270   4.431 -0.8377 -1.3272 -2.1694
  223MOL0     H30105   1.376   1.148   4.566  1.3510  1.1057  0.6434
  224MOL0     O30106   5.377   8.254   7.909  0.7259  0.6796 -0.0890
  224MOL0     C30107   5.300   8.340   7.937 -0.3382 -0.3338  0.0869
  224MOL0     O30108   5.274   8.440   7.854 -0.3649  0.4405  1.5159
  224MOL0     C30109   5.340   8.448   7.732  0.2886 -0.1008  0.1086
  224MOL0     C30110   5.355   8.337   7.644 -0.0403  1.0190 -0.1189
  224MOL0     C30111   5.427   8.345   7.527  0.5632  0.0457 -0.7134
  224MOL0     C30112   5.469   8.472   7.480  0.0672 -0.1005 -0.3782
  224MOL0     O30113   5.529   8.475   7.363  0.1676  0.3841  0.1087
  224MOL0     C30114   5.663   8.513   7.362  0.0345  0.0046  0.1598
  224MOL0     C30115   5.707   8.526   7.217  0.4106  0.7271  1.1749
  224MOL0     C30116   5.633   8.645   7.158  0.3271 -0.6484  0.0378
  224MOL0     C30117   5.681   8.672   7.015 -0.6796 -0.6970  0.3817
  224MOL0     C30118   5.628   8.812   6.977  0.3283 -0.0809 -0.3213
  224MOL0     C30119   5.685   8.941   7.032 -0.1915 -1.0411 -0.0495
  224MOL0     C30120   5.653   9.069   6.958 -0.4883 -0.8571 -0.3693
  224MOL0     C30121   5.692   9.074   6.817  0.3675 -0.2373  0.0090
  224MOL0     N30122   5.640   9.208   6.755  0.0886 -0.5836  0.3230
  224MOL0     C30123   5.508   9.230   6.717  0.2066 -0.3649  0.1426
  224MOL0     C30124   5.498   9.360   6.684  1.0335 -0.1250  1.0876
  224MOL0     C30125   5.370   9.417   6.646  0.0603  0.3439  0.0698
  224MOL0     C30126   5.326   9.365   6.503 -0.6750  1.2655 -0.2695
  224MOL0     C30127   5.229   9.460   6.440 -0.0146  0.3479  0.7786
  224MOL0     C30128   5.112   9.508   6.532  0.2035  0.2062  0.2449
  224MOL0     O30129   5.055   9.399   6.606 -0.1032 -0.1194  0.1974
  224MOL0     C30130   4.921   9.396   6.643  0.0514  0.2273 -0.4333
  224MOL0     C30131   4.815   9.484   6.614 -1.1352  0.1040  0.0535
  224MOL0     C30132   4.694   9.469   6.667  0.3613 -0.6924  0.1143
  224MOL0     C30133   4.673   9.357   6.753  1.1685  0.3575 -0.4404
  224MOL0     C30134   4.547   9.344   6.831  0.1881 -0.8459 -0.2154
  224MOL0     O30135   4.482   9.459   6.843 -0.6140 -0.4720  0.6617
  224MOL0     C30136   4.357   9.465   6.879 -0.3550  0.0324 -0.0748
  224MOL0     C30137   4.331   9.548   6.979  0.2676  0.7730  0.3406
  224MOL0     C30138   4.200   9.583   7.011 -1.0621  0.2861 -0.8676
  224MOL0     C30139   4.098   9.529   6.942 -0.9542  0.4625  0.8169
  224MOL0     O30140   3.975   9.582   6.986  0.2180 -0.4626  0.7400
  224MOL0     C30141   3.853   9.536   6.922 -0.6706 -0.0933 -0.2733
  224MOL0     C30142   3.735   9.571   7.004 -0.4591 -1.1963 -0.0574
  224MOL0     C30143   3.707   9.475   7.114 -0.2605  0.9774 -1.0170
  224MOL0     C30144   3.789   9.492   7.243 -0.3130  0.8179  0.4097
  224MOL0     C30145   3.750   9.399   7.354  0.2131 -0.1099  0.0694
  224MOL0     C30146   3.861   9.364   7.448  0.7549 -0.2915  0.1282
  224MOL0     C30147   3.812   9.266   7.555  1.6103 -1.0799 -1.4791
  224MOL0     C30148   3.913   9.238   7.669  0.8775  0.1280  0.3523
  224MOL0    Cl30149   3.909   9.389   7.771  0.3675 -0.4710 -0.2361
  224MOL0     C30150   4.122   9.413   6.857 -0.1621 -0.0429  1.3617
  224MOL0     C30151   4.259   9.388   6.823 -0.4945  0.4466 -1.0738
  224MOL0     O30152   4.502   9.235   6.879  0.8218  0.1626  0.2637
  224MOL0     C30153   4.769   9.258   6.773  1.0980  0.1502  0.6948
  224MOL0     C30154   4.894   9.283   6.722 -0.3279  0.9004 -1.3864
  224MOL0     N30155   5.620   9.424   6.709  0.4421  0.8631  0.0481
  224MOL0     N30156   5.694   9.331   6.759  0.1756  0.2520 -0.5432
  224MOL0     C30157   5.441   8.579   7.559  0.0619 -0.0875 -0.0506
  224MOL0     C30158   5.386   8.571   7.685  1.1342  0.0582 -0.4556
  224MOL0     C30159   5.242   8.345   8.073  0.1036 -0.2621 -0.2156
  224MOL0     C30160   5.219   8.462   8.139 -0.6167 -0.3535 -0.2811
  224MOL0     C30161   5.158   8.467   8.271 -0.4420  0.1637  0.5813
  224MOL0     C30162   5.125   8.346   8.336 -0.4409  0.8525  0.3761
  224MOL0     O30163   5.056   8.340   8.449  0.2795  0.6023 -0.0678
  224MOL0     C30164   5.146   8.339   8.568  0.5821  0.2133  0.4441
  224MOL0     C30165   5.067   8.441   8.659 -0.8258  1.2540  0.7781
  224MOL0     C30166   4.934   8.377   8.709 -0.0741 -0.4048  0.0189
  224MOL0     C30167   4.868   8.474   8.809 -0.7840 -0.3766 -0.2146
  224MOL0     C30168   4.950   8.483   8.932 -0.5096  0.3294  0.4342
  224MOL0     C30169   5.035   8.489   9.015 -0.3260  0.5916 -0.9530
  224MOL0     C30170   5.155   8.227   8.269 -0.0592 -0.3037  0.4012
  224MOL0     C30171   5.209   8.225   8.133  0.2859 -0.6469 -0.1264
  224MOL0     C30172   5.221   8.095   8.071  0.2127 -0.8293  0.0727
  224MOL0     H30173   5.295   8.253   7.678  2.2701 -0.1176  1.3942
  224MOL0     H30174   5.438   8.253   7.469  2.0360 -1.9268  2.4070
  224MOL0     H30175   5.662   8.613   7.406 -2.3001  0.3735 -0.6108
  224MOL0     H30176   5.724   8.443   7.420 -0.1331 -1.3182 -1.1904
  224MOL0     H30177   5.692   8.437   7.155  0.0217  2.5027 -1.4794
  224MOL0     H30178   5.813   8.552   7.218  0.8341 -0.8485  0.6968
  224MOL0     H30179   5.661   8.735   7.212 -1.0165  1.3911 -2.4229
  224MOL0     H30180   5.523   8.639   7.161  0.3054  0.1309  1.2625
  224MOL0     H30181   5.790   8.672   7.013 -0.6872 -1.0984 -1.9960
  224MOL0     H30182   5.649   8.595   6.945 -1.5485 -1.8856  2.0194
  224MOL0     H30183   5.644   8.812   6.869 -0.1128 -0.8824 -0.4019
  224MOL0     H30184   5.523   8.817   7.007  0.3763 -4.0525  1.1521
  224MOL0     H30185   5.660   8.947   7.138 -1.0544  0.3573 -0.3103
  224MOL0     H30186   5.794   8.932   7.028 -0.0943 -0.2171  0.4797
  224MOL0     H30187   5.701   9.161   6.994  1.7687 -1.3360 -1.9597
  224MOL0     H30188   5.546   9.081   6.974 -0.1159  2.4731  0.4024
  224MOL0     H30189   5.800   9.084   6.809  0.6424 -1.0914  1.9909
  224MOL0     H30190   5.670   8.978   6.771  2.3768 -0.4900 -0.5106
  224MOL0     H30191   5.432   9.154   6.728 -1.8899  1.1942 -2.4233
  224MOL0     H30192   5.281   9.409   6.709 -0.5166  1.3304 -0.5917
  224MOL0     H30193   5.388   9.525   6.637  2.6886 -0.1826 -3.8109
  224MOL0     H30194   5.422   9.360   6.450  1.4141 -3.6506  3.2535
  224MOL0     H30195   5.284   9.265   6.493  0.7652  0.8670 -3.2470
  224MOL0     H30196   5.192   9.409   6.350 -3.8378  2.4611  0.9472
  224MOL0     H30197   5.289   9.544   6.403  1.0295 -0.9819 -0.6684
  224MOL0     H30198   5.034   9.555   6.471  0.6109  0.3541 -0.1741
  224MOL0     H30199   5.150   9.573   6.611  1.4896  1.8395 -1.5915
  224MOL0     H30200   4.836   9.572   6.553  0.3830 -1.1358 -1.3250
  224MOL0     H30201   4.614   9.538   6.643  0.3085 -1.2181 -1.3362
  224MOL0     H30202   4.401   9.617   7.026 -2.0112  1.1132  3.5545
  224MOL0     H30203   4.180   9.665   7.080  0.9039  1.6106 -1.7764
  224MOL0     H30204   3.847   9.570   6.819  2.6196  3.3703  0.4418
  224MOL0     H30205   3.866   9.427   6.930  0.3100  0.0034 -0.3576
  224MOL0     H30206   3.727   9.676   7.032  3.0544 -0.1536 -2.4147
  224MOL0     H30207   3.650   9.565   6.935 -2.6244 -0.5531  2.3662
  224MOL0     H30208   3.602   9.465   7.143  0.7058 -3.1912  1.9935
  224MOL0     H30209   3.733   9.372   7.087 -1.9807  0.0954  0.4385
  224MOL0     H30210   3.780   9.594   7.283  0.3191  0.8196  0.5571
  224MOL0     H30211   3.896   9.473   7.229 -0.6012 -2.0865  1.4890
  224MOL0     H30212   3.714   9.308   7.307  1.2271  0.5492 -2.0971
  224MOL0     H30213   3.666   9.443   7.410  0.2450  1.9535 -1.4035
  224MOL0     H30214   3.944   9.317   7.394  0.9058 -2.3402  2.0201
  224MOL0     H30215   3.884   9.464   7.487 -3.0020  0.6500  0.2425
  224MOL0     H30216   3.770   9.174   7.513  0.2155 -0.9189 -0.4977
  224MOL0     H30217   3.726   9.314   7.603  3.5952 -1.7905  3.3146
  224MOL0     H30218   3.900   9.152   7.736  0.8371  0.1149  0.3280
  224MOL0     H30219   4.013   9.222   7.627  0.9469  2.6763 -0.5748
  224MOL0     H30220   4.041   9.369   6.800 -0.8981  1.7004  0.9991
  224MOL0     H30221   4.276   9.308   6.751 -3.2433 -1.2436  0.0012
  224MOL0     H30222   4.758   9.179   6.846  0.3935  2.3906  3.1822
  224MOL0     H30223   4.974   9.218   6.757 -2.4769 -0.4194  1.5590
  224MOL0     H30224   5.474   8.674   7.519  1.1308 -0.8818 -1.1156
  224MOL0     H30225   5.376   8.650   7.758  0.5109  0.9101 -1.4304
  224MOL0     H30226   5.249   8.558   8.098 -0.8535 -0.5380 -0.8892
  224MOL0     H30227   5.136   8.563   8.318 -0.4417  0.8924 -0.8567
  224MOL0     H30228   5.246   8.374   8.545 -0.6515  2.1453 -2.5687
  224MOL0     H30229   5.166   8.242   8.615 -0.7358 -0.7492 -0.8790
  224MOL0     H30230   5.046   8.534   8.605  0.3826  0.6588 -0.7789
  224MOL0     H30231   5.138   8.478   8.733  1.4586 -0.4059 -0.4845
  224MOL0     H30232   4.961   8.282   8.755  1.2854 -1.0470 -1.9513
  224MOL0     H30233   4.860   8.342   8.636 -0.8856  1.8307 -0.3434
  224MOL0     H30234   4.874   8.573   8.762  1.7318 -0.2461  0.2293
  224MOL0     H30235   4.767   8.440   8.833 -0.4573 -0.0833  1.7149
  224MOL0     H30236   5.109   8.481   9.093 -0.4635 -0.0088 -0.8806
  224MOL0     H30237   5.120   8.134   8.312 -4.1934  1.3300  1.1172
  224MOL0     H30238   5.167   8.101   7.976  0.0731 -3.1541 -0.0526
  224MOL0     H30239   5.322   8.059   8.049  1.0047  1.3476 -0.0236
  224MOL0     H30240   5.158   8.025   8.127 -0.0029  0.6718  1.8011
  225MOL0     O30241   1.593   4.772   1.145  0.3513  0.2773  0.2326
  225MOL0     C30242   1.496   4.723   1.203  0.5525  0.8003  0.0621
  225MOL0     O30243   1.508   4.654   1.319 -0.3152  0.4808 -0.2885
  225MOL0     C30244   1.632   4.647   1.380  0.2300  0.5503 -0.5682
  225MOL0     C30245   1.729   4.576   1.326 -0.1002  0.1842  0.0146
  225MOL0     C30246   1.844   4.546   1.406  0.4873 -0.5021  0.3513
  225MOL0     C30247   1.856   4.579   1.543 -0.4548  0.0020  1.3654
  225MOL0     O30248   1.966   4.543   1.621  0.2944 -0.4103  0.3705
  225MOL0     C30249   2.063   4.651   1.622 -0.7633 -0.6518  0.0632
  225MOL0     C30250   2.215   4.602   1.649  0.1378  0.6775  0.7164
  225MOL0     C30251   2.296   4.566   1.521  0.1727 -0.4179 -0.5945
  225MOL0     C30252   2.230   4.456   1.443 -0.4585  0.4763  0.2045
  225MOL0     C30253   2.340   4.409   1.336 -0.3671  0.1551  0.9430
  225MOL0     C30254   2.316   4.281   1.259  0.7710 -0.2188  0.3056
  225MOL0     C30255   2.399   4.162   1.320  0.3624  0.3382 -0.3241
  225MOL0     C30256   2.335   4.017   1.296  0.1509  0.1441  0.2008
  225MOL0     N30257   2.322   4.007   1.154 -0.1906  0.7571  0.9848
  225MOL0     C30258   2.414   3.986   1.055  0.3415  0.1172 -0.1200
  225MOL0     C30259   2.343   3.985   0.946  0.0088 -0.1190  0.4838
  225MOL0     C30260   2.408   3.979   0.812  0.0724 -0.2425  1.0616
  225MOL0     C30261   2.381   3.844   0.737  0.6376 -0.1077  0.0281
  225MOL0     C30262   2.431   3.855   0.588 -0.0487 -0.4309 -0.3726
  225MOL0     C30263   2.456   3.718   0.530  1.2595 -0.0476  0.1976
  225MOL0     O30264   2.570   3.659   0.584 -0.2442 -0.1244  0.9591
  225MOL0     C30265   2.592   3.527   0.571  1.1395  0.6145 -0.4267
  225MOL0     C30266   2.723   3.475   0.593 -0.2048  0.3922  0.3808
  225MOL0     C30267   2.758   3.350   0.576 -1.2290  0.3122 -0.5401
  225MOL0     C30268   2.659   3.254   0.536  0.4924 -0.5595 -0.1896
  225MOL0     C30269   2.691   3.117   0.506  0.5615 -0.2130 -0.3398
  225MOL0     O30270   2.590   3.040   0.451  0.2103  0.8678  0.1999
  225MOL0     C30271   2.620   2.912   0.417  0.7903  0.0891  0.3986
  225MOL0     C30272   2.693   2.896   0.300 -0.0405  1.0706 -0.4947
  225MOL0     C30273   2.719   2.764   0.260 -0.9690 -0.8625 -0.1865
  225MOL0     C30274   2.659   2.660   0.332  0.5941 -0.6086  0.0876
  225MOL0     O30275   2.650   2.544   0.259 -0.5280  0.1778  0.4321
  225MOL0     C30276   2.678   2.418   0.322 -0.7386 -0.5136  0.1763
  225MOL0     C30277   2.675   2.304   0.218 -0.1604 -0.2258  0.5754
  225MOL0     C30278   2.543   2.271   0.136 -0.0485  0.8365  0.8243
  225MOL0     C30279   2.570   2.178   0.020  0.8421 -0.0765 -1.1025
  225MOL0     C30280   2.442   2.147  -0.048 -0.4870  0.2937 -0.2536
  225MOL0     C30281   2.472   2.036  -0.145 -0.1034  0.7636  0.3744
  225MOL0     C30282   2.349   1.984  -0.229  0.1604  0.1751 -0.4942
  225MOL0     C30283   2.381   1.933  -0.367 -0.7086 -0.1284 -0.3446
  225MOL0    Cl30284   2.417   2.056  -0.498  0.4338 -0.3652 -0.7740
  225MOL0     C30285   2.593   2.671   0.453  0.2987  0.1664 -0.6618
  225MOL0     C30286   2.583   2.801   0.499  0.3245  0.6562  0.0186
  225MOL0     O30287   2.797   3.073   0.550  0.3157  0.3960 -0.0099
  225MOL0     C30288   2.534   3.304   0.507 -0.2048  0.6992  0.0157
  225MOL0     C30289   2.497   3.432   0.542  0.6631 -1.0379  0.4497
  225MOL0     N30290   2.208   3.998   0.975  0.2302  1.6751 -0.7808
  225MOL0     N30291   2.199   4.000   1.100 -1.0017  1.7024 -0.2466
  225MOL0     C30292   1.740   4.635   1.601 -0.8025  0.1579 -0.3630
  225MOL0     C30293   1.640   4.671   1.519 -0.2924 -0.2907 -0.2908
  225MOL0     C30294   1.366   4.747   1.136  0.5348 -0.2727  1.2339
  225MOL0     C30295   1.361   4.770   1.001  1.3078  0.6785  0.0411
  225MOL0     C30296   1.254   4.823   0.939  0.8390  0.3141  0.2608
  225MOL0     C30297   1.131   4.833   1.017 -0.3813 -1.1979 -0.4276
  225MOL0     O30298   1.007   4.875   0.973 -0.2259  0.3682 -0.9768
  225MOL0     C30299   1.002   4.951   0.852 -1.1323  0.1017  0.8956
  225MOL0     C30300   0.852   4.978   0.838 -0.6680 -0.0009 -0.6360
  225MOL0     C30301   0.794   4.987   0.702 -0.0545 -0.3065 -0.1634
  225MOL0     C30302   0.655   5.052   0.683  0.1693  0.6126  0.0986
  225MOL0     C30303   0.642   5.197   0.673 -0.6976 -0.8657 -0.0997
  225MOL0     C30304   0.623   5.317   0.651  0.4002  1.0408 -0.3076
  225MOL0     C30305   1.139   4.816   1.150 -0.2364 -0.2679  0.1255
  225MOL0     C30306   1.254   4.759   1.217  0.6396  0.8619 -1.0302
  225MOL0     C30307   1.250   4.762   1.372 -0.1603 -0.4383 -0.2772
  225MOL0     H30308   1.723   4.554   1.220 -2.7543  1.2496 -0.1522
  225MOL0     H30309   1.927   4.491   1.362  1.9062 -0.2610  2.5479
  225MOL0     H30310   2.063   4.698   1.524  2.1967  0.0583  0.3013
  225MOL0     H30311   2.035   4.725   1.697 -0.2420 -1.4183  1.0507
  225MOL0     H30312   2.201   4.519   1.719  2.4826  1.9479  2.8058
  225MOL0     H30313   2.269   4.678   1.705  1.8312 -0.6395  0.9220
  225MOL0     H30314   2.396   4.533   1.547 -0.1906  0.4249  2.2414
  225MOL0     H30315   2.302   4.650   1.450  1.0640 -0.9092 -1.1078
  225MOL0     H30316   2.212   4.364   1.498  4.3902 -1.8527 -1.5312
  225MOL0     H30317   2.134   4.489   1.403 -0.5781  0.0781  0.1631
  225MOL0     H30318   2.348   4.486   1.259 -2.2850  2.3170  2.7469
  225MOL0     H30319   2.435   4.397   1.388 -1.9487 -4.5797  3.2845
  225MOL0     H30320   2.208   4.261   1.255  0.7953 -0.4449  0.7085
  225MOL0     H30321   2.357   4.287   1.158  1.0028  0.9400  0.4588
  225MOL0     H30322   2.389   4.166   1.429 -1.6682 -2.1640 -0.3310
  225MOL0     H30323   2.500   4.178   1.281  0.5233  1.0144  0.3526
  225MOL0     H30324   2.388   3.935   1.346  1.6528  0.8334 -0.2029
  225MOL0     H30325   2.236   4.028   1.341  0.7389  5.0547  0.8407
  225MOL0     H30326   2.522   3.978   1.063  0.1826 -2.3488  0.4570
  225MOL0     H30327   2.365   4.061   0.754  1.6313 -1.8409 -2.6990
  225MOL0     H30328   2.512   4.011   0.808 -0.2497  0.7441 -0.3346
  225MOL0     H30329   2.428   3.751   0.771 -0.4427 -2.1227 -3.4502
  225MOL0     H30330   2.276   3.816   0.732  0.2752  1.3691 -2.1059
  225MOL0     H30331   2.520   3.918   0.586 -0.5048  0.2080 -1.8227
  225MOL0     H30332   2.353   3.901   0.526 -2.6563 -0.6077  2.5148
  225MOL0     H30333   2.460   3.740   0.422  1.9201  6.5443  1.1681
  225MOL0     H30334   2.366   3.659   0.549  0.4869 -0.3655 -3.5256
  225MOL0     H30335   2.809   3.539   0.611  1.8208 -1.9868 -0.2458
  225MOL0     H30336   2.861   3.320   0.588 -2.0914 -3.0865 -0.3551
  225MOL0     H30337   2.729   2.984   0.247  0.6251  0.7454 -0.5833
  225MOL0     H30338   2.744   2.738   0.157 -2.0214  1.3380 -1.0534
  225MOL0     H30339   2.776   2.427   0.369 -0.8441  0.0260  0.2950
  225MOL0     H30340   2.599   2.393   0.394 -1.0876  1.0185  0.3488
  225MOL0     H30341   2.762   2.321   0.153 -2.1092  0.4124 -2.0496
  225MOL0     H30342   2.688   2.213   0.277  1.0291 -0.4907 -0.0446
  225MOL0     H30343   2.483   2.224   0.214  2.0650  0.3512  2.2506
  225MOL0     H30344   2.494   2.361   0.096 -1.0029 -1.1302 -2.8168
  225MOL0     H30345   2.606   2.084   0.064 -1.6305 -1.1894 -1.2880
  225MOL0     H30346   2.652   2.213  -0.042 -1.0351  4.0523 -1.5645
  225MOL0     H30347   2.404   2.236  -0.098  3.0194  3.2250  1.7893
  225MOL0     H30348   2.358   2.121   0.018  0.2140  0.3510  0.6803
  225MOL0     H30349   2.537   2.078  -0.222  0.8859 -2.1145 -0.5270
  225MOL0     H30350   2.517   1.955  -0.086 -0.1910 -0.5912 -1.3105
  225MOL0     H30351   2.282   2.068  -0.249 -0.5924 -0.3408 -0.1708
  225MOL0     H30352   2.295   1.901  -0.183 -3.1207  1.7703 -1.1450
  225MOL0     H30353   2.466   1.866  -0.379  0.3101  1.2765 -1.2506
  225MOL0     H30354   2.304   1.865  -0.405 -0.7714  0.2994 -0.9867
  225MOL0     H30355   2.548   2.580   0.490 -1.4942  0.6208 -1.5713
  225MOL0     H30356   2.522   2.809   0.589  1.7069  2.2962  0.8783
  225MOL0     H30357   2.463   3.231   0.468 -0.3680  1.2565 -0.7528
  225MOL0     H30358   2.393   3.455   0.519  0.9506  0.9907  0.9825
  225MOL0     H30359   1.728   4.644   1.708 -0.3453 -0.9575 -0.2060
  225MOL0     H30360   1.549   4.715   1.559 -0.6168 -0.0409 -1.2762
  225MOL0     H30361   1.446   4.746   0.937  1.1785  1.4700 -0.4360
  225MOL0     H30362   1.254   4.846   0.833  1.2911 -1.8067 -0.2396
  225MOL0     H30363   1.042   4.885   0.774  1.0557  2.0241  0.2815
  225MOL0     H30364   1.070   5.036   0.865  2.7302 -2.7134  0.7579
  225MOL0     H30365   0.848   5.081   0.874 -1.3503 -0.0403 -0.5895
  225MOL0     H30366   0.789   4.916   0.903  1.0794 -1.0139  0.1632
  225MOL0     H30367   0.774   4.882   0.679  3.0308 -0.9282 -0.4619
  225MOL0     H30368   0.866   5.019   0.625  2.6692 -1.4180  1.7687
  225MOL0     H30369   0.612   5.011   0.591  0.7532 -1.8645  0.8660
  225MOL0     H30370   0.590   5.013   0.762 -1.6663  0.1866 -1.5292
  225MOL0     H30371   0.582   5.415   0.637 -0.3325  0.6103 -1.3488
  225MOL0     H30372   1.051   4.830   1.210 -0.0061 -0.7661  0.5840
  225MOL0     H30373   1.346   4.792   1.415 -0.1050  0.3220 -0.9176
  225MOL0     H30374   1.185   4.848   1.390  0.1679  0.5144 -3.0809
  225MOL0     H30375   1.214   4.671   1.421  0.5786  0.2257  1.6013
  226MOL0     O30376   3.965   4.744   8.458  0.0926 -0.2809 -0.0826
  226MOL0     C30377   4.038   4.813   8.393  0.2484  0.4574  0.6609
  226MOL0     O30378   4.145   4.776   8.321 -0.2974  0.1861  0.6852
  226MOL0     C30379   4.168   4.641   8.326  0.1806 -0.5798 -0.1165
  226MOL0     C30380   4.067   4.550   8.294  0.1250  0.0997  0.2205
  226MOL0     C30381   4.081   4.419   8.330 -0.1818 -0.2775  0.3091
  226MOL0     C30382   4.206   4.380   8.385  0.5245  0.8115  1.3105
  226MOL0     O30383   4.241   4.251   8.417 -0.1816 -0.4646 -0.3032
  226MOL0     C30384   4.299   4.167   8.316 -0.2999 -0.0011  0.1525
  226MOL0     C30385   4.188   4.098   8.240 -0.4927 -0.1308 -0.3384
  226MOL0     C30386   4.248   3.973   8.170  0.5284  0.3476 -0.3418
  226MOL0     C30387   4.390   3.967   8.111  0.9825 -0.0282  0.8555
  226MOL0     C30388   4.376   3.887   7.980 -0.1646 -0.5302 -0.4029
  226MOL0     C30389   4.495   3.892   7.891 -0.6794 -0.4954 -0.9016
  226MOL0     C30390   4.488   3.806   7.776  0.4095 -0.5581  0.6524
  226MOL0     C30391   4.567   3.865   7.650 -0.1695 -0.9022  0.1510
  226MOL0     N30392   4.508   3.829   7.522 -0.3157  0.2651  0.5114
  226MOL0     C30393   4.534   3.701   7.466  0.9796  0.4449 -0.7739
  226MOL0     C30394   4.432   3.685   7.382  1.0241  0.7895  0.6314
  226MOL0     C30395   4.425   3.557   7.298 -0.4599  0.5959 -0.4573
  226MOL0     C30396   4.546   3.552   7.201  0.6568 -0.2319  0.5108
  226MOL0     C30397   4.543   3.431   7.115  0.2775 -0.5268 -0.5971
  226MOL0     C30398   4.657   3.443   7.015 -0.0076  0.5977 -0.2697
  226MOL0     O30399   4.598   3.518   6.909  0.3695  0.4272  0.3475
  226MOL0     C30400   4.545   3.455   6.800  0.8369 -0.0993 -0.4435
  226MOL0     C30401   4.520   3.314   6.785 -0.6460  0.0919 -0.4065
  226MOL0     C30402   4.475   3.254   6.665  0.1005  0.4405  0.8585
  226MOL0     C30403   4.453   3.336   6.549 -0.6498 -0.1571  0.1280
  226MOL0     C30404   4.407   3.282   6.418 -0.4173 -1.1143 -0.8007
  226MOL0     O30405   4.391   3.151   6.408  0.5341 -0.3637  0.4257
  226MOL0     C30406   4.350   3.080   6.293  0.3759  0.5029 -0.4631
  226MOL0     C30407   4.315   2.944   6.320  0.0789  0.0430  0.3307
  226MOL0     C30408   4.287   2.864   6.211 -0.2510  1.0595 -0.9396
  226MOL0     C30409   4.295   2.906   6.077  0.5896  0.7860 -0.2792
  226MOL0     O30410   4.279   2.804   5.987  0.4907  0.2225  0.2412
  226MOL0     C30411   4.235   2.835   5.848 -0.1121 -0.7771 -0.1016
  226MOL0     C30412   4.234   2.723   5.745 -0.4933 -0.1820  0.3481
  226MOL0     C30413   4.287   2.776   5.622  0.1143  0.5940  0.9218
  226MOL0     C30414   4.435   2.735   5.594  0.1360 -0.7676  0.3499
  226MOL0     C30415   4.481   2.788   5.463 -0.2844  0.1756 -0.5067
  226MOL0     C30416   4.633   2.757   5.445  1.0461  0.3354 -0.3789
  226MOL0     C30417   4.673   2.756   5.287  0.3291 -0.0984 -0.7652
  226MOL0     C30418   4.817   2.726   5.283 -0.2910 -0.5908  1.3950
  226MOL0    Cl30419   4.853   2.568   5.351  0.0590 -0.2606  0.7020
  226MOL0     C30420   4.318   3.042   6.049 -0.4416 -0.4069  0.3421
  226MOL0     C30421   4.345   3.127   6.158 -0.2827 -0.2105 -0.1274
  226MOL0     O30422   4.392   3.364   6.320 -1.1107 -0.2601  0.7409
  226MOL0     C30423   4.472   3.475   6.569 -0.6128 -0.7573  1.5328
  226MOL0     C30424   4.519   3.532   6.683 -0.7548  0.7488  0.2870
  226MOL0     N30425   4.339   3.790   7.392  0.3376  0.0394  0.0193
  226MOL0     N30426   4.396   3.883   7.468  0.9212  0.6506 -0.1246
  226MOL0     C30427   4.309   4.469   8.400 -0.4919 -0.2980 -0.1367
  226MOL0     C30428   4.292   4.603   8.369 -0.1996  0.3809 -1.2203
  226MOL0     C30429   4.004   4.961   8.381  0.2994  0.0205 -0.3440
  226MOL0     C30430   4.059   5.030   8.280 -0.3038 -0.2884 -0.1670
  226MOL0     C30431   4.021   5.163   8.245 -0.4889  0.1390  0.2284
  226MOL0     C30432   3.917   5.227   8.312 -0.7783 -0.0439  0.2663
  226MOL0     O30433   3.889   5.358   8.275 -0.3919 -0.6261  0.1519
  226MOL0     C30434   3.969   5.446   8.341 -0.6316  0.3489 -0.0464
  226MOL0     C30435   3.890   5.501   8.454  0.0104  0.0086  0.1687
  226MOL0     C30436   3.791   5.607   8.412 -0.8773  0.5767  0.0526
  226MOL0     C30437   3.718   5.660   8.536 -0.0711  0.6449  0.6211
  226MOL0     C30438   3.803   5.750   8.612  0.0208 -0.5822 -0.0684
  226MOL0     C30439   3.868   5.835   8.677  0.3285  0.4311  0.2421
  226MOL0     C30440   3.853   5.163   8.412  0.0523 -0.5888 -0.3715
  226MOL0     C30441   3.899   5.029   8.445 -0.4648 -0.4977 -0.6765
  226MOL0     C30442   3.826   4.964   8.562  0.5530  0.7473 -0.3500
  226MOL0     H30443   3.977   4.587   8.246  1.8500  1.3147 -2.2912
  226MOL0     H30444   4.007   4.345   8.303 -0.0450  0.8931 -4.0148
  226MOL0     H30445   4.342   4.232   8.239 -0.3188  0.9025  0.8902
  226MOL0     H30446   4.363   4.099   8.372 -1.0691 -1.0792 -0.2466
  226MOL0     H30447   4.158   4.165   8.159 -0.9261 -1.1725 -1.0670
  226MOL0     H30448   4.106   4.064   8.302 -0.5723 -2.1070 -1.4380
  226MOL0     H30449   4.170   3.947   8.098  0.0969 -3.9045  1.3436
  226MOL0     H30450   4.249   3.893   8.244 -0.2110  1.8364  1.3540
  226MOL0     H30451   4.423   4.067   8.082 -3.1511  0.4172 -3.5428
  226MOL0     H30452   4.458   3.922   8.184  2.3668 -0.4988 -0.6738
  226MOL0     H30453   4.367   3.785   8.018 -1.3999  1.3382  5.3315
  226MOL0     H30454   4.282   3.906   7.928  0.4822 -2.3156 -2.3747
  226MOL0     H30455   4.498   3.993   7.851  0.8261 -0.7663 -1.5410
  226MOL0     H30456   4.582   3.864   7.952 -1.8723  1.4437  1.8890
  226MOL0     H30457   4.386   3.774   7.753  1.1470 -2.8165  0.3094
  226MOL0     H30458   4.534   3.709   7.797  1.5094 -0.5805 -1.5820
  226MOL0     H30459   4.573   3.974   7.655  1.7056 -0.7885 -2.3708
  226MOL0     H30460   4.670   3.830   7.665  0.0806  0.0025  0.6306
  226MOL0     H30461   4.618   3.637   7.490 -0.3694 -1.2209 -0.2744
  226MOL0     H30462   4.422   3.486   7.381  0.6123  1.1080  0.0236
  226MOL0     H30463   4.331   3.550   7.241 -1.8702 -1.9300  1.9230
  226MOL0     H30464   4.535   3.636   7.132 -2.2847 -1.4147 -0.6441
  226MOL0     H30465   4.633   3.564   7.266 -0.8975  2.3971  2.2658
  226MOL0     H30466   4.448   3.414   7.064 -2.2722  2.7443  2.5389
  226MOL0     H30467   4.544   3.345   7.184 -1.7228  1.1553  1.7207
  226MOL0     H30468   4.699   3.345   6.989 -2.7371 -0.8445  0.3459
  226MOL0     H30469   4.743   3.494   7.059  0.4583 -1.4130  1.3222
  226MOL0     H30470   4.515   3.259   6.879  0.3732  1.9360  0.8038
  226MOL0     H30471   4.464   3.147   6.653 -1.2175  0.6095  0.4565
  226MOL0     H30472   4.325   2.904   6.421 -0.4816 -0.7880  0.0682
  226MOL0     H30473   4.270   2.763   6.248 -1.7991  2.5437  2.9574
  226MOL0     H30474   4.134   2.875   5.847  0.1520 -0.0432  0.9878
  226MOL0     H30475   4.300   2.919   5.821 -0.7814  0.1839  1.2134
  226MOL0     H30476   4.307   2.644   5.767  3.2143  2.3713 -1.6723
  226MOL0     H30477   4.135   2.680   5.727 -1.7427  2.8330 -0.5286
  226MOL0     H30478   4.235   2.728   5.539  2.2211 -0.6064  0.2155
  226MOL0     H30479   4.279   2.885   5.615  2.3600  0.6797 -2.3380
  226MOL0     H30480   4.446   2.626   5.605 -0.2253 -0.8614 -0.1871
  226MOL0     H30481   4.494   2.778   5.675 -2.0562  0.8661  1.1890
  226MOL0     H30482   4.465   2.896   5.466  0.2217  0.2923 -1.5537
  226MOL0     H30483   4.425   2.755   5.375  2.5859  0.6801 -2.6620
  226MOL0     H30484   4.687   2.831   5.504 -1.3826  1.3163  0.7467
  226MOL0     H30485   4.656   2.657   5.483  0.7848 -0.4035 -2.0407
  226MOL0     H30486   4.640   2.848   5.238 -0.5186  0.7646  1.3533
  226MOL0     H30487   4.613   2.678   5.239 -2.6561  1.6110 -0.0390
  226MOL0     H30488   4.857   2.743   5.183  2.4228  2.9403  2.8669
  226MOL0     H30489   4.864   2.800   5.348  0.0604 -0.7064  1.2743
  226MOL0     H30490   4.321   3.080   5.947 -2.0028 -2.3699 -0.5049
  226MOL0     H30491   4.380   3.225   6.125  0.5752 -0.6250 -0.4821
  226MOL0     H30492   4.454   3.541   6.485 -2.4494  0.9392  3.1626
  226MOL0     H30493   4.535   3.639   6.696 -1.3362  1.4914 -3.6714
  226MOL0     H30494   4.406   4.431   8.431 -0.8669 -1.9253 -0.8527
  226MOL0     H30495   4.361   4.679   8.406 -1.9558  0.8535  1.4403
  226MOL0     H30496   4.142   4.988   8.225  2.8902  1.9445  2.5262
  226MOL0     H30497   4.066   5.203   8.155  2.8015 -0.3218  1.5579
  226MOL0     H30498   4.001   5.522   8.268  0.1168 -2.5258 -2.9543
  226MOL0     H30499   4.065   5.402   8.369  1.0202  0.3479 -4.7255
  226MOL0     H30500   3.962   5.545   8.522 -0.0168 -2.3463  1.8495
  226MOL0     H30501   3.832   5.426   8.509 -1.3815 -0.9928 -2.4557
  226MOL0     H30502   3.712   5.576   8.343  0.9837  0.8907 -2.3534
  226MOL0     H30503   3.834   5.689   8.353  4.4688 -0.0801  2.4492
  226MOL0     H30504   3.638   5.728   8.506  1.9617  1.8562 -2.5972
  226MOL0     H30505   3.682   5.573   8.592  2.7728 -2.6093 -2.1559
  226MOL0     H30506   3.916   5.913   8.732 -0.6975  0.7596  0.6978
  226MOL0     H30507   3.766   5.205   8.461 -0.2691 -0.5796 -0.9303
  226MOL0     H30508   3.761   4.881   8.534  0.3242 -0.8699  4.1746
  226MOL0     H30509   3.894   4.907   8.627  1.1679  1.9815  0.1279
  226MOL0     H30510   3.772   5.024   8.636  0.4648 -1.8469  1.8618
  227MOL0     O30511   6.778   2.844   5.756  0.3193 -0.7043 -0.3585
  227MOL0     C30512   6.804   2.812   5.643  0.7101 -0.0293 -0.2529
  227MOL0     O30513   6.802   2.899   5.538  0.3952  0.6332 -0.3740
  227MOL0     C30514   6.767   3.026   5.570  0.7118 -0.4205 -0.3597
  227MOL0     C30515   6.850   3.112   5.641  0.1722  0.2467 -0.5516
  227MOL0     C30516   6.803   3.243   5.667  0.5304 -0.0494 -0.3523
  227MOL0     C30517   6.676   3.294   5.636 -0.9463  0.4210  0.4417
  227MOL0     O30518   6.626   3.390   5.714 -0.4213 -0.5913  0.1619
  227MOL0     C30519   6.591   3.507   5.643 -0.1976  0.2678  0.1778
  227MOL0     C30520   6.683   3.614   5.707  0.3106 -0.5494 -0.2569
  227MOL0     C30521   6.659   3.656   5.856  0.2307 -0.6064 -0.0871
  227MOL0     C30522   6.738   3.573   5.950  0.7645 -0.3639 -0.1760
  227MOL0     C30523   6.700   3.583   6.109  0.4210 -0.0368  0.1178
  227MOL0     C30524   6.780   3.487   6.191  0.7685 -0.5651 -0.4993
  227MOL0     C30525   6.739   3.507   6.340  0.6438 -0.2435 -0.0855
  227MOL0     C30526   6.777   3.383   6.411 -0.0107  0.5807  0.4645
  227MOL0     N30527   6.726   3.399   6.548 -0.6806  0.1167 -0.3734
  227MOL0     C30528   6.599   3.425   6.591 -0.1005 -0.5151  0.3947
  227MOL0     C30529   6.600   3.399   6.723 -0.0191  0.8924 -0.4990
  227MOL0     C30530   6.468   3.399   6.801 -0.7084  0.1064  0.5740
  227MOL0     C30531   6.382   3.266   6.789 -0.5436 -0.2552  0.1963
  227MOL0     C30532   6.443   3.131   6.832 -0.0984  0.6874 -1.0321
  227MOL0     C30533   6.484   3.129   6.975 -0.6130 -0.7830 -1.6461
  227MOL0     O30534   6.369   3.135   7.058  0.0392 -0.4190  0.0505
  227MOL0     C30535   6.403   3.139   7.191 -0.2662 -0.3901  0.5502
  227MOL0     C30536   6.460   3.250   7.260 -0.6705  0.1746  0.5841
  227MOL0     C30537   6.475   3.257   7.398  0.3737 -0.3601  0.2394
  227MOL0     C30538   6.443   3.148   7.480 -0.5367 -0.0485 -0.1069
  227MOL0     C30539   6.431   3.168   7.622 -0.2840 -0.1881  0.3265
  227MOL0     O30540   6.363   3.266   7.677 -0.3684  0.4350  0.8329
  227MOL0     C30541   6.287   3.225   7.787  0.2086  1.1418  1.3909
  227MOL0     C30542   6.332   3.255   7.917 -0.9538 -0.4359 -0.9243
  227MOL0     C30543   6.281   3.205   8.034  0.4066  0.3004 -0.1864
  227MOL0     C30544   6.173   3.112   8.019 -0.4951  0.0942  0.4609
  227MOL0     O30545   6.100   3.051   8.115  0.4281  0.9780  0.3806
  227MOL0     C30546   6.167   3.030   8.236 -0.0690  0.1506  0.0947
  227MOL0     C30547   6.057   2.968   8.317 -0.6391 -0.0369 -0.5487
  227MOL0     C30548   6.108   2.925   8.455 -0.1800  0.1826  0.2852
  227MOL0     C30549   6.000   2.898   8.553  0.4002  0.0450 -0.6386
  227MOL0     C30550   6.069   2.880   8.699  0.9346  0.5366  0.4120
  227MOL0     C30551   5.967   2.823   8.802 -0.8590 -0.7643 -0.3183
  227MOL0     C30552   5.924   2.683   8.762  0.2974 -0.1591 -1.1201
  227MOL0     C30553   6.036   2.578   8.746 -0.5752 -0.1541  0.3691
  227MOL0    Cl30554   5.949   2.422   8.740  0.0596  0.4579  0.0000
  227MOL0     C30555   6.120   3.080   7.886 -0.5208  0.1065 -0.0319
  227MOL0     C30556   6.180   3.134   7.771 -0.5848 -0.0842  0.1156
  227MOL0     O30557   6.465   3.063   7.678  0.5593 -0.8138 -0.2543
  227MOL0     C30558   6.385   3.038   7.407 -0.3640  0.1666  0.8744
  227MOL0     C30559   6.367   3.031   7.268 -0.2439  0.1728  0.9910
  227MOL0     N30560   6.719   3.359   6.766 -0.5957  0.2176 -0.0494
  227MOL0     N30561   6.792   3.343   6.657 -0.4666 -0.0556 -0.1241
  227MOL0     C30562   6.592   3.208   5.575  1.2804  0.5272  0.0915
  227MOL0     C30563   6.638   3.077   5.536 -1.1981 -0.2658  0.1221
  227MOL0     C30564   6.825   2.675   5.599  0.4599  0.1561 -0.5012
  227MOL0     C30565   6.802   2.636   5.468  0.6350  0.3621  0.1572
  227MOL0     C30566   6.815   2.505   5.423 -0.3836  0.0109 -0.1385
  227MOL0     C30567   6.878   2.409   5.504  0.5065 -0.8115  1.0035
  227MOL0     O30568   6.895   2.283   5.456  0.1679  0.0390  1.0282
  227MOL0     C30569   7.029   2.253   5.403  0.3567 -0.7181 -0.9281
  227MOL0     C30570   7.053   2.295   5.258  0.5863  1.2146 -0.5571
  227MOL0     C30571   7.179   2.239   5.198 -0.8783  0.8310  0.5263
  227MOL0     C30572   7.150   2.127   5.099  0.1451  0.0822 -0.4317
  227MOL0     C30573   7.268   2.076   5.033 -0.2018  0.1473 -0.8501
  227MOL0     C30574   7.375   2.042   4.980  0.1138 -0.0136 -0.0171
  227MOL0     C30575   6.917   2.450   5.632 -0.4035  0.0788  0.1109
  227MOL0     C30576   6.874   2.575   5.683 -0.1277 -0.6863  0.4929
  227MOL0     C30577   6.925   2.606   5.820  0.3860 -0.6213  0.2278
  227MOL0     H30578   6.948   3.096   5.685 -0.2798 -0.5970  0.1880
  227MOL0     H30579   6.861   3.305   5.735 -1.3721  2.1709 -0.6108
  227MOL0     H30580   6.600   3.496   5.534  1.1971 -0.2821  0.3233
  227MOL0     H30581   6.489   3.530   5.675  0.0245 -0.5036  1.5160
  227MOL0     H30582   6.659   3.706   5.653 -2.1404 -0.8066  0.2451
  227MOL0     H30583   6.788   3.589   5.690  0.2422 -0.5736 -0.6451
  227MOL0     H30584   6.553   3.642   5.882  0.5791 -3.5328  0.0476
  227MOL0     H30585   6.690   3.759   5.878  0.0956 -0.4523 -0.6123
  227MOL0     H30586   6.727   3.468   5.919  0.6317  0.2377 -2.3426
  227MOL0     H30587   6.846   3.582   5.935  0.9077 -0.7118  0.5991
  227MOL0     H30588   6.699   3.686   6.148 -2.7240 -1.0125  3.1128
  227MOL0     H30589   6.594   3.559   6.114  0.2340 -1.4468 -5.0753
  227MOL0     H30590   6.734   3.392   6.162 -1.7589  0.1626  0.7797
  227MOL0     H30591   6.888   3.487   6.171  0.7926  0.4895 -0.4207
  227MOL0     H30592   6.632   3.527   6.340  0.1567 -2.4600  1.4174
  227MOL0     H30593   6.788   3.595   6.382  0.8038 -1.2812  2.0037
  227MOL0     H30594   6.745   3.287   6.371 -0.3121  0.1845  1.6315
  227MOL0     H30595   6.886   3.387   6.406 -0.0369  0.0042 -0.7371
  227MOL0     H30596   6.521   3.466   6.528  1.1139  0.7599 -0.3416
  227MOL0     H30597   6.486   3.438   6.902  2.6626 -1.6477  0.7786
  227MOL0     H30598   6.405   3.473   6.752 -0.3309 -1.2187 -2.0662
  227MOL0     H30599   6.282   3.281   6.830 -2.0525  1.1139 -3.5694
  227MOL0     H30600   6.366   3.271   6.681  1.2028 -0.7665 -0.1335
  227MOL0     H30601   6.530   3.125   6.765  0.2437  2.3969 -0.7920
  227MOL0     H30602   6.371   3.053   6.806 -0.4573  1.6762 -3.2128
  227MOL0     H30603   6.553   3.212   6.990  0.5781 -1.7958 -1.3934
  227MOL0     H30604   6.539   3.038   7.001  0.9476  0.6892  0.5342
  227MOL0     H30605   6.466   3.336   7.195 -1.8014 -1.5119 -1.9297
  227MOL0     H30606   6.488   3.362   7.425 -0.5604  1.5096 -5.2474
  227MOL0     H30607   6.430   3.301   7.920  0.5055 -3.3344  1.0849
  227MOL0     H30608   6.324   3.220   8.133  0.6549  1.8082 -0.5010
  227MOL0     H30609   6.244   2.952   8.230 -1.9669 -1.9598  1.6452
  227MOL0     H30610   6.208   3.118   8.286  0.4503 -1.3828  2.5313
  227MOL0     H30611   5.970   3.031   8.338  1.0697  1.8347  1.3145
  227MOL0     H30612   6.011   2.879   8.272  1.4457 -0.8979 -1.1170
  227MOL0     H30613   6.165   2.832   8.451  0.0940  0.3928 -1.3884
  227MOL0     H30614   6.172   3.003   8.498  1.0262 -0.3398 -0.5006
  227MOL0     H30615   5.955   2.805   8.515 -3.4259  2.3322 -2.3343
  227MOL0     H30616   5.925   2.978   8.559  1.1372  0.6908  0.2460
  227MOL0     H30617   6.096   2.983   8.723 -1.1327  1.2849 -0.2070
  227MOL0     H30618   6.162   2.824   8.686  1.0144  1.0244 -1.5304
  227MOL0     H30619   6.015   2.819   8.900  2.4909  0.4748 -1.7619
  227MOL0     H30620   5.883   2.891   8.790  0.3070  0.3050 -3.3212
  227MOL0     H30621   5.863   2.694   8.672  1.4099  0.7302 -1.7867
  227MOL0     H30622   5.853   2.648   8.837 -1.6868  0.3918 -2.6389
  227MOL0     H30623   6.096   2.597   8.656  2.3440  0.7881  2.3684
  227MOL0     H30624   6.108   2.576   8.828  0.2227 -4.2682 -0.2445
  227MOL0     H30625   6.049   2.998   7.882 -0.1485 -0.2063 -0.3565
  227MOL0     H30626   6.150   3.107   7.670 -1.2068 -0.2872  0.3520
  227MOL0     H30627   6.361   2.955   7.474  3.4762 -1.4522  0.4943
  227MOL0     H30628   6.332   2.942   7.217 -0.5817  0.9746 -0.2550
  227MOL0     H30629   6.486   3.231   5.567  0.6997 -1.3623  1.6005
  227MOL0     H30630   6.566   3.011   5.489 -2.8833 -0.4215  2.7143
  227MOL0     H30631   6.748   2.714   5.416  1.3833 -0.1681 -1.4660
  227MOL0     H30632   6.766   2.467   5.334 -1.6100  0.2429  0.4156
  227MOL0     H30633   7.041   2.144   5.413 -0.9560 -0.7699  0.3139
  227MOL0     H30634   7.104   2.293   5.472  0.5863 -0.1127 -1.5193
  227MOL0     H30635   7.055   2.404   5.253 -0.2899  1.1843 -2.4923
  227MOL0     H30636   6.970   2.261   5.195  0.9220 -1.1568  0.2017
  227MOL0     H30637   7.246   2.214   5.280 -1.5869 -2.7343  0.1535
  227MOL0     H30638   7.232   2.308   5.131  3.0862 -0.0284  2.4659
  227MOL0     H30639   7.095   2.043   5.142  2.0328 -1.0209 -0.0468
  227MOL0     H30640   7.088   2.169   5.021  4.6878  1.0664 -3.9596
  227MOL0     H30641   7.468   2.008   4.939  0.0856 -0.4576  0.2837
  227MOL0     H30642   6.965   2.379   5.699  0.3552  0.4647 -0.0239
  227MOL0     H30643   7.003   2.680   5.802  1.8682 -1.6288  2.1225
  227MOL0     H30644   6.855   2.650   5.892  0.8595 -2.0688  1.6304
  227MOL0     H30645   6.966   2.516   5.867  1.7251  1.8700  4.3167
  228MOL0     O30646   3.319   6.695   9.614 -0.2749 -0.2246  0.0121
  228MOL0     C30647   3.389   6.595   9.614 -0.2122  0.0359 -0.4449
  228MOL0     O30648   3.423   6.530   9.504 -0.2606 -0.1680  0.0676
  228MOL0     C30649   3.393   6.595   9.386 -0.4648  0.4732 -0.1993
  228MOL0     C30650   3.263   6.589   9.334 -0.7651 -0.3738  0.7000
  228MOL0     C30651   3.231   6.630   9.200  0.4974  0.4957  0.0005
  228MOL0     C30652   3.336   6.687   9.126 -0.8516  0.3649 -0.6292
  228MOL0     O30653   3.331   6.732   8.999  0.0268 -0.3229  0.2371
  228MOL0     C30654   3.205   6.727   8.934 -0.0957 -0.2368  0.2695
  228MOL0     C30655   3.156   6.588   8.905 -0.4778 -0.0874  0.5031
  228MOL0     C30656   3.069   6.572   8.781  0.7688 -0.3447  1.2900
  228MOL0     C30657   3.054   6.424   8.739 -0.5392  0.0051  0.4170
  228MOL0     C30658   2.953   6.393   8.630 -0.3491  0.0455  0.2727
  228MOL0     C30659   2.961   6.256   8.569 -0.5255 -0.6075  0.1892
  228MOL0     C30660   2.843   6.224   8.472 -0.0022 -0.2991 -1.0554
  228MOL0     C30661   2.844   6.292   8.331  0.9130  0.6541  0.1505
  228MOL0     N30662   2.917   6.230   8.216  0.7291 -0.3686 -0.2239
  228MOL0     C30663   2.872   6.129   8.136  0.1923 -0.5008 -0.2678
  228MOL0     C30664   2.973   6.110   8.048 -0.1558 -0.1050 -0.2467
  228MOL0     C30665   2.973   5.997   7.943 -0.1089  0.9036  0.1070
  228MOL0     C30666   3.095   5.899   7.936  0.2834  0.6018  0.2311
  228MOL0     C30667   3.132   5.819   8.067 -0.5803  0.0477 -0.0944
  228MOL0     C30668   3.158   5.892   8.193 -0.0616  0.1080 -0.7819
  228MOL0     O30669   3.223   5.802   8.280 -0.8067  0.2894 -0.2039
  228MOL0     C30670   3.248   5.857   8.404  0.7103 -0.7038 -0.3495
  228MOL0     C30671   3.153   5.885   8.500  0.2695 -0.2352  0.9844
  228MOL0     C30672   3.181   5.928   8.627 -0.4228  0.3609 -0.2851
  228MOL0     C30673   3.312   5.922   8.677 -0.8738  0.1623  0.9278
  228MOL0     C30674   3.340   5.958   8.813 -0.6554 -0.2435 -0.6924
  228MOL0     O30675   3.231   5.974   8.895  0.1833 -0.2516  0.7315
  228MOL0     C30676   3.251   6.025   9.016 -0.2678  0.1794  0.7220
  228MOL0     C30677   3.276   5.953   9.138 -0.8477  0.4841 -0.4199
  228MOL0     C30678   3.303   6.019   9.261  1.0405 -0.3754  0.7280
  228MOL0     C30679   3.284   6.161   9.276  0.1268 -0.9521 -0.6576
  228MOL0     O30680   3.275   6.238   9.386 -0.4452 -0.3424 -0.3061
  228MOL0     C30681   3.227   6.182   9.511 -0.4838 -1.3283  0.4132
  228MOL0     C30682   3.087   6.235   9.543 -0.0369 -0.2703  0.7864
  228MOL0     C30683   2.977   6.195   9.448  0.4025 -0.6669  0.1077
  228MOL0     C30684   2.966   6.287   9.320  0.5102 -0.1573 -0.6873
  228MOL0     C30685   2.884   6.215   9.210 -0.0080 -0.6794  0.0033
  228MOL0     C30686   2.883   6.301   9.083  0.4756 -0.4340 -0.3296
  228MOL0     C30687   2.824   6.237   8.959  1.0704  0.5486 -0.1806
  228MOL0     C30688   2.672   6.214   8.980 -0.3018 -0.8219  0.4199
  228MOL0    Cl30689   2.573   6.354   8.916  0.0014  0.4866  0.3221
  228MOL0     C30690   3.253   6.229   9.150 -0.2081 -0.6654  0.8256
  228MOL0     C30691   3.238   6.166   9.022 -1.2920  0.1844 -0.4149
  228MOL0     O30692   3.456   5.970   8.849 -0.3364 -0.3484  0.0028
  228MOL0     C30693   3.411   5.901   8.584  0.7122 -0.2055 -0.3121
  228MOL0     C30694   3.381   5.878   8.447  0.3296 -0.2099 -0.6063
  228MOL0     N30695   3.074   6.203   8.076  0.6282 -0.2092 -0.5753
  228MOL0     N30696   3.038   6.269   8.182  0.2788 -0.1613 -0.5311
  228MOL0     C30697   3.469   6.679   9.175  0.1835  0.2860  0.3703
  228MOL0     C30698   3.500   6.620   9.294 -0.6137  0.3365 -0.2380
  228MOL0     C30699   3.465   6.539   9.735  0.3118  1.0502 -0.5124
  228MOL0     C30700   3.587   6.475   9.710 -0.3541  0.8395  0.1893
  228MOL0     C30701   3.672   6.434   9.807  1.7686  0.5691 -0.0399
  228MOL0     C30702   3.645   6.469   9.941  1.2704  0.9610 -0.0012
  228MOL0     O30703   3.743   6.436  10.038  0.0756 -0.1990  0.1557
  228MOL0     C30704   3.703   6.444  10.178  0.6401 -0.3798 -0.4949
  228MOL0     C30705   3.813   6.385  10.264 -0.3403 -0.7897  0.4163
  228MOL0     C30706   3.784   6.433  10.409  0.4203 -0.5647 -0.1609
  228MOL0     C30707   3.874   6.362  10.511  1.8015  0.4094 -0.3209
  228MOL0     C30708   4.011   6.406  10.530 -0.9230  0.2827 -1.5335
  228MOL0     C30709   4.122   6.425  10.561 -0.4410  0.2557 -0.5747
  228MOL0     C30710   3.526   6.538   9.965  0.5817 -0.3718 -0.2462
  228MOL0     C30711   3.428   6.557   9.866 -0.5892  0.0860 -0.7350
  228MOL0     C30712   3.300   6.614   9.914 -0.6895 -0.1771 -0.3738
  228MOL0     H30713   3.197   6.537   9.403 -0.5175 -2.3185 -0.4592
  228MOL0     H30714   3.129   6.633   9.165  1.0770 -1.2144 -2.0183
  228MOL0     H30715   3.128   6.781   8.991 -1.2460 -2.0556  0.5409
  228MOL0     H30716   3.236   6.770   8.838  2.5754 -1.4683  0.4943
  228MOL0     H30717   3.102   6.540   8.987  0.1248 -1.3631  0.1852
  228MOL0     H30718   3.242   6.521   8.892  0.4064  1.0417  0.4475
  228MOL0     H30719   3.119   6.618   8.696 -0.4102 -1.9728 -0.3685
  228MOL0     H30720   2.971   6.620   8.794  2.7059  3.7460  2.3359
  228MOL0     H30721   3.149   6.395   8.692 -1.0011  1.0928 -1.2654
  228MOL0     H30722   3.050   6.359   8.827 -4.5939  0.9036  1.0557
  228MOL0     H30723   2.852   6.409   8.668 -0.7462  0.0956 -0.7531
  228MOL0     H30724   2.972   6.470   8.553  5.2018 -2.7799 -1.7379
  228MOL0     H30725   3.056   6.258   8.515  0.2055 -1.5536  1.3828
  228MOL0     H30726   2.963   6.184   8.652  0.7497  1.8142  2.4300
  228MOL0     H30727   2.755   6.264   8.522  0.1336 -0.6590 -0.5154
  228MOL0     H30728   2.826   6.118   8.454  3.5056 -1.6415  2.1699
  228MOL0     H30729   2.744   6.280   8.287  1.5820 -1.3109 -0.9168
  228MOL0     H30730   2.858   6.401   8.331 -0.2897  0.8314  0.4129
  228MOL0     H30731   2.784   6.066   8.134  0.0651 -0.4532  1.9391
  228MOL0     H30732   2.886   5.931   7.957 -0.9415  1.9934  0.2323
  228MOL0     H30733   2.977   6.053   7.850  4.3910  0.2585 -0.3015
  228MOL0     H30734   3.060   5.824   7.864  0.0399  0.0562  0.9138
  228MOL0     H30735   3.181   5.956   7.899 -2.1593  3.9047 -0.8896
  228MOL0     H30736   3.218   5.756   8.042  2.0685  1.5834  3.9931
  228MOL0     H30737   3.043   5.755   8.077 -1.2446  1.0214  0.4015
  228MOL0     H30738   3.066   5.928   8.240  0.1968  0.3737 -0.4701
  228MOL0     H30739   3.227   5.977   8.192  2.6375 -1.9006 -3.1192
  228MOL0     H30740   3.052   5.874   8.463  0.5811  1.0180 -0.3467
  228MOL0     H30741   3.095   5.940   8.692  1.7427 -1.3604  3.1848
  228MOL0     H30742   3.291   5.845   9.144  3.4310  0.9019 -0.7634
  228MOL0     H30743   3.303   5.947   9.342 -2.7842 -1.4314 -0.0076
  228MOL0     H30744   3.220   6.073   9.509  1.3576 -1.5403 -3.2425
  228MOL0     H30745   3.290   6.212   9.596  0.9403 -1.1649 -0.6544
  228MOL0     H30746   3.064   6.220   9.649  2.5906  4.5852  2.3625
  228MOL0     H30747   3.098   6.344   9.543  3.1867 -0.4307  3.1569
  228MOL0     H30748   2.994   6.090   9.423 -0.6505 -0.8268 -0.0090
  228MOL0     H30749   2.883   6.209   9.502 -0.2403  2.0030 -1.5187
  228MOL0     H30750   3.068   6.318   9.293  0.0366  3.2258  0.8247
  228MOL0     H30751   2.917   6.383   9.338 -0.5387 -0.9914  1.1266
  228MOL0     H30752   2.781   6.206   9.244 -0.3772  2.6187  0.0020
  228MOL0     H30753   2.923   6.117   9.179 -1.6670 -1.5100  0.4755
  228MOL0     H30754   2.832   6.396   9.100  1.2785  0.6750 -3.4586
  228MOL0     H30755   2.991   6.317   9.075  0.5948  1.6216  3.2886
  228MOL0     H30756   2.861   6.134   8.947 -3.8042 -1.6237  1.0361
  228MOL0     H30757   2.844   6.290   8.865  1.6387 -0.1095 -0.4452
  228MOL0     H30758   2.642   6.127   8.922  1.0585 -0.4889 -0.8342
  228MOL0     H30759   2.654   6.174   9.080  0.1429 -0.5411  0.6150
  228MOL0     H30760   3.250   6.338   9.149 -4.8638 -0.5823 -0.6137
  228MOL0     H30761   3.219   6.222   8.931 -0.6043  3.5133  1.3197
  228MOL0     H30762   3.512   5.915   8.621 -0.0226  4.2705  0.5732
  228MOL0     H30763   3.473   5.859   8.391  0.2297 -1.1081 -0.4798
  228MOL0     H30764   3.548   6.722   9.113  0.9753  1.6862  2.2530
  228MOL0     H30765   3.597   6.593   9.335 -0.4729  0.7040 -0.3220
  228MOL0     H30766   3.609   6.460   9.605  0.3398 -0.0379  0.4518
  228MOL0     H30767   3.765   6.380   9.787  0.6193 -2.7799  2.6023
  228MOL0     H30768   3.612   6.386  10.194  1.7496 -2.7659 -2.3334
  228MOL0     H30769   3.682   6.550  10.199 -4.2403 -0.9520 -1.3380
  228MOL0     H30770   3.914   6.411  10.229 -1.1054  2.8941  0.5321
  228MOL0     H30771   3.801   6.276  10.258 -0.5182 -0.8588  1.8156
  228MOL0     H30772   3.684   6.391  10.422  0.9512 -1.7953  0.0735
  228MOL0     H30773   3.793   6.541  10.422  3.5391 -1.0643  3.4598
  228MOL0     H30774   3.827   6.365  10.609  0.0032 -3.0512 -0.8979
  228MOL0     H30775   3.872   6.258  10.476  0.3038  0.5988 -0.8690
  228MOL0     H30776   4.226   6.429  10.586 -0.7971 -1.7004  1.5978
  228MOL0     H30777   3.505   6.562  10.068  0.6412  1.1464 -0.5504
  228MOL0     H30778   3.282   6.614  10.022  1.6328  2.7147  0.1415
  228MOL0     H30779   3.293   6.716   9.876 -1.7094 -0.1852 -0.2320
  228MOL0     H30780   3.217   6.565   9.862  0.4077 -2.2681 -0.2557
  229MOL0     O30781   9.305   0.262   1.149  0.7161  0.2865  0.2293
  229MOL0     C30782   9.303   0.139   1.125 -0.2650 -0.2967 -0.1834
  229MOL0     O30783   9.375   0.036   1.198  0.7090  0.5038  1.3690
  229MOL0     C30784   9.475   0.082   1.280 -0.4801  0.1568 -0.0351
  229MOL0     C30785   9.581   0.152   1.215  0.3423 -0.8941  1.3286
  229MOL0     C30786   9.697   0.188   1.285  0.2652  1.0862 -0.6820
  229MOL0     C30787   9.714   0.156   1.417 -0.3907  0.0337 -0.3544
  229MOL0     O30788   9.844   0.185   1.471  1.1679  0.5199  0.1064
  229MOL0     C30789   9.882   0.096   1.576 -0.4908  0.3044 -0.0648
  229MOL0     C30790  10.029   0.092   1.608 -0.0035 -0.3042 -0.1371
  229MOL0     C30791  10.082   0.234   1.652 -0.7534  0.1633 -0.7995
  229MOL0     C30792  10.043   0.250   1.799 -0.4092 -0.6603 -0.0162
  229MOL0     C30793  10.123   0.359   1.880  0.7140 -1.0645  0.4350
  229MOL0     C30794  10.075   0.500   1.834 -0.5081 -0.5140 -0.0051
  229MOL0     C30795  10.161   0.601   1.923 -0.2100  0.0801  0.0662
  229MOL0     C30796  10.114   0.751   1.903 -0.5869 -0.2199  1.0911
  229MOL0     N30797  10.193   0.835   1.995 -0.0806  0.3452 -1.1880
  229MOL0     C30798  10.140   0.874   2.118  0.4652 -0.0369  0.2319
  229MOL0     C30799  10.229   0.936   2.186 -0.0606  1.0996  0.5539
  229MOL0     C30800  10.221   0.998   2.322 -0.4731 -0.3293  0.3485
  229MOL0     C30801  10.277   0.919   2.427 -0.2540  0.7786 -0.3956
  229MOL0     C30802  10.238   0.986   2.564 -0.0449  0.0400 -0.3810
  229MOL0     C30803  10.331   0.941   2.673 -0.8404 -0.4735  0.1710
  229MOL0     O30804  10.278   0.988   2.797 -0.0002  0.2831  0.1904
  229MOL0     C30805  10.315   1.098   2.866  0.1054 -0.4385 -0.2275
  229MOL0     C30806  10.245   1.122   2.985  1.1433 -1.5046 -0.0754
  229MOL0     C30807  10.254   1.250   3.050 -0.5989  0.3944 -1.2414
  229MOL0     C30808  10.357   1.338   3.015 -0.2655 -0.5894 -0.2650
  229MOL0     C30809  10.390   1.460   3.100  0.5204 -0.2068 -0.4360
  229MOL0     O30810  10.302   1.477   3.207 -0.2166 -0.5908 -0.0486
  229MOL0     C30811  10.326   1.595   3.278 -0.0588 -1.4182  0.6225
  229MOL0     C30812  10.283   1.709   3.220 -0.0687 -0.9775  0.6422
  229MOL0     C30813  10.313   1.835   3.282  1.0749  0.0292  0.0475
  229MOL0     C30814  10.406   1.838   3.396  0.5095 -0.3407 -0.2800
  229MOL0     O30815  10.445   1.957   3.455  0.1648  0.2311 -0.2307
  229MOL0     C30816  10.445   1.971   3.605 -0.3524 -0.5014  0.0601
  229MOL0     C30817  10.586   2.002   3.646  0.8100  0.0706 -0.2292
  229MOL0     C30818  10.583   2.053   3.791 -0.0265 -0.1392 -0.3276
  229MOL0     C30819  10.726   2.062   3.832  0.5110 -1.3679 -0.4754
  229MOL0     C30820  10.728   2.153   3.959  0.1978  0.5808  0.1789
  229MOL0     C30821  10.847   2.122   4.059  0.7477  0.5218 -0.7924
  229MOL0     C30822  10.857   2.217   4.187  1.1499  0.2436  0.2771
  229MOL0     C30823  10.992   2.210   4.250  0.3224 -0.5733 -0.2756
  229MOL0    Cl30824  11.007   2.339   4.388  0.3277 -0.1513 -0.3788
  229MOL0     C30825  10.453   1.718   3.448  1.5706 -0.2608  0.1239
  229MOL0     C30826  10.413   1.601   3.385  0.3024  0.1572 -0.7756
  229MOL0     O30827  10.478   1.536   3.066 -0.2330  0.4954 -0.1337
  229MOL0     C30828  10.421   1.314   2.893 -1.0148  0.6817  0.8653
  229MOL0     C30829  10.403   1.196   2.815 -0.3172 -1.5030 -0.0254
  229MOL0     N30830  10.344   0.929   2.112 -0.1906 -0.3140 -0.2993
  229MOL0     N30831  10.326   0.879   2.000  0.8786 -0.3424  0.4926
  229MOL0     C30832   9.614   0.097   1.495 -0.0142 -0.1120 -0.5641
  229MOL0     C30833   9.495   0.062   1.417 -0.7750  0.0275 -0.7510
  229MOL0     C30834   9.227   0.095   1.009 -0.4431 -0.5621  1.1683
  229MOL0     C30835   9.086   0.136   0.994  0.8076  0.1692 -0.7270
  229MOL0     C30836   9.009   0.074   0.898  0.7327  0.7245  0.3185
  229MOL0     C30837   9.063  -0.041   0.820 -0.6654  0.4838 -0.5149
  229MOL0     O30838   8.997  -0.112   0.722  0.7117  0.5229  0.4878
  229MOL0     C30839   8.900  -0.039   0.642  0.4982  0.9334 -1.2319
  229MOL0     C30840   8.816  -0.145   0.579  0.5625  0.6312 -0.4456
  229MOL0     C30841   8.886  -0.249   0.494 -0.4298  0.5215 -0.0525
  229MOL0     C30842   8.787  -0.343   0.435  0.3975 -0.5137  0.6922
  229MOL0     C30843   8.690  -0.407   0.519  0.1931 -0.0065 -0.1883
  229MOL0     C30844   8.610  -0.466   0.586 -0.1789  0.2444  0.0141
  229MOL0     C30845   9.202  -0.070   0.827  0.1303  0.5025 -0.4229
  229MOL0     C30846   9.286  -0.003   0.918 -0.2225 -0.2095 -0.8524
  229MOL0     C30847   9.428  -0.051   0.930 -0.6398  0.2309  0.3260
  229MOL0     H30848   9.575   0.179   1.110 -1.2651 -1.3215  1.2842
  229MOL0     H30849   9.778   0.219   1.221  2.7570  0.6300  2.0538
  229MOL0     H30850   9.822   0.118   1.665  0.1055  2.6645 -0.1847
  229MOL0     H30851   9.856  -0.004   1.540 -2.2986 -0.3367  2.7237
  229MOL0     H30852  10.079   0.070   1.513  5.1246 -4.6235  2.9764
  229MOL0     H30853  10.062   0.013   1.676 -2.3051  1.2251  3.0493
  229MOL0     H30854  10.042   0.313   1.588  2.1416  3.1813  0.8447
  229MOL0     H30855  10.190   0.245   1.647 -0.4014 -1.2773  1.7131
  229MOL0     H30856   9.937   0.260   1.824  0.0306 -0.1546  1.8123
  229MOL0     H30857  10.071   0.153   1.842  2.4603 -0.0248 -0.2497
  229MOL0     H30858  10.106   0.346   1.987 -0.1401  1.2766  0.6369
  229MOL0     H30859  10.230   0.357   1.857  0.2891 -0.4397 -1.8814
  229MOL0     H30860  10.090   0.519   1.727  0.0190  0.5711  0.2411
  229MOL0     H30861   9.966   0.508   1.838 -0.4457  0.4894  0.1243
  229MOL0     H30862  10.268   0.604   1.899 -0.4217  1.7401 -0.7985
  229MOL0     H30863  10.145   0.577   2.028  2.3247 -3.2513 -0.1162
  229MOL0     H30864  10.137   0.789   1.803 -1.3116 -0.5978  0.7641
  229MOL0     H30865  10.006   0.768   1.912 -0.8838 -0.0502 -1.8120
  229MOL0     H30866  10.038   0.871   2.153  0.2564  1.9801 -0.0430
  229MOL0     H30867  10.296   1.076   2.304 -0.2671  0.1410  2.9111
  229MOL0     H30868  10.115   1.022   2.336 -1.0063 -1.0746 -1.9704
  229MOL0     H30869  10.236   0.818   2.442  0.1534  0.7300  0.4433
  229MOL0     H30870  10.386   0.912   2.422 -0.1694 -0.6406  2.1679
  229MOL0     H30871  10.138   0.945   2.581 -0.0062 -0.2800 -0.8996
  229MOL0     H30872  10.231   1.095   2.567 -0.2121  0.0429  3.3233
  229MOL0     H30873  10.434   0.972   2.655 -0.3639 -3.4034 -3.1290
  229MOL0     H30874  10.334   0.833   2.663 -5.1590 -0.7998  0.4840
  229MOL0     H30875  10.172   1.048   3.017  0.3619 -1.2179 -1.1274
  229MOL0     H30876  10.186   1.271   3.132 -2.3098 -0.5024 -2.3709
  229MOL0     H30877  10.225   1.701   3.129  2.4502 -2.7353 -0.9357
  229MOL0     H30878  10.256   1.922   3.250 -1.4772 -1.9899 -1.2857
  229MOL0     H30879  10.376   2.048   3.639 -0.3176  1.1639 -3.1721
  229MOL0     H30880  10.411   1.881   3.657 -1.2251 -0.8980 -1.1277
  229MOL0     H30881  10.633   1.903   3.646  0.7795  0.0561 -0.0575
  229MOL0     H30882  10.633   2.068   3.572  0.3671 -1.1757 -1.6862
  229MOL0     H30883  10.528   2.148   3.792  0.3754  0.1137 -1.1049
  229MOL0     H30884  10.529   1.981   3.853 -4.0504  0.3948 -2.7848
  229MOL0     H30885  10.794   2.103   3.757 -1.6354 -1.7649 -2.8065
  229MOL0     H30886  10.774   1.966   3.850  2.0937 -0.6963 -1.0097
  229MOL0     H30887  10.637   2.125   4.013  2.4842 -0.9697  3.5513
  229MOL0     H30888  10.718   2.259   3.934  3.8772  0.6327 -1.7707
  229MOL0     H30889  10.827   2.022   4.099  4.0314 -0.1561 -0.6124
  229MOL0     H30890  10.943   2.119   4.008  0.1425  0.0829 -1.9495
  229MOL0     H30891  10.771   2.177   4.241  1.2091 -2.5192 -1.4765
  229MOL0     H30892  10.820   2.314   4.153 -2.2833 -0.7640  0.7164
  229MOL0     H30893  11.027   2.111   4.280  2.4883  0.2912  0.2610
  229MOL0     H30894  11.068   2.250   4.181  1.4158  2.2627  2.3526
  229MOL0     H30895  10.534   1.709   3.520  0.6255  3.1457  1.8424
  229MOL0     H30896  10.455   1.512   3.432 -0.7790  0.8957  1.6996
  229MOL0     H30897  10.492   1.392   2.866 -1.0190  0.6216  0.6792
  229MOL0     H30898  10.446   1.197   2.715  2.1042  0.0407  0.9319
  229MOL0     H30899   9.626   0.086   1.603  1.9354 -0.1871 -0.7593
  229MOL0     H30900   9.417   0.018   1.479  0.0833  1.1754  1.2465
  229MOL0     H30901   9.049   0.218   1.055 -2.1175  0.3867 -2.5864
  229MOL0     H30902   8.908   0.111   0.884  1.8532  4.6258  1.2868
  229MOL0     H30903   8.943   0.020   0.560 -0.5997  1.3984 -1.4920
  229MOL0     H30904   8.843   0.031   0.704  1.3987  2.3149 -1.9143
  229MOL0     H30905   8.741  -0.098   0.514  0.0476  0.6653  0.1594
  229MOL0     H30906   8.764  -0.194   0.661  0.6603  0.0727 -0.7156
  229MOL0     H30907   8.953  -0.308   0.557 -1.5241 -2.4258 -1.4525
  229MOL0     H30908   8.947  -0.199   0.419 -1.1454 -1.9556 -2.4377
  229MOL0     H30909   8.731  -0.281   0.364  3.1052 -1.5094 -2.5875
  229MOL0     H30910   8.844  -0.419   0.380  0.7669 -1.6674  2.5683
  229MOL0     H30911   8.536  -0.508   0.651 -1.3859  3.8940  1.2634
  229MOL0     H30912   9.238  -0.154   0.769 -3.1799 -1.5993  0.3079
  229MOL0     H30913   9.472  -0.084   0.835 -2.2509 -1.0387 -0.0126
  229MOL0     H30914   9.495   0.023   0.974  0.8794 -0.8050 -0.1413
  229MOL0     H30915   9.428  -0.131   1.004 -2.2994  0.2019  0.3310
  230MOL0     O30916   1.707   5.273   7.002 -1.5925  0.3044  1.0304
  230MOL0     C30917   1.607   5.337   6.966  0.0329  0.4918 -0.6740
  230MOL0     O30918   1.545   5.314   6.848  0.4297 -0.1420 -0.7118
  230MOL0     C30919   1.614   5.246   6.746 -0.0904 -0.0718 -1.3875
  230MOL0     C30920   1.648   5.112   6.755 -1.1571  0.0711  1.2791
  230MOL0     C30921   1.702   5.043   6.652 -0.8362 -0.2957 -0.4944
  230MOL0     C30922   1.735   5.107   6.537 -0.2804  1.0706 -0.0247
  230MOL0     O30923   1.786   5.051   6.428  0.6406 -0.3051 -0.1523
  230MOL0     C30924   1.749   4.918   6.387 -0.9418  0.4170 -0.9754
  230MOL0     C30925   1.844   4.881   6.276 -0.0867 -0.9922  0.4776
  230MOL0     C30926   1.988   4.874   6.335  0.0685 -0.6388  0.1131
  230MOL0     C30927   2.100   4.858   6.230  0.1325 -0.4429  0.2424
  230MOL0     C30928   2.127   4.992   6.155 -0.2999  0.0099  0.2490
  230MOL0     C30929   2.238   4.972   6.052 -0.2904 -0.6101 -0.2313
  230MOL0     C30930   2.283   5.112   6.016 -0.9790  0.4799 -0.6107
  230MOL0     C30931   2.402   5.118   5.925 -0.6873 -0.4107 -0.0081
  230MOL0     N30932   2.369   5.046   5.794 -0.0581 -0.0875 -0.1098
  230MOL0     C30933   2.282   5.080   5.697 -0.3232 -0.2394 -0.1107
  230MOL0     C30934   2.285   4.977   5.601  0.5969 -0.2703 -0.2638
  230MOL0     C30935   2.188   4.959   5.482 -0.0175 -0.6403  0.1990
  230MOL0     C30936   2.147   4.817   5.447 -0.3337 -0.1940 -1.1423
  230MOL0     C30937   2.060   4.811   5.320  0.7907  0.7479 -0.1725
  230MOL0     C30938   1.978   4.679   5.324 -0.4456 -0.4400 -0.0846
  230MOL0     O30939   2.042   4.558   5.376  0.5801 -0.7744 -0.9050
  230MOL0     C30940   1.964   4.478   5.451 -0.0406  0.0065  0.8341
  230MOL0     C30941   1.829   4.458   5.432  0.0291  0.0734 -1.6374
  230MOL0     C30942   1.775   4.376   5.524  0.6980 -0.0198  0.2285
  230MOL0     C30943   1.843   4.296   5.619  0.0212 -0.4978  0.0738
  230MOL0     C30944   1.769   4.189   5.702 -0.2886 -0.2828 -0.0685
  230MOL0     O30945   1.842   4.103   5.774  0.0322  0.1974  1.0248
  230MOL0     C30946   1.778   3.999   5.835  0.5745 -0.8456 -0.6597
  230MOL0     C30947   1.698   4.020   5.961 -0.4617  0.5769 -1.0558
  230MOL0     C30948   1.643   3.913   6.030 -0.2544  0.4538  0.5145
  230MOL0     C30949   1.667   3.783   5.981 -0.5849  0.8246 -1.1769
  230MOL0     O30950   1.625   3.683   6.069 -0.1672  0.7095 -0.1439
  230MOL0     C30951   1.571   3.566   6.025  0.0227  0.4590 -0.1489
  230MOL0     C30952   1.660   3.446   6.077 -0.4320  0.2165  0.3912
  230MOL0     C30953   1.586   3.320   6.027 -0.4655  0.5232 -0.7072
  230MOL0     C30954   1.664   3.196   6.087 -0.0778 -0.2914  1.1529
  230MOL0     C30955   1.582   3.073   6.070 -0.5143 -0.3874 -0.0494
  230MOL0     C30956   1.547   3.039   5.924  0.2804  0.4447 -0.1636
  230MOL0     C30957   1.665   2.995   5.829 -0.1164 -1.1385 -0.1838
  230MOL0     C30958   1.749   2.869   5.874  0.3385  0.9218 -1.0274
  230MOL0    Cl30959   1.651   2.736   5.924  0.0595 -0.4122  0.1559
  230MOL0     C30960   1.738   3.751   5.867 -0.8417  0.2038 -0.0558
  230MOL0     C30961   1.790   3.861   5.792 -1.0878 -0.2267 -0.2318
  230MOL0     O30962   1.648   4.190   5.687  0.0620  0.3924 -0.5033
  230MOL0     C30963   1.975   4.309   5.621 -0.1504 -0.2591 -1.6201
  230MOL0     C30964   2.036   4.412   5.554  0.5827 -0.2750  0.7745
  230MOL0     N30965   2.386   4.892   5.648  0.2781 -0.2317  0.3445
  230MOL0     N30966   2.423   4.929   5.762 -0.2143  0.2742  0.4744
  230MOL0     C30967   1.695   5.235   6.523 -0.4541  0.7507 -0.1927
  230MOL0     C30968   1.633   5.310   6.625 -0.8848 -0.4832  1.0350
  230MOL0     C30969   1.550   5.440   7.058 -0.9987 -0.4469  0.9576
  230MOL0     C30970   1.594   5.436   7.195  0.4744 -1.4206 -0.1360
  230MOL0     C30971   1.548   5.527   7.292 -0.1314 -0.2116  0.1410
  230MOL0     C30972   1.457   5.622   7.244  0.6102  0.1824 -0.0146
  230MOL0     O30973   1.385   5.695   7.331  0.2254  0.6442 -1.0145
  230MOL0     C30974   1.314   5.607   7.427 -1.0943 -0.4866  0.1313
  230MOL0     C30975   1.173   5.647   7.424  0.1679 -0.8488  0.5858
  230MOL0     C30976   1.148   5.784   7.475  0.9185  0.6759  0.6853
  230MOL0     C30977   1.187   5.825   7.620 -0.5501  0.0953  0.4502
  230MOL0     C30978   1.174   5.712   7.708 -0.1362 -0.1135  0.8172
  230MOL0     C30979   1.159   5.613   7.765  0.3747  0.2701 -1.3148
  230MOL0     C30980   1.419   5.639   7.110 -0.6734  0.5231  0.2898
  230MOL0     C30981   1.472   5.548   7.015  0.2315 -0.3275 -1.5353
  230MOL0     C30982   1.435   5.590   6.881  0.0089  0.3481  0.1960
  230MOL0     H30983   1.637   5.050   6.844 -0.8128 -1.1066  0.5334
  230MOL0     H30984   1.732   4.940   6.666 -0.6352 -0.4195 -1.7067
  230MOL0     H30985   1.768   4.853   6.473  1.9463 -0.5908 -2.2377
  230MOL0     H30986   1.642   4.909   6.364 -0.7928 -0.0266 -1.5322
  230MOL0     H30987   1.851   4.960   6.200  1.5760 -0.0801  1.5309
  230MOL0     H30988   1.819   4.788   6.224  1.6829 -1.4913  0.4643
  230MOL0     H30989   1.983   4.776   6.384 -2.6345 -1.8958 -2.4026
  230MOL0     H30990   2.006   4.954   6.408 -3.2877 -1.2594  1.8252
  230MOL0     H30991   2.191   4.861   6.291 -0.4533  3.5415  1.1997
  230MOL0     H30992   2.092   4.775   6.160 -3.6480 -1.6430  1.8167
  230MOL0     H30993   2.029   5.012   6.110 -0.6668 -0.9967  0.5700
  230MOL0     H30994   2.157   5.076   6.219 -0.5350  1.1673 -1.1233
  230MOL0     H30995   2.322   4.917   6.096  0.3141  0.4544  0.0049
  230MOL0     H30996   2.199   4.924   5.963  1.0112 -1.0496 -0.5783
  230MOL0     H30997   2.311   5.160   6.110 -1.2323  0.4949 -0.5432
  230MOL0     H30998   2.202   5.169   5.970 -1.4476  1.3572  1.2243
  230MOL0     H30999   2.428   5.221   5.900 -0.5044 -0.1171  1.3141
  230MOL0     H31000   2.484   5.062   5.970 -0.3492 -0.5674 -0.8149
  230MOL0     H31001   2.224   5.172   5.691 -0.8316 -0.5750 -0.5113
  230MOL0     H31002   2.093   5.005   5.509  1.3208  3.4207 -1.2726
  230MOL0     H31003   2.228   5.004   5.391  1.2378  1.5385  1.7302
  230MOL0     H31004   2.240   4.760   5.450 -0.6860 -0.7485 -0.1648
  230MOL0     H31005   2.091   4.776   5.532  2.4115 -3.3853 -0.6611
  230MOL0     H31006   2.121   4.814   5.229 -0.3864  0.4699 -0.9990
  230MOL0     H31007   1.994   4.897   5.313  1.4816  1.2996 -0.0360
  230MOL0     H31008   1.952   4.651   5.222  0.2668 -3.5988  0.5170
  230MOL0     H31009   1.884   4.693   5.379  0.3911 -1.0782  1.5917
  230MOL0     H31010   1.782   4.496   5.342 -0.3332 -2.8026 -2.7914
  230MOL0     H31011   1.670   4.360   5.502  0.6710  1.7925 -1.1661
  230MOL0     H31012   1.673   4.110   6.015 -5.5803  0.8306 -3.3286
  230MOL0     H31013   1.572   3.919   6.111 -0.2720 -1.8924  0.7315
  230MOL0     H31014   1.470   3.553   6.066 -0.4617 -1.7319 -1.8731
  230MOL0     H31015   1.570   3.567   5.916 -0.2694 -1.7141 -0.2083
  230MOL0     H31016   1.758   3.454   6.029 -0.9602  0.9647 -0.5882
  230MOL0     H31017   1.687   3.433   6.182 -1.2981  1.9909  0.8649
  230MOL0     H31018   1.482   3.329   6.061 -0.8443 -4.9264  0.4414
  230MOL0     H31019   1.597   3.315   5.919 -0.1040  0.7608 -0.6844
  230MOL0     H31020   1.698   3.208   6.191  2.9393  0.3302  0.1995
  230MOL0     H31021   1.753   3.196   6.024 -1.3910  0.8859 -0.8075
  230MOL0     H31022   1.491   3.086   6.128 -0.5290 -0.3211 -0.0867
  230MOL0     H31023   1.642   2.990   6.108  1.7561  0.4079 -1.6427
  230MOL0     H31024   1.466   2.966   5.929  1.8252 -1.3713 -0.0782
  230MOL0     H31025   1.500   3.121   5.871 -1.4523  0.3765  1.1739
  230MOL0     H31026   1.731   3.082   5.823 -2.4710  0.6494 -2.2540
  230MOL0     H31027   1.637   2.981   5.724  3.3807  0.0679 -1.4402
  230MOL0     H31028   1.804   2.845   5.783 -2.1855  5.0020 -4.0289
  230MOL0     H31029   1.818   2.891   5.956  0.1442 -3.5830  0.6118
  230MOL0     H31030   1.759   3.648   5.839 -0.1187  0.1612  0.6045
  230MOL0     H31031   1.851   3.827   5.708 -1.9909 -0.2997 -0.8679
  230MOL0     H31032   2.034   4.247   5.686  0.8332  0.6695 -1.5976
  230MOL0     H31033   2.143   4.430   5.565  1.0545 -3.0706  1.3507
  230MOL0     H31034   1.715   5.290   6.431 -0.0573  2.0420  0.6365
  230MOL0     H31035   1.582   5.404   6.605 -1.7206 -0.8167  1.5282
  230MOL0     H31036   1.673   5.363   7.213  2.7507  1.6167  3.6137
  230MOL0     H31037   1.596   5.522   7.390  2.0103  1.0638 -0.7666
  230MOL0     H31038   1.356   5.633   7.525 -0.4716  2.0921 -0.7424
  230MOL0     H31039   1.315   5.501   7.402 -2.9098 -0.5136  0.0750
  230MOL0     H31040   1.118   5.569   7.479 -0.3175 -0.8778  0.0749
  230MOL0     H31041   1.135   5.639   7.321 -1.4285 -1.7381  1.2005
  230MOL0     H31042   1.041   5.804   7.463  0.9933  1.5015  1.2489
  230MOL0     H31043   1.195   5.848   7.400  0.1146 -1.0744 -1.4195
  230MOL0     H31044   1.283   5.876   7.627  1.1251 -2.0617 -3.1600
  230MOL0     H31045   1.110   5.892   7.659 -1.4953 -0.5632 -0.2054
  230MOL0     H31046   1.160   5.524   7.825 -0.8765  2.4419  2.2349
  230MOL0     H31047   1.337   5.709   7.099 -0.0075  1.3905  0.6876
  230MOL0     H31048   1.338   5.550   6.850 -0.2141  1.3910 -0.5102
  230MOL0     H31049   1.425   5.698   6.873  2.4905  0.7558  1.5658
  230MOL0     H31050   1.487   5.538   6.800  0.8506 -1.0241  1.5492
  231MOL0     O31051   2.521   4.113  10.142 -0.0477 -0.6216 -0.6558
  231MOL0     C31052   2.466   4.093  10.248  0.5306 -0.1544 -0.5712
  231MOL0     O31053   2.442   4.187  10.347  0.7247  0.5336  0.6858
  231MOL0     C31054   2.470   4.323  10.344  1.2997  0.1254 -0.0561
  231MOL0     C31055   2.572   4.375  10.262  0.1829 -1.2542 -0.4649
  231MOL0     C31056   2.590   4.515  10.255 -0.1141  0.0901 -0.6153
  231MOL0     C31057   2.510   4.598  10.334 -1.0644 -0.8182 -0.4370
  231MOL0     O31058   2.541   4.730  10.308  0.1615  0.1054 -0.7394
  231MOL0     C31059   2.440   4.835  10.329  1.0887 -0.3515  0.0310
  231MOL0     C31060   2.480   4.984  10.287  0.0867 -0.0335 -0.4584
  231MOL0     C31061   2.391   5.099  10.344  0.5892  0.0292  0.3277
  231MOL0     C31062   2.246   5.078  10.302 -0.2149 -0.2019 -0.2237
  231MOL0     C31063   2.175   5.207  10.306  0.2365  0.2755  0.4212
  231MOL0     C31064   2.147   5.270  10.447 -0.0658  0.3566 -0.6465
  231MOL0     C31065   2.093   5.178  10.562 -0.1283  0.1659 -0.4971
  231MOL0     C31066   1.975   5.099  10.527  0.3642 -0.4332 -0.3846
  231MOL0     N31067   1.877   5.075  10.640 -1.0615 -0.4050 -0.0137
  231MOL0     C31068   1.789   5.160  10.687 -0.0981 -0.6344  1.3286
  231MOL0     C31069   1.700   5.080  10.756 -0.1049 -0.0402 -0.2039
  231MOL0     C31070   1.593   5.132  10.850 -0.2573 -0.0214 -0.0846
  231MOL0     C31071   1.583   5.054  10.984  0.3327  0.4286  0.8523
  231MOL0     C31072   1.538   4.902  10.955 -0.9538  0.7158 -0.2140
  231MOL0     C31073   1.456   4.844  11.063  1.2157  0.7743  0.1327
  231MOL0     O31074   1.325   4.908  11.082  0.3931 -0.4656 -0.1328
  231MOL0     C31075   1.242   4.869  11.177  0.5899 -0.9517 -0.6684
  231MOL0     C31076   1.276   4.800  11.300 -0.7160 -0.5130  0.1931
  231MOL0     C31077   1.179   4.761  11.393 -0.0229 -0.5849 -0.0228
  231MOL0     C31078   1.040   4.759  11.364  0.9361  0.6547  0.6946
  231MOL0     C31079   0.936   4.703  11.442  0.6926 -0.3174  0.2739
  231MOL0     O31080   0.968   4.652  11.565 -0.7611  0.2907 -0.1568
  231MOL0     C31081   0.867   4.608  11.649  0.0028 -1.1338 -0.5258
  231MOL0     C31082   0.766   4.516  11.617  0.3314  0.5456  0.2604
  231MOL0     C31083   0.664   4.476  11.708 -0.4116  0.0227  0.2909
  231MOL0     C31084   0.658   4.541  11.832 -0.5444 -0.1078 -0.3671
  231MOL0     O31085   0.563   4.504  11.916  0.2851  0.0240  0.5185
  231MOL0     C31086   0.596   4.397  11.993  0.9080 -0.5829  0.2849
  231MOL0     C31087   0.500   4.378  12.115 -0.5374  0.6677  0.0847
  231MOL0     C31088   0.503   4.481  12.228 -0.8990 -0.2970 -0.0574
  231MOL0     C31089   0.591   4.447  12.345 -0.6717  0.1855 -0.8138
  231MOL0     C31090   0.587   4.566  12.450 -0.0751  0.1567 -0.3034
  231MOL0     C31091   0.677   4.572  12.570  0.6788  0.9834  0.4681
  231MOL0     C31092   0.706   4.706  12.624 -0.0912 -0.3821 -0.0546
  231MOL0     C31093   0.593   4.803  12.639 -0.0368  0.0980 -0.7569
  231MOL0    Cl31094   0.454   4.773  12.756 -0.3893  0.3910 -0.1537
  231MOL0     C31095   0.758   4.627  11.868  0.0708  0.0416 -0.4493
  231MOL0     C31096   0.863   4.657  11.778 -0.1440 -0.5039 -0.0500
  231MOL0     O31097   0.823   4.709  11.396 -0.9089 -0.3783 -0.6453
  231MOL0     C31098   1.011   4.815  11.234  0.9453 -0.2754 -0.6534
  231MOL0     C31099   1.106   4.876  11.146 -0.4643 -0.1725  0.4880
  231MOL0     N31100   1.740   4.950  10.749 -0.2026 -0.1873 -0.0718
  231MOL0     N31101   1.829   4.952  10.664 -0.8327 -0.1980 -0.8661
  231MOL0     C31102   2.422   4.544  10.423 -0.1126  0.1431  0.8628
  231MOL0     C31103   2.394   4.405  10.430 -0.2555 -0.8026 -0.3005
  231MOL0     C31104   2.458   3.946  10.293  0.0244 -0.6169 -0.1583
  231MOL0     C31105   2.420   3.926  10.425  0.4563  0.1741  0.4035
  231MOL0     C31106   2.395   3.795  10.468  0.4256 -0.1910 -0.1323
  231MOL0     C31107   2.423   3.685  10.398 -0.2183  0.4409 -0.5302
  231MOL0     O31108   2.370   3.564  10.449 -0.7356 -0.0695 -0.2134
  231MOL0     C31109   2.360   3.446  10.371 -1.0452 -0.0823  0.7499
  231MOL0     C31110   2.416   3.320  10.423 -0.1423  0.7956  0.2411
  231MOL0     C31111   2.570   3.324  10.437 -1.8791 -0.0109  0.0221
  231MOL0     C31112   2.627   3.174  10.455  0.3577 -0.4962  0.3765
  231MOL0     C31113   2.739   3.184  10.548 -0.4111  0.1091 -1.2016
  231MOL0     C31114   2.821   3.180  10.638 -0.2337 -0.7951 -0.7903
  231MOL0     C31115   2.476   3.705  10.271 -0.0898  0.4930  0.2892
  231MOL0     C31116   2.494   3.835  10.212 -0.8132 -0.0417 -0.0913
  231MOL0     C31117   2.568   3.843  10.082 -0.6309  0.1622 -0.0806
  231MOL0     H31118   2.633   4.313  10.197 -0.2605  0.0619 -2.2219
  231MOL0     H31119   2.666   4.563  10.195  1.3277 -0.9320  0.3202
  231MOL0     H31120   2.343   4.810  10.285  2.5511 -4.6453 -1.2686
  231MOL0     H31121   2.418   4.838  10.436 -0.2136 -0.0148 -0.2248
  231MOL0     H31122   2.467   4.984  10.179 -0.6106 -2.8658 -0.4548
  231MOL0     H31123   2.589   4.991  10.301  0.0024  2.5009 -0.6139
  231MOL0     H31124   2.428   5.196  10.311 -0.6263  0.0899 -0.9680
  231MOL0     H31125   2.400   5.115  10.452  2.2573  1.4118  0.0132
  231MOL0     H31126   2.254   5.050  10.196  1.9094 -2.4461  0.4492
  231MOL0     H31127   2.186   5.001  10.350 -0.0894 -0.0241  0.2220
  231MOL0     H31128   2.225   5.280  10.242  4.9666  0.9617  4.2987
  231MOL0     H31129   2.071   5.190  10.277 -0.1071 -1.8286  2.6098
  231MOL0     H31130   2.242   5.314  10.479 -0.5304  0.7725  0.1902
  231MOL0     H31131   2.078   5.355  10.440 -0.2377  0.1598 -1.5182
  231MOL0     H31132   2.068   5.239  10.650 -2.8469  0.3537 -1.3256
  231MOL0     H31133   2.156   5.098  10.602 -1.6246 -1.1300 -0.6545
  231MOL0     H31134   1.922   5.158  10.451 -1.4605 -1.2119  0.2298
  231MOL0     H31135   1.988   5.000  10.481 -1.9779 -0.3857 -1.3099
  231MOL0     H31136   1.791   5.269  10.688  0.6650 -0.6454  1.6096
  231MOL0     H31137   1.604   5.241  10.858 -0.2285  0.0662 -1.2382
  231MOL0     H31138   1.498   5.133  10.797  0.4107  1.4701 -1.3394
  231MOL0     H31139   1.677   5.047  11.039  1.4845 -1.2409 -1.1553
  231MOL0     H31140   1.503   5.111  11.033 -0.5954  1.9295 -2.1096
  231MOL0     H31141   1.621   4.832  10.940 -2.6507 -1.6457  0.8663
  231MOL0     H31142   1.484   4.883  10.862 -0.7098  1.2341 -0.4649
  231MOL0     H31143   1.510   4.853  11.158  2.4434  5.2119 -0.7508
  231MOL0     H31144   1.448   4.738  11.039  1.0740  1.2965 -2.4728
  231MOL0     H31145   1.380   4.786  11.328 -0.4058 -1.4416 -1.3050
  231MOL0     H31146   1.220   4.720  11.484  0.2334 -1.4426 -0.5067
  231MOL0     H31147   0.758   4.476  11.516 -1.0308  3.3687 -0.8864
  231MOL0     H31148   0.590   4.398  11.690  0.2592 -0.5531  0.0007
  231MOL0     H31149   0.592   4.312  11.924 -0.6069 -0.2358 -0.0976
  231MOL0     H31150   0.699   4.402  12.027  1.0861 -0.8862 -0.2076
  231MOL0     H31151   0.397   4.381  12.079 -0.8332  0.4725  0.9019
  231MOL0     H31152   0.518   4.277  12.152 -0.4511  0.4092 -0.6541
  231MOL0     H31153   0.544   4.575  12.192  4.5473 -2.1491  0.3875
  231MOL0     H31154   0.405   4.494  12.274  0.4478  1.3304  2.5378
  231MOL0     H31155   0.693   4.434  12.308 -1.7861 -1.1801 -3.7797
  231MOL0     H31156   0.546   4.357  12.388 -0.4753  2.7321  5.8290
  231MOL0     H31157   0.485   4.576  12.486 -0.8691  0.3246 -2.4397
  231MOL0     H31158   0.610   4.654  12.389  0.6497  0.9919  1.1195
  231MOL0     H31159   0.628   4.508  12.644  1.3469 -1.2329 -0.8782
  231MOL0     H31160   0.773   4.520  12.558 -0.5563 -1.1239 -1.1283
  231MOL0     H31161   0.781   4.759  12.566 -1.7142  1.8222 -0.2957
  231MOL0     H31162   0.740   4.684  12.725 -2.5667 -1.4714  0.6205
  231MOL0     H31163   0.647   4.894  12.668  3.0914 -1.5330 -1.0331
  231MOL0     H31164   0.547   4.828  12.543  0.0221  1.4221 -0.4684
  231MOL0     H31165   0.758   4.672  11.967 -1.4440 -1.8772  0.4906
  231MOL0     H31166   0.939   4.728  11.809 -0.8036 -1.1573  3.4730
  231MOL0     H31167   0.909   4.835  11.202  1.2859  2.2882 -0.3309
  231MOL0     H31168   1.070   4.927  11.058 -2.7822 -0.2418  1.3204
  231MOL0     H31169   2.363   4.603  10.492 -1.5583 -0.1273 -0.0849
  231MOL0     H31170   2.318   4.368  10.499 -0.2539 -2.6442 -1.2339
  231MOL0     H31171   2.395   3.998  10.502 -0.5034 -0.9866  1.2126
  231MOL0     H31172   2.329   3.791  10.554  3.7432 -2.4036  2.5493
  231MOL0     H31173   2.394   3.456  10.267 -2.4617 -2.0415  0.0318
  231MOL0     H31174   2.254   3.418  10.377 -0.1824 -4.1127  0.3741
  231MOL0     H31175   2.373   3.236  10.367 -0.1979 -0.5441  2.2036
  231MOL0     H31176   2.366   3.308  10.520 -0.6990 -1.1068 -0.2277
  231MOL0     H31177   2.598   3.383  10.525  1.7708 -0.5282 -0.6301
  231MOL0     H31178   2.610   3.364  10.344  0.8768  0.4168  1.2987
  231MOL0     H31179   2.551   3.109  10.499 -1.4205  1.1846 -0.0354
  231MOL0     H31180   2.656   3.134  10.357 -3.9891  1.9643 -2.2531
  231MOL0     H31181   2.908   3.181  10.701 -2.6140  2.4484  2.8516
  231MOL0     H31182   2.514   3.625  10.209  0.8059  1.1768 -0.0724
  231MOL0     H31183   2.655   3.906  10.098 -1.2488  0.8220  0.8380
  231MOL0     H31184   2.608   3.744  10.059 -0.6315  0.4361 -1.3309
  231MOL0     H31185   2.496   3.873  10.005 -1.2391 -1.4310 -0.1613
  232MOL0     O31186   1.208   6.036   2.328 -0.0998  0.0233 -1.0464
  232MOL0     C31187   1.130   6.128   2.354 -0.6847  0.9917  0.6729
  232MOL0     O31188   0.995   6.119   2.353 -0.7375 -0.0987  0.5686
  232MOL0     C31189   0.939   5.997   2.347  0.2412  0.3528 -0.2875
  232MOL0     C31190   0.932   5.922   2.223 -0.3463 -0.8129  0.2973
  232MOL0     C31191   0.871   5.798   2.209 -0.3782  0.3291  0.1406
  232MOL0     C31192   0.788   5.753   2.312  0.9048 -0.3382 -1.9419
  232MOL0     O31193   0.689   5.662   2.311 -1.0182  0.3852  0.4871
  232MOL0     C31194   0.710   5.548   2.220 -0.8106 -0.6143  0.4223
  232MOL0     C31195   0.649   5.566   2.081 -0.1325  0.4082  0.3624
  232MOL0     C31196   0.505   5.608   2.079  0.8965  0.4946 -0.8963
  232MOL0     C31197   0.419   5.515   2.153 -0.2965 -0.3697  0.0198
  232MOL0     C31198   0.271   5.545   2.150  0.7372  0.2540 -0.4581
  232MOL0     C31199   0.192   5.531   2.019 -0.2097  0.1572  0.0882
  232MOL0     C31200   0.045   5.573   2.022  1.0479  0.5244  0.1739
  232MOL0     C31201   0.044   5.726   2.021 -0.5915 -0.9941  0.1275
  232MOL0     N31202   0.132   5.795   1.924  0.7093  0.2892 -0.3623
  232MOL0     C31203   0.234   5.881   1.950  0.9283  0.0469  0.6835
  232MOL0     C31204   0.261   5.918   1.820 -0.8335  0.3299 -0.0291
  232MOL0     C31205   0.375   6.011   1.783 -0.2593 -0.2611 -0.5960
  232MOL0     C31206   0.315   6.137   1.731 -0.7894 -0.6840 -0.3595
  232MOL0     C31207   0.267   6.235   1.850  0.8735  0.0706  0.2656
  232MOL0     C31208   0.230   6.376   1.794  0.5793 -0.0865  0.6691
  232MOL0     O31209   0.114   6.419   1.864 -1.0793  0.0943  0.2373
  232MOL0     C31210   0.025   6.492   1.788  0.5006  0.3599 -0.5597
  232MOL0     C31211   0.030   6.624   1.775  0.0194 -0.3023 -0.1225
  232MOL0     C31212  -0.060   6.694   1.694 -0.0716  0.1193  0.5135
  232MOL0     C31213  -0.177   6.627   1.655 -1.5484  1.6951  0.7103
  232MOL0     C31214  -0.275   6.705   1.587  0.3815  0.5201 -0.0916
  232MOL0     O31215  -0.375   6.639   1.524 -0.8046 -0.1309  0.3814
  232MOL0     C31216  -0.476   6.710   1.478  0.1756  0.2235 -0.8446
  232MOL0     C31217  -0.579   6.734   1.566  0.2933  0.0352  0.3794
  232MOL0     C31218  -0.681   6.827   1.531  1.7143  0.1290  0.3681
  232MOL0     C31219  -0.678   6.897   1.416 -0.1344 -0.5708 -0.1874
  232MOL0     O31220  -0.781   6.992   1.400  0.3276  0.4672  0.0621
  232MOL0     C31221  -0.814   7.019   1.266 -0.4917  0.0665  0.5332
  232MOL0     C31222  -0.880   6.887   1.201 -0.1595 -0.4955 -0.1458
  232MOL0     C31223  -0.859   6.907   1.045  0.1124 -0.0781 -0.9086
  232MOL0     C31224  -0.915   6.784   0.961  0.0648  0.1360 -0.0729
  232MOL0     C31225  -0.917   6.797   0.806 -0.1005 -0.2907  0.0310
  232MOL0     C31226  -0.911   6.669   0.719  0.7914 -0.4913  0.0074
  232MOL0     C31227  -0.769   6.604   0.736 -0.3661 -0.1062  0.2413
  232MOL0     C31228  -0.748   6.473   0.651  0.3184 -0.3577  1.0697
  232MOL0    Cl31229  -0.865   6.356   0.714 -0.3760  0.0607  0.2816
  232MOL0     C31230  -0.571   6.877   1.328 -0.1847  0.8211  0.4433
  232MOL0     C31231  -0.469   6.784   1.357 -0.0695 -0.6841  0.7516
  232MOL0     O31232  -0.261   6.822   1.592 -0.4928 -0.7944  0.0839
  232MOL0     C31233  -0.184   6.489   1.674 -0.6463 -0.0548  1.3601
  232MOL0     C31234  -0.075   6.418   1.736  0.3156 -0.3437  0.0371
  232MOL0     N31235   0.173   5.859   1.727  0.2258 -0.3964 -0.5190
  232MOL0     N31236   0.104   5.778   1.796  0.2973  0.0991  0.4575
  232MOL0     C31237   0.789   5.824   2.435  0.3180  0.6818 -0.2119
  232MOL0     C31238   0.862   5.938   2.453 -0.0618  0.2126 -0.0927
  232MOL0     C31239   1.187   6.260   2.403  0.4123 -0.0278 -0.2174
  232MOL0     C31240   1.108   6.345   2.478 -0.5335 -0.3535  0.3754
  232MOL0     C31241   1.161   6.459   2.546  0.5717  0.5372 -0.0353
  232MOL0     C31242   1.297   6.492   2.531  0.0428 -0.4925 -0.3013
  232MOL0     O31243   1.371   6.590   2.584 -0.7328 -0.5833  0.0020
  232MOL0     C31244   1.301   6.701   2.641 -0.3041  0.2467 -0.4284
  232MOL0     C31245   1.395   6.789   2.716  0.3083 -1.1123  0.1070
  232MOL0     C31246   1.457   6.707   2.841 -1.5117 -0.4856  1.0647
  232MOL0     C31247   1.545   6.797   2.916  0.4103  0.0589 -0.3952
  232MOL0     C31248   1.485   6.906   2.994  0.0557  0.2173 -0.8839
  232MOL0     C31249   1.433   7.004   3.052 -0.4141 -0.7094 -0.9268
  232MOL0     C31250   1.376   6.411   2.449  0.1468  0.6295  0.4530
  232MOL0     C31251   1.324   6.293   2.394 -0.5244  1.0366  0.0226
  232MOL0     C31252   1.425   6.223   2.319 -0.6416 -0.4614  0.7960
  232MOL0     H31253   0.989   5.982   2.152 -4.4462  0.2764 -2.4359
  232MOL0     H31254   0.863   5.749   2.112  0.5009  1.1948 -0.3865
  232MOL0     H31255   0.815   5.521   2.225 -0.4589  0.8842  2.3677
  232MOL0     H31256   0.668   5.464   2.277 -0.2602  0.0156  1.7954
  232MOL0     H31257   0.666   5.468   2.035 -1.0557  0.0857  0.6899
  232MOL0     H31258   0.698   5.641   2.018  0.5847 -1.4437 -1.4283
  232MOL0     H31259   0.465   5.616   1.977 -0.5464 -3.9698 -0.8793
  232MOL0     H31260   0.492   5.710   2.117  2.7391  0.2069  0.6649
  232MOL0     H31261   0.425   5.409   2.125 -1.2287 -0.4799  0.1850
  232MOL0     H31262   0.463   5.519   2.253  0.8606  2.1355 -0.5254
  232MOL0     H31263   0.217   5.483   2.222 -2.0699  1.4499 -1.4150
  232MOL0     H31264   0.265   5.648   2.186  2.6045  0.5790 -0.9399
  232MOL0     H31265   0.239   5.595   1.944 -1.9933  0.3042 -0.9802
  232MOL0     H31266   0.210   5.432   1.977  1.6745  0.1694  0.7720
  232MOL0     H31267  -0.016   5.545   2.108  1.2784 -0.9453 -0.1131
  232MOL0     H31268  -0.007   5.539   1.932  2.3432 -2.7439  0.5498
  232MOL0     H31269  -0.057   5.761   1.998 -0.5313 -2.0871 -2.0302
  232MOL0     H31270   0.068   5.764   2.121  2.4720  2.5068 -1.7038
  232MOL0     H31271   0.277   5.917   2.043  1.3943 -3.2213  1.8509
  232MOL0     H31272   0.438   6.021   1.872  0.3305  3.2070 -1.2512
  232MOL0     H31273   0.434   5.962   1.705 -0.3694 -4.2688  1.5671
  232MOL0     H31274   0.391   6.190   1.673 -0.0724  0.5600  1.5989
  232MOL0     H31275   0.232   6.120   1.662 -0.8179 -5.4348  0.5121
  232MOL0     H31276   0.345   6.239   1.927  2.7416 -1.0535 -1.4818
  232MOL0     H31277   0.174   6.190   1.887 -1.0471  3.1716 -0.4618
  232MOL0     H31278   0.219   6.387   1.685 -0.0885 -2.1503  0.4906
  232MOL0     H31279   0.301   6.451   1.829 -1.3547  0.7443  3.1244
  232MOL0     H31280   0.114   6.676   1.820  2.0731 -1.0850 -2.7480
  232MOL0     H31281  -0.048   6.801   1.677 -0.6947 -0.1006 -1.6839
  232MOL0     H31282  -0.566   6.683   1.661 -0.6810 -2.9571 -0.9436
  232MOL0     H31283  -0.756   6.844   1.607  2.3269 -0.1446  1.0429
  232MOL0     H31284  -0.889   7.099   1.260 -0.6761 -0.2210 -1.5616
  232MOL0     H31285  -0.726   7.052   1.211 -1.6310  0.8503 -0.8849
  232MOL0     H31286  -0.845   6.792   1.244 -0.4596 -1.4352 -1.8547
  232MOL0     H31287  -0.986   6.882   1.225 -0.2893 -1.7694 -0.8576
  232MOL0     H31288  -0.914   7.000   1.026  1.2033  1.2124  1.7624
  232MOL0     H31289  -0.756   6.931   1.018 -0.0884  0.2640 -1.3860
  232MOL0     H31290  -1.013   6.759   1.003  1.4623 -1.6997  2.3344
  232MOL0     H31291  -0.853   6.698   0.988  1.1882  1.5893  2.3210
  232MOL0     H31292  -0.836   6.865   0.778 -1.8580  1.9051  0.0020
  232MOL0     H31293  -1.011   6.847   0.782  0.5145  0.3284 -1.2299
  232MOL0     H31294  -0.993   6.607   0.757 -1.4834  2.5301  0.4250
  232MOL0     H31295  -0.936   6.702   0.618  0.7529  1.6651  0.6561
  232MOL0     H31296  -0.738   6.596   0.840 -0.9790  0.1505  0.4502
  232MOL0     H31297  -0.702   6.675   0.686 -0.8892  0.2854  0.0814
  232MOL0     H31298  -0.773   6.490   0.546  1.4461 -1.7210  0.5579
  232MOL0     H31299  -0.643   6.446   0.665  0.0653 -1.3211  1.1318
  232MOL0     H31300  -0.548   6.930   1.236 -1.8688  2.0202  0.6642
  232MOL0     H31301  -0.383   6.773   1.292 -1.3352 -0.4953 -1.0218
  232MOL0     H31302  -0.270   6.428   1.652 -0.1539 -0.3670  0.2365
  232MOL0     H31303  -0.070   6.310   1.737  0.1008 -0.3733  1.7807
  232MOL0     H31304   0.712   5.788   2.502 -2.1178  2.5877 -1.8157
  232MOL0     H31305   0.852   5.987   2.550 -0.3668  0.7606 -0.3919
  232MOL0     H31306   1.013   6.302   2.510 -0.8114 -0.6694 -0.8179
  232MOL0     H31307   1.092   6.515   2.608  0.9197 -0.4587  1.2919
  232MOL0     H31308   1.218   6.664   2.703 -0.4426  2.3678  0.7421
  232MOL0     H31309   1.252   6.745   2.554  0.9893  0.1725 -1.2168
  232MOL0     H31310   1.343   6.881   2.744 -0.0675 -1.1277 -0.5257
  232MOL0     H31311   1.481   6.820   2.657  1.3530 -1.6698  1.2925
  232MOL0     H31312   1.511   6.620   2.801 -0.7461  0.5466 -0.2447
  232MOL0     H31313   1.382   6.659   2.904 -4.0766  1.3446 -0.3668
  232MOL0     H31314   1.604   6.738   2.987  0.0551 -0.6812 -0.7033
  232MOL0     H31315   1.622   6.845   2.856  1.6294  0.2814  1.2724
  232MOL0     H31316   1.404   7.099   3.093 -1.7835 -2.1476  1.6504
  232MOL0     H31317   1.477   6.441   2.423 -0.1617  1.0578 -0.2814
  232MOL0     H31318   1.401   6.239   2.214 -0.3987 -0.1304  0.7911
  232MOL0     H31319   1.526   6.265   2.332  0.2800 -2.5306  0.8125
  232MOL0     H31320   1.444   6.118   2.343  2.2675 -0.7955 -2.2119
  233MOL0     O31321   8.697   7.658   7.363  0.4431  0.8311  0.6450
  233MOL0     C31322   8.577   7.630   7.336 -0.5443  0.3140 -0.2259
  233MOL0     O31323   8.538   7.538   7.247  0.5104  0.2391 -0.6397
  233MOL0     C31324   8.631   7.451   7.191 -0.8526 -0.6815  0.1460
  233MOL0     C31325   8.667   7.491   7.059 -0.4816  0.8315 -0.4727
  233MOL0     C31326   8.761   7.411   6.990  0.1944  0.8630 -0.2280
  233MOL0     C31327   8.835   7.311   7.063  0.3024  0.4124 -0.0506
  233MOL0     O31328   8.936   7.246   6.998 -0.4183  0.0396 -0.1677
  233MOL0     C31329   9.035   7.171   7.078  1.4148 -0.0306  0.0742
  233MOL0     C31330   9.155   7.137   6.983  0.1862  0.6677  0.2203
  233MOL0     C31331   9.168   6.991   6.946  0.4544  0.9179  0.2985
  233MOL0     C31332   9.201   6.899   7.066 -0.7821  0.3125  0.0158
  233MOL0     C31333   9.305   6.787   7.027 -0.2288 -0.1656  0.2282
  233MOL0     C31334   9.333   6.708   7.158 -0.3626 -0.4753 -0.5474
  233MOL0     C31335   9.437   6.591   7.154 -0.4858 -0.4078  0.1369
  233MOL0     C31336   9.380   6.472   7.087 -1.2893 -0.0827  0.6856
  233MOL0     N31337   9.490   6.382   7.069 -0.5767 -0.4139 -0.3065
  233MOL0     C31338   9.514   6.271   7.140 -0.8637  0.4695 -0.2780
  233MOL0     C31339   9.622   6.213   7.079 -0.1002 -0.2970  0.1921
  233MOL0     C31340   9.703   6.091   7.135 -0.1571 -0.2727  0.1843
  233MOL0     C31341   9.632   5.953   7.116 -0.7563  0.4755 -0.2089
  233MOL0     C31342   9.668   5.890   6.981  0.2215 -0.9867  0.0412
  233MOL0     C31343   9.808   5.889   6.929 -0.6474  0.0729  1.0225
  233MOL0     O31344   9.913   5.813   6.997  0.3593  0.3697 -0.1604
  233MOL0     C31345  10.039   5.813   6.952 -0.5177 -0.1700  0.4115
  233MOL0     C31346  10.135   5.835   7.052  0.3820 -0.2446 -0.2124
  233MOL0     C31347  10.266   5.873   7.014  0.3664 -0.3333 -0.5793
  233MOL0     C31348  10.306   5.869   6.879  0.2475  0.6397  1.1144
  233MOL0     C31349  10.439   5.920   6.835 -0.5436 -0.2803  0.9324
  233MOL0     O31350  10.503   5.985   6.932 -0.1808  0.1535  0.3011
  233MOL0     C31351  10.622   6.036   6.905  0.4061 -0.8194  0.6766
  233MOL0     C31352  10.725   5.952   6.850 -0.2283 -0.8108  1.0159
  233MOL0     C31353  10.838   6.017   6.814  0.9567  0.8433 -0.9971
  233MOL0     C31354  10.861   6.157   6.838 -0.7867 -0.0557  0.8029
  233MOL0     O31355  10.987   6.216   6.816 -0.6171  0.1764 -0.0456
  233MOL0     C31356  11.096   6.135   6.758 -0.4293 -0.5799  0.4283
  233MOL0     C31357  11.212   6.215   6.700  0.1965 -0.4389 -0.0344
  233MOL0     C31358  11.311   6.111   6.638 -0.1412 -0.8011 -0.4520
  233MOL0     C31359  11.451   6.178   6.605  0.0307  0.3587  0.6406
  233MOL0     C31360  11.564   6.080   6.570  0.5237  0.0946 -0.1443
  233MOL0     C31361  11.550   6.037   6.424  0.1887  1.0793 -1.3943
  233MOL0     C31362  11.677   5.968   6.359 -0.6140  0.4611 -0.5843
  233MOL0     C31363  11.656   5.926   6.216  0.3588  0.2781 -0.0795
  233MOL0    Cl31364  11.810   5.935   6.133  0.4460  0.0812  0.1595
  233MOL0     C31365  10.761   6.232   6.901 -0.0142  0.3253  0.5555
  233MOL0     C31366  10.642   6.170   6.937  0.2847  0.2164  1.1247
  233MOL0     O31367  10.473   5.906   6.711 -0.6142  0.9464  0.4541
  233MOL0     C31368  10.211   5.818   6.783  0.3619 -0.0988  0.5650
  233MOL0     C31369  10.078   5.783   6.816 -0.2401  0.0968 -0.5985
  233MOL0     N31370   9.654   6.281   6.965  0.3465  0.2649 -0.3205
  233MOL0     N31371   9.562   6.375   6.953 -0.0867 -0.5134 -0.3082
  233MOL0     C31372   8.808   7.281   7.199 -0.5316  0.1228 -1.1513
  233MOL0     C31373   8.699   7.348   7.260 -0.6677  0.2268  0.8695
  233MOL0     C31374   8.473   7.707   7.409 -2.1160 -0.0511  0.1529
  233MOL0     C31375   8.366   7.745   7.333  0.5871  0.2104 -0.3201
  233MOL0     C31376   8.269   7.832   7.390 -1.0595 -0.3217 -0.2869
  233MOL0     C31377   8.279   7.869   7.527  0.1703  0.0598  0.5403
  233MOL0     O31378   8.179   7.950   7.577 -0.4096 -0.1212  0.0579
  233MOL0     C31379   8.100   7.892   7.683  0.1130  0.3439  0.8271
  233MOL0     C31380   8.044   7.998   7.781  0.2796 -0.1508 -0.6497
  233MOL0     C31381   8.151   8.097   7.841 -0.8428  0.1158  0.3072
  233MOL0     C31382   8.203   8.059   7.981  0.3563  0.1884 -0.5473
  233MOL0     C31383   8.308   7.957   7.985 -1.5746  0.1082 -0.3115
  233MOL0     C31384   8.392   7.871   7.988  0.3768 -0.9984  0.0680
  233MOL0     C31385   8.392   7.841   7.598  0.0687  0.2141  0.3001
  233MOL0     C31386   8.488   7.755   7.548 -0.5318  0.8445  0.2017
  233MOL0     C31387   8.622   7.765   7.621 -0.4252 -0.3895 -0.3643
  233MOL0     H31388   8.628   7.577   7.004  1.1279  0.7714 -1.7766
  233MOL0     H31389   8.803   7.409   6.890 -1.6724  0.3348 -1.0380
  233MOL0     H31390   9.060   7.224   7.170  3.6713 -2.7380  1.1828
  233MOL0     H31391   8.987   7.076   7.100 -1.2820  1.2306  0.0065
  233MOL0     H31392   9.240   7.173   7.040  0.9850 -0.4996 -0.1818
  233MOL0     H31393   9.167   7.201   6.895  3.8012 -0.5229 -0.3341
  233MOL0     H31394   9.246   6.975   6.871  0.9239 -0.6763  1.0732
  233MOL0     H31395   9.074   6.955   6.904  0.8175 -4.3703  3.1586
  233MOL0     H31396   9.248   6.964   7.141 -0.9045  0.9748 -0.4766
  233MOL0     H31397   9.113   6.855   7.113 -0.6259  0.3360  0.3368
  233MOL0     H31398   9.268   6.712   6.957  1.1301 -0.1765 -0.5066
  233MOL0     H31399   9.390   6.836   6.979 -1.9212  0.3530 -2.4645
  233MOL0     H31400   9.372   6.779   7.231 -0.3824 -1.0221 -0.0023
  233MOL0     H31401   9.237   6.681   7.203  0.2283  0.6019  1.4741
  233MOL0     H31402   9.471   6.560   7.253 -2.1853 -2.4200  0.1553
  233MOL0     H31403   9.531   6.620   7.107  0.1006 -3.9548 -1.1828
  233MOL0     H31404   9.305   6.420   7.148 -1.9392 -1.5576 -1.2656
  233MOL0     H31405   9.325   6.495   6.995 -2.5785  2.0597  1.8792
  233MOL0     H31406   9.476   6.251   7.240  0.1757  4.1784  1.0185
  233MOL0     H31407   9.807   6.089   7.101  0.3787 -1.1787  1.7837
  233MOL0     H31408   9.721   6.101   7.242 -3.7180  0.5172  0.8410
  233MOL0     H31409   9.662   5.876   7.189  3.1179 -1.0431 -3.0392
  233MOL0     H31410   9.524   5.959   7.130 -0.6294  1.3211  0.5155
  233MOL0     H31411   9.605   5.944   6.910  1.0381 -0.0904 -0.0226
  233MOL0     H31412   9.626   5.789   6.983  0.2938 -1.0399  2.4001
  233MOL0     H31413   9.844   5.991   6.914  2.0460 -0.7683  1.1823
  233MOL0     H31414   9.793   5.844   6.830 -2.6645  0.6093  1.0367
  233MOL0     H31415  10.110   5.826   7.158  1.4600 -0.1721  0.0569
  233MOL0     H31416  10.319   5.896   7.106 -0.9660  0.2699  0.0772
  233MOL0     H31417  10.717   5.850   6.815 -0.7571 -1.0694  1.8562
  233MOL0     H31418  10.917   5.958   6.768  2.0070  0.3640  1.2582
  233MOL0     H31419  11.140   6.065   6.830 -1.6606 -1.6566  0.1740
  233MOL0     H31420  11.055   6.080   6.674 -0.7837  1.9071 -1.1348
  233MOL0     H31421  11.162   6.288   6.635 -2.4816  1.4013  3.7331
  233MOL0     H31422  11.248   6.263   6.791 -1.9403 -0.9963  1.1836
  233MOL0     H31423  11.353   6.042   6.712  3.4697  0.9397 -0.6668
  233MOL0     H31424  11.274   6.060   6.548 -2.4315  1.4017 -0.8787
  233MOL0     H31425  11.484   6.232   6.695 -0.5700  1.5772  0.1493
  233MOL0     H31426  11.434   6.258   6.533  1.4078  2.4286  2.4722
  233MOL0     H31427  11.572   5.996   6.640 -0.4888 -0.0615 -0.1940
  233MOL0     H31428  11.656   6.137   6.583  0.8723 -0.5418  0.2322
  233MOL0     H31429  11.477   5.957   6.438  1.2607  0.7289  4.0612
  233MOL0     H31430  11.515   6.116   6.356  0.2345  0.9418 -1.5795
  233MOL0     H31431  11.724   5.889   6.418  2.6347  2.8493  0.3487
  233MOL0     H31432  11.764   6.033   6.372 -0.8239  0.4669  0.9463
  233MOL0     H31433  11.622   5.822   6.214 -2.5424  1.0913  1.4066
  233MOL0     H31434  11.591   5.998   6.165  0.0161  0.5202  0.6897
  233MOL0     H31435  10.766   6.336   6.934 -1.2731  0.2660  0.9785
  233MOL0     H31436  10.572   6.235   6.988  1.4487  0.6097  2.2809
  233MOL0     H31437  10.245   5.811   6.680  2.6534  1.8970  1.0688
  233MOL0     H31438   9.996   5.757   6.750 -0.7323 -1.7521  0.6517
  233MOL0     H31439   8.848   7.191   7.245 -0.4243  0.8166  0.1380
  233MOL0     H31440   8.663   7.342   7.362  0.5771 -0.4008  1.2974
  233MOL0     H31441   8.342   7.721   7.230  0.7509 -0.2323 -0.2591
  233MOL0     H31442   8.185   7.867   7.332 -0.0404  3.4188  0.2592
  233MOL0     H31443   8.176   7.832   7.734  3.1334  1.3325 -2.1834
  233MOL0     H31444   8.016   7.832   7.647 -1.6767  0.3927  4.4741
  233MOL0     H31445   7.985   7.955   7.863  0.6502  0.1577 -0.2155
  233MOL0     H31446   7.975   8.050   7.714  1.6426  0.6406 -1.5060
  233MOL0     H31447   8.102   8.195   7.838  1.3655  1.2630  0.3778
  233MOL0     H31448   8.236   8.109   7.773 -0.5726  0.7222  0.7530
  233MOL0     H31449   8.237   8.153   8.025 -0.1780  0.8056 -1.4099
  233MOL0     H31450   8.120   8.007   8.028  1.7278 -3.1499 -1.5241
  233MOL0     H31451   8.474   7.803   8.000  2.3068  1.1329 -0.0698
  233MOL0     H31452   8.415   7.885   7.694  2.6031  0.5784 -0.3803
  233MOL0     H31453   8.639   7.659   7.644 -2.0235 -1.0085 -1.8016
  233MOL0     H31454   8.700   7.813   7.561 -0.1733  1.8361  1.6491
  233MOL0     H31455   8.619   7.827   7.711 -1.1800 -0.7575 -0.1227
  234MOL0     O31456   6.074   6.141   6.989 -0.5575 -0.2389  0.3065
  234MOL0     C31457   6.184   6.197   7.002  0.1462  0.4686  1.3316
  234MOL0     O31458   6.280   6.179   6.914  0.1303 -0.0631  0.5449
  234MOL0     C31459   6.388   6.251   6.926 -0.2014 -0.4817  0.4022
  234MOL0     C31460   6.499   6.233   7.010  0.0639 -0.2669  0.0405
  234MOL0     C31461   6.598   6.334   7.016 -0.5494 -0.2737  1.0157
  234MOL0     C31462   6.588   6.447   6.942  0.0998 -0.4784  0.7261
  234MOL0     O31463   6.677   6.550   6.960  0.4547  0.2827 -0.1593
  234MOL0     C31464   6.735   6.617   6.846 -0.4553 -0.2982 -0.7840
  234MOL0     C31465   6.858   6.683   6.915  0.5074  0.3853  0.2325
  234MOL0     C31466   6.934   6.602   7.024 -0.1097 -1.1365  0.3492
  234MOL0     C31467   7.055   6.667   7.089  1.3365 -0.2958  0.7073
  234MOL0     C31468   7.098   6.581   7.211  0.4525 -1.0723 -0.7370
  234MOL0     C31469   7.223   6.626   7.277  0.1885 -0.8159 -1.3426
  234MOL0     C31470   7.238   6.779   7.305  0.5287 -0.0804 -0.5517
  234MOL0     C31471   7.128   6.840   7.400 -0.1446 -0.9460  0.4134
  234MOL0     N31472   7.122   6.764   7.521  0.6561  0.0873  0.8670
  234MOL0     C31473   7.216   6.730   7.616  0.3464  0.4353  0.0800
  234MOL0     C31474   7.150   6.694   7.727 -0.9069 -0.2896 -0.3404
  234MOL0     C31475   7.209   6.666   7.854 -0.3334  0.0394 -0.6910
  234MOL0     C31476   7.164   6.527   7.908 -0.0334 -0.3422  0.3743
  234MOL0     C31477   7.215   6.394   7.848  0.2789  0.2825  0.3257
  234MOL0     C31478   7.122   6.266   7.880 -0.7139  1.0979 -0.4630
  234MOL0     O31479   7.142   6.154   7.783 -0.7230 -0.0475 -0.3374
  234MOL0     C31480   7.085   6.172   7.661 -0.6771 -0.2043  0.3472
  234MOL0     C31481   7.013   6.281   7.617  0.6094  1.3288 -0.9312
  234MOL0     C31482   6.954   6.288   7.492  0.1276  0.4896  0.9637
  234MOL0     C31483   6.958   6.184   7.401 -0.2972  1.4737 -0.1033
  234MOL0     C31484   6.879   6.187   7.276 -0.1826  0.3450 -0.2402
  234MOL0     O31485   6.903   6.090   7.183  0.1741  0.8811 -0.9720
  234MOL0     C31486   6.872   6.120   7.054 -1.2800 -0.4821 -0.3980
  234MOL0     C31487   6.797   6.045   6.969 -0.0251 -0.6981 -0.4953
  234MOL0     C31488   6.770   6.088   6.838  0.7032  0.9300  0.2668
  234MOL0     C31489   6.829   6.207   6.793  0.8114  0.9050  1.2812
  234MOL0     O31490   6.813   6.267   6.664  0.6277  0.3701 -0.8643
  234MOL0     C31491   6.775   6.169   6.562  0.2499  0.8286  0.0036
  234MOL0     C31492   6.796   6.226   6.422  0.6894 -0.0775  0.2469
  234MOL0     C31493   6.946   6.223   6.388  0.1006  0.4941 -0.3528
  234MOL0     C31494   6.989   6.307   6.262 -0.2003  0.2250  0.8496
  234MOL0     C31495   7.134   6.292   6.215 -1.5120  0.9783 -0.0888
  234MOL0     C31496   7.240   6.328   6.328  0.8961  0.4246 -0.2695
  234MOL0     C31497   7.365   6.254   6.291 -0.9367  0.1754 -0.4130
  234MOL0     C31498   7.495   6.334   6.295 -0.1970 -0.4574 -0.0972
  234MOL0    Cl31499   7.624   6.223   6.259 -0.1064 -0.1529 -0.3281
  234MOL0     C31500   6.913   6.269   6.877 -0.2153  0.4181  0.6925
  234MOL0     C31501   6.938   6.225   6.998 -1.5257  0.1279 -0.8494
  234MOL0     O31502   6.804   6.281   7.267 -0.2827 -0.4705 -0.0941
  234MOL0     C31503   7.040   6.078   7.445 -0.6399  0.6574  0.7474
  234MOL0     C31504   7.111   6.072   7.571 -1.0761 -0.3334 -0.1750
  234MOL0     N31505   7.022   6.679   7.691  0.1203 -0.9573  0.4910
  234MOL0     N31506   7.002   6.726   7.575 -0.9352  0.3635 -0.0694
  234MOL0     C31507   6.477   6.472   6.856 -0.9826 -1.1306 -0.6140
  234MOL0     C31508   6.385   6.374   6.845  0.5002  0.2818  0.0683
  234MOL0     C31509   6.188   6.297   7.118  1.1725 -0.0989  0.1456
  234MOL0     C31510   6.162   6.433   7.101  1.1962 -0.2732 -0.6906
  234MOL0     C31511   6.140   6.515   7.209  0.3098  0.5695 -0.2293
  234MOL0     C31512   6.160   6.470   7.342  0.7984  1.5090 -0.2946
  234MOL0     O31513   6.142   6.541   7.455 -0.2592  0.1300  0.1157
  234MOL0     C31514   6.041   6.625   7.459  0.6707  0.1688  0.3895
  234MOL0     C31515   5.905   6.577   7.406 -0.7110 -0.1177  0.7124
  234MOL0     C31516   5.786   6.668   7.436  0.6346 -0.5624 -0.4486
  234MOL0     C31517   5.801   6.814   7.406  0.1942  0.3680  0.5383
  234MOL0     C31518   5.865   6.888   7.515 -0.0563  0.4619 -0.7291
  234MOL0     C31519   5.917   6.955   7.595  0.6089  1.1409 -0.1646
  234MOL0     C31520   6.183   6.330   7.361  0.2150 -0.3381  1.1390
  234MOL0     C31521   6.198   6.242   7.253  0.5951 -0.0712  0.3436
  234MOL0     C31522   6.230   6.093   7.277  0.9672  0.9402 -0.8924
  234MOL0     H31523   6.496   6.162   7.092 -2.7478  1.0057  1.1671
  234MOL0     H31524   6.674   6.324   7.093 -0.3409 -2.2821  0.6096
  234MOL0     H31525   6.777   6.546   6.775  4.0253  1.8216 -0.6256
  234MOL0     H31526   6.661   6.685   6.802 -3.5223 -1.7010  1.7922
  234MOL0     H31527   6.812   6.772   6.960 -1.6848  0.2058 -1.4768
  234MOL0     H31528   6.936   6.694   6.839  1.0097 -0.5148  0.6023
  234MOL0     H31529   6.964   6.504   6.987 -1.5476 -1.6674  0.5069
  234MOL0     H31530   6.867   6.585   7.108 -0.1630 -0.2406  0.5036
  234MOL0     H31531   7.142   6.667   7.023  0.7096  2.3800 -0.2647
  234MOL0     H31532   7.027   6.771   7.112  1.1773 -0.1393 -0.1604
  234MOL0     H31533   7.016   6.593   7.283  0.9557  0.4428 -0.3878
  234MOL0     H31534   7.115   6.477   7.183 -0.8019 -1.7984  1.0189
  234MOL0     H31535   7.223   6.582   7.377 -1.4759 -0.7033 -1.2654
  234MOL0     H31536   7.307   6.594   7.216  0.4381  0.6620 -1.8296
  234MOL0     H31537   7.222   6.831   7.210 -1.1197 -1.4794 -1.0817
  234MOL0     H31538   7.339   6.783   7.348 -0.5512 -1.0603  2.3000
  234MOL0     H31539   7.160   6.941   7.429  0.5607 -1.7970  2.7972
  234MOL0     H31540   7.027   6.837   7.358  0.1712  1.4114 -0.6946
  234MOL0     H31541   7.322   6.751   7.602 -0.4378  5.3365 -0.0627
  234MOL0     H31542   7.318   6.662   7.845 -0.4236 -1.3956 -1.3840
  234MOL0     H31543   7.195   6.746   7.928  0.2554  0.6820 -1.2612
  234MOL0     H31544   7.198   6.524   8.012 -2.8680 -0.1897  1.3802
  234MOL0     H31545   7.055   6.534   7.909 -0.1888 -2.0619 -0.3007
  234MOL0     H31546   7.320   6.376   7.873  0.3812  1.6771  0.9905
  234MOL0     H31547   7.213   6.415   7.741 -0.6760  3.6047  0.8842
  234MOL0     H31548   7.015   6.289   7.873 -1.0260 -0.5384 -1.8572
  234MOL0     H31549   7.149   6.229   7.980  0.6379 -0.6944 -1.4344
  234MOL0     H31550   7.003   6.368   7.682 -1.9788  0.0042  0.6323
  234MOL0     H31551   6.893   6.375   7.468 -2.2621 -0.7415  2.2013
  234MOL0     H31552   6.751   5.959   7.016  2.0571 -0.9058  1.3654
  234MOL0     H31553   6.717   6.028   6.765  1.6061  0.4115  0.0199
  234MOL0     H31554   6.837   6.079   6.566 -0.6280  0.1249 -1.3137
  234MOL0     H31555   6.675   6.127   6.567  1.0862 -1.1999  0.6399
  234MOL0     H31556   6.735   6.168   6.352  2.9273 -2.2297 -0.0595
  234MOL0     H31557   6.768   6.332   6.427 -0.9740 -0.3675 -1.6362
  234MOL0     H31558   7.002   6.266   6.472  0.3262 -0.2720 -0.1024
  234MOL0     H31559   6.980   6.120   6.376 -1.1234  0.1762 -1.2947
  234MOL0     H31560   6.975   6.414   6.279 -1.3920  0.3990 -0.9871
  234MOL0     H31561   6.917   6.291   6.181  2.6492 -1.2152 -1.5783
  234MOL0     H31562   7.156   6.363   6.135  0.1368  3.2415  2.2031
  234MOL0     H31563   7.159   6.193   6.174 -0.9897  1.0585  0.0194
  234MOL0     H31564   7.235   6.437   6.330 -2.5594  0.4530 -2.3336
  234MOL0     H31565   7.195   6.287   6.419  0.5958 -1.8679 -1.3592
  234MOL0     H31566   7.361   6.197   6.197 -1.2681  0.8104 -0.7865
  234MOL0     H31567   7.372   6.174   6.366 -2.2662 -1.8907 -2.3408
  234MOL0     H31568   7.486   6.419   6.227 -1.9247  0.1342  0.8248
  234MOL0     H31569   7.508   6.379   6.394 -0.1660  2.4786 -1.3337
  234MOL0     H31570   6.966   6.357   6.841  1.7599 -0.1545  2.0275
  234MOL0     H31571   7.021   6.273   7.049 -1.9072 -1.2044  1.1315
  234MOL0     H31572   7.042   5.986   7.387  0.1774  0.3745  1.1966
  234MOL0     H31573   7.148   5.973   7.597  0.0737  0.3301  0.7931
  234MOL0     H31574   6.462   6.563   6.800 -3.3235 -0.5048  0.8974
  234MOL0     H31575   6.286   6.390   6.803 -0.1858 -1.1119  1.0784
  234MOL0     H31576   6.146   6.476   7.003 -0.8467 -0.7166 -0.6100
  234MOL0     H31577   6.108   6.616   7.187 -0.0098  0.5650  0.1920
  234MOL0     H31578   6.063   6.719   7.408 -3.0716 -0.4014 -2.7834
  234MOL0     H31579   6.030   6.651   7.565  0.6900 -1.4758  0.8296
  234MOL0     H31580   5.875   6.472   7.414  0.2499 -0.5683 -1.0152
  234MOL0     H31581   5.921   6.583   7.298 -0.5372  1.8125  0.8166
  234MOL0     H31582   5.754   6.644   7.538 -0.8940  1.9453 -0.2636
  234MOL0     H31583   5.698   6.636   7.379  1.8903  0.6942 -3.3359
  234MOL0     H31584   5.841   6.836   7.306  0.4656  0.5679  0.6903
  234MOL0     H31585   5.699   6.853   7.402 -0.3318 -1.0223 -2.0324
  234MOL0     H31586   5.974   7.010   7.667 -0.0625  1.3371  0.2185
  234MOL0     H31587   6.193   6.287   7.460 -3.4753  0.5838  2.0494
  234MOL0     H31588   6.234   6.074   7.385 -2.6960  1.9546 -0.4195
  234MOL0     H31589   6.141   6.035   7.248  0.3600  1.2115  0.3458
  234MOL0     H31590   6.313   6.069   7.211 -0.0018  3.6839 -3.3294
  235MOL0     O31591  10.799  10.405   2.048  0.1336 -0.3622  0.4949
  235MOL0     C31592  10.753  10.295   2.021 -0.6247 -0.9138  0.6993
  235MOL0     O31593  10.818  10.197   1.965  0.2891  0.2953  0.0344
  235MOL0     C31594  10.946  10.216   1.934 -0.4781 -0.1402 -0.5454
  235MOL0     C31595  11.051  10.205   2.030 -0.4854  0.5164  0.6375
  235MOL0     C31596  11.180  10.194   1.997  0.3937 -0.8106 -0.4494
  235MOL0     C31597  11.212  10.207   1.866 -0.1808 -0.0638  0.2618
  235MOL0     O31598  11.341  10.223   1.816  0.2968 -0.7582  0.2842
  235MOL0     C31599  11.449  10.230   1.901 -1.0031 -0.1930 -0.6163
  235MOL0     C31600  11.575  10.275   1.822  0.2679  0.1668 -0.0122
  235MOL0     C31601  11.644  10.163   1.747 -0.4979  0.2002  0.6510
  235MOL0     C31602  11.791  10.192   1.706 -1.0791 -0.0763 -0.0790
  235MOL0     C31603  11.848  10.056   1.647 -0.8115 -0.2992  0.6975
  235MOL0     C31604  11.960  10.073   1.545  0.0808  0.1393 -0.8688
  235MOL0     C31605  12.091  10.093   1.626 -0.8175  0.2620  0.0010
  235MOL0     C31606  12.207  10.113   1.525 -1.1605 -0.3196 -0.4375
  235MOL0     N31607  12.244   9.985   1.461 -0.9591  0.3534 -0.6153
  235MOL0     C31608  12.317   9.873   1.515 -0.8461  0.4103 -0.8323
  235MOL0     C31609  12.346   9.795   1.408 -0.0001 -0.5752 -0.6754
  235MOL0     C31610  12.400   9.654   1.390  0.0094  0.0292 -0.3437
  235MOL0     C31611  12.492   9.605   1.495 -0.8791  0.5724 -0.3896
  235MOL0     C31612  12.638   9.673   1.486 -0.2582  0.7140  0.2089
  235MOL0     C31613  12.640   9.826   1.509 -0.4508  0.3533  0.3817
  235MOL0     O31614  12.623   9.892   1.381 -0.0507 -0.7360  1.0290
  235MOL0     C31615  12.735   9.903   1.296 -0.7851  0.0234 -0.0066
  235MOL0     C31616  12.712   9.941   1.167  0.1915 -0.1545 -0.8604
  235MOL0     C31617  12.809   9.942   1.065  0.0205 -0.1784  0.0266
  235MOL0     C31618  12.937   9.899   1.102 -0.3131  0.1237 -0.2528
  235MOL0     C31619  13.046   9.910   1.010 -0.1399 -0.0931 -0.3757
  235MOL0     O31620  13.028   9.974   0.886 -1.0972  0.2442  0.1291
  235MOL0     C31621  13.133  10.012   0.811 -0.7215 -0.2610 -0.5285
  235MOL0     C31622  13.257  10.062   0.865 -0.7780 -0.0344 -0.6877
  235MOL0     C31623  13.375  10.082   0.792  0.8827 -0.2973 -0.5017
  235MOL0     C31624  13.350  10.088   0.652  0.2416  0.2016 -0.0403
  235MOL0     O31625  13.467  10.107   0.572  0.5300  0.4057  0.3723
  235MOL0     C31626  13.461  10.099   0.427 -0.1823 -0.5419  0.2927
  235MOL0     C31627  13.601  10.067   0.361 -0.1996  0.1066 -0.0133
  235MOL0     C31628  13.593  10.088   0.212 -0.6826 -0.0696 -0.4810
  235MOL0     C31629  13.722  10.043   0.138  0.0329  0.7827 -0.1146
  235MOL0     C31630  13.711  10.070  -0.018 -0.0614  0.8245  0.0406
  235MOL0     C31631  13.841  10.024  -0.095  1.2778  0.3442 -0.0198
  235MOL0     C31632  13.823   9.932  -0.211  0.0591  0.0226 -0.1424
  235MOL0     C31633  13.959   9.865  -0.241 -1.2497  0.3153  0.2614
  235MOL0    Cl31634  13.959   9.748  -0.368 -0.3667  0.2563 -0.0440
  235MOL0     C31635  13.220  10.076   0.591  0.2061 -0.9603  0.1548
  235MOL0     C31636  13.115  10.035   0.668 -0.0462  1.0709 -0.2210
  235MOL0     O31637  13.154   9.860   1.052  0.2637 -0.9995 -0.4567
  235MOL0     C31638  12.962   9.855   1.234 -0.1735 -0.2255  0.4498
  235MOL0     C31639  12.864   9.856   1.330 -0.2932 -0.3013 -0.5049
  235MOL0     N31640  12.303   9.865   1.297 -0.3941  0.0244  0.9898
  235MOL0     N31641  12.254   9.974   1.330 -1.2391 -0.2366 -0.0227
  235MOL0     C31642  11.112  10.229   1.767  0.6418 -0.9748  0.1606
  235MOL0     C31643  10.979  10.244   1.803 -0.2673 -0.0817  0.2116
  235MOL0     C31644  10.608  10.273   2.041  0.2370 -0.6041 -0.0414
  235MOL0     C31645  10.553  10.300   2.173  0.4233  0.2967 -0.4067
  235MOL0     C31646  10.416  10.292   2.201 -0.2177 -0.4503  0.4849
  235MOL0     C31647  10.331  10.271   2.096  0.1050  0.2163  0.1589
  235MOL0     O31648  10.194  10.269   2.115  0.0642  0.0077 -0.0750
  235MOL0     C31649  10.139  10.263   2.254  0.4633  1.2393 -0.6370
  235MOL0     C31650   9.990  10.251   2.246  0.6896 -0.3532 -0.6964
  235MOL0     C31651   9.953  10.104   2.231  0.0867  0.2983  1.0039
  235MOL0     C31652   9.800  10.069   2.271  0.4418 -0.5288 -0.5146
  235MOL0     C31653   9.800   9.924   2.273 -0.4038  0.3964 -0.3770
  235MOL0     C31654   9.808   9.802   2.253 -0.2167  0.6429 -0.7318
  235MOL0     C31655  10.378  10.260   1.970  0.8527  0.3909 -0.0666
  235MOL0     C31656  10.511  10.268   1.940 -0.0513 -0.5063  0.0370
  235MOL0     C31657  10.557  10.276   1.803  0.0418 -0.1499  0.4428
  235MOL0     H31658  11.031  10.189   2.136  1.2320 -0.5149  0.8390
  235MOL0     H31659  11.261  10.196   2.069 -0.1832 -0.9132  0.2140
  235MOL0     H31660  11.436  10.310   1.975 -2.2347  3.7296 -4.6236
  235MOL0     H31661  11.476  10.134   1.946  0.0466  1.0326  1.6005
  235MOL0     H31662  11.643  10.319   1.895 -1.7457 -0.2397  2.2217
  235MOL0     H31663  11.544  10.350   1.748  1.2223 -1.1229 -1.8004
  235MOL0     H31664  11.588  10.161   1.653  0.3702  0.7706  0.1069
  235MOL0     H31665  11.623  10.074   1.806  2.9292  0.4793  2.4869
  235MOL0     H31666  11.802  10.274   1.635  0.4246  0.6794  0.9802
  235MOL0     H31667  11.855  10.215   1.792 -1.6285 -1.4144  0.7364
  235MOL0     H31668  11.879   9.994   1.731 -0.7348  0.3857  1.1815
  235MOL0     H31669  11.774  10.020   1.575  1.2074 -0.4833 -1.4135
  235MOL0     H31670  11.974   9.978   1.493  0.3948  0.3437 -1.1616
  235MOL0     H31671  11.953  10.157   1.476  2.6888  2.9896  1.9845
  235MOL0     H31672  12.122  10.015   1.697  0.7459 -0.8855 -1.8299
  235MOL0     H31673  12.071  10.186   1.680 -3.2931 -0.9765  1.4157
  235MOL0     H31674  12.172  10.177   1.444  0.4950  0.8422 -0.2651
  235MOL0     H31675  12.296  10.151   1.575 -0.4370 -1.7829 -0.5610
  235MOL0     H31676  12.334   9.838   1.617 -2.3588 -1.9478 -1.3058
  235MOL0     H31677  12.317   9.584   1.406 -0.5131  0.1422 -2.3731
  235MOL0     H31678  12.435   9.643   1.287 -2.6470 -2.7322 -1.0830
  235MOL0     H31679  12.459   9.619   1.599  1.3479  1.4991  0.2681
  235MOL0     H31680  12.516   9.499   1.491 -0.7600  0.4844  1.4815
  235MOL0     H31681  12.687   9.642   1.394 -1.6135  3.1641 -1.4326
  235MOL0     H31682  12.702   9.634   1.566  2.8114  0.4395 -2.1976
  235MOL0     H31683  12.732   9.849   1.563 -0.6071  3.9979 -0.6603
  235MOL0     H31684  12.565   9.854   1.584 -2.5585  1.9318 -2.1442
  235MOL0     H31685  12.610   9.970   1.146 -0.2958 -1.5966 -0.5913
  235MOL0     H31686  12.775   9.961   0.963  1.2203 -2.4264 -0.8441
  235MOL0     H31687  13.253  10.071   0.973 -3.6875  1.9544 -0.8194
  235MOL0     H31688  13.472  10.094   0.840 -0.1606  1.5445  1.3087
  235MOL0     H31689  13.375  10.039   0.396 -2.8639  0.3000  5.1520
  235MOL0     H31690  13.432  10.196   0.386 -1.5584 -2.2119 -3.1031
  235MOL0     H31691  13.676  10.132   0.407  1.7959 -1.2597 -1.2401
  235MOL0     H31692  13.621   9.962   0.382  0.6769  0.7370  2.8657
  235MOL0     H31693  13.507  10.038   0.166  1.2270 -1.4327 -2.8663
  235MOL0     H31694  13.590  10.195   0.190  2.0410 -0.0499 -1.2132
  235MOL0     H31695  13.722   9.934   0.144 -1.3017  0.5939 -2.3169
  235MOL0     H31696  13.809  10.086   0.189 -1.8702  2.6893  1.7055
  235MOL0     H31697  13.687  10.176  -0.033 -0.3140  0.6189 -1.0710
  235MOL0     H31698  13.626  10.009  -0.049  1.2444 -2.3296  2.1245
  235MOL0     H31699  13.895  10.114  -0.125  0.1541  3.1387  5.2524
  235MOL0     H31700  13.904   9.984  -0.015  1.0883 -0.7643 -0.3940
  235MOL0     H31701  13.820   9.990  -0.304  0.2360 -3.9796 -2.9268
  235MOL0     H31702  13.743   9.860  -0.194 -0.4845  1.1864  2.7791
  235MOL0     H31703  14.035   9.938  -0.267 -2.1874  1.4156  0.4861
  235MOL0     H31704  13.986   9.816  -0.146  0.0254  1.3453  0.4478
  235MOL0     H31705  13.196  10.096   0.487  1.1793  1.5160  0.3319
  235MOL0     H31706  13.019  10.023   0.619 -0.7968 -0.7943  1.5538
  235MOL0     H31707  13.062   9.831   1.266  1.2092  0.1391 -3.1332
  235MOL0     H31708  12.878   9.820   1.431 -3.6825 -1.4871 -0.3182
  235MOL0     H31709  11.138  10.275   1.672  0.8290  1.0500  1.1370
  235MOL0     H31710  10.896  10.260   1.736  0.2001 -0.4407 -0.4657
  235MOL0     H31711  10.631  10.312   2.247 -0.8176 -0.5853  1.1156
  235MOL0     H31712  10.385  10.312   2.303  1.0818 -3.0873  1.5167
  235MOL0     H31713  10.169  10.360   2.296  0.6076  1.6542 -1.6761
  235MOL0     H31714  10.173  10.177   2.313 -0.9526  0.4863 -0.8814
  235MOL0     H31715   9.967  10.311   2.158  0.9675  0.7735 -0.0287
  235MOL0     H31716   9.943  10.298   2.333  1.1562 -1.0399 -0.0539
  235MOL0     H31717  10.024  10.044   2.289  1.3599  0.1056 -0.6628
  235MOL0     H31718   9.964  10.089   2.124 -0.3458 -0.2692  1.0359
  235MOL0     H31719   9.765  10.100   2.370  0.1459 -1.1238 -0.4263
  235MOL0     H31720   9.722  10.104   2.203  2.4879 -0.1108 -2.7998
  235MOL0     H31721   9.806   9.698   2.228  1.3446  1.0416 -2.8283
  235MOL0     H31722  10.301  10.261   1.894 -3.2081  2.2156  3.5981
  235MOL0     H31723  10.653  10.324   1.785 -0.5597  0.5565 -1.0797
  235MOL0     H31724  10.560  10.176   1.757  4.5786  0.3942 -0.9320
  235MOL0     H31725  10.479  10.335   1.753 -0.0670 -1.4175 -0.9833
  236MOL0     O31726   3.206  10.703  10.731  0.0267  0.0508  0.4052
  236MOL0     C31727   3.208  10.671  10.847 -0.3420  1.0908 -0.5476
  236MOL0     O31728   3.287  10.727  10.950 -0.6554 -0.0273 -0.1078
  236MOL0     C31729   3.392  10.813  10.905 -0.0425  0.3942 -0.2737
  236MOL0     C31730   3.413  10.939  10.966 -0.2101  0.2899 -0.4373
  236MOL0     C31731   3.516  11.022  10.912 -0.2951 -0.2238 -0.4818
  236MOL0     C31732   3.601  10.998  10.812 -0.0833 -0.0856 -0.4140
  236MOL0     O31733   3.680  11.096  10.761 -0.2817  0.6065  0.1093
  236MOL0     C31734   3.773  11.075  10.656  1.8641  0.7117  1.0162
  236MOL0     C31735   3.840  11.200  10.596  0.1697 -1.0665  1.1675
  236MOL0     C31736   3.925  11.283  10.695 -0.0651  0.3629 -0.1193
  236MOL0     C31737   3.973  11.416  10.636 -0.2823  0.1175  0.4710
  236MOL0     C31738   4.043  11.511  10.735  1.5351  0.6949 -0.1224
  236MOL0     C31739   3.965  11.565  10.862  0.2190 -0.3790  0.4506
  236MOL0     C31740   4.069  11.638  10.958 -0.3400 -0.0129  0.5864
  236MOL0     C31741   4.000  11.676  11.082 -0.8059 -0.3943  0.2094
  236MOL0     N31742   3.881  11.756  11.057 -1.0607 -1.0996  0.7120
  236MOL0     C31743   3.895  11.890  11.018  0.0533 -0.3389  1.4085
  236MOL0     C31744   3.776  11.943  11.044 -0.8710 -0.4384 -0.5995
  236MOL0     C31745   3.723  12.077  11.027  0.4888 -0.2409 -0.0772
  236MOL0     C31746   3.796  12.161  10.925 -0.0346  0.4147  0.3643
  236MOL0     C31747   3.795  12.122  10.778 -0.6075  0.3537  0.0353
  236MOL0     C31748   3.852  12.221  10.673  1.1141  0.2077 -1.0539
  236MOL0     O31749   3.996  12.203  10.693  0.2400 -0.0363 -0.4691
  236MOL0     C31750   4.079  12.301  10.734 -0.1484  1.3466 -0.8091
  236MOL0     C31751   4.211  12.265  10.743 -0.3967 -0.8446  0.6963
  236MOL0     C31752   4.301  12.365  10.792 -0.1228 -0.2180  0.2249
  236MOL0     C31753   4.263  12.499  10.810  1.0698  1.4120  0.4540
  236MOL0     C31754   4.362  12.606  10.842  0.4174 -0.3673 -1.0194
  236MOL0     O31755   4.355  12.725  10.774  0.4193  0.6433 -0.1142
  236MOL0     C31756   4.438  12.833  10.789  0.2946  1.0516 -0.3389
  236MOL0     C31757   4.576  12.833  10.768  0.0289 -0.7916  0.6800
  236MOL0     C31758   4.637  12.956  10.772 -1.1478  0.9737  0.7150
  236MOL0     C31759   4.580  13.078  10.799  0.3375 -0.9344  0.0321
  236MOL0     O31760   4.673  13.191  10.791  0.1221  0.4324  0.1439
  236MOL0     C31761   4.628  13.326  10.776  0.3137  0.1914  0.5956
  236MOL0     C31762   4.742  13.428  10.807  0.4244  0.7198  0.7288
  236MOL0     C31763   4.849  13.432  10.690  1.0129 -0.1740  0.7630
  236MOL0     C31764   4.855  13.570  10.613 -1.0344  0.0929 -0.4540
  236MOL0     C31765   4.726  13.628  10.561  0.5597 -0.6836 -0.5502
  236MOL0     C31766   4.663  13.537  10.454 -0.4696 -0.0160 -0.1333
  236MOL0     C31767   4.554  13.626  10.382 -0.3823  0.5980  0.0114
  236MOL0     C31768   4.464  13.540  10.292 -0.3425  0.6902  0.4502
  236MOL0    Cl31769   4.541  13.431  10.183  0.2195 -0.1516  0.1592
  236MOL0     C31770   4.442  13.075  10.829 -0.5124 -0.4740 -0.0016
  236MOL0     C31771   4.373  12.957  10.809  0.0999 -0.4303  0.4171
  236MOL0     O31772   4.431  12.575  10.929  0.0553  0.0285 -0.2702
  236MOL0     C31773   4.134  12.524  10.779  0.7542 -0.7138 -0.2893
  236MOL0     C31774   4.040  12.434  10.750  0.1951  0.4754  1.4103
  236MOL0     N31775   3.694  11.841  11.083 -0.0843 -1.5766  0.0019
  236MOL0     N31776   3.758  11.733  11.104  0.7879 -0.6735 -0.1201
  236MOL0     C31777   3.588  10.864  10.757 -0.4403 -0.1543  0.0095
  236MOL0     C31778   3.486  10.774  10.799  0.3467  0.3962 -0.1818
  236MOL0     C31779   3.109  10.573  10.890  0.1809 -0.1172  0.0999
  236MOL0     C31780   3.010  10.525  10.792 -1.0754 -0.4366  0.3559
  236MOL0     C31781   2.906  10.438  10.812 -0.3853 -0.9592  0.9286
  236MOL0     C31782   2.885  10.386  10.941  0.0663 -0.8295  0.4131
  236MOL0     O31783   2.777  10.305  10.948 -0.0634 -0.4123 -0.1839
  236MOL0     C31784   2.778  10.223  11.065 -0.4418 -0.0120  1.4540
  236MOL0     C31785   2.703  10.091  11.043  0.3898 -0.6199  0.3119
  236MOL0     C31786   2.778   9.984  10.955  0.2627 -1.4673 -0.8420
  236MOL0     C31787   2.904   9.934  11.030 -0.5014  0.4015  0.8060
  236MOL0     C31788   2.951   9.826  10.944 -0.7697  0.1628  0.3758
  236MOL0     C31789   2.987   9.737  10.871  0.0842  0.0494 -1.3885
  236MOL0     C31790   2.967  10.430  11.045 -0.4396  0.0152  1.0207
  236MOL0     C31791   3.078  10.524  11.019 -0.6086 -0.0069 -0.5350
  236MOL0     C31792   3.146  10.563  11.149 -0.0035  0.8397 -0.4938
  236MOL0     H31793   3.349  10.975  11.045 -0.0014  0.7504 -0.4744
  236MOL0     H31794   3.516  11.120  10.958  0.8022 -0.6638  0.5241
  236MOL0     H31795   3.850  11.002  10.681  0.7674 -0.8682 -0.0031
  236MOL0     H31796   3.720  11.033  10.570 -0.5872  2.4136  1.5880
  236MOL0     H31797   3.764  11.266  10.554  0.8830  0.3803  2.0754
  236MOL0     H31798   3.913  11.187  10.516  0.4411  3.2403  0.4786
  236MOL0     H31799   4.006  11.221  10.736 -2.3847 -1.1530  2.6495
  236MOL0     H31800   3.860  11.301  10.782  0.0925 -1.0076  0.3084
  236MOL0     H31801   4.031  11.390  10.547  1.4935  1.5295  1.1459
  236MOL0     H31802   3.892  11.477  10.595 -0.2630 -0.5903 -0.6552
  236MOL0     H31803   4.118  11.451  10.789 -0.7801  0.3051  2.9596
  236MOL0     H31804   4.086  11.599  10.687  0.1213  1.5289  0.0915
  236MOL0     H31805   3.886  11.638  10.841  0.4174  0.7119  3.1472
  236MOL0     H31806   3.916  11.485  10.917 -3.4060 -0.6589 -2.7501
  236MOL0     H31807   4.123  11.717  10.905  2.3754 -2.0657  0.0820
  236MOL0     H31808   4.148  11.567  10.984  1.4157 -0.3614 -4.5789
  236MOL0     H31809   3.983  11.577  11.127  2.6051 -2.1890 -2.0601
  236MOL0     H31810   4.066  11.729  11.151  0.0390 -0.8883 -0.1975
  236MOL0     H31811   3.984  11.941  10.984 -1.5277 -0.1194 -3.0018
  236MOL0     H31812   3.620  12.070  10.992  0.6514  1.9557 -1.2025
  236MOL0     H31813   3.722  12.129  11.123  0.0935 -0.9065  0.2774
  236MOL0     H31814   3.737  12.253  10.928  0.9182  1.0229  0.6911
  236MOL0     H31815   3.898  12.188  10.951 -0.7858  3.0717  0.8236
  236MOL0     H31816   3.705  12.067  10.748  2.3469 -4.1360 -1.7201
  236MOL0     H31817   3.866  12.039  10.772 -1.4491 -0.3339 -0.7238
  236MOL0     H31818   3.809  12.320  10.693 -2.0187 -1.2445  0.0586
  236MOL0     H31819   3.822  12.188  10.574  0.3336 -1.2619 -0.3554
  236MOL0     H31820   4.227  12.164  10.706  0.1888 -0.5243  0.0616
  236MOL0     H31821   4.407  12.347  10.801  0.0129  0.1711 -0.5408
  236MOL0     H31822   4.633  12.741  10.751  1.5932  0.2179  0.2343
  236MOL0     H31823   4.742  12.949  10.743 -0.8813  0.4503  1.7610
  236MOL0     H31824   4.591  13.338  10.674  0.3503 -2.8086  0.1528
  236MOL0     H31825   4.541  13.344  10.841  0.3598 -0.9055  0.9844
  236MOL0     H31826   4.700  13.528  10.823 -0.4955  0.3195  0.9015
  236MOL0     H31827   4.788  13.393  10.900  2.0994  0.6418 -0.1007
  236MOL0     H31828   4.942  13.419  10.747  0.8235 -1.0374  0.8895
  236MOL0     H31829   4.837  13.349  10.620 -2.7249  0.2752  0.6810
  236MOL0     H31830   4.939  13.568  10.542  0.1252 -0.4104  0.8790
  236MOL0     H31831   4.893  13.631  10.695 -1.2608 -2.6624  1.8597
  236MOL0     H31832   4.738  13.728  10.519  1.6243 -0.8682 -0.7049
  236MOL0     H31833   4.656  13.623  10.646 -1.3909 -1.2599 -2.1233
  236MOL0     H31834   4.736  13.491  10.387 -0.1650  0.8036 -0.3783
  236MOL0     H31835   4.607  13.456  10.501  1.4060 -0.8351  0.7882
  236MOL0     H31836   4.611  13.702  10.328  1.5923 -0.5623  0.3667
  236MOL0     H31837   4.491  13.681  10.452  0.3178  1.2115  0.1640
  236MOL0     H31838   4.398  13.483  10.358  1.2135 -0.6698  0.9042
  236MOL0     H31839   4.400  13.612  10.239  0.7706  0.3299 -1.4797
  236MOL0     H31840   4.396  13.173  10.835 -3.2984 -1.4622 -2.6735
  236MOL0     H31841   4.265  12.962  10.801  0.0892  2.9390  1.2716
  236MOL0     H31842   4.111  12.630  10.789  1.7588 -0.6203  1.5148
  236MOL0     H31843   3.940  12.477  10.740 -0.0936  0.1489  2.7413
  236MOL0     H31844   3.661  10.836  10.681 -0.0559 -3.2887  1.3719
  236MOL0     H31845   3.492  10.681  10.744  4.4798  0.5703 -0.3457
  236MOL0     H31846   3.021  10.558  10.689 -0.4177 -2.9644 -0.4331
  236MOL0     H31847   2.832  10.424  10.733 -1.3113 -1.7476  1.8879
  236MOL0     H31848   2.729  10.286  11.139 -2.2525  2.3805 -1.5562
  236MOL0     H31849   2.879  10.210  11.103  1.2219  0.2029 -2.4013
  236MOL0     H31850   2.609  10.118  10.994  0.9735 -0.6393 -0.8390
  236MOL0     H31851   2.675  10.054  11.142 -0.0850 -0.2101  0.3376
  236MOL0     H31852   2.799  10.024  10.856 -2.7508  3.9046  0.2917
  236MOL0     H31853   2.711   9.898  10.942 -1.8276 -0.2610  1.1683
  236MOL0     H31854   2.978  10.014  11.037  1.3552 -1.3250  2.1544
  236MOL0     H31855   2.893   9.906  11.135 -0.4127  4.5641  2.0949
  236MOL0     H31856   3.012   9.667  10.794  1.3672 -1.1281  0.0379
  236MOL0     H31857   2.943  10.412  11.150  1.7914 -0.7292  1.4617
  236MOL0     H31858   3.086  10.641  11.198 -0.5304 -2.4985  4.9891
  236MOL0     H31859   3.147  10.478  11.218 -0.9333  1.9178  0.9309
  236MOL0     H31860   3.251  10.584  11.127  0.3244 -1.0612 -0.8938
  237MOL0     O31861   2.557   4.319   2.116  0.5353  0.6372  0.4120
  237MOL0     C31862   2.480   4.397   2.169  0.8685  0.5068 -1.2875
  237MOL0     O31863   2.343   4.402   2.130 -0.5823 -0.1927  0.4439
  237MOL0     C31864   2.306   4.303   2.041  0.3500  0.2550  0.5246
  237MOL0     C31865   2.355   4.302   1.902 -0.2055 -0.2598  0.2637
  237MOL0     C31866   2.274   4.232   1.804  0.1840  0.0631  0.4855
  237MOL0     C31867   2.163   4.144   1.850  0.2763 -0.0954 -0.0095
  237MOL0     O31868   2.062   4.093   1.767 -0.0615 -1.1305 -0.1420
  237MOL0     C31869   2.046   4.153   1.639 -0.4507 -0.7855 -0.3513
  237MOL0     C31870   1.941   4.070   1.571 -0.4474 -0.5343  0.9225
  237MOL0     C31871   1.895   4.153   1.454  0.1400  0.0119 -0.6669
  237MOL0     C31872   1.869   4.069   1.325 -0.8305 -0.5036 -0.0958
  237MOL0     C31873   1.820   4.156   1.207  0.5568  0.0242  0.7389
  237MOL0     C31874   1.927   4.248   1.141 -0.2086 -0.3250 -0.5223
  237MOL0     C31875   1.890   4.305   1.010 -1.1985 -0.7986  1.0605
  237MOL0     C31876   2.002   4.404   0.957 -0.0322  1.0137 -0.2979
  237MOL0     N31877   2.021   4.530   1.025 -0.6798 -0.8617  0.8910
  237MOL0     C31878   1.924   4.626   1.023 -0.3416  0.5962  0.4000
  237MOL0     C31879   1.983   4.727   1.089  0.9632  0.5988 -0.1065
  237MOL0     C31880   1.932   4.851   1.144 -0.3522 -1.2193 -0.7723
  237MOL0     C31881   1.979   4.988   1.095 -0.4813  0.9268  0.5766
  237MOL0     C31882   2.117   5.011   1.130 -0.3658  0.3362 -0.3684
  237MOL0     C31883   2.154   5.163   1.116  0.3147  0.0727 -0.1466
  237MOL0     O31884   2.077   5.249   1.024  0.2679  0.4046  0.7620
  237MOL0     C31885   2.118   5.261   0.901  0.0838 -1.0071 -0.8717
  237MOL0     C31886   2.057   5.355   0.818 -0.2489 -0.8086 -0.1373
  237MOL0     C31887   2.109   5.370   0.684  0.8954 -0.2616 -0.7240
  237MOL0     C31888   2.216   5.305   0.638  0.3909  0.4425  1.3485
  237MOL0     C31889   2.264   5.320   0.501 -0.4648  0.3802 -0.2212
  237MOL0     O31890   2.368   5.248   0.458  0.5171 -0.1539  0.1836
  237MOL0     C31891   2.415   5.263   0.334  0.2614 -0.5015 -1.2272
  237MOL0     C31892   2.457   5.383   0.281 -0.0949 -0.2520 -0.4400
  237MOL0     C31893   2.499   5.400   0.150  0.0239 -0.9223 -1.1281
  237MOL0     C31894   2.490   5.294   0.065  0.7988 -1.0540  0.3140
  237MOL0     O31895   2.530   5.298  -0.069 -0.2394 -0.7353  0.0304
  237MOL0     C31896   2.451   5.374  -0.150 -0.5160 -0.1311  0.2144
  237MOL0     C31897   2.488   5.390  -0.288 -0.2514  0.9532  0.4301
  237MOL0     C31898   2.392   5.321  -0.389 -0.0083 -0.9276 -0.1915
  237MOL0     C31899   2.262   5.389  -0.412 -0.9437 -0.5358  0.0357
  237MOL0     C31900   2.144   5.315  -0.477 -0.2696 -0.8002  0.2450
  237MOL0     C31901   2.139   5.162  -0.463 -0.3797  0.9535 -0.7369
  237MOL0     C31902   2.008   5.110  -0.534 -0.1539 -0.0932 -0.3451
  237MOL0     C31903   1.989   4.954  -0.542  0.5963 -0.5301  0.3986
  237MOL0    Cl31904   1.869   4.912  -0.422  0.5062 -0.1718 -0.1823
  237MOL0     C31905   2.447   5.166   0.112 -0.1550  0.3859 -0.2024
  237MOL0     C31906   2.411   5.151   0.250  0.6111 -0.4698  0.5950
  237MOL0     O31907   2.195   5.401   0.434  0.2971 -0.0755  1.0671
  237MOL0     C31908   2.271   5.203   0.714 -0.3786 -0.8126 -0.4905
  237MOL0     C31909   2.213   5.174   0.844  0.7653 -1.1617  0.1650
  237MOL0     N31910   2.111   4.686   1.130  1.1697  0.0490  0.1413
  237MOL0     N31911   2.132   4.570   1.093  0.6539  0.3807 -0.0957
  237MOL0     C31912   2.136   4.146   1.981 -0.0127  0.9954 -1.0734
  237MOL0     C31913   2.206   4.224   2.080  0.7808 -0.3966 -0.5292
  237MOL0     C31914   2.535   4.503   2.264 -0.3933 -0.9881 -0.1256
  237MOL0     C31915   2.441   4.603   2.311  0.6303 -0.7170  0.4077
  237MOL0     C31916   2.489   4.703   2.398  0.2683  0.2999 -0.5908
  237MOL0     C31917   2.619   4.717   2.441 -1.0793  1.4156 -0.4937
  237MOL0     O31918   2.674   4.805   2.528  0.1588  0.3011  0.4581
  237MOL0     C31919   2.600   4.924   2.558 -0.4062  0.3986  0.5634
  237MOL0     C31920   2.687   5.032   2.621  0.3643 -0.3795  0.3382
  237MOL0     C31921   2.749   4.978   2.745  0.3975 -0.6495 -0.7597
  237MOL0     C31922   2.858   5.066   2.809 -0.0834  0.5060  0.5528
  237MOL0     C31923   2.987   5.056   2.745 -0.2274  0.5188  0.0682
  237MOL0     C31924   3.095   5.063   2.702 -1.2817  0.1867 -0.8284
  237MOL0     C31925   2.704   4.610   2.401  0.2827  0.8990 -0.3547
  237MOL0     C31926   2.670   4.515   2.300  0.0046  0.0267  0.0026
  237MOL0     C31927   2.776   4.419   2.269 -0.6833 -0.6299 -0.1185
  237MOL0     H31928   2.434   4.374   1.882  1.2623 -1.9084 -0.0640
  237MOL0     H31929   2.287   4.255   1.699 -3.8395 -2.8323 -0.9411
  237MOL0     H31930   2.009   4.255   1.649  3.3707  0.7001  0.2154
  237MOL0     H31931   2.139   4.140   1.583  1.2179 -0.0083  2.0887
  237MOL0     H31932   1.858   4.047   1.638 -2.1219 -3.0500 -1.7817
  237MOL0     H31933   1.987   3.979   1.532 -4.3364 -1.7473 -1.3380
  237MOL0     H31934   1.970   4.230   1.431  1.9223 -1.7616 -1.0968
  237MOL0     H31935   1.807   4.210   1.483  0.8466  0.7845 -0.0107
  237MOL0     H31936   1.968   4.030   1.297  1.1990  3.1100  1.3322
  237MOL0     H31937   1.806   3.980   1.331  1.1336 -1.9968 -0.5230
  237MOL0     H31938   1.790   4.092   1.123 -2.8689 -1.0946  2.6456
  237MOL0     H31939   1.738   4.221   1.238 -0.6658 -0.3506 -1.4803
  237MOL0     H31940   1.948   4.330   1.210 -0.6685 -0.3564 -0.3406
  237MOL0     H31941   2.019   4.189   1.137 -1.7292 -2.8992  0.0424
  237MOL0     H31942   1.794   4.358   1.008  0.1153  1.8850 -2.5525
  237MOL0     H31943   1.871   4.225   0.938  1.1675 -0.3345 -0.1513
  237MOL0     H31944   2.095   4.346   0.962 -0.3411  0.5953  1.0801
  237MOL0     H31945   1.963   4.438   0.861 -0.7314  1.2522  0.0620
  237MOL0     H31946   1.822   4.607   0.990  0.4175  0.2217 -1.9061
  237MOL0     H31947   1.825   4.868   1.129 -0.1732  2.8398  1.2148
  237MOL0     H31948   1.951   4.842   1.252 -2.2950 -1.6909 -0.4226
  237MOL0     H31949   1.969   4.974   0.987 -0.3774  2.8315  0.2830
  237MOL0     H31950   1.913   5.063   1.140 -1.2662  2.0215 -2.1679
  237MOL0     H31951   2.181   4.951   1.065  0.6076  1.1439 -0.1885
  237MOL0     H31952   2.144   4.976   1.231  0.6215  1.2204 -0.3080
  237MOL0     H31953   2.262   5.173   1.098  0.2671  1.4087  0.2186
  237MOL0     H31954   2.140   5.225   1.205 -2.8735  3.5916 -2.7826
  237MOL0     H31955   1.976   5.418   0.852 -0.4321 -0.6181 -0.9126
  237MOL0     H31956   2.055   5.435   0.615  1.1429 -0.6999 -1.3380
  237MOL0     H31957   2.469   5.466   0.349 -1.0554  2.5185 -3.4082
  237MOL0     H31958   2.541   5.497   0.126 -1.7255  0.6052  1.4218
  237MOL0     H31959   2.354   5.324  -0.151 -2.2346  2.9474 -0.7717
  237MOL0     H31960   2.454   5.469  -0.095 -1.7185 -0.1674  0.3562
  237MOL0     H31961   2.498   5.496  -0.313 -0.6970  0.5360 -1.6675
  237MOL0     H31962   2.590   5.364  -0.316  0.2708  3.5502 -0.3997
  237MOL0     H31963   2.447   5.324  -0.483 -1.2578  0.1351 -0.9278
  237MOL0     H31964   2.388   5.214  -0.366  0.9884 -1.2118 -1.2714
  237MOL0     H31965   2.304   5.473  -0.469  2.8516 -0.9230  2.0099
  237MOL0     H31966   2.228   5.423  -0.314  1.8312  0.5420  0.7076
  237MOL0     H31967   2.163   5.323  -0.585 -0.0403 -0.6263  0.2977
  237MOL0     H31968   2.056   5.370  -0.443  2.7102  2.5625  3.3066
  237MOL0     H31969   2.219   5.112  -0.518 -0.0021  1.0443 -0.2805
  237MOL0     H31970   2.136   5.130  -0.359 -0.8801 -0.7177 -1.2398
  237MOL0     H31971   2.002   5.155  -0.634  1.3470 -3.0053 -1.8723
  237MOL0     H31972   1.917   5.147  -0.485 -2.5577 -1.3290 -3.4896
  237MOL0     H31973   1.960   4.927  -0.644  2.4869  0.7819 -0.5688
  237MOL0     H31974   2.083   4.912  -0.506  0.5504  0.9836  2.4266
  237MOL0     H31975   2.439   5.079   0.048  0.4671 -1.2603  1.8305
  237MOL0     H31976   2.384   5.053   0.288  0.8632 -0.6260  0.3672
  237MOL0     H31977   2.362   5.157   0.678 -0.4848 -0.4169 -1.2959
  237MOL0     H31978   2.247   5.082   0.891 -1.6238 -0.7964  2.8790
  237MOL0     H31979   2.051   4.101   2.032 -0.4723  2.5708 -0.3877
  237MOL0     H31980   2.164   4.233   2.180  3.2873 -3.3276  0.9709
  237MOL0     H31981   2.343   4.613   2.264  0.7908  0.2669  0.2745
  237MOL0     H31982   2.418   4.781   2.426  1.0419  0.0046  2.5041
  237MOL0     H31983   2.514   4.894   2.619 -2.4707 -1.8820 -3.0747
  237MOL0     H31984   2.536   4.969   2.481 -0.9644 -0.6312  0.3903
  237MOL0     H31985   2.615   5.109   2.649  1.1676  0.8955 -0.9401
  237MOL0     H31986   2.751   5.075   2.543 -1.2669  1.0259 -0.2690
  237MOL0     H31987   2.789   4.876   2.743 -1.8329 -1.6098 -0.0001
  237MOL0     H31988   2.660   4.980   2.809 -1.7813  0.2662 -3.6468
  237MOL0     H31989   2.842   5.174   2.814 -2.5899  0.3509 -1.7019
  237MOL0     H31990   2.874   5.025   2.909 -0.7808 -0.0319  0.4543
  237MOL0     H31991   3.193   5.077   2.663  0.3182  1.0016  2.9649
  237MOL0     H31992   2.804   4.619   2.441  0.0306 -0.6033  0.6580
  237MOL0     H31993   2.781   4.423   2.160 -0.1211 -0.4674 -0.0864
  237MOL0     H31994   2.866   4.440   2.327 -0.1695 -3.5869  0.2953
  237MOL0     H31995   2.743   4.323   2.310  0.0873 -2.1585 -2.8568
  238MOL0     O31996   3.773   4.780  10.626 -1.0246 -0.5879  0.4902
  238MOL0     C31997   3.810   4.897  10.600  0.3015 -0.1346 -0.0522
  238MOL0     O31998   3.756   4.971  10.499  0.2809 -0.7446 -0.2106
  238MOL0     C31999   3.679   4.914  10.400 -0.6239  0.5516  0.5192
  238MOL0     C32000   3.561   4.985  10.349 -0.1462  0.1743 -0.7035
  238MOL0     C32001   3.473   4.924  10.257 -0.2538 -0.4498 -0.6830
  238MOL0     C32002   3.515   4.804  10.200 -0.3861 -0.9040  0.3904
  238MOL0     O32003   3.454   4.736  10.093 -0.1497 -0.4985 -0.8093
  238MOL0     C32004   3.312   4.754  10.074  0.2410 -0.4551  0.3820
  238MOL0     C32005   3.234   4.641  10.002 -0.9424  0.1435  0.3816
  238MOL0     C32006   3.081   4.661  10.001  0.6948 -0.5041 -0.6862
  238MOL0     C32007   3.011   4.534  10.021  0.0573  0.1201 -0.3053
  238MOL0     C32008   2.864   4.545  10.004 -0.9165 -0.0396 -0.6328
  238MOL0     C32009   2.829   4.560   9.851  1.0674 -0.2786 -1.1475
  238MOL0     C32010   2.683   4.510   9.837 -0.6599  0.6543 -0.5803
  238MOL0     C32011   2.657   4.458   9.696  0.4167 -0.2169 -0.4261
  238MOL0     N32012   2.662   4.556   9.597  0.2557 -0.6032 -0.0332
  238MOL0     C32013   2.616   4.684   9.591  0.3406 -0.3871 -0.3434
  238MOL0     C32014   2.677   4.734   9.485 -0.2602  0.1487  0.3431
  238MOL0     C32015   2.674   4.878   9.433  1.3769 -0.2095  0.2877
  238MOL0     C32016   2.783   4.945   9.514 -0.2478  0.3716 -0.1909
  238MOL0     C32017   2.925   4.921   9.461  0.0461 -0.2743  0.3889
  238MOL0     C32018   3.016   5.006   9.551 -0.5807  0.3221 -0.1686
  238MOL0     O32019   2.981   5.145   9.565 -0.2104 -0.0993 -0.0461
  238MOL0     C32020   3.017   5.218   9.683  0.7853  0.5859  0.3913
  238MOL0     C32021   2.926   5.318   9.715 -0.3954 -0.3597  0.7823
  238MOL0     C32022   2.958   5.413   9.814  0.4188 -0.5781  0.2829
  238MOL0     C32023   3.081   5.404   9.882  0.2942  0.0870 -0.4468
  238MOL0     C32024   3.126   5.515   9.977  0.7947  1.2120 -0.0846
  238MOL0     O32025   3.258   5.507  10.022 -0.8665  0.2126  0.0052
  238MOL0     C32026   3.303   5.600  10.117 -1.7049  0.4056  0.4531
  238MOL0     C32027   3.365   5.721  10.069 -0.3190  0.6096 -0.0769
  238MOL0     C32028   3.422   5.809  10.159 -1.0679 -0.4699 -0.5963
  238MOL0     C32029   3.408   5.786  10.291  0.1796 -0.1430 -0.1446
  238MOL0     O32030   3.440   5.884  10.373  0.9869 -0.5745  0.8829
  238MOL0     C32031   3.339   5.960  10.435  0.2444  0.4162 -0.0671
  238MOL0     C32032   3.406   6.048  10.546 -0.0921 -0.0833 -0.3120
  238MOL0     C32033   3.323   6.065  10.669 -0.3538 -0.5748 -0.4951
  238MOL0     C32034   3.398   6.152  10.774 -0.2245  0.6261 -0.5295
  238MOL0     C32035   3.368   6.301  10.762  0.8485 -0.8996  0.1500
  238MOL0     C32036   3.361   6.376  10.899  0.4173  0.4295 -0.8698
  238MOL0     C32037   3.498   6.384  10.973  0.0794 -0.0836 -0.1639
  238MOL0     C32038   3.620   6.429  10.893  0.3667  0.3988  0.9184
  238MOL0    Cl32039   3.766   6.483  11.003 -0.4930  0.4691  0.3853
  238MOL0     C32040   3.343   5.666  10.340  0.0417 -0.8528  0.2531
  238MOL0     C32041   3.299   5.575  10.248  0.0369  1.4855 -0.7614
  238MOL0     O32042   3.045   5.600  10.010  0.6083 -1.0813  0.3842
  238MOL0     C32043   3.167   5.295   9.860  0.8688 -1.6923  0.0539
  238MOL0     C32044   3.130   5.209   9.762  0.8333  1.1092  0.3358
  238MOL0     N32045   2.753   4.634   9.428  0.9106  0.4944 -0.3550
  238MOL0     N32046   2.738   4.528   9.492 -0.0308  0.2360  0.1994
  238MOL0     C32047   3.627   4.734  10.236 -0.6292 -0.1626 -0.6835
  238MOL0     C32048   3.705   4.785  10.344 -1.3060  0.8916 -1.1971
  238MOL0     C32049   3.922   4.960  10.675  1.1345  0.3610  0.1700
  238MOL0     C32050   3.907   5.100  10.700  0.7401 -0.1683 -0.2247
  238MOL0     C32051   4.006   5.172  10.768 -0.5992  0.5806  0.0993
  238MOL0     C32052   4.121   5.105  10.813 -0.0579 -0.5136  1.0656
  238MOL0     O32053   4.212   5.183  10.871 -0.3634 -0.5093 -0.6040
  238MOL0     C32054   4.290   5.129  10.978  0.0378  0.0331 -0.9565
  238MOL0     C32055   4.349   5.231  11.081 -0.0973  0.3442 -0.6341
  238MOL0     C32056   4.240   5.327  11.123 -0.3153  0.2367  0.3505
  238MOL0     C32057   4.302   5.447  11.204  0.8179  0.0253  0.7851
  238MOL0     C32058   4.214   5.565  11.202  0.0930 -0.7173  0.7951
  238MOL0     C32059   4.133   5.659  11.219  1.6528  0.8804  0.7819
  238MOL0     C32060   4.129   4.961  10.802 -0.2734 -0.6378  0.2737
  238MOL0     C32061   4.027   4.888  10.740  0.1236  0.1963 -0.7426
  238MOL0     C32062   4.050   4.744  10.723  0.2589 -0.1538  0.4153
  238MOL0     H32063   3.544   5.087  10.383 -1.2090 -0.1084 -0.3475
  238MOL0     H32064   3.381   4.975  10.232  1.2764  0.7286 -4.7404
  238MOL0     H32065   3.269   4.763  10.174 -1.4322  0.2446 -0.3492
  238MOL0     H32066   3.298   4.849  10.021 -1.2030 -1.9454 -2.1279
  238MOL0     H32067   3.247   4.560  10.074  0.4662  0.5096  0.5549
  238MOL0     H32068   3.270   4.612   9.903  1.4891  1.8911  0.6546
  238MOL0     H32069   3.048   4.708   9.909 -1.8178 -0.7549  0.0122
  238MOL0     H32070   3.056   4.720  10.090  0.8797 -3.0085  1.1587
  238MOL0     H32071   3.045   4.469   9.940  1.1359  0.4127 -0.0986
  238MOL0     H32072   3.047   4.492  10.115 -1.0475 -1.0286 -0.3567
  238MOL0     H32073   2.821   4.449  10.034 -0.3983 -0.0414  0.1231
  238MOL0     H32074   2.824   4.625  10.067 -1.0726 -0.7116  0.1353
  238MOL0     H32075   2.835   4.660   9.807  3.4813 -0.9529 -2.5194
  238MOL0     H32076   2.887   4.497   9.783  1.4700  2.2577 -3.3284
  238MOL0     H32077   2.607   4.576   9.878 -2.0951 -0.4091 -1.4450
  238MOL0     H32078   2.663   4.430   9.909 -1.4119  1.1375 -0.2389
  238MOL0     H32079   2.728   4.376   9.681  1.2659 -0.4190  3.7235
  238MOL0     H32080   2.561   4.406   9.701  1.2744 -1.7213  1.3362
  238MOL0     H32081   2.548   4.733   9.660 -3.2037 -0.3957 -3.4770
  238MOL0     H32082   2.698   4.899   9.328  1.4546  4.1945  0.9847
  238MOL0     H32083   2.576   4.919   9.459  1.4210  0.4256 -0.4887
  238MOL0     H32084   2.769   5.053   9.523 -0.6424  0.3765 -0.8134
  238MOL0     H32085   2.772   4.911   9.617 -0.6124 -1.2601 -0.7247
  238MOL0     H32086   2.944   4.934   9.354  0.3364  0.9325  0.5730
  238MOL0     H32087   2.935   4.813   9.476 -3.8871 -1.6539 -4.3924
  238MOL0     H32088   3.115   4.998   9.505 -0.2966 -1.7606  0.6823
  238MOL0     H32089   3.015   4.961   9.650 -0.3193  0.9710  0.1337
  238MOL0     H32090   2.838   5.337   9.655 -0.3046 -1.2490  0.3441
  238MOL0     H32091   2.890   5.496   9.829 -3.5164 -2.9919 -2.2499
  238MOL0     H32092   3.372   5.732   9.961 -0.1267 -3.4222 -0.6374
  238MOL0     H32093   3.466   5.902  10.126 -1.9927  0.0270 -0.4414
  238MOL0     H32094   3.288   6.019  10.358 -0.4812  0.7947  0.6872
  238MOL0     H32095   3.259   5.899  10.479  0.9474 -0.8289 -0.4815
  238MOL0     H32096   3.502   6.009  10.579  0.0110 -2.3991 -3.0605
  238MOL0     H32097   3.430   6.152  10.522  1.2210 -0.6349 -1.5099
  238MOL0     H32098   3.229   6.111  10.636 -0.3996 -1.1377 -1.1734
  238MOL0     H32099   3.293   5.967  10.707 -2.9532  1.2694  2.7968
  238MOL0     H32100   3.504   6.131  10.755  0.1472 -0.5905  2.3479
  238MOL0     H32101   3.375   6.115  10.875 -0.5863 -3.7451 -1.9823
  238MOL0     H32102   3.284   6.327  10.697  2.0429 -0.3660 -1.2289
  238MOL0     H32103   3.452   6.346  10.707  1.3618 -0.9127  0.9069
  238MOL0     H32104   3.336   6.479  10.874  4.4956  0.9502 -3.8494
  238MOL0     H32105   3.281   6.346  10.967  0.9806  2.0622  0.5861
  238MOL0     H32106   3.520   6.291  11.027 -0.9830 -0.0494  0.3529
  238MOL0     H32107   3.482   6.458  11.053  1.1752 -1.4120  1.3551
  238MOL0     H32108   3.648   6.352  10.819  1.1274  0.6348  0.9456
  238MOL0     H32109   3.582   6.517  10.840  2.8818  2.7125  2.6786
  238MOL0     H32110   3.322   5.655  10.446  0.6656 -0.3871  0.4299
  238MOL0     H32111   3.236   5.490  10.272 -1.0671  2.4049 -0.2757
  238MOL0     H32112   3.266   5.291   9.905  0.3805 -1.6571  1.1614
  238MOL0     H32113   3.196   5.130   9.728  0.6839  2.0686 -2.4337
  238MOL0     H32114   3.650   4.637  10.193 -0.9703 -1.2656  1.4847
  238MOL0     H32115   3.789   4.722  10.371 -1.9449 -0.6754 -2.6924
  238MOL0     H32116   3.812   5.147  10.680  0.9561  0.1399 -0.5344
  238MOL0     H32117   3.998   5.280  10.768 -3.0085  0.4756 -0.6947
  238MOL0     H32118   4.372   5.070  10.937  0.2025  0.1272 -0.7673
  238MOL0     H32119   4.231   5.059  11.036  0.5165  0.8233  0.5272
  238MOL0     H32120   4.439   5.285  11.054 -1.0916  2.0471 -0.6615
  238MOL0     H32121   4.367   5.164  11.166 -0.4500 -0.8743 -1.4811
  238MOL0     H32122   4.165   5.289  11.194 -0.9273  1.1081  0.1982
  238MOL0     H32123   4.195   5.358  11.028 -0.1569  1.7521  0.7413
  238MOL0     H32124   4.310   5.404  11.305  0.7358 -1.3274  0.2399
  238MOL0     H32125   4.402   5.475  11.170  0.8262  0.3228  1.0533
  238MOL0     H32126   4.059   5.732  11.247  2.2080  1.0962  1.7478
  238MOL0     H32127   4.210   4.901  10.842  0.8958  0.4879 -0.3235
  238MOL0     H32128   4.043   4.717  10.617 -0.5900 -0.4138  0.5339
  238MOL0     H32129   4.152   4.717  10.754  1.7613  3.4780 -0.8677
  238MOL0     H32130   3.986   4.677  10.781 -0.0522 -0.1161  0.1154
  239MOL0     O32131   8.065   5.199   3.001 -0.2268 -0.5025 -0.0636
  239MOL0     C32132   7.962   5.180   2.937 -0.0670  0.2573  0.1892
  239MOL0     O32133   7.910   5.058   2.912  0.2370 -0.0461  0.3036
  239MOL0     C32134   7.968   4.948   2.956 -0.4728 -0.1392  0.0023
  239MOL0     C32135   7.926   4.875   3.073  0.1392 -0.1583 -0.0488
  239MOL0     C32136   7.984   4.768   3.123 -0.3856 -0.0222  0.2405
  239MOL0     C32137   8.086   4.709   3.046 -0.5624 -0.8681 -0.9726
  239MOL0     O32138   8.135   4.597   3.095 -0.2405 -0.5674  0.6088
  239MOL0     C32139   8.246   4.534   3.040  0.2197 -0.9491  0.7620
  239MOL0     C32140   8.378   4.594   3.090 -0.6618  0.0079  0.1362
  239MOL0     C32141   8.393   4.615   3.239  0.2239 -0.5520 -0.1953
  239MOL0     C32142   8.501   4.713   3.284  0.0828 -0.1471 -0.1302
  239MOL0     C32143   8.513   4.700   3.438  0.7460  0.9154  1.0454
  239MOL0     C32144   8.570   4.828   3.492 -0.4650 -0.9239  0.5211
  239MOL0     C32145   8.591   4.821   3.653 -0.6035  0.5498  0.5424
  239MOL0     C32146   8.691   4.705   3.701 -0.2172 -0.3456 -0.6322
  239MOL0     N32147   8.732   4.735   3.844  0.6641  0.2496  0.7555
  239MOL0     C32148   8.806   4.841   3.883  1.0418 -0.4683  0.7397
  239MOL0     C32149   8.831   4.827   4.018  0.7169 -0.6184  0.4533
  239MOL0     C32150   8.930   4.915   4.096  0.2168 -0.5053 -0.6137
  239MOL0     C32151   9.070   4.883   4.051 -0.8047 -0.7420 -0.1766
  239MOL0     C32152   9.183   4.869   4.157  1.4328  1.0067 -0.7526
  239MOL0     C32153   9.321   4.856   4.106 -0.4298  0.4736  0.4068
  239MOL0     O32154   9.349   4.964   4.012  0.3162  1.1607 -0.1605
  239MOL0     C32155   9.422   5.070   4.051  0.4087 -0.8047 -0.2394
  239MOL0     C32156   9.536   5.098   3.987 -0.4021  0.0286  0.1655
  239MOL0     C32157   9.618   5.197   4.023 -0.4780 -0.1847  0.7893
  239MOL0     C32158   9.589   5.278   4.129 -0.1361  0.9088 -0.3475
  239MOL0     C32159   9.665   5.404   4.150  0.0689 -0.0131  0.2944
  239MOL0     O32160   9.601   5.487   4.240 -0.9351  0.5179  0.8156
  239MOL0     C32161   9.650   5.613   4.264 -1.3019  1.2894 -0.3584
  239MOL0     C32162   9.599   5.729   4.211 -0.2654 -0.2190 -0.4574
  239MOL0     C32163   9.647   5.855   4.241 -1.0520 -0.9150 -0.1202
  239MOL0     C32164   9.752   5.869   4.338 -0.1128  0.0087 -0.5148
  239MOL0     O32165   9.807   5.988   4.373  1.0512 -0.2011  0.1143
  239MOL0     C32166   9.945   6.022   4.336 -0.0742  0.1606  0.2029
  239MOL0     C32167  10.007   6.144   4.400 -0.4523 -0.2206  0.2268
  239MOL0     C32168  10.136   6.202   4.337  0.2096 -0.4662 -0.3963
  239MOL0     C32169  10.256   6.105   4.341  0.7533  0.8521  0.8333
  239MOL0     C32170  10.386   6.156   4.282 -0.0344 -0.2615  0.0840
  239MOL0     C32171  10.447   6.284   4.350  0.5264  0.5097 -0.2083
  239MOL0     C32172  10.589   6.306   4.294 -0.2058  1.0934 -0.5057
  239MOL0     C32173  10.626   6.451   4.294 -0.3777  0.8061 -0.1652
  239MOL0    Cl32174  10.795   6.466   4.235  0.6185  0.1502  0.5197
  239MOL0     C32175   9.791   5.757   4.410  0.2960 -0.0455  1.1367
  239MOL0     C32176   9.738   5.631   4.379 -0.2261  0.3090  1.1075
  239MOL0     O32177   9.765   5.436   4.089  0.4594  0.4701  0.1938
  239MOL0     C32178   9.479   5.249   4.211 -1.2732  0.3026 -0.6317
  239MOL0     C32179   9.391   5.147   4.166 -0.1160  0.0059  0.3687
  239MOL0     N32180   8.774   4.703   4.055 -0.0405  0.2330 -0.1674
  239MOL0     N32181   8.717   4.658   3.951 -0.6207  0.5589  0.5226
  239MOL0     C32182   8.127   4.771   2.921  0.6900 -0.6203 -0.4011
  239MOL0     C32183   8.066   4.892   2.886  0.3594  0.4629  1.2417
  239MOL0     C32184   7.900   5.305   2.876 -0.1597  0.2277 -0.5410
  239MOL0     C32185   7.989   5.418   2.879 -0.5649 -0.3680 -0.4965
  239MOL0     C32186   7.953   5.541   2.829  1.2138 -0.7057 -0.0338
  239MOL0     C32187   7.818   5.568   2.789 -0.2485  1.3395  0.0159
  239MOL0     O32188   7.786   5.696   2.754 -0.1220 -0.6859  0.1193
  239MOL0     C32189   7.791   5.726   2.619  0.2102  1.0118  0.2177
  239MOL0     C32190   7.927   5.798   2.606  0.6449  0.3782 -0.8695
  239MOL0     C32191   7.950   5.851   2.466 -0.1808 -0.7395 -0.4319
  239MOL0     C32192   8.010   5.987   2.456  0.1004  0.3483  0.0331
  239MOL0     C32193   8.143   5.984   2.532 -0.0062 -0.5480  0.5663
  239MOL0     C32194   8.228   5.990   2.615 -0.0217  0.2132 -0.0173
  239MOL0     C32195   7.727   5.467   2.795  0.1457  0.4526 -0.4183
  239MOL0     C32196   7.771   5.332   2.830 -1.2138  0.3613  0.7354
  239MOL0     C32197   7.679   5.215   2.832  0.1499  0.1285 -0.1447
  239MOL0     H32198   7.834   4.918   3.112  0.2432  1.8629 -1.8461
  239MOL0     H32199   7.951   4.701   3.202 -0.2343 -2.2453 -1.4708
  239MOL0     H32200   8.238   4.430   3.073 -1.4298 -0.8368  0.7891
  239MOL0     H32201   8.242   4.531   2.931 -2.3488  0.1068  0.7796
  239MOL0     H32202   8.379   4.692   3.043  1.8794 -0.9679 -2.0784
  239MOL0     H32203   8.460   4.528   3.060  1.8397  2.6135  0.7599
  239MOL0     H32204   8.439   4.526   3.281  2.6925  0.2293 -1.0596
  239MOL0     H32205   8.296   4.633   3.287  0.4415 -2.3540  1.0113
  239MOL0     H32206   8.599   4.689   3.242  0.5853  1.8159 -0.1497
  239MOL0     H32207   8.473   4.815   3.255 -1.8848 -0.5897  0.0934
  239MOL0     H32208   8.414   4.681   3.480 -0.1351 -4.0416 -2.3578
  239MOL0     H32209   8.575   4.615   3.467 -0.0498 -0.6435 -1.5310
  239MOL0     H32210   8.673   4.829   3.457  0.0904  1.8586  1.9368
  239MOL0     H32211   8.509   4.912   3.458  0.3055  0.0569  1.5049
  239MOL0     H32212   8.502   4.815   3.716  0.9955 -1.1057  2.8480
  239MOL0     H32213   8.637   4.914   3.687 -1.5793  1.2460  0.0053
  239MOL0     H32214   8.639   4.610   3.694 -1.9250  0.6645 -2.5286
  239MOL0     H32215   8.782   4.708   3.640  1.0143  2.9014  1.1059
  239MOL0     H32216   8.857   4.905   3.812  2.5507 -4.0638 -1.7679
  239MOL0     H32217   8.899   5.018   4.075 -0.3864 -0.5356  0.0449
  239MOL0     H32218   8.927   4.899   4.205  2.0646  0.5236 -0.3802
  239MOL0     H32219   9.068   4.780   4.013  1.1555 -0.2701 -1.7513
  239MOL0     H32220   9.101   4.950   3.970  2.4012 -3.4445 -1.4038
  239MOL0     H32221   9.162   4.792   4.233  1.5008  2.5291  0.8818
  239MOL0     H32222   9.162   4.955   4.221 -2.9488 -0.3335 -0.0728
  239MOL0     H32223   9.336   4.753   4.073 -2.3500  0.9115 -2.1975
  239MOL0     H32224   9.388   4.862   4.192  0.1792 -4.9477  0.6347
  239MOL0     H32225   9.570   5.032   3.907  0.1444 -0.8258  1.0816
  239MOL0     H32226   9.713   5.209   3.971 -2.0469  1.3392 -1.9584
  239MOL0     H32227   9.522   5.717   4.136 -2.0984 -3.2817  1.6771
  239MOL0     H32228   9.613   5.944   4.191 -2.4277 -0.5189  1.4458
  239MOL0     H32229   9.994   5.925   4.333 -0.3589  0.0327 -0.7640
  239MOL0     H32230   9.929   6.034   4.229  1.0252 -1.0614 -0.1224
  239MOL0     H32231   9.941   6.228   4.426  1.5024  0.8099  2.2458
  239MOL0     H32232  10.058   6.117   4.493  1.6072 -1.8370 -1.2685
  239MOL0     H32233  10.128   6.242   4.236  0.0047  2.5505  0.6976
  239MOL0     H32234  10.175   6.290   4.391 -1.0644  0.0449 -0.2668
  239MOL0     H32235  10.236   6.014   4.283  2.3319  2.8846 -3.3024
  239MOL0     H32236  10.282   6.075   4.443  0.5135  0.4814  0.7873
  239MOL0     H32237  10.376   6.171   4.174  0.4222 -1.1940 -0.0996
  239MOL0     H32238  10.462   6.080   4.303 -0.8861 -1.1446  0.0278
  239MOL0     H32239  10.371   6.362   4.341 -3.2339 -2.6826  0.8386
  239MOL0     H32240  10.465   6.250   4.453  3.6834 -3.5440 -1.8071
  239MOL0     H32241  10.610   6.261   4.197  0.6314  2.4660 -0.9812
  239MOL0     H32242  10.655   6.256   4.366 -0.7783  3.8348  2.1460
  239MOL0     H32243  10.555   6.488   4.219 -1.1831  0.4563  0.4072
  239MOL0     H32244  10.598   6.507   4.384 -1.0041  1.8818 -1.0044
  239MOL0     H32245   9.850   5.766   4.501 -0.2956  1.3375  1.4079
  239MOL0     H32246   9.759   5.554   4.453 -1.0393 -1.6569 -0.6008
  239MOL0     H32247   9.451   5.300   4.303  2.5592  0.5713  0.5455
  239MOL0     H32248   9.300   5.124   4.220 -0.0104 -0.8873  0.1926
  239MOL0     H32249   8.200   4.723   2.858  0.9108 -2.6533  1.2863
  239MOL0     H32250   8.098   4.958   2.805 -0.0501  0.7048  1.2708
  239MOL0     H32251   8.093   5.413   2.909 -0.1844 -0.5729 -1.7601
  239MOL0     H32252   8.021   5.622   2.805 -1.0374 -0.1147 -6.2222
  239MOL0     H32253   7.701   5.786   2.602 -1.1070  0.0251  3.0937
  239MOL0     H32254   7.786   5.641   2.550 -0.4935  0.4148  0.9796
  239MOL0     H32255   8.014   5.731   2.612  1.8664  1.9246 -0.4202
  239MOL0     H32256   7.936   5.872   2.686  3.1122 -1.5604  0.7926
  239MOL0     H32257   7.853   5.854   2.415  0.2990 -1.8279 -1.4751
  239MOL0     H32258   8.016   5.778   2.417 -0.2732 -1.9550  1.1791
  239MOL0     H32259   8.020   6.013   2.350 -0.3356 -1.3590 -0.4738
  239MOL0     H32260   7.941   6.060   2.496  0.8589  1.1450 -0.0858
  239MOL0     H32261   8.294   5.981   2.698  0.7011  0.8362 -0.5029
  239MOL0     H32262   7.627   5.498   2.766  0.1086 -0.1409 -0.9473
  239MOL0     H32263   7.578   5.251   2.812 -0.4705 -0.3622  1.8007
  239MOL0     H32264   7.717   5.152   2.752 -1.5566 -0.5797 -0.4350
  239MOL0     H32265   7.675   5.167   2.931 -3.0863 -1.1878 -0.7802
  240MOL0     O32266   5.007  10.355   2.672 -0.5664 -0.4345 -0.1096
  240MOL0     C32267   5.108  10.325   2.728  0.9765 -0.1825  0.4476
  240MOL0     O32268   5.225  10.379   2.697  0.4993 -0.5882  0.6209
  240MOL0     C32269   5.251  10.465   2.596 -1.1442 -0.3310  0.0752
  240MOL0     C32270   5.180  10.502   2.480 -0.2370  1.5563  0.1408
  240MOL0     C32271   5.236  10.599   2.391 -0.6863 -0.1234  0.1587
  240MOL0     C32272   5.364  10.650   2.411  0.5441  0.3679  0.9032
  240MOL0     O32273   5.419  10.727   2.317 -0.1920 -0.3851 -0.0972
  240MOL0     C32274   5.554  10.772   2.333 -0.1941 -0.2129 -0.3863
  240MOL0     C32275   5.603  10.840   2.211  0.1591 -0.5218 -0.1026
  240MOL0     C32276   5.533  10.977   2.191 -0.3824  1.1498  0.5943
  240MOL0     C32277   5.591  11.079   2.287 -0.2570 -1.3134 -0.0718
  240MOL0     C32278   5.529  11.225   2.271 -0.0580  1.2627 -0.3284
  240MOL0     C32279   5.447  11.253   2.396 -0.3854 -1.2416 -0.6676
  240MOL0     C32280   5.426  11.404   2.425 -0.3382  0.4415 -0.1438
  240MOL0     C32281   5.298  11.456   2.358 -0.8922  0.0689 -0.3629
  240MOL0     N32282   5.316  11.475   2.213 -0.4186 -0.3364 -0.0102
  240MOL0     C32283   5.228  11.413   2.132  0.3615 -0.6998 -0.0200
  240MOL0     C32284   5.252  11.468   2.005 -0.9104 -1.0282 -0.4076
  240MOL0     C32285   5.242  11.412   1.866 -0.5322  0.0392 -0.9452
  240MOL0     C32286   5.107  11.457   1.805 -1.3196  0.4574  0.7336
  240MOL0     C32287   5.088  11.608   1.787  0.3469 -0.8775  0.3678
  240MOL0     C32288   5.200  11.678   1.702 -0.7334  0.3765  0.2486
  240MOL0     O32289   5.190  11.630   1.563  0.6488 -0.2968 -1.1069
  240MOL0     C32290   5.290  11.652   1.480  0.0548 -0.6027  0.5758
  240MOL0     C32291   5.274  11.613   1.345  0.9318 -0.1418  0.0184
  240MOL0     C32292   5.364  11.634   1.241  0.4403 -0.2508  0.5230
  240MOL0     C32293   5.488  11.696   1.268 -0.0147 -0.4013  0.0955
  240MOL0     C32294   5.598  11.704   1.168 -0.0964 -0.6425  0.7521
  240MOL0     O32295   5.712  11.779   1.200 -0.4588 -0.3491  0.6088
  240MOL0     C32296   5.801  11.790   1.094 -0.6271  0.3525  0.3114
  240MOL0     C32297   5.805  11.911   1.018 -1.0689  0.9054 -0.7043
  240MOL0     C32298   5.902  11.935   0.929  0.5681  0.4242  0.5473
  240MOL0     C32299   5.988  11.830   0.894  0.0902  0.4346 -0.4062
  240MOL0     O32300   6.087  11.848   0.802  0.7186 -0.0006 -0.0264
  240MOL0     C32301   6.059  11.949   0.701 -0.2643  0.2752  0.1165
  240MOL0     C32302   6.181  11.950   0.606  0.0586 -0.4185 -0.0241
  240MOL0     C32303   6.174  12.052   0.490  0.1694  0.7007 -0.7917
  240MOL0     C32304   6.209  12.208   0.526 -0.1353  0.3744 -0.1274
  240MOL0     C32305   6.179  12.313   0.403  0.1909 -0.0978 -0.4300
  240MOL0     C32306   6.035  12.315   0.363 -0.4068 -0.7138 -0.6336
  240MOL0     C32307   5.992  12.409   0.255 -0.1941 -0.2173 -0.0576
  240MOL0     C32308   6.030  12.366   0.107 -0.3436 -0.1567 -0.1266
  240MOL0    Cl32309   6.203  12.423   0.083 -0.4623  0.8204 -0.6106
  240MOL0     C32310   5.978  11.706   0.953 -0.7387 -0.3163 -0.2813
  240MOL0     C32311   5.885  11.684   1.055  0.1567  0.2781  0.1320
  240MOL0     O32312   5.563  11.671   1.056  0.3459  0.1200  0.2874
  240MOL0     C32313   5.502  11.752   1.402 -0.0999 -0.5796 -0.0714
  240MOL0     C32314   5.416  11.722   1.503  0.3145 -0.3356 -0.5273
  240MOL0     N32315   5.344  11.579   2.022 -0.4476  0.8045  0.2606
  240MOL0     N32316   5.380  11.572   2.148 -0.7596 -0.7532 -0.3418
  240MOL0     C32317   5.433  10.607   2.524 -0.1859 -0.0702 -0.5833
  240MOL0     C32318   5.380  10.514   2.610 -0.5081  0.5100  0.0795
  240MOL0     C32319   5.100  10.210   2.822 -1.0472 -0.4306 -1.0879
  240MOL0     C32320   4.967  10.148   2.851 -0.7415  0.0586  0.1029
  240MOL0     C32321   4.954  10.053   2.949  0.4954 -1.1635 -0.0595
  240MOL0     C32322   5.053  10.015   3.038  0.6089  0.9719  0.5096
  240MOL0     O32323   5.010   9.940   3.146  0.0737  1.0598  0.1864
  240MOL0     C32324   5.121   9.861   3.204 -0.7662 -0.2655  0.1382
  240MOL0     C32325   5.062   9.743   3.273  0.1526 -0.2063 -0.1754
  240MOL0     C32326   4.988   9.789   3.410  0.1235 -0.4932 -0.5013
  240MOL0     C32327   4.915   9.671   3.471  0.3621  0.1312  0.5383
  240MOL0     C32328   4.794   9.623   3.400 -1.0588  0.5015 -0.2431
  240MOL0     C32329   4.702   9.565   3.350  0.1003  0.5728  1.5525
  240MOL0     C32330   5.183  10.069   3.008 -0.2306  0.0519  0.1631
  240MOL0     C32331   5.203  10.156   2.899  0.5391  0.0409  0.6143
  240MOL0     C32332   5.344  10.190   2.867  0.5476  0.4483  0.3046
  240MOL0     H32333   5.084  10.458   2.456 -1.7051  4.0061  1.0611
  240MOL0     H32334   5.172  10.640   2.313 -3.0932  0.6395  2.3916
  240MOL0     H32335   5.570  10.838   2.419 -2.1400  1.1203 -0.9609
  240MOL0     H32336   5.621  10.689   2.357  0.6338  0.4224 -0.4828
  240MOL0     H32337   5.590  10.772   2.126 -0.5428 -1.1540  0.4944
  240MOL0     H32338   5.710  10.851   2.231  0.0116 -2.7315  2.6501
  240MOL0     H32339   5.430  10.946   2.212  0.4993 -2.9078 -0.2151
  240MOL0     H32340   5.558  11.007   2.089 -0.9767 -3.6725 -1.2137
  240MOL0     H32341   5.587  11.046   2.392  0.2761 -0.3900  0.2534
  240MOL0     H32342   5.696  11.070   2.259 -0.3127 -0.2637 -0.6942
  240MOL0     H32343   5.612  11.293   2.254  0.0916  0.5646 -2.7093
  240MOL0     H32344   5.475  11.234   2.176  0.7609  0.9666 -0.8326
  240MOL0     H32345   5.365  11.181   2.393  0.3852 -2.1581 -0.2445
  240MOL0     H32346   5.517  11.223   2.474 -0.0789  0.0542 -0.4170
  240MOL0     H32347   5.519  11.456   2.402  1.1320 -1.5762  0.8965
  240MOL0     H32348   5.415  11.424   2.532  0.8920  0.1969  0.0323
  240MOL0     H32349   5.206  11.404   2.388  0.8823 -0.5859  5.2025
  240MOL0     H32350   5.288  11.556   2.400 -4.2188 -0.8503  1.3739
  240MOL0     H32351   5.183  11.316   2.153  0.0290 -1.3149 -3.0611
  240MOL0     H32352   5.329  11.437   1.806  4.2317 -3.9473  3.3285
  240MOL0     H32353   5.239  11.302   1.870  0.3818 -0.0631 -2.4057
  240MOL0     H32354   5.101  11.413   1.705 -0.4120  1.0182  0.4159
  240MOL0     H32355   5.025  11.424   1.869 -3.5125 -0.1641 -2.1623
  240MOL0     H32356   5.074  11.671   1.875  1.6743  2.0246 -1.3650
  240MOL0     H32357   5.001  11.623   1.722 -0.7921 -2.6748  1.3858
  240MOL0     H32358   5.300  11.655   1.740  1.5032  3.1319 -3.3311
  240MOL0     H32359   5.194  11.787   1.693 -3.2947  0.1387 -2.1249
  240MOL0     H32360   5.173  11.580   1.322  0.8895  1.4636 -2.5000
  240MOL0     H32361   5.322  11.605   1.145  1.3015 -1.2782  0.4290
  240MOL0     H32362   5.733  11.980   1.061  0.2797  2.8827 -1.5003
  240MOL0     H32363   5.893  12.033   0.882 -0.2602 -0.3390 -0.9721
  240MOL0     H32364   5.977  11.910   0.639 -0.0139 -1.3867  0.7812
  240MOL0     H32365   6.046  12.049   0.742  0.6517  0.0160  1.0562
  240MOL0     H32366   6.273  11.987   0.653 -0.2711  0.0343  0.2781
  240MOL0     H32367   6.204  11.847   0.577 -3.2148 -0.4388 -3.4329
  240MOL0     H32368   6.233  12.011   0.408  3.9371  1.9671  1.0336
  240MOL0     H32369   6.068  12.056   0.463 -0.8832 -2.2090  2.1923
  240MOL0     H32370   6.315  12.213   0.556  0.1803 -0.3134 -1.0802
  240MOL0     H32371   6.153  12.236   0.616  1.2194  1.7995  0.3254
  240MOL0     H32372   6.241  12.275   0.321  1.4302  1.6588 -0.3444
  240MOL0     H32373   6.199  12.417   0.428 -1.2714  0.3491 -1.0141
  240MOL0     H32374   5.978  12.222   0.350 -2.0140 -0.1848  1.8702
  240MOL0     H32375   5.984  12.353   0.452 -1.1579 -2.4176 -0.2766
  240MOL0     H32376   6.006  12.516   0.270 -1.7938  0.7859 -4.2753
  240MOL0     H32377   5.883  12.401   0.251 -0.2949  0.7994  0.4020
  240MOL0     H32378   6.018  12.259   0.089  1.4888 -0.5548  0.7498
  240MOL0     H32379   5.966  12.430   0.046 -0.7718 -0.0641  0.4123
  240MOL0     H32380   6.039  11.617   0.943  0.6428  0.5274  0.2953
  240MOL0     H32381   5.887  11.590   1.107  0.9323  1.3950  2.2214
  240MOL0     H32382   5.589  11.813   1.426 -1.3567  1.9152 -1.4337
  240MOL0     H32383   5.437  11.768   1.599  0.6857  0.5027 -1.0019
  240MOL0     H32384   5.534  10.642   2.544 -0.4370 -0.0770  0.8572
  240MOL0     H32385   5.452  10.468   2.678  1.6192  1.8835 -1.1349
  240MOL0     H32386   4.879  10.181   2.796 -1.5232 -0.7589  0.8143
  240MOL0     H32387   4.856  10.009   2.968  0.2441 -0.1317  1.1704
  240MOL0     H32388   5.182   9.918   3.275 -0.7420 -0.4447  0.2641
  240MOL0     H32389   5.177   9.814   3.123 -0.7418 -2.6769  1.4411
  240MOL0     H32390   5.148   9.682   3.304 -1.3788 -1.1838  2.4534
  240MOL0     H32391   4.995   9.685   3.209 -0.5413 -0.9500  1.1794
  240MOL0     H32392   4.910   9.863   3.388  2.0079  2.2266  1.3037
  240MOL0     H32393   5.066   9.830   3.475  0.0857  0.5618 -1.0897
  240MOL0     H32394   4.983   9.591   3.503 -0.1748 -0.4851  0.1718
  240MOL0     H32395   4.871   9.720   3.558  0.1660  2.5254 -0.8021
  240MOL0     H32396   4.627   9.516   3.291  2.6183 -0.2810 -1.1895
  240MOL0     H32397   5.272  10.029   3.055  1.8535  0.5031 -3.0905
  240MOL0     H32398   5.413  10.116   2.909  1.6103 -0.5999 -3.0330
  240MOL0     H32399   5.368  10.169   2.763  0.5824 -0.2427  0.4441
  240MOL0     H32400   5.378  10.288   2.902  2.1331 -0.6383  1.9769
  241MOL0     O32401   5.455  11.046   3.014 -0.7275  0.0035 -0.2106
  241MOL0     C32402   5.417  10.934   3.027 -0.4226 -0.5577 -0.6095
  241MOL0     O32403   5.346  10.861   2.938 -0.0917 -0.2694 -0.2193
  241MOL0     C32404   5.293  10.929   2.836 -0.0436 -0.9674  0.4291
  241MOL0     C32405   5.337  10.899   2.704  0.3798  0.1955  0.2240
  241MOL0     C32406   5.296  10.981   2.589 -0.6610  0.5480 -0.1272
  241MOL0     C32407   5.197  11.077   2.610  0.1039 -0.0131  1.0831
  241MOL0     O32408   5.135  11.132   2.497 -0.4282  1.4602  0.4395
  241MOL0     C32409   4.997  11.108   2.498  0.5131  0.2180  0.2286
  241MOL0     C32410   4.950  11.171   2.366  0.7417  0.1593  0.2165
  241MOL0     C32411   5.013  11.095   2.252  0.1188  0.1424 -0.3035
  241MOL0     C32412   4.953  11.131   2.117 -0.1247  0.0423  0.5824
  241MOL0     C32413   5.050  11.069   2.008  0.4873 -0.4811  0.6525
  241MOL0     C32414   4.991  11.081   1.876  0.6666 -0.3575  1.1584
  241MOL0     C32415   4.865  10.997   1.849  0.4957  0.0130  0.0018
  241MOL0     C32416   4.822  11.008   1.702 -0.4372 -0.3421 -0.4643
  241MOL0     N32417   4.711  10.916   1.669 -0.1528 -0.4453 -0.2382
  241MOL0     C32418   4.688  10.784   1.720 -0.3894  0.2620 -0.8149
  241MOL0     C32419   4.578  10.740   1.663 -1.5374  0.2825  0.0104
  241MOL0     C32420   4.508  10.609   1.676  0.3522  0.9931 -0.0839
  241MOL0     C32421   4.569  10.488   1.598  0.6058  0.4493 -0.0008
  241MOL0     C32422   4.494  10.349   1.631  0.1880 -0.1223 -0.0814
  241MOL0     C32423   4.351  10.334   1.576 -0.6086 -0.0955 -0.5105
  241MOL0     O32424   4.311  10.198   1.616  0.3130  0.8411  0.4682
  241MOL0     C32425   4.212  10.131   1.554  0.8413 -0.8212  0.6225
  241MOL0     C32426   4.145  10.181   1.440  0.3274  0.4487  0.1961
  241MOL0     C32427   4.035  10.111   1.383 -0.1595 -0.8592 -0.6977
  241MOL0     C32428   3.994   9.989   1.429  0.0861  0.4840  0.2829
  241MOL0     C32429   3.882   9.922   1.363  0.3933  0.8770  0.2844
  241MOL0     O32430   3.833   9.967   1.246  0.2858 -0.0723  0.1974
  241MOL0     C32431   3.791   9.874   1.161 -0.9610  0.0898 -0.2551
  241MOL0     C32432   3.881   9.830   1.056 -0.2356  0.1680  0.3015
  241MOL0     C32433   3.842   9.726   0.974  0.5946  1.0988  0.4657
  241MOL0     C32434   3.713   9.674   0.974 -0.7480  0.0340  0.3142
  241MOL0     O32435   3.665   9.563   0.900 -0.1924 -0.7430 -0.1681
  241MOL0     C32436   3.760   9.494   0.821  0.4129  0.3554  0.8102
  241MOL0     C32437   3.691   9.377   0.724  0.6232  0.5204  0.1597
  241MOL0     C32438   3.573   9.433   0.651 -0.3923 -0.4168  0.4851
  241MOL0     C32439   3.518   9.341   0.552  0.4199 -0.3390  0.3147
  241MOL0     C32440   3.395   9.393   0.484  0.5877 -0.8385  0.0820
  241MOL0     C32441   3.413   9.517   0.403  0.0314  0.6161 -0.9965
  241MOL0     C32442   3.312   9.538   0.291 -0.2828 -1.3896 -0.1863
  241MOL0     C32443   3.174   9.532   0.340  0.5486  0.0180  0.3612
  241MOL0    Cl32444   3.131   9.675   0.428 -0.3148  0.3113  0.2540
  241MOL0     C32445   3.631   9.720   1.070  0.2188  0.2363  0.3750
  241MOL0     C32446   3.670   9.818   1.164  0.0197 -0.2603 -0.6786
  241MOL0     O32447   3.836   9.829   1.425 -0.4427 -0.1176 -0.5274
  241MOL0     C32448   4.058   9.934   1.542 -1.1141  0.0801 -1.2198
  241MOL0     C32449   4.163  10.010   1.605 -0.0186  0.1837  0.5696
  241MOL0     N32450   4.523  10.840   1.585 -0.2162 -0.5575 -0.0910
  241MOL0     N32451   4.602  10.944   1.595 -1.6488  0.2349  0.7164
  241MOL0     C32452   5.160  11.116   2.736 -0.1089  0.1103 -0.1967
  241MOL0     C32453   5.198  11.042   2.849 -0.1443  0.0489  0.1006
  241MOL0     C32454   5.436  10.861   3.147 -0.7567  0.1190  0.0437
  241MOL0     C32455   5.319  10.801   3.207  0.4624 -0.2103  0.3630
  241MOL0     C32456   5.324  10.706   3.310  0.4177 -0.1814  1.0836
  241MOL0     C32457   5.442  10.706   3.381 -0.5112 -0.3627  0.8086
  241MOL0     O32458   5.431  10.623   3.487 -0.8319 -0.1363 -1.2332
  241MOL0     C32459   5.552  10.617   3.569  0.2911 -0.2400  0.9702
  241MOL0     C32460   5.515  10.536   3.707  0.5249 -0.7319 -0.2436
  241MOL0     C32461   5.496  10.381   3.695  0.1000  0.3694 -0.0970
  241MOL0     C32462   5.624  10.313   3.725 -0.7248  0.0829  0.0940
  241MOL0     C32463   5.685  10.336   3.859  0.5624 -0.0270  0.4695
  241MOL0     C32464   5.760  10.341   3.958  0.3538  0.3194  0.1468
  241MOL0     C32465   5.557  10.782   3.333 -0.1658  0.2586 -0.8537
  241MOL0     C32466   5.563  10.853   3.221 -0.8442  0.1043  0.4559
  241MOL0     C32467   5.691  10.899   3.167  0.1135 -0.5415  0.1407
  241MOL0     H32468   5.404  10.816   2.685  0.3647  0.2206  0.0572
  241MOL0     H32469   5.326  10.951   2.489 -0.2570  0.8648 -0.1052
  241MOL0     H32470   4.960  11.005   2.499 -0.2329  0.4151  3.1125
  241MOL0     H32471   4.949  11.157   2.584  0.7777 -0.5449  0.8250
  241MOL0     H32472   4.959  11.278   2.348  3.7213 -0.2597 -1.4522
  241MOL0     H32473   4.843  11.150   2.354  0.9869 -2.1777  1.4599
  241MOL0     H32474   5.016  10.987   2.271  4.0725 -0.4306 -2.8415
  241MOL0     H32475   5.117  11.122   2.232  1.0455 -0.9530  2.5326
  241MOL0     H32476   4.852  11.088   2.118 -0.5533  1.0318  1.0418
  241MOL0     H32477   4.954  11.240   2.103  2.1412 -0.2386 -2.5332
  241MOL0     H32478   5.140  11.131   2.009 -1.1232  2.0385 -0.6666
  241MOL0     H32479   5.076  10.966   2.035 -0.2039 -1.3855 -1.8358
  241MOL0     H32480   4.965  11.185   1.852  0.6038  0.1145  3.1293
  241MOL0     H32481   5.067  11.052   1.803 -0.6900  0.5378 -0.7164
  241MOL0     H32482   4.782  11.038   1.907 -0.0900  4.2247 -3.2823
  241MOL0     H32483   4.891  10.897   1.886  1.8139  0.0571 -0.7453
  241MOL0     H32484   4.792  11.112   1.693  3.5066  1.1700  1.6804
  241MOL0     H32485   4.905  10.998   1.632 -1.1269  2.2195 -1.7442
  241MOL0     H32486   4.743  10.727   1.794  0.9870  1.1463 -1.1262
  241MOL0     H32487   4.511  10.585   1.783 -0.1806  2.6283  0.3250
  241MOL0     H32488   4.408  10.639   1.645  0.3764  4.2419  2.4167
  241MOL0     H32489   4.554  10.521   1.495 -0.1693  3.5441  1.0000
  241MOL0     H32490   4.676  10.484   1.618  0.2686  1.7339  2.4109
  241MOL0     H32491   4.503  10.338   1.739  3.6041 -1.1307 -0.3721
  241MOL0     H32492   4.549  10.266   1.587 -1.8514 -0.1855 -2.7511
  241MOL0     H32493   4.349  10.343   1.467 -5.5954  2.0312 -0.4987
  241MOL0     H32494   4.281  10.411   1.609 -1.2812 -1.4871  1.5018
  241MOL0     H32495   4.166  10.279   1.399 -0.7272  0.7435  0.3190
  241MOL0     H32496   3.993  10.155   1.293 -0.7719  0.8911  0.3995
  241MOL0     H32497   3.974   9.883   1.037 -0.1847  0.4230  1.2305
  241MOL0     H32498   3.902   9.672   0.901 -2.4810 -0.4019 -1.1497
  241MOL0     H32499   3.825   9.562   0.764  2.4161 -0.8211  1.5887
  241MOL0     H32500   3.825   9.431   0.883  0.9279  0.5560  0.4804
  241MOL0     H32501   3.771   9.328   0.667  0.2543 -2.5421  2.0296
  241MOL0     H32502   3.659   9.306   0.801 -0.6641  0.6473 -0.2327
  241MOL0     H32503   3.487   9.460   0.714 -3.2112  5.5059 -4.7260
  241MOL0     H32504   3.585   9.528   0.598 -0.7166  0.4628  1.9313
  241MOL0     H32505   3.508   9.238   0.586 -1.8361 -1.2505 -2.6135
  241MOL0     H32506   3.592   9.332   0.472  3.4672 -3.6552  3.1879
  241MOL0     H32507   3.320   9.410   0.562  1.8723  1.3372  0.9417
  241MOL0     H32508   3.364   9.316   0.412  1.5246 -2.2270  1.1237
  241MOL0     H32509   3.419   9.606   0.467  2.0394 -1.5957  2.1529
  241MOL0     H32510   3.509   9.506   0.353 -1.1175  0.6523 -3.3209
  241MOL0     H32511   3.319   9.455   0.220 -0.7441 -0.9478 -0.7617
  241MOL0     H32512   3.340   9.631   0.240 -2.3781 -0.3435  0.4259
  241MOL0     H32513   3.090   9.540   0.271 -0.3133  1.4170  1.5093
  241MOL0     H32514   3.163   9.438   0.394 -2.2310  0.2672  0.3920
  241MOL0     H32515   3.534   9.673   1.080  1.9505 -3.4142  1.7875
  241MOL0     H32516   3.586   9.846   1.227 -0.7156 -2.4377 -0.6016
  241MOL0     H32517   4.026   9.836   1.577  1.4878 -0.9594 -1.5282
  241MOL0     H32518   4.214   9.955   1.683  0.1752  0.4295  0.6179
  241MOL0     H32519   5.098  11.204   2.750 -0.9074 -0.3777 -0.6139
  241MOL0     H32520   5.179  11.071   2.952  1.5737 -0.2541  0.5301
  241MOL0     H32521   5.224  10.816   3.156 -0.2678  1.4239  2.0622
  241MOL0     H32522   5.236  10.663   3.355  0.3643  0.8455  1.9871
  241MOL0     H32523   5.588  10.713   3.606  0.8777 -0.6976  1.6130
  241MOL0     H32524   5.621  10.548   3.519 -0.6036  0.6783 -1.7195
  241MOL0     H32525   5.423  10.583   3.742  1.4192  1.1364 -0.2799
  241MOL0     H32526   5.576  10.566   3.793  1.2980  0.1467 -1.0751
  241MOL0     H32527   5.439  10.355   3.604 -2.4026 -0.0260  1.4886
  241MOL0     H32528   5.429  10.338   3.770  0.6689 -0.0228  0.1912
  241MOL0     H32529   5.615  10.205   3.708 -2.4584  0.1701  0.3042
  241MOL0     H32530   5.700  10.356   3.659 -0.2450 -1.2910 -0.2767
  241MOL0     H32531   5.821  10.328   4.045  2.6787 -1.0601 -1.5792
  241MOL0     H32532   5.646  10.767   3.393 -0.0603  3.7457  0.1420
  241MOL0     H32533   5.720  10.837   3.082 -2.1296 -1.8739  0.2455
  241MOL0     H32534   5.676  11.000   3.130  0.3202 -0.3542  0.5633
  241MOL0     H32535   5.772  10.904   3.241 -0.4190 -0.1528  0.7130
  242MOL0     O32536  10.179   6.023   6.124  0.6149  0.2394 -0.0477
  242MOL0     C32537  10.173   6.141   6.122  0.2046 -0.4537  0.2790
  242MOL0     O32538  10.276   6.222   6.097 -0.2214  0.3396  0.6324
  242MOL0     C32539  10.394   6.174   6.050 -0.7968  0.1190  0.3659
  242MOL0     C32540  10.470   6.074   6.119  0.0383 -0.3023  0.7462
  242MOL0     C32541  10.589   6.026   6.059 -0.2353 -0.3443 -0.7454
  242MOL0     C32542  10.630   6.076   5.927  0.5890 -0.6124 -0.0662
  242MOL0     O32543  10.735   6.029   5.850  0.5544  0.5350 -0.1298
  242MOL0     C32544  10.844   5.973   5.918 -0.4748  0.0460  0.4318
  242MOL0     C32545  10.912   6.080   6.001 -0.5477 -0.2463 -0.3680
  242MOL0     C32546  11.062   6.066   6.015 -0.1204  0.1107  0.0677
  242MOL0     C32547  11.113   6.188   6.093 -0.0377  0.5855 -0.4900
  242MOL0     C32548  11.246   6.184   6.175  0.2258 -0.3032  1.1666
  242MOL0     C32549  11.355   6.186   6.073 -0.4532 -0.0844  1.4659
  242MOL0     C32550  11.381   6.333   6.019  0.3085 -0.8455  0.7106
  242MOL0     C32551  11.471   6.341   5.898 -0.0727 -0.4807  0.1329
  242MOL0     N32552  11.427   6.263   5.786  0.6055  0.2670 -0.7838
  242MOL0     C32553  11.312   6.259   5.721 -0.8066  1.0300  0.1092
  242MOL0     C32554  11.328   6.166   5.620 -0.3478 -0.2904 -0.0597
  242MOL0     C32555  11.221   6.140   5.525 -0.3688 -0.0223  0.3107
  242MOL0     C32556  11.146   6.015   5.590 -0.0731  0.2952 -0.1724
  242MOL0     C32557  11.017   6.000   5.511  0.8984  0.3280  0.5303
  242MOL0     C32558  10.948   5.875   5.528  0.5574 -0.1100 -0.8243
  242MOL0     O32559  10.848   5.870   5.430 -0.2644 -1.2260  0.1938
  242MOL0     C32560  10.753   5.778   5.448  0.2994  0.0432  0.0985
  242MOL0     C32561  10.631   5.810   5.496 -0.6288 -0.2570  0.3566
  242MOL0     C32562  10.543   5.709   5.527  0.6861  0.6682 -0.0906
  242MOL0     C32563  10.570   5.572   5.513 -0.4635 -0.0326  0.5657
  242MOL0     C32564  10.474   5.458   5.547 -0.9852 -0.3373 -0.9425
  242MOL0     O32565  10.348   5.496   5.581  0.2326 -0.0185  0.7669
  242MOL0     C32566  10.264   5.404   5.632  0.4332  0.5570 -0.1172
  242MOL0     C32567  10.137   5.370   5.565 -0.1905  0.1355  0.4541
  242MOL0     C32568  10.055   5.274   5.607  0.3964 -0.4603  0.7426
  242MOL0     C32569  10.092   5.207   5.727 -0.4322 -0.3433  0.3991
  242MOL0     O32570   9.997   5.121   5.782  0.0500  0.5121 -0.4803
  242MOL0     C32571  10.043   4.984   5.809  0.3212  0.5300 -1.3076
  242MOL0     C32572   9.930   4.875   5.805  0.2050 -0.2847 -0.9476
  242MOL0     C32573   9.842   4.880   5.683 -0.9048 -0.4393 -0.0787
  242MOL0     C32574   9.754   4.764   5.702  0.4776  0.0052  0.1708
  242MOL0     C32575   9.694   4.729   5.566 -0.0003 -1.2236 -0.7636
  242MOL0     C32576   9.604   4.608   5.574 -0.9209  0.6868 -0.0620
  242MOL0     C32577   9.548   4.564   5.437 -0.5171 -0.3784  0.0380
  242MOL0     C32578   9.441   4.451   5.446  0.8590 -1.0653  0.5691
  242MOL0    Cl32579   9.284   4.529   5.511 -0.2220 -0.0281 -0.0104
  242MOL0     C32580  10.221   5.224   5.786 -0.1310  0.1218  0.1947
  242MOL0     C32581  10.298   5.329   5.748 -0.9507  0.0573  0.2811
  242MOL0     O32582  10.525   5.342   5.552 -0.1053  0.1642 -0.1105
  242MOL0     C32583  10.706   5.545   5.473  0.0401 -0.1878 -0.3952
  242MOL0     C32584  10.793   5.645   5.433 -0.6003 -0.0559  0.1441
  242MOL0     N32585  11.456   6.120   5.621  0.2722  0.1825  0.5646
  242MOL0     N32586  11.515   6.173   5.725  0.3850 -0.2925 -0.0802
  242MOL0     C32587  10.556   6.181   5.860  0.6289  0.2648 -0.4918
  242MOL0     C32588  10.437   6.226   5.926  0.0226  0.1863  0.7469
  242MOL0     C32589  10.044   6.203   6.156  0.0897 -0.3591 -0.8661
  242MOL0     C32590  10.036   6.342   6.167 -0.0073 -1.1708  0.5508
  242MOL0     C32591   9.918   6.408   6.200  0.5494 -0.9399  0.2120
  242MOL0     C32592   9.804   6.338   6.238 -0.6847 -1.4523  0.2416
  242MOL0     O32593   9.681   6.398   6.265  0.4821  0.4542 -0.2076
  242MOL0     C32594   9.692   6.514   6.350 -0.4283  0.1113 -1.0442
  242MOL0     C32595   9.556   6.559   6.406 -0.5253  1.1510 -0.7232
  242MOL0     C32596   9.508   6.438   6.496  1.1074  0.5961  0.3399
  242MOL0     C32597   9.395   6.487   6.591  0.5807  1.3528  1.3028
  242MOL0     C32598   9.277   6.484   6.513  1.1896 -1.5219  0.0654
  242MOL0     C32599   9.174   6.475   6.449  0.9013  0.5018  0.2308
  242MOL0     C32600   9.814   6.203   6.233  0.5153  0.2129 -0.2774
  242MOL0     C32601   9.924   6.130   6.198 -0.0805 -0.5288  0.2595
  242MOL0     C32602   9.901   5.973   6.215  0.2905  0.4659 -1.1161
  242MOL0     H32603  10.433   6.036   6.214 -1.5177  0.6974  0.5907
  242MOL0     H32604  10.640   5.944   6.110  0.3508 -0.8614 -2.1012
  242MOL0     H32605  10.801   5.887   5.971  0.9765 -3.3814 -3.3982
  242MOL0     H32606  10.927   5.940   5.855  2.6108  2.4423  2.9390
  242MOL0     H32607  10.851   6.085   6.092  0.7931 -0.7195  0.5860
  242MOL0     H32608  10.900   6.177   5.952  0.0870  0.7910  1.4289
  242MOL0     H32609  11.109   6.056   5.917 -0.0256  1.0930  0.0126
  242MOL0     H32610  11.094   5.975   6.068 -2.1464 -0.2241  0.8060
  242MOL0     H32611  11.112   6.279   6.032  3.9586  1.6097  0.6241
  242MOL0     H32612  11.034   6.203   6.167  1.3416 -0.5156  1.3115
  242MOL0     H32613  11.252   6.267   6.247  1.7144 -0.8636  1.7109
  242MOL0     H32614  11.256   6.091   6.230  1.0950 -1.9122 -1.5148
  242MOL0     H32615  11.449   6.141   6.106  0.0815  0.4391  0.6875
  242MOL0     H32616  11.331   6.122   5.988  1.9253 -2.3912  2.3848
  242MOL0     H32617  11.421   6.398   6.097  1.6210 -0.4278 -0.2641
  242MOL0     H32618  11.283   6.373   5.990  1.5958  0.8292 -1.6657
  242MOL0     H32619  11.459   6.443   5.861  0.6885 -1.2656 -2.4644
  242MOL0     H32620  11.578   6.329   5.919  0.3504  0.3069 -1.4424
  242MOL0     H32621  11.221   6.318   5.729 -0.9832  0.8846 -0.8039
  242MOL0     H32622  11.158   6.228   5.508 -1.1385 -0.3685  1.2503
  242MOL0     H32623  11.271   6.103   5.435 -0.9157  0.4839 -0.2081
  242MOL0     H32624  11.215   5.930   5.587 -0.6758 -0.2683 -4.9758
  242MOL0     H32625  11.126   6.036   5.696  0.8479  0.0899  0.0511
  242MOL0     H32626  11.035   6.017   5.405  2.2409  2.4339  1.0259
  242MOL0     H32627  10.952   6.084   5.538 -0.5131 -0.9258  1.2470
  242MOL0     H32628  10.900   5.874   5.626  0.0416 -0.2486 -1.0771
  242MOL0     H32629  11.023   5.795   5.528  1.0386  0.2965  0.6826
  242MOL0     H32630  10.607   5.913   5.518  5.4182  1.6065  0.2169
  242MOL0     H32631  10.444   5.731   5.565  1.8915  3.1646  1.8711
  242MOL0     H32632  10.105   5.427   5.478 -2.5958  1.2958  2.0043
  242MOL0     H32633   9.966   5.236   5.558 -0.2460  0.7408  0.9629
  242MOL0     H32634  10.125   4.952   5.744 -0.3386  1.2385 -2.5159
  242MOL0     H32635  10.087   4.971   5.909  1.7105  0.9311 -1.8493
  242MOL0     H32636   9.984   4.780   5.818 -0.3414 -0.4596  0.2110
  242MOL0     H32637   9.877   4.888   5.900  0.4563 -1.1186 -0.6875
  242MOL0     H32638   9.781   4.970   5.690 -0.8531 -0.5294  2.1236
  242MOL0     H32639   9.904   4.893   5.593 -1.9167  1.9829 -0.4890
  242MOL0     H32640   9.685   4.797   5.780  0.7670 -0.9114  0.8286
  242MOL0     H32641   9.810   4.680   5.744 -1.3281  0.3502  3.6079
  242MOL0     H32642   9.785   4.717   5.506  1.2888  1.2965  0.5042
  242MOL0     H32643   9.641   4.813   5.521 -0.5120 -0.8244  0.5269
  242MOL0     H32644   9.662   4.523   5.612 -0.1189  2.0598  1.9188
  242MOL0     H32645   9.527   4.627   5.648 -0.4467 -2.4508  1.3868
  242MOL0     H32646   9.611   4.530   5.355  0.4924  0.6728  0.3502
  242MOL0     H32647   9.494   4.653   5.402 -1.0841 -0.5489  0.4558
  242MOL0     H32648   9.417   4.405   5.350 -1.8772 -1.0564  1.1604
  242MOL0     H32649   9.466   4.375   5.521 -1.4992 -2.1531  0.3363
  242MOL0     H32650  10.242   5.167   5.876  1.7269 -0.3857 -0.5278
  242MOL0     H32651  10.402   5.328   5.781 -0.1128 -2.5968 -1.9993
  242MOL0     H32652  10.751   5.447   5.475  1.5702  0.4388  2.6846
  242MOL0     H32653  10.888   5.625   5.385 -0.6159  1.4534 -0.5725
  242MOL0     H32654  10.580   6.223   5.762 -2.5004  2.0289 -0.6538
  242MOL0     H32655  10.381   6.303   5.875  2.9392  1.5870 -0.5455
  242MOL0     H32656  10.132   6.390   6.149  0.4089 -1.5743  1.6134
  242MOL0     H32657   9.923   6.516   6.202  0.0764 -0.9069 -0.2435
  242MOL0     H32658   9.738   6.595   6.292 -2.0834  0.9038 -1.3095
  242MOL0     H32659   9.768   6.505   6.428  2.5299  0.2887 -3.6617
  242MOL0     H32660   9.475   6.589   6.338 -3.4855  0.2803  2.1539
  242MOL0     H32661   9.561   6.644   6.474 -3.7879  1.6731 -0.9850
  242MOL0     H32662   9.592   6.417   6.562  1.2276  3.4124  1.2313
  242MOL0     H32663   9.476   6.350   6.440 -2.6911  0.0008  3.0494
  242MOL0     H32664   9.382   6.418   6.674  2.1407 -0.2805  0.2707
  242MOL0     H32665   9.408   6.595   6.604  1.9254  1.3576  0.1954
  242MOL0     H32666   9.086   6.482   6.389  2.2496  2.1640 -1.6666
  242MOL0     H32667   9.732   6.151   6.280  0.3497 -0.3209 -1.1323
  242MOL0     H32668   9.970   5.927   6.144  2.1492  1.6200 -0.1156
  242MOL0     H32669   9.909   5.946   6.320 -3.4672 -0.5448 -0.9388
  242MOL0     H32670   9.803   5.932   6.189  1.5305 -3.9024  0.2007
  243MOL0     O32671   2.090   1.432   6.506  0.1420 -0.0737 -0.6854
  243MOL0     C32672   2.132   1.402   6.390 -0.6269  0.8955 -0.3614
  243MOL0     O32673   2.232   1.312   6.370  0.1306 -0.0720 -0.0257
  243MOL0     C32674   2.300   1.247   6.472 -0.2086  0.1305  0.5566
  243MOL0     C32675   2.323   1.294   6.604 -0.6279 -0.0293 -0.2161
  243MOL0     C32676   2.394   1.212   6.696  0.3193 -0.0897  0.1092
  243MOL0     C32677   2.465   1.100   6.645 -0.2893  0.3324  0.5246
  243MOL0     O32678   2.547   1.023   6.716  0.2303  0.2650 -0.2577
  243MOL0     C32679   2.576   1.064   6.854  0.2197  0.3191  0.8252
  243MOL0     C32680   2.637   0.935   6.914 -0.4717  0.3097  0.6471
  243MOL0     C32681   2.791   0.939   6.895  0.3885 -0.0419 -0.3595
  243MOL0     C32682   2.876   0.987   7.014 -0.7141  0.1819 -0.6622
  243MOL0     C32683   3.029   0.960   7.005  0.7836  0.0811 -0.4913
  243MOL0     C32684   3.096   0.971   6.867 -0.0592 -0.3107 -0.3009
  243MOL0     C32685   3.244   0.944   6.885 -0.2777 -0.0376  1.1729
  243MOL0     C32686   3.334   1.066   6.906  0.6683  0.2821  0.0477
  243MOL0     N32687   3.424   1.095   6.795 -0.8701 -0.2344 -0.1908
  243MOL0     C32688   3.550   1.048   6.779  0.5444 -0.0167  0.1900
  243MOL0     C32689   3.585   1.086   6.655 -0.2938 -0.7399 -0.5799
  243MOL0     C32690   3.687   1.019   6.572  0.3596  1.0234  0.6497
  243MOL0     C32691   3.825   1.057   6.630 -0.0541 -0.8357 -0.8097
  243MOL0     C32692   3.855   1.206   6.614 -0.5753  0.3868 -0.5400
  243MOL0     C32693   3.881   1.243   6.470 -0.8893 -0.2081 -0.1118
  243MOL0     O32694   3.917   1.381   6.454 -0.5336  0.0396 -0.7381
  243MOL0     C32695   4.042   1.422   6.503 -0.3510 -0.4563 -0.4994
  243MOL0     C32696   4.065   1.565   6.494  0.5810  0.5543  0.7707
  243MOL0     C32697   4.184   1.630   6.536  0.2866  0.0065  0.3535
  243MOL0     C32698   4.293   1.549   6.581 -0.0560  0.0257 -0.4027
  243MOL0     C32699   4.410   1.616   6.629 -0.7250  0.7348  0.1310
  243MOL0     O32700   4.494   1.523   6.692  0.2711 -0.4795 -1.0497
  243MOL0     C32701   4.598   1.572   6.762  0.7992  0.2166 -0.6756
  243MOL0     C32702   4.573   1.660   6.870 -0.4357  0.0303  0.7400
  243MOL0     C32703   4.671   1.703   6.959 -0.3718  0.6482 -0.0700
  243MOL0     C32704   4.801   1.645   6.948 -1.2714 -0.5551 -0.4597
  243MOL0     O32705   4.904   1.688   7.030  0.1681  0.3669  0.4784
  243MOL0     C32706   4.994   1.781   6.969 -0.3063 -0.8764  0.1845
  243MOL0     C32707   5.110   1.716   6.891  0.1385  0.8618 -0.4816
  243MOL0     C32708   5.109   1.748   6.739  0.3631 -0.6952  0.0467
  243MOL0     C32709   5.201   1.866   6.709  0.0097  0.1362 -0.0472
  243MOL0     C32710   5.208   1.898   6.559  0.9157 -0.1805  1.0045
  243MOL0     C32711   5.090   1.939   6.471  0.6580 -0.0499  0.5698
  243MOL0     C32712   5.066   2.093   6.476  0.0211  1.2481 -0.8868
  243MOL0     C32713   4.932   2.141   6.418  0.2040  0.1600 -0.9242
  243MOL0    Cl32714   4.928   2.310   6.417 -0.0318 -0.2667 -0.8749
  243MOL0     C32715   4.820   1.534   6.856 -0.5180 -0.9662 -0.1582
  243MOL0     C32716   4.717   1.497   6.767  0.2707  0.5493 -0.8578
  243MOL0     O32717   4.443   1.732   6.607 -0.0262 -0.0732  0.3107
  243MOL0     C32718   4.271   1.412   6.588  0.3778  0.6393  0.6606
  243MOL0     C32719   4.148   1.350   6.546 -0.3305 -0.6440 -0.4642
  243MOL0     N32720   3.492   1.164   6.604 -0.2505 -0.6864 -0.4494
  243MOL0     N32721   3.388   1.154   6.681  0.0453  0.7555 -0.2680
  243MOL0     C32722   2.438   1.051   6.513 -1.4483 -1.4625 -0.3148
  243MOL0     C32723   2.370   1.137   6.423 -0.8746  1.3681 -0.7241
  243MOL0     C32724   2.072   1.462   6.282 -0.0855  0.8589  0.2275
  243MOL0     C32725   2.110   1.412   6.154 -0.0572  0.1850 -0.6830
  243MOL0     C32726   2.037   1.449   6.040 -0.6547  0.2968  0.4191
  243MOL0     C32727   1.948   1.552   6.042  0.1160 -0.5988  0.9469
  243MOL0     O32728   1.901   1.594   5.924 -0.0699 -0.1789  0.5683
  243MOL0     C32729   1.846   1.727   5.917 -0.5982  0.0713  0.4644
  243MOL0     C32730   1.801   1.748   5.769 -0.3181  0.1232 -0.6999
  243MOL0     C32731   1.666   1.820   5.767 -0.6877 -0.7641  0.0437
  243MOL0     C32732   1.684   1.972   5.764  0.4170 -0.9450  0.7237
  243MOL0     C32733   1.793   2.027   5.851 -0.5559  0.6940  0.4659
  243MOL0     C32734   1.872   2.077   5.926  0.6210 -0.1181  0.0836
  243MOL0     C32735   1.917   1.614   6.165 -0.0940 -1.2758 -0.1413
  243MOL0     C32736   1.966   1.559   6.290 -0.2575 -0.4535  0.3401
  243MOL0     C32737   1.912   1.631   6.406 -0.2952  0.4278 -0.6034
  243MOL0     H32738   2.283   1.388   6.638  2.7775  0.8356  1.9026
  243MOL0     H32739   2.396   1.266   6.790 -0.2951  0.8450 -0.3987
  243MOL0     H32740   2.652   1.142   6.864  2.7001 -2.1753  5.1264
  243MOL0     H32741   2.486   1.088   6.912  1.3315 -1.7940  3.7208
  243MOL0     H32742   2.601   0.838   6.881 -0.8630 -0.7146  3.7936
  243MOL0     H32743   2.614   0.954   7.020 -1.8428 -0.6257  0.5372
  243MOL0     H32744   2.807   0.983   6.796 -2.9825  0.4582 -0.7828
  243MOL0     H32745   2.815   0.832   6.889 -1.9627 -0.8150  1.9381
  243MOL0     H32746   2.862   1.093   7.038  0.1851  0.5558 -1.7115
  243MOL0     H32747   2.836   0.937   7.103 -0.1440  1.4804  0.3626
  243MOL0     H32748   3.080   1.020   7.080 -1.4066 -0.8870  1.9033
  243MOL0     H32749   3.048   0.862   7.050 -0.3720 -1.8396 -3.8398
  243MOL0     H32750   3.063   0.895   6.795  1.9337 -0.8755 -0.6790
  243MOL0     H32751   3.082   1.073   6.831  3.3307  1.0999  1.9341
  243MOL0     H32752   3.279   0.906   6.788  1.6686  1.4483  1.2271
  243MOL0     H32753   3.252   0.870   6.965  0.8652 -0.8518  0.3526
  243MOL0     H32754   3.279   1.157   6.933 -1.7835 -1.2595  0.5470
  243MOL0     H32755   3.413   1.045   6.980  1.6831  1.1377 -0.7514
  243MOL0     H32756   3.599   0.973   6.840 -1.9295 -1.3262  0.7021
  243MOL0     H32757   3.665   0.912   6.581 -2.0201  1.4090 -0.0293
  243MOL0     H32758   3.666   1.045   6.468 -4.3579 -3.8789 -0.1067
  243MOL0     H32759   3.837   1.033   6.736  2.3731  0.0928 -0.7922
  243MOL0     H32760   3.900   0.994   6.581  2.0599  1.0260 -0.1286
  243MOL0     H32761   3.951   1.221   6.665  0.2168 -1.4548 -1.3746
  243MOL0     H32762   3.783   1.270   6.665 -0.6502 -0.8894  0.9964
  243MOL0     H32763   3.796   1.215   6.407 -1.0378  2.0896 -1.0325
  243MOL0     H32764   3.955   1.182   6.418 -2.1975 -0.2227 -2.0905
  243MOL0     H32765   3.988   1.621   6.441 -0.3167  0.0765  1.5280
  243MOL0     H32766   4.200   1.736   6.548  2.0978 -0.2206  0.2333
  243MOL0     H32767   4.478   1.711   6.882 -0.6050  0.1312 -0.7877
  243MOL0     H32768   4.651   1.789   7.021 -0.3402 -0.8576  2.1514
  243MOL0     H32769   4.936   1.839   6.896  2.2485  1.5814 -0.0777
  243MOL0     H32770   5.025   1.853   7.045 -3.1399 -0.3692  0.9869
  243MOL0     H32771   5.205   1.725   6.944 -0.4166  1.5383  0.4281
  243MOL0     H32772   5.088   1.609   6.889  0.6475  0.6261  2.4531
  243MOL0     H32773   5.139   1.659   6.682  0.4510  0.8911 -2.5298
  243MOL0     H32774   5.009   1.763   6.697  0.0231 -2.1781  0.2360
  243MOL0     H32775   5.305   1.839   6.729 -0.4909  0.1173  2.9938
  243MOL0     H32776   5.178   1.948   6.778  0.9046  0.1727  0.2145
  243MOL0     H32777   5.256   1.808   6.521  0.3460 -0.3824  0.7403
  243MOL0     H32778   5.283   1.976   6.547 -1.4347  2.1182  0.4809
  243MOL0     H32779   5.122   1.913   6.369  0.2421 -2.3877  0.9803
  243MOL0     H32780   5.005   1.878   6.504  1.1038 -0.2332  1.4108
  243MOL0     H32781   5.149   2.131   6.416  3.8681 -2.1153  1.7380
  243MOL0     H32782   5.064   2.118   6.583  0.9438  1.1172 -0.8343
  243MOL0     H32783   4.917   2.119   6.312 -0.3018  0.1302 -0.8500
  243MOL0     H32784   4.845   2.105   6.473  1.6735 -0.7004  0.9508
  243MOL0     H32785   4.914   1.480   6.849 -0.1286 -0.1401 -1.5568
  243MOL0     H32786   4.741   1.421   6.693 -1.3731  1.1873 -2.1107
  243MOL0     H32787   4.351   1.347   6.623  2.4800  2.4360 -0.4764
  243MOL0     H32788   4.138   1.243   6.567 -1.4125 -0.3355  0.7388
  243MOL0     H32789   2.484   0.963   6.469  2.6342  0.2180  0.1393
  243MOL0     H32790   2.362   1.103   6.320 -1.9274 -0.3983 -0.1029
  243MOL0     H32791   2.181   1.333   6.130 -0.6141 -2.4530  4.8606
  243MOL0     H32792   2.073   1.413   5.945  1.6742 -0.7551  1.6111
  243MOL0     H32793   1.923   1.802   5.935 -0.4710  0.1985 -0.5372
  243MOL0     H32794   1.760   1.739   5.983 -1.4695  1.8912 -0.8945
  243MOL0     H32795   1.789   1.648   5.729  1.4171 -0.4000  0.0026
  243MOL0     H32796   1.877   1.800   5.710 -0.2913  3.5837  2.0089
  243MOL0     H32797   1.611   1.795   5.858  0.7134  4.7281  2.7814
  243MOL0     H32798   1.604   1.791   5.681  0.8133 -2.9393 -0.4264
  243MOL0     H32799   1.689   2.017   5.664 -1.0468  2.9723  2.2437
  243MOL0     H32800   1.590   2.010   5.805 -0.2356 -3.1489  1.3901
  243MOL0     H32801   1.930   2.113   6.008 -1.3113  2.1623  0.5547
  243MOL0     H32802   1.844   1.694   6.175 -0.4718 -1.8458  2.4845
  243MOL0     H32803   1.970   1.719   6.436 -1.9402  1.3678 -0.0263
  243MOL0     H32804   1.807   1.650   6.383 -0.1575  1.0480 -0.7595
  243MOL0     H32805   1.908   1.569   6.495 -1.7384  2.3177  0.7377
  244MOL0     O32806   5.080   6.537   8.075  0.1094 -0.7820  0.2339
  244MOL0     C32807   5.070   6.561   8.196 -0.1689 -1.0423 -0.0300
  244MOL0     O32808   5.001   6.664   8.242 -0.2831 -0.0009  0.0957
  244MOL0     C32809   4.973   6.767   8.147 -0.3464 -0.3776  0.1458
  244MOL0     C32810   4.839   6.818   8.130  0.1016 -0.2102 -0.0519
  244MOL0     C32811   4.791   6.915   8.036 -0.4287  0.0681  0.4619
  244MOL0     C32812   4.890   6.967   7.957  0.9558 -0.4406 -0.0713
  244MOL0     O32813   4.853   7.052   7.853 -0.1278 -0.1810 -0.0822
  244MOL0     C32814   4.914   7.034   7.728  1.2002 -0.6110 -0.1039
  244MOL0     C32815   4.801   7.080   7.626 -0.1197  0.3230 -0.0389
  244MOL0     C32816   4.786   7.244   7.635 -1.6854  1.1748  0.0287
  244MOL0     C32817   4.699   7.288   7.523 -0.4982 -1.2790  0.2840
  244MOL0     C32818   4.683   7.434   7.536  0.0365 -0.5202 -0.2608
  244MOL0     C32819   4.553   7.483   7.490  0.0265 -1.0059 -0.3977
  244MOL0     C32820   4.548   7.637   7.482 -0.3400 -0.5107 -0.7111
  244MOL0     C32821   4.412   7.696   7.437 -0.3575  0.0107  0.3392
  244MOL0     N32822   4.414   7.834   7.489  0.2567 -0.1848 -0.1318
  244MOL0     C32823   4.505   7.936   7.456 -0.2893  0.0261  1.4311
  244MOL0     C32824   4.468   8.037   7.542 -0.2063 -0.7074  0.2428
  244MOL0     C32825   4.539   8.169   7.566  1.0844  0.3221  0.0764
  244MOL0     C32826   4.451   8.300   7.540  0.2337  1.3303 -0.0166
  244MOL0     C32827   4.459   8.382   7.404 -0.2801  0.5015  0.3819
  244MOL0     C32828   4.584   8.365   7.317 -0.7920 -0.4630 -0.2206
  244MOL0     O32829   4.626   8.230   7.284  1.0319  0.0198 -0.0444
  244MOL0     C32830   4.603   8.216   7.154  0.7173  0.4858  0.0507
  244MOL0     C32831   4.472   8.195   7.097  0.6708 -0.2503 -0.4827
  244MOL0     C32832   4.461   8.167   6.964 -0.5758 -0.0142 -0.1027
  244MOL0     C32833   4.576   8.155   6.876 -0.2541  0.2653 -1.2195
  244MOL0     C32834   4.558   8.095   6.737  0.9887 -0.2630  0.4622
  244MOL0     O32835   4.427   8.095   6.685 -0.1836  0.0017  0.0567
  244MOL0     C32836   4.394   8.019   6.575 -0.4879  0.8260  0.3328
  244MOL0     C32837   4.290   7.927   6.583  1.3256 -0.6526  0.6812
  244MOL0     C32838   4.260   7.839   6.474  0.3531 -0.4547  0.4500
  244MOL0     C32839   4.330   7.853   6.352  0.0021  0.9007 -0.3560
  244MOL0     O32840   4.320   7.771   6.244  0.0501  0.0747  0.1900
  244MOL0     C32841   4.198   7.690   6.245 -0.1096  0.4304 -0.0243
  244MOL0     C32842   4.209   7.601   6.119  0.1681 -0.1184  0.3246
  244MOL0     C32843   4.103   7.500   6.144  0.1312 -0.4088 -0.1879
  244MOL0     C32844   4.092   7.381   6.049 -1.0101 -1.2631  0.1782
  244MOL0     C32845   3.993   7.271   6.087  0.6066  0.5321  0.4076
  244MOL0     C32846   4.040   7.177   6.199 -0.0698 -0.5756 -0.3653
  244MOL0     C32847   3.934   7.070   6.229 -0.7757 -0.0105 -0.3852
  244MOL0     C32848   3.971   6.958   6.331  0.9134 -0.4159 -0.3208
  244MOL0    Cl32849   4.042   7.045   6.482  0.1098 -0.0968  0.2932
  244MOL0     C32850   4.436   7.942   6.349 -0.8301  0.3899 -0.2726
  244MOL0     C32851   4.469   8.020   6.453 -0.5299 -0.1398 -1.0051
  244MOL0     O32852   4.661   8.056   6.681  0.0713  0.2202 -0.0093
  244MOL0     C32853   4.698   8.159   6.937 -1.1725 -0.1478 -0.6701
  244MOL0     C32854   4.711   8.186   7.073  0.5591  0.4591  0.0173
  244MOL0     N32855   4.368   7.987   7.621 -0.0925 -0.3912 -0.8195
  244MOL0     N32856   4.327   7.878   7.583  0.0836  0.8294  0.1778
  244MOL0     C32857   5.025   6.923   7.970 -0.2877  0.2012 -0.1030
  244MOL0     C32858   5.061   6.827   8.063  0.9280 -0.2379 -0.3551
  244MOL0     C32859   5.139   6.469   8.299  0.1508  0.8262 -0.1736
  244MOL0     C32860   5.082   6.457   8.433 -0.7956 -0.1543 -0.1948
  244MOL0     C32861   5.138   6.378   8.529  0.5008  0.0425  0.8325
  244MOL0     C32862   5.239   6.292   8.493 -0.6004  0.5260 -0.5788
  244MOL0     O32863   5.270   6.199   8.583  0.6481  0.0335  0.6054
  244MOL0     C32864   5.351   6.077   8.550  0.4044  0.7348  0.1845
  244MOL0     C32865   5.262   5.946   8.517  0.7869 -0.6724  0.4256
  244MOL0     C32866   5.348   5.820   8.522  1.0956 -0.2722  0.9663
  244MOL0     C32867   5.337   5.742   8.654  0.2701  0.5073 -1.1495
  244MOL0     C32868   5.200   5.705   8.687 -0.0183  0.4547 -0.4162
  244MOL0     C32869   5.086   5.667   8.707  0.1679 -0.9435 -0.1065
  244MOL0     C32870   5.290   6.296   8.365  0.7928 -0.5680 -0.7863
  244MOL0     C32871   5.238   6.375   8.261 -0.2675  0.1025  0.5593
  244MOL0     C32872   5.292   6.364   8.120 -0.5005 -0.4193 -0.5552
  244MOL0     H32873   4.757   6.782   8.190 -0.3882  2.4030  0.9796
  244MOL0     H32874   4.689   6.944   8.015  0.5051  1.7088 -2.3032
  244MOL0     H32875   5.009   7.085   7.715  0.8346  0.7751  2.0806
  244MOL0     H32876   4.919   6.925   7.720 -1.2923 -0.8148  0.2300
  244MOL0     H32877   4.708   7.033   7.661  0.0300  2.2378  3.3053
  244MOL0     H32878   4.837   7.046   7.529  1.8948 -2.4787  1.5148
  244MOL0     H32879   4.886   7.286   7.628  0.5240 -3.6738 -1.7688
  244MOL0     H32880   4.754   7.281   7.732 -0.3942 -1.1112  1.4189
  244MOL0     H32881   4.743   7.270   7.424  3.2425  2.0654  1.0452
  244MOL0     H32882   4.600   7.244   7.535 -3.4894  4.6931  1.3505
  244MOL0     H32883   4.691   7.474   7.637 -0.0343  3.8369 -1.7659
  244MOL0     H32884   4.762   7.488   7.482 -1.1860 -0.7475 -2.4178
  244MOL0     H32885   4.530   7.440   7.392  1.1170  0.2689 -1.2527
  244MOL0     H32886   4.485   7.439   7.563 -1.7396 -0.2895 -1.5409
  244MOL0     H32887   4.628   7.671   7.415  2.8486 -1.7328  2.2324
  244MOL0     H32888   4.562   7.665   7.587 -2.4709 -0.2068 -0.4621
  244MOL0     H32889   4.407   7.695   7.328 -1.8399  2.3857  0.3123
  244MOL0     H32890   4.333   7.639   7.486 -1.7234  0.3172 -1.4061
  244MOL0     H32891   4.570   7.952   7.370 -1.3014  4.3766  1.2561
  244MOL0     H32892   4.567   8.173   7.671  2.0894  1.9389 -0.2259
  244MOL0     H32893   4.625   8.181   7.500 -1.0998  3.5798 -2.5397
  244MOL0     H32894   4.352   8.275   7.581  1.2122  0.4458  1.9528
  244MOL0     H32895   4.470   8.381   7.611  0.0887  0.0685  1.5267
  244MOL0     H32896   4.452   8.488   7.432  1.8055  1.1844 -1.4492
  244MOL0     H32897   4.372   8.343   7.349 -0.6804  0.5896  0.9453
  244MOL0     H32898   4.665   8.410   7.374 -0.9423 -1.9587  1.2355
  244MOL0     H32899   4.568   8.428   7.229  0.9820 -0.3532 -0.4929
  244MOL0     H32900   4.380   8.194   7.154 -1.1329  3.7587 -2.9254
  244MOL0     H32901   4.365   8.141   6.922 -0.9770  0.1316  0.6896
  244MOL0     H32902   4.232   7.927   6.674  0.6926  4.2191  0.5455
  244MOL0     H32903   4.179   7.769   6.491 -1.5469  0.9863 -1.8870
  244MOL0     H32904   4.192   7.629   6.335  1.5081  1.1612  0.6241
  244MOL0     H32905   4.109   7.751   6.224 -2.3816 -1.2870  3.6128
  244MOL0     H32906   4.180   7.661   6.033  0.1550 -1.3808 -0.5746
  244MOL0     H32907   4.302   7.547   6.098  0.6633  0.5367  0.7998
  244MOL0     H32908   4.108   7.459   6.245  1.4114 -1.5925 -0.6959
  244MOL0     H32909   4.009   7.555   6.131  0.3345  1.4621  4.3429
  244MOL0     H32910   4.194   7.342   6.038 -1.1625 -1.5853 -0.1048
  244MOL0     H32911   4.059   7.420   5.953 -1.5962  1.9117  1.5559
  244MOL0     H32912   3.979   7.213   5.995  0.1664 -1.2514  1.5541
  244MOL0     H32913   3.896   7.320   6.099  1.2943  2.6190 -1.7541
  244MOL0     H32914   4.133   7.139   6.157 -0.9271  0.1824 -3.1526
  244MOL0     H32915   4.041   7.234   6.292 -2.0158 -1.7343  0.4228
  244MOL0     H32916   3.899   7.019   6.139 -4.1643  1.0518  0.1882
  244MOL0     H32917   3.845   7.123   6.264 -1.6367 -2.0751  0.7530
  244MOL0     H32918   3.885   6.897   6.361  1.0369 -1.1835 -1.4597
  244MOL0     H32919   4.044   6.892   6.283  0.5171 -1.1244  0.0320
  244MOL0     H32920   4.496   7.938   6.259 -0.0843 -2.5373  0.2385
  244MOL0     H32921   4.549   8.093   6.446 -1.1306  0.6399 -0.0224
  244MOL0     H32922   4.788   8.128   6.885 -0.4986  0.8648 -0.1539
  244MOL0     H32923   4.808   8.184   7.123  0.3784 -3.3626  0.5670
  244MOL0     H32924   5.107   6.965   7.912 -0.4578  5.1038  2.6530
  244MOL0     H32925   5.167   6.802   8.060  0.9273 -0.8940  2.6003
  244MOL0     H32926   5.001   6.525   8.456 -0.9982 -1.1298  2.2486
  244MOL0     H32927   5.099   6.375   8.630 -3.2182 -1.0771 -0.4761
  244MOL0     H32928   5.396   6.047   8.645 -0.8815  0.1451  0.6263
  244MOL0     H32929   5.431   6.094   8.477  0.8176 -1.3031  0.1264
  244MOL0     H32930   5.222   5.966   8.417 -0.5922 -0.1032  1.0743
  244MOL0     H32931   5.182   5.940   8.591  3.0962  4.7346  3.9728
  244MOL0     H32932   5.453   5.841   8.498  1.2282 -0.8643  1.0089
  244MOL0     H32933   5.336   5.760   8.431  2.2096 -0.5434  0.9851
  244MOL0     H32934   5.399   5.652   8.653  1.3038  1.1960 -0.9661
  244MOL0     H32935   5.375   5.799   8.739 -3.1079  1.1336  0.1022
  244MOL0     H32936   4.988   5.626   8.722 -0.9405  0.5854 -2.6107
  244MOL0     H32937   5.366   6.223   8.341 -0.0775 -1.3540 -1.2043
  244MOL0     H32938   5.396   6.331   8.131  0.4410  2.5989  0.5494
  244MOL0     H32939   5.235   6.289   8.064  0.4979 -3.0788  1.7573
  244MOL0     H32940   5.296   6.458   8.065 -3.0324 -1.5279 -2.8868
  245MOL0     O32941   1.874   6.840  10.068  0.0573 -0.9665  0.3267
  245MOL0     C32942   1.806   6.937  10.030  0.2214 -0.4616 -0.6934
  245MOL0     O32943   1.714   7.006  10.112  0.4711  0.1267 -0.6038
  245MOL0     C32944   1.702   6.967  10.246  0.5614 -0.3646 -1.0559
  245MOL0     C32945   1.607   6.875  10.297 -1.3707  0.4963 -0.3635
  245MOL0     C32946   1.601   6.859  10.435  0.7583  0.3142  0.8206
  245MOL0     C32947   1.688   6.917  10.527  1.0523 -0.0754  0.1479
  245MOL0     O32948   1.683   6.884  10.656 -0.3753 -0.3443 -0.3438
  245MOL0     C32949   1.801   6.801  10.696 -0.2556  0.3271 -0.1672
  245MOL0     C32950   1.794   6.775  10.850 -0.8182 -0.3894 -0.6085
  245MOL0     C32951   1.822   6.900  10.927 -0.9743  0.0802 -0.6731
  245MOL0     C32952   1.950   6.975  10.884  0.2975 -0.7845 -0.3705
  245MOL0     C32953   1.990   7.075  10.985  0.3049 -0.1840 -0.6021
  245MOL0     C32954   2.128   7.140  10.966  0.2639  0.2427  0.1552
  245MOL0     C32955   2.183   7.212  11.081 -0.2215 -0.8182 -0.5182
  245MOL0     C32956   2.330   7.255  11.068  0.4633 -0.6224  1.0300
  245MOL0     N32957   2.417   7.138  11.045 -0.0182  0.2438  1.2275
  245MOL0     C32958   2.502   7.082  11.136 -0.2098  0.0610 -0.6794
  245MOL0     C32959   2.586   7.002  11.055  0.0255  0.5743 -0.7069
  245MOL0     C32960   2.684   6.890  11.091  0.6800 -0.4802 -0.2475
  245MOL0     C32961   2.633   6.751  11.064  0.5959  0.4229  0.2979
  245MOL0     C32962   2.735   6.641  11.094 -0.4575  0.2050  1.2065
  245MOL0     C32963   2.709   6.497  11.044 -0.3658  0.0192 -0.4388
  245MOL0     O32964   2.835   6.424  11.045  0.4999  0.3891 -0.5050
  245MOL0     C32965   2.837   6.302  10.971 -0.1228 -1.1413 -0.1388
  245MOL0     C32966   2.959   6.252  10.942  1.0936  0.3513 -0.1266
  245MOL0     C32967   2.976   6.132  10.882 -0.0421  0.4308 -0.1153
  245MOL0     C32968   2.867   6.059  10.832 -0.1358  0.0898 -0.6914
  245MOL0     C32969   2.884   5.928  10.753  0.0486 -0.8013 -0.2292
  245MOL0     O32970   3.008   5.877  10.744  0.1234  0.4392  0.1280
  245MOL0     C32971   3.027   5.758  10.663 -1.2831 -0.0844  0.3878
  245MOL0     C32972   3.112   5.648  10.712 -0.4638  0.2059 -0.4959
  245MOL0     C32973   3.127   5.522  10.637  0.5455 -1.1931  0.7142
  245MOL0     C32974   3.067   5.515  10.512 -0.4688 -0.0217  0.0575
  245MOL0     O32975   3.070   5.401  10.441  0.2257 -0.3134  0.4069
  245MOL0     C32976   2.974   5.361  10.340 -0.1731 -0.8231  0.0102
  245MOL0     C32977   3.021   5.238  10.276 -0.3020  0.0224 -0.3232
  245MOL0     C32978   2.943   5.195  10.152 -0.4563 -0.9390 -0.0694
  245MOL0     C32979   2.982   5.054  10.123  1.0223  0.7971  0.1607
  245MOL0     C32980   2.894   5.006   9.998  0.9201  1.3001  0.3706
  245MOL0     C32981   2.743   4.978  10.025 -0.3840  0.0337  1.1098
  245MOL0     C32982   2.667   4.968   9.892  0.6617 -0.3824 -0.3224
  245MOL0     C32983   2.513   4.961   9.926 -0.3692 -0.3897  1.3326
  245MOL0    Cl32984   2.412   4.937   9.781 -0.1300 -0.0053  0.2831
  245MOL0     C32985   2.996   5.624  10.466 -0.4190  0.5295  1.0236
  245MOL0     C32986   2.977   5.744  10.541  0.1610  0.1179 -0.1011
  245MOL0     O32987   2.784   5.877  10.706 -0.1517  0.2720 -0.4855
  245MOL0     C32988   2.741   6.103  10.866 -0.0864 -0.2678 -0.0717
  245MOL0     C32989   2.725   6.229  10.922 -0.5258 -0.1854 -0.2936
  245MOL0     N32990   2.551   7.019  10.926 -0.8523 -0.1903 -0.1009
  245MOL0     N32991   2.455   7.102  10.920 -0.5155 -0.3697  0.3470
  245MOL0     C32992   1.778   7.010  10.479 -0.4535  0.0650  0.4909
  245MOL0     C32993   1.785   7.034  10.329  0.2094 -0.4862 -0.4392
  245MOL0     C32994   1.817   6.998   9.896  0.0970  0.0323  0.0479
  245MOL0     C32995   1.708   7.066   9.836 -0.1087 -0.7770  0.2768
  245MOL0     C32996   1.716   7.121   9.709  0.7698 -1.1991  0.1597
  245MOL0     C32997   1.829   7.102   9.635 -0.5549 -0.2897 -0.0773
  245MOL0     O32998   1.822   7.170   9.516  0.7844 -0.3098 -0.1831
  245MOL0     C32999   1.938   7.168   9.434  0.1792  0.6733 -1.1247
  245MOL0     C33000   1.902   7.210   9.297 -0.1809 -0.1805 -0.5514
  245MOL0     C33001   1.882   7.367   9.285 -0.1699 -0.6180  1.1280
  245MOL0     C33002   1.930   7.408   9.144 -1.1604  0.1035 -0.0528
  245MOL0     C33003   2.080   7.423   9.126 -0.3858 -0.1507  0.1251
  245MOL0     C33004   2.190   7.467   9.122 -0.4061  0.7436 -0.0044
  245MOL0     C33005   1.939   7.019   9.686 -0.0075  0.1851  0.3980
  245MOL0     C33006   1.935   6.976   9.814 -0.7505 -0.1046  0.1891
  245MOL0     C33007   2.057   6.887   9.845 -0.1434 -0.2088 -0.1581
  245MOL0     H33008   1.529   6.830  10.236 -1.1669  0.7895 -0.8471
  245MOL0     H33009   1.517   6.801  10.473 -1.9450  2.7825 -0.8923
  245MOL0     H33010   1.793   6.703  10.649 -1.5062 -0.2279  1.1024
  245MOL0     H33011   1.892   6.853  10.668 -0.1556 -0.6956 -1.8364
  245MOL0     H33012   1.865   6.697  10.880 -0.0910  0.9512  1.4240
  245MOL0     H33013   1.698   6.738  10.888 -0.8394  0.5498  0.3152
  245MOL0     H33014   1.857   6.871  11.026  0.5975  2.3310 -0.5178
  245MOL0     H33015   1.730   6.959  10.933 -0.4890  0.7287  0.7689
  245MOL0     H33016   2.026   6.900  10.864 -1.3173 -2.3408 -0.9351
  245MOL0     H33017   1.938   7.022  10.786 -0.1160  0.6798  0.3479
  245MOL0     H33018   1.916   7.156  10.985  1.2932  0.7405 -1.1212
  245MOL0     H33019   2.009   7.028  11.082  1.1320 -0.1959 -0.7645
  245MOL0     H33020   2.197   7.064  10.929 -0.7269 -0.1574 -0.9814
  245MOL0     H33021   2.121   7.206  10.879  1.8018  0.5914  0.2815
  245MOL0     H33022   2.183   7.160  11.178  0.3716  3.0307  1.7722
  245MOL0     H33023   2.127   7.304  11.104  2.4095  0.8188 -0.2619
  245MOL0     H33024   2.341   7.318  10.980  0.3366 -2.6264 -0.4981
  245MOL0     H33025   2.353   7.308  11.161 -1.1559  0.0024  1.0890
  245MOL0     H33026   2.500   7.087  11.244  0.4925  2.1927 -0.7168
  245MOL0     H33027   2.778   6.911  11.039  0.6181  3.6891  0.9262
  245MOL0     H33028   2.700   6.891  11.199  1.5240  0.7888 -0.3555
  245MOL0     H33029   2.542   6.729  11.122 -0.9665 -3.9232 -3.2203
  245MOL0     H33030   2.616   6.752  10.956  0.1179  0.0979  0.3627
  245MOL0     H33031   2.732   6.627  11.202 -2.7453 -4.3420  0.7707
  245MOL0     H33032   2.834   6.665  11.053  0.6371  1.2386  4.2111
  245MOL0     H33033   2.662   6.506  10.945 -1.4500  0.4016  0.0934
  245MOL0     H33034   2.635   6.455  11.113  2.9876 -1.9031  2.2660
  245MOL0     H33035   3.044   6.311  10.975  0.7165  0.3600  0.8702
  245MOL0     H33036   3.077   6.093  10.877  0.4069  1.4254  0.9840
  245MOL0     H33037   3.156   5.655  10.811 -0.0598  0.2827 -0.6811
  245MOL0     H33038   3.189   5.445  10.683  3.2894  0.5661  0.1707
  245MOL0     H33039   2.877   5.340  10.387 -0.3581 -2.9758 -1.2432
  245MOL0     H33040   2.957   5.434  10.260  2.2883 -0.7178 -0.4913
  245MOL0     H33041   3.123   5.256  10.241 -1.3168 -1.3058 -4.5689
  245MOL0     H33042   3.022   5.159  10.352 -1.4124  0.9192  0.6595
  245MOL0     H33043   2.835   5.210  10.161 -0.1399  0.7108  1.6432
  245MOL0     H33044   2.965   5.267  10.072  3.1422 -0.3914  1.2309
  245MOL0     H33045   2.962   4.993  10.211 -0.0088  0.9997  0.0809
  245MOL0     H33046   3.085   5.062  10.086 -0.5821  0.2175 -5.3807
  245MOL0     H33047   2.932   4.910   9.962  0.4661  1.1881  0.1838
  245MOL0     H33048   2.899   5.081   9.918 -1.4721  0.7798 -0.3474
  245MOL0     H33049   2.734   4.887  10.086 -2.5084 -1.5432 -1.3497
  245MOL0     H33050   2.693   5.060  10.076  1.1024  1.8239 -0.1472
  245MOL0     H33051   2.706   4.881   9.837  0.6977 -1.1952  0.9519
  245MOL0     H33052   2.686   5.060   9.837  2.0715  0.2424  1.1169
  245MOL0     H33053   2.503   4.867   9.981  0.0915 -1.9498 -1.0936
  245MOL0     H33054   2.492   5.053   9.981  2.8886  2.4984 -1.7753
  245MOL0     H33055   2.958   5.616  10.365  1.7664 -1.2025  0.2567
  245MOL0     H33056   2.915   5.818  10.491  1.5808  1.1346 -0.4239
  245MOL0     H33057   2.656   6.041  10.838 -1.0250  0.6428  0.6569
  245MOL0     H33058   2.627   6.256  10.963 -0.5319 -1.2242  0.4040
  245MOL0     H33059   1.847   7.063  10.545 -0.4073  1.4874 -0.6397
  245MOL0     H33060   1.831   7.116  10.276 -2.3587 -2.2434 -6.1764
  245MOL0     H33061   1.608   7.064   9.877 -1.6952  1.8606 -3.0303
  245MOL0     H33062   1.636   7.183   9.668 -0.1446 -0.4303  2.9237
  245MOL0     H33063   1.985   7.070   9.417 -0.3450  0.2386 -0.1275
  245MOL0     H33064   2.016   7.228   9.481 -0.8401  0.8808  0.3529
  245MOL0     H33065   1.817   7.150   9.263 -1.3247  1.0846 -0.0303
  245MOL0     H33066   1.990   7.188   9.235  1.4036 -1.2216  1.8945
  245MOL0     H33067   1.957   7.411   9.351  1.5982  3.9898 -3.2751
  245MOL0     H33068   1.779   7.405   9.294  0.1647  0.6880 -0.1255
  245MOL0     H33069   1.890   7.345   9.064  0.3633 -0.2923 -0.5213
  245MOL0     H33070   1.881   7.505   9.130 -0.8304  0.6606  2.3604
  245MOL0     H33071   2.285   7.510   9.099  0.8507 -1.5549  0.5838
  245MOL0     H33072   2.025   6.993   9.626 -0.6112  0.4323 -0.5945
  245MOL0     H33073   2.145   6.893   9.781 -0.7971  2.4027 -0.9098
  245MOL0     H33074   2.096   6.919   9.942  0.0006 -2.4347  0.5886
  245MOL0     H33075   2.028   6.782   9.855 -1.3330  0.1557  0.4078
  246MOL0     O33076   9.634   0.482   4.468  0.0338 -0.5014  0.0303
  246MOL0     C33077   9.546   0.392   4.475 -0.6679 -0.6594 -0.2762
  246MOL0     O33078   9.411   0.413   4.482  0.8178 -0.6451 -0.3412
  246MOL0     C33079   9.345   0.537   4.498 -0.4025  0.7580  0.3017
  246MOL0     C33080   9.392   0.641   4.424  0.6235 -0.8424  0.2617
  246MOL0     C33081   9.336   0.774   4.436  0.6978  0.1237  0.0452
  246MOL0     C33082   9.223   0.782   4.510  0.5988 -0.3036 -0.4413
  246MOL0     O33083   9.150   0.903   4.499  0.3049 -0.1604  0.4692
  246MOL0     C33084   9.009   0.918   4.495 -0.5647  0.9650 -0.2098
  246MOL0     C33085   8.977   1.066   4.476  0.8974  0.1460  0.2856
  246MOL0     C33086   8.829   1.098   4.517  0.0180  0.1730  0.2389
  246MOL0     C33087   8.816   1.243   4.560  1.0846 -0.0882  0.8740
  246MOL0     C33088   8.676   1.274   4.608 -0.6101  0.0997 -0.0344
  246MOL0     C33089   8.681   1.410   4.675  0.4227  0.3021  0.5541
  246MOL0     C33090   8.538   1.452   4.709 -0.0327 -1.1320  0.5592
  246MOL0     C33091   8.456   1.485   4.585 -0.6294 -0.2237 -1.1678
  246MOL0     N33092   8.335   1.557   4.621 -0.4736 -0.0691  0.2074
  246MOL0     C33093   8.295   1.683   4.580 -0.4802 -0.2163  0.5595
  246MOL0     C33094   8.169   1.695   4.613  0.6911 -0.9946 -0.1524
  246MOL0     C33095   8.067   1.800   4.569 -0.7449  0.1822  0.2158
  246MOL0     C33096   7.916   1.771   4.591  0.0078  0.6483 -0.1963
  246MOL0     C33097   7.843   1.892   4.542 -0.4372 -0.5337  0.2270
  246MOL0     C33098   7.696   1.884   4.522  0.4185 -0.3934  0.2727
  246MOL0     O33099   7.680   1.776   4.436  1.3604 -0.1627  0.1994
  246MOL0     C33100   7.550   1.763   4.381 -1.0895  0.0893  0.0900
  246MOL0     C33101   7.427   1.820   4.434 -0.3698 -0.4260  0.0832
  246MOL0     C33102   7.304   1.815   4.364 -0.8888  0.2156 -0.5882
  246MOL0     C33103   7.302   1.753   4.242 -0.5728  0.1791  0.3617
  246MOL0     C33104   7.185   1.767   4.160 -0.6688 -0.3228  0.1897
  246MOL0     O33105   7.194   1.713   4.044 -0.0173 -0.1160  0.2726
  246MOL0     C33106   7.168   1.795   3.933  0.7541  0.2324 -0.2257
  246MOL0     C33107   7.072   1.761   3.834  0.2394 -0.1270 -1.3326
  246MOL0     C33108   7.050   1.854   3.724 -0.1252 -0.0617 -1.1872
  246MOL0     C33109   7.103   1.991   3.735  0.1678  0.6246  1.1596
  246MOL0     O33110   7.082   2.087   3.642  0.3008 -0.0182  0.2471
  246MOL0     C33111   6.973   2.086   3.548  0.0750 -0.8515 -0.6380
  246MOL0     C33112   7.023   2.036   3.413  0.4399  0.3682 -0.4535
  246MOL0     C33113   6.965   2.095   3.279 -0.3289  1.0145 -0.2780
  246MOL0     C33114   6.990   2.245   3.277 -0.1841 -0.6246 -0.1888
  246MOL0     C33115   6.946   2.298   3.142 -1.2082 -0.1514  0.8913
  246MOL0     C33116   7.045   2.271   3.034  0.4651 -0.0358  0.3671
  246MOL0     C33117   6.989   2.239   2.900 -0.4897  0.4519  0.7334
  246MOL0     C33118   6.970   2.084   2.887  1.3953 -0.5581  0.1956
  246MOL0    Cl33119   7.116   1.992   2.912 -0.0996 -0.2589  0.1679
  246MOL0     C33120   7.200   2.016   3.828 -0.6828 -0.2627 -0.0448
  246MOL0     C33121   7.232   1.917   3.919 -0.9483 -0.9721 -1.1408
  246MOL0     O33122   7.082   1.807   4.207  1.1079 -0.2028 -0.5011
  246MOL0     C33123   7.421   1.682   4.193  1.2331  0.9176 -0.5275
  246MOL0     C33124   7.536   1.685   4.271 -0.2660 -0.1595 -0.1420
  246MOL0     N33125   8.143   1.601   4.704 -0.1098  0.0824 -0.5805
  246MOL0     N33126   8.255   1.523   4.720  0.5719  0.7617 -0.6108
  246MOL0     C33127   9.170   0.677   4.578 -0.8756  0.4056 -0.6348
  246MOL0     C33128   9.240   0.556   4.581 -0.3022 -0.0181 -0.7510
  246MOL0     C33129   9.595   0.257   4.478  0.1928  0.0885  0.2305
  246MOL0     C33130   9.711   0.237   4.409 -0.0632  0.3440  0.3271
  246MOL0     C33131   9.749   0.103   4.379  0.6564 -0.9577  0.2380
  246MOL0     C33132   9.686  -0.008   4.442  0.2329  0.1459 -0.2891
  246MOL0     O33133   9.741  -0.136   4.427  0.2047  0.7312 -0.2867
  246MOL0     C33134   9.669  -0.262   4.463 -0.8538 -0.7899 -0.5646
  246MOL0     C33135   9.598  -0.305   4.335  0.5808  0.4336  0.1070
  246MOL0     C33136   9.658  -0.442   4.284 -0.1595  0.0064  0.5308
  246MOL0     C33137   9.629  -0.560   4.377 -0.1660  0.2065  0.4738
  246MOL0     C33138   9.618  -0.676   4.284 -0.1758  0.2632  0.2285
  246MOL0     C33139   9.597  -0.776   4.216 -0.1381 -0.9357  0.6766
  246MOL0     C33140   9.566   0.010   4.513 -0.9044 -0.0546  0.6771
  246MOL0     C33141   9.517   0.150   4.527 -0.3750 -0.3859  0.4984
  246MOL0     C33142   9.387   0.165   4.608  1.6283 -0.2433 -0.5954
  246MOL0     H33143   9.471   0.637   4.350 -0.6039 -1.7839 -1.0275
  246MOL0     H33144   9.383   0.861   4.393  1.0527  0.4842  1.1332
  246MOL0     H33145   8.966   0.861   4.413  0.0996 -0.6168  0.4948
  246MOL0     H33146   8.982   0.864   4.587 -1.5630 -2.6481 -2.4150
  246MOL0     H33147   8.996   1.097   4.373 -0.7348 -0.7461 -0.3176
  246MOL0     H33148   9.048   1.125   4.536  2.4586 -3.1428  1.9694
  246MOL0     H33149   8.798   1.037   4.602  2.6245 -0.7002  0.6686
  246MOL0     H33150   8.762   1.069   4.435  0.6340  2.4703 -1.1711
  246MOL0     H33151   8.895   1.263   4.633  3.9012 -0.8246 -1.7601
  246MOL0     H33152   8.830   1.313   4.476 -2.8082 -0.0607  0.0647
  246MOL0     H33153   8.601   1.259   4.529 -1.2163  2.6062 -0.0070
  246MOL0     H33154   8.654   1.205   4.689 -1.8349  2.6540  1.9565
  246MOL0     H33155   8.739   1.404   4.767  0.4141  0.8923  0.6004
  246MOL0     H33156   8.728   1.480   4.605 -3.0490  3.6454  1.1942
  246MOL0     H33157   8.564   1.542   4.765  1.2737 -1.6355  0.7958
  246MOL0     H33158   8.495   1.374   4.773 -2.4283 -0.0863  0.3283
  246MOL0     H33159   8.517   1.536   4.510 -0.5475 -1.3810 -1.9268
  246MOL0     H33160   8.435   1.388   4.539 -0.0886 -0.2084 -1.4529
  246MOL0     H33161   8.339   1.762   4.521 -0.1828  1.4803  2.9144
  246MOL0     H33162   8.102   1.888   4.623  2.6909 -1.3554  0.8268
  246MOL0     H33163   8.085   1.813   4.462  0.5448 -1.1085  0.2417
  246MOL0     H33164   7.885   1.679   4.540  1.0625 -0.1031  0.4589
  246MOL0     H33165   7.906   1.762   4.700 -4.4504  1.8587 -0.3268
  246MOL0     H33166   7.895   1.936   4.456 -2.1488  2.0574  0.4185
  246MOL0     H33167   7.858   1.970   4.616 -0.1066  0.9188 -1.3031
  246MOL0     H33168   7.651   1.963   4.461  4.8591 -1.2916 -4.9670
  246MOL0     H33169   7.649   1.858   4.617  2.0631  2.5399  2.0346
  246MOL0     H33170   7.436   1.867   4.531 -2.4549 -0.9328  0.5825
  246MOL0     H33171   7.232   1.883   4.410  0.1888  0.1815  1.2591
  246MOL0     H33172   7.010   1.672   3.831 -1.9047  1.2301  0.1043
  246MOL0     H33173   6.988   1.818   3.643  0.7119 -0.8373 -1.5042
  246MOL0     H33174   6.895   2.020   3.589  0.7580 -1.3041 -0.0417
  246MOL0     H33175   6.932   2.186   3.532  2.5610  1.1017  3.5745
  246MOL0     H33176   7.132   2.038   3.407  0.6485 -2.2909  1.0123
  246MOL0     H33177   6.987   1.933   3.405  0.1603  0.2986  1.3863
  246MOL0     H33178   7.010   2.036   3.198  0.1462 -1.5646  1.7227
  246MOL0     H33179   6.857   2.085   3.266 -0.3392 -0.7140  0.7721
  246MOL0     H33180   7.095   2.269   3.291 -0.1791 -1.7402  2.1622
  246MOL0     H33181   6.944   2.302   3.359  0.8165 -0.1732  0.0682
  246MOL0     H33182   6.930   2.406   3.149  1.3896  0.2405  2.2400
  246MOL0     H33183   6.849   2.254   3.118 -0.4071 -0.4281 -2.2498
  246MOL0     H33184   7.094   2.366   3.012  1.5499 -1.1830 -2.8921
  246MOL0     H33185   7.133   2.210   3.057 -0.1775  0.0178  3.3110
  246MOL0     H33186   7.052   2.268   2.815 -1.3712 -3.0663 -1.3112
  246MOL0     H33187   6.893   2.288   2.877 -0.5558 -0.4397 -1.1094
  246MOL0     H33188   6.883   2.041   2.939 -0.1401  1.6117 -0.4511
  246MOL0     H33189   6.939   2.065   2.784  4.5340 -3.3121 -0.4196
  246MOL0     H33190   7.245   2.115   3.828  0.7827 -0.8997 -0.6731
  246MOL0     H33191   7.297   1.938   4.004 -1.2281  2.4299 -1.6099
  246MOL0     H33192   7.409   1.620   4.105 -1.4004 -0.5115  0.7320
  246MOL0     H33193   7.628   1.633   4.245  0.5808  1.0377  0.3922
  246MOL0     H33194   9.083   0.700   4.639 -0.7083 -0.3402 -0.1081
  246MOL0     H33195   9.219   0.475   4.650  1.6015 -0.1987 -0.3124
  246MOL0     H33196   9.766   0.316   4.358  1.2609 -1.8902 -1.9128
  246MOL0     H33197   9.843   0.098   4.325 -0.1886 -0.8551 -1.2810
  246MOL0     H33198   9.598  -0.242   4.543 -1.1998 -2.2838 -0.4573
  246MOL0     H33199   9.730  -0.347   4.498 -3.4114 -3.4368 -2.0546
  246MOL0     H33200   9.621  -0.232   4.257  0.9133 -0.1272 -0.3328
  246MOL0     H33201   9.494  -0.327   4.361  0.6794  0.7088  0.7173
  246MOL0     H33202   9.763  -0.427   4.258 -0.5887  0.7291 -0.8968
  246MOL0     H33203   9.616  -0.459   4.185 -0.0196  4.2053 -0.4582
  246MOL0     H33204   9.706  -0.585   4.450 -0.5461  0.8651  1.1185
  246MOL0     H33205   9.535  -0.543   4.431 -0.5599 -3.8564  1.3832
  246MOL0     H33206   9.563  -0.855   4.151 -0.0760 -2.4863  2.4467
  246MOL0     H33207   9.504  -0.072   4.546 -0.4929 -0.2480  0.9770
  246MOL0     H33208   9.304   0.178   4.538 -0.0779  2.1624  1.7117
  246MOL0     H33209   9.376   0.080   4.675 -0.0673  0.2625 -0.1934
  246MOL0     H33210   9.401   0.241   4.685  0.7450 -1.4349  0.7947
  247MOL0     O33211   5.675   8.977   0.565 -0.9805  0.3790 -0.1274
  247MOL0     C33212   5.609   9.081   0.580  0.5254  0.5641 -0.6229
  247MOL0     O33213   5.593   9.178   0.480 -0.2378 -0.6026 -0.1728
  247MOL0     C33214   5.678   9.179   0.366  0.6027 -0.7000 -0.6397
  247MOL0     C33215   5.657   9.117   0.250  0.2290  1.2193 -0.1229
  247MOL0     C33216   5.759   9.105   0.154 -0.7221  1.0943  0.6152
  247MOL0     C33217   5.886   9.173   0.178 -0.2359 -0.8143  0.0288
  247MOL0     O33218   5.981   9.172   0.085 -0.2781  0.0346  0.0580
  247MOL0     C33219   6.111   9.141   0.126 -0.9739  0.2247  0.8324
  247MOL0     C33220   6.215   9.225   0.058  1.4376  0.8000 -0.2900
  247MOL0     C33221   6.214   9.234  -0.093 -0.1590 -0.0671  1.4948
  247MOL0     C33222   6.327   9.328  -0.132  0.1541 -0.9401  0.4216
  247MOL0     C33223   6.354   9.340  -0.277  0.0834 -0.0610 -0.0673
  247MOL0     C33224   6.472   9.417  -0.320  0.6800 -0.2226 -0.6842
  247MOL0     C33225   6.467   9.412  -0.468  2.1166  1.0664 -0.0283
  247MOL0     C33226   6.559   9.519  -0.537  1.3948 -0.6485  0.0911
  247MOL0     N33227   6.695   9.499  -0.495 -0.7178  0.3539  0.1444
  247MOL0     C33228   6.750   9.373  -0.519  0.2597 -1.2429  0.3864
  247MOL0     C33229   6.830   9.362  -0.418  0.4487 -0.5095 -0.8857
  247MOL0     C33230   6.889   9.228  -0.374 -0.5408  0.9147  1.3172
  247MOL0     C33231   6.861   9.207  -0.234 -0.0170 -0.2141  0.5846
  247MOL0     C33232   6.932   9.084  -0.169  0.0769 -0.2578 -0.0090
  247MOL0     C33233   7.081   9.125  -0.149  0.1895 -1.3062  0.2880
  247MOL0     O33234   7.136   9.027  -0.061  0.3461  0.6547 -0.5275
  247MOL0     C33235   7.189   8.913  -0.122  0.6612  0.2243  0.4461
  247MOL0     C33236   7.287   8.913  -0.227  0.0092  0.8539 -0.1866
  247MOL0     C33237   7.336   8.783  -0.269  0.2312  0.2242 -0.6951
  247MOL0     C33238   7.279   8.666  -0.223  0.0665 -0.2060 -0.5342
  247MOL0     C33239   7.313   8.529  -0.276 -0.1528 -0.1271 -0.5641
  247MOL0     O33240   7.238   8.423  -0.232 -0.0951 -0.4561 -0.2782
  247MOL0     C33241   7.274   8.304  -0.270 -0.6556  0.4365  0.7545
  247MOL0     C33242   7.175   8.212  -0.306 -0.7097 -0.9309 -0.3032
  247MOL0     C33243   7.200   8.082  -0.348 -0.6375 -0.5357  0.4562
  247MOL0     C33244   7.330   8.037  -0.345 -0.1600  0.6091  0.3720
  247MOL0     O33245   7.368   7.907  -0.372 -0.2339  0.0475  0.1138
  247MOL0     C33246   7.345   7.867  -0.504  0.0603  0.5991  0.3119
  247MOL0     C33247   7.324   7.709  -0.496  0.7593 -0.3962  0.0364
  247MOL0     C33248   7.368   7.635  -0.619 -1.1729 -0.5155 -0.3454
  247MOL0     C33249   7.281   7.636  -0.748 -0.1380 -0.1558  0.4715
  247MOL0     C33250   7.148   7.566  -0.709 -0.5660  0.1514 -0.1447
  247MOL0     C33251   7.146   7.413  -0.724  0.3733  0.2406 -0.6418
  247MOL0     C33252   7.002   7.368  -0.708  0.6677  0.0416  0.3859
  247MOL0     C33253   6.966   7.225  -0.744 -0.3505  0.7231  0.1202
  247MOL0    Cl33254   7.071   7.101  -0.681 -0.3776 -0.3833 -0.1755
  247MOL0     C33255   7.431   8.118  -0.289  0.2274  0.6171 -0.6337
  247MOL0     C33256   7.403   8.254  -0.255  0.3938 -1.1147 -1.1799
  247MOL0     O33257   7.398   8.527  -0.360  0.5976 -0.3667 -0.4840
  247MOL0     C33258   7.183   8.673  -0.118  0.9337  0.2788 -0.0098
  247MOL0     C33259   7.129   8.792  -0.073  0.1620 -0.0294 -0.6351
  247MOL0     N33260   6.838   9.481  -0.356 -0.0288 -0.0117  0.1302
  247MOL0     N33261   6.762   9.571  -0.402 -0.1805 -0.0576 -1.0150
  247MOL0     C33262   5.902   9.246   0.297  0.8733 -0.7774 -0.3016
  247MOL0     C33263   5.796   9.243   0.386 -0.2862 -0.7377  0.2926
  247MOL0     C33264   5.532   9.088   0.695 -0.0645 -0.4603  0.3734
  247MOL0     C33265   5.497   8.980   0.773  0.7075 -0.7724  0.9896
  247MOL0     C33266   5.410   8.987   0.878  0.5887  0.4762 -0.4184
  247MOL0     C33267   5.351   9.101   0.920  0.2503  0.5794 -0.2500
  247MOL0     O33268   5.264   9.090   1.030  0.2470 -1.0788 -0.6383
  247MOL0     C33269   5.234   9.194   1.120 -1.1956 -0.1016 -0.0408
  247MOL0     C33270   5.215   9.140   1.259  0.0559  0.3003 -0.6433
  247MOL0     C33271   5.083   9.068   1.275 -0.8014  0.0965  0.0164
  247MOL0     C33272   5.046   9.048   1.418  0.0238  0.5250  0.3495
  247MOL0     C33273   4.911   8.984   1.421 -0.5106 -0.2246  0.0317
  247MOL0     C33274   4.806   8.926   1.429  0.5137 -0.4310  0.7416
  247MOL0     C33275   5.399   9.219   0.855  0.1929 -0.1465  0.2030
  247MOL0     C33276   5.488   9.213   0.747 -0.2273  1.0091  1.2082
  247MOL0     C33277   5.540   9.351   0.702  1.0649 -0.4134  0.1138
  247MOL0     H33278   5.566   9.060   0.234 -0.8586  2.4259  1.4316
  247MOL0     H33279   5.744   9.046   0.064  1.4853 -0.7438  1.3792
  247MOL0     H33280   6.136   9.153   0.232 -0.8724  1.2088  0.7086
  247MOL0     H33281   6.131   9.037   0.100  0.4279  0.2724  1.6139
  247MOL0     H33282   6.310   9.183   0.092 -0.3465 -2.3955  1.1563
  247MOL0     H33283   6.205   9.326   0.099  0.4294 -0.0324  1.6605
  247MOL0     H33284   6.113   9.262  -0.127  0.1852  0.6183  1.0023
  247MOL0     H33285   6.237   9.137  -0.138  0.7020  1.5486 -1.8579
  247MOL0     H33286   6.318   9.424  -0.079  1.6326 -1.0669  0.9284
  247MOL0     H33287   6.413   9.287  -0.079  0.0408 -0.1092  1.3033
  247MOL0     H33288   6.356   9.243  -0.328 -1.1278  1.0979 -2.4345
  247MOL0     H33289   6.266   9.377  -0.329  1.8035  1.8558 -1.8086
  247MOL0     H33290   6.472   9.524  -0.298  1.1484  0.0809 -2.0528
  247MOL0     H33291   6.553   9.371  -0.263 -1.9157  0.3751  4.0514
  247MOL0     H33292   6.368   9.448  -0.498  1.4410 -1.4171 -0.9924
  247MOL0     H33293   6.473   9.309  -0.504 -2.2886  0.2881  0.8667
  247MOL0     H33294   6.562   9.517  -0.646 -0.3670 -1.5282  0.0227
  247MOL0     H33295   6.526   9.620  -0.511 -0.4777  0.2046 -4.7096
  247MOL0     H33296   6.718   9.297  -0.590 -1.3700 -0.5361  0.3343
  247MOL0     H33297   6.841   9.147  -0.430 -0.1596  0.5874  1.4577
  247MOL0     H33298   6.994   9.201  -0.389 -0.4362  1.1500  1.6287
  247MOL0     H33299   6.898   9.298  -0.187  4.0819 -2.4823  2.2512
  247MOL0     H33300   6.752   9.202  -0.241 -0.0863  2.2751 -3.1912
  247MOL0     H33301   6.935   8.995  -0.234  4.2082  0.2634 -0.8256
  247MOL0     H33302   6.885   9.076  -0.070  2.5032  2.7350  1.5259
  247MOL0     H33303   7.078   9.231  -0.121 -1.3912 -0.5316 -2.4821
  247MOL0     H33304   7.138   9.125  -0.242 -0.0111  0.6946  0.1277
  247MOL0     H33305   7.314   9.009  -0.268  2.3821 -0.1545 -1.1666
  247MOL0     H33306   7.408   8.787  -0.350  1.1638  2.4668  0.1435
  247MOL0     H33307   7.080   8.264  -0.301  1.8181  4.2042  1.8760
  247MOL0     H33308   7.120   8.021  -0.388 -1.6592  1.0878 -0.0826
  247MOL0     H33309   7.257   7.904  -0.558  0.2776  2.6843  1.3081
  247MOL0     H33310   7.428   7.903  -0.565  1.6998 -1.8370  0.9311
  247MOL0     H33311   7.387   7.683  -0.411  3.3285  0.7947 -1.3908
  247MOL0     H33312   7.219   7.694  -0.470  0.9465 -0.6520  0.6658
  247MOL0     H33313   7.471   7.670  -0.636 -1.7417  0.4186 -2.1260
  247MOL0     H33314   7.394   7.542  -0.568  2.0284  0.8936  0.9010
  247MOL0     H33315   7.325   7.587  -0.835  0.3611  0.9519  0.0795
  247MOL0     H33316   7.270   7.740  -0.778  1.0178  0.5018  2.1416
  247MOL0     H33317   7.062   7.601  -0.767 -1.6416 -0.1129  1.2211
  247MOL0     H33318   7.117   7.593  -0.607  1.1800 -0.4762  0.5797
  247MOL0     H33319   7.195   7.370  -0.813  2.3643 -2.7796  1.7041
  247MOL0     H33320   7.207   7.367  -0.645 -1.5954  2.4475  2.3569
  247MOL0     H33321   6.939   7.415  -0.784  0.3297 -0.3854  0.4011
  247MOL0     H33322   6.977   7.396  -0.605 -1.1010  0.2949 -0.0872
  247MOL0     H33323   6.859   7.215  -0.723 -0.5557  1.5703 -0.5076
  247MOL0     H33324   6.977   7.209  -0.851 -1.6510  2.2732 -0.2705
  247MOL0     H33325   7.537   8.100  -0.274  0.6329  1.8517 -1.8199
  247MOL0     H33326   7.476   8.328  -0.224  1.2387 -2.3561 -0.0745
  247MOL0     H33327   7.123   8.588  -0.086 -0.7976  2.0782  1.7426
  247MOL0     H33328   7.038   8.803  -0.016 -0.5008  1.0195 -1.8582
  247MOL0     H33329   5.994   9.301   0.314  1.0526 -1.2421  0.3234
  247MOL0     H33330   5.812   9.310   0.470  4.3225 -0.4319 -0.5467
  247MOL0     H33331   5.538   8.887   0.735  1.7959  0.9576 -2.5358
  247MOL0     H33332   5.385   8.890   0.920  1.0427 -0.4380 -2.1549
  247MOL0     H33333   5.143   9.247   1.093 -0.6025 -0.1987 -2.5257
  247MOL0     H33334   5.321   9.260   1.116 -0.8261 -0.5339  0.5629
  247MOL0     H33335   5.245   9.206   1.341  0.9242 -0.3069 -0.4552
  247MOL0     H33336   5.286   9.059   1.278 -1.6541 -1.5982 -2.0238
  247MOL0     H33337   5.091   8.969   1.230  3.3229 -0.5257  1.6834
  247MOL0     H33338   5.013   9.125   1.212  0.4363  0.1860 -1.3579
  247MOL0     H33339   5.122   8.992   1.473 -0.0866  2.5526  2.7336
  247MOL0     H33340   5.047   9.146   1.467 -0.9395  0.9146 -0.3712
  247MOL0     H33341   4.712   8.877   1.444  0.7240 -0.9210  0.4630
  247MOL0     H33342   5.373   9.315   0.898  0.4466 -0.5826  1.3598
  247MOL0     H33343   5.475   9.381   0.620 -0.6216 -1.5690  0.9672
  247MOL0     H33344   5.531   9.424   0.784 -2.6180  0.8054 -1.2013
  247MOL0     H33345   5.644   9.345   0.668  1.4828 -1.2940  1.4808
  248MOL0     O33346   9.836   5.360   8.416 -0.1292 -0.4223  0.1873
  248MOL0     C33347   9.940   5.371   8.473 -0.5215 -0.3662  0.5861
  248MOL0     O33348   9.951   5.443   8.582 -0.4783  0.4282 -0.2148
  248MOL0     C33349   9.832   5.487   8.636 -0.4196  0.3676  0.2012
  248MOL0     C33350   9.770   5.607   8.596  0.9307 -0.7372 -0.2383
  248MOL0     C33351   9.652   5.656   8.651 -0.4600 -0.2210 -0.5038
  248MOL0     C33352   9.598   5.587   8.764  0.0482 -0.3164  0.9735
  248MOL0     O33353   9.486   5.635   8.827  0.1882  0.0398  0.1723
  248MOL0     C33354   9.361   5.673   8.762 -0.2031  0.0147 -0.0639
  248MOL0     C33355   9.255   5.608   8.851 -0.2621 -0.8813  0.5636
  248MOL0     C33356   9.274   5.646   8.994 -0.1652 -0.6751 -0.0365
  248MOL0     C33357   9.143   5.610   9.065 -0.5956 -0.3123 -1.3038
  248MOL0     C33358   9.166   5.596   9.213  0.3047  1.1540  0.1101
  248MOL0     C33359   9.028   5.560   9.276 -0.9262 -0.5109  0.3831
  248MOL0     C33360   9.042   5.552   9.433  0.3170 -0.7062  0.5133
  248MOL0     C33361   9.083   5.693   9.503 -0.8705  0.3435  0.5121
  248MOL0     N33362   8.975   5.790   9.479 -0.3500 -0.8347  0.0078
  248MOL0     C33363   9.006   5.926   9.449  0.8930  0.0645  0.0471
  248MOL0     C33364   8.893   5.994   9.483 -0.1860  0.0074  0.1799
  248MOL0     C33365   8.855   6.136   9.465 -0.4099 -0.8911 -0.1153
  248MOL0     C33366   8.907   6.214   9.337  0.7093  0.3554 -0.3886
  248MOL0     C33367   8.851   6.352   9.322 -0.9579  0.1331 -0.2295
  248MOL0     C33368   8.697   6.353   9.285 -0.2125 -0.0264 -0.5493
  248MOL0     O33369   8.665   6.245   9.196 -0.4427 -1.1238  0.1126
  248MOL0     C33370   8.656   6.276   9.063  0.4016 -0.9193  0.4422
  248MOL0     C33371   8.587   6.192   8.970 -0.4212 -0.6015  0.8242
  248MOL0     C33372   8.587   6.227   8.838 -0.6130  0.3005  0.2051
  248MOL0     C33373   8.648   6.339   8.787 -0.1274 -0.4809 -0.3635
  248MOL0     C33374   8.640   6.375   8.652 -0.0195  0.0317  0.8748
  248MOL0     O33375   8.583   6.287   8.570 -0.0953  0.6649  0.6455
  248MOL0     C33376   8.594   6.289   8.433 -0.1831  1.3968  0.2859
  248MOL0     C33377   8.510   6.194   8.377  0.2627  0.0353 -0.0598
  248MOL0     C33378   8.498   6.185   8.241  0.5340  0.2207  1.0092
  248MOL0     C33379   8.578   6.269   8.155 -0.9573  0.0748  0.3500
  248MOL0     O33380   8.555   6.264   8.019  0.3719 -0.2188 -0.4390
  248MOL0     C33381   8.675   6.210   7.949  0.7171 -0.1675 -0.8301
  248MOL0     C33382   8.642   6.182   7.810  0.3506  0.2273  0.9212
  248MOL0     C33383   8.590   6.311   7.739 -0.0004  0.2960 -0.3076
  248MOL0     C33384   8.715   6.393   7.691 -0.0791 -0.5124 -0.3426
  248MOL0     C33385   8.669   6.509   7.592 -0.3287  0.0727  0.1369
  248MOL0     C33386   8.652   6.458   7.447  0.5215 -0.2255 -0.0642
  248MOL0     C33387   8.587   6.576   7.371 -0.1237 -1.3497  0.2670
  248MOL0     C33388   8.698   6.639   7.274 -0.3141 -0.5322  0.4354
  248MOL0    Cl33389   8.624   6.763   7.179  0.3031  0.0336 -0.4958
  248MOL0     C33390   8.688   6.345   8.220 -0.0150  0.5445 -0.4717
  248MOL0     C33391   8.695   6.355   8.359 -0.3241  1.3223 -0.3569
  248MOL0     O33392   8.689   6.489   8.616  0.3028  0.6567  0.3511
  248MOL0     C33393   8.719   6.420   8.874 -1.1234  0.4776  0.2548
  248MOL0     C33394   8.723   6.393   9.009  0.4812 -0.3327 -0.3279
  248MOL0     N33395   8.801   5.894   9.506  0.2486 -0.4898 -0.0626
  248MOL0     N33396   8.850   5.783   9.516 -0.3112 -0.0887 -0.7727
  248MOL0     C33397   9.671   5.475   8.808  0.2362  0.2794  1.0572
  248MOL0     C33398   9.788   5.428   8.750  0.6843 -0.4616 -0.4845
  248MOL0     C33399  10.057   5.298   8.413 -1.4681 -0.2159 -0.8657
  248MOL0     C33400  10.041   5.235   8.287  0.4746  0.3414 -0.4159
  248MOL0     C33401  10.145   5.140   8.236  0.7514 -0.4959 -0.2212
  248MOL0     C33402  10.262   5.124   8.303  0.9282 -0.0197 -0.6767
  248MOL0     O33403  10.350   5.026   8.266  0.1460 -0.2423 -0.0201
  248MOL0     C33404  10.457   5.089   8.196  0.1009  0.3054 -0.2903
  248MOL0     C33405  10.490   5.009   8.067  0.3956  0.3767 -0.7185
  248MOL0     C33406  10.361   4.985   7.989 -1.2534 -0.6960 -1.6513
  248MOL0     C33407  10.404   4.938   7.856  0.5876  0.3883  0.4364
  248MOL0     C33408  10.453   5.040   7.769 -0.5123  0.1138 -0.1687
  248MOL0     C33409  10.489   5.119   7.679 -0.7659  0.6355 -0.3037
  248MOL0     C33410  10.276   5.187   8.425  0.4495  0.2956  1.1687
  248MOL0     C33411  10.181   5.274   8.476 -0.2615 -0.4799 -0.3821
  248MOL0     C33412  10.215   5.342   8.606 -1.1909  0.7387 -0.7258
  248MOL0     H33413   9.814   5.652   8.508  1.6014 -0.7422  0.0895
  248MOL0     H33414   9.604   5.737   8.597  0.1515  0.5259  0.0494
  248MOL0     H33415   9.349   5.781   8.755 -1.0927  0.3347  3.9120
  248MOL0     H33416   9.358   5.636   8.659  0.1997  2.7252 -1.1223
  248MOL0     H33417   9.272   5.500   8.847 -2.8014 -1.3955  1.7966
  248MOL0     H33418   9.152   5.625   8.818 -1.0323 -0.4088  3.0012
  248MOL0     H33419   9.297   5.752   8.987  3.5109 -1.2662  0.9596
  248MOL0     H33420   9.358   5.584   9.028  0.7109  0.4719 -0.0805
  248MOL0     H33421   9.067   5.681   9.031  0.2459 -0.1096 -2.9095
  248MOL0     H33422   9.086   5.522   9.033 -0.3329 -1.5343  1.3228
  248MOL0     H33423   9.231   5.510   9.236 -0.0013  1.1532  1.0108
  248MOL0     H33424   9.212   5.679   9.267 -0.6299  1.4527  0.4801
  248MOL0     H33425   8.951   5.637   9.262  1.1833  1.5614 -0.3969
  248MOL0     H33426   8.990   5.468   9.230 -1.2832  0.2215 -0.8251
  248MOL0     H33427   9.119   5.477   9.454  0.9903 -1.0736 -2.6997
  248MOL0     H33428   8.950   5.507   9.470 -0.1933  1.2442  1.7930
  248MOL0     H33429   9.092   5.677   9.611  1.5640 -1.6497  0.0927
  248MOL0     H33430   9.171   5.741   9.460 -1.3145 -0.7107 -1.6927
  248MOL0     H33431   9.094   5.976   9.410  0.9473  0.8985  1.2125
  248MOL0     H33432   8.746   6.132   9.469 -0.4199 -0.0387  1.1502
  248MOL0     H33433   8.879   6.193   9.555 -3.3827  0.0621  0.1538
  248MOL0     H33434   9.016   6.225   9.339  0.7151  0.3002  1.8885
  248MOL0     H33435   8.873   6.149   9.256  0.4636 -0.9508  0.7160
  248MOL0     H33436   8.902   6.398   9.236  2.8205 -0.7350  1.3560
  248MOL0     H33437   8.877   6.411   9.410  1.5364 -0.7632 -0.2615
  248MOL0     H33438   8.674   6.452   9.244  3.6780  1.1683 -0.1911
  248MOL0     H33439   8.642   6.336   9.378 -0.6482  0.0808 -0.7836
  248MOL0     H33440   8.553   6.099   9.015  3.5440 -1.1481  3.1120
  248MOL0     H33441   8.532   6.164   8.769 -1.7001  2.1121 -0.6592
  248MOL0     H33442   8.446   6.153   8.455  1.1835  0.1545  0.7826
  248MOL0     H33443   8.424   6.118   8.199  0.5725  1.5776 -1.4187
  248MOL0     H33444   8.751   6.288   7.955 -1.3701  2.1589 -2.0875
  248MOL0     H33445   8.707   6.117   7.995 -0.5130 -1.3005 -2.1619
  248MOL0     H33446   8.732   6.142   7.763 -0.4287 -0.1197 -0.3037
  248MOL0     H33447   8.559   6.110   7.808  0.5836 -0.0991  2.0705
  248MOL0     H33448   8.534   6.288   7.648  1.5250 -0.3033 -1.1529
  248MOL0     H33449   8.515   6.374   7.788  0.6109  0.2794  0.6867
  248MOL0     H33450   8.786   6.327   7.641 -1.9267 -4.1861  1.5066
  248MOL0     H33451   8.754   6.447   7.778 -0.7758  0.0176 -0.3407
  248MOL0     H33452   8.757   6.572   7.605  0.1150 -1.0039  3.1440
  248MOL0     H33453   8.579   6.560   7.628 -2.5194 -3.9770  1.0471
  248MOL0     H33454   8.746   6.433   7.399  0.9281  3.0294 -1.1571
  248MOL0     H33455   8.589   6.370   7.427 -0.4542  0.8891 -2.1830
  248MOL0     H33456   8.553   6.656   7.438 -1.7219 -1.6411 -0.1491
  248MOL0     H33457   8.497   6.564   7.310  0.3880  1.8313 -1.3173
  248MOL0     H33458   8.774   6.682   7.340 -1.6971  0.0959  1.6583
  248MOL0     H33459   8.731   6.559   7.206 -0.7783  1.6619 -2.6091
  248MOL0     H33460   8.766   6.390   8.159  1.7424  1.3747  2.1895
  248MOL0     H33461   8.789   6.392   8.399  1.8595 -0.0348 -3.8444
  248MOL0     H33462   8.761   6.514   8.837 -2.2719  1.2542  0.8609
  248MOL0     H33463   8.761   6.475   9.068  0.8442  2.0529 -3.5649
  248MOL0     H33464   9.641   5.418   8.895  1.0234  2.1768  2.6465
  248MOL0     H33465   9.839   5.341   8.791 -0.4131 -1.2387 -0.7234
  248MOL0     H33466   9.945   5.223   8.238  0.1679 -1.3196  0.5093
  248MOL0     H33467  10.136   5.075   8.149 -1.8357 -4.3368  2.5757
  248MOL0     H33468  10.541   5.105   8.265  1.3786  3.7710 -2.4134
  248MOL0     H33469  10.438   5.191   8.161 -1.1736 -0.3298 -1.5411
  248MOL0     H33470  10.541   4.917   8.097  3.0115  1.8003 -0.5404
  248MOL0     H33471  10.573   5.055   8.014  2.4858 -2.7656 -0.4099
  248MOL0     H33472  10.310   5.082   7.985  0.9608  0.5877 -0.3862
  248MOL0     H33473  10.300   4.904   8.032  1.3976 -2.6230 -1.2370
  248MOL0     H33474  10.476   4.856   7.857 -1.5417 -1.6688 -1.7045
  248MOL0     H33475  10.318   4.892   7.808 -0.5406  1.4887  1.3416
  248MOL0     H33476  10.542   5.177   7.606 -0.0877  0.2059 -0.1605
  248MOL0     H33477  10.366   5.160   8.480 -0.5701 -0.4677  2.5216
  248MOL0     H33478  10.240   5.447   8.587  2.3553  0.1766  0.2662
  248MOL0     H33479  10.141   5.330   8.686  1.0623 -1.1917  1.2233
  248MOL0     H33480  10.309   5.303   8.644 -2.4744 -1.0032  0.8706
  249MOL0     O33481   6.647   6.068   0.955 -0.2564  0.0339  0.3164
  249MOL0     C33482   6.669   6.033   0.838  0.5095  0.5589  0.2257
  249MOL0     O33483   6.646   5.915   0.785 -0.5272 -0.0397  0.6656
  249MOL0     C33484   6.608   5.813   0.861  0.2562  0.0226  0.1837
  249MOL0     C33485   6.684   5.755   0.968  0.5765  0.6320 -0.4685
  249MOL0     C33486   6.630   5.650   1.039  0.1513  0.0474  0.0073
  249MOL0     C33487   6.512   5.584   0.997  0.3601 -0.2710 -0.3044
  249MOL0     O33488   6.456   5.477   1.061  0.5650 -0.1867  0.0540
  249MOL0     C33489   6.457   5.497   1.211  0.0340  0.4594 -0.2004
  249MOL0     C33490   6.383   5.366   1.270 -0.6318  0.1445  0.5988
  249MOL0     C33491   6.236   5.345   1.235 -0.1443  1.3059 -0.2464
  249MOL0     C33492   6.144   5.470   1.261  1.2179  0.0267 -0.3216
  249MOL0     C33493   5.994   5.445   1.234 -0.3138  0.0467 -0.9111
  249MOL0     C33494   5.921   5.573   1.241  0.4912  0.6712 -0.4626
  249MOL0     C33495   5.771   5.547   1.248 -0.4993  0.9747  0.5722
  249MOL0     C33496   5.704   5.486   1.123 -0.7622 -0.4195  0.6513
  249MOL0     N33497   5.711   5.569   1.004 -0.0491 -0.1386 -0.0217
  249MOL0     C33498   5.635   5.680   0.971 -0.6201 -0.1808  0.2121
  249MOL0     C33499   5.659   5.713   0.844  0.7794  0.5114 -0.5606
  249MOL0     C33500   5.595   5.815   0.758  0.1602 -0.1926  0.0615
  249MOL0     C33501   5.479   5.751   0.682  0.2240 -0.6323  0.1934
  249MOL0     C33502   5.394   5.665   0.778  0.1782 -0.4281  0.8871
  249MOL0     C33503   5.258   5.643   0.728  0.7250 -0.3158  0.2759
  249MOL0     O33504   5.267   5.599   0.592 -0.4116  0.6156 -0.1746
  249MOL0     C33505   5.159   5.521   0.549  0.3050  0.3433  0.0979
  249MOL0     C33506   5.151   5.394   0.593 -0.2448 -0.9571 -0.7308
  249MOL0     C33507   5.035   5.322   0.569 -1.3299  0.0816 -0.3458
  249MOL0     C33508   4.935   5.379   0.495  1.0451  0.3297 -0.8614
  249MOL0     C33509   4.819   5.286   0.466 -0.0752  0.6320 -0.7380
  249MOL0     O33510   4.827   5.155   0.498  0.0876  0.0448 -0.0601
  249MOL0     C33511   4.705   5.089   0.515 -0.1283  1.1508  0.1508
  249MOL0     C33512   4.668   5.000   0.419  0.3956  0.7541 -0.0537
  249MOL0     C33513   4.549   4.929   0.423  0.2455  0.5232 -0.4762
  249MOL0     C33514   4.453   4.951   0.530 -0.5440 -0.3985 -0.3100
  249MOL0     O33515   4.339   4.880   0.528  0.1372 -0.1609 -0.2061
  249MOL0     C33516   4.236   4.918   0.623  0.7427  0.5573  0.0241
  249MOL0     C33517   4.120   4.824   0.594 -0.2795 -0.8330  0.8283
  249MOL0     C33518   3.983   4.889   0.597 -0.6128  0.2267  0.4666
  249MOL0     C33519   3.942   4.929   0.742  0.1926 -0.3565 -0.0518
  249MOL0     C33520   3.795   4.974   0.725 -0.3470  0.5445  0.5893
  249MOL0     C33521   3.721   5.035   0.845 -0.2567 -0.6918  0.3084
  249MOL0     C33522   3.727   5.191   0.828  0.3812  0.4676 -0.6252
  249MOL0     C33523   3.867   5.242   0.854 -1.3233 -0.0004  0.6259
  249MOL0    Cl33524   3.869   5.424   0.848  0.3132  0.1699  0.1910
  249MOL0     C33525   4.488   5.046   0.634 -0.7239  0.0865 -0.3667
  249MOL0     C33526   4.616   5.109   0.625  0.0434 -0.4876 -0.2810
  249MOL0     O33527   4.721   5.346   0.438 -0.3775 -0.4143  0.5239
  249MOL0     C33528   4.944   5.514   0.464 -0.4230  0.2155  0.4198
  249MOL0     C33529   5.051   5.586   0.488 -1.0670 -0.0223  0.7688
  249MOL0     N33530   5.742   5.619   0.789  0.1857  0.4095  1.1083
  249MOL0     N33531   5.778   5.546   0.891  0.2966  0.1726  0.7215
  249MOL0     C33532   6.437   5.633   0.886 -2.2758 -0.2066  0.2093
  249MOL0     C33533   6.490   5.755   0.825  0.1169  0.1415 -0.2114
  249MOL0     C33534   6.692   6.154   0.748 -0.3721 -0.0225 -0.4882
  249MOL0     C33535   6.628   6.140   0.622 -0.5620  1.0843  0.1824
  249MOL0     C33536   6.660   6.235   0.522 -0.5184  0.0721  0.5083
  249MOL0     C33537   6.739   6.352   0.551 -0.1840  0.2999  0.0463
  249MOL0     O33538   6.772   6.444   0.456  0.0140 -0.6733  0.1563
  249MOL0     C33539   6.894   6.516   0.466 -0.2321 -0.5683 -0.3107
  249MOL0     C33540   7.011   6.414   0.437  0.1559  0.1827  0.4646
  249MOL0     C33541   7.001   6.368   0.293 -0.4415  0.0111 -0.3676
  249MOL0     C33542   7.119   6.273   0.255 -0.7603 -0.4006 -0.5643
  249MOL0     C33543   7.110   6.237   0.121 -0.3478  0.2719  0.0036
  249MOL0     C33544   7.104   6.220   0.002 -0.1928  0.1494  0.6108
  249MOL0     C33545   6.774   6.370   0.682 -0.7165 -1.1214  0.3324
  249MOL0     C33546   6.765   6.268   0.780 -0.2358 -0.0309 -0.1247
  249MOL0     C33547   6.840   6.287   0.914 -1.2524 -0.7452 -0.0738
  249MOL0     H33548   6.780   5.800   0.992  0.6903  0.3061 -0.3109
  249MOL0     H33549   6.692   5.616   1.122  0.2895  0.3205  0.0189
  249MOL0     H33550   6.562   5.508   1.241  0.2446 -1.1201 -0.2407
  249MOL0     H33551   6.392   5.578   1.244 -0.3487  1.7987 -3.7629
  249MOL0     H33552   6.393   5.379   1.378  1.0738  0.8278  0.3909
  249MOL0     H33553   6.441   5.275   1.255  3.9348  2.8551  0.1332
  249MOL0     H33554   6.199   5.252   1.280  0.9253  0.4734 -1.0378
  249MOL0     H33555   6.234   5.334   1.126 -2.3505  3.4576 -0.5130
  249MOL0     H33556   6.152   5.505   1.364 -0.7423  1.8205 -0.7006
  249MOL0     H33557   6.169   5.549   1.190 -1.6026 -0.3324 -1.8850
  249MOL0     H33558   5.987   5.394   1.137  3.3442 -4.0322  0.6748
  249MOL0     H33559   5.950   5.382   1.312 -2.9485 -0.9310 -3.0311
  249MOL0     H33560   5.957   5.613   1.335 -1.1823  0.6531  0.2184
  249MOL0     H33561   5.930   5.634   1.150 -2.6820  0.8455 -0.7602
  249MOL0     H33562   5.735   5.650   1.252 -0.5121  1.3434 -3.9059
  249MOL0     H33563   5.733   5.498   1.338  0.3515  0.3714  0.6183
  249MOL0     H33564   5.775   5.410   1.089  1.7115  2.3211 -0.7494
  249MOL0     H33565   5.603   5.458   1.154 -3.1360  2.9697 -3.0783
  249MOL0     H33566   5.561   5.727   1.034 -0.7671  0.5532 -0.4886
  249MOL0     H33567   5.555   5.898   0.816  0.5335  1.2241 -1.6478
  249MOL0     H33568   5.665   5.864   0.690 -4.3035  3.4740 -2.4190
  249MOL0     H33569   5.415   5.823   0.629  0.0390  0.3688  1.7132
  249MOL0     H33570   5.516   5.688   0.601  2.2828  2.1691 -1.2428
  249MOL0     H33571   5.392   5.719   0.873  0.3617  1.5436 -0.1908
  249MOL0     H33572   5.450   5.572   0.797 -1.6462 -1.3019  2.2545
  249MOL0     H33573   5.220   5.745   0.726  0.7971 -0.3059 -1.4654
  249MOL0     H33574   5.195   5.583   0.795 -0.2745  0.6490  0.2163
  249MOL0     H33575   5.228   5.361   0.661 -0.8500  2.0371  1.6087
  249MOL0     H33576   5.019   5.221   0.604 -1.4463 -0.7695 -2.7050
  249MOL0     H33577   4.740   4.997   0.339  0.9431  3.2441  0.2512
  249MOL0     H33578   4.536   4.853   0.347  0.9412  1.7041 -1.8151
  249MOL0     H33579   4.263   4.905   0.729  2.8732 -0.3596 -0.5719
  249MOL0     H33580   4.211   5.025   0.618 -1.9598  0.1029  1.9053
  249MOL0     H33581   4.143   4.779   0.497 -0.0929 -2.0341  1.4160
  249MOL0     H33582   4.134   4.751   0.674 -1.2606  0.6554  2.4190
  249MOL0     H33583   3.990   4.968   0.522 -1.1097  0.7459  0.9629
  249MOL0     H33584   3.907   4.815   0.567  0.0167 -0.2651  0.0408
  249MOL0     H33585   3.999   5.010   0.787 -0.9798 -1.4946  3.8387
  249MOL0     H33586   3.945   4.840   0.806 -0.6156  0.6359  1.4083
  249MOL0     H33587   3.730   4.891   0.695 -0.7687 -0.3606  3.7037
  249MOL0     H33588   3.796   5.052   0.649  0.8781  0.9634  1.0095
  249MOL0     H33589   3.616   5.005   0.846  0.3798 -3.0675  0.4414
  249MOL0     H33590   3.770   5.006   0.938  0.4348 -0.3648  0.0485
  249MOL0     H33591   3.658   5.240   0.897 -0.2249 -0.2865 -0.6893
  249MOL0     H33592   3.684   5.231   0.736  1.1373  3.1098  0.0733
  249MOL0     H33593   3.914   5.225   0.951  0.9175 -0.4156 -0.4683
  249MOL0     H33594   3.933   5.222   0.769  0.7218  2.3791  1.5355
  249MOL0     H33595   4.420   5.051   0.718  1.0134 -0.8243  1.1651
  249MOL0     H33596   4.645   5.184   0.698 -1.0407 -0.8099  0.4890
  249MOL0     H33597   4.858   5.560   0.415 -1.5629 -2.2841 -0.0614
  249MOL0     H33598   5.047   5.685   0.444 -2.1971 -0.3586  0.0649
  249MOL0     H33599   6.346   5.582   0.855 -2.1537 -0.8705  0.9210
  249MOL0     H33600   6.428   5.804   0.749 -0.9624  1.4502  1.4425
  249MOL0     H33601   6.570   6.055   0.588  0.9684 -1.4055  3.3311
  249MOL0     H33602   6.615   6.224   0.424 -1.4799  0.7867  0.8514
  249MOL0     H33603   6.907   6.565   0.562 -2.1123  0.1908 -0.3994
  249MOL0     H33604   6.892   6.600   0.396  0.6996  2.2177  2.7665
  249MOL0     H33605   7.009   6.325   0.501 -0.6931  0.3453  0.6730
  249MOL0     H33606   7.106   6.468   0.448 -0.0678  0.6447  0.1689
  249MOL0     H33607   7.022   6.447   0.220 -1.8099  0.8218  0.0894
  249MOL0     H33608   6.907   6.313   0.279 -0.2664 -0.3977  0.0372
  249MOL0     H33609   7.213   6.319   0.287  0.9649 -3.2985 -1.0445
  249MOL0     H33610   7.125   6.186   0.321  0.9798  0.6499  0.7644
  249MOL0     H33611   7.099   6.192  -0.101  0.9769  0.1822  0.5353
  249MOL0     H33612   6.833   6.458   0.706  0.0852 -1.3925 -0.5787
  249MOL0     H33613   6.849   6.192   0.967  1.9499 -0.5813 -0.1747
  249MOL0     H33614   6.937   6.327   0.886 -1.1008 -1.6218 -0.8215
  249MOL0     H33615   6.786   6.359   0.977  0.9411 -1.3063  2.6129
  250MOL0     O33616   0.947  10.847   0.663 -0.2986  0.7125 -0.9798
  250MOL0     C33617   0.888  10.778   0.746 -0.4998 -0.0062 -0.1318
  250MOL0     O33618   0.947  10.695   0.841 -0.1994 -0.0973  0.7522
  250MOL0     C33619   1.083  10.685   0.845 -0.7065 -0.4180  0.1481
  250MOL0     C33620   1.178  10.677   0.739  0.0569  0.3506 -0.5283
  250MOL0     C33621   1.320  10.668   0.758  1.0544  0.4367 -0.6948
  250MOL0     C33622   1.370  10.664   0.886 -0.5070  0.1517  0.6042
  250MOL0     O33623   1.505  10.652   0.902  0.1067 -0.0792  0.1516
  250MOL0     C33624   1.569  10.754   0.976 -0.4680 -0.4520  0.2612
  250MOL0     C33625   1.714  10.772   0.911  0.1645  0.0724  0.9329
  250MOL0     C33626   1.773  10.912   0.933  0.7658  0.5879 -0.4108
  250MOL0     C33627   1.754  10.935   1.085 -0.9493 -0.3077  0.2020
  250MOL0     C33628   1.854  11.051   1.128 -0.2332  0.3709  0.3973
  250MOL0     C33629   1.795  11.179   1.098 -0.3308  1.0501  0.0666
  250MOL0     C33630   1.892  11.294   1.134  0.2753 -0.4207 -1.0124
  250MOL0     C33631   1.822  11.429   1.125  0.5441  0.3992 -0.2606
  250MOL0     N33632   1.732  11.469   1.228 -0.4368 -0.3466 -0.3094
  250MOL0     C33633   1.601  11.447   1.240  0.3463  0.1627  0.0820
  250MOL0     C33634   1.548  11.519   1.333  0.9212  0.8121 -0.6320
  250MOL0     C33635   1.405  11.519   1.366  0.0022  1.2915 -0.3282
  250MOL0     C33636   1.304  11.505   1.251  0.9469 -0.8311  0.1525
  250MOL0     C33637   1.152  11.518   1.272 -0.3813  0.7301 -0.1978
  250MOL0     C33638   1.091  11.523   1.138  0.3820 -0.0813 -0.1191
  250MOL0     O33639   0.967  11.588   1.165 -0.4840  1.1546 -0.1875
  250MOL0     C33640   0.864  11.536   1.234  0.4821  0.1390 -0.2845
  250MOL0     C33641   0.807  11.409   1.207  0.3277 -0.5586  0.0065
  250MOL0     C33642   0.705  11.353   1.281  0.1864 -0.0262 -0.2352
  250MOL0     C33643   0.647  11.431   1.387  0.1144 -0.2370 -0.0044
  250MOL0     C33644   0.548  11.373   1.481  0.5294 -0.7640 -0.6592
  250MOL0     O33645   0.474  11.265   1.441  0.4930  0.6694  0.4055
  250MOL0     C33646   0.345  11.245   1.492  0.6062 -0.3634 -0.0044
  250MOL0     C33647   0.262  11.337   1.564  0.2155 -0.4910 -0.4876
  250MOL0     C33648   0.140  11.289   1.603  0.1518 -0.1166 -0.0207
  250MOL0     C33649   0.079  11.167   1.572 -0.4129  0.1734  0.6083
  250MOL0     O33650  -0.044  11.144   1.636 -0.8330  0.5317 -0.0954
  250MOL0     C33651  -0.114  11.019   1.598  1.4257 -0.4413 -0.7497
  250MOL0     C33652  -0.259  11.029   1.639  0.1873  0.8922 -0.1991
  250MOL0     C33653  -0.339  10.898   1.614 -0.8181 -0.7088 -0.7117
  250MOL0     C33654  -0.489  10.923   1.655  0.1463 -0.5580 -0.0970
  250MOL0     C33655  -0.557  10.981   1.525 -0.1014 -0.6957 -0.3175
  250MOL0     C33656  -0.711  10.969   1.537  0.5575 -0.6936  0.6277
  250MOL0     C33657  -0.792  10.996   1.408 -0.8098  0.0282 -0.1995
  250MOL0     C33658  -0.944  10.998   1.441 -0.0702  0.2731 -0.1323
  250MOL0    Cl33659  -1.048  11.002   1.297  0.3129 -0.0382  0.2985
  250MOL0     C33660   0.161  11.080   1.493 -0.7826 -0.4489  1.3789
  250MOL0     C33661   0.294  11.115   1.465  0.3520  0.3635 -0.4981
  250MOL0     O33662   0.541  11.426   1.591  0.7193 -0.3344 -0.1317
  250MOL0     C33663   0.692  11.565   1.396  0.1039 -1.2630 -0.6519
  250MOL0     C33664   0.805  11.614   1.328 -0.2479  0.4664 -0.3859
  250MOL0     N33665   1.660  11.582   1.391 -0.1195 -0.2249  0.4727
  250MOL0     N33666   1.770  11.559   1.326 -0.5665  0.2050  0.7101
  250MOL0     C33667   1.283  10.678   0.989  1.1919  0.1977 -0.6079
  250MOL0     C33668   1.145  10.685   0.968  0.7659 -1.0764  0.1380
  250MOL0     C33669   0.735  10.776   0.743  0.4504  0.2733  0.9267
  250MOL0     C33670   0.662  10.679   0.819  0.3662  1.1359 -0.8033
  250MOL0     C33671   0.527  10.679   0.821 -0.3854  0.0957  0.8567
  250MOL0     C33672   0.454  10.776   0.757  0.3437 -0.2358 -0.4740
  250MOL0     O33673   0.325  10.751   0.775 -0.7295  0.0801  0.1462
  250MOL0     C33674   0.223  10.842   0.739 -0.7274  0.0928  0.3994
  250MOL0     C33675   0.170  10.942   0.846 -0.6167 -0.6742  0.7370
  250MOL0     C33676   0.157  10.907   0.989  0.9947  0.4507  0.8010
  250MOL0     C33677   0.046  10.814   0.992 -0.0274  1.3071 -0.3665
  250MOL0     C33678   0.004  10.805   1.139 -0.0939  0.4903  0.9347
  250MOL0     C33679  -0.018  10.809   1.254 -0.9313 -0.1547 -0.6017
  250MOL0     C33680   0.520  10.876   0.679 -0.5669 -0.2294  0.6819
  250MOL0     C33681   0.660  10.870   0.666 -0.3292 -0.3921  0.9407
  250MOL0     C33682   0.726  10.974   0.575 -1.3780  0.1178 -0.5505
  250MOL0     H33683   1.127  10.681   0.643 -1.7524 -1.0990  0.3059
  250MOL0     H33684   1.390  10.658   0.676  1.8733  0.7876 -0.0473
  250MOL0     H33685   1.525  10.854   0.977  0.6669  0.0888  2.7974
  250MOL0     H33686   1.561  10.719   1.079 -0.3635  0.3858  0.5540
  250MOL0     H33687   1.711  10.762   0.802 -0.0754  3.2937  0.5435
  250MOL0     H33688   1.776  10.691   0.952 -0.3543 -0.5533  0.4935
  250MOL0     H33689   1.716  10.990   0.881 -3.1836 -0.4685  1.9019
  250MOL0     H33690   1.879  10.909   0.907  1.4675 -0.0782  2.2644
  250MOL0     H33691   1.651  10.966   1.108  0.5916  3.0841  3.5391
  250MOL0     H33692   1.777  10.844   1.142 -2.0631  0.2417  1.5978
  250MOL0     H33693   1.866  11.049   1.237 -2.0671  0.6682  0.6376
  250MOL0     H33694   1.949  11.029   1.078 -0.4253 -1.4254  0.7491
  250MOL0     H33695   1.785  11.190   0.990 -0.5802  2.0754  0.1834
  250MOL0     H33696   1.702  11.194   1.153 -0.1062  1.9736  0.2268
  250MOL0     H33697   1.981  11.292   1.070  1.0478  0.2036 -0.0018
  250MOL0     H33698   1.932  11.283   1.236  0.5245 -3.4633 -1.3268
  250MOL0     H33699   1.889  11.514   1.111  1.3360 -0.0763  0.5070
  250MOL0     H33700   1.768  11.433   1.030  2.1978  0.5915 -1.2269
  250MOL0     H33701   1.544  11.372   1.185 -1.8324 -0.8563  3.4064
  250MOL0     H33702   1.380  11.443   1.440  0.4510  1.4206 -0.0385
  250MOL0     H33703   1.378  11.606   1.428 -1.4531  0.2877  0.5157
  250MOL0     H33704   1.332  11.581   1.177 -1.0685  2.8209  2.8303
  250MOL0     H33705   1.325  11.406   1.210  0.7633 -0.6413 -0.4219
  250MOL0     H33706   1.130  11.605   1.334 -4.4432 -2.3515  3.2779
  250MOL0     H33707   1.110  11.432   1.324 -1.9572  2.8299  2.2777
  250MOL0     H33708   1.086  11.420   1.100 -0.8763 -0.9969  2.3363
  250MOL0     H33709   1.138  11.591   1.066 -1.7150  1.3828 -0.1894
  250MOL0     H33710   0.857  11.363   1.123  0.0878 -0.3937 -0.2308
  250MOL0     H33711   0.683  11.248   1.262  0.6850 -0.2504  0.3906
  250MOL0     H33712   0.306  11.428   1.606 -0.9710  0.7722 -1.8606
  250MOL0     H33713   0.097  11.361   1.672  1.5230 -0.7766  1.5751
  250MOL0     H33714  -0.112  10.989   1.493  0.5823 -3.0622 -0.0882
  250MOL0     H33715  -0.073  10.934   1.653 -0.9416 -0.3501  1.3024
  250MOL0     H33716  -0.270  11.056   1.744 -1.0902  1.9129 -0.5656
  250MOL0     H33717  -0.305  11.102   1.571 -1.7224 -1.2503 -1.3571
  250MOL0     H33718  -0.327  10.846   1.518  2.7649  0.7494 -1.2209
  250MOL0     H33719  -0.299  10.833   1.692  3.4083  1.3313 -0.9288
  250MOL0     H33720  -0.491  11.001   1.732  0.1036 -1.5011  0.8825
  250MOL0     H33721  -0.541  10.835   1.694 -0.4908  0.5062  1.5290
  250MOL0     H33722  -0.528  10.914   1.443 -0.7500 -3.6478  1.7039
  250MOL0     H33723  -0.519  11.082   1.510  0.4972 -0.7793  0.5462
  250MOL0     H33724  -0.742  10.869   1.569 -3.8108  0.5270  0.9162
  250MOL0     H33725  -0.747  11.049   1.603  3.2418  1.9551 -0.8787
  250MOL0     H33726  -0.761  10.915   1.340 -1.8926  1.2424 -2.2247
  250MOL0     H33727  -0.758  11.083   1.351  0.2170 -1.5341 -2.1348
  250MOL0     H33728  -0.955  10.909   1.504  0.0656  0.1792 -0.2400
  250MOL0     H33729  -0.959  11.092   1.494 -0.5624  0.0820  0.0655
  250MOL0     H33730   0.123  10.985   1.457  2.5051 -0.9437 -1.3029
  250MOL0     H33731   0.365  11.043   1.425 -0.7522 -2.5526  2.3381
  250MOL0     H33732   0.647  11.631   1.470  3.3646  4.2437 -2.9070
  250MOL0     H33733   0.823  11.716   1.359  0.2653  1.1065 -2.6361
  250MOL0     H33734   1.324  10.671   1.089  2.5216  3.4722 -0.7769
  250MOL0     H33735   1.075  10.689   1.052 -1.7560  1.7658 -1.8808
  250MOL0     H33736   0.704  10.608   0.890 -3.7317  1.9534  2.8425
  250MOL0     H33737   0.466  10.617   0.885  1.5775 -1.1825  1.5790
  250MOL0     H33738   0.135  10.783   0.710 -0.5376  0.2664 -0.5414
  250MOL0     H33739   0.250  10.900   0.651 -0.3670  0.9319  1.0443
  250MOL0     H33740   0.084  10.992   0.803  2.1639  1.2837 -3.1276
  250MOL0     H33741   0.240  11.026   0.844 -0.2310 -0.8737 -3.9479
  250MOL0     H33742   0.131  11.002   1.036  2.7587  0.8029  1.1296
  250MOL0     H33743   0.253  10.870   1.027  1.0349 -1.4092 -0.9486
  250MOL0     H33744  -0.040  10.844   0.932 -0.3741  3.4742  1.0791
  250MOL0     H33745   0.106  10.725   0.971 -0.4857  0.9584 -0.2162
  250MOL0     H33746  -0.028  10.814   1.360  0.3924 -0.7245 -0.4418
  250MOL0     H33747   0.464  10.944   0.615 -0.9977 -2.5819 -1.6305
  250MOL0     H33748   0.653  11.047   0.538 -0.7066  1.7698  1.2609
  250MOL0     H33749   0.808  11.024   0.627  1.3649 -1.2501 -3.2359
  250MOL0     H33750   0.771  10.926   0.488  0.8671  2.4000 -0.7509
  251MOL0     O33751   4.503   5.804   1.691 -0.2492  0.5112  0.3350
  251MOL0     C33752   4.469   5.819   1.805  0.4956 -0.2987  0.0631
  251MOL0     O33753   4.517   5.768   1.918 -0.4998  0.4034 -0.0425
  251MOL0     C33754   4.637   5.701   1.910 -0.6195  0.4401 -0.6082
  251MOL0     C33755   4.637   5.566   1.865 -0.8607  0.4863 -0.5209
  251MOL0     C33756   4.761   5.501   1.863  0.0936  0.8820  0.5620
  251MOL0     C33757   4.880   5.564   1.914 -0.5024 -0.4884  0.0425
  251MOL0     O33758   5.007   5.517   1.911  1.2723  0.0438 -0.0650
  251MOL0     C33759   5.020   5.376   1.881 -0.1211 -0.6555 -0.6574
  251MOL0     C33760   4.991   5.301   2.008  0.3169 -0.7279 -0.0429
  251MOL0     C33761   5.106   5.201   2.026  0.9441 -0.1496 -0.7226
  251MOL0     C33762   5.240   5.261   2.065 -1.1963 -0.8461 -0.1548
  251MOL0     C33763   5.363   5.170   2.028  0.1873  0.1809  0.9924
  251MOL0     C33764   5.370   5.024   2.098  0.2407 -1.0494 -0.3016
  251MOL0     C33765   5.490   4.953   2.038 -0.7658 -0.0654  0.1189
  251MOL0     C33766   5.527   4.824   2.110 -1.2935 -0.5056  0.9351
  251MOL0     N33767   5.672   4.796   2.109 -0.2133 -0.0921 -0.1233
  251MOL0     C33768   5.761   4.823   2.215  0.3561  0.0892  0.4229
  251MOL0     C33769   5.873   4.754   2.180 -0.6261  0.0565  0.1889
  251MOL0     C33770   5.988   4.752   2.277 -0.0972 -1.3622  0.1299
  251MOL0     C33771   5.960   4.699   2.408 -1.2154 -0.1585  0.5672
  251MOL0     C33772   6.084   4.644   2.485  0.3022  0.6978  0.6922
  251MOL0     C33773   6.143   4.749   2.579 -1.0577  0.2758 -0.2595
  251MOL0     O33774   6.280   4.701   2.618  0.0290 -0.2358 -0.5633
  251MOL0     C33775   6.378   4.801   2.621  0.4308  0.3470 -0.5269
  251MOL0     C33776   6.356   4.926   2.688  0.4564  0.3736  0.8231
  251MOL0     C33777   6.453   5.026   2.688  0.0119  0.1565 -0.8034
  251MOL0     C33778   6.569   5.009   2.600  0.3965  1.1326 -0.4489
  251MOL0     C33779   6.663   5.118   2.599 -0.4036  0.1173 -0.6375
  251MOL0     O33780   6.766   5.109   2.518  0.1098  0.2630  0.0979
  251MOL0     C33781   6.871   5.196   2.508 -0.3874  1.5725  0.3600
  251MOL0     C33782   6.932   5.255   2.616 -0.6075 -0.0057 -0.1218
  251MOL0     C33783   7.053   5.331   2.590 -1.3511 -0.3557  0.0239
  251MOL0     C33784   7.107   5.347   2.454  0.2652 -0.2403 -0.6846
  251MOL0     O33785   7.223   5.415   2.453  0.2067 -0.8071  0.4180
  251MOL0     C33786   7.215   5.557   2.484  0.0736  0.7060  0.2796
  251MOL0     C33787   7.338   5.622   2.421  0.1827  0.5239 -0.5238
  251MOL0     C33788   7.342   5.766   2.423  0.3883 -1.0610 -1.5225
  251MOL0     C33789   7.336   5.823   2.565  1.0577  0.2465  0.1410
  251MOL0     C33790   7.362   5.974   2.567 -1.1129  0.7622  0.0214
  251MOL0     C33791   7.521   6.016   2.563 -0.2331  0.3496  0.2744
  251MOL0     C33792   7.535   6.169   2.576  0.4369 -0.1502 -0.3602
  251MOL0     C33793   7.669   6.219   2.527 -0.6020  0.2512 -0.4001
  251MOL0    Cl33794   7.795   6.204   2.649  0.4016 -0.2945  0.0118
  251MOL0     C33795   7.049   5.285   2.346 -0.3031 -0.1196 -0.5455
  251MOL0     C33796   6.927   5.210   2.374  0.4776 -0.6491  0.2807
  251MOL0     O33797   6.649   5.201   2.687  1.2730  0.6137 -0.0051
  251MOL0     C33798   6.590   4.887   2.533  0.0651  0.8437 -0.9657
  251MOL0     C33799   6.494   4.782   2.556  0.2947 -0.5308 -1.4095
  251MOL0     N33800   5.857   4.696   2.055 -0.8705  0.6939 -0.3080
  251MOL0     N33801   5.742   4.721   2.015 -0.6698 -0.7384 -0.0638
  251MOL0     C33802   4.866   5.698   1.957 -0.4514  1.3368 -0.4636
  251MOL0     C33803   4.748   5.766   1.950  0.5784  1.2369  0.6874
  251MOL0     C33804   4.368   5.917   1.820  0.3482  0.0990 -1.1011
  251MOL0     C33805   4.374   6.003   1.926  0.2426 -1.3523  0.1329
  251MOL0     C33806   4.278   6.102   1.948 -0.0731 -0.2047 -0.4034
  251MOL0     C33807   4.182   6.121   1.855  0.2708  0.1691 -0.1094
  251MOL0     O33808   4.104   6.242   1.875  0.4071 -0.2786  0.1596
  251MOL0     C33809   3.990   6.254   1.788 -0.4842 -0.3449  0.2159
  251MOL0     C33810   3.911   6.376   1.826 -0.1569  0.3848 -0.4199
  251MOL0     C33811   3.785   6.398   1.749 -0.3528 -0.1216 -0.6235
  251MOL0     C33812   3.663   6.317   1.783 -0.6553  0.0525  0.0823
  251MOL0     C33813   3.633   6.339   1.929 -0.6174 -0.0763 -0.0469
  251MOL0     C33814   3.633   6.364   2.049  0.1350  0.0996  0.2233
  251MOL0     C33815   4.168   6.031   1.750 -0.6787  0.0920  1.1942
  251MOL0     C33816   4.268   5.933   1.717  0.4893 -0.2702  0.1256
  251MOL0     C33817   4.243   5.842   1.597  0.7834  0.5043  0.3270
  251MOL0     H33818   4.552   5.506   1.834 -0.9252  0.1265  0.3203
  251MOL0     H33819   4.755   5.397   1.831 -2.5013  0.7860  1.1605
  251MOL0     H33820   4.951   5.332   1.808 -1.7662 -1.6029  1.3717
  251MOL0     H33821   5.125   5.359   1.856  0.2120  1.4014 -0.9082
  251MOL0     H33822   4.895   5.251   1.997 -0.4396  0.7223 -0.2864
  251MOL0     H33823   4.973   5.378   2.084 -1.1154  2.2713 -3.1754
  251MOL0     H33824   5.115   5.156   1.927 -0.9339 -1.0533 -0.5231
  251MOL0     H33825   5.093   5.114   2.092  4.2809 -0.5286 -0.3868
  251MOL0     H33826   5.274   5.357   2.024 -0.3674 -1.8204 -1.8481
  251MOL0     H33827   5.228   5.274   2.173 -0.4661  0.4039 -0.1981
  251MOL0     H33828   5.368   5.160   1.920  0.3200 -0.7082  1.0802
  251MOL0     H33829   5.457   5.216   2.059 -0.1238  0.8874  0.9325
  251MOL0     H33830   5.382   5.034   2.206 -0.2204 -0.2525 -0.3144
  251MOL0     H33831   5.279   4.967   2.077 -0.7182  1.5052 -4.3038
  251MOL0     H33832   5.578   5.017   2.039 -0.4969 -0.4181  1.9974
  251MOL0     H33833   5.468   4.930   1.933  1.4262  0.4121 -0.4996
  251MOL0     H33834   5.496   4.832   2.214 -3.5786 -0.8980  0.3265
  251MOL0     H33835   5.476   4.734   2.074 -0.2625 -1.8210  2.5963
  251MOL0     H33836   5.747   4.869   2.312  0.1162 -0.4124  0.6287
  251MOL0     H33837   6.057   4.686   2.225  0.7254 -1.4672  1.3058
  251MOL0     H33838   6.041   4.848   2.286  0.7679 -1.7984 -0.2420
  251MOL0     H33839   5.908   4.765   2.478 -2.2299 -2.5130  2.1572
  251MOL0     H33840   5.888   4.618   2.389  0.6869 -1.5809 -0.9113
  251MOL0     H33841   6.162   4.618   2.413 -0.3510 -1.1022  0.5852
  251MOL0     H33842   6.048   4.555   2.538 -5.6760  0.6193 -2.5553
  251MOL0     H33843   6.079   4.751   2.668  0.2403  2.6466  0.7351
  251MOL0     H33844   6.153   4.848   2.533  0.0763  0.2740 -0.0551
  251MOL0     H33845   6.273   4.934   2.759 -0.1493 -0.5545  0.2494
  251MOL0     H33846   6.440   5.119   2.742 -0.8522  0.5190 -1.6191
  251MOL0     H33847   6.895   5.240   2.717  2.7494 -4.5655  0.7848
  251MOL0     H33848   7.118   5.359   2.672  0.6785  3.4407 -2.6096
  251MOL0     H33849   7.126   5.598   2.435  2.2931  1.7546 -3.2909
  251MOL0     H33850   7.209   5.586   2.589  1.1049  1.1825  0.2248
  251MOL0     H33851   7.413   5.571   2.482 -0.6361  1.9483  1.8366
  251MOL0     H33852   7.359   5.601   2.316 -0.0862 -1.0579 -0.2842
  251MOL0     H33853   7.441   5.796   2.387  2.2508 -2.6550  1.8447
  251MOL0     H33854   7.253   5.810   2.375  1.4070  0.0775 -2.4268
  251MOL0     H33855   7.405   5.767   2.629 -0.3299  0.4897  1.9144
  251MOL0     H33856   7.237   5.814   2.611  0.3550  2.3818 -0.8530
  251MOL0     H33857   7.310   6.010   2.657 -3.4300  3.3680 -2.1866
  251MOL0     H33858   7.302   6.019   2.487  0.1493 -1.5253 -2.3431
  251MOL0     H33859   7.588   5.977   2.639 -1.2848  3.1107  2.7981
  251MOL0     H33860   7.552   5.973   2.466 -0.0817  0.3971  0.3022
  251MOL0     H33861   7.532   6.201   2.681  3.7674  0.8635 -0.4707
  251MOL0     H33862   7.449   6.215   2.528 -1.1907  0.8848  3.1540
  251MOL0     H33863   7.711   6.165   2.441  1.6575 -0.8953  1.2899
  251MOL0     H33864   7.654   6.323   2.498 -0.3049  0.8898  1.6304
  251MOL0     H33865   7.088   5.289   2.244 -1.1248 -0.8816 -0.9064
  251MOL0     H33866   6.886   5.141   2.300  4.0532 -0.2416 -2.3364
  251MOL0     H33867   6.667   4.855   2.463  2.1439  2.4771  0.4462
  251MOL0     H33868   6.512   4.692   2.499 -2.9005  0.0632 -3.5664
  251MOL0     H33869   4.945   5.758   2.002 -1.0302  2.4675 -0.9137
  251MOL0     H33870   4.744   5.869   1.982 -2.0735  1.7455 -0.9607
  251MOL0     H33871   4.461   5.993   1.990  0.3680  0.1036  0.2045
  251MOL0     H33872   4.290   6.174   2.028  1.8260  0.0166 -0.8470
  251MOL0     H33873   3.935   6.162   1.809 -0.1942 -0.8410 -1.1193
  251MOL0     H33874   4.025   6.257   1.684  0.7164 -1.3159  0.5617
  251MOL0     H33875   3.967   6.469   1.808 -2.5452  1.7815 -1.1321
  251MOL0     H33876   3.887   6.376   1.932 -1.0566 -0.5083 -0.6109
  251MOL0     H33877   3.810   6.384   1.643 -3.0389  1.5998 -1.5885
  251MOL0     H33878   3.767   6.506   1.747  5.6273  1.2657 -2.1862
  251MOL0     H33879   3.578   6.342   1.719 -0.8748  0.1268  0.4015
  251MOL0     H33880   3.686   6.211   1.767  1.8178  0.1352  2.4606
  251MOL0     H33881   3.634   6.394   2.152  1.7812 -0.1440  0.3003
  251MOL0     H33882   4.084   6.049   1.684  0.0050  1.9871  0.7910
  251MOL0     H33883   4.328   5.855   1.529  0.0122  0.9896 -0.5780
  251MOL0     H33884   4.240   5.737   1.629 -0.9788  0.9041  1.5803
  251MOL0     H33885   4.145   5.863   1.555  1.7257 -1.2123 -3.1074
  252MOL0     O33886   8.667  10.474   6.447 -0.2399  0.0581  0.9844
  252MOL0     C33887   8.662  10.413   6.551  0.2414 -0.6281  0.2543
  252MOL0     O33888   8.582  10.460   6.654 -0.1366  0.1257  0.5744
  252MOL0     C33889   8.490  10.557   6.632 -0.7292 -0.5182  0.0851
  252MOL0     C33890   8.358  10.532   6.597  0.8685  0.9331  0.9023
  252MOL0     C33891   8.268  10.641   6.578 -0.0620  0.4282  0.9244
  252MOL0     C33892   8.307  10.768   6.614 -0.0226  0.4275 -0.3235
  252MOL0     O33893   8.214  10.876   6.610  0.2064 -0.3582 -1.0559
  252MOL0     C33894   8.176  10.928   6.487  0.5620  0.7115  0.5234
  252MOL0     C33895   8.023  10.907   6.462 -0.8845  0.6518 -0.3335
  252MOL0     C33896   7.979  10.939   6.313  0.0205 -0.3359  0.9487
  252MOL0     C33897   8.050  10.842   6.216 -0.0363 -0.0160 -0.7735
  252MOL0     C33898   7.985  10.824   6.077 -0.5202  0.5478 -0.2301
  252MOL0     C33899   8.111  10.875   5.983 -0.1018  0.3499 -0.4312
  252MOL0     C33900   8.060  10.870   5.834 -0.0902 -0.0777  1.5990
  252MOL0     C33901   7.931  10.951   5.806 -0.8243  0.2565 -0.4782
  252MOL0     N33902   7.931  11.087   5.858  0.6190  0.4414 -0.2876
  252MOL0     C33903   7.870  11.134   5.969 -0.6230  0.6499 -0.4864
  252MOL0     C33904   7.902  11.268   5.971 -0.9072 -0.7528  0.4279
  252MOL0     C33905   7.868  11.365   6.080  0.1154 -0.0880  0.0930
  252MOL0     C33906   7.861  11.295   6.221  0.7866  0.2693  0.3318
  252MOL0     C33907   7.815  11.376   6.336  0.9990 -1.0132 -0.2634
  252MOL0     C33908   7.908  11.494   6.357 -0.4705  0.4101  0.0347
  252MOL0     O33909   7.886  11.551   6.490 -0.4655 -0.4699 -0.2459
  252MOL0     C33910   7.953  11.661   6.542 -0.3875 -0.5415 -0.4666
  252MOL0     C33911   8.081  11.713   6.493  0.3959 -0.1975 -0.0125
  252MOL0     C33912   8.139  11.818   6.557 -0.1914 -0.7378  0.1088
  252MOL0     C33913   8.097  11.869   6.679  0.1805  0.0434  0.6806
  252MOL0     C33914   8.156  11.988   6.742 -0.5447 -0.1733  0.2328
  252MOL0     O33915   8.286  12.001   6.729  0.1095  0.7571 -0.0424
  252MOL0     C33916   8.357  12.080   6.817 -0.3193  0.1332 -0.0881
  252MOL0     C33917   8.408  12.200   6.788  0.5740 -0.7993 -1.2913
  252MOL0     C33918   8.480  12.285   6.890 -0.6217 -0.2215  0.1657
  252MOL0     C33919   8.489  12.231   7.016 -0.3878  0.3244 -1.0856
  252MOL0     O33920   8.549  12.293   7.124 -0.2861  0.1797 -0.2361
  252MOL0     C33921   8.644  12.404   7.113  0.3917  0.6047  1.2438
  252MOL0     C33922   8.781  12.367   7.054 -0.5781  0.5497  0.3180
  252MOL0     C33923   8.874  12.483   7.051  0.4728 -0.5198  0.1432
  252MOL0     C33924   9.020  12.447   7.022 -0.8060 -0.8778  0.6309
  252MOL0     C33925   9.099  12.573   6.988  0.7929 -0.3752  0.3866
  252MOL0     C33926   9.114  12.659   7.115 -0.4651 -0.1892 -0.6733
  252MOL0     C33927   9.197  12.778   7.092  0.2063 -0.3749  0.0896
  252MOL0     C33928   9.282  12.798   7.218 -0.0618 -0.8199 -1.0512
  252MOL0    Cl33929   9.183  12.852   7.358  0.4948 -0.0086 -0.1851
  252MOL0     C33930   8.438  12.113   7.051 -0.2888  0.2182  0.1349
  252MOL0     C33931   8.378  12.029   6.946 -0.5497  0.6085 -0.1630
  252MOL0     O33932   8.087  12.050   6.824  0.4210 -0.7620  0.1114
  252MOL0     C33933   7.989  11.804   6.737  0.0904 -1.0760 -0.1587
  252MOL0     C33934   7.919  11.703   6.667  0.0676 -0.1376 -0.3485
  252MOL0     N33935   7.962  11.302   5.856  0.0587  0.7165 -0.0409
  252MOL0     N33936   7.983  11.198   5.788  1.1102  0.9924 -0.4031
  252MOL0     C33937   8.447  10.794   6.648 -0.1245  0.5671  0.9432
  252MOL0     C33938   8.534  10.682   6.648  1.0134 -0.3713  0.4910
  252MOL0     C33939   8.769  10.306   6.568 -0.1224 -0.3019 -0.4000
  252MOL0     C33940   8.858  10.311   6.679  0.2897 -0.5095  0.0361
  252MOL0     C33941   8.952  10.209   6.681 -1.3964  0.0491 -0.5064
  252MOL0     C33942   8.986  10.124   6.578 -0.3200  0.0196  0.8865
  252MOL0     O33943   9.099  10.047   6.596  0.0143  0.2871 -0.2586
  252MOL0     C33944   9.147   9.963   6.487  0.6162  0.1026 -0.2500
  252MOL0     C33945   9.280   9.905   6.511  0.3667 -0.3530  0.1225
  252MOL0     C33946   9.306   9.784   6.421 -0.3607  0.9392  1.5963
  252MOL0     C33947   9.423   9.705   6.471 -0.2468 -0.1297 -0.5982
  252MOL0     C33948   9.555   9.769   6.449 -1.1964  1.4493 -0.3512
  252MOL0     C33949   9.661   9.832   6.420 -0.4280  1.6138  0.3125
  252MOL0     C33950   8.904  10.132   6.464 -0.1796 -0.5733 -0.3533
  252MOL0     C33951   8.800  10.226   6.454 -0.2247  0.8799 -0.9772
  252MOL0     C33952   8.697  10.203   6.348  0.8263  0.6276  0.5500
  252MOL0     H33953   8.326  10.430   6.577  1.6590  0.8560 -0.0602
  252MOL0     H33954   8.162  10.635   6.554  0.0755  1.5099 -0.0067
  252MOL0     H33955   8.189  11.036   6.481  0.2092  0.6751 -1.1339
  252MOL0     H33956   8.243  10.885   6.412  0.7647  0.6705  0.7272
  252MOL0     H33957   7.970  10.984   6.518  2.0270  2.1585  0.5682
  252MOL0     H33958   7.993  10.805   6.486  1.8051 -0.9412 -3.0552
  252MOL0     H33959   8.006  11.041   6.285  1.6348 -0.9192  0.2578
  252MOL0     H33960   7.870  10.932   6.310  0.0250 -0.1541 -1.0697
  252MOL0     H33961   8.155  10.874   6.215 -0.1952  0.5570 -0.3400
  252MOL0     H33962   8.063  10.741   6.256  0.2357 -0.3994 -1.8045
  252MOL0     H33963   7.968  10.719   6.055 -5.2330  0.9818  0.3760
  252MOL0     H33964   7.895  10.885   6.066 -1.7008  0.5521  5.7735
  252MOL0     H33965   8.133  10.976   6.018  0.8039 -0.5108  1.6795
  252MOL0     H33966   8.199  10.815   6.008 -1.5493 -1.8581 -0.3137
  252MOL0     H33967   8.043  10.770   5.794 -1.6097  1.9195 -3.4778
  252MOL0     H33968   8.132  10.914   5.766 -1.5647 -0.6504 -0.4313
  252MOL0     H33969   7.921  10.955   5.697  1.8082 -1.0166 -0.8497
  252MOL0     H33970   7.842  10.906   5.851 -0.0744  0.9678  1.8280
  252MOL0     H33971   7.823  11.078   6.049  1.9169 -1.4548 -0.2965
  252MOL0     H33972   7.951  11.436   6.087 -1.4516  2.4750 -3.7996
  252MOL0     H33973   7.776  11.416   6.052 -1.8571 -3.9878 -1.2792
  252MOL0     H33974   7.796  11.208   6.213 -0.0144  0.9211 -0.2968
  252MOL0     H33975   7.960  11.249   6.232  0.0398 -1.1684  1.3665
  252MOL0     H33976   7.815  11.320   6.430  0.8761  0.8572  0.9182
  252MOL0     H33977   7.713  11.414   6.325  1.5992  0.4130 -1.2433
  252MOL0     H33978   7.908  11.569   6.277 -0.8846 -0.1708 -0.5251
  252MOL0     H33979   8.008  11.451   6.343 -1.2626 -1.1779 -1.2118
  252MOL0     H33980   8.110  11.686   6.392 -1.9934  1.7036 -1.3225
  252MOL0     H33981   8.224  11.870   6.515 -1.8075  1.5050 -0.5483
  252MOL0     H33982   8.405  12.238   6.686  2.4195  1.5366 -0.5515
  252MOL0     H33983   8.512  12.388   6.872 -0.6297  0.1082  1.8940
  252MOL0     H33984   8.604  12.486   7.052  0.1966  1.2186  2.1630
  252MOL0     H33985   8.666  12.440   7.214 -1.3120 -1.1767  2.3183
  252MOL0     H33986   8.833  12.293   7.116 -0.4310 -1.2444 -1.8244
  252MOL0     H33987   8.766  12.310   6.962  1.6995 -0.4911  0.5335
  252MOL0     H33988   8.824  12.549   6.980 -2.1531 -2.3679  0.1373
  252MOL0     H33989   8.873  12.530   7.150 -2.8519 -1.5285  0.7176
  252MOL0     H33990   9.022  12.376   6.940  2.6685 -0.1135 -0.0977
  252MOL0     H33991   9.054  12.408   7.119 -4.0476  2.2668  3.3442
  252MOL0     H33992   9.041  12.625   6.912 -1.0410  0.5878  2.3192
  252MOL0     H33993   9.197  12.551   6.944  0.1574 -1.3234 -0.5985
  252MOL0     H33994   9.020  12.689   7.163  0.8297  0.1143  1.7852
  252MOL0     H33995   9.155  12.601   7.197  0.5320  5.5006  3.4532
  252MOL0     H33996   9.124  12.858   7.073 -2.8347 -2.3774  2.2767
  252MOL0     H33997   9.268  12.764   7.010  2.5703  3.2743  1.2508
  252MOL0     H33998   9.330  12.703   7.241  0.7507 -0.6440 -1.9249
  252MOL0     H33999   9.354  12.876   7.191 -2.2922  1.5830 -0.5313
  252MOL0     H34000   8.459  12.082   7.153  0.3325  1.0212  0.2596
  252MOL0     H34001   8.358  11.926   6.974 -1.0770  0.2635 -1.6973
  252MOL0     H34002   7.961  11.844   6.834  2.7524 -0.5328  0.4747
  252MOL0     H34003   7.834  11.648   6.707  1.3159 -0.9620  1.3173
  252MOL0     H34004   8.467  10.900   6.660 -1.1289  0.6870  1.6176
  252MOL0     H34005   8.639  10.705   6.663  1.0828 -1.3290  1.6617
  252MOL0     H34006   8.840  10.383   6.758  1.7449  1.2392 -1.1221
  252MOL0     H34007   9.015  10.213   6.769  1.5756  0.4323 -2.4910
  252MOL0     H34008   9.161  10.011   6.390  3.0954 -2.0399 -1.0673
  252MOL0     H34009   9.077   9.879   6.472  1.9163 -0.5393 -3.5206
  252MOL0     H34010   9.276   9.866   6.613  0.8771  1.5168  0.9012
  252MOL0     H34011   9.362   9.977   6.513  1.2385 -1.3339  0.1035
  252MOL0     H34012   9.322   9.826   6.322  1.1281  1.4825  2.0560
  252MOL0     H34013   9.216   9.721   6.419  0.2647  0.0296 -0.4861
  252MOL0     H34014   9.405   9.703   6.579  3.4325  0.4017  0.1733
  252MOL0     H34015   9.427   9.605   6.428 -2.2334  1.1109 -4.0599
  252MOL0     H34016   9.759   9.873   6.408  0.9758 -1.3446  0.6486
  252MOL0     H34017   8.929  10.053   6.394 -0.8181 -0.9323 -0.1858
  252MOL0     H34018   8.715  10.278   6.271  2.3500  1.2871  1.5012
  252MOL0     H34019   8.704  10.100   6.312 -0.5332 -0.8361  4.0063
  252MOL0     H34020   8.592  10.205   6.381 -0.7421 -0.3397 -3.6560
  253MOL0     O34021   9.734  11.429   7.413 -0.1849  0.1019 -0.0044
  253MOL0     C34022   9.663  11.329   7.426 -0.4012  0.8806 -0.7707
  253MOL0     O34023   9.540  11.314   7.374  0.8214  1.2176 -0.5162
  253MOL0     C34024   9.461  11.403   7.312 -0.1281 -0.5182  0.5863
  253MOL0     C34025   9.413  11.372   7.178  0.8358  0.0373  0.3890
  253MOL0     C34026   9.323  11.460   7.120 -0.3474  0.6930 -0.8720
  253MOL0     C34027   9.270  11.563   7.193  0.7730 -0.4420  0.0704
  253MOL0     O34028   9.182  11.643   7.129 -0.2131 -0.2820 -0.1758
  253MOL0     C34029   9.232  11.776   7.099  0.8378  0.3144  0.7567
  253MOL0     C34030   9.166  11.833   6.969 -0.0011  0.1396 -0.1322
  253MOL0     C34031   9.145  11.721   6.858 -0.4974 -0.4817 -0.2020
  253MOL0     C34032   9.283  11.670   6.815 -0.3645  0.7080 -0.0363
  253MOL0     C34033   9.275  11.578   6.688 -0.3959 -0.2217 -1.0183
  253MOL0     C34034   9.185  11.460   6.695  0.7176 -0.8248 -0.5590
  253MOL0     C34035   9.149  11.378   6.567  0.6015 -0.0947  0.6583
  253MOL0     C34036   9.025  11.423   6.483  0.7337 -0.4277  0.7026
  253MOL0     N34037   9.016  11.568   6.449  0.6568  0.1104 -0.4874
  253MOL0     C34038   8.948  11.668   6.510  0.4699 -0.1553  0.2036
  253MOL0     C34039   8.979  11.775   6.428  0.3607  0.1793  0.1747
  253MOL0     C34040   8.948  11.918   6.427  0.0063 -0.7887  0.6563
  253MOL0     C34041   8.967  11.974   6.570  0.2315  0.5997 -0.2021
  253MOL0     C34042   8.914  12.124   6.587 -1.0070  0.6076 -0.3940
  253MOL0     C34043   8.789  12.165   6.521 -0.1107 -0.5669  0.7147
  253MOL0     O34044   8.747  12.297   6.549 -0.4405  0.1845  0.1723
  253MOL0     C34045   8.814  12.411   6.505 -0.6660  0.3914  0.2448
  253MOL0     C34046   8.791  12.450   6.372 -0.7892  0.6676 -0.1530
  253MOL0     C34047   8.864  12.564   6.327 -0.3504 -0.6806  0.2795
  253MOL0     C34048   8.947  12.640   6.408  0.0251 -0.4432 -0.2957
  253MOL0     C34049   9.005  12.770   6.366 -0.7830  0.0072  0.3968
  253MOL0     O34050   9.024  12.780   6.235 -0.1366  0.1866  0.5621
  253MOL0     C34051   9.094  12.891   6.199 -0.2889  0.0999 -0.5323
  253MOL0     C34052   9.221  12.875   6.132 -0.0322 -0.1606  0.7791
  253MOL0     C34053   9.299  12.978   6.075  1.2398 -0.0585 -0.5974
  253MOL0     C34054   9.237  13.102   6.080  1.0032  0.4574  0.5034
  253MOL0     O34055   9.272  13.226   6.033 -0.7375  0.3517 -0.2076
  253MOL0     C34056   9.385  13.236   5.954  0.2535 -0.6214  0.6268
  253MOL0     C34057   9.387  13.371   5.877 -0.2202  0.3876 -0.4377
  253MOL0     C34058   9.460  13.478   5.956 -0.2619 -0.9733  0.6413
  253MOL0     C34059   9.382  13.541   6.071  1.1678 -0.4712 -0.6052
  253MOL0     C34060   9.441  13.683   6.101  0.4732  0.4335 -0.2805
  253MOL0     C34061   9.534  13.679   6.230 -0.0188 -0.0939  0.3098
  253MOL0     C34062   9.557  13.812   6.295  1.1533  0.6523  0.1647
  253MOL0     C34063   9.716  13.835   6.304  0.4284  0.6504  0.0185
  253MOL0    Cl34064   9.776  13.899   6.155  0.4140 -0.0601  0.0552
  253MOL0     C34065   9.117  13.119   6.155 -0.7846 -0.5213 -0.1366
  253MOL0     C34066   9.043  13.017   6.211  0.3983 -0.1289  1.1602
  253MOL0     O34067   9.049  12.846   6.454  0.0183  0.3041 -0.2209
  253MOL0     C34068   8.961  12.601   6.541  0.0038 -1.4379 -0.3136
  253MOL0     C34069   8.899  12.481   6.590 -0.3609 -0.5448  1.0105
  253MOL0     N34070   9.073  11.732   6.327 -0.1113  0.4600  0.2898
  253MOL0     N34071   9.083  11.611   6.344 -0.6965 -0.1088 -0.1676
  253MOL0     C34072   9.321  11.594   7.316  0.0188  0.2758 -0.4765
  253MOL0     C34073   9.414  11.523   7.381  0.7318 -0.3265  0.1003
  253MOL0     C34074   9.731  11.219   7.501 -0.1793  0.7978  0.4844
  253MOL0     C34075   9.887  11.203   7.485 -0.0029 -0.5125  0.3119
  253MOL0     C34076   9.959  11.125   7.572  0.1433  0.6421  0.2585
  253MOL0     C34077   9.895  11.054   7.671 -0.0025 -0.2503 -0.2179
  253MOL0     O34078   9.952  10.963   7.760 -0.1731 -0.4673 -0.7223
  253MOL0     C34079  10.089  10.923   7.745  0.4951  0.4722 -0.5204
  253MOL0     C34080  10.127  10.822   7.853 -0.1764 -0.5851 -0.3694
  253MOL0     C34081  10.043  10.689   7.844 -0.3055  0.4274  1.0241
  253MOL0     C34082  10.087  10.591   7.952  0.2945 -0.3378  0.0664
  253MOL0     C34083  10.217  10.534   7.935 -0.1667  0.0093  0.4922
  253MOL0     C34084  10.328  10.483   7.940  0.3016  1.0815  1.2260
  253MOL0     C34085   9.754  11.074   7.688 -0.1594  1.0067  0.5627
  253MOL0     C34086   9.666  11.145   7.599 -0.4995  0.0542 -0.4204
  253MOL0     C34087   9.524  11.149   7.617  0.3838 -0.4587 -0.5642
  253MOL0     H34088   9.440  11.282   7.125  1.1234 -0.1797  0.8924
  253MOL0     H34089   9.287  11.424   7.024  0.5850 -1.7253 -0.3766
  253MOL0     H34090   9.219  11.843   7.184  1.0747  0.0759  0.9831
  253MOL0     H34091   9.341  11.769   7.094  1.0827  2.5876  1.4868
  253MOL0     H34092   9.245  11.902   6.940  2.3416 -1.0918  2.7572
  253MOL0     H34093   9.070  11.883   6.985 -0.3610  0.1191 -2.0406
  253MOL0     H34094   9.090  11.768   6.775  0.2281 -1.0523 -1.0265
  253MOL0     H34095   9.071  11.648   6.893 -0.1680 -2.3212 -2.9547
  253MOL0     H34096   9.354  11.751   6.799  3.5028 -1.9983  1.7597
  253MOL0     H34097   9.327  11.605   6.892  1.9382  1.4603 -0.6351
  253MOL0     H34098   9.227  11.636   6.608 -2.2896 -1.1967 -0.6298
  253MOL0     H34099   9.378  11.543   6.677 -0.1039  0.3936 -0.2949
  253MOL0     H34100   9.215  11.392   6.775 -0.3937  0.1864  0.7616
  253MOL0     H34101   9.091  11.498   6.736  0.3517 -1.8655 -0.4185
  253MOL0     H34102   9.122  11.283   6.613  1.8865 -0.8195 -0.0191
  253MOL0     H34103   9.236  11.373   6.500 -0.5411  0.9221 -0.9909
  253MOL0     H34104   9.033  11.363   6.392  1.3277  1.4489 -0.5392
  253MOL0     H34105   8.929  11.406   6.534 -2.0250 -0.2137 -3.8623
  253MOL0     H34106   8.878  11.667   6.594  0.9323  0.7096  0.6011
  253MOL0     H34107   9.016  11.971   6.360 -0.6060  0.0110  0.6508
  253MOL0     H34108   8.843  11.920   6.397 -0.3342  0.9449  1.8412
  253MOL0     H34109   8.923  11.920   6.654 -3.1837  1.7061 -1.1343
  253MOL0     H34110   9.074  11.978   6.591  0.3451 -2.1762  0.0888
  253MOL0     H34111   8.976  12.205   6.546 -1.6638  0.9650 -0.7026
  253MOL0     H34112   8.905  12.143   6.694 -3.2637 -4.8218  0.6567
  253MOL0     H34113   8.712  12.101   6.564 -0.1217 -1.6061 -0.7693
  253MOL0     H34114   8.794  12.165   6.411  0.4786  2.0415  0.6838
  253MOL0     H34115   8.711  12.405   6.314 -0.3354 -0.9322  0.4017
  253MOL0     H34116   8.839  12.608   6.231  0.2511  0.5311  0.6594
  253MOL0     H34117   9.252  12.772   6.118  0.8966  0.2563 -0.3882
  253MOL0     H34118   9.401  12.967   6.038  1.3986  3.4288 -1.5856
  253MOL0     H34119   9.473  13.219   6.017  0.4135  0.5047  0.7234
  253MOL0     H34120   9.374  13.163   5.873  0.1986 -0.9101  0.8920
  253MOL0     H34121   9.450  13.353   5.789 -0.1762 -1.4293 -0.0706
  253MOL0     H34122   9.285  13.388   5.841 -0.7625 -1.5062  0.0975
  253MOL0     H34123   9.555  13.443   5.997 -0.5766 -2.3028  0.2808
  253MOL0     H34124   9.480  13.560   5.885 -2.9971  0.6149  1.5588
  253MOL0     H34125   9.410  13.483   6.160  0.4039 -2.9852 -1.9171
  253MOL0     H34126   9.275  13.545   6.052  1.2115 -0.5688 -0.8723
  253MOL0     H34127   9.363  13.752   6.136  0.6962  1.3228 -1.4691
  253MOL0     H34128   9.477  13.734   6.011  2.7151 -1.6360 -0.6552
  253MOL0     H34129   9.497  13.609   6.304 -1.7211  0.0857 -0.3114
  253MOL0     H34130   9.629  13.640   6.192 -0.8656 -1.1939 -0.7682
  253MOL0     H34131   9.510  13.816   6.393  1.0371  0.8534  0.1020
  253MOL0     H34132   9.505  13.892   6.241  3.6760  3.0260  0.9736
  253MOL0     H34133   9.731  13.912   6.380 -2.3526 -0.4432  1.8392
  253MOL0     H34134   9.751  13.740   6.345 -0.6124 -0.8228 -2.2735
  253MOL0     H34135   9.058  13.210   6.155  1.0358  0.7212  1.7017
  253MOL0     H34136   8.946  13.033   6.258 -1.1580 -2.3009 -1.0484
  253MOL0     H34137   9.018  12.646   6.622  1.2643  1.9111 -2.8053
  253MOL0     H34138   8.911  12.446   6.692 -0.3142  0.2343  1.2794
  253MOL0     H34139   9.278  11.683   7.362 -0.6087 -0.9646  1.4555
  253MOL0     H34140   9.455  11.552   7.477 -2.3262 -0.3770  1.5355
  253MOL0     H34141   9.936  11.253   7.402  0.7134 -2.2482 -0.3558
  253MOL0     H34142  10.063  11.111   7.544 -0.6444  2.0665 -4.1992
  253MOL0     H34143  10.162  11.004   7.739  2.6195 -1.4304 -3.4556
  253MOL0     H34144  10.105  10.884   7.644  0.4576  1.4426 -0.9150
  253MOL0     H34145  10.096  10.856   7.952  1.2888  1.8360 -0.6533
  253MOL0     H34146  10.234  10.818   7.878 -0.2127 -3.7720 -0.2795
  253MOL0     H34147  10.036  10.652   7.741 -0.4515 -1.1816  1.5843
  253MOL0     H34148   9.943  10.726   7.864  0.2245  5.0317 -2.9011
  253MOL0     H34149  10.077  10.634   8.052  2.5449 -8.4678  4.6996
  253MOL0     H34150  10.020  10.505   7.943 -0.5245  0.3395 -0.3489
  253MOL0     H34151  10.418  10.430   7.918  0.4529  1.7697  0.1563
  253MOL0     H34152   9.714  11.020   7.772 -1.4480  1.8016  0.4770
  253MOL0     H34153   9.502  11.127   7.722  2.2635  2.7809  0.6721
  253MOL0     H34154   9.488  11.253   7.615 -4.5271 -1.9275 -0.3511
  253MOL0     H34155   9.474  11.079   7.550 -1.6615 -0.0319  0.4535
  254MOL0     O34156   5.831   0.347  10.143 -0.1817 -0.7579  0.0481
  254MOL0     C34157   5.775   0.429  10.211 -0.4993  0.6283 -0.7270
  254MOL0     O34158   5.671   0.410  10.314  0.3884  1.0827 -0.3597
  254MOL0     C34159   5.644   0.286  10.361  0.5214  0.1483 -0.5126
  254MOL0     C34160   5.529   0.276  10.428  0.2917 -0.3662 -0.0800
  254MOL0     C34161   5.487   0.155  10.481  0.1528  0.5742  0.1414
  254MOL0     C34162   5.573   0.044  10.491 -0.0312 -0.7627  0.4265
  254MOL0     O34163   5.538  -0.078  10.534 -0.0493 -0.0617 -0.5051
  254MOL0     C34164   5.510  -0.179  10.423  1.0765  1.3197 -0.9950
  254MOL0     C34165   5.523  -0.315  10.482  0.0211  0.3880  0.2542
  254MOL0     C34166   5.398  -0.333  10.564  0.5089 -0.0701 -0.7719
  254MOL0     C34167   5.328  -0.466  10.550  0.1655 -1.0053 -0.1252
  254MOL0     C34168   5.374  -0.554  10.675 -0.3249 -0.6374  0.3872
  254MOL0     C34169   5.295  -0.686  10.657  0.4515 -0.4139 -0.2685
  254MOL0     C34170   5.310  -0.773  10.784  0.8004 -1.0557  0.5210
  254MOL0     C34171   5.433  -0.863  10.786 -0.3929 -0.1002  1.2696
  254MOL0     N34172   5.432  -0.942  10.909 -0.8327  0.0822 -0.3571
  254MOL0     C34173   5.476  -0.900  11.035  0.0575 -0.4399 -0.3100
  254MOL0     C34174   5.503  -1.021  11.101 -0.5317  0.6949  0.3965
  254MOL0     C34175   5.548  -1.042  11.242 -1.3912 -0.5315 -0.2961
  254MOL0     C34176   5.660  -0.945  11.282 -0.3145 -0.9361  0.2066
  254MOL0     C34177   5.699  -0.950  11.430  0.0662 -0.0702  1.3262
  254MOL0     C34178   5.805  -0.850  11.470 -0.2425  1.1273  0.1579
  254MOL0     O34179   5.774  -0.726  11.413  0.8216 -0.2115  0.0778
  254MOL0     C34180   5.883  -0.651  11.385 -0.3893 -0.3399  0.3596
  254MOL0     C34181   5.866  -0.518  11.416 -0.7758  0.1405  0.2657
  254MOL0     C34182   5.976  -0.429  11.397 -1.6380  0.7584  0.4502
  254MOL0     C34183   6.102  -0.480  11.355  1.3932 -0.1008  1.1234
  254MOL0     C34184   6.215  -0.394  11.363 -0.4734 -0.2480  0.4247
  254MOL0     O34185   6.333  -0.453  11.336 -0.2343  0.4814  0.0281
  254MOL0     C34186   6.457  -0.405  11.338 -0.9097 -0.6452 -0.7856
  254MOL0     C34187   6.490  -0.269  11.309  0.1603  0.3662  1.1169
  254MOL0     C34188   6.627  -0.229  11.319 -0.6990  1.1506  0.2840
  254MOL0     C34189   6.730  -0.318  11.358  0.1809  0.3882  0.2632
  254MOL0     O34190   6.850  -0.264  11.388 -0.2378  0.0660 -0.1211
  254MOL0     C34191   6.941  -0.327  11.480  1.2666 -0.1333 -0.9897
  254MOL0     C34192   7.057  -0.231  11.512  0.5565 -1.0493 -0.5511
  254MOL0     C34193   7.166  -0.312  11.566  0.0963 -0.1844 -0.0316
  254MOL0     C34194   7.267  -0.228  11.651  0.9731  0.1128  0.1157
  254MOL0     C34195   7.394  -0.309  11.682  0.3647 -0.0156  0.5076
  254MOL0     C34196   7.475  -0.229  11.780  0.0226 -0.2642 -1.2753
  254MOL0     C34197   7.626  -0.260  11.787  0.0155 -0.5660  0.6596
  254MOL0     C34198   7.663  -0.389  11.855 -0.1805  1.0346 -0.1556
  254MOL0    Cl34199   7.841  -0.416  11.842  0.2138 -0.1581  0.3387
  254MOL0     C34200   6.702  -0.451  11.377 -0.1869 -0.4138  0.4871
  254MOL0     C34201   6.564  -0.493  11.369 -0.4354 -0.2234 -0.2880
  254MOL0     O34202   6.205  -0.278  11.395  0.5468 -0.5220 -0.3061
  254MOL0     C34203   6.109  -0.612  11.306  0.6636 -1.2051  0.6650
  254MOL0     C34204   6.003  -0.697  11.327  0.3255  0.5810  0.5226
  254MOL0     N34205   5.456  -1.129  11.022  0.7544 -0.1675  0.2236
  254MOL0     N34206   5.418  -1.080  10.913  0.4410  0.0288  0.3212
  254MOL0     C34207   5.700   0.058  10.434 -0.4481 -0.2886 -0.6507
  254MOL0     C34208   5.737   0.176  10.366  0.0300 -0.6211  0.1626
  254MOL0     C34209   5.802   0.573  10.190 -0.5236  0.9549  0.1103
  254MOL0     C34210   5.693   0.660  10.185 -0.0683 -0.5153  0.2509
  254MOL0     C34211   5.707   0.802  10.183  0.9759  0.2971 -0.1921
  254MOL0     C34212   5.833   0.856  10.178 -0.4469 -0.0065  0.1027
  254MOL0     O34213   5.841   0.995  10.176 -0.4404 -0.2020 -0.3794
  254MOL0     C34214   5.971   1.064  10.170 -0.0170 -0.2296 -0.8317
  254MOL0     C34215   5.955   1.218  10.142  0.0111  0.5358 -0.4490
  254MOL0     C34216   5.902   1.301  10.254  0.7766  0.4798  0.4622
  254MOL0     C34217   5.970   1.438  10.255  0.4902 -0.4113  0.2884
  254MOL0     C34218   5.913   1.519  10.367  0.2699  0.1118 -0.1043
  254MOL0     C34219   5.859   1.593  10.446  1.3830  0.2695 -0.3459
  254MOL0     C34220   5.951   0.769  10.166 -0.4893  0.1427  0.0435
  254MOL0     C34221   5.933   0.629  10.183  0.4452  0.4595 -0.4359
  254MOL0     C34222   6.065   0.551  10.202 -1.0643 -0.0256  0.0255
  254MOL0     H34223   5.472   0.369  10.433  0.0805 -0.3165 -2.4750
  254MOL0     H34224   5.387   0.138  10.520 -1.0006 -0.3673 -2.9769
  254MOL0     H34225   5.409  -0.166  10.383 -1.6205  0.4930  4.5699
  254MOL0     H34226   5.593  -0.166  10.353  0.8602  1.5873 -1.2021
  254MOL0     H34227   5.611  -0.319  10.547 -1.6069  0.1360  2.5790
  254MOL0     H34228   5.526  -0.385  10.398  1.2760  1.1482 -0.3641
  254MOL0     H34229   5.322  -0.255  10.550 -1.0691 -1.3268  0.3270
  254MOL0     H34230   5.445  -0.327  10.663  0.0456 -3.6284 -0.2242
  254MOL0     H34231   5.222  -0.449  10.573  0.8381 -0.8649  3.4303
  254MOL0     H34232   5.341  -0.509  10.450 -0.9413  0.1377 -0.8023
  254MOL0     H34233   5.477  -0.583  10.654  0.1626  0.9113  0.4797
  254MOL0     H34234   5.358  -0.513  10.775  2.4649  0.9987  0.2735
  254MOL0     H34235   5.186  -0.677  10.648  0.6278  0.4536 -2.1181
  254MOL0     H34236   5.338  -0.726  10.564  1.0846  0.6984 -0.4663
  254MOL0     H34237   5.223  -0.839  10.795 -0.1380  0.0851  0.1620
  254MOL0     H34238   5.292  -0.723  10.880  2.0296  1.9360 -0.6830
  254MOL0     H34239   5.444  -0.933  10.703  2.6120 -0.5945  1.9768
  254MOL0     H34240   5.513  -0.789  10.793 -2.7603  2.9152 -0.7502
  254MOL0     H34241   5.489  -0.795  11.062  3.8110 -0.6311 -0.7906
  254MOL0     H34242   5.466  -1.028  11.313 -0.8710  2.0248 -0.1172
  254MOL0     H34243   5.589  -1.142  11.264  0.3284  0.6227  2.2901
  254MOL0     H34244   5.747  -0.972  11.221 -0.6223  0.7113 -1.0415
  254MOL0     H34245   5.630  -0.843  11.255  3.1385  0.0712 -0.2821
  254MOL0     H34246   5.747  -1.047  11.444 -0.1274 -0.5857 -1.1014
  254MOL0     H34247   5.604  -0.937  11.483 -2.6660  2.5608 -3.4561
  254MOL0     H34248   5.899  -0.897  11.441 -0.8238  0.5049 -0.7754
  254MOL0     H34249   5.810  -0.856  11.579  5.6258 -1.5505  0.1293
  254MOL0     H34250   5.771  -0.493  11.460 -0.1650 -1.1444  2.4645
  254MOL0     H34251   5.971  -0.332  11.444 -3.0969  0.1439  1.6399
  254MOL0     H34252   6.415  -0.196  11.283  1.7116  1.0106 -2.0010
  254MOL0     H34253   6.641  -0.121  11.313 -4.8606  2.1834  3.9268
  254MOL0     H34254   6.907  -0.371  11.574  2.0613 -0.9265 -1.0610
  254MOL0     H34255   6.972  -0.409  11.414 -3.7654 -0.8052 -2.9781
  254MOL0     H34256   7.085  -0.184  11.417  1.4167 -2.8683 -1.2480
  254MOL0     H34257   7.027  -0.160  11.589  1.2841 -0.2573 -0.9873
  254MOL0     H34258   7.110  -0.393  11.615 -1.6993 -0.7180 -2.7406
  254MOL0     H34259   7.219  -0.358  11.483 -0.2453  3.4320 -2.4912
  254MOL0     H34260   7.222  -0.181  11.739 -2.0026 -0.3449 -1.0239
  254MOL0     H34261   7.307  -0.141  11.598 -1.1157  1.3853  0.5266
  254MOL0     H34262   7.448  -0.330  11.589 -1.5885  2.6022 -1.3732
  254MOL0     H34263   7.376  -0.408  11.726 -0.8100  0.0217  0.1502
  254MOL0     H34264   7.481  -0.121  11.766  0.0695 -0.0933 -0.0625
  254MOL0     H34265   7.422  -0.247  11.874 -4.6539  3.6288 -2.7598
  254MOL0     H34266   7.684  -0.188  11.846  1.1177 -0.1007 -0.9235
  254MOL0     H34267   7.661  -0.278  11.685 -1.1138 -0.5857  0.2528
  254MOL0     H34268   7.639  -0.390  11.962  0.2034 -1.2828 -0.0508
  254MOL0     H34269   7.611  -0.475  11.813  2.5421 -0.8535  0.1528
  254MOL0     H34270   6.780  -0.516  11.415 -1.3399 -2.5999 -0.6881
  254MOL0     H34271   6.521  -0.593  11.376 -0.2326 -0.2806  0.1839
  254MOL0     H34272   6.194  -0.638  11.244 -1.0196  1.2326 -3.0284
  254MOL0     H34273   6.019  -0.796  11.284  1.5943  1.4108 -1.0059
  254MOL0     H34274   5.764  -0.029  10.420 -0.5156 -0.0960 -2.3180
  254MOL0     H34275   5.835   0.188  10.320  0.2988  3.6655  1.3652
  254MOL0     H34276   5.594   0.617  10.185  0.4109 -1.6473  0.0675
  254MOL0     H34277   5.623   0.871  10.177  1.2030  0.6824  0.8274
  254MOL0     H34278   6.033   1.028  10.087  2.1148  3.1913 -0.9229
  254MOL0     H34279   6.026   1.039  10.261  0.8603 -1.5922 -1.6951
  254MOL0     H34280   5.887   1.234  10.058 -2.5218  1.3190  1.6389
  254MOL0     H34281   6.051   1.254  10.105 -0.9531  2.5714 -1.0997
  254MOL0     H34282   5.927   1.257  10.351 -3.8423  2.8483  3.0632
  254MOL0     H34283   5.793   1.311  10.253  0.7498  2.4756  4.6522
  254MOL0     H34284   6.078   1.427  10.268  0.5760  0.8370  0.7812
  254MOL0     H34285   5.938   1.479  10.159  0.1604  0.5215  0.7780
  254MOL0     H34286   5.818   1.667  10.512  3.3642  0.0330  1.2431
  254MOL0     H34287   6.054   0.798  10.147  0.4358 -1.8551  1.6369
  254MOL0     H34288   6.054   0.493  10.294 -1.7610  2.7029  1.8111
  254MOL0     H34289   6.074   0.486  10.115 -1.0506 -0.5047  0.3791
  254MOL0     H34290   6.154   0.614  10.208  0.7072 -2.4862  1.4021
  255MOL0     O34291  10.116   6.698   6.323  0.1660  0.2185  0.4472
  255MOL0     C34292  10.175   6.770   6.236  0.1518  0.6349 -0.1157
  255MOL0     O34293  10.107   6.850   6.148  0.3172 -0.7964 -0.0487
  255MOL0     C34294   9.972   6.855   6.134  0.0069  0.4672  0.4457
  255MOL0     C34295   9.911   6.913   6.247  0.2610  0.5901 -0.7800
  255MOL0     C34296   9.772   6.917   6.264  0.1970  0.3412  0.3602
  255MOL0     C34297   9.700   6.848   6.167 -0.1658 -0.7093 -0.0735
  255MOL0     O34298   9.561   6.856   6.159  0.0866  0.1915 -0.1612
  255MOL0     C34299   9.494   6.939   6.262  0.2069 -0.2727  0.8700
  255MOL0     C34300   9.341   6.947   6.236 -0.5445 -0.2375  0.9221
  255MOL0     C34301   9.297   6.978   6.088 -0.3108  0.0157  0.3933
  255MOL0     C34302   9.148   6.947   6.050 -0.6058  1.0664 -1.1840
  255MOL0     C34303   9.047   7.004   6.159 -0.7205 -0.2514  0.5046
  255MOL0     C34304   8.909   7.002   6.102  0.5313  0.2380 -0.4614
  255MOL0     C34305   8.841   7.126   6.153  0.6704 -0.8457 -0.6648
  255MOL0     C34306   8.843   7.229   6.032  0.3406 -0.7146 -0.3332
  255MOL0     N34307   8.782   7.358   6.075 -0.0053  0.0216  0.2812
  255MOL0     C34308   8.639   7.386   6.079  0.6590  0.2192 -0.4729
  255MOL0     C34309   8.637   7.518   6.104  0.5523  0.5445  0.3836
  255MOL0     C34310   8.516   7.605   6.111  1.0982 -0.0407 -0.0280
  255MOL0     C34311   8.384   7.532   6.138 -0.8706 -0.5632 -0.1885
  255MOL0     C34312   8.272   7.623   6.093 -0.7680  0.0991  0.4711
  255MOL0     C34313   8.271   7.765   6.143 -0.0942  0.2213 -1.0931
  255MOL0     O34314   8.250   7.765   6.283 -0.3719  0.2454 -0.4900
  255MOL0     C34315   8.143   7.827   6.340 -0.3411  0.3931 -0.0948
  255MOL0     C34316   8.162   7.901   6.461  0.2847  0.2435  0.8314
  255MOL0     C34317   8.058   7.961   6.527 -0.2542 -0.4605 -0.0607
  255MOL0     C34318   7.923   7.943   6.491 -0.0170  0.1830  0.2316
  255MOL0     C34319   7.813   8.008   6.565  0.9789 -0.0570 -0.4590
  255MOL0     O34320   7.842   8.106   6.656  0.7009 -0.3695  0.4441
  255MOL0     C34321   7.756   8.221   6.667  0.1661 -0.6125 -0.6686
  255MOL0     C34322   7.795   8.340   6.613 -0.5247  0.1824  0.8627
  255MOL0     C34323   7.704   8.449   6.651 -0.3525  0.3686  0.8692
  255MOL0     C34324   7.592   8.439   6.737 -0.7654  0.0635 -0.5190
  255MOL0     O34325   7.523   8.549   6.773  0.1264 -0.0858 -0.8547
  255MOL0     C34326   7.380   8.546   6.768 -0.1669  0.3880 -1.3644
  255MOL0     C34327   7.347   8.524   6.623 -1.1576  0.7450 -1.1056
  255MOL0     C34328   7.197   8.556   6.605  0.0565 -0.0655 -0.6448
  255MOL0     C34329   7.185   8.704   6.559  0.3659 -0.8355 -0.0299
  255MOL0     C34330   7.046   8.718   6.495 -0.3302  0.1032  0.3096
  255MOL0     C34331   7.032   8.858   6.431  0.3356 -0.5848  0.6880
  255MOL0     C34332   6.879   8.885   6.395 -0.1366 -0.6292  0.2807
  255MOL0     C34333   6.855   9.003   6.307  0.2836  0.4664 -0.3667
  255MOL0    Cl34334   6.959   8.982   6.170 -0.8154  0.0239  0.5336
  255MOL0     C34335   7.560   8.308   6.781  0.0189  0.3222 -0.5890
  255MOL0     C34336   7.642   8.205   6.753 -0.3026 -0.1132  1.0847
  255MOL0     O34337   7.698   7.978   6.535 -0.9337 -0.3642 -0.6171
  255MOL0     C34338   7.904   7.862   6.380  0.5821  0.5943  0.6397
  255MOL0     C34339   8.016   7.795   6.311 -0.2425  0.3227  0.4440
  255MOL0     N34340   8.769   7.570   6.119  0.3711 -0.0365 -0.9630
  255MOL0     N34341   8.850   7.478   6.078 -0.0817  0.1336 -0.3777
  255MOL0     C34342   9.762   6.804   6.046  0.3245 -0.4630 -0.6785
  255MOL0     C34343   9.899   6.803   6.027 -0.0326  0.9984 -0.7712
  255MOL0     C34344  10.329   6.777   6.242 -0.5356  0.1154 -0.0822
  255MOL0     C34345  10.386   6.905   6.221  0.0232  1.0510  0.8107
  255MOL0     C34346  10.522   6.921   6.222 -0.9101 -0.4951 -0.2675
  255MOL0     C34347  10.611   6.830   6.269 -0.9155 -0.6669  0.6681
  255MOL0     O34348  10.737   6.874   6.274 -0.7053 -0.3840  0.3825
  255MOL0     C34349  10.855   6.783   6.277 -0.2641 -0.4223  0.3040
  255MOL0     C34350  10.959   6.810   6.378 -0.7362 -0.4840  0.4909
  255MOL0     C34351  10.901   6.836   6.522  0.7727 -0.3744 -0.6920
  255MOL0     C34352  10.995   6.794   6.630 -0.2784  0.2492  0.0552
  255MOL0     C34353  11.098   6.892   6.635 -0.4674 -0.6231  0.2181
  255MOL0     C34354  11.168   6.986   6.621  0.2111  0.4143  0.4091
  255MOL0     C34355  10.558   6.704   6.296 -0.2969  0.0564  0.4959
  255MOL0     C34356  10.419   6.677   6.283 -0.2631 -1.2724 -0.2413
  255MOL0     C34357  10.374   6.536   6.298 -0.6290  1.2809 -0.0132
  255MOL0     H34358   9.972   6.971   6.316 -1.8331  1.2597  0.6045
  255MOL0     H34359   9.740   6.978   6.348 -0.5461 -1.1189  1.1589
  255MOL0     H34360   9.509   6.896   6.362 -1.1338 -4.1100 -0.4025
  255MOL0     H34361   9.524   7.044   6.255  3.2147 -1.1529 -2.5822
  255MOL0     H34362   9.307   7.031   6.297  0.5320  2.3517 -1.7895
  255MOL0     H34363   9.294   6.856   6.277 -1.1492  0.0539  0.8914
  255MOL0     H34364   9.364   6.923   6.022  0.6539 -1.9557  2.8258
  255MOL0     H34365   9.308   7.086   6.082 -2.1890  0.2255  0.0194
  255MOL0     H34366   9.133   6.995   5.953 -0.2554  0.4570 -1.5466
  255MOL0     H34367   9.127   6.840   6.048 -2.1300  1.2700  0.9161
  255MOL0     H34368   9.047   6.952   6.255 -0.2353 -1.1001  0.0495
  255MOL0     H34369   9.087   7.105   6.173  3.1761 -1.6963  1.0062
  255MOL0     H34370   8.911   7.006   5.992  0.1269  0.2428 -0.4708
  255MOL0     H34371   8.866   6.908   6.138 -0.2287  1.2947  1.5213
  255MOL0     H34372   8.882   7.173   6.243 -0.1886 -1.0254 -0.1692
  255MOL0     H34373   8.734   7.116   6.174  0.3963  1.4459 -0.7423
  255MOL0     H34374   8.946   7.249   6.002  0.6896  2.9756  2.5206
  255MOL0     H34375   8.791   7.179   5.950  0.1989 -0.8294 -0.1734
  255MOL0     H34376   8.558   7.315   6.070  0.5044  0.5299 -1.8431
  255MOL0     H34377   8.536   7.684   6.185 -0.6982  0.9232 -0.5022
  255MOL0     H34378   8.505   7.662   6.019  0.2785 -1.3080 -0.7398
  255MOL0     H34379   8.378   7.438   6.082  2.4760 -0.8934 -0.1938
  255MOL0     H34380   8.364   7.518   6.244  1.5742  0.2838  0.4481
  255MOL0     H34381   8.179   7.584   6.137 -3.1977  1.8424 -2.7072
  255MOL0     H34382   8.242   7.616   5.988  0.4826  1.7995 -0.0340
  255MOL0     H34383   8.193   7.816   6.086  1.6259  2.0910 -1.8892
  255MOL0     H34384   8.365   7.815   6.118 -0.0709 -0.3154 -2.1193
  255MOL0     H34385   8.258   7.916   6.509  0.2185 -0.3311  1.1495
  255MOL0     H34386   8.069   8.015   6.621 -0.9184 -0.2875 -0.0780
  255MOL0     H34387   7.888   8.341   6.558  0.6679  0.2546  2.7657
  255MOL0     H34388   7.734   8.543   6.605  1.3554  0.4191  2.0104
  255MOL0     H34389   7.329   8.493   6.848  0.7203 -0.4186 -1.3270
  255MOL0     H34390   7.340   8.645   6.792  0.5434  0.4603 -0.4174
  255MOL0     H34391   7.407   8.590   6.561  1.7189 -0.1487  0.5589
  255MOL0     H34392   7.365   8.417   6.608 -2.9552 -0.5264  3.7524
  255MOL0     H34393   7.163   8.481   6.533  1.5148  0.8828 -2.3974
  255MOL0     H34394   7.151   8.523   6.699  2.0114 -1.8185 -0.2433
  255MOL0     H34395   7.262   8.741   6.491 -1.4559  0.5032 -1.5020
  255MOL0     H34396   7.193   8.765   6.650 -2.2272 -1.3324  0.6247
  255MOL0     H34397   6.963   8.702   6.565 -0.9591 -1.5809 -0.7785
  255MOL0     H34398   7.035   8.646   6.414 -2.0018 -0.1172  0.6867
  255MOL0     H34399   7.056   8.938   6.501 -1.4069  0.8037 -0.2266
  255MOL0     H34400   7.098   8.877   6.346 -1.8043  4.8028 -0.1553
  255MOL0     H34401   6.827   8.884   6.491  0.0943  0.7575  0.4361
  255MOL0     H34402   6.847   8.791   6.348  2.7669 -2.6999  2.0664
  255MOL0     H34403   6.748   9.023   6.296 -0.9444 -3.7783  1.7177
  255MOL0     H34404   6.898   9.084   6.367 -3.0580  0.8172  1.8394
  255MOL0     H34405   7.463   8.281   6.823 -0.1518 -3.8471 -3.0832
  255MOL0     H34406   7.614   8.103   6.773 -2.1875  0.7278  3.1032
  255MOL0     H34407   7.801   7.838   6.356 -0.0173  2.3399  1.3669
  255MOL0     H34408   7.990   7.719   6.238  2.9813 -3.3009  2.6893
  255MOL0     H34409   9.705   6.753   5.968  0.9434  1.8775 -2.8212
  255MOL0     H34410   9.953   6.762   5.943  0.8866  2.0808 -0.7224
  255MOL0     H34411  10.323   6.988   6.194 -0.9529  0.4950  1.3347
  255MOL0     H34412  10.560   7.017   6.190 -2.2843  0.1260 -0.1037
  255MOL0     H34413  10.899   6.782   6.177  0.9033  2.3545  0.6951
  255MOL0     H34414  10.825   6.680   6.297  0.9436 -0.7209  0.6454
  255MOL0     H34415  11.024   6.897   6.361 -0.0230 -0.7860  1.5413
  255MOL0     H34416  11.036   6.733   6.369  1.0997  0.7868  3.6293
  255MOL0     H34417  10.815   6.768   6.522  1.2114 -0.9433 -1.0072
  255MOL0     H34418  10.876   6.942   6.523 -1.4553 -0.8003 -2.4792
  255MOL0     H34419  10.952   6.787   6.730  1.1117  0.8071  0.7265
  255MOL0     H34420  11.030   6.692   6.615  0.2205 -0.1048  3.0339
  255MOL0     H34421  11.243   7.059   6.599  1.3858 -1.1482 -1.0652
  255MOL0     H34422  10.614   6.619   6.333 -1.7178 -2.2230 -2.2660
  255MOL0     H34423  10.459   6.468   6.297 -1.7214 -0.1236 -0.6230
  255MOL0     H34424  10.327   6.529   6.397 -0.4125  2.0764  0.1573
  255MOL0     H34425  10.308   6.505   6.217  0.9290  0.2462 -0.9269
  256MOL0     O34426   8.073   9.074   7.518  1.1342  0.2309 -0.0964
  256MOL0     C34427   8.167   9.134   7.561 -0.6454  0.7264  0.4991
  256MOL0     O34428   8.189   9.150   7.694  0.7576 -0.5177 -0.3488
  256MOL0     C34429   8.123   9.083   7.791 -0.4883 -0.2967 -0.7421
  256MOL0     C34430   8.071   8.958   7.784  0.0252  0.0951  0.1122
  256MOL0     C34431   8.007   8.917   7.912  0.3415  0.7246  0.5399
  256MOL0     C34432   8.003   8.999   8.030 -0.1878 -0.1851  0.3730
  256MOL0     O34433   7.944   8.962   8.149  1.0288  0.8287 -0.8829
  256MOL0     C34434   7.917   8.822   8.179 -1.0522  0.0479 -0.6955
  256MOL0     C34435   7.784   8.783   8.142  0.4044  0.0950 -0.0858
  256MOL0     C34436   7.698   8.805   8.282 -1.2248 -0.1669  0.1092
  256MOL0     C34437   7.563   8.724   8.278 -0.4935 -0.2449 -0.0079
  256MOL0     C34438   7.574   8.580   8.320 -0.2755  0.0524 -0.3916
  256MOL0     C34439   7.579   8.577   8.473  0.4944 -0.7629  0.3561
  256MOL0     C34440   7.559   8.432   8.523 -1.8194 -0.1666 -0.3927
  256MOL0     C34441   7.506   8.458   8.663 -0.4754  0.4244  0.2252
  256MOL0     N34442   7.481   8.324   8.722 -0.3305  0.5401  0.6520
  256MOL0     C34443   7.508   8.290   8.847  0.1408  0.4048 -0.3363
  256MOL0     C34444   7.433   8.175   8.867 -1.1007 -0.5419  0.7878
  256MOL0     C34445   7.444   8.099   9.006 -1.3215 -0.1931  0.2077
  256MOL0     C34446   7.322   8.009   9.037  1.0730  0.2825 -0.0020
  256MOL0     C34447   7.365   7.931   9.161 -0.2018  0.5685 -0.4665
  256MOL0     C34448   7.243   7.906   9.247 -0.2731  0.3247 -0.9193
  256MOL0     O34449   7.279   7.829   9.369  0.0254  0.0900 -0.8926
  256MOL0     C34450   7.289   7.696   9.367 -0.6193 -0.5662  0.2857
  256MOL0     C34451   7.332   7.646   9.487  0.2552  0.5682 -0.1345
  256MOL0     C34452   7.352   7.510   9.512 -0.7667  1.0539 -0.4355
  256MOL0     C34453   7.315   7.422   9.420  0.3403  0.2585 -0.1782
  256MOL0     C34454   7.325   7.281   9.449 -0.3860  0.1619 -0.0902
  256MOL0     O34455   7.236   7.203   9.383  0.3562 -0.8340 -0.5378
  256MOL0     C34456   7.224   7.069   9.410  1.0016 -0.0523 -1.1736
  256MOL0     C34457   7.297   6.988   9.503 -0.1673 -0.3508  0.0606
  256MOL0     C34458   7.256   6.856   9.519 -0.2680 -0.8946 -0.0210
  256MOL0     C34459   7.165   6.794   9.443  0.4412  0.1789 -0.0999
  256MOL0     O34460   7.167   6.659   9.473 -0.1685 -1.1433 -0.6196
  256MOL0     C34461   7.054   6.585   9.487  0.7470 -0.9000  0.3318
  256MOL0     C34462   7.067   6.447   9.433 -0.4353  0.1187 -0.8477
  256MOL0     C34463   7.162   6.353   9.523  0.1107 -0.2418  0.9257
  256MOL0     C34464   7.174   6.211   9.480 -0.0527  0.8369  0.4611
  256MOL0     C34465   7.258   6.123   9.589 -0.4183 -0.8850 -0.2808
  256MOL0     C34466   7.388   6.188   9.632  0.1814 -0.6990 -0.2857
  256MOL0     C34467   7.459   6.090   9.727  0.6746  0.4632  0.8127
  256MOL0     C34468   7.505   5.972   9.658 -0.3629 -0.9483  0.4847
  256MOL0    Cl34469   7.572   6.010   9.486 -0.1682  0.0353 -0.0619
  256MOL0     C34470   7.091   6.871   9.348 -0.5500  1.7484  0.6865
  256MOL0     C34471   7.119   7.006   9.339 -0.7847  0.9592  0.9101
  256MOL0     O34472   7.400   7.252   9.545 -0.2158  0.1962  0.5188
  256MOL0     C34473   7.273   7.470   9.296  0.1839  0.7648 -0.2700
  256MOL0     C34474   7.256   7.604   9.268 -0.4259  0.4574 -0.4424
  256MOL0     N34475   7.380   8.141   8.740  0.2950  0.5842 -0.4245
  256MOL0     N34476   7.386   8.245   8.667  0.1531  0.0527 -0.1181
  256MOL0     C34477   8.045   9.135   8.013 -0.3047 -0.7904  0.1348
  256MOL0     C34478   8.105   9.174   7.898 -0.9341  0.0862 -1.0289
  256MOL0     C34479   8.256   9.215   7.478  1.2729  0.4352  0.6355
  256MOL0     C34480   8.340   9.314   7.532  0.9671  0.2871  0.5657
  256MOL0     C34481   8.410   9.400   7.452  0.2224 -1.1263 -0.4703
  256MOL0     C34482   8.411   9.396   7.315  0.0208 -0.6330  0.8838
  256MOL0     O34483   8.477   9.485   7.223 -0.5610 -0.1454 -1.2104
  256MOL0     C34484   8.563   9.587   7.274  0.1591  0.0222  0.2305
  256MOL0     C34485   8.706   9.537   7.289  0.0006  0.7335  0.2323
  256MOL0     C34486   8.803   9.633   7.345 -0.4871  0.7768  0.3586
  256MOL0     C34487   8.928   9.556   7.395  0.2043 -1.3807 -0.3093
  256MOL0     C34488   9.039   9.655   7.438 -0.6196  0.0432 -0.2628
  256MOL0     C34489   9.129   9.731   7.472  0.0207 -0.1927 -0.3662
  256MOL0     C34490   8.321   9.296   7.259  0.0435 -0.4215  1.1199
  256MOL0     C34491   8.251   9.213   7.341  1.0259 -0.0792 -0.4966
  256MOL0     C34492   8.167   9.106   7.266 -0.0755  0.1948  0.3128
  256MOL0     H34493   8.082   8.900   7.693  2.3166  0.3518  0.1542
  256MOL0     H34494   7.954   8.822   7.912 -2.7505  2.3247  1.1981
  256MOL0     H34495   7.984   8.751   8.131  1.5036 -0.2343  2.8891
  256MOL0     H34496   7.934   8.806   8.286 -4.2098 -1.3363 -0.2891
  256MOL0     H34497   7.788   8.676   8.118  1.2425 -0.0393  0.6323
  256MOL0     H34498   7.760   8.847   8.057  0.5143 -0.7823 -0.7980
  256MOL0     H34499   7.682   8.910   8.308 -0.3994 -0.3232  1.3334
  256MOL0     H34500   7.747   8.767   8.372 -3.7963  1.3894  2.2780
  256MOL0     H34501   7.496   8.780   8.344  1.2740  1.1724  0.6655
  256MOL0     H34502   7.514   8.723   8.180 -0.8770 -1.0073  0.1798
  256MOL0     H34503   7.484   8.526   8.291 -2.3991  2.1938  1.8088
  256MOL0     H34504   7.656   8.529   8.269  1.6233  2.0177  0.5167
  256MOL0     H34505   7.679   8.612   8.502  0.6975 -0.0790 -1.0827
  256MOL0     H34506   7.509   8.652   8.511  1.9015  1.1388 -0.5883
  256MOL0     H34507   7.649   8.370   8.526 -0.6101  1.5288  0.5066
  256MOL0     H34508   7.477   8.388   8.466 -3.1007 -0.5922  1.6640
  256MOL0     H34509   7.577   8.515   8.724  0.9682 -1.2176  0.1758
  256MOL0     H34510   7.405   8.495   8.644 -0.1980  1.1436  0.1441
  256MOL0     H34511   7.570   8.347   8.915  1.0026 -1.8390  0.8540
  256MOL0     H34512   7.540   8.047   9.019 -2.2030 -1.9644 -0.0706
  256MOL0     H34513   7.454   8.175   9.084  0.3647  0.7603 -0.8700
  256MOL0     H34514   7.233   8.073   9.047 -0.4333 -1.9602  2.2121
  256MOL0     H34515   7.307   7.939   8.954  1.9049  0.7393 -0.5537
  256MOL0     H34516   7.451   7.973   9.213  1.5454  0.0707 -2.8315
  256MOL0     H34517   7.402   7.836   9.123  0.9424  0.5502  0.6362
  256MOL0     H34518   7.163   7.859   9.190 -0.8230  1.7765 -1.3794
  256MOL0     H34519   7.204   8.001   9.284  0.6379 -0.0586  1.1738
  256MOL0     H34520   7.351   7.714   9.570 -1.0122 -0.6723  1.2284
  256MOL0     H34521   7.367   7.466   9.610 -1.7744 -0.2778 -0.8486
  256MOL0     H34522   7.381   7.015   9.566  0.9737 -0.7457 -1.2326
  256MOL0     H34523   7.305   6.789   9.589  1.1106  1.1213  1.0562
  256MOL0     H34524   7.021   6.576   9.591  3.1714  0.2607  1.2711
  256MOL0     H34525   6.975   6.640   9.434  1.5815 -0.0901 -0.0982
  256MOL0     H34526   6.972   6.394   9.425 -1.1498  1.4698 -1.5191
  256MOL0     H34527   7.108   6.451   9.332 -0.9873 -1.3932 -1.1583
  256MOL0     H34528   7.259   6.403   9.522 -0.9393  1.9481 -0.5357
  256MOL0     H34529   7.143   6.365   9.630  2.8385  1.0066  1.3448
  256MOL0     H34530   7.230   6.211   9.386  2.4955 -1.4909  1.8438
  256MOL0     H34531   7.074   6.168   9.472  0.2636 -0.0705  1.1840
  256MOL0     H34532   7.267   6.022   9.547 -1.8657 -0.1755 -2.4523
  256MOL0     H34533   7.195   6.119   9.679  0.4298  7.6349  1.5451
  256MOL0     H34534   7.452   6.233   9.556 -2.3856  4.4827  0.1672
  256MOL0     H34535   7.373   6.269   9.704 -1.3036 -0.3121 -0.9796
  256MOL0     H34536   7.388   6.073   9.808  1.2963  1.7772  1.6718
  256MOL0     H34537   7.544   6.140   9.775  2.3595  3.1769 -4.2037
  256MOL0     H34538   7.581   5.920   9.717  3.0343  0.0202 -2.6468
  256MOL0     H34539   7.427   5.897   9.642 -3.3497  1.8351  1.0211
  256MOL0     H34540   7.020   6.822   9.282  1.6237 -3.7155  1.8566
  256MOL0     H34541   7.049   7.062   9.277 -1.6161  2.4486  3.0684
  256MOL0     H34542   7.241   7.398   9.222 -0.0415  1.2569 -0.6561
  256MOL0     H34543   7.204   7.630   9.176 -0.4563  0.6297 -0.3765
  256MOL0     H34544   8.037   9.210   8.091 -0.1396 -1.9707  1.3228
  256MOL0     H34545   8.142   9.276   7.903 -2.7287  0.7387 -0.2206
  256MOL0     H34546   8.337   9.329   7.640  0.3431 -2.1824  0.9402
  256MOL0     H34547   8.469   9.470   7.510 -0.8360 -1.2724  0.8154
  256MOL0     H34548   8.513   9.626   7.364 -1.4044 -0.0273 -0.5853
  256MOL0     H34549   8.560   9.669   7.202  0.6892  0.1401  0.3405
  256MOL0     H34550   8.748   9.503   7.193  0.1128  1.0251  0.1755
  256MOL0     H34551   8.704   9.452   7.357  0.2442  1.4087  1.1034
  256MOL0     H34552   8.750   9.676   7.431 -2.8409  0.7069 -0.9972
  256MOL0     H34553   8.835   9.707   7.271  0.2344  1.3350  1.1989
  256MOL0     H34554   8.905   9.504   7.488 -1.0587  1.8351  1.3536
  256MOL0     H34555   8.979   9.488   7.326 -1.2005 -0.9238 -1.8861
  256MOL0     H34556   9.209   9.796   7.503 -1.3715  1.9232 -0.9962
  256MOL0     H34557   8.306   9.288   7.152 -0.5272  1.8279  0.9674
  256MOL0     H34558   8.180   9.000   7.289 -0.2384 -0.2285 -1.4101
  256MOL0     H34559   8.060   9.122   7.285 -0.5467  0.0806 -2.0055
  256MOL0     H34560   8.188   9.108   7.159  0.2042 -1.8246  0.2890
  257MOL0     O34561   0.354   0.720  10.136  1.2885 -0.6211 -0.1512
  257MOL0     C34562   0.312   0.834  10.115 -0.1948 -0.3223  0.2871
  257MOL0     O34563   0.301   0.938  10.211 -0.2033 -0.3639 -1.0282
  257MOL0     C34564   0.334   0.912  10.344 -0.4800 -0.6759  1.2314
  257MOL0     C34565   0.416   0.992  10.427  0.1788 -0.7666 -0.1560
  257MOL0     C34566   0.433   0.974  10.569  0.1496  0.0702 -0.9665
  257MOL0     C34567   0.354   0.872  10.623  0.7624  0.6954 -0.8593
  257MOL0     O34568   0.316   0.893  10.753  0.6930  0.9029  0.3053
  257MOL0     C34569   0.306   0.781  10.842 -0.4365  0.1111  0.8474
  257MOL0     C34570   0.323   0.820  10.983  1.3420 -0.0784  0.4194
  257MOL0     C34571   0.452   0.885  11.015  0.8071  0.4412  0.0835
  257MOL0     C34572   0.581   0.814  10.966 -0.3505 -0.2817 -0.4790
  257MOL0     C34573   0.610   0.663  11.008 -0.0710  1.3243  0.1310
  257MOL0     C34574   0.580   0.620  11.165  0.0372 -0.5314  0.4287
  257MOL0     C34575   0.651   0.723  11.257  0.8382  0.2118  0.2256
  257MOL0     C34576   0.644   0.668  11.398 -0.9698 -0.1387 -0.2919
  257MOL0     N34577   0.520   0.695  11.464 -0.2549  0.0333  0.5021
  257MOL0     C34578   0.481   0.820  11.512 -0.0063 -0.6452  0.3367
  257MOL0     C34579   0.376   0.794  11.583  0.1543 -0.3152  0.6725
  257MOL0     C34580   0.289   0.895  11.651 -0.3184  0.2088 -0.1117
  257MOL0     C34581   0.131   0.865  11.658 -0.4364  0.1767  0.1463
  257MOL0     C34582   0.058   0.959  11.748 -0.0813 -0.2752 -1.0253
  257MOL0     C34583  -0.091   0.938  11.743 -0.2955 -0.2354 -0.8654
  257MOL0     O34584  -0.115   0.798  11.776  0.0579  0.4137 -0.5362
  257MOL0     C34585  -0.243   0.755  11.776 -0.3535  0.6703 -0.5824
  257MOL0     C34586  -0.269   0.627  11.820 -0.6239 -0.5163  0.3579
  257MOL0     C34587  -0.393   0.560  11.810  0.1008  0.2115  0.8079
  257MOL0     C34588  -0.496   0.641  11.752 -0.4393 -0.4715 -0.5826
  257MOL0     C34589  -0.627   0.582  11.719  0.8614  0.1773  0.1297
  257MOL0     O34590  -0.669   0.472  11.795 -0.3339 -0.2476  0.1244
  257MOL0     C34591  -0.778   0.405  11.757  0.4173 -0.6331  0.9071
  257MOL0     C34592  -0.899   0.405  11.829 -0.9647  0.5628  0.7399
  257MOL0     C34593  -1.000   0.316  11.802  0.3918 -0.5641 -0.3785
  257MOL0     C34594  -0.984   0.227  11.699  0.3682  0.4032  1.2093
  257MOL0     O34595  -1.095   0.145  11.677  0.1185  0.8074 -0.3641
  257MOL0     C34596  -1.169   0.170  11.555 -0.3725  0.7949 -0.9215
  257MOL0     C34597  -1.149   0.054  11.458 -1.0125 -0.4299  0.5447
  257MOL0     C34598  -1.233   0.089  11.332  0.2173 -0.5347 -0.3475
  257MOL0     C34599  -1.197  -0.004  11.222 -0.3890 -0.4468  0.5111
  257MOL0     C34600  -1.309  -0.064  11.157  0.0276  0.5666  1.0869
  257MOL0     C34601  -1.407   0.032  11.083 -0.1810 -0.1816 -0.0554
  257MOL0     C34602  -1.536  -0.052  11.034 -0.0772  1.0620 -0.5613
  257MOL0     C34603  -1.593  -0.009  10.908 -0.2310  0.2058  0.5679
  257MOL0    Cl34604  -1.716  -0.122  10.844 -0.0216  0.0717  0.0438
  257MOL0     C34605  -0.879   0.220  11.621 -1.0429 -0.9942  0.5083
  257MOL0     C34606  -0.773   0.305  11.651  0.8384 -0.1663 -0.0102
  257MOL0     O34607  -0.698   0.631  11.627 -0.4235 -0.2483 -0.3740
  257MOL0     C34608  -0.482   0.776  11.724 -0.1934  0.7952  0.4013
  257MOL0     C34609  -0.349   0.831  11.731 -0.1949 -0.4267  0.0851
  257MOL0     N34610   0.355   0.653  11.594  0.8920  0.3457 -0.6534
  257MOL0     N34611   0.436   0.597  11.521 -0.3566 -0.1671 -0.6855
  257MOL0     C34612   0.290   0.776  10.552  0.8845 -0.0112  0.6026
  257MOL0     C34613   0.276   0.806  10.413  0.0238 -0.1249 -0.4306
  257MOL0     C34614   0.251   0.859   9.979  0.2867 -0.1782  0.2688
  257MOL0     C34615   0.129   0.931   9.987  0.7582  0.2261 -0.1501
  257MOL0     C34616   0.042   0.950   9.874 -1.0734  0.0343 -0.9461
  257MOL0     C34617   0.099   0.918   9.749  0.7180  0.2402  0.7478
  257MOL0     O34618   0.039   0.935   9.625  0.4129  0.2830  0.3046
  257MOL0     C34619  -0.079   1.007   9.606 -0.1479 -0.3451 -0.5107
  257MOL0     C34620  -0.131   0.991   9.462  0.2531 -0.0393  0.8404
  257MOL0     C34621  -0.115   1.121   9.389 -0.1099  0.1109 -0.5137
  257MOL0     C34622  -0.186   1.124   9.251  1.6754 -0.1965 -0.8397
  257MOL0     C34623  -0.333   1.120   9.269  0.7205  0.2561  0.7556
  257MOL0     C34624  -0.454   1.123   9.287  0.1114 -0.6732 -0.0601
  257MOL0     C34625   0.220   0.855   9.746 -1.3453 -0.9231  0.8485
  257MOL0     C34626   0.295   0.824   9.855  0.8548 -0.2919  0.6278
  257MOL0     C34627   0.429   0.759   9.834 -0.4320  0.1691  0.1054
  257MOL0     H34628   0.462   1.080  10.384 -2.6906 -0.6875 -3.4723
  257MOL0     H34629   0.474   1.056  10.628 -3.4628  2.4375 -1.4198
  257MOL0     H34630   0.206   0.738  10.829  0.1313 -0.8342 -0.6426
  257MOL0     H34631   0.378   0.703  10.816 -0.4031  0.0119  1.2302
  257MOL0     H34632   0.294   0.735  11.044 -2.4327 -1.4392 -2.8160
  257MOL0     H34633   0.250   0.899  11.003  0.8398 -1.3099  4.0385
  257MOL0     H34634   0.455   0.907  11.122  0.7871  2.4170 -0.2847
  257MOL0     H34635   0.460   0.978  10.959 -0.6915 -1.1915 -3.1018
  257MOL0     H34636   0.582   0.833  10.859  0.1192  1.2381 -0.2274
  257MOL0     H34637   0.673   0.861  11.003  1.3973 -3.4903 -0.3766
  257MOL0     H34638   0.543   0.599  10.950  1.4125 -0.8691  0.6971
  257MOL0     H34639   0.711   0.627  10.986 -0.0428  0.1769  1.9272
  257MOL0     H34640   0.472   0.619  11.183  0.2395 -2.0063  1.7235
  257MOL0     H34641   0.621   0.520  11.185 -0.5476 -0.6749  0.9179
  257MOL0     H34642   0.605   0.823  11.252  1.3656  0.5786  1.9012
  257MOL0     H34643   0.752   0.738  11.218  1.1141 -0.5295  0.6472
  257MOL0     H34644   0.673   0.563  11.408  2.3530  0.3562 -2.7961
  257MOL0     H34645   0.713   0.728  11.458 -1.9163 -0.8778  1.5828
  257MOL0     H34646   0.529   0.917  11.504 -1.7401  0.2633  0.2952
  257MOL0     H34647   0.337   0.912  11.748  1.3980  1.0787 -1.0626
  257MOL0     H34648   0.299   0.981  11.585 -0.1273 -1.7304 -2.8022
  257MOL0     H34649   0.104   0.873  11.552  0.5926  1.3404 -0.0573
  257MOL0     H34650   0.116   0.763  11.695 -1.4813  0.6486  1.0731
  257MOL0     H34651   0.077   1.062  11.720  1.6795 -0.2343  0.2023
  257MOL0     H34652   0.093   0.948  11.851 -0.6689  1.4706 -0.6178
  257MOL0     H34653  -0.127   0.978  11.648  1.7041  0.0485 -1.5557
  257MOL0     H34654  -0.138   1.001  11.819 -1.5408 -1.3785 -0.6522
  257MOL0     H34655  -0.182   0.570  11.848  1.6580  2.5164 -0.0624
  257MOL0     H34656  -0.399   0.455  11.834 -4.2848 -0.6865 -2.8470
  257MOL0     H34657  -0.901   0.470  11.916  0.1121 -0.0519  1.2458
  257MOL0     H34658  -1.079   0.313  11.877 -0.7851 -2.2168 -1.6079
  257MOL0     H34659  -1.275   0.180  11.581 -0.1827  0.0466  0.2317
  257MOL0     H34660  -1.143   0.268  11.513  1.2095 -1.0924 -4.6840
  257MOL0     H34661  -1.043   0.036  11.439 -1.5362 -1.8058 -1.4581
  257MOL0     H34662  -1.178  -0.047  11.489 -0.2736 -0.9454 -0.3762
  257MOL0     H34663  -1.341   0.091  11.349 -0.2956 -0.5578 -3.0933
  257MOL0     H34664  -1.215   0.189  11.292  1.2345 -0.9434 -0.9691
  257MOL0     H34665  -1.132  -0.085  11.258  1.6285  1.5147  1.5282
  257MOL0     H34666  -1.131   0.061  11.163 -2.1472  2.3167  1.4028
  257MOL0     H34667  -1.373  -0.106  11.235 -4.8169  2.7319 -1.2779
  257MOL0     H34668  -1.287  -0.144  11.086 -1.0546  1.3057 -0.1371
  257MOL0     H34669  -1.449   0.103  11.155  1.3845  0.6927  0.0551
  257MOL0     H34670  -1.370   0.088  10.996 -1.2382  0.3352 -0.1948
  257MOL0     H34671  -1.617  -0.052  11.108 -0.4652  0.8518 -0.9823
  257MOL0     H34672  -1.507  -0.157  11.023  0.1453  1.0960 -0.3247
  257MOL0     H34673  -1.635   0.092  10.909  0.9643  0.7226  0.3110
  257MOL0     H34674  -1.511   0.002  10.836  0.3434  1.1221  1.3551
  257MOL0     H34675  -0.880   0.146  11.542  1.7180 -0.3421 -0.2290
  257MOL0     H34676  -0.681   0.291  11.596 -0.9426 -1.3374 -2.9902
  257MOL0     H34677  -0.563   0.840  11.692 -0.7696 -0.5333 -0.9256
  257MOL0     H34678  -0.353   0.932  11.691  0.3946  0.1920  1.5331
  257MOL0     H34679   0.230   0.691  10.583 -2.0774  1.6887 -0.1401
  257MOL0     H34680   0.209   0.745  10.354  1.6492 -0.8799 -1.5649
  257MOL0     H34681   0.102   0.968  10.085 -3.6410 -0.3663 -0.9224
  257MOL0     H34682  -0.049   1.004   9.898  1.2391  3.1062  1.5698
  257MOL0     H34683  -0.064   1.111   9.636  0.8047  0.3320 -3.0494
  257MOL0     H34684  -0.146   0.959   9.677  1.3932 -0.4990  0.9097
  257MOL0     H34685  -0.237   0.964   9.470 -1.5540  5.5163  0.0964
  257MOL0     H34686  -0.088   0.901   9.416  0.0058 -0.1475  0.8199
  257MOL0     H34687  -0.007   1.135   9.381 -0.2446  0.9008 -1.0463
  257MOL0     H34688  -0.148   1.199   9.458  0.7611 -0.8318  1.0291
  257MOL0     H34689  -0.162   1.214   9.194  2.8525 -0.9939 -1.6331
  257MOL0     H34690  -0.170   1.035   9.190 -3.1580 -1.0353 -1.2652
  257MOL0     H34691  -0.557   1.117   9.314  0.6123 -0.6759  2.0789
  257MOL0     H34692   0.263   0.839   9.648 -2.8655  0.6837 -0.1214
  257MOL0     H34693   0.494   0.751   9.922  1.1437 -3.7590 -1.2064
  257MOL0     H34694   0.416   0.656   9.800  2.0441 -0.3367  0.5171
  257MOL0     H34695   0.471   0.823   9.756 -1.7037  1.5230  0.4921
  258MOL0     O34696   6.628   8.224   5.454  0.2534 -0.2502  0.2788
  258MOL0     C34697   6.726   8.155   5.451 -0.5626  0.1086  0.3518
  258MOL0     O34698   6.840   8.182   5.528 -0.0156  0.6656  0.1565
  258MOL0     C34699   6.822   8.268   5.638  1.0136  0.5957 -0.0460
  258MOL0     C34700   6.869   8.222   5.762 -0.3302 -0.3319  0.3617
  258MOL0     C34701   6.861   8.311   5.873 -0.0535  0.7222 -0.0221
  258MOL0     C34702   6.799   8.430   5.859  0.3389 -0.2276 -0.0229
  258MOL0     O34703   6.780   8.500   5.974 -0.1627 -0.3695  0.0281
  258MOL0     C34704   6.721   8.629   5.974 -0.2861  0.3420 -0.9867
  258MOL0     C34705   6.663   8.659   6.109 -0.3716 -0.7096 -0.5499
  258MOL0     C34706   6.619   8.800   6.114 -0.0917  0.5224  0.2661
  258MOL0     C34707   6.535   8.821   6.234  0.2780 -0.1715  0.4645
  258MOL0     C34708   6.469   8.956   6.214 -0.6621  0.4741 -0.1649
  258MOL0     C34709   6.416   8.999   6.345 -0.2049 -0.1277  0.3566
  258MOL0     C34710   6.338   9.127   6.328  0.2648 -0.0639 -0.2292
  258MOL0     C34711   6.418   9.244   6.388  1.8563 -0.3343  0.0969
  258MOL0     N34712   6.347   9.372   6.352 -0.2008 -0.4272 -0.0280
  258MOL0     C34713   6.315   9.417   6.229  0.3004 -0.4289 -0.4032
  258MOL0     C34714   6.263   9.540   6.249 -0.0698 -0.4445 -0.0691
  258MOL0     C34715   6.210   9.632   6.152 -0.5436 -0.9302  0.7739
  258MOL0     C34716   6.075   9.695   6.175  0.2503  0.8543 -0.5807
  258MOL0     C34717   6.049   9.805   6.071 -0.1607 -0.3852  0.5241
  258MOL0     C34718   5.899   9.851   6.067 -0.1855 -0.0929  0.3100
  258MOL0     O34719   5.889   9.959   5.964  0.6370  0.1276 -0.0751
  258MOL0     C34720   5.788  10.057   5.987  0.3648  0.0212 -0.9335
  258MOL0     C34721   5.682  10.046   6.082  1.3434 -0.7990 -1.0537
  258MOL0     C34722   5.583  10.146   6.086  0.2595  0.0975 -0.1184
  258MOL0     C34723   5.585  10.252   5.984 -0.9011  1.2147 -0.1978
  258MOL0     C34724   5.488  10.360   5.979 -0.5130 -0.1705 -0.3313
  258MOL0     O34725   5.456  10.402   5.854 -0.1021 -1.1639  0.3669
  258MOL0     C34726   5.348  10.485   5.840  0.3811  0.0340  0.1451
  258MOL0     C34727   5.363  10.627   5.849 -0.1823 -0.7831  0.3604
  258MOL0     C34728   5.254  10.707   5.838  0.2864 -0.9095 -0.1816
  258MOL0     C34729   5.125  10.649   5.823  0.7814  0.0212  0.2000
  258MOL0     O34730   5.028  10.744   5.826  0.0433  0.7804  0.4695
  258MOL0     C34731   4.923  10.750   5.904  0.5714 -0.2219  0.3982
  258MOL0     C34732   4.900  10.901   5.953  0.7700  0.5330  1.0400
  258MOL0     C34733   4.796  10.903   6.057  0.6187  0.6633  0.9844
  258MOL0     C34734   4.764  11.045   6.124 -0.8308  0.2404 -0.3646
  258MOL0     C34735   4.650  11.028   6.237  0.1658  0.9093  0.4412
  258MOL0     C34736   4.644  11.163   6.312 -0.1317  0.2572  0.4122
  258MOL0     C34737   4.540  11.165   6.426  0.5511 -0.3896  0.8601
  258MOL0     C34738   4.557  11.291   6.520 -0.7356  0.5934  0.3767
  258MOL0    Cl34739   4.720  11.321   6.602 -0.3683 -0.0775 -0.1917
  258MOL0     C34740   5.108  10.512   5.827 -0.2932 -0.4349  0.8037
  258MOL0     C34741   5.226  10.433   5.830  0.2973  0.3525  0.3981
  258MOL0     O34742   5.437  10.389   6.083 -0.3833 -0.0274 -0.3727
  258MOL0     C34743   5.692  10.262   5.890  0.0496  0.1370  0.6020
  258MOL0     C34744   5.790  10.163   5.891  0.7262 -0.1471  0.1822
  258MOL0     N34745   6.265   9.562   6.383  0.4754 -0.1153 -0.3131
  258MOL0     N34746   6.311   9.468   6.441  0.0258  0.2047  0.1513
  258MOL0     C34747   6.763   8.479   5.736  0.2310  0.3122  1.0702
  258MOL0     C34748   6.787   8.401   5.620  0.7101  0.7763 -0.1217
  258MOL0     C34749   6.743   8.062   5.328  0.0845 -0.4429  0.4666
  258MOL0     C34750   6.704   8.100   5.196  0.2586  1.2624  0.0712
  258MOL0     C34751   6.725   8.005   5.096  0.8942 -0.2063 -0.3247
  258MOL0     C34752   6.784   7.883   5.116  0.5718  0.6863  0.5893
  258MOL0     O34753   6.796   7.807   5.006  0.8653 -0.5496  0.1491
  258MOL0     C34754   6.928   7.803   4.959  0.7007  0.7725  0.7624
  258MOL0     C34755   6.959   7.655   4.922 -0.4096 -0.0109 -0.4590
  258MOL0     C34756   6.890   7.598   4.802  1.3144  0.5091  0.9174
  258MOL0     C34757   6.879   7.440   4.797  0.1175 -0.1876 -0.2676
  258MOL0     C34758   6.808   7.381   4.916  0.3066  0.3033 -0.2911
  258MOL0     C34759   6.765   7.325   5.014  0.0483 -0.0652  1.0548
  258MOL0     C34760   6.819   7.844   5.243 -0.0747 -0.3000  0.4813
  258MOL0     C34761   6.796   7.934   5.350  1.2781  0.4985 -0.2963
  258MOL0     C34762   6.815   7.880   5.498 -0.3065  0.7434 -0.1223
  258MOL0     H34763   6.912   8.123   5.753  0.3317 -0.0076 -0.1692
  258MOL0     H34764   6.887   8.272   5.971  2.3214 -1.1322 -1.2826
  258MOL0     H34765   6.794   8.705   5.943 -1.3724  0.8515 -2.3779
  258MOL0     H34766   6.637   8.644   5.907  0.6162  2.1101 -1.8142
  258MOL0     H34767   6.740   8.643   6.185 -1.7125 -1.8280  0.6397
  258MOL0     H34768   6.576   8.595   6.130 -0.6320  0.7803  4.0562
  258MOL0     H34769   6.557   8.830   6.028  0.3853  0.3663 -0.1375
  258MOL0     H34770   6.714   8.854   6.109  0.6736 -0.7711  0.4834
  258MOL0     H34771   6.459   8.745   6.258  0.6778 -1.3703 -1.7699
  258MOL0     H34772   6.603   8.831   6.319 -2.8486  0.4053  3.0908
  258MOL0     H34773   6.531   9.033   6.167  2.1324 -1.1512  0.6801
  258MOL0     H34774   6.386   8.933   6.145  1.7209  0.9102 -3.4060
  258MOL0     H34775   6.351   8.918   6.378 -2.9385  2.4919  1.8633
  258MOL0     H34776   6.492   9.013   6.423  1.0297 -1.6058 -0.5215
  258MOL0     H34777   6.243   9.119   6.380  2.6352  1.4897  4.9736
  258MOL0     H34778   6.300   9.151   6.228 -1.8457  2.8350  1.1494
  258MOL0     H34779   6.427   9.243   6.497  0.8431 -0.4705  0.1901
  258MOL0     H34780   6.520   9.245   6.349  2.2745 -0.1466  1.1536
  258MOL0     H34781   6.329   9.358   6.139  0.3782 -1.2323  0.1301
  258MOL0     H34782   6.284   9.712   6.139 -0.2775 -1.2047  0.5876
  258MOL0     H34783   6.202   9.568   6.064 -1.2451 -0.0857  0.2069
  258MOL0     H34784   5.997   9.619   6.181 -0.7138  1.7599 -1.2412
  258MOL0     H34785   6.062   9.739   6.275 -0.1660 -0.3139 -0.1140
  258MOL0     H34786   6.070   9.759   5.973  1.0144 -0.8110  0.9545
  258MOL0     H34787   6.108   9.896   6.081 -1.6481  0.7683 -0.6423
  258MOL0     H34788   5.882   9.902   6.162  2.9799  1.6864  0.0641
  258MOL0     H34789   5.825   9.774   6.043 -0.2561  0.8626 -3.0323
  258MOL0     H34790   5.677   9.962   6.151  0.3042 -1.2201 -1.6216
  258MOL0     H34791   5.496  10.136   6.150  0.8964 -1.5215  0.5410
  258MOL0     H34792   5.463  10.660   5.876  0.1841 -1.0220 -0.6559
  258MOL0     H34793   5.284  10.809   5.855  1.3842 -0.9517 -1.6787
  258MOL0     H34794   4.840  10.730   5.835  0.9055 -1.5378  0.3651
  258MOL0     H34795   4.928  10.676   5.984  0.2969 -1.4969 -0.7252
  258MOL0     H34796   4.993  10.946   5.989  1.2433  0.5562 -0.1660
  258MOL0     H34797   4.868  10.962   5.869 -0.5780  0.9381  1.8181
  258MOL0     H34798   4.706  10.864   6.009  0.0350 -0.4272  2.8565
  258MOL0     H34799   4.810  10.827   6.135 -1.6447  1.1276  1.9224
  258MOL0     H34800   4.744  11.116   6.044  0.9645  1.1849 -0.0439
  258MOL0     H34801   4.865  11.068   6.161 -0.4707 -1.0803 -0.4709
  258MOL0     H34802   4.667  10.944   6.305  0.4564  0.7207  0.1351
  258MOL0     H34803   4.554  11.008   6.188  0.1600  0.2512  0.7089
  258MOL0     H34804   4.747  11.180   6.345  1.2715 -1.2400 -2.7423
  258MOL0     H34805   4.607  11.242   6.246 -2.4104  0.7294  2.1003
  258MOL0     H34806   4.557  11.081   6.493  0.5140 -0.3414  0.9301
  258MOL0     H34807   4.440  11.158   6.383  0.6645  1.2046  0.2560
  258MOL0     H34808   4.537  11.388   6.475  1.4265  0.4752 -1.0035
  258MOL0     H34809   4.467  11.281   6.582 -1.5460 -2.2387 -1.0732
  258MOL0     H34810   5.015  10.458   5.813  1.1028 -2.6879 -0.3398
  258MOL0     H34811   5.208  10.326   5.831  1.1380  0.1734 -0.8844
  258MOL0     H34812   5.693  10.336   5.810 -1.7265  1.0862  1.4065
  258MOL0     H34813   5.859  10.154   5.808  1.6633 -1.3437  1.0536
  258MOL0     H34814   6.700   8.567   5.731  0.8380  0.7688  1.3447
  258MOL0     H34815   6.753   8.445   5.527 -1.1831  0.1931  0.2619
  258MOL0     H34816   6.673   8.199   5.165 -0.8669  0.6698 -0.7589
  258MOL0     H34817   6.712   8.026   4.990 -0.2532  3.1412  0.3447
  258MOL0     H34818   7.001   7.844   5.030  1.8183 -1.0859  0.7431
  258MOL0     H34819   6.944   7.856   4.864 -0.1281  0.8168  0.6375
  258MOL0     H34820   6.939   7.591   5.008  1.8222  0.6533  0.6341
  258MOL0     H34821   7.068   7.651   4.913 -0.1019  0.2128  2.3968
  258MOL0     H34822   6.916   7.651   4.711 -0.9899  2.2907  1.1937
  258MOL0     H34823   6.784   7.619   4.820  0.7578 -1.9462  0.8312
  258MOL0     H34824   6.817   7.420   4.709 -0.2513  3.0774 -0.8526
  258MOL0     H34825   6.980   7.406   4.773  0.0199  0.4653 -1.7615
  258MOL0     H34826   6.723   7.261   5.089 -0.6944  1.6693  2.1706
  258MOL0     H34827   6.861   7.744   5.248  0.5236 -0.1093 -0.5378
  258MOL0     H34828   6.795   7.954   5.575  2.1567  1.4533 -0.0737
  258MOL0     H34829   6.750   7.794   5.516 -0.7587  0.2044 -3.5251
  258MOL0     H34830   6.915   7.837   5.505  0.0100  0.9957 -2.3989
  259MOL0     O34831   0.641   4.415   6.853  0.6788  0.5829 -0.4556
  259MOL0     C34832   0.569   4.329   6.915 -0.6121 -0.0821  0.7411
  259MOL0     O34833   0.456   4.352   6.997  0.3286  0.5875  0.1259
  259MOL0     C34834   0.445   4.476   7.048  0.3735  0.5284 -1.0568
  259MOL0     C34835   0.330   4.548   7.027 -1.1802 -1.5296  0.1279
  259MOL0     C34836   0.314   4.672   7.095 -0.5942 -0.5531 -0.0370
  259MOL0     C34837   0.414   4.726   7.179 -0.5304  0.0103  0.2306
  259MOL0     O34838   0.403   4.837   7.268 -0.9438  0.3422 -0.3307
  259MOL0     C34839   0.388   4.957   7.196  1.0198 -0.8402  0.1760
  259MOL0     C34840   0.236   4.990   7.206 -0.3404  0.5571 -0.0818
  259MOL0     C34841   0.202   5.055   7.340 -0.0667 -0.2040 -0.4430
  259MOL0     C34842   0.058   5.124   7.344  0.7419  0.2916 -0.1129
  259MOL0     C34843   0.012   5.137   7.486  0.3030 -0.8358  0.2913
  259MOL0     C34844   0.050   5.279   7.532 -0.2567  0.3535 -0.3831
  259MOL0     C34845  -0.031   5.318   7.659  0.2678  0.3569  0.0510
  259MOL0     C34846  -0.011   5.234   7.779  1.1175 -0.2043 -0.2112
  259MOL0     N34847  -0.089   5.285   7.895 -0.2804  0.3482  0.0398
  259MOL0     C34848  -0.034   5.345   8.008  0.3577  0.1810  0.2842
  259MOL0     C34849  -0.137   5.340   8.100 -1.1602 -0.2177  0.1987
  259MOL0     C34850  -0.133   5.393   8.237  0.1963 -0.7041  0.6381
  259MOL0     C34851  -0.141   5.280   8.337  0.8849 -0.1377  0.2711
  259MOL0     C34852  -0.180   5.336   8.474  1.1758 -1.0564  0.5211
  259MOL0     C34853  -0.182   5.225   8.578 -0.1152  1.1666 -0.3424
  259MOL0     O34854  -0.052   5.217   8.643 -0.1058  0.2606  0.1714
  259MOL0     C34855  -0.015   5.322   8.717  0.7865 -0.0343 -0.2529
  259MOL0     C34856  -0.098   5.407   8.791  0.0582  0.2983 -0.0900
  259MOL0     C34857  -0.039   5.516   8.856  1.2895 -0.2642 -0.1937
  259MOL0     C34858   0.097   5.538   8.870  0.4629  0.3617  0.9093
  259MOL0     C34859   0.150   5.645   8.950  0.2719 -0.1107 -0.3095
  259MOL0     O34860   0.282   5.680   8.921  0.1624 -0.4019  0.3137
  259MOL0     C34861   0.333   5.798   8.949  0.5043  0.3652 -0.0818
  259MOL0     C34862   0.469   5.798   8.969 -0.0433  0.4063  0.0238
  259MOL0     C34863   0.541   5.921   8.981  0.0833 -0.7903 -0.0435
  259MOL0     C34864   0.482   6.044   8.982 -0.4355 -0.2055  0.2989
  259MOL0     O34865   0.545   6.167   8.989  0.3721  0.2721 -0.4675
  259MOL0     C34866   0.490   6.254   9.090  0.3766 -0.5369  0.1065
  259MOL0     C34867   0.588   6.374   9.129 -0.4778  0.1558  0.9228
  259MOL0     C34868   0.515   6.486   9.211  0.0301 -0.1307 -0.6912
  259MOL0     C34869   0.609   6.586   9.281 -0.3833  0.1935 -0.5173
  259MOL0     C34870   0.561   6.630   9.422  0.9990 -0.2710  0.0440
  259MOL0     C34871   0.425   6.695   9.410  0.2618  0.0760  0.1126
  259MOL0     C34872   0.386   6.802   9.519 -0.3470 -0.4562 -0.1300
  259MOL0     C34873   0.262   6.888   9.471 -0.1699 -0.9097 -0.4436
  259MOL0    Cl34874   0.257   7.015   9.604  0.0509 -0.2826 -0.0277
  259MOL0     C34875   0.341   6.031   8.985  0.1080 -0.0113  1.1374
  259MOL0     C34876   0.267   5.921   8.954  0.4586 -0.4169 -1.0619
  259MOL0     O34877   0.083   5.706   9.037  0.0371  0.7508 -0.0540
  259MOL0     C34878   0.178   5.445   8.795  0.0727 -0.0810 -0.4169
  259MOL0     C34879   0.122   5.343   8.723 -0.1445  0.3653 -0.0578
  259MOL0     N34880  -0.246   5.280   8.039  0.2008  0.9370 -0.7670
  259MOL0     N34881  -0.217   5.256   7.919  0.0420 -0.3693  0.7328
  259MOL0     C34882   0.536   4.650   7.194  0.0606  0.3313 -0.1343
  259MOL0     C34883   0.542   4.522   7.140 -0.0065 -0.0750  0.3946
  259MOL0     C34884   0.588   4.194   6.871  0.4397 -0.7794 -0.2406
  259MOL0     C34885   0.485   4.135   6.800  0.1915  0.7044 -0.8578
  259MOL0     C34886   0.498   4.007   6.752  0.2717  0.7307  0.3648
  259MOL0     C34887   0.621   3.939   6.774  0.2081  0.0159  0.6257
  259MOL0     O34888   0.647   3.804   6.749 -0.8416  0.9898 -0.2077
  259MOL0     C34889   0.559   3.715   6.684  0.3592  0.4071  0.3576
  259MOL0     C34890   0.639   3.588   6.648 -0.0608  0.2503  0.2684
  259MOL0     C34891   0.767   3.613   6.561  0.2134 -0.7496 -0.0633
  259MOL0     C34892   0.746   3.659   6.422  0.2219  0.2556 -0.0392
  259MOL0     C34893   0.689   3.551   6.333  0.8064 -0.3387  0.3190
  259MOL0     C34894   0.660   3.465   6.251  0.0084 -0.0304  0.5266
  259MOL0     C34895   0.728   4.008   6.816  0.1270 -0.4372  0.4859
  259MOL0     C34896   0.713   4.133   6.874 -0.4116  0.2646 -0.1759
  259MOL0     C34897   0.823   4.195   6.952  0.2579  1.0295 -0.5070
  259MOL0     H34898   0.258   4.504   6.959 -0.2809  2.6035 -4.0306
  259MOL0     H34899   0.220   4.725   7.082  0.5052  1.8110  1.1474
  259MOL0     H34900   0.444   5.036   7.246 -1.0097 -0.7165  2.4233
  259MOL0     H34901   0.423   4.934   7.095  0.5347  0.8511 -0.4163
  259MOL0     H34902   0.182   4.895   7.200 -0.6575  0.5506  2.0611
  259MOL0     H34903   0.207   5.062   7.128  5.2541  2.4206 -0.8516
  259MOL0     H34904   0.270   5.137   7.362 -2.5546  2.0133 -0.5145
  259MOL0     H34905   0.201   4.979   7.419 -0.8868  0.2987  0.0367
  259MOL0     H34906   0.066   5.220   7.292 -0.4393  1.0070  0.9705
  259MOL0     H34907  -0.016   5.060   7.296  1.5277 -3.2891  2.9783
  259MOL0     H34908  -0.097   5.134   7.493  0.1988 -0.2910 -0.8988
  259MOL0     H34909   0.058   5.054   7.540  1.7979  0.3013  0.8543
  259MOL0     H34910   0.158   5.287   7.551  0.0368 -0.8776 -1.3371
  259MOL0     H34911   0.024   5.357   7.460  0.1687  0.1743 -0.7351
  259MOL0     H34912  -0.137   5.322   7.633  0.8029  2.3653 -2.2641
  259MOL0     H34913  -0.005   5.420   7.687  4.5836  0.3021 -2.7467
  259MOL0     H34914  -0.050   5.136   7.748 -1.8739  0.7850  0.1202
  259MOL0     H34915   0.094   5.240   7.811  1.0563 -1.0401  0.1871
  259MOL0     H34916   0.061   5.395   8.024  0.3066  0.1210  0.7864
  259MOL0     H34917  -0.035   5.439   8.252 -0.7006  1.8175 -0.7609
  259MOL0     H34918  -0.213   5.466   8.250  3.0450  2.8194 -0.0627
  259MOL0     H34919  -0.214   5.204   8.308  2.2886 -1.9362  1.2402
  259MOL0     H34920  -0.045   5.228   8.344  0.5361 -0.8667 -0.2239
  259MOL0     H34921  -0.273   5.393   8.476 -0.0056 -2.8666 -0.1509
  259MOL0     H34922  -0.098   5.404   8.500  1.7008 -1.6728  0.5104
  259MOL0     H34923  -0.203   5.130   8.528  2.9532 -1.0195  2.1799
  259MOL0     H34924  -0.255   5.257   8.653  0.3025  2.3135 -0.4047
  259MOL0     H34925  -0.206   5.396   8.790 -0.4911  3.7840  2.7972
  259MOL0     H34926  -0.109   5.571   8.918  3.0066 -0.9763  2.5375
  259MOL0     H34927   0.526   5.706   8.962 -1.7703 -0.5482 -3.5722
  259MOL0     H34928   0.648   5.926   8.999 -0.0549 -1.0497  0.9220
  259MOL0     H34929   0.398   6.294   9.048  1.5480  3.1731  0.6722
  259MOL0     H34930   0.471   6.207   9.187  4.1097  2.8408  2.8509
  259MOL0     H34931   0.674   6.338   9.186 -0.8211 -0.0813  1.2929
  259MOL0     H34932   0.622   6.413   9.032 -1.9898 -0.9702 -0.1189
  259MOL0     H34933   0.446   6.544   9.149  0.1757  0.0782 -0.6581
  259MOL0     H34934   0.471   6.435   9.297  0.8591 -0.2481 -0.3290
  259MOL0     H34935   0.635   6.675   9.223  0.0315  1.0283  0.9020
  259MOL0     H34936   0.702   6.535   9.308 -1.5744 -1.9090 -0.1771
  259MOL0     H34937   0.635   6.701   9.461  1.6765  0.0488 -1.6879
  259MOL0     H34938   0.561   6.549   9.495  1.7573 -1.3880 -1.1427
  259MOL0     H34939   0.432   6.748   9.314  0.7948  1.3741  0.8363
  259MOL0     H34940   0.357   6.610   9.410  2.2621 -1.6104  1.6598
  259MOL0     H34941   0.469   6.867   9.548 -0.4840  0.3233 -1.4042
  259MOL0     H34942   0.363   6.754   9.614 -0.2439 -0.4810 -0.1171
  259MOL0     H34943   0.282   6.937   9.375 -3.9618  0.2505 -0.7932
  259MOL0     H34944   0.166   6.837   9.477 -0.2654 -0.5916  1.4936
  259MOL0     H34945   0.273   6.114   8.991  0.0460 -0.0277  0.6854
  259MOL0     H34946   0.160   5.921   8.936  1.0574 -1.1978 -6.1370
  259MOL0     H34947   0.286   5.446   8.784  0.0613 -2.1807 -1.1805
  259MOL0     H34948   0.185   5.290   8.652 -1.8061  0.8172 -1.9504
  259MOL0     H34949   0.612   4.673   7.268  3.7293 -0.8894 -3.2218
  259MOL0     H34950   0.623   4.452   7.161  1.4629  0.9466 -1.5201
  259MOL0     H34951   0.390   4.179   6.771 -2.6041 -2.7095  2.1420
  259MOL0     H34952   0.413   3.960   6.703 -0.5205 -0.4282  2.6717
  259MOL0     H34953   0.517   3.770   6.599 -0.2321  3.7511  2.6106
  259MOL0     H34954   0.481   3.696   6.758  1.2404  3.0875  2.1339
  259MOL0     H34955   0.574   3.516   6.597  0.0608 -2.2988  3.4236
  259MOL0     H34956   0.667   3.541   6.742 -1.8611  0.8228  1.1340
  259MOL0     H34957   0.835   3.527   6.561 -0.7073 -1.5127  1.3577
  259MOL0     H34958   0.829   3.683   6.618 -0.1602 -0.6142  0.1785
  259MOL0     H34959   0.681   3.747   6.421  0.8946  0.7560 -0.2125
  259MOL0     H34960   0.848   3.681   6.392 -0.4862  0.8900 -2.1000
  259MOL0     H34961   0.636   3.390   6.179  0.1917  0.5263 -0.1231
  259MOL0     H34962   0.830   3.970   6.810  0.3966 -0.1926  2.7828
  259MOL0     H34963   0.777   4.225   7.047  0.8308  0.7452 -0.1398
  259MOL0     H34964   0.905   4.126   6.968 -1.8103 -0.8938  3.1982
  259MOL0     H34965   0.852   4.288   6.902 -2.0430  1.8817 -0.3904
  260MOL0     O34966  10.761   4.868   2.847 -1.2514 -0.5590 -0.5311
  260MOL0     C34967  10.683   4.771   2.886  0.0806 -0.2888  1.3400
  260MOL0     O34968  10.652   4.744   3.018 -0.1269 -0.4464  0.0743
  260MOL0     C34969  10.697   4.833   3.119  0.1331 -0.3550  1.0938
  260MOL0     C34970  10.642   4.953   3.120  0.1791 -1.1557 -0.6002
  260MOL0     C34971  10.691   5.044   3.220 -0.2858 -0.1358  0.1972
  260MOL0     C34972  10.796   5.007   3.308  0.1854 -0.0539 -0.7036
  260MOL0     O34973  10.850   5.085   3.412  0.8446  0.0292  0.0497
  260MOL0     C34974  10.772   5.185   3.469 -0.5671 -0.0435 -0.9942
  260MOL0     C34975  10.842   5.220   3.601  0.5640 -0.1822 -0.5763
  260MOL0     C34976  10.894   5.095   3.674 -0.1155  0.1622 -0.4497
  260MOL0     C34977  10.967   5.141   3.806  0.2812  0.1408  0.1702
  260MOL0     C34978  11.041   5.019   3.865 -0.1803 -0.2539 -0.6119
  260MOL0     C34979  11.151   5.069   3.966  0.1841  0.0708 -0.2492
  260MOL0     C34980  11.230   4.950   4.021 -0.0392  1.2470 -0.6536
  260MOL0     C34981  11.141   4.846   4.090 -0.4041  0.8626 -0.3640
  260MOL0     N34982  11.215   4.746   4.169 -0.1707 -0.3144  0.3857
  260MOL0     C34983  11.157   4.629   4.194 -0.3720  1.0458 -0.3369
  260MOL0     C34984  11.262   4.546   4.232 -0.3005 -0.0644 -0.7303
  260MOL0     C34985  11.248   4.405   4.275 -0.2083 -0.1069  0.2933
  260MOL0     C34986  11.170   4.371   4.401 -0.7241  0.5732 -1.1983
  260MOL0     C34987  11.215   4.442   4.535  1.4676 -0.3291  0.4571
  260MOL0     C34988  11.098   4.397   4.635 -0.0382 -0.4861 -0.1150
  260MOL0     O34989  11.152   4.428   4.760  0.4277 -1.0997  0.6827
  260MOL0     C34990  11.135   4.553   4.820  0.3337  0.2483 -0.4169
  260MOL0     C34991  11.201   4.577   4.934 -0.6065 -1.0503  0.6296
  260MOL0     C34992  11.201   4.701   5.009 -0.1296  0.9300  0.0047
  260MOL0     C34993  11.117   4.800   4.948  0.3028  0.2094  0.4657
  260MOL0     C34994  11.087   4.922   5.030 -0.3312 -0.2759  0.6454
  260MOL0     O34995  11.135   5.021   4.955  0.1273  0.0897 -0.0678
  260MOL0     C34996  11.115   5.156   4.988 -0.8445  0.6590  0.1308
  260MOL0     C34997  11.184   5.244   4.898  0.1007  0.3793  0.4505
  260MOL0     C34998  11.157   5.377   4.900  0.4403  1.0563 -0.0823
  260MOL0     C34999  11.081   5.436   4.996  0.1352 -0.7999  0.0187
  260MOL0     O35000  11.053   5.567   4.980  0.0441  0.1589 -0.4729
  260MOL0     C35001  11.099   5.654   5.095  1.3353  0.2021  0.8586
  260MOL0     C35002  11.137   5.791   5.022 -0.6800  0.2329 -0.1470
  260MOL0     C35003  11.142   5.898   5.143 -0.3043  0.5634  0.2175
  260MOL0     C35004  11.239   6.007   5.119 -0.6061 -1.0194  0.3831
  260MOL0     C35005  11.380   5.946   5.111  0.4595  1.1174  0.3770
  260MOL0     C35006  11.497   6.050   5.137  0.6523  0.4668 -0.6729
  260MOL0     C35007  11.493   6.096   5.278 -0.2775  0.0110  0.7034
  260MOL0     C35008  11.640   6.115   5.332  0.9733  0.3017  1.0151
  260MOL0    Cl35009  11.730   6.247   5.243  0.1816  0.1867  0.0842
  260MOL0     C35010  11.002   5.362   5.078 -0.4867  0.1878 -0.9341
  260MOL0     C35011  11.024   5.217   5.072  0.0998 -0.4700  0.8780
  260MOL0     O35012  11.014   4.924   5.131 -0.5509  0.3631 -0.4731
  260MOL0     C35013  11.045   4.780   4.824  0.8770 -0.0772  0.1712
  260MOL0     C35014  11.052   4.656   4.761  0.2100  0.0326  0.0917
  260MOL0     N35015  11.370   4.626   4.238 -0.8058  0.5710 -0.2687
  260MOL0     N35016  11.355   4.744   4.187  0.5196  0.3534  0.1891
  260MOL0     C35017  10.854   4.880   3.301 -0.2953 -0.6455  0.5313
  260MOL0     C35018  10.803   4.790   3.208 -0.0930 -0.4791 -0.6200
  260MOL0     C35019  10.640   4.677   2.789  0.1116 -0.3347 -0.2115
  260MOL0     C35020  10.647   4.545   2.837 -0.4359 -0.3686 -0.6571
  260MOL0     C35021  10.612   4.443   2.746 -0.2408  0.7245  0.0823
  260MOL0     C35022  10.563   4.465   2.618 -0.3500  0.7046 -0.2353
  260MOL0     O35023  10.514   4.352   2.561 -0.8566  0.0929 -0.1884
  260MOL0     C35024  10.418   4.375   2.458 -0.3862  0.2868 -0.4301
  260MOL0     C35025  10.359   4.233   2.426  0.2175  1.1905 -0.7820
  260MOL0     C35026  10.294   4.165   2.554  0.1521 -0.4033 -0.2397
  260MOL0     C35027  10.352   4.022   2.563  0.2742  0.7038  0.1271
  260MOL0     C35028  10.505   4.025   2.560  0.4190 -0.0242 -0.6048
  260MOL0     C35029  10.624   4.040   2.563  0.0900  0.1483  0.2796
  260MOL0     C35030  10.565   4.595   2.564 -0.1086  0.8121 -0.4165
  260MOL0     C35031  10.604   4.701   2.655 -0.0733  0.4321  0.7374
  260MOL0     C35032  10.608   4.842   2.609 -0.0994 -0.7050  0.8631
  260MOL0     H35033  10.559   4.967   3.053 -0.1389  0.2071  0.0577
  260MOL0     H35034  10.643   5.141   3.231  0.5158  0.5397 -1.7611
  260MOL0     H35035  10.782   5.276   3.409  2.2341  2.2236  2.4461
  260MOL0     H35036  10.674   5.140   3.487 -0.0760 -1.4579 -1.6931
  260MOL0     H35037  10.771   5.282   3.656  0.2133  0.3744 -1.6476
  260MOL0     H35038  10.924   5.290   3.580 -1.1164  2.3472  0.7339
  260MOL0     H35039  10.969   5.044   3.613  1.7110 -0.5183  2.1828
  260MOL0     H35040  10.817   5.019   3.685  0.6550 -0.6917 -0.9130
  260MOL0     H35041  11.038   5.223   3.790 -1.8886  2.4792  1.6559
  260MOL0     H35042  10.900   5.176   3.885  0.5464 -0.5713  0.7283
  260MOL0     H35043  10.976   4.945   3.911 -0.6180  0.0240 -0.7805
  260MOL0     H35044  11.092   4.965   3.784 -1.1703 -0.5473 -1.0497
  260MOL0     H35045  11.210   5.145   3.914 -0.7208  2.0186  1.4013
  260MOL0     H35046  11.104   5.126   4.047  3.0549  2.5124 -0.1077
  260MOL0     H35047  11.293   4.991   4.101  0.2497 -0.3038 -0.0545
  260MOL0     H35048  11.300   4.912   3.946 -0.7445  4.4937 -3.2137
  260MOL0     H35049  11.065   4.895   4.151  1.4491  2.3800  0.8352
  260MOL0     H35050  11.094   4.784   4.013  0.5853  0.3725 -0.5961
  260MOL0     H35051  11.057   4.585   4.199  0.9000 -1.9866  2.2189
  260MOL0     H35052  11.198   4.352   4.192  0.1957  0.9876 -0.6737
  260MOL0     H35053  11.344   4.353   4.284 -0.4861 -1.0996 -1.7689
  260MOL0     H35054  11.067   4.396   4.376 -0.8855  0.1222 -1.0013
  260MOL0     H35055  11.160   4.263   4.418 -0.0459  0.8623  1.5657
  260MOL0     H35056  11.224   4.548   4.512  3.0678 -0.2846  1.1661
  260MOL0     H35057  11.314   4.412   4.571  1.8392  1.4375  1.0165
  260MOL0     H35058  11.089   4.288   4.628 -2.3096 -0.6118  2.7815
  260MOL0     H35059  10.999   4.439   4.616  0.9645  0.8440 -3.0627
  260MOL0     H35060  11.260   4.491   4.965  0.2260 -0.3313  1.0567
  260MOL0     H35061  11.264   4.705   5.097  1.9779  0.2878 -1.3730
  260MOL0     H35062  11.246   5.198   4.822 -0.6667 -1.2496  0.7800
  260MOL0     H35063  11.203   5.452   4.836  0.2821  0.7719 -0.5367
  260MOL0     H35064  11.019   5.658   5.170 -0.1074  2.5548 -0.6709
  260MOL0     H35065  11.186   5.613   5.147  0.6294 -3.4092 -0.5077
  260MOL0     H35066  11.235   5.768   4.980  0.2475  3.5349 -0.0396
  260MOL0     H35067  11.063   5.817   4.945 -1.4785  0.7864  0.7842
  260MOL0     H35068  11.040   5.935   5.160 -0.4983 -0.3989  1.2396
  260MOL0     H35069  11.182   5.853   5.234  3.2672  2.9662  0.0530
  260MOL0     H35070  11.245   6.085   5.194 -0.2456 -0.5810 -0.0941
  260MOL0     H35071  11.218   6.066   5.029  0.7336 -1.2785 -0.1230
  260MOL0     H35072  11.388   5.908   5.009 -1.2617 -2.3817  1.3965
  260MOL0     H35073  11.387   5.864   5.183 -0.3527 -1.8746 -2.7056
  260MOL0     H35074  11.591   5.996   5.123  0.7401 -1.3391  4.8676
  260MOL0     H35075  11.473   6.128   5.063 -2.5594 -1.4173 -1.8476
  260MOL0     H35076  11.449   6.019   5.342  2.7603 -1.3334  1.3308
  260MOL0     H35077  11.437   6.190   5.283 -0.4330 -0.0724  0.5228
  260MOL0     H35078  11.642   6.151   5.435 -0.1753  5.8096 -0.5248
  260MOL0     H35079  11.699   6.023   5.327  3.2623  1.6918 -2.9184
  260MOL0     H35080  10.923   5.400   5.142  0.8279  0.1143  0.8002
  260MOL0     H35081  10.974   5.153   5.144  0.9161 -0.1772  1.7151
  260MOL0     H35082  10.972   4.852   4.789 -1.0999 -1.9933  0.1024
  260MOL0     H35083  10.995   4.635   4.671 -3.1618  2.2334  1.5081
  260MOL0     H35084  10.941   4.861   3.363 -0.6713 -0.9590  0.9713
  260MOL0     H35085  10.862   4.700   3.206  0.8226  0.0422  0.8500
  260MOL0     H35086  10.691   4.522   2.934  1.8308 -0.8670 -1.7496
  260MOL0     H35087  10.601   4.340   2.777 -4.6201  0.7489 -0.7182
  260MOL0     H35088  10.462   4.409   2.364 -0.3547 -0.2453 -0.6121
  260MOL0     H35089  10.334   4.436   2.493 -0.4616  0.0655 -0.2178
  260MOL0     H35090  10.434   4.171   2.376  0.0973  0.7406 -0.4161
  260MOL0     H35091  10.284   4.251   2.348 -1.7789 -0.9760  0.4896
  260MOL0     H35092  10.187   4.155   2.538  0.6340 -4.1658 -2.2881
  260MOL0     H35093  10.323   4.215   2.647  2.5421 -1.9924 -0.0233
  260MOL0     H35094  10.320   3.980   2.659 -2.6523 -1.3324 -1.6009
  260MOL0     H35095  10.319   3.961   2.479  1.9613  1.3566 -1.0856
  260MOL0     H35096  10.729   4.056   2.554 -0.0829  1.6119  0.6077
  260MOL0     H35097  10.543   4.619   2.460  0.4323  0.7359 -0.5511
  260MOL0     H35098  10.565   4.919   2.674 -0.9955 -0.7044  0.2892
  260MOL0     H35099  10.711   4.865   2.584 -1.2365 -0.1133 -4.3022
  260MOL0     H35100  10.561   4.850   2.511  0.3385  3.2406  0.8395
  261MOL0     O35101  10.764   5.514   6.382 -0.6924 -0.2318  0.4791
  261MOL0     C35102  10.696   5.612   6.348 -0.5705  0.6387 -0.8023
  261MOL0     O35103  10.741   5.741   6.341 -0.1136  0.1898  0.3060
  261MOL0     C35104  10.870   5.763   6.375 -0.2545 -0.5525  0.0046
  261MOL0     C35105  10.897   5.788   6.505  0.0555  0.6218 -0.6480
  261MOL0     C35106  11.026   5.785   6.549  0.1785 -0.3042  0.0103
  261MOL0     C35107  11.136   5.769   6.457 -0.8763 -0.0964 -0.0690
  261MOL0     O35108  11.266   5.789   6.500 -0.0931 -0.6381  0.2593
  261MOL0     C35109  11.316   5.683   6.588 -0.6243  0.8254 -0.1771
  261MOL0     C35110  11.449   5.628   6.541  0.0114  0.1012 -0.3192
  261MOL0     C35111  11.437   5.579   6.397  0.1993  0.1521 -0.5567
  261MOL0     C35112  11.330   5.472   6.363 -0.5626 -0.2766  0.4664
  261MOL0     C35113  11.337   5.424   6.217  0.3266 -0.3218  0.8235
  261MOL0     C35114  11.457   5.342   6.174  0.7096 -0.4351 -0.3177
  261MOL0     C35115  11.437   5.196   6.227  0.2459 -0.6508  0.5995
  261MOL0     C35116  11.567   5.117   6.220  0.3020  0.1655 -0.3952
  261MOL0     N35117  11.553   4.981   6.252  0.4801  0.1015  0.7715
  261MOL0     C35118  11.459   4.899   6.192 -0.5004 -0.1604 -0.3568
  261MOL0     C35119  11.497   4.773   6.236  0.1714  0.8876  0.0670
  261MOL0     C35120  11.460   4.634   6.211 -0.0437 -0.8862  0.2785
  261MOL0     C35121  11.448   4.559   6.348 -0.7025  0.1941  0.7580
  261MOL0     C35122  11.365   4.629   6.451 -0.3444 -0.6773 -0.1759
  261MOL0     C35123  11.354   4.546   6.580  0.0895  0.1096  0.1130
  261MOL0     O35124  11.261   4.442   6.582  0.5043  1.1543  0.8755
  261MOL0     C35125  11.276   4.314   6.530  0.2516 -0.1619 -0.8732
  261MOL0     C35126  11.383   4.229   6.572  0.4433  0.3176  0.1219
  261MOL0     C35127  11.403   4.106   6.516 -0.1801  0.7393  0.5147
  261MOL0     C35128  11.300   4.040   6.442  0.7263  0.2851  0.7324
  261MOL0     C35129  11.296   3.896   6.411 -0.0754 -0.1788 -1.0546
  261MOL0     O35130  11.192   3.856   6.334 -0.7924  0.0583 -0.0455
  261MOL0     C35131  11.185   3.718   6.317 -0.3116  0.1322  0.2714
  261MOL0     C35132  11.286   3.645   6.257  0.1800  0.5922 -0.3489
  261MOL0     C35133  11.258   3.503   6.236 -0.5140  0.3783 -0.1012
  261MOL0     C35134  11.137   3.445   6.271 -0.3720  0.4565 -0.4669
  261MOL0     O35135  11.138   3.313   6.253 -0.5902 -0.1877  0.1386
  261MOL0     C35136  11.095   3.235   6.360  0.1805  0.0051  0.4413
  261MOL0     C35137  11.157   3.095   6.366 -0.0212 -1.2349  0.1809
  261MOL0     C35138  11.116   3.001   6.247  0.0359  0.1106  0.0267
  261MOL0     C35139  10.962   2.988   6.235 -0.0658  1.4731  0.5202
  261MOL0     C35140  10.935   2.860   6.155  0.0569  0.2549 -0.3307
  261MOL0     C35141  10.784   2.841   6.138  0.0086 -0.6566 -0.2199
  261MOL0     C35142  10.752   2.709   6.050  0.8733 -1.1191 -0.2762
  261MOL0     C35143  10.613   2.666   6.067  0.7392  0.5967  0.5301
  261MOL0    Cl35144  10.615   2.500   5.998 -0.2293  0.7831  0.3682
  261MOL0     C35145  11.037   3.515   6.338 -0.5530 -0.0770 -0.8693
  261MOL0     C35146  11.060   3.652   6.353 -0.0567 -0.7445 -0.4769
  261MOL0     O35147  11.382   3.831   6.479 -0.2238 -0.4012  0.2020
  261MOL0     C35148  11.179   4.118   6.424  0.2409 -0.0429  0.2057
  261MOL0     C35149  11.179   4.257   6.451  0.9295 -0.2672 -0.2417
  261MOL0     N35150  11.617   4.780   6.310  0.2255 -0.3091 -0.5129
  261MOL0     N35151  11.646   4.906   6.309 -0.0170 -0.2624 -0.8970
  261MOL0     C35152  11.107   5.761   6.325  0.8740 -0.3877 -0.2687
  261MOL0     C35153  10.973   5.742   6.281  0.3669 -0.0094  0.5738
  261MOL0     C35154  10.550   5.598   6.349 -0.5275  0.2996 -0.2544
  261MOL0     C35155  10.485   5.704   6.408 -0.2143  0.0035  1.2395
  261MOL0     C35156  10.344   5.701   6.422 -0.4392  0.5171  0.2083
  261MOL0     C35157  10.275   5.587   6.383 -0.4634 -0.8182 -0.4275
  261MOL0     O35158  10.137   5.602   6.389 -0.5487  0.4615  0.2008
  261MOL0     C35159  10.035   5.526   6.323  0.0681  0.7893 -0.4725
  261MOL0     C35160   9.909   5.604   6.294 -0.0841 -0.1874  0.1517
  261MOL0     C35161   9.832   5.651   6.420  0.1485 -0.0937  0.1808
  261MOL0     C35162   9.758   5.534   6.495  0.0333  0.9632  0.7175
  261MOL0     C35163   9.703   5.573   6.619  0.1395  0.3966 -0.0532
  261MOL0     C35164   9.649   5.611   6.723  0.4916  0.0715  0.8240
  261MOL0     C35165  10.348   5.474   6.346 -0.0110 -0.1250  0.3968
  261MOL0     C35166  10.478   5.478   6.318 -0.3358  0.7718 -0.8426
  261MOL0     C35167  10.525   5.352   6.248  0.0957 -1.1771 -0.3897
  261MOL0     H35168  10.822   5.770   6.582 -2.1657 -0.0339 -2.8558
  261MOL0     H35169  11.036   5.805   6.655 -3.6777 -0.2761  0.5179
  261MOL0     H35170  11.327   5.728   6.687  2.0195 -1.9709  0.9378
  261MOL0     H35171  11.262   5.589   6.601  2.2123 -0.8078  0.6850
  261MOL0     H35172  11.486   5.551   6.609  1.7760  1.0719 -0.1295
  261MOL0     H35173  11.538   5.691   6.542  1.5155 -1.8580 -1.7990
  261MOL0     H35174  11.534   5.551   6.353  1.8041  3.3721  0.6270
  261MOL0     H35175  11.411   5.661   6.329  1.2041  1.7765  0.9546
  261MOL0     H35176  11.345   5.383   6.424 -0.0595 -0.2481  0.3923
  261MOL0     H35177  11.230   5.509   6.386  0.1733  1.2276  1.3923
  261MOL0     H35178  11.237   5.386   6.195  0.4998  0.5721 -1.8393
  261MOL0     H35179  11.345   5.519   6.165 -2.8600  1.2942  2.9900
  261MOL0     H35180  11.474   5.346   6.066  2.4466 -3.0069 -0.2266
  261MOL0     H35181  11.543   5.382   6.229  0.5766 -2.0543  1.1587
  261MOL0     H35182  11.365   5.150   6.159  0.1493  0.1799  0.1186
  261MOL0     H35183  11.395   5.189   6.328  0.0477 -0.1068  0.5598
  261MOL0     H35184  11.608   5.126   6.119  3.3024  0.7548  0.7684
  261MOL0     H35185  11.644   5.167   6.281  1.1028 -1.7733  0.2748
  261MOL0     H35186  11.369   4.910   6.133 -1.0247 -1.2412  0.2159
  261MOL0     H35187  11.367   4.634   6.153  0.5752 -0.7731 -0.7480
  261MOL0     H35188  11.544   4.599   6.150  0.0761 -1.1432  0.5853
  261MOL0     H35189  11.404   4.459   6.340  1.7165 -0.9464  0.5710
  261MOL0     H35190  11.548   4.535   6.385 -0.2312 -0.1764 -0.6543
  261MOL0     H35191  11.269   4.646   6.403 -1.4981 -3.0246  1.1071
  261MOL0     H35192  11.407   4.725   6.483 -4.6148  1.1393  0.6662
  261MOL0     H35193  11.321   4.603   6.667  0.9442 -0.9469  1.1694
  261MOL0     H35194  11.454   4.515   6.611  0.1641  0.5085  0.2692
  261MOL0     H35195  11.455   4.281   6.634 -0.5811  4.8392 -2.0978
  261MOL0     H35196  11.489   4.044   6.538 -0.2514  0.1018 -0.9168
  261MOL0     H35197  11.374   3.699   6.225 -2.1441  4.5554 -0.8065
  261MOL0     H35198  11.335   3.439   6.192 -1.5958 -0.1768 -1.2493
  261MOL0     H35199  11.121   3.286   6.453  2.0348  1.0557 -0.5913
  261MOL0     H35200  10.986   3.229   6.364  0.1620  0.5964  3.3691
  261MOL0     H35201  11.266   3.095   6.371 -0.0295 -3.1303  1.9976
  261MOL0     H35202  11.138   3.037   6.457  1.3573 -1.0384  0.6148
  261MOL0     H35203  11.159   3.039   6.154  1.3589 -1.4406 -0.0379
  261MOL0     H35204  11.159   2.903   6.268 -0.7267  0.0055  1.1890
  261MOL0     H35205  10.939   3.076   6.173  3.7703  1.5181 -1.1183
  261MOL0     H35206  10.907   2.990   6.330 -0.7176  0.3925  0.1710
  261MOL0     H35207  10.982   2.770   6.197  3.6309  0.8387 -2.6510
  261MOL0     H35208  10.973   2.872   6.053 -1.0872 -3.6593 -1.4326
  261MOL0     H35209  10.755   2.838   6.243  4.3302 -1.1980  1.1732
  261MOL0     H35210  10.743   2.931   6.091  1.5103  0.7233  0.9582
  261MOL0     H35211  10.812   2.624   6.082  0.8705 -2.2774 -3.1199
  261MOL0     H35212  10.779   2.740   5.949  3.1480 -3.3372 -0.4471
  261MOL0     H35213  10.578   2.663   6.170 -1.5606 -3.4974 -0.1373
  261MOL0     H35214  10.549   2.735   6.010  0.2480  2.8272  3.5322
  261MOL0     H35215  10.939   3.486   6.373 -0.7313  0.9994 -0.4464
  261MOL0     H35216  10.976   3.710   6.392  0.5397 -1.5770  2.2372
  261MOL0     H35217  11.099   4.072   6.365  2.7361 -0.9996 -2.6783
  261MOL0     H35218  11.094   4.316   6.418  1.8941  0.1447 -2.1537
  261MOL0     H35219  11.187   5.756   6.253 -1.4239 -2.1411 -2.9105
  261MOL0     H35220  10.955   5.733   6.175 -1.4984  2.0292  0.6454
  261MOL0     H35221  10.531   5.796   6.445  1.0452 -0.1577  0.1555
  261MOL0     H35222  10.295   5.793   6.455 -1.9471 -0.1028 -0.2252
  261MOL0     H35223  10.009   5.451   6.399  5.0264 -0.2270  0.5773
  261MOL0     H35224  10.076   5.480   6.232  0.4019 -2.9756  1.3490
  261MOL0     H35225   9.845   5.544   6.229  0.6658  2.1634 -2.9634
  261MOL0     H35226   9.946   5.689   6.236 -1.4087  1.3536  1.4856
  261MOL0     H35227   9.760   5.728   6.390  1.0801  0.6418 -0.2098
  261MOL0     H35228   9.901   5.702   6.488  0.0235 -0.5832  0.6841
  261MOL0     H35229   9.675   5.498   6.433  2.3290  1.2323 -2.8000
  261MOL0     H35230   9.818   5.443   6.502 -0.4067  0.0406 -4.1455
  261MOL0     H35231   9.598   5.647   6.810  0.8664 -0.3042  1.2065
  261MOL0     H35232  10.297   5.378   6.347  0.6007 -0.4464  1.2080
  261MOL0     H35233  10.453   5.334   6.169  0.1214 -0.6093 -0.5510
  261MOL0     H35234  10.618   5.374   6.195 -0.8818 -0.5367 -1.8883
  261MOL0     H35235  10.539   5.265   6.313  1.7126 -0.5616  0.1303
  262MOL0     O35236   5.564   4.759   5.316  0.4503  0.2278 -0.0626
  262MOL0     C35237   5.660   4.829   5.339 -0.7696 -0.7391 -0.3777
  262MOL0     O35238   5.659   4.930   5.429  0.7139 -0.2686  0.3403
  262MOL0     C35239   5.537   4.965   5.483 -0.3310 -0.5003  0.6548
  262MOL0     C35240   5.523   4.911   5.617  0.3695  0.2046 -0.1055
  262MOL0     C35241   5.419   4.971   5.699 -0.9992  0.7801  0.6961
  262MOL0     C35242   5.326   5.060   5.642  0.5122 -0.3626  0.9403
  262MOL0     O35243   5.230   5.109   5.716  0.5289 -0.1056 -0.4017
  262MOL0     C35244   5.096   5.033   5.692 -0.7096 -0.4257 -0.2486
  262MOL0     C35245   5.095   4.907   5.769  0.5802  0.6175  0.0006
  262MOL0     C35246   4.953   4.847   5.798 -0.3766 -0.4545 -0.2192
  262MOL0     C35247   4.885   4.934   5.906 -0.1780  0.5592  0.0800
  262MOL0     C35248   4.790   4.863   5.995 -0.0718 -0.6045 -0.0332
  262MOL0     C35249   4.684   4.785   5.922  0.2170 -0.1563  0.3601
  262MOL0     C35250   4.615   4.685   6.021  0.7858 -0.3278 -0.0553
  262MOL0     C35251   4.686   4.551   6.035 -0.1452  0.8413 -0.3417
  262MOL0     N35252   4.611   4.445   6.102  0.7710 -0.9240  0.1640
  262MOL0     C35253   4.477   4.458   6.133 -0.1548  0.2299 -0.3298
  262MOL0     C35254   4.441   4.330   6.172 -0.0190 -0.3865  0.5473
  262MOL0     C35255   4.301   4.296   6.195  0.7375 -0.0565 -0.1471
  262MOL0     C35256   4.265   4.360   6.333  0.4051  0.7389  0.9481
  262MOL0     C35257   4.111   4.335   6.344 -0.6054  0.6213  0.2799
  262MOL0     C35258   4.068   4.365   6.495 -0.2301  0.1542  0.5485
  262MOL0     O35259   4.076   4.510   6.531 -0.2903  0.3065 -0.2884
  262MOL0     C35260   4.001   4.552   6.633  0.7684  0.1208 -0.0810
  262MOL0     C35261   3.987   4.682   6.640  0.6088 -0.2142  1.3569
  262MOL0     C35262   3.908   4.749   6.732 -0.3022  0.2503  0.7885
  262MOL0     C35263   3.831   4.671   6.820  0.9827 -0.0283  0.4392
  262MOL0     C35264   3.732   4.741   6.917  0.4081  0.3128  0.9980
  262MOL0     O35265   3.703   4.875   6.893  0.4895 -0.1261 -0.1884
  262MOL0     C35266   3.606   4.949   6.960 -0.1810 -0.0979 -0.5925
  262MOL0     C35267   3.550   5.055   6.882  0.1501  0.0550  0.8170
  262MOL0     C35268   3.447   5.138   6.927  0.0964 -0.2340  0.5527
  262MOL0     C35269   3.383   5.094   7.049  0.1275 -0.2274 -0.6998
  262MOL0     O35270   3.276   5.170   7.092 -0.0126  0.3094  0.6219
  262MOL0     C35271   3.230   5.152   7.226 -0.1244  0.7259 -0.1227
  262MOL0     C35272   3.142   5.272   7.267 -0.2805  0.3682  0.1043
  262MOL0     C35273   3.194   5.413   7.233  0.4985 -1.3466 -0.0931
  262MOL0     C35274   3.331   5.428   7.304 -0.2586 -0.0686  0.1662
  262MOL0     C35275   3.397   5.568   7.315  0.2566 -0.7541 -0.4021
  262MOL0     C35276   3.400   5.650   7.175 -0.2240  0.2332  0.6176
  262MOL0     C35277   3.487   5.585   7.070  0.5980  1.2438 -0.0796
  262MOL0     C35278   3.486   5.659   6.940 -0.0959 -0.0257  0.6741
  262MOL0    Cl35279   3.331   5.642   6.841  0.1776 -0.1535 -0.3424
  262MOL0     C35280   3.444   5.001   7.132 -0.1859  0.0374 -0.4359
  262MOL0     C35281   3.562   4.928   7.092 -0.3268 -0.0859  0.3270
  262MOL0     O35282   3.683   4.666   7.004  0.1063 -0.3731  0.3079
  262MOL0     C35283   3.844   4.528   6.822 -0.6139  0.3599 -0.4436
  262MOL0     C35284   3.932   4.474   6.730  0.2432  0.2173 -0.8250
  262MOL0     N35285   4.556   4.245   6.152 -0.7239 -0.7730 -0.3290
  262MOL0     N35286   4.654   4.320   6.118 -0.1078 -0.0005 -0.7905
  262MOL0     C35287   5.349   5.106   5.513 -0.1618  0.3191 -0.9346
  262MOL0     C35288   5.452   5.058   5.436  0.0031  0.4837  0.2704
  262MOL0     C35289   5.774   4.820   5.250  0.4865 -0.0474  0.1875
  262MOL0     C35290   5.864   4.925   5.245  0.5207 -0.2607 -0.4471
  262MOL0     C35291   5.968   4.935   5.157  0.1395 -0.1321 -0.4962
  262MOL0     C35292   5.996   4.830   5.073 -0.2165  0.0034 -0.1717
  262MOL0     O35293   6.106   4.832   4.991 -0.4961 -0.3089  0.4186
  262MOL0     C35294   6.136   4.721   4.908 -0.1423  0.7751  0.5625
  262MOL0     C35295   6.280   4.747   4.853 -1.0459  0.2004 -0.0271
  262MOL0     C35296   6.264   4.864   4.753  0.5867 -0.6006  0.3904
  262MOL0     C35297   6.388   4.949   4.743 -0.6251  0.5823 -0.6128
  262MOL0     C35298   6.370   5.082   4.687 -0.6716  0.1711  1.5566
  262MOL0     C35299   6.348   5.183   4.631 -0.0040 -0.3665 -0.4299
  262MOL0     C35300   5.906   4.710   5.079  0.7502 -0.9182  0.0835
  262MOL0     C35301   5.795   4.705   5.167 -0.8754  0.4543  0.8206
  262MOL0     C35302   5.714   4.571   5.156 -0.2866 -0.9880  0.7477
  262MOL0     H35303   5.606   4.848   5.648  0.6309  0.6470  0.1045
  262MOL0     H35304   5.404   4.934   5.800 -0.3769 -1.2153  0.0868
  262MOL0     H35305   5.007   5.090   5.721 -1.4558 -1.8574  0.3899
  262MOL0     H35306   5.083   5.020   5.584  0.0036 -0.0332 -0.3885
  262MOL0     H35307   5.149   4.928   5.862  0.5434 -0.6404  0.3214
  262MOL0     H35308   5.157   4.832   5.719  0.2513 -0.7626  1.5653
  262MOL0     H35309   4.965   4.742   5.823  1.5281 -0.2002  0.0912
  262MOL0     H35310   4.895   4.849   5.705 -2.1548 -0.3307  0.8431
  262MOL0     H35311   4.963   4.975   5.971 -0.5345 -1.7845  2.1488
  262MOL0     H35312   4.840   5.025   5.864 -2.0138  1.0747  2.8624
  262MOL0     H35313   4.848   4.799   6.064 -1.1879 -0.5951  0.9443
  262MOL0     H35314   4.735   4.942   6.046 -2.6598 -0.5248 -2.7270
  262MOL0     H35315   4.604   4.842   5.876  0.1799 -1.5114 -1.3596
  262MOL0     H35316   4.727   4.736   5.834  0.0011  0.5181 -0.1279
  262MOL0     H35317   4.526   4.657   5.965  0.9795 -2.8481  0.7326
  262MOL0     H35318   4.591   4.735   6.115 -2.4754 -0.3458 -0.7765
  262MOL0     H35319   4.716   4.514   5.937  1.5856  1.0895  0.0482
  262MOL0     H35320   4.773   4.565   6.100 -0.2179 -1.2838  0.2761
  262MOL0     H35321   4.410   4.544   6.138 -0.9233 -0.2690 -1.7525
  262MOL0     H35322   4.244   4.352   6.120  0.8094  2.4000  1.4894
  262MOL0     H35323   4.273   4.192   6.181  2.0915 -0.2127 -2.0804
  262MOL0     H35324   4.308   4.297   6.411 -2.3305 -3.2723 -0.4499
  262MOL0     H35325   4.283   4.467   6.349 -1.2943  0.8630  2.2545
  262MOL0     H35326   4.090   4.229   6.325  1.5360  0.1783  0.1474
  262MOL0     H35327   4.053   4.387   6.268 -0.8399 -0.2490 -0.1475
  262MOL0     H35328   4.137   4.311   6.560 -0.7719  0.9754  1.8588
  262MOL0     H35329   3.963   4.340   6.515 -1.4260  2.5265 -1.9549
  262MOL0     H35330   4.042   4.736   6.563 -1.7159  1.7243  0.9497
  262MOL0     H35331   3.907   4.858   6.726 -1.2640  0.3283  1.8956
  262MOL0     H35332   3.577   5.050   6.777  1.0232 -2.8889  1.0877
  262MOL0     H35333   3.397   5.213   6.866 -0.3864 -0.3896  0.7555
  262MOL0     H35334   3.174   5.059   7.238 -2.2894  2.1640  1.9655
  262MOL0     H35335   3.311   5.151   7.299  0.7412  4.0545 -0.8554
  262MOL0     H35336   3.046   5.269   7.214 -0.4985  3.8525  0.0499
  262MOL0     H35337   3.106   5.264   7.370  0.0357 -0.4320  0.1581
  262MOL0     H35338   3.194   5.434   7.126  1.7695 -0.0056  0.1252
  262MOL0     H35339   3.144   5.501   7.274  2.8464 -0.6369  1.4485
  262MOL0     H35340   3.408   5.371   7.250  0.0150  0.4542  0.0004
  262MOL0     H35341   3.326   5.374   7.399  1.0289 -1.3100 -0.4339
  262MOL0     H35342   3.494   5.560   7.364  0.3119 -1.0218 -0.5572
  262MOL0     H35343   3.344   5.631   7.388  3.0866  0.9393  0.3532
  262MOL0     H35344   3.300   5.653   7.130  0.6734 -2.4593 -1.8394
  262MOL0     H35345   3.444   5.745   7.206  2.5746 -1.6549  2.9431
  262MOL0     H35346   3.456   5.484   7.042  0.2437  1.3533 -0.0874
  262MOL0     H35347   3.586   5.568   7.114  0.8454 -3.3647 -1.8728
  262MOL0     H35348   3.513   5.764   6.954 -1.0945  0.2571  0.5495
  262MOL0     H35349   3.559   5.606   6.878 -3.8747  0.4622 -4.8958
  262MOL0     H35350   3.396   4.970   7.224  0.8818  1.4943  0.6819
  262MOL0     H35351   3.609   4.848   7.148  1.6739  0.6636 -0.1931
  262MOL0     H35352   3.779   4.465   6.882 -0.8318 -1.8671 -2.8045
  262MOL0     H35353   3.936   4.366   6.738 -0.9018  0.2099 -0.1684
  262MOL0     H35354   5.287   5.184   5.470 -0.3758  1.8868  1.9458
  262MOL0     H35355   5.450   5.104   5.337 -2.4360 -0.6812 -0.3067
  262MOL0     H35356   5.840   5.006   5.314 -0.4224 -1.1520  0.3033
  262MOL0     H35357   6.030   5.023   5.169 -2.1968  1.5251 -0.0389
  262MOL0     H35358   6.074   4.737   4.820  0.3804  1.6832  0.3526
  262MOL0     H35359   6.116   4.624   4.955 -1.1464  1.2200  1.0907
  262MOL0     H35360   6.320   4.658   4.805  2.2497  1.5944 -0.1496
  262MOL0     H35361   6.349   4.779   4.932  1.5640  3.8536 -3.3870
  262MOL0     H35362   6.178   4.929   4.768  1.3910  0.5629  0.1530
  262MOL0     H35363   6.240   4.835   4.650 -0.1440  1.9096 -0.2108
  262MOL0     H35364   6.426   4.978   4.841 -5.0721  2.7400  0.7379
  262MOL0     H35365   6.463   4.885   4.695 -1.5362 -3.3341  2.6629
  262MOL0     H35366   6.330   5.275   4.577  3.1941  0.7734  0.2146
  262MOL0     H35367   5.928   4.626   5.015  4.9115 -0.9986  1.3119
  262MOL0     H35368   5.614   4.582   5.113 -1.0684  2.4853  3.0704
  262MOL0     H35369   5.757   4.493   5.093 -1.0185 -0.0762 -0.9152
  262MOL0     H35370   5.717   4.525   5.256  3.0812  1.0902  1.7734
  263MOL0     O35371   0.605   8.445   7.687 -0.1043  0.1361  0.1843
  263MOL0     C35372   0.569   8.373   7.593  0.4948  0.1400 -0.3190
  263MOL0     O35373   0.493   8.259   7.616  0.3788 -0.0863  0.1230
  263MOL0     C35374   0.423   8.242   7.734  0.5544  0.3902  0.1826
  263MOL0     C35375   0.341   8.337   7.786 -0.8394 -0.1870 -1.7724
  263MOL0     C35376   0.280   8.318   7.912  0.3406 -0.0298 -0.0078
  263MOL0     C35377   0.280   8.191   7.974 -0.2149 -0.1199  0.0801
  263MOL0     O35378   0.218   8.152   8.089  0.0011  0.2531  0.0603
  263MOL0     C35379   0.248   8.235   8.201 -0.7316 -0.7408 -1.2865
  263MOL0     C35380   0.212   8.162   8.337  0.5018  0.3798 -0.1594
  263MOL0     C35381   0.320   8.054   8.370 -0.1655  0.1050 -0.4555
  263MOL0     C35382   0.258   7.936   8.434 -1.0956 -0.2852 -0.2330
  263MOL0     C35383   0.364   7.837   8.486 -0.0088 -0.2747  0.0664
  263MOL0     C35384   0.419   7.746   8.372  0.4330 -0.3001  0.5483
  263MOL0     C35385   0.535   7.660   8.431 -0.5394 -0.0528 -0.0992
  263MOL0     C35386   0.559   7.548   8.323  1.0144  1.1305  0.4628
  263MOL0     N35387   0.670   7.461   8.367  0.0645  0.2198 -0.2392
  263MOL0     C35388   0.661   7.320   8.368  0.1729 -0.7926  0.9422
  263MOL0     C35389   0.784   7.281   8.413 -1.1206 -0.6935  0.6922
  263MOL0     C35390   0.831   7.141   8.423  0.4603 -0.8471 -0.1661
  263MOL0     C35391   0.719   7.040   8.477  0.4903 -1.5991  0.7842
  263MOL0     C35392   0.773   6.893   8.485 -0.6695  0.5007  0.3535
  263MOL0     C35393   0.668   6.806   8.558 -0.1618  0.5507  0.8386
  263MOL0     O35394   0.636   6.851   8.687  0.4964  1.0294 -0.5149
  263MOL0     C35395   0.527   6.786   8.747 -0.6549  0.6281  0.7752
  263MOL0     C35396   0.491   6.655   8.710  0.4522  0.7125  0.1683
  263MOL0     C35397   0.388   6.594   8.781  0.8656 -0.5842 -0.2642
  263MOL0     C35398   0.324   6.660   8.881  0.7317  0.8482  0.6134
  263MOL0     C35399   0.224   6.578   8.968 -0.2536 -0.4232 -0.3210
  263MOL0     O35400   0.211   6.441   8.950 -0.4800  0.0635  1.2812
  263MOL0     C35401   0.104   6.379   9.022  0.0179  0.6984  0.3093
  263MOL0     C35402   0.125   6.341   9.155  0.6247  0.2250  0.6370
  263MOL0     C35403   0.024   6.265   9.224  0.1725  0.2586 -0.3218
  263MOL0     C35404  -0.100   6.245   9.171  0.4541 -0.0276  0.4938
  263MOL0     O35405  -0.212   6.186   9.245  0.6933  0.2547  0.4066
  263MOL0     C35406  -0.174   6.060   9.318  0.0377 -0.4565  0.4129
  263MOL0     C35407  -0.288   6.022   9.419  0.2080  0.6179  0.2041
  263MOL0     C35408  -0.297   6.121   9.533 -0.0489  0.1881  0.5151
  263MOL0     C35409  -0.377   6.251   9.496 -0.2351 -0.0350  0.4986
  263MOL0     C35410  -0.427   6.346   9.603 -0.5094  0.1627  0.4641
  263MOL0     C35411  -0.320   6.369   9.707 -0.6327  0.3020 -0.3335
  263MOL0     C35412  -0.333   6.476   9.819  0.2595  0.1289 -0.9156
  263MOL0     C35413  -0.377   6.614   9.783 -0.6439 -0.0594  0.4665
  263MOL0    Cl35414  -0.439   6.683   9.931 -0.5705  0.5912 -0.4348
  263MOL0     C35415  -0.123   6.275   9.031  0.6842 -0.3174  0.3765
  263MOL0     C35416  -0.023   6.349   8.965 -0.1450  0.1122 -0.1231
  263MOL0     O35417   0.157   6.642   9.054  0.4855  0.8645 -0.5395
  263MOL0     C35418   0.350   6.798   8.912 -0.4880 -0.6158 -0.5595
  263MOL0     C35419   0.460   6.860   8.844  0.0822  0.4845  0.2210
  263MOL0     N35420   0.868   7.397   8.435 -0.3245  0.0567  0.4511
  263MOL0     N35421   0.791   7.506   8.398 -0.1804  0.1824 -1.2234
  263MOL0     C35422   0.364   8.098   7.922  0.6715 -0.2239  0.4065
  263MOL0     C35423   0.441   8.116   7.807  0.4440 -0.5073  0.5314
  263MOL0     C35424   0.600   8.421   7.457  0.4483 -0.3792 -0.1374
  263MOL0     C35425   0.654   8.545   7.439  0.3471 -0.2914  0.4465
  263MOL0     C35426   0.707   8.571   7.310 -0.0413 -0.4292 -0.3796
  263MOL0     C35427   0.702   8.480   7.206 -0.2335  0.2294  0.8229
  263MOL0     O35428   0.766   8.516   7.091 -0.0653 -0.1533 -0.3206
  263MOL0     C35429   0.679   8.599   6.998  0.0498 -0.6106 -0.8573
  263MOL0     C35430   0.541   8.537   6.952  0.4902  1.1554  0.3317
  263MOL0     C35431   0.569   8.407   6.881 -0.0909  0.1804  0.1941
  263MOL0     C35432   0.656   8.425   6.764  0.3464 -0.6409  0.3933
  263MOL0     C35433   0.669   8.302   6.687  0.3020  0.4386 -0.5563
  263MOL0     C35434   0.667   8.193   6.631 -0.0587  0.5385 -0.1301
  263MOL0     C35435   0.645   8.354   7.227  0.3255  0.3606  0.1961
  263MOL0     C35436   0.590   8.322   7.353 -0.1134 -0.4203 -0.7862
  263MOL0     C35437   0.533   8.190   7.355  0.3174 -0.2043 -0.4711
  263MOL0     H35438   0.325   8.435   7.743 -2.8765  0.3586  0.0568
  263MOL0     H35439   0.217   8.383   7.971  0.4702 -0.0792  0.1853
  263MOL0     H35440   0.356   8.249   8.203 -0.8077 -0.0899 -1.4044
  263MOL0     H35441   0.194   8.331   8.202 -0.3820 -0.5039  0.8940
  263MOL0     H35442   0.116   8.112   8.325  0.1763  1.1310 -0.7936
  263MOL0     H35443   0.206   8.234   8.420 -0.6562 -2.8794  2.8389
  263MOL0     H35444   0.385   8.117   8.432 -2.7567  0.3688  2.2031
  263MOL0     H35445   0.377   8.020   8.283 -0.8045  1.9321 -1.6359
  263MOL0     H35446   0.204   7.971   8.521 -3.1968 -1.8815 -0.8032
  263MOL0     H35447   0.185   7.890   8.366  1.3518 -2.2578 -1.7698
  263MOL0     H35448   0.450   7.887   8.531 -1.2489  1.9615  0.0881
  263MOL0     H35449   0.314   7.788   8.570 -2.5272  1.2003 -0.4688
  263MOL0     H35450   0.340   7.681   8.334  0.3254 -0.1241  0.4653
  263MOL0     H35451   0.456   7.808   8.290 -0.1337 -0.2088  0.3547
  263MOL0     H35452   0.505   7.610   8.524  1.8717 -3.5133 -0.9709
  263MOL0     H35453   0.618   7.726   8.454 -1.1142 -0.1564  2.5733
  263MOL0     H35454   0.463   7.497   8.313  1.6248  0.0239  0.1732
  263MOL0     H35455   0.572   7.602   8.229 -4.4985 -0.2343 -1.4538
  263MOL0     H35456   0.583   7.254   8.332  0.6124 -0.1097 -1.4346
  263MOL0     H35457   0.862   7.114   8.322 -0.6738 -0.3627 -0.6563
  263MOL0     H35458   0.913   7.136   8.495  0.8459  1.4393 -0.3723
  263MOL0     H35459   0.704   7.061   8.583 -1.0034 -0.2790  0.3422
  263MOL0     H35460   0.626   7.052   8.421 -0.6057 -1.1353  2.6142
  263MOL0     H35461   0.863   6.891   8.547 -1.0515  0.2546  0.9224
  263MOL0     H35462   0.800   6.852   8.388  1.2762 -0.4303  1.2314
  263MOL0     H35463   0.710   6.705   8.560 -1.7629 -0.3630 -2.7170
  263MOL0     H35464   0.574   6.802   8.502 -0.0488 -1.4621  0.7275
  263MOL0     H35465   0.551   6.602   8.637  0.3531  0.2754  0.4014
  263MOL0     H35466   0.374   6.489   8.757 -0.1878 -0.2834 -1.0286
  263MOL0     H35467   0.212   6.385   9.204  1.0680 -0.6330  0.6300
  263MOL0     H35468   0.039   6.250   9.331 -3.2984 -2.5213 -0.0295
  263MOL0     H35469  -0.183   5.973   9.252 -0.9980 -1.5007  1.8669
  263MOL0     H35470  -0.074   6.053   9.362 -1.5689  0.1456  4.5782
  263MOL0     H35471  -0.387   6.006   9.375  0.9061 -1.5363 -0.7243
  263MOL0     H35472  -0.253   5.926   9.458 -1.8074 -0.1737  0.2023
  263MOL0     H35473  -0.347   6.072   9.617  1.0975 -0.9486  0.5605
  263MOL0     H35474  -0.199   6.160   9.563  0.1027  0.6266 -0.4946
  263MOL0     H35475  -0.463   6.239   9.430  0.0271  1.2034 -0.0893
  263MOL0     H35476  -0.302   6.302   9.435  1.3199 -3.4664 -0.7573
  263MOL0     H35477  -0.518   6.308   9.651 -0.7181 -2.7681 -1.9450
  263MOL0     H35478  -0.458   6.441   9.557 -0.8254 -0.7693 -1.3415
  263MOL0     H35479  -0.305   6.275   9.762 -0.6125  1.8772  2.5232
  263MOL0     H35480  -0.225   6.396   9.660  0.3889  0.4324  1.7117
  263MOL0     H35481  -0.233   6.486   9.862 -1.1027 -0.9171  2.9278
  263MOL0     H35482  -0.402   6.437   9.895  0.9349  0.0092 -0.3570
  263MOL0     H35483  -0.289   6.667   9.745 -1.6630 -0.3564 -2.6029
  263MOL0     H35484  -0.456   6.612   9.708  0.0116  0.8503 -0.2661
  263MOL0     H35485  -0.215   6.251   8.979  0.6643 -0.0668  0.2952
  263MOL0     H35486  -0.039   6.371   8.860  2.1799  0.8229 -0.3989
  263MOL0     H35487   0.307   6.851   8.996 -0.1602  2.4265 -2.1590
  263MOL0     H35488   0.492   6.961   8.868  1.2715  0.1472  0.1236
  263MOL0     H35489   0.372   8.015   7.991  0.7129 -0.1988  0.4316
  263MOL0     H35490   0.512   8.049   7.760  0.8187  1.0419 -1.2348
  263MOL0     H35491   0.645   8.614   7.522 -1.8717 -0.5307  0.4727
  263MOL0     H35492   0.765   8.663   7.301 -1.5189  0.8579  2.0724
  263MOL0     H35493   0.736   8.634   6.912  1.5027  2.1925  1.0819
  263MOL0     H35494   0.650   8.694   7.044 -0.1951 -1.6297  1.2400
  263MOL0     H35495   0.482   8.601   6.885  1.6590 -0.9171 -2.9482
  263MOL0     H35496   0.483   8.518   7.043  2.1549 -2.8437  0.7630
  263MOL0     H35497   0.474   8.363   6.848 -0.6205  1.2689  0.2478
  263MOL0     H35498   0.609   8.330   6.948 -0.5808  0.2390  0.5520
  263MOL0     H35499   0.608   8.506   6.709 -0.1066  0.2472  2.0389
  263MOL0     H35500   0.755   8.457   6.798 -0.6432  3.0678  0.2114
  263MOL0     H35501   0.670   8.104   6.571 -0.8188 -0.3494  1.0964
  263MOL0     H35502   0.643   8.280   7.147 -2.0507 -0.3217  0.7927
  263MOL0     H35503   0.527   8.138   7.259  1.4752  0.8755 -1.1629
  263MOL0     H35504   0.598   8.145   7.431  0.6232  2.8650  1.2445
  263MOL0     H35505   0.434   8.195   7.400  0.2849  2.9366 -0.6741
  264MOL0     O35506   6.761   6.328   7.961  0.7820  0.4113 -1.3009
  264MOL0     C35507   6.715   6.263   7.866  0.0827 -0.0630 -0.5212
  264MOL0     O35508   6.697   6.124   7.873 -0.3907  0.9855  0.2794
  264MOL0     C35509   6.754   6.051   7.973  0.2978  0.6181 -0.4806
  264MOL0     C35510   6.884   6.011   7.976 -0.2752  0.9628  1.5166
  264MOL0     C35511   6.938   5.959   8.091 -0.4557  0.2151  0.0926
  264MOL0     C35512   6.859   5.929   8.201 -0.7365  0.6131 -0.0688
  264MOL0     O35513   6.914   5.855   8.301  0.4650  0.1097  0.2057
  264MOL0     C35514   6.940   5.944   8.406 -0.0208 -0.4139 -0.7634
  264MOL0     C35515   6.919   5.868   8.536  1.0061 -0.1087  0.7981
  264MOL0     C35516   6.932   5.963   8.662 -0.6256 -0.1896  1.0233
  264MOL0     C35517   6.893   5.879   8.783  1.5180  0.1471  0.0272
  264MOL0     C35518   6.854   5.956   8.909 -0.4782 -0.7862  0.2286
  264MOL0     C35519   6.981   5.996   8.986  0.2528  0.1631 -1.5851
  264MOL0     C35520   6.945   6.093   9.100  0.0363 -0.7779 -0.5319
  264MOL0     C35521   6.935   6.233   9.046 -0.8314 -1.1338  0.8202
  264MOL0     N35522   7.064   6.279   8.984  0.9457  0.2144 -0.2200
  264MOL0     C35523   7.180   6.306   9.062  0.9854  0.0790  0.1199
  264MOL0     C35524   7.274   6.331   8.968 -0.3230  0.5468  0.5748
  264MOL0     C35525   7.424   6.351   8.985  0.5147 -0.5447  0.0420
  264MOL0     C35526   7.460   6.382   9.130 -0.8305 -0.0141 -0.2569
  264MOL0     C35527   7.603   6.421   9.157  0.0153 -0.9724 -0.9262
  264MOL0     C35528   7.707   6.322   9.104 -0.2483 -0.4094 -0.4762
  264MOL0     O35529   7.671   6.186   9.157  0.6608 -0.8526  0.0499
  264MOL0     C35530   7.766   6.099   9.170 -0.8690  0.6246 -0.7676
  264MOL0     C35531   7.906   6.115   9.154  0.7081 -0.6987 -0.3166
  264MOL0     C35532   8.006   6.013   9.163 -0.0223 -0.1038  0.3899
  264MOL0     C35533   7.964   5.875   9.168 -0.2187  0.3805 -0.9361
  264MOL0     C35534   8.051   5.755   9.182 -0.6470 -1.1556 -0.7981
  264MOL0     O35535   8.012   5.622   9.158 -1.0046 -0.4691  0.5584
  264MOL0     C35536   8.097   5.529   9.213 -0.5159  0.1179  0.5786
  264MOL0     C35537   8.174   5.454   9.127 -0.0927  0.3089  0.3913
  264MOL0     C35538   8.267   5.360   9.180 -0.2422 -0.1241 -0.5143
  264MOL0     C35539   8.291   5.351   9.315 -0.5354  0.3174  0.1251
  264MOL0     O35540   8.395   5.268   9.363  0.1567  0.0252  0.1719
  264MOL0     C35541   8.485   5.315   9.466 -0.1333 -0.7205  1.0912
  264MOL0     C35542   8.632   5.306   9.420  0.1155  0.1402 -1.2023
  264MOL0     C35543   8.657   5.404   9.307 -0.1021  0.2857  0.4202
  264MOL0     C35544   8.652   5.312   9.180 -0.8946  0.8853 -0.2407
  264MOL0     C35545   8.631   5.377   9.042 -0.2353 -1.1889  0.9003
  264MOL0     C35546   8.727   5.493   8.999  0.2746  0.0843  0.1637
  264MOL0     C35547   8.669   5.561   8.872  0.0431 -0.0018  0.5619
  264MOL0     C35548   8.709   5.712   8.858  0.4978  0.0931 -0.0829
  264MOL0    Cl35549   8.653   5.811   9.001 -0.2969  0.1886 -0.5059
  264MOL0     C35550   8.221   5.443   9.399  0.0274 -0.1010  0.1074
  264MOL0     C35551   8.116   5.520   9.346  1.0602  0.2417  0.7517
  264MOL0     O35552   8.169   5.788   9.219  0.3694  0.7591  0.6123
  264MOL0     C35553   7.830   5.853   9.180  1.0483 -1.3267 -0.2679
  264MOL0     C35554   7.737   5.958   9.172 -0.2419 -0.8669 -0.3127
  264MOL0     N35555   7.213   6.338   8.842 -0.3552 -0.4320 -0.0390
  264MOL0     N35556   7.087   6.303   8.853 -0.1220  0.7648  0.4364
  264MOL0     C35557   6.723   5.939   8.189  0.8688  0.8391 -0.0801
  264MOL0     C35558   6.671   6.006   8.078 -0.1051  0.0373  0.3877
  264MOL0     C35559   6.676   6.339   7.744  0.2961 -0.9134 -0.2342
  264MOL0     C35560   6.709   6.477   7.737 -0.2498 -0.2202  0.4687
  264MOL0     C35561   6.665   6.554   7.627  0.6178  1.2793  0.1965
  264MOL0     C35562   6.595   6.497   7.522  0.2123  0.0356 -0.4220
  264MOL0     O35563   6.549   6.578   7.428 -0.1799  0.1594 -0.6636
  264MOL0     C35564   6.617   6.581   7.304 -0.8486  0.3051  0.8434
  264MOL0     C35565   6.589   6.701   7.230 -0.3888 -0.1399 -0.0362
  264MOL0     C35566   6.459   6.713   7.163 -0.3511 -0.2286 -0.7069
  264MOL0     C35567   6.450   6.818   7.055 -0.7819 -0.1861 -0.8001
  264MOL0     C35568   6.445   6.959   7.088 -0.2332  0.5735 -0.7631
  264MOL0     C35569   6.432   7.078   7.116  0.1452 -1.0542  0.7656
  264MOL0     C35570   6.562   6.364   7.531  0.1398  0.0192 -0.0773
  264MOL0     C35571   6.593   6.281   7.639  0.1302 -0.5381 -0.3829
  264MOL0     C35572   6.561   6.129   7.622  0.1370  0.6833 -0.1109
  264MOL0     H35573   6.941   6.027   7.885 -0.3793 -0.1077  1.2533
  264MOL0     H35574   7.045   5.940   8.089 -0.3521  0.7101  0.7217
  264MOL0     H35575   7.048   5.960   8.403 -0.0136  0.5111  1.6298
  264MOL0     H35576   6.889   6.041   8.404  1.5255  0.5205  1.2672
  264MOL0     H35577   6.996   5.791   8.534  0.5244 -0.7701 -4.1371
  264MOL0     H35578   6.814   5.839   8.544 -0.3508  3.4302 -1.6300
  264MOL0     H35579   6.859   6.044   8.656 -1.8731 -1.2734  1.0669
  264MOL0     H35580   7.028   6.012   8.674 -0.9636  0.2747  1.8843
  264MOL0     H35581   6.796   5.831   8.764  0.7265  1.3874  0.8027
  264MOL0     H35582   6.963   5.798   8.804  2.2767  0.3563 -1.6065
  264MOL0     H35583   6.786   6.039   8.885 -1.0662 -0.6151  2.2671
  264MOL0     H35584   6.796   5.889   8.974  0.5893  0.4272  2.5575
  264MOL0     H35585   7.016   5.903   9.032 -0.0867  0.8196  0.0788
  264MOL0     H35586   7.058   6.026   8.915  1.4384 -0.1927 -0.4774
  264MOL0     H35587   7.019   6.083   9.180 -0.4922  0.4609  0.1429
  264MOL0     H35588   6.851   6.064   9.147 -1.1313  5.0637  1.6506
  264MOL0     H35589   6.852   6.245   8.975 -1.8826 -0.8484  2.0578
  264MOL0     H35590   6.907   6.315   9.113  0.7524  1.4212 -1.4214
  264MOL0     H35591   7.178   6.290   9.169  2.4475 -0.0308  0.1523
  264MOL0     H35592   7.486   6.275   8.935 -0.1262  1.0341 -3.4983
  264MOL0     H35593   7.458   6.436   8.925 -1.4785  1.1206  1.1534
  264MOL0     H35594   7.389   6.452   9.173 -2.0456  0.0331 -2.2205
  264MOL0     H35595   7.445   6.290   9.188 -1.4000 -0.2212 -0.7231
  264MOL0     H35596   7.614   6.430   9.265 -0.1024  2.0794 -1.0753
  264MOL0     H35597   7.632   6.521   9.125  1.0073 -0.3552  1.6284
  264MOL0     H35598   7.810   6.351   9.129  0.5281 -3.6781  0.7062
  264MOL0     H35599   7.702   6.309   8.996  1.4175 -3.2786 -0.3305
  264MOL0     H35600   7.944   6.214   9.131  0.0166 -0.1652  0.7838
  264MOL0     H35601   8.112   6.034   9.157  0.2135 -1.4487 -3.6829
  264MOL0     H35602   8.168   5.463   9.019  1.7674 -3.7798 -0.2239
  264MOL0     H35603   8.325   5.300   9.111 -1.1410 -3.8335  1.6588
  264MOL0     H35604   8.480   5.421   9.493  1.1578 -1.1811  3.4693
  264MOL0     H35605   8.471   5.263   9.561  0.3177  2.2019  2.9134
  264MOL0     H35606   8.691   5.333   9.508 -2.2735 -3.3132  1.7744
  264MOL0     H35607   8.662   5.203   9.400 -0.1319 -0.1621 -0.0686
  264MOL0     H35608   8.577   5.478   9.309  1.4360  2.0566 -0.9401
  264MOL0     H35609   8.752   5.458   9.311  0.3440 -0.5362  1.9202
  264MOL0     H35610   8.565   5.246   9.190 -0.5811  0.5349  0.2028
  264MOL0     H35611   8.739   5.247   9.180 -1.7500 -0.5426  3.5166
  264MOL0     H35612   8.528   5.413   9.058  1.0010  1.5303  3.8492
  264MOL0     H35613   8.635   5.303   8.961  0.8180  0.3257 -0.4894
  264MOL0     H35614   8.734   5.561   9.085 -1.2106  1.8004 -0.9896
  264MOL0     H35615   8.829   5.457   8.985  0.4451 -0.9928  3.3874
  264MOL0     H35616   8.563   5.542   8.855  0.5792 -0.6021 -3.0169
  264MOL0     H35617   8.712   5.504   8.789 -0.8329 -2.2133  1.5513
  264MOL0     H35618   8.818   5.702   8.849  0.4249  0.6274 -2.1564
  264MOL0     H35619   8.680   5.742   8.757  0.6122 -3.4534 -1.3186
  264MOL0     H35620   8.255   5.448   9.502 -1.1593  1.2729  0.4521
  264MOL0     H35621   8.066   5.585   9.417 -1.4938  0.4375 -1.1065
  264MOL0     H35622   7.796   5.749   9.179  3.0973 -2.0573 -1.7867
  264MOL0     H35623   7.633   5.934   9.194 -0.0364  0.7039  2.9276
  264MOL0     H35624   6.657   5.891   8.261 -0.2322 -0.0985 -1.6296
  264MOL0     H35625   6.564   6.020   8.063  0.0327  2.1711  0.9983
  264MOL0     H35626   6.759   6.529   7.819 -2.4322  1.1133  1.0520
  264MOL0     H35627   6.671   6.662   7.629 -0.1621  1.3467  2.8646
  264MOL0     H35628   6.611   6.484   7.253 -1.3287  1.1633 -0.8276
  264MOL0     H35629   6.724   6.600   7.315 -0.7420  0.8074 -0.7810
  264MOL0     H35630   6.664   6.707   7.151  2.7748 -0.0962  2.7397
  264MOL0     H35631   6.604   6.788   7.295 -0.2704 -0.6515  0.6364
  264MOL0     H35632   6.387   6.732   7.243  0.7571 -0.0561  0.2675
  264MOL0     H35633   6.444   6.617   7.111 -0.1718 -0.7343  0.1548
  264MOL0     H35634   6.524   6.791   6.980  0.3456 -2.1880  0.9253
  264MOL0     H35635   6.352   6.797   7.010 -1.8001 -3.2149  2.3371
  264MOL0     H35636   6.418   7.179   7.148 -3.2146 -0.9062 -0.8292
  264MOL0     H35637   6.496   6.330   7.452 -1.2372 -0.7642  1.3527
  264MOL0     H35638   6.510   6.079   7.704 -0.8493 -0.1054 -1.1807
  264MOL0     H35639   6.502   6.109   7.533  0.7872 -2.5673  0.0730
  264MOL0     H35640   6.660   6.081   7.622 -0.6822 -1.1256  1.3461
  265MOL0     O35641  10.354   6.583   5.709  0.8345 -0.5893  0.1788
  265MOL0     C35642  10.252   6.650   5.751 -0.0299  0.6460 -0.3207
  265MOL0     O35643  10.261   6.764   5.819  0.3126 -0.4684 -0.0991
  265MOL0     C35644  10.391   6.815   5.836  0.4174 -0.3686 -0.3390
  265MOL0     C35645  10.495   6.747   5.892 -0.7606 -0.0634 -0.2617
  265MOL0     C35646  10.623   6.809   5.925  0.9846  0.6698 -0.7222
  265MOL0     C35647  10.635   6.945   5.912  0.1838 -0.5042  0.1525
  265MOL0     O35648  10.751   6.997   5.949 -0.1551 -0.3827  0.7766
  265MOL0     C35649  10.830   7.084   5.862 -0.0946 -0.0931  0.4185
  265MOL0     C35650  10.977   7.077   5.910  0.5111  1.0931  0.4426
  265MOL0     C35651  11.006   7.173   6.030 -0.6649 -0.3218 -0.0882
  265MOL0     C35652  10.926   7.136   6.153  0.6574  0.5715  0.0448
  265MOL0     C35653  10.939   7.236   6.260  0.0289  0.0599 -0.4918
  265MOL0     C35654  10.853   7.205   6.390  0.0920 -0.4235  0.1569
  265MOL0     C35655  10.722   7.291   6.395  1.6820  0.8398  0.4834
  265MOL0     C35656  10.648   7.292   6.524  0.7733  0.9741  0.4053
  265MOL0     N35657  10.605   7.161   6.582 -0.4617 -0.9643  0.6961
  265MOL0     C35658  10.493   7.090   6.540  0.5203  0.5800  0.2016
  265MOL0     C35659  10.487   6.987   6.634 -0.4797  0.1871 -0.0979
  265MOL0     C35660  10.383   6.881   6.636 -0.1365 -0.4286  1.1215
  265MOL0     C35661  10.251   6.928   6.699  0.5484  0.3342 -0.3235
  265MOL0     C35662  10.155   7.008   6.603 -0.5994 -0.6334  0.0135
  265MOL0     C35663  10.024   7.032   6.674  0.8761 -0.9324 -0.3817
  265MOL0     O35664  10.046   7.082   6.807  0.5719  0.7647  0.2749
  265MOL0     C35665   9.969   7.028   6.914  0.5597 -0.3657  0.3013
  265MOL0     C35666  10.015   6.964   7.027 -0.3545  0.6062 -0.0157
  265MOL0     C35667   9.935   6.935   7.133  0.3297 -0.4929  0.1101
  265MOL0     C35668   9.794   6.957   7.127 -0.7287  0.0698 -0.0705
  265MOL0     C35669   9.703   6.903   7.234 -0.0367  0.1756  0.3853
  265MOL0     O35670   9.764   6.838   7.344  0.3013  0.5476 -0.5672
  265MOL0     C35671   9.690   6.821   7.454 -0.4087  0.4686  0.4885
  265MOL0     C35672   9.732   6.714   7.532 -1.2047 -1.2173 -0.1817
  265MOL0     C35673   9.689   6.688   7.662  0.6100  0.2565 -0.7990
  265MOL0     C35674   9.584   6.767   7.723 -0.3420  0.1538  0.2724
  265MOL0     O35675   9.542   6.749   7.844  0.6706  0.9834 -0.3085
  265MOL0     C35676   9.597   6.628   7.912 -0.0642 -0.0827  0.3458
  265MOL0     C35677   9.537   6.590   8.049  0.1737 -1.2372 -1.2811
  265MOL0     C35678   9.407   6.500   8.046 -0.5406  0.6534 -0.2861
  265MOL0     C35679   9.399   6.446   8.186  1.2771  0.0652 -1.0107
  265MOL0     C35680   9.307   6.525   8.282  0.6458  0.8750 -0.4724
  265MOL0     C35681   9.257   6.442   8.398 -0.0093  0.1587 -0.1963
  265MOL0     C35682   9.160   6.332   8.346  0.4802  0.9717 -0.3059
  265MOL0     C35683   9.100   6.240   8.453  0.5205 -0.8917 -0.5085
  265MOL0    Cl35684   8.988   6.340   8.544 -0.0673  0.2367  0.2692
  265MOL0     C35685   9.537   6.871   7.636  0.4896 -0.5726 -0.8795
  265MOL0     C35686   9.580   6.899   7.510 -0.2848 -0.2994  0.5097
  265MOL0     O35687   9.583   6.930   7.234 -0.0309 -1.1211  0.0996
  265MOL0     C35688   9.751   7.027   7.016 -0.8601  0.4742 -0.3606
  265MOL0     C35689   9.835   7.055   6.906  0.1052 -0.4860  0.0964
  265MOL0     N35690  10.583   7.014   6.728 -0.4929 -0.0266 -0.1930
  265MOL0     N35691  10.656   7.109   6.695 -0.0784  0.9807  0.2055
  265MOL0     C35692  10.522   7.017   5.874  0.3101 -0.5472 -0.1760
  265MOL0     C35693  10.406   6.948   5.843  0.9828 -1.0617  0.1993
  265MOL0     C35694  10.115   6.605   5.748  0.2965 -0.2627 -0.2837
  265MOL0     C35695  10.076   6.481   5.801 -0.1111 -0.6875 -1.2153
  265MOL0     C35696   9.938   6.447   5.813 -0.2708  0.1104 -0.9043
  265MOL0     C35697   9.843   6.523   5.751 -0.0560 -0.3212 -0.1768
  265MOL0     O35698   9.711   6.495   5.751  0.5680 -0.1713  0.6279
  265MOL0     C35699   9.660   6.393   5.839  0.5696 -0.3799  0.1504
  265MOL0     C35700   9.519   6.412   5.863  0.1225 -0.3158 -0.2672
  265MOL0     C35701   9.445   6.295   5.923 -0.2101  0.1775 -0.1602
  265MOL0     C35702   9.306   6.311   5.906  0.3698 -0.4060  0.0505
  265MOL0     C35703   9.257   6.426   5.991  0.4565  1.0825  0.0546
  265MOL0     C35704   9.208   6.511   6.049  0.5289  0.3533 -0.1563
  265MOL0     C35705   9.880   6.637   5.684  1.2211 -0.9923 -0.7443
  265MOL0     C35706  10.010   6.683   5.684 -0.9995 -0.3456 -0.4183
  265MOL0     C35707  10.035   6.812   5.613  0.3910  0.4598  0.8912
  265MOL0     H35708  10.488   6.639   5.907  0.1354  0.0657  1.2554
  265MOL0     H35709  10.701   6.749   5.971 -1.3953  0.0859  2.9922
  265MOL0     H35710  10.828   7.032   5.766  1.4693 -0.8619  0.7488
  265MOL0     H35711  10.792   7.185   5.852 -0.2593  0.1523  2.8141
  265MOL0     H35712  11.046   7.123   5.838 -2.4858  2.8161 -1.5754
  265MOL0     H35713  10.997   6.974   5.940  0.2966  0.6077 -1.0279
  265MOL0     H35714  10.989   7.277   6.002  0.0638  0.1998  1.3431
  265MOL0     H35715  11.113   7.162   6.051 -0.7617 -0.7417  0.2066
  265MOL0     H35716  10.818   7.137   6.133  0.6039  2.8365  0.1531
  265MOL0     H35717  10.948   7.038   6.197  1.0831  1.4297  1.8525
  265MOL0     H35718  11.047   7.243   6.279  0.5934 -3.0752 -1.8017
  265MOL0     H35719  10.903   7.334   6.230  2.5964  0.8966 -1.0625
  265MOL0     H35720  10.837   7.097   6.391  3.9765 -1.1727 -0.1417
  265MOL0     H35721  10.919   7.217   6.476  2.7765  0.6303 -1.8808
  265MOL0     H35722  10.656   7.267   6.311  1.1160 -1.4384  1.5002
  265MOL0     H35723  10.752   7.396   6.398  0.0514  1.3039  1.7423
  265MOL0     H35724  10.719   7.349   6.584  1.5167  1.3388 -0.7852
  265MOL0     H35725  10.555   7.348   6.525  0.5679  0.8989  4.7991
  265MOL0     H35726  10.429   7.106   6.454 -0.7909  1.4719  1.3081
  265MOL0     H35727  10.355   6.868   6.531 -0.1244  3.0921  0.5765
  265MOL0     H35728  10.409   6.776   6.652  1.8239 -0.0817  0.4048
  265MOL0     H35729  10.194   6.838   6.724  3.3099 -1.3098  0.4691
  265MOL0     H35730  10.285   6.986   6.785  2.3180  1.7338 -1.8586
  265MOL0     H35731  10.128   6.944   6.518  0.3264  0.6906 -1.3241
  265MOL0     H35732  10.203   7.097   6.562  0.8291 -2.7024 -3.1933
  265MOL0     H35733   9.964   6.942   6.688 -3.2257  1.9441  3.5888
  265MOL0     H35734   9.966   7.101   6.611  2.6101 -0.4610 -1.5332
  265MOL0     H35735  10.120   6.947   7.050 -0.3336  1.9991  1.0625
  265MOL0     H35736   9.976   6.894   7.224 -0.3890 -0.6085  0.3899
  265MOL0     H35737   9.815   6.659   7.490  2.5334  3.5105  0.0997
  265MOL0     H35738   9.747   6.614   7.716  0.3888  0.7561  0.1445
  265MOL0     H35739   9.580   6.538   7.852  2.5524 -1.4274  1.4738
  265MOL0     H35740   9.706   6.635   7.925  0.1120 -1.3496 -0.3590
  265MOL0     H35741   9.615   6.537   8.104  0.4091 -1.8907 -2.2188
  265MOL0     H35742   9.529   6.686   8.101  4.8840  0.4014 -3.0266
  265MOL0     H35743   9.315   6.554   8.022 -0.4526  0.8089 -0.2785
  265MOL0     H35744   9.438   6.417   7.982  0.4898 -1.7453  3.0316
  265MOL0     H35745   9.492   6.425   8.239 -0.1637 -1.2156  1.1544
  265MOL0     H35746   9.352   6.348   8.175  2.2482 -0.4925 -0.2494
  265MOL0     H35747   9.216   6.555   8.230 -0.4481  1.7233  1.7903
  265MOL0     H35748   9.355   6.614   8.324  0.8134  0.0801  1.0960
  265MOL0     H35749   9.335   6.398   8.460  1.4667 -0.2624 -2.2450
  265MOL0     H35750   9.208   6.518   8.460 -1.2202 -0.9153  0.1972
  265MOL0     H35751   9.206   6.272   8.267 -0.9361  2.1528 -2.1291
  265MOL0     H35752   9.073   6.376   8.296 -0.3593 -1.4171 -1.0950
  265MOL0     H35753   9.036   6.160   8.417 -2.9214  0.1747  2.5588
  265MOL0     H35754   9.183   6.187   8.500 -0.8719 -2.9588 -0.2374
  265MOL0     H35755   9.453   6.933   7.665  0.0598 -0.0774 -3.0546
  265MOL0     H35756   9.543   6.985   7.456  1.0109 -1.4976 -2.5249
  265MOL0     H35757   9.647   7.044   6.990 -1.2414 -3.4328 -2.2486
  265MOL0     H35758   9.798   7.113   6.823 -1.3602  2.2185  2.4519
  265MOL0     H35759  10.527   7.123   5.896  1.0920 -0.9035  1.5370
  265MOL0     H35760  10.317   7.010   5.837 -0.7776 -3.2907  1.7956
  265MOL0     H35761  10.153   6.421   5.848  1.0979  0.2530 -1.9236
  265MOL0     H35762   9.910   6.354   5.861  0.3243  0.1886 -0.3995
  265MOL0     H35763   9.716   6.364   5.928 -3.5127 -1.4979  2.6559
  265MOL0     H35764   9.666   6.306   5.773 -0.9510  0.3985 -1.0722
  265MOL0     H35765   9.458   6.448   5.779 -0.2333 -3.1380 -1.3159
  265MOL0     H35766   9.518   6.491   5.939 -2.8353 -0.6730  0.1807
  265MOL0     H35767   9.472   6.278   6.028 -0.7436 -3.3298 -0.4758
  265MOL0     H35768   9.482   6.208   5.869  1.8848  1.2345 -0.5019
  265MOL0     H35769   9.281   6.331   5.802 -0.4067  2.9153  0.7762
  265MOL0     H35770   9.259   6.216   5.933  1.0242 -1.7028 -2.9738
  265MOL0     H35771   9.160   6.582   6.113  0.8054  0.3088  0.1034
  265MOL0     H35772   9.802   6.700   5.641  4.4081  0.8866 -4.4674
  265MOL0     H35773  10.113   6.797   5.538 -2.7939  2.0513 -3.1367
  265MOL0     H35774   9.947   6.843   5.555  1.1061 -0.6092 -0.8482
  265MOL0     H35775  10.055   6.885   5.691  0.5594 -1.3414  2.6265
  266MOL0     O35776   5.166   2.990   7.046 -0.3102 -0.3502 -0.1589
  266MOL0     C35777   5.116   2.912   6.969 -0.8799 -0.8233  0.3319
  266MOL0     O35778   5.126   2.774   6.977  0.7309 -0.5789  0.9810
  266MOL0     C35779   5.196   2.710   7.068  0.4877  0.3167 -0.7875
  266MOL0     C35780   5.324   2.739   7.113 -0.4062 -0.0443 -0.9052
  266MOL0     C35781   5.381   2.645   7.203 -0.3662 -0.2284 -0.1747
  266MOL0     C35782   5.321   2.532   7.255 -0.1464  1.2730  0.1420
  266MOL0     O35783   5.397   2.458   7.339 -0.0376 -0.3214 -0.0915
  266MOL0     C35784   5.398   2.316   7.321  1.4535 -0.0289  0.5296
  266MOL0     C35785   5.428   2.261   7.185  0.0290 -0.6722  0.0180
  266MOL0     C35786   5.507   2.127   7.202 -0.4363 -0.3133  0.4535
  266MOL0     C35787   5.424   1.995   7.229 -0.0003 -0.8245 -0.3303
  266MOL0     C35788   5.386   1.921   7.106 -0.2469  0.1940 -0.0877
  266MOL0     C35789   5.476   1.826   7.039  0.2797  0.6150 -0.5071
  266MOL0     C35790   5.506   1.694   7.106 -0.0556  0.3663 -0.2521
  266MOL0     C35791   5.579   1.610   6.993 -0.1388 -0.7923 -1.2458
  266MOL0     N35792   5.483   1.560   6.891 -0.4461  0.1112  0.6447
  266MOL0     C35793   5.493   1.596   6.759  0.1330  0.1491  0.5960
  266MOL0     C35794   5.405   1.522   6.696 -0.4972  0.7512  0.8338
  266MOL0     C35795   5.384   1.508   6.545 -0.0992 -0.2230 -0.1339
  266MOL0     C35796   5.455   1.617   6.479  0.1045 -0.4191  0.8216
  266MOL0     C35797   5.410   1.626   6.337  0.3056 -0.1721  0.6689
  266MOL0     C35798   5.457   1.519   6.240 -0.1527 -0.5924 -0.2452
  266MOL0     O35799   5.419   1.554   6.108 -0.2259 -0.1653 -0.2333
  266MOL0     C35800   5.485   1.660   6.058  0.4295  0.1364  0.2668
  266MOL0     C35801   5.443   1.709   5.931 -0.6065  0.6360  0.2190
  266MOL0     C35802   5.501   1.819   5.863 -0.5581 -0.1722 -0.5208
  266MOL0     C35803   5.605   1.890   5.921 -0.2457  1.0910  0.1899
  266MOL0     C35804   5.687   1.984   5.835 -0.9290 -0.2010  0.0464
  266MOL0     O35805   5.668   1.971   5.704 -0.5334 -0.3022 -0.0534
  266MOL0     C35806   5.726   2.069   5.626  0.4127  0.2616 -0.0125
  266MOL0     C35807   5.644   2.152   5.552  0.2302  0.0939 -0.6626
  266MOL0     C35808   5.699   2.256   5.475 -0.0614 -0.2584 -0.3769
  266MOL0     C35809   5.833   2.276   5.461  0.3826  0.6381  0.7393
  266MOL0     O35810   5.894   2.371   5.391  0.6242  0.5055 -0.1706
  266MOL0     C35811   5.822   2.499   5.360 -0.1351 -0.1359 -0.0166
  266MOL0     C35812   5.769   2.478   5.220  1.2177  0.7187  1.2016
  266MOL0     C35813   5.668   2.586   5.185  0.0951  0.5984  0.0244
  266MOL0     C35814   5.597   2.569   5.051 -0.2019 -0.1663 -0.1746
  266MOL0     C35815   5.485   2.664   5.040  0.0377 -0.1651  0.4791
  266MOL0     C35816   5.355   2.603   5.101 -0.1036  0.3848  0.5033
  266MOL0     C35817   5.252   2.706   5.130  0.2390 -0.1835 -0.5257
  266MOL0     C35818   5.196   2.782   5.009 -0.2537  0.3348 -0.0925
  266MOL0    Cl35819   5.098   2.928   5.063  0.1901  0.3728 -0.5991
  266MOL0     C35820   5.912   2.185   5.524 -0.6590  0.5005 -0.2196
  266MOL0     C35821   5.862   2.085   5.617 -0.2029  0.6329  0.4641
  266MOL0     O35822   5.782   2.045   5.893 -0.1182  0.5871 -0.2866
  266MOL0     C35823   5.646   1.842   6.049  0.8816 -0.2456  0.3791
  266MOL0     C35824   5.591   1.731   6.112 -0.5212 -0.8360 -0.3162
  266MOL0     N35825   5.327   1.449   6.786  0.1947 -0.1974  0.7130
  266MOL0     N35826   5.381   1.470   6.901 -0.7667 -0.0026 -0.5924
  266MOL0     C35827   5.196   2.508   7.199  0.2149  0.4348  0.3125
  266MOL0     C35828   5.129   2.589   7.113 -0.1435  0.2351  0.0962
  266MOL0     C35829   5.046   2.967   6.845  0.8044 -0.2884  0.7547
  266MOL0     C35830   4.911   3.005   6.862  0.5024 -0.9928  0.5993
  266MOL0     C35831   4.832   3.057   6.756 -0.2461  0.0081 -0.3970
  266MOL0     C35832   4.888   3.071   6.627 -0.1011  0.3567  0.6366
  266MOL0     O35833   4.816   3.111   6.515 -0.5304 -0.6827 -0.1598
  266MOL0     C35834   4.836   3.032   6.392 -0.5427 -0.0668 -0.6528
  266MOL0     C35835   4.941   3.093   6.303  0.3002 -0.3538 -0.2023
  266MOL0     C35836   4.912   3.091   6.146  0.5945 -0.0587 -0.9405
  266MOL0     C35837   4.844   3.212   6.094 -0.4348 -0.7706  0.1746
  266MOL0     C35838   4.928   3.332   6.091 -0.1577 -0.3687 -0.3231
  266MOL0     C35839   5.009   3.415   6.093 -0.0176  0.0984 -0.5246
  266MOL0     C35840   5.019   3.026   6.613  0.0859  1.4470 -0.4057
  266MOL0     C35841   5.101   2.977   6.716  0.1440  0.7765  0.1890
  266MOL0     C35842   5.244   2.944   6.699 -1.1989 -0.6257 -0.1734
  266MOL0     H35843   5.388   2.820   7.078 -0.2364 -0.1588 -0.8600
  266MOL0     H35844   5.485   2.659   7.230 -1.0722  0.3886  2.4648
  266MOL0     H35845   5.474   2.296   7.397 -0.2688 -0.1087  2.3008
  266MOL0     H35846   5.306   2.274   7.363  1.6043  0.0258  0.9184
  266MOL0     H35847   5.481   2.337   7.127 -1.6346  1.0577  0.6620
  266MOL0     H35848   5.335   2.250   7.130  0.6071  2.3024 -1.8017
  266MOL0     H35849   5.571   2.147   7.289  0.7984  2.8371 -1.0043
  266MOL0     H35850   5.559   2.119   7.106 -0.3920  2.0832  0.2105
  266MOL0     H35851   5.481   1.932   7.297 -1.3329  0.8122  2.5048
  266MOL0     H35852   5.336   2.028   7.284  0.4837 -0.5267  0.2683
  266MOL0     H35853   5.295   1.869   7.137 -1.8895  3.8667  1.8812
  266MOL0     H35854   5.379   1.989   7.020  0.9450 -0.9914 -1.1787
  266MOL0     H35855   5.427   1.814   6.942 -1.3802  0.8270  0.2730
  266MOL0     H35856   5.571   1.876   7.014  0.7254 -0.0528 -0.1785
  266MOL0     H35857   5.424   1.633   7.143 -0.4999 -0.2600 -2.1461
  266MOL0     H35858   5.569   1.723   7.191 -1.8972 -0.0322  1.3081
  266MOL0     H35859   5.661   1.672   6.955  0.8302 -0.6457  0.9251
  266MOL0     H35860   5.612   1.520   7.047 -0.2772  1.7073  3.4618
  266MOL0     H35861   5.561   1.673   6.723  0.0099  0.3870  0.8638
  266MOL0     H35862   5.420   1.410   6.513  2.6711  0.6554  0.0078
  266MOL0     H35863   5.277   1.511   6.526 -0.2093 -0.6271  0.4261
  266MOL0     H35864   5.432   1.706   6.538  3.4689 -0.9032  3.1791
  266MOL0     H35865   5.562   1.594   6.482 -0.3133 -4.2999 -3.3517
  266MOL0     H35866   5.427   1.728   6.302 -0.2647  0.9672  3.3891
  266MOL0     H35867   5.302   1.606   6.337 -0.4457  3.1035 -1.6360
  266MOL0     H35868   5.409   1.433   6.288 -0.2563  0.8113  2.3387
  266MOL0     H35869   5.565   1.505   6.249 -0.4196 -2.9658 -0.0075
  266MOL0     H35870   5.371   1.643   5.883  0.5714  0.3692 -1.2215
  266MOL0     H35871   5.458   1.834   5.765 -2.1482  3.4838  0.5754
  266MOL0     H35872   5.537   2.143   5.566 -0.2487  2.7099 -1.9346
  266MOL0     H35873   5.635   2.322   5.418 -1.5164 -2.2349 -1.1197
  266MOL0     H35874   5.737   2.514   5.428 -0.8033 -2.3245 -0.2871
  266MOL0     H35875   5.891   2.583   5.370 -0.0026 -0.0171 -1.6182
  266MOL0     H35876   5.848   2.467   5.145 -0.5913  1.9798 -1.0531
  266MOL0     H35877   5.711   2.386   5.209 -1.1633  2.1816  0.6306
  266MOL0     H35878   5.596   2.580   5.267 -1.0729 -0.2804 -1.0227
  266MOL0     H35879   5.726   2.678   5.196  1.0401  0.0731 -0.3462
  266MOL0     H35880   5.570   2.466   5.029  2.6821 -0.6463 -2.0020
  266MOL0     H35881   5.667   2.597   4.971 -0.2518  1.1298  0.2130
  266MOL0     H35882   5.471   2.693   4.935 -0.0379 -0.2593  0.4631
  266MOL0     H35883   5.509   2.752   5.100 -1.2586 -1.2894  2.7906
  266MOL0     H35884   5.315   2.525   5.034  1.7380 -0.8889  0.7988
  266MOL0     H35885   5.380   2.550   5.193 -0.9453  0.9996  1.1017
  266MOL0     H35886   5.301   2.772   5.202  1.3953 -1.4237 -0.1150
  266MOL0     H35887   5.163   2.661   5.175  0.9518  0.1845  1.3332
  266MOL0     H35888   5.282   2.811   4.948  0.3356  1.0920  1.0766
  266MOL0     H35889   5.117   2.724   4.960  1.7665 -0.6426 -2.4389
  266MOL0     H35890   6.020   2.193   5.534 -0.7115 -0.9895  2.8676
  266MOL0     H35891   5.938   2.027   5.670  0.0894 -0.0228 -0.6358
  266MOL0     H35892   5.742   1.881   6.082  1.2681 -1.6633  0.9682
  266MOL0     H35893   5.629   1.709   6.211  1.1294  1.2916 -0.3878
  266MOL0     H35894   5.154   2.411   7.223 -1.0148  1.2041  1.4385
  266MOL0     H35895   5.033   2.564   7.068  0.0935 -0.5569  0.0198
  266MOL0     H35896   4.852   2.995   6.952 -4.0099  3.9552 -1.2677
  266MOL0     H35897   4.726   3.067   6.776 -0.2375 -0.2758 -0.2200
  266MOL0     H35898   4.752   3.021   6.323  0.7084  0.0519 -2.2371
  266MOL0     H35899   4.867   2.930   6.413 -0.4399 -0.8122 -4.0019
  266MOL0     H35900   5.033   3.036   6.317  0.7082  0.2711 -0.2982
  266MOL0     H35901   4.961   3.192   6.344  3.7528 -1.4634  1.2083
  266MOL0     H35902   4.848   3.008   6.114  1.4994 -0.9371 -0.5408
  266MOL0     H35903   5.002   3.082   6.085  1.0639  0.6846 -0.3786
  266MOL0     H35904   4.810   3.190   5.992 -2.8280  0.1264  0.7135
  266MOL0     H35905   4.752   3.218   6.152 -1.2620 -2.0828 -0.9409
  266MOL0     H35906   5.080   3.491   6.066  1.3188 -2.0677 -3.6599
  266MOL0     H35907   5.082   3.025   6.525  0.6647 -0.0765 -0.0015
  266MOL0     H35908   5.273   2.954   6.594  3.6534  3.8128  1.1886
  266MOL0     H35909   5.302   3.018   6.755 -3.4183  0.5262  0.7365
  266MOL0     H35910   5.272   2.841   6.722  1.1643  0.0039 -0.0051
  267MOL0     O35911   9.600   1.435  10.728  0.3741 -0.0166  1.3025
  267MOL0     C35912   9.661   1.353  10.661 -0.1549  0.8917  0.9184
  267MOL0     O35913   9.780   1.303  10.700  0.3740 -0.4483  0.0321
  267MOL0     C35914   9.792   1.292  10.828  0.2296  0.1270  0.3475
  267MOL0     C35915   9.753   1.175  10.893  0.1947  0.1087  0.1616
  267MOL0     C35916   9.758   1.173  11.035  0.2515 -0.5230  0.1245
  267MOL0     C35917   9.806   1.279  11.114  0.3594  0.6218 -0.4213
  267MOL0     O35918   9.812   1.273  11.244  0.0268  0.0266  0.1748
  267MOL0     C35919   9.687   1.309  11.295 -0.8981 -0.2898 -0.4999
  267MOL0     C35920   9.702   1.365  11.432  0.7550 -0.4145 -1.0668
  267MOL0     C35921   9.753   1.516  11.434 -0.3066  0.3201  0.9262
  267MOL0     C35922   9.767   1.572  11.563 -0.3841 -0.9999 -0.0047
  267MOL0     C35923   9.896   1.514  11.618 -0.5447 -0.5381 -0.5197
  267MOL0     C35924   9.881   1.506  11.773 -0.7948 -0.6286 -0.3743
  267MOL0     C35925   9.987   1.414  11.828 -0.0852  0.1996 -0.4429
  267MOL0     C35926   9.998   1.413  11.985  0.0244  0.5598  0.7285
  267MOL0     N35927  10.098   1.500  12.040 -0.6946  0.0430  0.6772
  267MOL0     C35928  10.083   1.632  12.047  0.5737  0.3056  0.0233
  267MOL0     C35929  10.165   1.676  12.147  0.2729  0.5537  0.6591
  267MOL0     C35930  10.187   1.812  12.206 -0.8363  0.0930  0.6121
  267MOL0     C35931  10.229   1.915  12.090 -1.1758  0.6846 -0.8786
  267MOL0     C35932  10.306   2.036  12.126  0.1484  0.1046 -0.1444
  267MOL0     C35933  10.248   2.147  12.221 -0.6791 -0.4640  0.5650
  267MOL0     O35934  10.270   2.121  12.358 -0.0073  0.1255  0.6358
  267MOL0     C35935  10.392   2.155  12.399  0.2246  0.3108  0.2157
  267MOL0     C35936  10.425   2.104  12.530 -0.2496  0.5462 -0.2492
  267MOL0     C35937  10.540   2.135  12.610 -0.9964  0.3182 -1.0179
  267MOL0     C35938  10.626   2.233  12.555  1.0526 -1.7584  0.5468
  267MOL0     C35939  10.734   2.296  12.640  0.6923 -0.2659  0.4977
  267MOL0     O35940  10.737   2.239  12.765  0.6409 -0.7242 -0.5648
  267MOL0     C35941  10.831   2.280  12.855  0.1361  0.1697  0.2855
  267MOL0     C35942  10.862   2.186  12.945  1.3284  0.6989 -0.0688
  267MOL0     C35943  10.949   2.203  13.051 -0.3677  0.2159 -1.5625
  267MOL0     C35944  10.995   2.337  13.070 -0.5008  0.3043 -0.9221
  267MOL0     O35945  11.070   2.348  13.184  0.4553  0.9013  0.9351
  267MOL0     C35946  11.153   2.464  13.198  0.4481 -0.5643 -0.6421
  267MOL0     C35947  11.075   2.578  13.269  0.0860 -0.1138  0.1227
  267MOL0     C35948  11.004   2.536  13.400  0.1028 -1.0431  0.3243
  267MOL0     C35949  10.902   2.648  13.438 -0.3200 -0.5912 -0.1638
  267MOL0     C35950  10.852   2.613  13.580 -0.5405 -0.0090 -0.5560
  267MOL0     C35951  10.730   2.713  13.605 -0.1307 -0.0435 -0.1481
  267MOL0     C35952  10.719   2.747  13.756 -0.0037  1.5336  0.6348
  267MOL0     C35953  10.742   2.895  13.799 -0.0854  0.3746 -0.2218
  267MOL0    Cl35954  10.571   2.971  13.794  0.0399  0.1512 -0.0169
  267MOL0     C35955  10.964   2.439  12.981 -0.0047 -0.3446  0.1093
  267MOL0     C35956  10.877   2.415  12.877 -0.0527  0.6136  0.5933
  267MOL0     O35957  10.819   2.378  12.595  0.0653  0.7906  0.9955
  267MOL0     C35958  10.606   2.276  12.422 -0.6821 -1.0420  0.7456
  267MOL0     C35959  10.494   2.239  12.338 -0.7364  0.6176  0.1958
  267MOL0     N35960  10.237   1.566  12.198  0.4488 -0.0523 -0.9271
  267MOL0     N35961  10.197   1.464  12.137 -0.2082 -0.0201 -0.4966
  267MOL0     C35962   9.856   1.388  11.039 -0.1908 -0.3617  0.0934
  267MOL0     C35963   9.849   1.396  10.901 -0.1879 -0.6420 -1.1295
  267MOL0     C35964   9.609   1.342  10.527  0.1549 -0.3868  0.8452
  267MOL0     C35965   9.554   1.461  10.479 -0.2448 -0.1709 -0.3908
  267MOL0     C35966   9.522   1.468  10.336  0.0921  0.5533  0.0289
  267MOL0     C35967   9.543   1.353  10.259 -0.0606 -0.0784 -0.0045
  267MOL0     O35968   9.514   1.370  10.122 -0.3277  0.5067  0.3003
  267MOL0     C35969   9.541   1.260  10.039 -0.3255 -1.0734  0.4742
  267MOL0     C35970   9.559   1.328   9.903 -0.8448  0.2204  0.6019
  267MOL0     C35971   9.610   1.220   9.807 -0.1217 -0.3308  1.0075
  267MOL0     C35972   9.491   1.134   9.762  0.7960 -0.2786  0.7628
  267MOL0     C35973   9.527   1.052   9.650 -0.9669 -0.0640 -0.7225
  267MOL0     C35974   9.589   0.995   9.563  0.5626 -0.8372 -0.4152
  267MOL0     C35975   9.584   1.237  10.317 -0.0394  1.0547  0.2049
  267MOL0     C35976   9.625   1.226  10.448 -0.6390 -0.1172 -0.1313
  267MOL0     C35977   9.671   1.100  10.509  1.1692 -0.1901 -0.1266
  267MOL0     H35978   9.722   1.095  10.827  2.5493 -1.1715  0.4985
  267MOL0     H35979   9.704   1.093  11.083 -1.0282 -0.1094 -0.5807
  267MOL0     H35980   9.638   1.397  11.252  0.2592  0.7759  0.2944
  267MOL0     H35981   9.637   1.213  11.280  2.0931 -1.6101 -2.9789
  267MOL0     H35982   9.771   1.300  11.487 -1.6311 -3.3787 -1.3010
  267MOL0     H35983   9.607   1.377  11.484  0.9867 -0.0909 -0.7121
  267MOL0     H35984   9.672   1.573  11.386  1.4604 -0.0052 -2.8007
  267MOL0     H35985   9.846   1.533  11.379  1.5721  1.0088  4.0807
  267MOL0     H35986   9.784   1.680  11.562  0.0343 -1.0403 -1.8121
  267MOL0     H35987   9.671   1.545  11.607 -1.9957 -1.6748 -3.5797
  267MOL0     H35988   9.933   1.416  11.589  1.1300  0.6451 -2.7220
  267MOL0     H35989   9.986   1.564  11.581 -0.1141 -1.6067 -0.9669
  267MOL0     H35990   9.888   1.605  11.818  0.7482 -1.4676  1.4236
  267MOL0     H35991   9.783   1.469  11.805 -1.2657  1.5224  0.7948
  267MOL0     H35992  10.078   1.460  11.787 -0.7401  3.2624  1.2617
  267MOL0     H35993   9.984   1.312  11.789  1.4432 -1.5307  3.3941
  267MOL0     H35994   9.906   1.448  12.033 -1.2796 -0.9089 -0.5887
  267MOL0     H35995  10.014   1.309  12.017  0.0486  0.5934  0.8263
  267MOL0     H35996  10.033   1.694  11.974 -0.0072 -0.3676 -0.1618
  267MOL0     H35997  10.101   1.854  12.260 -0.4358 -1.2169  2.3686
  267MOL0     H35998  10.270   1.810  12.276 -0.7759  1.1566  0.5803
  267MOL0     H35999  10.280   1.866  12.006  0.3412  2.0825 -0.8151
  267MOL0     H36000  10.140   1.963  12.047 -1.2654  1.6370  0.3172
  267MOL0     H36001  10.329   2.083  12.030  2.1768 -0.9803 -0.2298
  267MOL0     H36002  10.405   2.005  12.159 -0.5022 -1.7675  0.2241
  267MOL0     H36003  10.140   2.151  12.205 -0.3299  0.7458 -2.0681
  267MOL0     H36004  10.282   2.247  12.196 -0.1102 -0.8014 -0.0376
  267MOL0     H36005  10.362   2.028  12.575 -1.6820  1.3496 -0.8507
  267MOL0     H36006  10.565   2.091  12.706 -1.3738  1.7708 -0.2314
  267MOL0     H36007  10.805   2.094  12.950  1.2108  0.8375  2.3734
  267MOL0     H36008  10.977   2.120  13.114 -1.2773  0.1895 -1.1824
  267MOL0     H36009  11.240   2.440  13.260 -0.5529  1.5098  1.7343
  267MOL0     H36010  11.189   2.494  13.099  1.3931 -0.3959 -0.2584
  267MOL0     H36011  11.132   2.672  13.273  0.4422 -0.1363 -2.5903
  267MOL0     H36012  10.987   2.598  13.207 -2.0325 -1.5003  2.4786
  267MOL0     H36013  10.951   2.444  13.375 -0.2648 -0.6085 -0.5536
  267MOL0     H36014  11.076   2.515  13.480  1.6002 -0.3558 -0.7883
  267MOL0     H36015  10.811   2.639  13.378  0.1683  0.6964 -1.1257
  267MOL0     H36016  10.933   2.751  13.421 -0.5558 -0.9538 -3.6344
  267MOL0     H36017  10.933   2.620  13.652 -0.6524 -0.3816 -0.3930
  267MOL0     H36018  10.824   2.507  13.577  1.8575 -0.7273  0.3764
  267MOL0     H36019  10.760   2.807  13.558  0.9004 -0.4432 -0.3088
  267MOL0     H36020  10.638   2.672  13.562  2.5838 -5.4096 -1.7345
  267MOL0     H36021  10.788   2.685  13.814 -0.7099  0.0563 -0.0408
  267MOL0     H36022  10.621   2.722  13.799  0.1675 -1.9198 -0.6597
  267MOL0     H36023  10.787   2.906  13.898  1.7359  2.0022 -1.1468
  267MOL0     H36024  10.818   2.943  13.738  2.7132 -3.0421  0.2578
  267MOL0     H36025  11.011   2.534  13.002  1.0204 -1.4908  3.6240
  267MOL0     H36026  10.834   2.488  12.809 -1.0821 -0.0350  0.5425
  267MOL0     H36027  10.667   2.360  12.392 -0.7366 -0.3967  2.3401
  267MOL0     H36028  10.496   2.266  12.233  0.6011  0.3372  0.1335
  267MOL0     H36029   9.910   1.471  11.084  0.1738  0.3895 -1.6625
  267MOL0     H36030   9.888   1.479  10.842  2.9165 -1.9417 -1.0807
  267MOL0     H36031   9.558   1.557  10.529  0.2703  0.4440 -1.5725
  267MOL0     H36032   9.512   1.564  10.286  0.5479  0.0041 -1.1491
  267MOL0     H36033   9.466   1.181  10.028  0.7913 -2.4257  1.9603
  267MOL0     H36034   9.633   1.211  10.073  1.4755  2.5745  1.3870
  267MOL0     H36035   9.643   1.397   9.905  1.2611 -2.0920 -1.3504
  267MOL0     H36036   9.471   1.374   9.856 -0.5167 -1.2803 -1.6515
  267MOL0     H36037   9.685   1.160   9.858  1.4708  0.1910 -0.6210
  267MOL0     H36038   9.670   1.262   9.726 -0.4650  0.3181  1.0849
  267MOL0     H36039   9.451   1.068   9.840 -2.2154 -0.6187 -0.9436
  267MOL0     H36040   9.401   1.194   9.747  1.6102  0.3780 -2.1671
  267MOL0     H36041   9.658   0.954   9.492 -0.4939 -4.3006  0.3112
  267MOL0     H36042   9.585   1.143  10.262 -1.1000  2.5475 -2.5183
  267MOL0     H36043   9.674   1.019  10.435 -1.1388 -1.2976  0.9017
  267MOL0     H36044   9.767   1.120  10.557  1.9424 -0.9287 -1.3048
  267MOL0     H36045   9.608   1.071  10.594  2.1541  0.2827  0.7861
  268MOL0     O36046   1.751   5.733   7.954  0.1841  0.5496 -0.1586
  268MOL0     C36047   1.834   5.641   7.952  0.0995  0.6365  0.4548
  268MOL0     O36048   1.913   5.603   8.053  0.0339 -0.1408 -0.4137
  268MOL0     C36049   1.911   5.673   8.170  0.2821 -0.4295  0.3011
  268MOL0     C36050   1.967   5.806   8.192 -0.3127  0.2719 -0.6437
  268MOL0     C36051   1.947   5.877   8.316 -0.7776  0.8694 -0.0222
  268MOL0     C36052   1.891   5.810   8.425 -0.6839  0.1526 -0.3989
  268MOL0     O36053   1.867   5.862   8.552  0.0470 -0.6401 -0.4465
  268MOL0     C36054   1.970   5.953   8.614  0.9081  0.1134 -0.2917
  268MOL0     C36055   1.917   6.100   8.617 -0.0672 -1.3125  0.2890
  268MOL0     C36056   1.968   6.200   8.509 -0.1731 -0.6402  0.0986
  268MOL0     C36057   1.926   6.346   8.541  0.2007  0.0786 -0.0551
  268MOL0     C36058   1.789   6.386   8.486  0.1472 -0.9620 -0.1760
  268MOL0     C36059   1.668   6.319   8.547 -1.1422 -0.2220  0.0402
  268MOL0     C36060   1.651   6.342   8.702 -0.3097  0.7697 -0.1459
  268MOL0     C36061   1.518   6.289   8.751  0.5410  0.1847 -0.5500
  268MOL0     N36062   1.507   6.149   8.745  0.4806 -0.1183 -0.0970
  268MOL0     C36063   1.588   6.062   8.817  0.0540 -0.8534  0.7539
  268MOL0     C36064   1.542   5.942   8.797  0.4374  0.1864 -0.7153
  268MOL0     C36065   1.588   5.819   8.872  0.2711  0.5661 -1.1807
  268MOL0     C36066   1.612   5.695   8.781  0.4648  0.1746  0.3261
  268MOL0     C36067   1.549   5.569   8.842  1.0499 -0.5847 -0.1685
  268MOL0     C36068   1.556   5.441   8.758  0.3106 -0.0027 -0.3172
  268MOL0     O36069   1.507   5.463   8.617 -0.4640  0.9643 -0.5221
  268MOL0     C36070   1.520   5.365   8.525 -0.0787 -0.1889  0.8861
  268MOL0     C36071   1.530   5.409   8.392 -0.3388  0.5531  0.8072
  268MOL0     C36072   1.560   5.317   8.297 -0.0108  0.6773  0.6237
  268MOL0     C36073   1.573   5.179   8.325 -0.7873 -0.2570  0.7344
  268MOL0     C36074   1.617   5.099   8.201  0.1405  0.7055  1.1093
  268MOL0     O36075   1.690   5.163   8.107  0.2417  0.1012  0.5846
  268MOL0     C36076   1.757   5.076   8.015  0.2509 -0.7030 -0.7435
  268MOL0     C36077   1.819   4.953   8.045 -0.3489  0.2834  0.8143
  268MOL0     C36078   1.887   4.870   7.947 -0.6148 -0.6548 -0.0528
  268MOL0     C36079   1.887   4.924   7.818 -0.7778 -0.4856  0.1419
  268MOL0     O36080   1.945   4.846   7.723 -0.1388 -0.2405  0.0474
  268MOL0     C36081   1.917   4.851   7.578  0.3520  0.6400 -0.2756
  268MOL0     C36082   2.022   4.787   7.497  0.0058 -0.3662 -0.0946
  268MOL0     C36083   2.163   4.855   7.502 -0.3129  0.6900 -0.4999
  268MOL0     C36084   2.272   4.754   7.475 -0.4501 -0.0623  0.1877
  268MOL0     C36085   2.304   4.720   7.331 -0.3379 -1.1254  0.0559
  268MOL0     C36086   2.446   4.657   7.325  0.4380 -0.5910  0.7071
  268MOL0     C36087   2.468   4.557   7.209  0.2462 -0.1923  0.4463
  268MOL0     C36088   2.588   4.593   7.118 -0.7554 -0.0630  0.4968
  268MOL0    Cl36089   2.582   4.514   6.954  0.4297 -0.0928  0.0061
  268MOL0     C36090   1.820   5.047   7.788 -0.6817  0.4949  0.0797
  268MOL0     C36091   1.760   5.121   7.885 -0.1834  0.0601 -0.0394
  268MOL0     O36092   1.572   4.988   8.191  0.4745 -0.6453  0.5636
  268MOL0     C36093   1.566   5.128   8.453  0.4414 -0.1894 -0.6079
  268MOL0     C36094   1.534   5.223   8.553 -1.1156 -0.5568 -0.2146
  268MOL0     N36095   1.420   5.951   8.716 -0.6259 -0.3890 -0.3613
  268MOL0     N36096   1.406   6.074   8.681  0.9404  0.2647 -0.1814
  268MOL0     C36097   1.834   5.686   8.404 -0.2187  0.6079 -0.8954
  268MOL0     C36098   1.853   5.620   8.279 -0.0028  0.0085  0.0801
  268MOL0     C36099   1.852   5.564   7.812  0.2354 -0.5283 -0.3904
  268MOL0     C36100   1.936   5.455   7.810  0.8042  0.1073 -0.1202
  268MOL0     C36101   1.966   5.382   7.689 -0.4047  0.0913 -0.3239
  268MOL0     C36102   1.925   5.433   7.572 -0.7777 -0.7433  0.2075
  268MOL0     O36103   1.958   5.373   7.450  1.0558 -0.4922 -0.3770
  268MOL0     C36104   2.091   5.376   7.404 -0.5379  0.0242  1.1350
  268MOL0     C36105   2.126   5.245   7.339  0.0163 -0.0113  0.0348
  268MOL0     C36106   2.059   5.220   7.206  0.5130 -0.1962 -0.6931
  268MOL0     C36107   2.156   5.236   7.082  0.0045 -0.3688 -0.2240
  268MOL0     C36108   2.090   5.257   6.953  0.0318  0.2704  0.5591
  268MOL0     C36109   2.043   5.286   6.847 -0.1408 -0.2118  0.4061
  268MOL0     C36110   1.835   5.534   7.578 -0.9512 -0.2177 -0.0018
  268MOL0     C36111   1.793   5.609   7.692 -0.4657  0.5599  0.1227
  268MOL0     C36112   1.708   5.732   7.675 -0.1939 -0.2733  0.4566
  268MOL0     H36113   2.012   5.852   8.105  2.6891 -0.0170  0.6503
  268MOL0     H36114   1.993   5.974   8.332  1.5451 -0.0016 -1.0088
  268MOL0     H36115   1.988   5.923   8.717  1.4776 -0.6550 -0.6111
  268MOL0     H36116   2.068   5.951   8.566  0.0645 -0.4660 -2.0887
  268MOL0     H36117   1.966   6.132   8.709  3.0491  2.2098 -2.2964
  268MOL0     H36118   1.813   6.103   8.649  1.1292 -4.7502  6.0117
  268MOL0     H36119   1.939   6.170   8.408 -0.8657  0.8784 -0.1868
  268MOL0     H36120   2.076   6.194   8.526 -0.4959 -1.2439  2.2763
  268MOL0     H36121   1.936   6.379   8.645 -1.8089  5.1387 -1.1641
  268MOL0     H36122   1.999   6.416   8.499 -0.5537  0.1185 -1.3664
  268MOL0     H36123   1.773   6.494   8.495  0.6913 -0.8153 -0.9150
  268MOL0     H36124   1.786   6.362   8.380 -4.8711 -1.1010 -0.2314
  268MOL0     H36125   1.582   6.356   8.491  0.5818  5.4697  0.5234
  268MOL0     H36126   1.679   6.214   8.520 -2.0943 -0.0619 -1.0016
  268MOL0     H36127   1.648   6.449   8.724  1.7510  0.4909  1.9198
  268MOL0     H36128   1.733   6.307   8.765 -0.3341  0.0044 -0.5270
  268MOL0     H36129   1.516   6.323   8.855  0.4711 -2.3742  0.3482
  268MOL0     H36130   1.438   6.340   8.696  1.0085  2.5425  0.8140
  268MOL0     H36131   1.679   6.097   8.864  0.0895  1.3856 -0.7778
  268MOL0     H36132   1.681   5.845   8.923  1.5295 -3.3897 -1.1828
  268MOL0     H36133   1.512   5.802   8.949  1.9426  0.5721  0.5301
  268MOL0     H36134   1.558   5.701   8.687 -0.1184 -2.3569  0.4173
  268MOL0     H36135   1.716   5.677   8.754  0.6909 -0.4354  1.5144
  268MOL0     H36136   1.441   5.586   8.853  0.4347 -4.1189  0.3992
  268MOL0     H36137   1.587   5.551   8.943  0.4261 -0.3347  0.1147
  268MOL0     H36138   1.489   5.366   8.801 -1.7964  1.9676  0.0057
  268MOL0     H36139   1.663   5.416   8.760  0.7821  1.8703  0.0749
  268MOL0     H36140   1.532   5.517   8.377  1.7673  0.1640 -2.8085
  268MOL0     H36141   1.593   5.351   8.200  3.8382  0.3915  1.6792
  268MOL0     H36142   1.816   4.920   8.148 -1.9413 -1.8772  0.1548
  268MOL0     H36143   1.916   4.768   7.969 -2.2480 -0.7767  1.7627
  268MOL0     H36144   1.824   4.797   7.559  0.8398 -0.7387  1.0698
  268MOL0     H36145   1.906   4.956   7.549  0.8278  0.4100 -1.3472
  268MOL0     H36146   2.026   4.680   7.523 -3.7938 -0.1133  2.1475
  268MOL0     H36147   2.004   4.791   7.389  0.3935 -3.1959 -0.3605
  268MOL0     H36148   2.160   4.942   7.435 -1.1411  1.0256 -0.0445
  268MOL0     H36149   2.179   4.882   7.606  2.2430  0.4163 -0.7608
  268MOL0     H36150   2.246   4.659   7.524  0.0001 -0.2205  0.1228
  268MOL0     H36151   2.369   4.788   7.512 -0.1793 -0.7569  0.1515
  268MOL0     H36152   2.307   4.816   7.279 -0.6452  0.1487  2.2748
  268MOL0     H36153   2.223   4.655   7.294  1.8181 -3.0657 -1.5753
  268MOL0     H36154   2.523   4.735   7.324 -1.3729  1.2913 -1.7118
  268MOL0     H36155   2.460   4.602   7.419  0.2520  0.5779  1.4497
  268MOL0     H36156   2.380   4.543   7.145  0.2346  0.2450  0.3654
  268MOL0     H36157   2.476   4.464   7.267 -0.4634  1.2822  3.1046
  268MOL0     H36158   2.576   4.702   7.110 -0.8377 -0.0621  0.6405
  268MOL0     H36159   2.687   4.574   7.162 -0.3031 -0.2963 -0.5758
  268MOL0     H36160   1.798   5.090   7.691  3.2267  1.4972 -0.5162
  268MOL0     H36161   1.708   5.216   7.870 -1.3851 -0.6717 -0.6582
  268MOL0     H36162   1.584   5.025   8.481  1.1114  0.1037  0.0609
  268MOL0     H36163   1.517   5.199   8.658  0.7202  1.7060  0.7027
  268MOL0     H36164   1.779   5.639   8.484 -0.0470  1.9010  0.0084
  268MOL0     H36165   1.811   5.521   8.263  0.4851  0.0123 -1.3523
  268MOL0     H36166   1.992   5.439   7.902  4.3447  2.3995 -1.6360
  268MOL0     H36167   2.040   5.303   7.677  0.2840  0.9941 -2.6083
  268MOL0     H36168   2.157   5.407   7.485  1.9027  1.7166 -1.3337
  268MOL0     H36169   2.103   5.461   7.338 -0.6464 -1.2571 -0.6034
  268MOL0     H36170   2.110   5.158   7.404  2.4559 -0.4940  0.0564
  268MOL0     H36171   2.232   5.254   7.316 -0.7679  0.1237 -4.5510
  268MOL0     H36172   1.971   5.284   7.195  0.2244 -0.2303  1.1201
  268MOL0     H36173   2.020   5.118   7.203 -2.7950  0.9655 -1.2978
  268MOL0     H36174   2.232   5.314   7.092  0.7415 -1.3957  5.5536
  268MOL0     H36175   2.214   5.143   7.078  1.7839  0.3969  3.3399
  268MOL0     H36176   1.986   5.311   6.759 -0.6945  2.5421  1.4495
  268MOL0     H36177   1.794   5.589   7.494 -1.2663 -0.1296  0.2076
  268MOL0     H36178   1.767   5.818   7.707  1.6512 -2.0216  1.9756
  268MOL0     H36179   1.699   5.745   7.567  1.7533 -1.4366  0.1096
  268MOL0     H36180   1.613   5.721   7.729 -1.2364  2.6832 -0.5565
  269MOL0     O36181   8.945   6.652   7.789 -0.1908  0.5014 -0.4004
  269MOL0     C36182   9.053   6.651   7.843 -0.5643  0.1309 -0.2015
  269MOL0     O36183   9.164   6.606   7.785  1.4821  0.7113 -0.2522
  269MOL0     C36184   9.168   6.522   7.666 -0.0236 -0.6186 -0.1002
  269MOL0     C36185   9.059   6.442   7.618 -0.0980  0.4182  0.0826
  269MOL0     C36186   9.081   6.356   7.515 -0.3197 -0.4496  0.0161
  269MOL0     C36187   9.200   6.359   7.441 -0.3091  0.4261 -1.3738
  269MOL0     O36188   9.228   6.292   7.326  0.2520 -0.1729  1.1913
  269MOL0     C36189   9.148   6.169   7.298 -0.0566 -0.1598  0.0334
  269MOL0     C36190   9.181   6.118   7.152  0.0827 -0.3793 -0.4350
  269MOL0     C36191   9.162   6.226   7.038  0.2342 -0.7915  0.0105
  269MOL0     C36192   9.072   6.176   6.918 -0.3372 -0.2566  0.1018
  269MOL0     C36193   9.073   6.274   6.793 -0.2470  0.3545 -0.0282
  269MOL0     C36194   9.037   6.419   6.815  0.4438  0.5563 -0.6914
  269MOL0     C36195   8.900   6.437   6.891 -1.4395 -0.1858  0.1205
  269MOL0     C36196   8.778   6.368   6.835 -0.3712  0.5877 -0.3550
  269MOL0     N36197   8.649   6.400   6.891 -0.1780 -0.1861 -0.3214
  269MOL0     C36198   8.576   6.524   6.892  0.7773 -0.0921  0.5602
  269MOL0     C36199   8.450   6.485   6.918  0.1363 -0.0585  0.5091
  269MOL0     C36200   8.343   6.591   6.903 -0.2408 -0.2125 -0.1670
  269MOL0     C36201   8.227   6.558   6.809  0.0361 -0.3863  0.2846
  269MOL0     C36202   8.113   6.659   6.801  0.7641 -0.1815 -0.5327
  269MOL0     C36203   7.992   6.616   6.717 -0.4883 -0.1323  0.5853
  269MOL0     O36204   7.914   6.738   6.693 -0.1769 -0.2336 -1.2091
  269MOL0     C36205   7.795   6.719   6.630  0.3709 -0.5799  0.4664
  269MOL0     C36206   7.763   6.690   6.493 -0.8872 -0.0356 -0.2836
  269MOL0     C36207   7.631   6.669   6.459  1.0262 -0.2941  0.2008
  269MOL0     C36208   7.523   6.679   6.546 -0.0398 -0.2583 -0.5733
  269MOL0     C36209   7.375   6.674   6.502 -0.1720  0.2613  0.6103
  269MOL0     O36210   7.278   6.723   6.581  0.2458 -0.5609 -0.1324
  269MOL0     C36211   7.147   6.734   6.523  0.3228  0.5978  0.8944
  269MOL0     C36212   7.096   6.837   6.442  0.2427 -1.0375 -0.1739
  269MOL0     C36213   6.959   6.840   6.405 -0.1473  0.7862  0.8157
  269MOL0     C36214   6.877   6.735   6.436 -0.8374 -0.3415  0.1939
  269MOL0     O36215   6.756   6.736   6.386  0.2790 -0.1194  0.0577
  269MOL0     C36216   6.739   6.684   6.248 -0.0688 -0.4329  0.5518
  269MOL0     C36217   6.603   6.712   6.193 -0.1106 -0.4854  0.0148
  269MOL0     C36218   6.496   6.670   6.307 -0.1725  0.0107  0.4427
  269MOL0     C36219   6.488   6.513   6.340  0.2194 -0.1872  0.1817
  269MOL0     C36220   6.355   6.462   6.405  0.1269  0.4306 -0.0058
  269MOL0     C36221   6.327   6.307   6.404 -0.0481 -0.2719  0.8053
  269MOL0     C36222   6.396   6.230   6.514 -0.5805  0.4037 -0.6038
  269MOL0     C36223   6.376   6.078   6.486  0.2345  0.0680 -0.2260
  269MOL0    Cl36224   6.478   5.985   6.366  0.1930 -0.1103  0.1969
  269MOL0     C36225   6.927   6.636   6.507  0.1644  0.2457  0.7892
  269MOL0     C36226   7.060   6.636   6.549  1.2209  0.8234  0.0411
  269MOL0     O36227   7.362   6.631   6.390 -0.2959  0.5495  0.5653
  269MOL0     C36228   7.551   6.718   6.668 -0.3206  0.7231 -0.0038
  269MOL0     C36229   7.685   6.743   6.705 -0.0866  0.8760  0.0552
  269MOL0     N36230   8.439   6.346   6.920 -0.4039 -0.6421  0.6892
  269MOL0     N36231   8.562   6.302   6.918 -1.2078 -0.1357 -0.9691
  269MOL0     C36232   9.304   6.438   7.500 -0.5391  0.0866  0.4604
  269MOL0     C36233   9.296   6.521   7.604  0.9106 -0.2415 -0.0642
  269MOL0     C36234   9.072   6.752   7.955  0.0616  0.2446  0.1862
  269MOL0     C36235   9.199   6.809   7.976 -0.1554  1.0092 -0.3535
  269MOL0     C36236   9.218   6.902   8.072  0.0265 -0.9647 -0.7643
  269MOL0     C36237   9.117   6.926   8.162  0.1132  0.4051  0.1373
  269MOL0     O36238   9.119   6.999   8.281  0.0789 -0.5720 -0.2768
  269MOL0     C36239   9.244   7.063   8.331  0.3170 -0.4719 -0.0793
  269MOL0     C36240   9.268   7.026   8.484  0.1367  0.6275  0.2528
  269MOL0     C36241   9.313   6.872   8.499  0.4736 -0.7873  0.6911
  269MOL0     C36242   9.339   6.834   8.643  0.6403  0.2129 -0.4129
  269MOL0     C36243   9.455   6.903   8.692 -0.5031 -0.1281  0.4065
  269MOL0     C36244   9.544   6.959   8.751 -0.0167  0.3111 -0.1041
  269MOL0     C36245   9.000   6.869   8.143  1.1506 -1.1040  0.9477
  269MOL0     C36246   8.971   6.783   8.041  0.9581 -0.2871  0.5157
  269MOL0     C36247   8.828   6.732   8.038 -0.5191  0.1093  0.0933
  269MOL0     H36248   8.973   6.421   7.681  1.2876  0.2272  1.9972
  269MOL0     H36249   9.000   6.286   7.502  0.8071 -1.1965 -4.7236
  269MOL0     H36250   9.170   6.102   7.380  2.5439  3.0546  2.2218
  269MOL0     H36251   9.043   6.202   7.299  1.1066  4.2639 -0.5317
  269MOL0     H36252   9.107   6.039   7.134  0.7657 -1.5831  1.7128
  269MOL0     H36253   9.282   6.078   7.141  0.7530  1.0387  0.2223
  269MOL0     H36254   9.260   6.247   6.994 -0.7939 -0.5909 -2.3165
  269MOL0     H36255   9.115   6.317   7.076  1.8417  0.1448 -0.1840
  269MOL0     H36256   9.095   6.072   6.890  1.0427  0.7580 -2.9256
  269MOL0     H36257   8.970   6.164   6.956 -1.0558  0.1069 -1.6241
  269MOL0     H36258   9.169   6.271   6.740 -1.0849 -1.3042 -1.5692
  269MOL0     H36259   8.997   6.238   6.723  0.2533  0.0202 -0.4179
  269MOL0     H36260   9.116   6.457   6.881 -0.2407 -3.2486  2.7705
  269MOL0     H36261   9.033   6.479   6.724 -0.0200  0.9809 -0.3992
  269MOL0     H36262   8.881   6.545   6.886  1.0141  0.2617 -0.6100
  269MOL0     H36263   8.899   6.413   6.998  2.0323 -1.9440 -0.1360
  269MOL0     H36264   8.781   6.380   6.726 -1.6796  4.2550 -0.0974
  269MOL0     H36265   8.778   6.259   6.846 -4.1169  0.3790 -1.1660
  269MOL0     H36266   8.612   6.622   6.863  1.9455 -0.6219  0.1651
  269MOL0     H36267   8.288   6.625   6.991 -2.0985  1.2626 -1.7851
  269MOL0     H36268   8.393   6.683   6.869 -0.1168 -0.6105 -1.0894
  269MOL0     H36269   8.271   6.549   6.709  1.5394 -2.6201  1.0796
  269MOL0     H36270   8.193   6.460   6.842 -0.0730 -0.2767  0.5013
  269MOL0     H36271   8.147   6.754   6.758 -1.4328  1.6849  1.5159
  269MOL0     H36272   8.074   6.671   6.903  2.5249  0.3124  0.1121
  269MOL0     H36273   7.934   6.536   6.763  1.2468 -2.9320 -1.7910
  269MOL0     H36274   8.026   6.574   6.622  1.1255 -1.7573  1.8131
  269MOL0     H36275   7.840   6.657   6.424  0.2208  2.1365 -0.1806
  269MOL0     H36276   7.608   6.648   6.355  3.6946 -1.7972 -0.1747
  269MOL0     H36277   7.154   6.928   6.426  0.7423 -1.2818  0.2197
  269MOL0     H36278   6.929   6.916   6.335  0.6837 -2.7094 -3.8422
  269MOL0     H36279   6.819   6.720   6.182  0.4536  2.0594  2.4245
  269MOL0     H36280   6.741   6.575   6.258 -2.7312 -0.5048  1.0825
  269MOL0     H36281   6.594   6.819   6.172 -1.0013 -0.5933 -0.1900
  269MOL0     H36282   6.586   6.660   6.099  0.3997 -0.5050 -0.0675
  269MOL0     H36283   6.514   6.724   6.400 -0.3588  3.6152 -1.4228
  269MOL0     H36284   6.399   6.697   6.263 -0.5336 -1.3010  0.3960
  269MOL0     H36285   6.573   6.472   6.394  1.9833  2.4367 -0.4440
  269MOL0     H36286   6.502   6.478   6.237 -1.8591  0.1204 -0.2669
  269MOL0     H36287   6.276   6.502   6.341  1.6726 -0.2701 -2.4589
  269MOL0     H36288   6.334   6.489   6.509 -2.9918  1.8014 -0.8629
  269MOL0     H36289   6.219   6.294   6.410 -0.2592  0.7624 -0.3467
  269MOL0     H36290   6.361   6.264   6.309  1.8754  3.2017 -0.2789
  269MOL0     H36291   6.366   6.249   6.617 -0.5501 -1.2745 -0.2547
  269MOL0     H36292   6.504   6.244   6.522 -0.5366  0.5987 -1.4798
  269MOL0     H36293   6.377   6.022   6.580  0.3254  0.6735  0.1361
  269MOL0     H36294   6.277   6.062   6.440  0.4182  2.2299 -1.5310
  269MOL0     H36295   6.864   6.549   6.521  2.3755 -1.5434  0.3306
  269MOL0     H36296   7.085   6.555   6.616 -0.1208  2.6222  2.9234
  269MOL0     H36297   7.478   6.719   6.748  0.3405  0.9256  0.6109
  269MOL0     H36298   7.700   6.761   6.811 -0.6473  0.8229  0.1454
  269MOL0     H36299   9.389   6.451   7.434 -0.2462 -1.7106  0.4266
  269MOL0     H36300   9.377   6.575   7.652 -1.8437  2.2083  2.2613
  269MOL0     H36301   9.279   6.769   7.913  0.1259  0.3317  0.4159
  269MOL0     H36302   9.314   6.947   8.095 -1.3656  3.0314 -1.9848
  269MOL0     H36303   9.222   7.170   8.329 -0.6470 -0.6778 -1.3102
  269MOL0     H36304   9.326   7.039   8.264 -1.0561  0.1477 -2.0607
  269MOL0     H36305   9.178   7.043   8.544  0.3897  0.8289  0.5763
  269MOL0     H36306   9.348   7.089   8.524  2.7309  0.6819 -4.3718
  269MOL0     H36307   9.398   6.863   8.430  0.2047  0.9272  0.0866
  269MOL0     H36308   9.235   6.804   8.462 -0.2121 -0.9214  2.3139
  269MOL0     H36309   9.248   6.849   8.701  0.4532 -5.0940  1.1788
  269MOL0     H36310   9.344   6.725   8.641  0.4044  0.2046 -1.7133
  269MOL0     H36311   9.629   6.993   8.805 -1.4380  1.2560  1.6560
  269MOL0     H36312   8.916   6.905   8.201 -1.0979 -2.0503 -1.5330
  269MOL0     H36313   8.789   6.757   8.138  2.4334 -1.0784  1.6877
  269MOL0     H36314   8.772   6.769   7.952 -0.3138  1.8748  0.6607
  269MOL0     H36315   8.836   6.625   8.021  0.3425  0.5147 -2.3579
  270MOL0     O36316   0.129   5.215   1.361 -0.1718  0.4568  0.8524
  270MOL0     C36317   0.154   5.294   1.449 -0.5723 -0.0058  0.4710
  270MOL0     O36318   0.066   5.331   1.541  0.3509 -0.3435  0.0079
  270MOL0     C36319  -0.077   5.306   1.537 -1.7173 -0.9185  0.5504
  270MOL0     C36320  -0.159   5.330   1.430  0.2717 -1.6820  0.6200
  270MOL0     C36321  -0.288   5.305   1.436 -0.6507  0.4303  1.0081
  270MOL0     C36322  -0.346   5.249   1.552 -0.3099 -0.6021 -0.0648
  270MOL0     O36323  -0.477   5.219   1.573 -0.1661  0.0887  0.2884
  270MOL0     C36324  -0.568   5.292   1.498  0.4719  0.2788  0.8080
  270MOL0     C36325  -0.684   5.189   1.495  0.6342 -0.4899 -0.5888
  270MOL0     C36326  -0.796   5.210   1.594 -0.5064  0.2017 -0.2238
  270MOL0     C36327  -0.768   5.242   1.735 -0.1233  0.0945  0.7311
  270MOL0     C36328  -0.889   5.277   1.825  0.0061 -0.4788  0.5680
  270MOL0     C36329  -0.970   5.396   1.762 -0.6486 -0.2849  0.0856
  270MOL0     C36330  -1.086   5.442   1.853 -0.2267  0.7799  0.3555
  270MOL0     C36331  -1.164   5.332   1.943 -0.6023 -0.2791  0.1134
  270MOL0     N36332  -1.226   5.223   1.854  0.0548  0.7940  0.1510
  270MOL0     C36333  -1.296   5.254   1.729  0.5435  0.6403 -0.5218
  270MOL0     C36334  -1.367   5.139   1.703 -0.6969 -0.7687  0.3478
  270MOL0     C36335  -1.464   5.109   1.600  0.3359  0.6606 -1.4426
  270MOL0     C36336  -1.468   5.210   1.482  0.0078  1.0639  0.1059
  270MOL0     C36337  -1.345   5.222   1.395 -0.5060 -0.2083  0.3912
  270MOL0     C36338  -1.358   5.279   1.259 -0.4297  0.0501 -0.9936
  270MOL0     O36339  -1.245   5.257   1.167 -0.3123  0.2834 -0.7325
  270MOL0     C36340  -1.121   5.318   1.172 -1.4211 -0.2623  0.1972
  270MOL0     C36341  -1.096   5.425   1.262 -0.4403  0.1160 -1.1127
  270MOL0     C36342  -0.981   5.500   1.256  1.1554  0.5194 -0.1375
  270MOL0     C36343  -0.875   5.457   1.181 -0.4851  0.4555  0.1925
  270MOL0     C36344  -0.753   5.532   1.163 -1.0167 -0.2949 -0.3636
  270MOL0     O36345  -0.645   5.464   1.100 -0.6566 -0.7545  0.3620
  270MOL0     C36346  -0.513   5.491   1.118  0.1192  0.0068  0.0416
  270MOL0     C36347  -0.437   5.413   1.031 -0.4628 -0.1555 -0.0744
  270MOL0     C36348  -0.299   5.441   1.035 -0.4337 -0.1431 -0.0352
  270MOL0     C36349  -0.236   5.523   1.129 -0.5668 -0.4384 -0.0118
  270MOL0     O36350  -0.098   5.544   1.136  0.3439 -0.0618  0.1423
  270MOL0     C36351  -0.018   5.560   1.024 -0.5592 -0.4278  0.1514
  270MOL0     C36352   0.118   5.568   1.093 -0.7624 -0.9785 -0.3584
  270MOL0     C36353   0.214   5.638   1.001 -1.0783 -0.2634 -0.4812
  270MOL0     C36354   0.359   5.617   1.031 -0.1660  0.1017  0.1680
  270MOL0     C36355   0.444   5.715   0.939 -0.6821 -0.9768 -0.9932
  270MOL0     C36356   0.587   5.685   0.963 -1.1287  0.0456 -0.3682
  270MOL0     C36357   0.638   5.710   1.108 -0.1438  0.5029  0.8660
  270MOL0     C36358   0.792   5.729   1.116 -0.4427 -0.0723 -0.2029
  270MOL0    Cl36359   0.825   5.860   1.225 -0.2447 -0.4908  0.3155
  270MOL0     C36360  -0.316   5.592   1.218 -0.1441  0.0141 -0.2312
  270MOL0     C36361  -0.460   5.582   1.215 -0.0379  0.0895  0.2334
  270MOL0     O36362  -0.744   5.642   1.215  0.2713  0.0526  0.6170
  270MOL0     C36363  -0.886   5.339   1.111  0.2958 -0.0759 -0.5148
  270MOL0     C36364  -1.012   5.267   1.109  0.6316  0.8100 -0.1760
  270MOL0     N36365  -1.326   5.053   1.800 -0.1670 -0.6736  0.0930
  270MOL0     N36366  -1.251   5.098   1.893 -0.4543 -0.0004 -0.8993
  270MOL0     C36367  -0.265   5.224   1.653 -0.3779 -0.3484 -0.5352
  270MOL0     C36368  -0.126   5.246   1.649  0.0868  1.3753  0.2785
  270MOL0     C36369   0.276   5.387   1.448  0.6454  0.2596 -0.3390
  270MOL0     C36370   0.271   5.514   1.510  0.2786 -0.5526  0.4872
  270MOL0     C36371   0.376   5.603   1.520  0.8290  0.0883 -0.0533
  270MOL0     C36372   0.493   5.567   1.454 -0.3175 -0.6056 -0.2217
  270MOL0     O36373   0.609   5.640   1.464 -0.4087  0.0740 -0.0385
  270MOL0     C36374   0.633   5.765   1.536  0.4485  0.1490  0.5390
  270MOL0     C36375   0.618   5.740   1.689 -0.4207 -0.0298 -0.1780
  270MOL0     C36376   0.734   5.635   1.719  0.3861 -0.0222 -0.5440
  270MOL0     C36377   0.878   5.700   1.697  1.4141 -0.7493  0.1541
  270MOL0     C36378   0.971   5.637   1.787 -0.6632 -0.3931 -0.5757
  270MOL0     C36379   1.040   5.583   1.877  0.2769  0.1010 -0.3226
  270MOL0     C36380   0.508   5.442   1.393  0.6445  0.9955  0.8972
  270MOL0     C36381   0.396   5.345   1.390  0.4742 -0.3146  0.0551
  270MOL0     C36382   0.428   5.209   1.322  0.2535 -1.4726 -0.5975
  270MOL0     H36383  -0.115   5.362   1.336  1.6244 -1.0557  1.4433
  270MOL0     H36384  -0.349   5.326   1.348 -0.0774 -2.4902 -0.1797
  270MOL0     H36385  -0.584   5.390   1.544  1.5019  2.0894 -2.3624
  270MOL0     H36386  -0.548   5.305   1.391 -0.3582  0.1591  0.6282
  270MOL0     H36387  -0.659   5.083   1.495  1.6771 -0.2739  0.5672
  270MOL0     H36388  -0.718   5.210   1.393  2.6095  0.2676 -1.1483
  270MOL0     H36389  -0.849   5.114   1.594  0.8699 -0.5974 -0.9008
  270MOL0     H36390  -0.858   5.283   1.541 -0.4066  0.3800 -0.0976
  270MOL0     H36391  -0.709   5.156   1.768  1.0650  0.6460  0.0913
  270MOL0     H36392  -0.695   5.323   1.738  1.5496 -1.0394 -2.8986
  270MOL0     H36393  -0.952   5.189   1.840  0.9874 -0.6179  5.4994
  270MOL0     H36394  -0.846   5.311   1.919  2.8668  0.5569 -0.9850
  270MOL0     H36395  -0.902   5.481   1.749 -1.8889  0.5244 -1.3947
  270MOL0     H36396  -0.999   5.366   1.661  0.1598 -0.1504 -0.1962
  270MOL0     H36397  -1.155   5.491   1.784 -0.7553 -2.1633 -1.3281
  270MOL0     H36398  -1.044   5.519   1.919  1.4454  1.4018 -1.3535
  270MOL0     H36399  -1.095   5.282   2.011 -1.4282  0.1534  1.3084
  270MOL0     H36400  -1.243   5.396   1.983 -0.1349  1.8260 -2.0555
  270MOL0     H36401  -1.303   5.352   1.683  2.6304  0.3863 -1.4775
  270MOL0     H36402  -1.454   5.007   1.562 -0.6503  1.0569 -2.8668
  270MOL0     H36403  -1.560   5.117   1.651  1.2775  1.2267  0.3111
  270MOL0     H36404  -1.545   5.170   1.416  1.0767 -1.1391  0.1105
  270MOL0     H36405  -1.504   5.306   1.521  0.2211  0.6471  1.3745
  270MOL0     H36406  -1.308   5.120   1.381  1.3577  0.5780 -0.7926
  270MOL0     H36407  -1.268   5.286   1.439 -0.5758 -0.8200  1.4444
  270MOL0     H36408  -1.378   5.386   1.270 -0.8867 -0.1061 -0.1555
  270MOL0     H36409  -1.449   5.236   1.216 -1.7613 -1.9979  3.2786
  270MOL0     H36410  -1.180   5.466   1.316 -1.2546  1.2302 -3.1093
  270MOL0     H36411  -0.974   5.581   1.328 -0.2535 -1.7942  2.7857
  270MOL0     H36412  -0.487   5.348   0.960  1.2580  0.8726 -2.3579
  270MOL0     H36413  -0.244   5.394   0.954  0.4219  2.3673 -1.0163
  270MOL0     H36414  -0.021   5.480   0.949 -0.1094 -1.4653  1.2025
  270MOL0     H36415  -0.041   5.659   0.985 -1.4084 -0.0483  1.5645
  270MOL0     H36416   0.111   5.641   1.174 -0.4647 -0.5023 -0.7595
  270MOL0     H36417   0.160   5.469   1.117  2.3542  0.1510 -0.6273
  270MOL0     H36418   0.184   5.618   0.898 -1.9453  4.3839 -1.3371
  270MOL0     H36419   0.196   5.744   1.018  4.3807  0.6023  1.9825
  270MOL0     H36420   0.398   5.521   0.996  4.4466  2.3123 -1.5496
  270MOL0     H36421   0.373   5.631   1.139  0.7672  0.9056 -0.0432
  270MOL0     H36422   0.417   5.818   0.962  1.5713 -0.7648  1.1131
  270MOL0     H36423   0.409   5.684   0.840 -0.7714  0.9774 -1.6104
  270MOL0     H36424   0.611   5.582   0.936  1.4519  0.1361  1.2694
  270MOL0     H36425   0.642   5.749   0.894 -2.6206  3.1714  1.0820
  270MOL0     H36426   0.603   5.647   1.191 -1.8427  2.3213  1.6305
  270MOL0     H36427   0.592   5.808   1.127  0.9765  1.0048  1.0358
  270MOL0     H36428   0.834   5.640   1.164 -1.5457  0.1123  1.1759
  270MOL0     H36429   0.840   5.753   1.020  2.1239  0.5613  1.1497
  270MOL0     H36430  -0.271   5.640   1.304  0.3195 -1.4827  0.3974
  270MOL0     H36431  -0.514   5.644   1.286  0.6405  1.9277 -0.7939
  270MOL0     H36432  -0.797   5.299   1.063  2.2300  0.8969  2.0303
  270MOL0     H36433  -1.022   5.180   1.045 -1.8376  0.7210  0.2131
  270MOL0     H36434  -0.299   5.181   1.746 -0.1481  1.1308  0.2602
  270MOL0     H36435  -0.054   5.223   1.727 -1.0779 -0.1468  0.9692
  270MOL0     H36436   0.175   5.535   1.556  0.4872  0.4075  0.5068
  270MOL0     H36437   0.358   5.702   1.561 -0.4212 -0.4807  0.8374
  270MOL0     H36438   0.559   5.837   1.503  0.9509  0.9728  1.1706
  270MOL0     H36439   0.730   5.806   1.507 -1.1105  3.1667 -0.8006
  270MOL0     H36440   0.522   5.689   1.702  0.2814 -2.7740 -3.9263
  270MOL0     H36441   0.628   5.835   1.743 -1.3755  1.5635 -2.6522
  270MOL0     H36442   0.734   5.553   1.646  1.2981 -0.1299 -0.4330
  270MOL0     H36443   0.724   5.595   1.820  2.3781 -0.1066 -0.3330
  270MOL0     H36444   0.918   5.697   1.596 -0.3026 -3.0877 -0.5501
  270MOL0     H36445   0.875   5.805   1.727 -2.3711 -0.8588  0.6969
  270MOL0     H36446   1.080   5.575   1.976  0.6528  1.0520 -0.3849
  270MOL0     H36447   0.611   5.419   1.367 -0.1311 -0.7162 -0.9589
  270MOL0     H36448   0.351   5.184   1.249 -0.4703 -2.8628  0.5759
  270MOL0     H36449   0.528   5.221   1.282  1.4553  1.3488  2.7169
  270MOL0     H36450   0.428   5.131   1.399 -0.1300 -1.7585 -0.8794
  271MOL0     O36451   7.947   6.947   4.485 -0.3070  1.4348  0.4430
  271MOL0     C36452   7.950   6.997   4.372  0.8559 -0.6119 -0.1014
  271MOL0     O36453   8.026   7.106   4.336  0.3011  0.5436 -0.8332
  271MOL0     C36454   8.052   7.212   4.426 -0.4088 -0.4839  0.3483
  271MOL0     C36455   8.144   7.304   4.392  0.8375 -0.5599 -0.0534
  271MOL0     C36456   8.141   7.430   4.460 -0.0783  0.5398 -1.0045
  271MOL0     C36457   8.051   7.456   4.569 -0.6376  0.3662  1.1053
  271MOL0     O36458   8.056   7.578   4.625  0.2351  0.8902  0.8896
  271MOL0     C36459   7.938   7.660   4.629 -0.5005 -0.0985  0.5031
  271MOL0     C36460   7.973   7.791   4.572  0.4229 -0.0763  0.5545
  271MOL0     C36461   7.990   7.803   4.412 -1.1271  1.1102  0.0762
  271MOL0     C36462   8.002   7.945   4.379  0.8429  0.1424 -0.0831
  271MOL0     C36463   8.066   7.958   4.238  0.5477  0.0713 -0.5658
  271MOL0     C36464   8.219   7.929   4.249 -0.6441 -0.0660 -0.2662
  271MOL0     C36465   8.285   7.963   4.110  0.5207  0.2301 -0.5357
  271MOL0     C36466   8.260   7.871   3.988 -0.1801  0.0314 -0.2088
  271MOL0     N36467   8.347   7.753   3.999  0.1778  0.0671 -1.1990
  271MOL0     C36468   8.462   7.740   3.943 -0.2387  0.9058 -0.4747
  271MOL0     C36469   8.514   7.629   4.000 -0.3523 -0.3816 -0.3412
  271MOL0     C36470   8.651   7.574   3.973 -0.6174  0.0171  0.3939
  271MOL0     C36471   8.681   7.441   4.046 -0.4429 -0.8006 -0.3092
  271MOL0     C36472   8.831   7.399   4.026  0.1850  1.1493 -0.6746
  271MOL0     C36473   8.858   7.283   4.124 -1.9159  0.8841  0.2872
  271MOL0     O36474   8.989   7.231   4.094  0.8169  0.0084  0.3385
  271MOL0     C36475   8.991   7.096   4.102 -0.3819  0.4476 -0.1296
  271MOL0     C36476   8.982   7.023   4.230 -0.0489  0.8518 -0.7143
  271MOL0     C36477   9.005   6.891   4.236  0.9169  0.0627  0.3337
  271MOL0     C36478   9.024   6.820   4.117  1.5550 -0.2498  0.7140
  271MOL0     C36479   9.041   6.672   4.119  0.0611  0.9723 -0.1811
  271MOL0     O36480   9.042   6.603   4.241 -0.4508 -0.4571  0.5245
  271MOL0     C36481   9.089   6.473   4.255 -0.6359 -0.1729 -0.6599
  271MOL0     C36482   9.184   6.419   4.165 -0.6130 -0.4615  0.8106
  271MOL0     C36483   9.242   6.293   4.196  0.3665  0.6662 -0.2658
  271MOL0     C36484   9.220   6.226   4.317  0.3838 -1.0146 -0.4453
  271MOL0     O36485   9.293   6.114   4.359  0.0031  0.3548 -0.2023
  271MOL0     C36486   9.342   6.021   4.272  0.0778  0.0986  0.6318
  271MOL0     C36487   9.234   5.915   4.249  0.8122 -0.4514 -0.6483
  271MOL0     C36488   9.164   5.854   4.368  0.4060 -0.1818  0.0038
  271MOL0     C36489   9.272   5.800   4.463  0.4513 -0.1586 -0.0254
  271MOL0     C36490   9.208   5.736   4.591 -0.9050 -0.2074  0.3168
  271MOL0     C36491   9.320   5.658   4.666  0.6422 -0.1431 -0.6563
  271MOL0     C36492   9.271   5.539   4.744 -0.4860  0.1281 -0.4320
  271MOL0     C36493   9.256   5.405   4.665 -0.1989 -0.4562 -0.7295
  271MOL0    Cl36494   9.169   5.412   4.502  0.1654  0.1616  0.3360
  271MOL0     C36495   9.131   6.279   4.413  0.2231  0.1308  0.5213
  271MOL0     C36496   9.071   6.406   4.377  0.7716  0.4656  0.1370
  271MOL0     O36497   9.046   6.618   4.012 -0.1598 -0.4892 -0.0374
  271MOL0     C36498   9.023   6.887   3.992  0.3319 -0.4894  0.5375
  271MOL0     C36499   9.013   7.023   3.985  0.5902 -0.7939 -0.1972
  271MOL0     N36500   8.414   7.568   4.077 -0.2029 -0.9116  0.7137
  271MOL0     N36501   8.310   7.639   4.068 -0.6962 -0.7886  0.1186
  271MOL0     C36502   7.975   7.352   4.613 -0.1319 -0.9955  0.2108
  271MOL0     C36503   7.969   7.240   4.537 -1.1492  0.9237 -1.1135
  271MOL0     C36504   7.850   6.940   4.274  0.4946 -0.5847  0.1218
  271MOL0     C36505   7.854   7.000   4.147  0.1606 -0.7155 -0.0425
  271MOL0     C36506   7.769   6.956   4.045 -0.9103  0.3576  0.4291
  271MOL0     C36507   7.668   6.862   4.071 -1.5691  1.1944  0.3955
  271MOL0     O36508   7.582   6.842   3.971  0.2950 -0.4041 -0.1511
  271MOL0     C36509   7.592   6.710   3.921 -0.0712  0.1957  0.0359
  271MOL0     C36510   7.648   6.727   3.780  0.5360  0.1776  0.8692
  271MOL0     C36511   7.641   6.583   3.719 -0.8035 -0.2943 -0.9033
  271MOL0     C36512   7.676   6.571   3.569  0.1080  0.0007  0.8286
  271MOL0     C36513   7.567   6.498   3.505  0.4837  0.3885 -0.7563
  271MOL0     C36514   7.486   6.418   3.471  0.1629  0.4902  0.6475
  271MOL0     C36515   7.666   6.799   4.194  0.3757  0.5558 -0.5751
  271MOL0     C36516   7.748   6.848   4.300 -0.3014  0.3216 -0.0739
  271MOL0     C36517   7.713   6.801   4.432 -0.1877  0.6458 -0.8133
  271MOL0     H36518   8.200   7.285   4.301 -0.3769  1.5983 -1.3311
  271MOL0     H36519   8.211   7.506   4.427 -1.9555  1.7577 -2.3882
  271MOL0     H36520   7.853   7.612   4.579 -0.2032 -0.2735  0.1645
  271MOL0     H36521   7.912   7.674   4.734  1.9240 -2.0800  1.4827
  271MOL0     H36522   8.060   7.832   4.624 -1.1361  1.4821  2.0870
  271MOL0     H36523   7.884   7.851   4.592  0.6449  1.6124 -2.7616
  271MOL0     H36524   7.917   7.745   4.354 -1.1307  1.1467  0.0449
  271MOL0     H36525   8.086   7.753   4.398  0.6695  4.6382 -1.4811
  271MOL0     H36526   7.904   7.992   4.383  1.0298  0.5304 -0.0679
  271MOL0     H36527   8.068   7.984   4.457 -0.7931 -1.8288  2.4299
  271MOL0     H36528   8.031   7.883   4.166  1.0860 -0.6092 -0.1274
  271MOL0     H36529   8.045   8.058   4.198 -0.6934 -0.2115 -0.6542
  271MOL0     H36530   8.264   7.997   4.322  0.8661 -2.7288  1.5030
  271MOL0     H36531   8.253   7.829   4.278 -0.3316  0.3228  0.7483
  271MOL0     H36532   8.393   7.947   4.122  0.2319 -1.3750  0.1373
  271MOL0     H36533   8.274   8.068   4.079 -1.5962 -0.5616 -2.7810
  271MOL0     H36534   8.162   7.825   3.983  1.0464 -3.1479  2.0166
  271MOL0     H36535   8.284   7.927   3.897  1.8976  1.3524  1.0552
  271MOL0     H36536   8.509   7.821   3.887  1.8133  1.5630  1.9998
  271MOL0     H36537   8.648   7.552   3.866  2.1720  1.2074 -0.0217
  271MOL0     H36538   8.733   7.641   4.000 -0.8624 -0.1343  1.6108
  271MOL0     H36539   8.654   7.433   4.152 -0.2277  1.3980 -0.0370
  271MOL0     H36540   8.614   7.368   4.000 -0.7994 -0.3303 -0.5388
  271MOL0     H36541   8.911   7.473   4.033  2.3956 -0.9037 -2.6169
  271MOL0     H36542   8.833   7.342   3.933 -2.8981 -3.5868  1.7734
  271MOL0     H36543   8.782   7.205   4.118  0.3709 -1.5315  1.1258
  271MOL0     H36544   8.850   7.328   4.223 -2.6844 -1.0128  1.1351
  271MOL0     H36545   8.949   7.084   4.313  1.5305  0.2048  0.4200
  271MOL0     H36546   9.000   6.859   4.340  0.1448  1.0157  0.6171
  271MOL0     H36547   9.214   6.474   4.077 -4.3288 -1.0960 -1.0380
  271MOL0     H36548   9.314   6.257   4.123  1.9410  1.4330  0.8358
  271MOL0     H36549   9.392   6.052   4.180  1.3954  0.0125  1.2964
  271MOL0     H36550   9.427   5.962   4.310  0.8676 -0.1853 -1.4268
  271MOL0     H36551   9.161   5.969   4.188  0.2533 -0.5843 -0.1165
  271MOL0     H36552   9.273   5.832   4.188  1.6328 -0.9904  0.5674
  271MOL0     H36553   9.113   5.934   4.422 -1.6947  2.1514 -4.7943
  271MOL0     H36554   9.090   5.780   4.335 -3.0318  3.2974 -0.7480
  271MOL0     H36555   9.327   5.889   4.493  0.2061 -0.2218  0.6405
  271MOL0     H36556   9.329   5.720   4.414 -4.1341 -2.1259 -2.8110
  271MOL0     H36557   9.121   5.674   4.570  0.9680 -3.1777  0.8129
  271MOL0     H36558   9.179   5.829   4.642  3.2381  1.7231 -0.3424
  271MOL0     H36559   9.389   5.621   4.589  2.5824  2.1276 -0.1307
  271MOL0     H36560   9.370   5.728   4.733 -0.2801  1.0275 -1.1556
  271MOL0     H36561   9.179   5.551   4.802 -2.2983 -0.4130 -3.0519
  271MOL0     H36562   9.346   5.530   4.824 -0.0481 -0.5015 -0.9008
  271MOL0     H36563   9.355   5.362   4.652  0.2390 -0.5246  2.1069
  271MOL0     H36564   9.202   5.335   4.730 -0.0793 -0.2105 -0.3604
  271MOL0     H36565   9.121   6.234   4.511  1.6309  3.0549  2.1767
  271MOL0     H36566   9.017   6.456   4.457 -0.3575  1.1422 -0.9963
  271MOL0     H36567   9.037   6.838   3.896  0.4019 -0.8448  0.7264
  271MOL0     H36568   9.031   7.085   3.898  0.0659 -1.0580 -0.4955
  271MOL0     H36569   7.899   7.361   4.690 -1.2133  0.6820 -0.9786
  271MOL0     H36570   7.906   7.160   4.575 -2.5867  0.7289 -3.6782
  271MOL0     H36571   7.938   7.067   4.132  0.1230 -0.9182 -1.2682
  271MOL0     H36572   7.780   7.003   3.947  1.5910 -0.1083  0.4151
  271MOL0     H36573   7.496   6.657   3.926 -1.1295  2.1485  1.3702
  271MOL0     H36574   7.661   6.656   3.987  0.5272  2.8912  1.7910
  271MOL0     H36575   7.753   6.759   3.777  0.9884 -1.2318 -1.5806
  271MOL0     H36576   7.581   6.795   3.727  1.2355  0.8931  0.8805
  271MOL0     H36577   7.557   6.520   3.753 -2.2454  0.8279 -2.2136
  271MOL0     H36578   7.728   6.536   3.765  0.0495 -0.2140 -2.3698
  271MOL0     H36579   7.686   6.669   3.522 -2.5297 -1.5615 -3.7235
  271MOL0     H36580   7.769   6.514   3.564 -1.4313 -2.8677  2.3794
  271MOL0     H36581   7.416   6.339   3.453  2.4860 -1.4585 -0.4944
  271MOL0     H36582   7.586   6.728   4.213  0.1248  0.3366 -2.2651
  271MOL0     H36583   7.767   6.709   4.455  3.5649  2.8675  0.2233
  271MOL0     H36584   7.720   6.880   4.508 -0.6883  2.2408 -2.3367
  271MOL0     H36585   7.607   6.776   4.424 -0.5651  1.7309  0.3450
  272MOL0     O36586   7.537   6.688   8.435  0.7308  0.4088 -0.0471
  272MOL0     C36587   7.608   6.590   8.438 -0.7883 -0.3516 -0.4570
  272MOL0     O36588   7.700   6.564   8.538 -0.5556 -0.8253 -1.0143
  272MOL0     C36589   7.734   6.660   8.626 -0.5804 -1.5186 -0.6772
  272MOL0     C36590   7.754   6.799   8.591  0.5482 -0.7148  0.3664
  272MOL0     C36591   7.811   6.890   8.678  0.5609 -0.1977 -1.3541
  272MOL0     C36592   7.840   6.843   8.811  0.3417 -0.2726  0.1457
  272MOL0     O36593   7.902   6.912   8.912  0.4412  0.2538  0.0760
  272MOL0     C36594   8.040   6.963   8.880 -0.3357 -0.6828  0.1725
  272MOL0     C36595   8.133   6.851   8.895  0.4281 -0.2140  0.8774
  272MOL0     C36596   8.284   6.869   8.930 -0.0719 -0.6235 -0.4414
  272MOL0     C36597   8.371   6.748   8.991  0.1459 -0.2907 -0.0806
  272MOL0     C36598   8.521   6.772   9.007  0.2782  0.6560  0.4880
  272MOL0     C36599   8.608   6.789   8.881  0.9297 -0.0679  0.2261
  272MOL0     C36600   8.752   6.794   8.928  0.3015 -0.5272  0.5615
  272MOL0     C36601   8.847   6.812   8.812  0.1189 -0.2842  0.2546
  272MOL0     N36602   8.857   6.937   8.736  0.7747  0.1381  0.3216
  272MOL0     C36603   8.810   7.055   8.775  0.5233  0.8054  0.7068
  272MOL0     C36604   8.814   7.147   8.679  0.2991  0.3519 -0.0403
  272MOL0     C36605   8.749   7.287   8.680 -0.4250  0.4180  0.1226
  272MOL0     C36606   8.812   7.379   8.567  0.6179  0.0806  0.6400
  272MOL0     C36607   8.960   7.402   8.585 -0.7339  0.8495 -0.4990
  272MOL0     C36608   9.048   7.309   8.500  0.3671 -0.8547 -0.4444
  272MOL0     O36609   9.189   7.345   8.492  0.2427  0.7942 -0.2695
  272MOL0     C36610   9.233   7.438   8.400  0.5149  0.3284  0.5623
  272MOL0     C36611   9.145   7.515   8.312  0.7339  0.0864  0.0171
  272MOL0     C36612   9.207   7.595   8.221  0.8202 -0.0582 -1.1281
  272MOL0     C36613   9.345   7.600   8.207  0.0835 -1.1567 -0.1591
  272MOL0     C36614   9.416   7.682   8.097  0.3991 -0.5313  0.2430
  272MOL0     O36615   9.555   7.682   8.090  0.3204 -0.5730 -0.0675
  272MOL0     C36616   9.632   7.778   8.028 -0.3901  0.7029 -0.4562
  272MOL0     C36617   9.579   7.906   7.997  0.0524  1.7939 -0.3290
  272MOL0     C36618   9.654   8.004   7.938 -1.1458  0.7034 -0.6058
  272MOL0     C36619   9.787   7.985   7.891  1.1154  0.7414 -0.7002
  272MOL0     O36620   9.856   8.078   7.819 -0.5407  0.1897 -0.5024
  272MOL0     C36621   9.805   8.214   7.817  0.0427 -0.2513  0.6829
  272MOL0     C36622   9.787   8.294   7.954 -0.1428  0.3696  0.3932
  272MOL0     C36623   9.779   8.447   7.932 -0.2088 -0.7223 -0.0785
  272MOL0     C36624   9.751   8.510   8.067  0.8658 -0.1466  0.2295
  272MOL0     C36625   9.706   8.653   8.072 -0.2112  0.7052 -0.0539
  272MOL0     C36626   9.686   8.715   8.217  0.7370  1.0225  0.8891
  272MOL0     C36627   9.819   8.734   8.276 -0.3408  0.4881  0.1609
  272MOL0     C36628   9.821   8.782   8.420 -0.2068 -0.9176 -0.1041
  272MOL0    Cl36629   9.821   8.654   8.521 -0.5279  0.7644  0.1314
  272MOL0     C36630   9.842   7.862   7.920  0.3554 -0.7267  0.0995
  272MOL0     C36631   9.769   7.758   7.990 -0.8944 -0.2483  0.1698
  272MOL0     O36632   9.342   7.718   8.006  0.3803  0.6101 -0.0469
  272MOL0     C36633   9.430   7.523   8.286  0.5494  0.7849  0.3773
  272MOL0     C36634   9.379   7.444   8.390  0.2823  0.0215  0.6207
  272MOL0     N36635   8.857   7.072   8.568  0.2417 -0.0101 -0.2266
  272MOL0     N36636   8.890   6.950   8.607 -0.2367  0.4975 -0.1910
  272MOL0     C36637   7.804   6.713   8.854 -0.5418 -0.1804  1.1449
  272MOL0     C36638   7.761   6.620   8.750  0.6254 -0.3044 -0.4641
  272MOL0     C36639   7.584   6.480   8.352 -0.6460 -0.7313  0.0916
  272MOL0     C36640   7.673   6.373   8.354 -0.6436 -0.3476 -0.8845
  272MOL0     C36641   7.669   6.278   8.248 -0.7286 -0.7655 -0.1866
  272MOL0     C36642   7.578   6.271   8.145 -0.8943  0.8614 -1.4007
  272MOL0     O36643   7.580   6.170   8.059  0.9279  1.2062 -0.5353
  272MOL0     C36644   7.451   6.121   8.009  0.8853  0.1632 -0.4339
  272MOL0     C36645   7.462   6.007   7.904  1.1604 -0.4090  1.5102
  272MOL0     C36646   7.551   6.041   7.786  0.1289  0.6272 -0.3301
  272MOL0     C36647   7.564   5.923   7.678 -0.4930 -0.3618 -0.2194
  272MOL0     C36648   7.678   5.837   7.725  0.0062 -0.8991  0.3283
  272MOL0     C36649   7.780   5.776   7.765  1.0052  0.2788  0.0952
  272MOL0     C36650   7.484   6.376   8.148 -0.5683 -0.0713  0.9822
  272MOL0     C36651   7.483   6.476   8.252  0.5184  0.3885 -0.0317
  272MOL0     C36652   7.361   6.569   8.241 -1.3704 -0.7694 -0.0289
  272MOL0     H36653   7.726   6.824   8.489  0.7927 -1.2750  0.1622
  272MOL0     H36654   7.826   6.990   8.640 -0.4058  0.1478 -0.8588
  272MOL0     H36655   8.045   7.004   8.778  1.9310 -1.8045 -0.2156
  272MOL0     H36656   8.066   7.041   8.952  2.8624 -2.5681  1.2191
  272MOL0     H36657   8.114   6.782   8.813  0.3186  1.9716 -1.0593
  272MOL0     H36658   8.095   6.798   8.983 -1.9248  1.3514  0.9141
  272MOL0     H36659   8.291   6.950   9.004  0.1645 -0.5223 -0.5758
  272MOL0     H36660   8.331   6.911   8.841 -1.9924 -1.7977 -2.0795
  272MOL0     H36661   8.339   6.733   9.094  1.3357 -0.3301  0.2954
  272MOL0     H36662   8.357   6.664   8.922  0.1217  0.7564 -1.4031
  272MOL0     H36663   8.522   6.868   9.059 -1.5983  0.4249  1.0379
  272MOL0     H36664   8.552   6.681   9.058 -0.3347  0.0512 -0.1880
  272MOL0     H36665   8.588   6.706   8.813 -1.8415  1.3231 -0.8194
  272MOL0     H36666   8.571   6.876   8.827  2.7122 -0.6937 -2.1312
  272MOL0     H36667   8.773   6.700   8.979 -0.9020 -2.4826 -2.2918
  272MOL0     H36668   8.774   6.882   8.990 -1.2782  0.8834 -0.7979
  272MOL0     H36669   8.950   6.794   8.844 -0.2254  0.1758  1.7141
  272MOL0     H36670   8.810   6.742   8.736 -2.0011  0.7614  0.2440
  272MOL0     H36671   8.767   7.071   8.873  0.9784 -0.9046  1.2085
  272MOL0     H36672   8.642   7.281   8.662 -0.1045  0.9169 -2.2883
  272MOL0     H36673   8.763   7.319   8.784 -2.1217 -1.6006  1.0497
  272MOL0     H36674   8.786   7.342   8.468  2.3153 -0.3616  0.3254
  272MOL0     H36675   8.758   7.474   8.566  2.3073  1.0868  0.0818
  272MOL0     H36676   8.992   7.393   8.689 -0.5561 -3.6245 -0.7613
  272MOL0     H36677   8.991   7.501   8.550  0.0068  0.6361 -0.4685
  272MOL0     H36678   8.998   7.303   8.403  1.4160 -3.1499 -0.9077
  272MOL0     H36679   9.044   7.206   8.535 -1.5273 -1.1750 -1.4981
  272MOL0     H36680   9.037   7.527   8.322  0.5277 -1.7632  0.3746
  272MOL0     H36681   9.145   7.668   8.170  1.9693 -0.2941 -2.9374
  272MOL0     H36682   9.479   7.925   8.034  0.5744 -1.0563  3.1629
  272MOL0     H36683   9.600   8.097   7.922  0.3852  2.2211  2.2340
  272MOL0     H36684   9.889   8.268   7.772 -1.2623  0.7138 -0.6700
  272MOL0     H36685   9.712   8.222   7.760 -0.4717 -0.8821  1.4144
  272MOL0     H36686   9.694   8.266   8.003 -2.6140  1.2793 -3.3958
  272MOL0     H36687   9.871   8.276   8.022  0.0550  0.5492  0.2002
  272MOL0     H36688   9.874   8.486   7.895  0.1146  1.0999  2.4218
  272MOL0     H36689   9.704   8.488   7.864 -0.7955  1.3641  1.7107
  272MOL0     H36690   9.836   8.484   8.130 -0.4145  0.5156  2.3193
  272MOL0     H36691   9.672   8.461   8.125  1.7133 -1.2509  0.4972
  272MOL0     H36692   9.610   8.662   8.022 -0.5201 -2.4831 -0.1937
  272MOL0     H36693   9.772   8.726   8.023 -2.0133  2.9942  0.7210
  272MOL0     H36694   9.643   8.812   8.191 -0.4932  0.4494  0.7435
  272MOL0     H36695   9.612   8.661   8.276  2.3721 -1.2775  0.9919
  272MOL0     H36696   9.890   8.795   8.219 -0.2540 -1.1333 -1.5733
  272MOL0     H36697   9.869   8.637   8.272  0.4517  0.9182 -2.3586
  272MOL0     H36698   9.905   8.844   8.451 -0.3502 -1.1143  0.7271
  272MOL0     H36699   9.736   8.845   8.447  2.1809  1.3695  2.7462
  272MOL0     H36700   9.943   7.838   7.888  1.7082  4.7197 -0.7401
  272MOL0     H36701   9.805   7.660   8.021 -0.6643  0.2241  1.4216
  272MOL0     H36702   9.538   7.526   8.270  0.3115  3.4629 -1.3476
  272MOL0     H36703   9.440   7.386   8.458 -1.7260 -1.7551  1.0229
  272MOL0     H36704   7.803   6.684   8.959  0.7957 -1.9017  0.7391
  272MOL0     H36705   7.715   6.528   8.783  2.2206 -1.3004 -0.9182
  272MOL0     H36706   7.741   6.355   8.436 -0.2170  0.8066 -0.9607
  272MOL0     H36707   7.742   6.199   8.258 -2.3279 -2.1001  1.5340
  272MOL0     H36708   7.408   6.205   7.954  2.5984 -0.2213 -2.4876
  272MOL0     H36709   7.375   6.098   8.084 -1.0402 -1.8927 -2.8484
  272MOL0     H36710   7.363   5.970   7.876  0.8478 -0.2163  2.3131
  272MOL0     H36711   7.509   5.923   7.955 -0.8582 -3.0299 -0.6413
  272MOL0     H36712   7.653   6.052   7.824 -0.3690  0.0654  1.2370
  272MOL0     H36713   7.525   6.133   7.732 -0.4467  0.7595  0.1615
  272MOL0     H36714   7.470   5.868   7.670 -1.5850  1.2518  0.8884
  272MOL0     H36715   7.594   5.964   7.581 -1.8774 -0.0051 -0.5264
  272MOL0     H36716   7.865   5.718   7.794 -0.4039 -3.5123 -2.5260
  272MOL0     H36717   7.404   6.394   8.077  0.1404 -0.9917 -0.0712
  272MOL0     H36718   7.286   6.518   8.180 -1.8926 -0.5721  0.4410
  272MOL0     H36719   7.316   6.578   8.341  0.4259 -2.0852  0.9515
  272MOL0     H36720   7.386   6.662   8.188  1.5175 -2.1979 -1.3818
  273MOL0     O36721   0.093   9.383   6.133 -0.8896  0.0169  0.3644
  273MOL0     C36722   0.025   9.471   6.082  0.5127 -0.0027 -0.0773
  273MOL0     O36723   0.052   9.539   5.962 -0.1219  0.2598  0.5525
  273MOL0     C36724   0.163   9.507   5.892  1.0705  0.3695 -0.2512
  273MOL0     C36725   0.170   9.375   5.844 -0.6412  0.8804  0.7777
  273MOL0     C36726   0.275   9.340   5.777  0.3585  0.5184  0.4466
  273MOL0     C36727   0.375   9.432   5.738  0.5519  0.0142 -0.0198
  273MOL0     O36728   0.481   9.379   5.663  0.2034 -0.7151  0.1118
  273MOL0     C36729   0.607   9.459   5.668 -0.0915  0.1742  0.4970
  273MOL0     C36730   0.684   9.440   5.537 -0.1826  0.8042  0.4068
  273MOL0     C36731   0.826   9.492   5.533 -0.2820  0.5372 -0.1390
  273MOL0     C36732   0.904   9.448   5.413 -0.2063  0.3397 -0.2302
  273MOL0     C36733   1.019   9.531   5.381  0.2066  0.5589 -0.2511
  273MOL0     C36734   1.095   9.490   5.253  0.4061  1.3378  0.5602
  273MOL0     C36735   1.210   9.398   5.286  0.3343  0.1808  0.0495
  273MOL0     C36736   1.288   9.360   5.161  0.3222  0.2476  0.3844
  273MOL0     N36737   1.374   9.238   5.191  0.0502 -0.0845 -0.8409
  273MOL0     C36738   1.332   9.117   5.238 -0.8449 -0.7125 -0.4698
  273MOL0     C36739   1.454   9.048   5.267  0.4807 -0.4890 -0.5758
  273MOL0     C36740   1.460   8.901   5.318 -0.0933  0.3232 -0.1716
  273MOL0     C36741   1.418   8.894   5.463  0.6566  0.2510 -1.0237
  273MOL0     C36742   1.286   8.813   5.470 -0.4435 -0.4468  0.1260
  273MOL0     C36743   1.233   8.810   5.621  0.0633  0.0435 -0.3456
  273MOL0     O36744   1.119   8.726   5.619 -0.4909  0.6783  0.1681
  273MOL0     C36745   1.011   8.724   5.704 -0.5211  0.0338  0.0632
  273MOL0     C36746   0.895   8.655   5.661  0.3519  0.8571  0.3824
  273MOL0     C36747   0.788   8.629   5.755  0.2905  0.1206  0.3292
  273MOL0     C36748   0.797   8.689   5.878 -0.3039 -0.1613  0.2095
  273MOL0     C36749   0.702   8.645   5.975  0.2468 -0.6658 -0.3530
  273MOL0     O36750   0.703   8.719   6.091  0.1408 -0.1778  0.7530
  273MOL0     C36751   0.619   8.669   6.191  1.0227 -0.9303  0.6578
  273MOL0     C36752   0.492   8.730   6.202  0.1285 -0.6315 -0.3932
  273MOL0     C36753   0.395   8.697   6.300  0.5923  0.5581 -0.0438
  273MOL0     C36754   0.430   8.595   6.391 -0.5112 -0.5838 -0.2583
  273MOL0     O36755   0.347   8.575   6.495  0.2570 -0.2857  0.4811
  273MOL0     C36756   0.279   8.454   6.494  0.3077 -0.4045 -0.1010
  273MOL0     C36757   0.164   8.483   6.588  0.8744  0.0984 -0.4287
  273MOL0     C36758   0.074   8.598   6.533 -0.3465 -0.8146 -0.1191
  273MOL0     C36759  -0.043   8.631   6.618 -0.0165  0.9637 -0.4114
  273MOL0     C36760  -0.140   8.744   6.572  0.0453 -0.7127 -0.9867
  273MOL0     C36761  -0.231   8.802   6.689 -0.4197 -0.3587  0.2196
  273MOL0     C36762  -0.152   8.846   6.811 -0.2913  0.7574  0.6088
  273MOL0     C36763  -0.223   8.938   6.915 -0.4862 -0.4170  0.0385
  273MOL0    Cl36764  -0.377   8.869   6.969  0.5989  0.1032 -0.0538
  273MOL0     C36765   0.552   8.522   6.371 -0.6238  0.0643 -0.1231
  273MOL0     C36766   0.636   8.557   6.269 -0.3845 -0.4382  0.0202
  273MOL0     O36767   0.620   8.557   5.944  0.2279 -0.2187  0.4944
  273MOL0     C36768   0.894   8.784   5.911 -0.3613  1.0707  0.7510
  273MOL0     C36769   1.007   8.798   5.820 -0.1638  0.2723 -0.3747
  273MOL0     N36770   1.564   9.118   5.229 -0.2787  0.2846 -0.4417
  273MOL0     N36771   1.514   9.230   5.184  0.2163  0.3878  0.1379
  273MOL0     C36772   0.369   9.568   5.788  0.2869  0.7659 -0.1404
  273MOL0     C36773   0.252   9.608   5.862 -0.1694 -0.2213  0.1766
  273MOL0     C36774  -0.109   9.500   6.138 -0.6743  0.1887 -0.4253
  273MOL0     C36775  -0.200   9.583   6.069  0.4044 -0.2349 -0.0121
  273MOL0     C36776  -0.326   9.630   6.119 -0.1720 -1.3719  0.0766
  273MOL0     C36777  -0.376   9.576   6.240 -0.0579  0.1701  0.6391
  273MOL0     O36778  -0.505   9.586   6.301 -0.6992  0.8328  0.3462
  273MOL0     C36779  -0.614   9.582   6.203 -0.8027  0.3545 -0.7809
  273MOL0     C36780  -0.744   9.614   6.277  0.4345  0.0161 -0.1356
  273MOL0     C36781  -0.758   9.535   6.405  0.4072 -0.3076  0.2968
  273MOL0     C36782  -0.758   9.377   6.396 -0.3077 -0.0679  0.0100
  273MOL0     C36783  -0.857   9.328   6.300  0.4196  0.2341  0.2679
  273MOL0     C36784  -0.920   9.286   6.200  1.2179  0.1131 -0.7541
  273MOL0     C36785  -0.284   9.498   6.315  0.2221  0.4581  0.0147
  273MOL0     C36786  -0.154   9.469   6.270 -0.8162  0.4839  0.0092
  273MOL0     C36787  -0.051   9.405   6.384  1.1142  0.6461  0.7510
  273MOL0     H36788   0.099   9.298   5.874 -0.0639 -0.4178 -1.0389
  273MOL0     H36789   0.284   9.236   5.746  2.4224  1.3747 -2.1854
  273MOL0     H36790   0.593   9.568   5.659 -0.1146  0.4309  2.9548
  273MOL0     H36791   0.670   9.430   5.753  1.2657  1.9071  0.1488
  273MOL0     H36792   0.625   9.472   5.451  2.2014 -0.8211 -1.9690
  273MOL0     H36793   0.700   9.333   5.523 -0.1367  1.1316 -2.5889
  273MOL0     H36794   0.882   9.455   5.620 -3.1023 -2.9238  0.4025
  273MOL0     H36795   0.816   9.601   5.529  1.3149  0.7321  0.3031
  273MOL0     H36796   0.932   9.343   5.425 -1.0730  0.2078  0.8017
  273MOL0     H36797   0.835   9.474   5.332  1.0154  1.8284 -0.8440
  273MOL0     H36798   0.987   9.635   5.369 -1.4156  0.3490  1.7178
  273MOL0     H36799   1.088   9.519   5.465  1.1660  1.7371 -0.8498
  273MOL0     H36800   1.024   9.437   5.189 -0.7996 -1.8454  4.2037
  273MOL0     H36801   1.128   9.580   5.199 -1.2565  1.4100 -0.4134
  273MOL0     H36802   1.161   9.313   5.334 -1.8446  2.5090  2.2928
  273MOL0     H36803   1.273   9.456   5.355 -0.0855 -0.2857  0.8332
  273MOL0     H36804   1.226   9.330   5.076  1.2089 -4.3059  1.0462
  273MOL0     H36805   1.345   9.442   5.117  0.7486 -0.7487 -0.9844
  273MOL0     H36806   1.234   9.074   5.254 -1.0602  0.6382  2.3874
  273MOL0     H36807   1.398   8.846   5.247  2.7209  1.6315 -3.9225
  273MOL0     H36808   1.563   8.863   5.313 -0.6146 -1.3540  0.9103
  273MOL0     H36809   1.497   8.839   5.516 -0.2420  0.0394  0.1460
  273MOL0     H36810   1.408   8.994   5.507  2.5198  0.7157 -1.5730
  273MOL0     H36811   1.325   8.718   5.432  4.5160  0.5923  1.8546
  273MOL0     H36812   1.213   8.863   5.406 -1.1500 -0.5748  0.8195
  273MOL0     H36813   1.219   8.913   5.654  1.4715  0.0928  0.1869
  273MOL0     H36814   1.308   8.770   5.690 -2.3003 -2.7559  0.8095
  273MOL0     H36815   0.885   8.620   5.559  0.4417  0.5282  0.4871
  273MOL0     H36816   0.707   8.567   5.719 -2.1296  3.6707 -0.8282
  273MOL0     H36817   0.463   8.817   6.144 -3.2316 -1.4595 -0.1814
  273MOL0     H36818   0.308   8.762   6.304  1.9156  2.3674  2.4212
  273MOL0     H36819   0.249   8.435   6.390 -0.4477  0.2932 -0.0241
  273MOL0     H36820   0.342   8.372   6.527  0.9541  0.6478  1.3974
  273MOL0     H36821   0.104   8.392   6.602  0.0818  0.4771 -1.2554
  273MOL0     H36822   0.195   8.512   6.689 -0.2446  1.7083 -0.5119
  273MOL0     H36823   0.145   8.681   6.536 -0.1405 -1.0077  0.9581
  273MOL0     H36824   0.033   8.581   6.433  0.8984 -1.8326 -0.4683
  273MOL0     H36825  -0.016   8.648   6.723 -0.1673 -0.6384 -0.0835
  273MOL0     H36826  -0.100   8.537   6.617  3.2313 -1.1611 -1.4954
  273MOL0     H36827  -0.213   8.709   6.500  0.5253 -1.8290 -0.9476
  273MOL0     H36828  -0.081   8.827   6.530  2.5771 -1.6074  0.5399
  273MOL0     H36829  -0.275   8.894   6.650 -1.4147 -0.5937  0.7622
  273MOL0     H36830  -0.304   8.723   6.708  0.3237 -0.5620  2.5001
  273MOL0     H36831  -0.062   8.902   6.782 -0.6484 -0.5228 -3.6369
  273MOL0     H36832  -0.128   8.758   6.871  3.2380  1.2836  0.2231
  273MOL0     H36833  -0.154   8.953   6.999 -0.5714  3.0439 -0.3610
  273MOL0     H36834  -0.251   9.037   6.878  2.4791  0.1866 -0.9337
  273MOL0     H36835   0.575   8.439   6.438  0.9849  0.3829 -0.2375
  273MOL0     H36836   0.733   8.513   6.249  0.4297  1.1300  0.4004
  273MOL0     H36837   0.897   8.835   6.007 -3.9841  2.8387  0.1218
  273MOL0     H36838   1.084   8.868   5.851 -0.0504 -1.0669  2.7880
  273MOL0     H36839   0.444   9.641   5.759 -0.8387  1.9212 -0.2310
  273MOL0     H36840   0.230   9.708   5.898  3.8219  1.0613 -0.4725
  273MOL0     H36841  -0.170   9.614   5.969  1.0988 -1.2191 -0.1227
  273MOL0     H36842  -0.384   9.696   6.055 -0.7565 -1.4768  0.4891
  273MOL0     H36843  -0.599   9.483   6.159 -0.3329  0.1175 -0.1028
  273MOL0     H36844  -0.606   9.647   6.116  1.0816 -0.4864 -1.3002
  273MOL0     H36845  -0.823   9.594   6.203  1.8300  0.8040 -1.8927
  273MOL0     H36846  -0.746   9.721   6.299 -0.0587  0.0807 -0.4935
  273MOL0     H36847  -0.852   9.562   6.454  0.0529 -1.4042  0.2562
  273MOL0     H36848  -0.682   9.568   6.476 -3.4695 -0.5056  5.0824
  273MOL0     H36849  -0.662   9.343   6.358 -1.6259 -1.5794 -2.1363
  273MOL0     H36850  -0.775   9.333   6.495 -2.2169 -0.3489 -0.4056
  273MOL0     H36851  -0.957   9.249   6.107 -0.0624  1.4232 -0.8053
  273MOL0     H36852  -0.327   9.476   6.412  0.3942 -1.1426 -0.2467
  273MOL0     H36853  -0.104   9.361   6.469  2.6689 -1.2713  0.7854
  273MOL0     H36854  -0.004   9.316   6.343  1.2507  1.9027 -2.0439
  273MOL0     H36855   0.019   9.475   6.430  1.3390  2.0142 -1.5316
  274MOL0     O36856   4.845   3.713  10.991  0.3625  0.5983 -0.1987
  274MOL0     C36857   4.723   3.749  10.983  0.4859 -0.2530  0.7399
  274MOL0     O36858   4.664   3.841  11.058 -0.4175  0.4499  0.5228
  274MOL0     C36859   4.729   3.928  11.144  0.5504 -0.6801 -0.9585
  274MOL0     C36860   4.725   4.062  11.117  0.1204 -0.2913  0.4103
  274MOL0     C36861   4.792   4.156  11.189 -0.4900 -0.2003  0.5883
  274MOL0     C36862   4.871   4.116  11.296 -0.7940 -1.3521 -0.5917
  274MOL0     O36863   4.943   4.217  11.360  0.0133  0.2909 -0.0590
  274MOL0     C36864   5.034   4.284  11.266  0.0256  0.4118  1.0425
  274MOL0     C36865   5.150   4.318  11.355 -0.3493 -0.3809  0.6009
  274MOL0     C36866   5.252   4.422  11.307  0.0207 -0.4385 -1.1488
  274MOL0     C36867   5.202   4.569  11.331 -1.5627 -0.4747 -0.0764
  274MOL0     C36868   5.239   4.668  11.219  0.3264  0.8693  0.5534
  274MOL0     C36869   5.149   4.652  11.089 -1.1896 -0.0744 -0.5073
  274MOL0     C36870   4.989   4.666  11.106 -0.1527  0.4287 -0.1401
  274MOL0     C36871   4.911   4.660  10.963 -0.7660 -0.1724 -0.0054
  274MOL0     N36872   4.792   4.740  10.971  0.6996 -0.3178  0.0241
  274MOL0     C36873   4.667   4.692  10.960 -0.0444  1.4571  0.4475
  274MOL0     C36874   4.594   4.796  10.970 -0.0442  1.1184  0.1804
  274MOL0     C36875   4.441   4.785  11.000 -0.0006  0.4322 -0.3713
  274MOL0     C36876   4.391   4.784  11.141 -1.0036  0.3449 -0.5499
  274MOL0     C36877   4.447   4.662  11.207  0.6624 -0.3671 -0.8445
  274MOL0     C36878   4.343   4.603  11.301 -0.2128 -0.5317  0.1808
  274MOL0     O36879   4.355   4.657  11.431  0.9622  0.4343 -0.6471
  274MOL0     C36880   4.256   4.612  11.521  0.2205  0.8645  0.4148
  274MOL0     C36881   4.155   4.511  11.500  0.1071  0.8841 -0.0188
  274MOL0     C36882   4.064   4.465  11.585 -0.0852 -0.4303 -0.6306
  274MOL0     C36883   4.061   4.523  11.718  0.4654  0.1891 -0.5026
  274MOL0     C36884   3.963   4.478  11.831  0.5327  0.1291  0.6372
  274MOL0     O36885   3.955   4.572  11.928  0.1035 -0.1419  0.0617
  274MOL0     C36886   3.868   4.547  12.033  0.0503 -0.1937 -0.7378
  274MOL0     C36887   3.725   4.553  12.018 -0.0357 -0.2462  0.9595
  274MOL0     C36888   3.631   4.542  12.118 -0.7257 -0.1887 -0.8862
  274MOL0     C36889   3.684   4.534  12.251  0.8993 -0.5290 -0.5933
  274MOL0     O36890   3.602   4.529  12.366  0.2689  0.3632 -0.1467
  274MOL0     C36891   3.462   4.514  12.362  0.0078  0.1478  0.2787
  274MOL0     C36892   3.405   4.374  12.351 -0.5875  0.2214  0.3015
  274MOL0     C36893   3.257   4.386  12.321  0.1376 -0.1218 -0.4133
  274MOL0     C36894   3.191   4.255  12.289 -0.0468  0.3953 -0.8657
  274MOL0     C36895   3.045   4.264  12.233 -0.1295 -0.2789  0.2634
  274MOL0     C36896   2.948   4.315  12.351  0.1329  0.1955  0.1749
  274MOL0     C36897   2.808   4.318  12.293 -0.0741 -0.2794  0.4961
  274MOL0     C36898   2.694   4.344  12.397  0.5016  0.4575  0.0228
  274MOL0    Cl36899   2.690   4.275  12.559  0.8840 -0.1634 -0.1503
  274MOL0     C36900   3.816   4.541  12.276 -0.1430  0.6582  0.1630
  274MOL0     C36901   3.907   4.552  12.165  0.8520  0.7437  1.5017
  274MOL0     O36902   3.909   4.368  11.826 -0.9002 -0.7607  0.9627
  274MOL0     C36903   4.167   4.609  11.746 -0.2564 -0.3984 -0.6984
  274MOL0     C36904   4.258   4.649  11.649  0.6248 -0.7004 -0.0841
  274MOL0     N36905   4.668   4.911  10.967 -0.3972  0.2334 -0.0523
  274MOL0     N36906   4.790   4.874  10.961  0.6688 -0.2439 -1.3980
  274MOL0     C36907   4.865   3.984  11.342  0.4052 -0.1978 -0.2178
  274MOL0     C36908   4.793   3.892  11.266 -0.7237 -0.3604  0.3941
  274MOL0     C36909   4.646   3.710  10.854 -0.0279 -0.6276 -0.2717
  274MOL0     C36910   4.588   3.820  10.787 -0.6069  0.3149  0.1502
  274MOL0     C36911   4.514   3.801  10.666  0.1378  0.1243 -0.8353
  274MOL0     C36912   4.501   3.674  10.615 -0.8359 -0.8516  0.5795
  274MOL0     O36913   4.431   3.673  10.499 -0.5379  0.1672  0.6305
  274MOL0     C36914   4.392   3.545  10.436  0.6991 -0.6830 -0.9438
  274MOL0     C36915   4.307   3.576  10.316  0.5837  0.0563  0.5174
  274MOL0     C36916   4.168   3.637  10.366  0.0807  0.2380  0.9958
  274MOL0     C36917   4.061   3.651  10.254  0.0229  0.3106  0.6723
  274MOL0     C36918   3.950   3.743  10.299  0.2847 -0.7092  0.2433
  274MOL0     C36919   3.872   3.820  10.346  0.4602 -0.6436  0.4311
  274MOL0     C36920   4.566   3.575  10.679 -0.2492  0.3016  0.3957
  274MOL0     C36921   4.634   3.581  10.802 -0.1649 -0.2071  0.1638
  274MOL0     C36922   4.685   3.450  10.870 -0.0999  0.4784 -0.5205
  274MOL0     H36923   4.666   4.078  11.027 -0.8765 -0.2468  1.0444
  274MOL0     H36924   4.802   4.258  11.153  2.6190 -0.3861  0.6588
  274MOL0     H36925   5.066   4.222  11.182  3.0086  1.6231  1.1511
  274MOL0     H36926   4.992   4.372  11.218  1.4886  0.6681  0.1881
  274MOL0     H36927   5.205   4.224  11.368  2.0936  1.0979  1.5589
  274MOL0     H36928   5.112   4.349  11.452 -2.3023  1.1072 -0.5611
  274MOL0     H36929   5.286   4.401  11.205 -3.3536 -1.6999 -2.1466
  274MOL0     H36930   5.348   4.412  11.357 -1.1213 -1.3271  1.0181
  274MOL0     H36931   5.096   4.580  11.355 -1.1086  4.3186  0.6823
  274MOL0     H36932   5.254   4.592  11.424 -1.1509  0.6180 -0.5630
  274MOL0     H36933   5.239   4.773  11.248  0.4832  1.4173 -1.3056
  274MOL0     H36934   5.339   4.639  11.187 -0.7718 -0.9164 -1.6023
  274MOL0     H36935   5.184   4.720  11.011  0.0038 -1.5098 -1.2786
  274MOL0     H36936   5.166   4.550  11.053  3.0848  0.4848 -0.5743
  274MOL0     H36937   4.981   4.768  11.145  3.9284  0.6788  0.5204
  274MOL0     H36938   4.953   4.591  11.178 -1.5169  2.2927  1.2139
  274MOL0     H36939   4.971   4.686  10.875 -0.8001  0.0554  0.0400
  274MOL0     H36940   4.883   4.554  10.960 -0.6783 -0.2880  1.8456
  274MOL0     H36941   4.640   4.587  10.951  3.4386  0.4077  0.8393
  274MOL0     H36942   4.396   4.874  10.956 -0.1749  0.1106 -0.8588
  274MOL0     H36943   4.414   4.696  10.943  0.1469  0.4885 -0.5317
  274MOL0     H36944   4.429   4.875  11.188 -3.5832  2.9112 -2.9839
  274MOL0     H36945   4.282   4.793  11.145 -1.1566 -1.1854 -0.5532
  274MOL0     H36946   4.530   4.694  11.271 -1.9055  3.5272  0.9222
  274MOL0     H36947   4.483   4.593  11.131  1.3907  0.4509 -1.2570
  274MOL0     H36948   4.361   4.496  11.318  0.9439 -0.8647 -2.6832
  274MOL0     H36949   4.243   4.611  11.257 -0.2075  1.6912  0.4573
  274MOL0     H36950   4.148   4.483  11.396 -1.2242 -2.5797  0.8576
  274MOL0     H36951   3.988   4.391  11.562  0.0527 -0.6853 -0.2714
  274MOL0     H36952   3.683   4.561  11.919  1.2046 -1.6494  0.2866
  274MOL0     H36953   3.528   4.539  12.084 -0.8194  2.4571 -1.0828
  274MOL0     H36954   3.432   4.552  12.460  1.5219 -0.5021  1.0284
  274MOL0     H36955   3.424   4.570  12.276  1.2797 -0.8221 -0.9581
  274MOL0     H36956   3.458   4.322  12.270  0.1088  0.8534  0.3390
  274MOL0     H36957   3.423   4.321  12.446  2.9355  2.7376  1.2375
  274MOL0     H36958   3.212   4.419  12.415  1.9947 -2.3142  1.3653
  274MOL0     H36959   3.250   4.453  12.236  3.5785  3.4467  1.7598
  274MOL0     H36960   3.190   4.189  12.376 -0.9886  1.7529  0.1854
  274MOL0     H36961   3.247   4.193  12.218  0.2628  0.4704 -0.6909
  274MOL0     H36962   3.002   4.172  12.192 -4.4074  0.3757  2.6603
  274MOL0     H36963   3.047   4.335  12.150 -0.2438 -0.5274  0.0446
  274MOL0     H36964   2.938   4.248  12.436 -0.7276  2.2768  1.7996
  274MOL0     H36965   2.983   4.410  12.392 -1.4730  1.2650 -0.7773
  274MOL0     H36966   2.784   4.226  12.239  0.6742  0.6626 -1.5303
  274MOL0     H36967   2.800   4.400  12.220  3.0166 -0.2097  0.1332
  274MOL0     H36968   2.699   4.452  12.412  0.6243  0.1163  3.0924
  274MOL0     H36969   2.598   4.330  12.347  0.4857 -1.1402  0.4663
  274MOL0     H36970   3.845   4.521  12.379  1.3111 -1.7841 -0.6484
  274MOL0     H36971   4.014   4.538  12.181  0.2425 -4.4391  2.8479
  274MOL0     H36972   4.188   4.651  11.844  1.9156 -2.4179 -0.1976
  274MOL0     H36973   4.342   4.715  11.670  2.0913 -3.0785  2.1132
  274MOL0     H36974   4.922   3.957  11.430  2.3271 -1.0986 -1.6870
  274MOL0     H36975   4.787   3.788  11.295 -2.8026 -0.5320 -0.4877
  274MOL0     H36976   4.618   3.917  10.824 -0.9042  0.7070 -0.6194
  274MOL0     H36977   4.466   3.884  10.614 -3.1117  0.1027  1.7832
  274MOL0     H36978   4.324   3.494  10.504  1.6194 -0.2529  0.3249
  274MOL0     H36979   4.475   3.481  10.406  1.9737  0.3172  0.3027
  274MOL0     H36980   4.291   3.477  10.272  1.2713 -0.2103  0.8471
  274MOL0     H36981   4.365   3.645  10.254  0.4593  1.5454  1.9878
  274MOL0     H36982   4.189   3.734  10.413 -0.2813  0.5455  0.5294
  274MOL0     H36983   4.135   3.571  10.447  0.9824 -0.0351  1.1507
  274MOL0     H36984   4.115   3.673  10.161 -0.8961 -1.4164 -0.3385
  274MOL0     H36985   4.009   3.559  10.227 -1.3442  1.7039 -1.8016
  274MOL0     H36986   3.786   3.869  10.386  0.1019 -3.0685  2.9717
  274MOL0     H36987   4.589   3.482  10.627 -1.9949  0.0143  0.0687
  274MOL0     H36988   4.601   3.380  10.880 -0.5935  0.8997 -1.6116
  274MOL0     H36989   4.762   3.404  10.807  0.0420 -1.7073  1.1113
  274MOL0     H36990   4.738   3.467  10.965  2.6082  4.2339 -2.4654
  275MOL0     O36991   0.890   4.120   0.146  0.4075 -0.6532 -0.6013
  275MOL0     C36992   0.926   4.098   0.264 -0.8088 -0.5641  0.7894
  275MOL0     O36993   1.061   4.118   0.297  0.1804 -0.7788  0.2429
  275MOL0     C36994   1.128   4.215   0.221 -0.2903  0.3289 -0.0613
  275MOL0     C36995   1.251   4.172   0.164 -0.2677  0.3465 -0.2280
  275MOL0     C36996   1.328   4.265   0.094  0.1603 -0.0261  0.2325
  275MOL0     C36997   1.275   4.404   0.090 -0.4628  1.0090  0.2084
  275MOL0     O36998   1.343   4.508   0.029 -0.4245  0.0435  0.1263
  275MOL0     C36999   1.353   4.468  -0.112  0.9051  0.2544 -0.3019
  275MOL0     C37000   1.497   4.518  -0.145  0.0417 -0.4988 -0.0332
  275MOL0     C37001   1.511   4.518  -0.296  0.7168 -0.5346  0.6157
  275MOL0     C37002   1.651   4.507  -0.353 -0.1096 -0.0240  0.8995
  275MOL0     C37003   1.645   4.510  -0.504  0.5991  0.8649  0.6864
  275MOL0     C37004   1.780   4.555  -0.570 -0.3282  0.1089  0.7952
  275MOL0     C37005   1.760   4.575  -0.723 -0.0759  0.0526  0.1656
  275MOL0     C37006   1.717   4.452  -0.791  0.1221 -0.5398  1.4138
  275MOL0     N37007   1.829   4.386  -0.859 -0.1113  0.0489 -0.2619
  275MOL0     C37008   1.928   4.305  -0.803 -0.9439  0.0995 -0.6469
  275MOL0     C37009   2.007   4.267  -0.909 -0.6035  0.8242 -0.1807
  275MOL0     C37010   2.138   4.186  -0.898  0.4509  0.2054  0.8195
  275MOL0     C37011   2.122   4.045  -0.837 -0.1463 -0.2182  0.3416
  275MOL0     C37012   2.075   4.039  -0.693  0.6664  0.1954  0.4975
  275MOL0     C37013   2.083   3.898  -0.626 -0.4577  0.0545 -0.8258
  275MOL0     O37014   2.100   3.917  -0.486  1.4375  0.8699 -0.0792
  275MOL0     C37015   2.082   3.795  -0.420  0.8252 -0.1281  0.5346
  275MOL0     C37016   2.059   3.815  -0.285 -0.9243  0.3593 -0.7583
  275MOL0     C37017   2.037   3.705  -0.202 -0.5265  0.5503 -0.7627
  275MOL0     C37018   2.018   3.578  -0.247 -0.2243  0.6344  0.3698
  275MOL0     C37019   1.996   3.461  -0.162  0.1477 -0.3670  0.1253
  275MOL0     O37020   1.961   3.353  -0.225 -0.3584  0.7051  0.2801
  275MOL0     C37021   1.942   3.229  -0.165  0.2004 -0.8789 -0.2561
  275MOL0     C37022   2.026   3.185  -0.062  0.5618  0.4076  0.5480
  275MOL0     C37023   2.003   3.057  -0.009  0.1467 -0.6837 -0.2123
  275MOL0     C37024   1.903   2.970  -0.050 -0.0009  0.3560 -0.4808
  275MOL0     O37025   1.904   2.845   0.010 -0.1590  0.4749 -0.5202
  275MOL0     C37026   1.795   2.757  -0.030 -0.8388  0.1278 -0.1735
  275MOL0     C37027   1.840   2.610   0.003 -1.0639  0.1687  1.3557
  275MOL0     C37028   1.728   2.510  -0.039  0.2924  0.3673 -0.1450
  275MOL0     C37029   1.605   2.510   0.072 -0.1702  1.1531  0.2126
  275MOL0     C37030   1.469   2.506   0.008  0.2127 -0.1435 -0.2909
  275MOL0     C37031   1.453   2.384  -0.093  1.2416 -0.5711 -0.1904
  275MOL0     C37032   1.305   2.367  -0.129  0.1471  0.2105 -0.6115
  275MOL0     C37033   1.278   2.230  -0.205  0.2991 -0.4203 -0.4211
  275MOL0    Cl37034   1.104   2.243  -0.251 -0.3753  0.0804  0.1207
  275MOL0     C37035   1.822   3.020  -0.154 -1.0990 -0.0225  0.5660
  275MOL0     C37036   1.842   3.147  -0.210  0.1711  0.2124  0.4674
  275MOL0     O37037   2.009   3.476  -0.046  0.6154 -0.1072  0.1428
  275MOL0     C37038   2.034   3.560  -0.385 -0.3573 -1.5933  0.6136
  275MOL0     C37039   2.072   3.665  -0.475 -0.2002  0.0053 -1.2510
  275MOL0     N37040   1.955   4.329  -1.016  0.4405 -0.3366  0.5417
  275MOL0     N37041   1.850   4.407  -0.991 -0.7532  0.4058  0.6276
  275MOL0     C37042   1.166   4.444   0.162 -0.2740  0.1844 -0.0188
  275MOL0     C37043   1.096   4.349   0.238  0.6533  0.4776  1.6736
  275MOL0     C37044   0.831   4.038   0.367 -0.3468 -0.8234 -0.2744
  275MOL0     C37045   0.858   4.074   0.497 -0.7127  0.1315  0.3647
  275MOL0     C37046   0.774   4.041   0.598 -0.6089  0.1877  0.0300
  275MOL0     C37047   0.646   3.994   0.570  0.2224  0.0371  0.6032
  275MOL0     O37048   0.546   3.987   0.670 -0.0712 -0.4735 -0.5457
  275MOL0     C37049   0.415   3.945   0.634 -1.5339 -0.7370  0.4418
  275MOL0     C37050   0.338   3.920   0.760 -0.3309 -1.4475 -1.4436
  275MOL0     C37051   0.301   4.040   0.846 -0.1876  1.4149  0.2313
  275MOL0     C37052   0.208   4.017   0.961 -0.7808  0.8113 -0.9758
  275MOL0     C37053   0.157   4.137   1.013  0.3752  0.2271  0.4611
  275MOL0     C37054   0.106   4.245   1.012  1.0540 -0.5583 -0.0245
  275MOL0     C37055   0.622   3.952   0.435  0.1529 -0.8684 -0.0122
  275MOL0     C37056   0.710   3.979   0.331 -0.3938  0.5674 -0.3014
  275MOL0     C37057   0.656   3.947   0.190 -0.7359 -0.3580  0.6964
  275MOL0     H37058   1.272   4.065   0.168  1.9179  0.7738  1.3803
  275MOL0     H37059   1.415   4.239   0.034  0.6829  3.1414 -0.5784
  275MOL0     H37060   1.328   4.366  -0.142 -4.6896  2.2308 -4.0265
  275MOL0     H37061   1.290   4.530  -0.176 -1.2888 -0.8602  0.6742
  275MOL0     H37062   1.570   4.456  -0.091 -1.5234 -0.9967  1.6291
  275MOL0     H37063   1.515   4.621  -0.113 -0.6260 -0.7636  1.2757
  275MOL0     H37064   1.453   4.604  -0.331 -1.2819 -0.9103  2.6787
  275MOL0     H37065   1.453   4.432  -0.330 -2.5186  1.1399  1.3781
  275MOL0     H37066   1.715   4.586  -0.314 -1.9069  1.5938  0.7317
  275MOL0     H37067   1.691   4.411  -0.321 -0.9855  0.2216  2.9009
  275MOL0     H37068   1.620   4.408  -0.536 -0.7954  0.6409  2.3164
  275MOL0     H37069   1.567   4.573  -0.548  1.6727  0.9803 -1.1202
  275MOL0     H37070   1.819   4.644  -0.521  2.5902 -2.3968  3.4377
  275MOL0     H37071   1.847   4.476  -0.536  1.0766  0.7619 -0.3785
  275MOL0     H37072   1.844   4.634  -0.760 -0.0446  1.8431  2.7861
  275MOL0     H37073   1.684   4.654  -0.731  2.7364  3.0839  1.1458
  275MOL0     H37074   1.671   4.383  -0.720 -1.1812 -0.7420  0.4187
  275MOL0     H37075   1.637   4.488  -0.857 -0.0515 -0.8312  1.4652
  275MOL0     H37076   1.934   4.285  -0.696 -1.5161 -1.4165 -0.8680
  275MOL0     H37077   2.182   4.176  -0.998  1.2463  4.6862  0.5564
  275MOL0     H37078   2.205   4.252  -0.843  0.8678  2.5786 -2.2868
  275MOL0     H37079   2.049   3.993  -0.901 -0.5509  2.4863 -1.5647
  275MOL0     H37080   2.221   3.998  -0.838 -1.2814 -2.8142 -0.7314
  275MOL0     H37081   1.969   4.066  -0.687  0.9415  2.2019 -2.0335
  275MOL0     H37082   2.133   4.105  -0.628  2.9188  0.2138 -1.4107
  275MOL0     H37083   2.163   3.837  -0.669 -0.6582 -0.2128 -0.8231
  275MOL0     H37084   1.996   3.834  -0.645 -0.6080  0.6343 -2.1616
  275MOL0     H37085   2.070   3.914  -0.241  2.4824  0.6394 -1.8981
  275MOL0     H37086   2.032   3.721  -0.094  0.6777  1.1474 -0.7790
  275MOL0     H37087   2.118   3.236  -0.033  0.1989  0.2039  2.1246
  275MOL0     H37088   2.073   3.043   0.072  0.2377  0.0469 -0.1552
  275MOL0     H37089   1.715   2.798   0.031  1.0615  0.5274  2.2040
  275MOL0     H37090   1.757   2.761  -0.133 -3.0054  0.1850  0.5821
  275MOL0     H37091   1.927   2.586  -0.059 -1.3704 -4.4831  2.3316
  275MOL0     H37092   1.876   2.602   0.106 -2.9045  2.1817  2.2251
  275MOL0     H37093   1.691   2.530  -0.140  0.1808 -0.3452 -0.2525
  275MOL0     H37094   1.769   2.408  -0.046 -3.7366 -1.4347 -0.1631
  275MOL0     H37095   1.597   2.600   0.133 -0.6399  0.6800  0.8537
  275MOL0     H37096   1.629   2.434   0.147 -2.9669  0.6228  0.6774
  275MOL0     H37097   1.466   2.608  -0.033  2.7624 -1.0268 -2.9917
  275MOL0     H37098   1.395   2.493   0.088 -1.3270  0.7428 -1.5076
  275MOL0     H37099   1.501   2.410  -0.188  2.4108  0.6165  0.6890
  275MOL0     H37100   1.500   2.291  -0.059  3.8702 -0.2857 -2.6128
  275MOL0     H37101   1.269   2.444  -0.198 -0.1825  0.5436 -0.0752
  275MOL0     H37102   1.247   2.369  -0.036  1.1427  1.7295  0.0142
  275MOL0     H37103   1.336   2.230  -0.297 -1.3579  1.8837 -1.5521
  275MOL0     H37104   1.305   2.146  -0.141  1.1798  1.6635  2.1536
  275MOL0     H37105   1.740   2.956  -0.184  0.6179 -1.5278 -1.2220
  275MOL0     H37106   1.772   3.188  -0.283 -1.3740  1.6040  2.6147
  275MOL0     H37107   2.023   3.456  -0.415  2.0192 -1.8639  0.4461
  275MOL0     H37108   2.090   3.652  -0.581  1.3213  0.0834 -1.0250
  275MOL0     H37109   1.159   4.552   0.159  2.9427  0.4960 -0.4295
  275MOL0     H37110   1.011   4.388   0.292 -0.4982  0.0320  0.2488
  275MOL0     H37111   0.957   4.116   0.511 -0.6518 -0.2747  1.1791
  275MOL0     H37112   0.793   4.045   0.705  2.4406 -2.5768 -0.2567
  275MOL0     H37113   0.415   3.855   0.573  2.6062 -0.4272 -0.3299
  275MOL0     H37114   0.367   4.028   0.583 -3.8787 -3.0698 -1.4113
  275MOL0     H37115   0.400   3.857   0.825  0.0543  1.0696  0.7945
  275MOL0     H37116   0.248   3.859   0.755 -3.2667  1.9161  2.9620
  275MOL0     H37117   0.274   4.129   0.788  2.0665  1.0656 -1.4773
  275MOL0     H37118   0.392   4.074   0.897  0.2255 -0.0361  0.4874
  275MOL0     H37119   0.126   3.959   0.919 -1.0786  3.8671 -5.2869
  275MOL0     H37120   0.256   3.960   1.041 -3.3672 -0.1157  0.0247
  275MOL0     H37121   0.066   4.344   1.015 -0.0828 -1.0160  2.4255
  275MOL0     H37122   0.527   3.912   0.402 -1.1378  2.2286 -0.3619
  275MOL0     H37123   0.656   4.041   0.134 -1.6562 -1.3556 -1.0703
  275MOL0     H37124   0.725   3.884   0.133  0.1939  1.4582 -0.2751
  275MOL0     H37125   0.552   3.912   0.197 -1.1905  1.2800  4.0312
  276MOL0     O37126  11.493   8.741   5.691 -0.6339  0.6899  0.1721
  276MOL0     C37127  11.522   8.681   5.791  1.2395  0.0806  0.4175
  276MOL0     O37128  11.627   8.598   5.810 -0.2268 -0.2847 -0.0255
  276MOL0     C37129  11.719   8.553   5.717  0.1177 -0.8925 -0.4619
  276MOL0     C37130  11.703   8.543   5.573  1.0178  0.7393 -0.8508
  276MOL0     C37131  11.809   8.493   5.492  0.0371  0.8246  0.2819
  276MOL0     C37132  11.939   8.459   5.551  0.5486  0.0694  0.5086
  276MOL0     O37133  12.056   8.414   5.489  0.1296 -0.2494 -0.8710
  276MOL0     C37134  12.074   8.458   5.350 -0.5982 -0.6511 -0.1803
  276MOL0     C37135  12.023   8.354   5.247 -0.2895 -0.2498 -0.4999
  276MOL0     C37136  12.008   8.406   5.105 -0.2529  0.1111  0.6438
  276MOL0     C37137  12.146   8.426   5.035  0.3993  0.6610 -0.2045
  276MOL0     C37138  12.120   8.478   4.885  1.8775 -0.2093  0.4760
  276MOL0     C37139  12.247   8.500   4.811 -0.5903 -0.0083 -0.1116
  276MOL0     C37140  12.316   8.365   4.770  0.4655  0.1187  0.2047
  276MOL0     C37141  12.442   8.393   4.691  0.2912 -0.1593 -0.2717
  276MOL0     N37142  12.556   8.293   4.697 -0.5834  0.3790 -0.6397
  276MOL0     C37143  12.647   8.275   4.800 -0.4474 -0.2751 -0.2886
  276MOL0     C37144  12.702   8.156   4.779 -0.1622 -0.2755  0.0586
  276MOL0     C37145  12.803   8.081   4.869 -0.8507  0.5234  0.5337
  276MOL0     C37146  12.949   8.116   4.828 -0.1639 -0.6134  0.6247
  276MOL0     C37147  13.055   8.071   4.927 -1.2034  0.5583  0.3569
  276MOL0     C37148  13.194   8.127   4.897 -0.4922  0.0496  0.1229
  276MOL0     O37149  13.219   8.085   4.761 -1.0431 -0.1366  0.2059
  276MOL0     C37150  13.258   7.960   4.744  0.5677  1.1485  0.1350
  276MOL0     C37151  13.372   7.911   4.814  0.6648  0.3283 -0.2771
  276MOL0     C37152  13.421   7.780   4.805  0.6511 -0.2399  0.1311
  276MOL0     C37153  13.352   7.695   4.721  0.0875  0.4529 -0.8584
  276MOL0     C37154  13.381   7.551   4.700  0.1724 -0.3280 -0.5899
  276MOL0     O37155  13.297   7.467   4.632  0.4082  0.3582  0.9082
  276MOL0     C37156  13.311   7.325   4.626 -0.4072  0.4520 -0.0044
  276MOL0     C37157  13.386   7.240   4.719  0.4969 -0.5668 -0.3245
  276MOL0     C37158  13.372   7.105   4.712 -0.1731  0.6400  0.0941
  276MOL0     C37159  13.286   7.047   4.619 -0.1238  0.3892  0.2168
  276MOL0     O37160  13.258   6.912   4.606  0.2700 -0.1509  0.1596
  276MOL0     C37161  13.343   6.815   4.673 -0.7808  0.1165  0.6662
  276MOL0     C37162  13.281   6.765   4.813  0.5728  0.5225  0.1719
  276MOL0     C37163  13.135   6.721   4.793  0.1856 -0.1923 -0.1907
  276MOL0     C37164  13.065   6.674   4.920 -0.2430 -0.6545  0.4637
  276MOL0     C37165  12.930   6.623   4.897  0.8970  0.4444 -0.4350
  276MOL0     C37166  12.877   6.560   5.026 -0.1041  0.4596 -0.9336
  276MOL0     C37167  12.739   6.484   5.001 -1.4586 -0.1371 -0.0401
  276MOL0     C37168  12.627   6.555   5.077 -0.3680  0.2933  0.5613
  276MOL0    Cl37169  12.657   6.554   5.243 -0.7049  0.3810 -0.5067
  276MOL0     C37170  13.220   7.123   4.521  0.4735 -0.2927  0.4842
  276MOL0     C37171  13.229   7.264   4.522 -0.0016  0.2584  0.0714
  276MOL0     O37172  13.489   7.524   4.748 -0.3207  0.1843  0.0037
  276MOL0     C37173  13.237   7.743   4.646 -0.3126  0.5013 -0.3319
  276MOL0     C37174  13.187   7.872   4.660  1.0752  0.7296  0.2570
  276MOL0     N37175  12.652   8.097   4.662  1.1049 -0.7389 -0.6462
  276MOL0     N37176  12.565   8.185   4.611  0.1015  0.0519  0.2694
  276MOL0     C37177  11.945   8.473   5.686 -1.4900  0.4908 -0.5198
  276MOL0     C37178  11.848   8.517   5.765  0.6562  0.5998  0.5129
  276MOL0     C37179  11.437   8.686   5.910 -0.3211  0.9759  0.0564
  276MOL0     C37180  11.420   8.559   5.980  0.5733 -0.8582  0.5396
  276MOL0     C37181  11.322   8.540   6.078 -0.2096  0.1385 -0.8530
  276MOL0     C37182  11.237   8.649   6.111 -0.0775 -0.2116 -0.1803
  276MOL0     O37183  11.129   8.652   6.201  0.1563 -0.2357 -0.5596
  276MOL0     C37184  11.120   8.532   6.286  0.2453 -0.0004 -1.2395
  276MOL0     C37185  11.050   8.582   6.411 -0.1534  0.0307  1.7698
  276MOL0     C37186  11.020   8.470   6.513 -0.6844  0.3534 -0.2352
  276MOL0     C37187  10.914   8.521   6.618 -0.9469 -0.7732 -0.4970
  276MOL0     C37188  10.943   8.663   6.663  0.2675 -1.2947  0.0584
  276MOL0     C37189  10.955   8.771   6.717 -0.5476 -1.3178  0.1152
  276MOL0     C37190  11.249   8.771   6.044  0.7040  0.0210  0.7142
  276MOL0     C37191  11.354   8.798   5.949  0.3881  0.0971 -1.2036
  276MOL0     C37192  11.353   8.920   5.872  0.2754 -0.2564 -0.0883
  276MOL0     H37193  11.604   8.574   5.541  0.3197  1.9920  2.1820
  276MOL0     H37194  11.819   8.471   5.386  4.6110 -0.5610  0.7651
  276MOL0     H37195  12.018   8.550   5.332 -2.3699 -1.1062  2.5128
  276MOL0     H37196  12.182   8.466   5.334 -0.5820 -0.0575  0.2227
  276MOL0     H37197  11.932   8.301   5.278  0.0920 -1.2989 -1.1155
  276MOL0     H37198  12.095   8.273   5.255  1.3456  1.3643  3.5423
  276MOL0     H37199  11.952   8.500   5.102  2.7897  2.0553  0.1893
  276MOL0     H37200  11.949   8.328   5.054  0.2037  0.2196 -0.0701
  276MOL0     H37201  12.207   8.499   5.090  0.4894 -0.1822  0.8538
  276MOL0     H37202  12.210   8.338   5.038  2.4502  2.1150  2.0595
  276MOL0     H37203  12.054   8.416   4.824  1.7041  0.8717 -0.4645
  276MOL0     H37204  12.063   8.571   4.899 -0.8915 -1.9846  1.9923
  276MOL0     H37205  12.228   8.566   4.726 -1.6067  2.7838  2.1162
  276MOL0     H37206  12.320   8.552   4.874  0.6483 -1.4522 -0.2960
  276MOL0     H37207  12.242   8.308   4.714  1.7234 -1.0726 -0.3100
  276MOL0     H37208  12.343   8.301   4.855  0.5999 -1.1048 -0.7454
  276MOL0     H37209  12.408   8.421   4.591 -0.1763  1.0207  0.2060
  276MOL0     H37210  12.492   8.476   4.742  3.5605 -3.5136  2.5910
  276MOL0     H37211  12.652   8.333   4.892  0.1412 -0.2682 -0.3244
  276MOL0     H37212  12.783   8.110   4.973  2.1727  2.7109  0.6339
  276MOL0     H37213  12.791   7.972   4.869  0.3814  0.2460  4.3403
  276MOL0     H37214  12.973   8.095   4.723  0.0983 -0.3826  0.6378
  276MOL0     H37215  12.956   8.225   4.824 -0.3748 -0.5805  1.1219
  276MOL0     H37216  13.058   7.962   4.934 -0.4647  0.6786  2.7359
  276MOL0     H37217  13.039   8.105   5.030  0.7339  0.1446  0.8452
  276MOL0     H37218  13.275   8.111   4.969  0.3962  4.7525  0.4875
  276MOL0     H37219  13.178   8.235   4.897 -0.6435  0.1387  3.5430
  276MOL0     H37220  13.424   7.978   4.882  1.2945  1.0244 -1.4116
  276MOL0     H37221  13.506   7.736   4.855  2.7860 -1.8142 -4.3812
  276MOL0     H37222  13.451   7.281   4.796  0.4625  1.3690 -1.2537
  276MOL0     H37223  13.434   7.043   4.776 -1.1869  1.4660  1.9778
  276MOL0     H37224  13.355   6.734   4.601  1.7529 -0.1422  1.2632
  276MOL0     H37225  13.443   6.859   4.686 -1.0131  1.3682 -1.3721
  276MOL0     H37226  13.331   6.677   4.853  1.9183  0.7618 -0.9183
  276MOL0     H37227  13.284   6.850   4.883 -1.1144  1.0217 -0.2985
  276MOL0     H37228  13.079   6.806   4.752  0.2229  0.7972  1.6712
  276MOL0     H37229  13.144   6.635   4.727  2.7438  1.9036 -2.8093
  276MOL0     H37230  13.059   6.758   4.990  0.0133 -0.3896  0.1749
  276MOL0     H37231  13.122   6.594   4.967 -2.1444 -1.1640  1.9711
  276MOL0     H37232  12.944   6.551   4.816  0.8138  2.1554 -2.0117
  276MOL0     H37233  12.859   6.699   4.867 -1.6651 -2.3859 -2.1052
  276MOL0     H37234  12.948   6.487   5.066  1.2222  1.7964 -0.7626
  276MOL0     H37235  12.867   6.638   5.102  1.2930 -0.7883  0.6242
  276MOL0     H37236  12.752   6.379   5.028 -1.4488 -0.6761 -2.0120
  276MOL0     H37237  12.716   6.487   4.894 -0.7664 -1.2829 -0.2341
  276MOL0     H37238  12.618   6.657   5.039 -2.8465 -0.1461 -0.1879
  276MOL0     H37239  12.530   6.508   5.059 -1.2568  1.6662  1.6204
  276MOL0     H37240  13.141   7.078   4.461  2.2205 -0.1160 -2.1325
  276MOL0     H37241  13.193   7.335   4.449  0.4905 -0.3698 -0.8085
  276MOL0     H37242  13.186   7.677   4.577  2.2692  0.2676 -2.1904
  276MOL0     H37243  13.095   7.902   4.612  1.3272  1.2854  0.1098
  276MOL0     H37244  12.040   8.447   5.731 -1.9531  1.9840  1.4741
  276MOL0     H37245  11.870   8.511   5.871  0.4374 -0.1316  0.5221
  276MOL0     H37246  11.478   8.470   5.956  3.1722  1.2798 -1.9028
  276MOL0     H37247  11.300   8.440   6.114 -0.2557  0.5815  0.4315
  276MOL0     H37248  11.218   8.491   6.313  0.5117 -0.4473 -2.7872
  276MOL0     H37249  11.071   8.444   6.245 -0.4660 -1.2430  1.9420
  276MOL0     H37250  10.958   8.634   6.384  1.8039  2.4413 -0.8261
  276MOL0     H37251  11.120   8.656   6.450  1.5800 -3.0427  5.1927
  276MOL0     H37252  11.120   8.449   6.553 -0.0992  0.3848 -1.6107
  276MOL0     H37253  10.994   8.376   6.464 -0.3694 -1.1696  2.3039
  276MOL0     H37254  10.814   8.517   6.575 -0.9034  2.2840 -1.0897
  276MOL0     H37255  10.909   8.454   6.705 -1.1407 -0.3301 -0.1596
  276MOL0     H37256  10.967   8.870   6.755  5.1023 -2.2866  1.8621
  276MOL0     H37257  11.180   8.853   6.062  0.9842 -0.0938  2.5191
  276MOL0     H37258  11.294   9.001   5.917 -0.6659  0.7249 -2.8782
  276MOL0     H37259  11.451   8.969   5.864 -0.6862  1.6241 -1.2850
  276MOL0     H37260  11.315   8.887   5.775 -1.4434  0.6166  0.2480
  277MOL0     O37261   7.753   3.574   5.644  0.5356  0.2409  0.0205
  277MOL0     C37262   7.788   3.601   5.763  0.1180  0.6637  0.3930
  277MOL0     O37263   7.913   3.593   5.811 -0.7242 -0.5768 -0.3913
  277MOL0     C37264   8.011   3.528   5.751 -0.2884  0.4542  0.0471
  277MOL0     C37265   8.135   3.590   5.723  0.4246  0.3523 -0.2948
  277MOL0     C37266   8.243   3.516   5.662  0.8389 -0.6291 -0.2215
  277MOL0     C37267   8.234   3.380   5.644 -0.2452 -0.2494 -0.1433
  277MOL0     O37268   8.338   3.303   5.599 -0.4673  0.1131  0.3541
  277MOL0     C37269   8.420   3.352   5.489 -0.3707 -0.4648 -0.1005
  277MOL0     C37270   8.481   3.227   5.424 -0.3429 -0.5983 -0.4200
  277MOL0     C37271   8.371   3.134   5.370  0.5476  0.5088  0.2652
  277MOL0     C37272   8.446   3.026   5.290  0.3499 -0.2051 -0.1972
  277MOL0     C37273   8.553   2.938   5.366  0.1192 -0.0988  0.6374
  277MOL0     C37274   8.590   2.817   5.279  0.4734  0.4017  0.8746
  277MOL0     C37275   8.668   2.705   5.358  0.6346  0.4020 -0.4167
  277MOL0     C37276   8.587   2.639   5.460 -0.0503  0.8531  0.2788
  277MOL0     N37277   8.454   2.613   5.412 -0.1326  0.2368 -0.8508
  277MOL0     C37278   8.350   2.659   5.488 -0.4682 -0.0554 -0.6110
  277MOL0     C37279   8.245   2.586   5.438 -0.3210  0.3438 -0.8600
  277MOL0     C37280   8.089   2.589   5.461 -0.9635 -0.2746  0.5144
  277MOL0     C37281   8.040   2.504   5.582  1.2411  1.6155  0.2853
  277MOL0     C37282   7.968   2.376   5.520  0.5836 -0.0496  0.8044
  277MOL0     C37283   7.954   2.277   5.636 -0.2481 -0.4320 -1.4923
  277MOL0     O37284   7.876   2.335   5.741  0.2999 -0.7629  0.8554
  277MOL0     C37285   7.808   2.250   5.824  0.5464 -0.6126  0.2628
  277MOL0     C37286   7.857   2.119   5.847 -0.4692  0.4001 -0.0667
  277MOL0     C37287   7.783   2.037   5.936 -0.7589  0.1637  0.9009
  277MOL0     C37288   7.673   2.075   6.000  0.5208  0.4206  0.0930
  277MOL0     C37289   7.604   1.983   6.089 -0.0876  0.2831 -0.9721
  277MOL0     O37290   7.492   2.036   6.158 -0.5873  0.1098 -0.1600
  277MOL0     C37291   7.475   1.971   6.275  0.1858 -0.4995 -0.1447
  277MOL0     C37292   7.370   1.877   6.283  0.2058 -1.1473  0.6315
  277MOL0     C37293   7.345   1.807   6.399 -0.0344  0.6716 -0.7337
  277MOL0     C37294   7.425   1.832   6.516 -0.7811  0.2729 -0.1654
  277MOL0     O37295   7.394   1.771   6.645 -0.2672 -0.0659 -0.0060
  277MOL0     C37296   7.513   1.736   6.717  0.0435 -0.1513 -0.0072
  277MOL0     C37297   7.602   1.645   6.651 -0.0988 -0.1669  0.1467
  277MOL0     C37298   7.522   1.520   6.598 -0.4215 -0.3495 -0.1864
  277MOL0     C37299   7.483   1.421   6.714  0.1786 -0.4597 -0.8505
  277MOL0     C37300   7.418   1.293   6.673 -0.6488  0.2447  0.3232
  277MOL0     C37301   7.281   1.289   6.610 -0.6104  0.4108 -0.7229
  277MOL0     C37302   7.246   1.147   6.600  0.1413 -0.2887 -0.1340
  277MOL0     C37303   7.099   1.124   6.571 -0.0697 -0.1810 -0.6529
  277MOL0    Cl37304   7.021   1.152   6.734 -0.0222 -0.4944  0.3055
  277MOL0     C37305   7.540   1.926   6.490 -0.5799  0.5490 -0.7073
  277MOL0     C37306   7.563   2.000   6.381  0.1564 -1.0031  0.0968
  277MOL0     O37307   7.642   1.868   6.111 -0.7579  0.8136  0.3142
  277MOL0     C37308   7.622   2.210   5.974  0.3878 -0.1316 -0.2982
  277MOL0     C37309   7.693   2.297   5.891 -0.6005  0.5009  0.1302
  277MOL0     N37310   8.297   2.479   5.363 -0.1799 -0.0303 -0.5250
  277MOL0     N37311   8.420   2.500   5.342  0.1817  0.0313 -0.7506
  277MOL0     C37312   8.108   3.320   5.659  0.1371 -0.3261 -0.2521
  277MOL0     C37313   7.995   3.392   5.716  0.2013  0.5833  0.0853
  277MOL0     C37314   7.695   3.675   5.840  0.4114  0.3937 -0.2810
  277MOL0     C37315   7.597   3.758   5.777  0.3997 -0.4186  0.1519
  277MOL0     C37316   7.503   3.833   5.849 -0.0079 -0.4020  0.2572
  277MOL0     C37317   7.495   3.819   5.988  0.5312 -0.0352 -0.1126
  277MOL0     O37318   7.391   3.882   6.052  0.7056  0.6872 -0.3635
  277MOL0     C37319   7.357   3.849   6.192 -0.4705  0.0693  0.6741
  277MOL0     C37320   7.218   3.904   6.224  0.5285 -1.4022 -0.5757
  277MOL0     C37321   7.106   3.823   6.173  0.0523 -0.3357 -0.1292
  277MOL0     C37322   6.977   3.904   6.145  0.1493  0.2496  0.0780
  277MOL0     C37323   6.919   3.966   6.273  0.1342  0.0730  0.4632
  277MOL0     C37324   6.895   4.002   6.395 -0.4652  0.5891  1.0390
  277MOL0     C37325   7.576   3.722   6.045 -0.2890  0.8414  0.7209
  277MOL0     C37326   7.675   3.655   5.973 -0.7903  0.1876 -0.3828
  277MOL0     C37327   7.755   3.555   6.050 -0.5055 -0.2177 -0.2776
  277MOL0     H37328   8.142   3.693   5.756  0.4385  1.3474 -3.1383
  277MOL0     H37329   8.332   3.572   5.631 -0.5636  2.2842  0.6250
  277MOL0     H37330   8.365   3.416   5.419 -0.8342 -0.1733  0.5198
  277MOL0     H37331   8.498   3.412   5.537 -1.1114 -1.4848  2.5598
  277MOL0     H37332   8.535   3.164   5.495 -0.4647 -1.5305 -1.1364
  277MOL0     H37333   8.541   3.265   5.340  1.1538  1.5469  1.5171
  277MOL0     H37334   8.304   3.187   5.302 -0.9905 -1.9355 -0.2380
  277MOL0     H37335   8.316   3.093   5.455  0.0565  0.6216  0.0090
  277MOL0     H37336   8.365   2.968   5.245 -0.6315  0.6336  0.4244
  277MOL0     H37337   8.496   3.074   5.206  0.4665 -0.5016 -0.2986
  277MOL0     H37338   8.645   2.988   5.396 -1.0894  2.2864  0.6435
  277MOL0     H37339   8.511   2.907   5.462  1.2342 -0.8522  0.8957
  277MOL0     H37340   8.513   2.772   5.216  3.0266 -1.3852 -1.1964
  277MOL0     H37341   8.668   2.861   5.216  0.9528  0.9504  1.8257
  277MOL0     H37342   8.752   2.751   5.410 -0.7974  1.2098  1.2698
  277MOL0     H37343   8.700   2.627   5.288  0.0275  1.5917 -2.0986
  277MOL0     H37344   8.636   2.546   5.488 -1.1516 -0.1907 -1.1374
  277MOL0     H37345   8.585   2.705   5.547 -1.4090 -1.1719  1.8843
  277MOL0     H37346   8.349   2.733   5.566 -0.1375 -1.6071  0.9293
  277MOL0     H37347   8.065   2.694   5.481 -3.3381 -0.5702 -0.4930
  277MOL0     H37348   8.032   2.568   5.370 -1.2082  2.2790  0.0135
  277MOL0     H37349   8.124   2.471   5.644  1.6786  0.9982 -0.6250
  277MOL0     H37350   7.977   2.560   5.652  2.4276  2.4232  0.7456
  277MOL0     H37351   8.028   2.344   5.434  1.0070 -1.0851  1.4639
  277MOL0     H37352   7.872   2.402   5.475  2.3367 -0.4592 -3.6566
  277MOL0     H37353   8.051   2.252   5.680 -0.0098  0.8884 -1.2368
  277MOL0     H37354   7.901   2.186   5.606 -1.0152 -0.0738 -1.2389
  277MOL0     H37355   7.940   2.077   5.791  1.2002 -0.3372  2.7194
  277MOL0     H37356   7.816   1.934   5.945 -0.1119  0.0824 -1.7057
  277MOL0     H37357   7.307   1.866   6.196 -0.8206  2.4018  0.7641
  277MOL0     H37358   7.266   1.734   6.414  1.4824 -0.9950 -0.5701
  277MOL0     H37359   7.573   1.816   6.762 -0.2121 -1.0136  2.0055
  277MOL0     H37360   7.495   1.671   6.804  1.3757 -1.4368 -0.6600
  277MOL0     H37361   7.659   1.699   6.575  0.9618 -1.9683 -0.3820
  277MOL0     H37362   7.674   1.619   6.729  2.1113  0.1334 -1.7230
  277MOL0     H37363   7.433   1.549   6.542  0.4675 -0.6540 -1.8286
  277MOL0     H37364   7.579   1.460   6.526  2.0429  0.0614  1.2766
  277MOL0     H37365   7.409   1.479   6.769 -0.2480 -3.6253  2.2378
  277MOL0     H37366   7.567   1.392   6.779  0.8048  1.0140 -0.9438
  277MOL0     H37367   7.416   1.230   6.762 -0.6580 -1.4789 -0.8566
  277MOL0     H37368   7.489   1.239   6.610 -0.9033  1.2827 -0.8841
  277MOL0     H37369   7.210   1.353   6.664  1.3192 -0.3861  3.2039
  277MOL0     H37370   7.288   1.333   6.511 -1.4108 -0.8566 -1.3682
  277MOL0     H37371   7.282   1.091   6.687  0.0708  3.5555  2.6306
  277MOL0     H37372   7.318   1.118   6.523  2.0039  2.1173  0.5919
  277MOL0     H37373   7.066   1.205   6.505  0.7306  0.5102 -0.2131
  277MOL0     H37374   7.067   1.027   6.531 -0.9283 -0.5656  0.8834
  277MOL0     H37375   7.593   1.961   6.578 -1.5796 -0.3914  0.3019
  277MOL0     H37376   7.636   2.081   6.377  1.8074 -2.4355  0.2208
  277MOL0     H37377   7.534   2.250   6.024 -0.1890 -1.7197  0.0211
  277MOL0     H37378   7.665   2.402   5.887  1.0923  1.0001  0.3558
  277MOL0     H37379   8.110   3.222   5.613  3.5662  0.4186 -2.0096
  277MOL0     H37380   7.894   3.352   5.715  0.2225  0.4886  0.9965
  277MOL0     H37381   7.597   3.768   5.669  0.6697  1.6716  0.3028
  277MOL0     H37382   7.418   3.888   5.811  1.1580  1.9894  0.9153
  277MOL0     H37383   7.437   3.893   6.253 -0.2906  0.5270  0.1193
  277MOL0     H37384   7.370   3.741   6.205 -0.2808 -0.4604 -3.0188
  277MOL0     H37385   7.202   4.008   6.196  1.4848 -0.5221  1.8340
  277MOL0     H37386   7.216   3.906   6.334  2.0353 -2.2001 -0.5135
  277MOL0     H37387   7.075   3.745   6.243 -3.2527  0.6269 -0.3756
  277MOL0     H37388   7.145   3.784   6.078 -0.9287  0.7257 -1.0044
  277MOL0     H37389   7.000   3.976   6.066  0.4868 -0.9169 -0.9305
  277MOL0     H37390   6.908   3.826   6.110 -3.1129  2.1102  1.8944
  277MOL0     H37391   6.878   4.018   6.500 -1.0268 -0.7546  1.1824
  277MOL0     H37392   7.561   3.697   6.150 -0.7447 -1.1408  0.2286
  277MOL0     H37393   7.860   3.585   6.059  0.7566 -4.0996 -0.1502
  277MOL0     H37394   7.717   3.544   6.152 -3.1735  1.3047 -0.9998
  277MOL0     H37395   7.739   3.456   6.005 -1.7032 -0.3858  0.4548
  278MOL0     O37396  10.078   0.893   3.969 -0.2293  0.0815 -0.2635
  278MOL0     C37397  10.188   0.890   4.023 -1.0757  0.4387  0.3717
  278MOL0     O37398  10.288   0.801   3.984 -0.1340 -0.2473  0.0092
  278MOL0     C37399  10.247   0.690   3.906 -0.4061 -0.2673  0.1743
  278MOL0     C37400  10.244   0.563   3.956  0.3526  0.1929  0.0565
  278MOL0     C37401  10.223   0.447   3.875 -0.4262  0.5630 -0.6191
  278MOL0     C37402  10.219   0.459   3.734 -0.1018  1.0679  0.3877
  278MOL0     O37403  10.183   0.352   3.656  0.5319  0.6158  0.1404
  278MOL0     C37404  10.181   0.363   3.511 -0.7850 -0.8412 -0.0576
  278MOL0     C37405  10.209   0.221   3.454  0.6853  0.4218  0.4437
  278MOL0     C37406  10.187   0.239   3.296  0.6944 -0.2562 -0.3587
  278MOL0     C37407  10.253   0.126   3.223 -0.6281 -0.5769 -0.3743
  278MOL0     C37408  10.275   0.157   3.068 -0.7797 -0.2299 -0.0776
  278MOL0     C37409  10.386   0.264   3.054 -0.1119 -0.8515  0.1038
  278MOL0     C37410  10.407   0.299   2.900 -0.2747  0.0658 -0.8562
  278MOL0     C37411  10.496   0.417   2.876 -0.2341  0.7763  0.1227
  278MOL0     N37412  10.431   0.540   2.915 -0.7377  0.7548  0.0252
  278MOL0     C37413  10.478   0.611   3.013 -0.6287 -0.1986 -0.3872
  278MOL0     C37414  10.398   0.720   3.026  0.2576  0.8453 -0.3926
  278MOL0     C37415  10.431   0.807   3.148 -0.2009  0.2773 -0.0104
  278MOL0     C37416  10.306   0.819   3.231  0.1698 -0.4128  0.2741
  278MOL0     C37417  10.337   0.887   3.368  0.4575  0.3888  0.0859
  278MOL0     C37418  10.218   0.921   3.450  0.9068 -1.0018  0.1314
  278MOL0     O37419  10.256   0.983   3.568  0.4499 -0.1808  0.6848
  278MOL0     C37420  10.257   1.121   3.587 -0.0138 -0.4941 -0.7013
  278MOL0     C37421  10.299   1.157   3.717 -0.0890 -1.1555 -0.5907
  278MOL0     C37422  10.284   1.287   3.759  1.0598 -0.6755 -0.3477
  278MOL0     C37423  10.235   1.384   3.680 -0.3363  0.3217  0.0867
  278MOL0     C37424  10.210   1.526   3.734  0.0793 -0.2531 -0.1800
  278MOL0     O37425  10.231   1.559   3.862  0.3391  0.2731 -0.2020
  278MOL0     C37426  10.157   1.644   3.935 -0.0558 -0.2004 -0.6450
  278MOL0     C37427  10.090   1.759   3.879  0.9801 -0.4290 -0.5486
  278MOL0     C37428  10.003   1.831   3.956  0.3629 -0.2395  0.1882
  278MOL0     C37429   9.972   1.793   4.082 -1.3561 -0.5025 -0.6443
  278MOL0     O37430   9.867   1.844   4.151 -0.9968 -0.3525 -0.3841
  278MOL0     C37431   9.823   1.983   4.140 -0.2806  0.1650  0.8679
  278MOL0     C37432   9.705   1.996   4.237  0.1860  0.0133 -0.8406
  278MOL0     C37433   9.676   2.154   4.259  0.0676  0.1012  0.5293
  278MOL0     C37434   9.625   2.228   4.129 -0.3390 -0.9005 -0.2176
  278MOL0     C37435   9.597   2.370   4.151  0.0002  0.3374  0.8969
  278MOL0     C37436   9.719   2.442   4.220  0.1979 -0.6405 -0.3966
  278MOL0     C37437   9.707   2.592   4.223  0.8784 -0.7755  0.5516
  278MOL0     C37438   9.833   2.651   4.289  0.4802 -0.2128 -0.3745
  278MOL0    Cl37439   9.997   2.565   4.263 -0.1693  0.2142 -0.2494
  278MOL0     C37440  10.053   1.698   4.153 -0.0869 -0.3463 -0.8779
  278MOL0     C37441  10.146   1.624   4.078  1.1317  0.0739  0.1940
  278MOL0     O37442  10.149   1.598   3.649 -0.5406 -0.3176 -0.4974
  278MOL0     C37443  10.202   1.349   3.545 -0.1549 -0.2689  0.0764
  278MOL0     C37444  10.213   1.217   3.498  0.6695 -0.6363 -0.1302
  278MOL0     N37445  10.293   0.699   2.940 -0.6071  0.2699  0.2617
  278MOL0     N37446  10.311   0.588   2.870 -0.4416  0.2747 -0.4669
  278MOL0     C37447  10.220   0.594   3.680  0.8433 -0.3566 -0.1757
  278MOL0     C37448  10.233   0.707   3.764  0.0034  0.0417  1.0518
  278MOL0     C37449  10.218   1.012   4.091 -0.0048  0.0062 -0.4224
  278MOL0     C37450  10.348   1.048   4.107  0.0761  0.3330 -0.6241
  278MOL0     C37451  10.390   1.172   4.154 -0.4273 -0.4185 -1.6973
  278MOL0     C37452  10.297   1.263   4.207  1.4001  0.3792 -0.3083
  278MOL0     O37453  10.337   1.386   4.243 -0.0185 -0.5636 -0.3313
  278MOL0     C37454  10.414   1.399   4.359  0.3563 -0.7782  0.4506
  278MOL0     C37455  10.312   1.409   4.488 -0.1523  0.0233  0.0073
  278MOL0     C37456  10.200   1.521   4.468 -0.5460  1.0068  0.1417
  278MOL0     C37457  10.124   1.535   4.600 -0.7180  0.6440  0.0278
  278MOL0     C37458  10.053   1.407   4.649 -0.0986 -0.1169  0.3775
  278MOL0     C37459   9.980   1.309   4.663  0.6839 -0.4121 -0.1295
  278MOL0     C37460  10.157   1.233   4.197 -0.1996  0.5203  0.0725
  278MOL0     C37461  10.119   1.105   4.145  0.0922 -1.2910 -0.0929
  278MOL0     C37462   9.962   1.074   4.146 -0.3810  0.1090  0.2288
  278MOL0     H37463  10.267   0.550   4.061  0.7674 -2.3948 -0.2891
  278MOL0     H37464  10.209   0.351   3.924 -1.3865 -1.6732 -4.8193
  278MOL0     H37465  10.082   0.395   3.477 -1.1557 -3.8389 -2.1683
  278MOL0     H37466  10.260   0.427   3.471 -2.8914  1.1292 -1.3173
  278MOL0     H37467  10.127   0.157   3.485  1.4693 -0.5988  0.4462
  278MOL0     H37468  10.309   0.189   3.483  1.4131  0.0398 -2.1927
  278MOL0     H37469  10.224   0.337   3.264 -0.0897 -0.7426 -3.0189
  278MOL0     H37470  10.081   0.242   3.272  0.0811 -2.1708  1.7834
  278MOL0     H37471  10.354   0.115   3.265 -1.5924 -2.1676  1.7205
  278MOL0     H37472  10.193   0.039   3.253 -1.2060  0.1357  0.6065
  278MOL0     H37473  10.280   0.061   3.015  1.0872  0.1140 -0.5849
  278MOL0     H37474  10.180   0.195   3.030 -1.1174 -1.8794 -0.9737
  278MOL0     H37475  10.357   0.358   3.104  2.5262  0.8665 -1.3732
  278MOL0     H37476  10.480   0.232   3.100  2.0164 -3.1618 -5.0822
  278MOL0     H37477  10.306   0.327   2.871  0.1998 -0.0183 -2.6793
  278MOL0     H37478  10.443   0.206   2.855 -1.4187 -1.6714  1.5564
  278MOL0     H37479  10.582   0.384   2.934 -1.8145 -0.6046  1.8069
  278MOL0     H37480  10.533   0.420   2.774  0.9111 -2.0422  0.3545
  278MOL0     H37481  10.560   0.598   3.083 -2.0606 -0.1226  1.3722
  278MOL0     H37482  10.512   0.760   3.205  1.5916  0.9944 -1.8094
  278MOL0     H37483  10.472   0.902   3.112 -0.5126 -0.1580 -1.6029
  278MOL0     H37484  10.233   0.885   3.183  1.4127  0.1985 -0.8356
  278MOL0     H37485  10.250   0.727   3.250  1.0564 -0.5090  2.7927
  278MOL0     H37486  10.409   0.967   3.352  0.6718  0.7972  2.6585
  278MOL0     H37487  10.385   0.812   3.431 -2.0505 -0.2373  1.4223
  278MOL0     H37488  10.157   0.838   3.487  1.1524 -1.0455  0.4390
  278MOL0     H37489  10.147   0.980   3.391  1.2596 -2.7763 -2.2179
  278MOL0     H37490  10.344   1.089   3.790 -0.5899 -0.3274  0.5183
  278MOL0     H37491  10.293   1.303   3.866 -2.1523  1.5411 -0.2500
  278MOL0     H37492  10.096   1.796   3.777  1.3321  3.6929  0.7720
  278MOL0     H37493   9.934   1.900   3.908 -2.1050 -0.1017  3.5704
  278MOL0     H37494   9.900   2.054   4.171  2.7339 -1.0018 -3.1263
  278MOL0     H37495   9.798   2.010   4.037 -1.9462 -1.1462  0.8764
  278MOL0     H37496   9.619   1.929   4.220 -1.2598  1.3754  0.7035
  278MOL0     H37497   9.738   1.956   4.333 -2.1201  0.2537  0.1230
  278MOL0     H37498   9.593   2.148   4.330 -0.3751  0.2923  0.0322
  278MOL0     H37499   9.773   2.197   4.288 -0.2717  2.9071 -1.9855
  278MOL0     H37500   9.534   2.176   4.099 -1.3052  0.9142 -0.5963
  278MOL0     H37501   9.694   2.214   4.046  1.4362 -0.2580  1.0930
  278MOL0     H37502   9.500   2.390   4.197  0.4603  0.6270  1.7690
  278MOL0     H37503   9.591   2.408   4.049 -2.2302 -1.0599  0.4502
  278MOL0     H37504   9.713   2.419   4.327 -0.6984  1.0938 -0.0325
  278MOL0     H37505   9.810   2.410   4.170  0.1909  0.4689 -1.1468
  278MOL0     H37506   9.613   2.615   4.274 -1.3660 -4.1807 -1.6629
  278MOL0     H37507   9.709   2.642   4.126 -1.3094 -0.2242  0.7451
  278MOL0     H37508   9.838   2.756   4.258  0.6118 -0.8096 -2.5200
  278MOL0     H37509   9.812   2.655   4.397  0.9897 -3.5158 -0.0626
  278MOL0     H37510  10.046   1.672   4.258  1.6306  2.2090 -0.0114
  278MOL0     H37511  10.200   1.546   4.131 -0.8050 -0.8793  0.8553
  278MOL0     H37512  10.179   1.429   3.475  1.1398  0.6296  0.6212
  278MOL0     H37513  10.188   1.191   3.396 -1.3155 -0.7868  0.3438
  278MOL0     H37514  10.221   0.604   3.572  1.5664 -1.3629 -0.2750
  278MOL0     H37515  10.244   0.803   3.714  0.4443 -0.8466 -0.6018
  278MOL0     H37516  10.413   0.978   4.056  0.3140  2.8648 -4.1552
  278MOL0     H37517  10.497   1.189   4.161 -0.5730 -0.0837 -0.0254
  278MOL0     H37518  10.472   1.492   4.353 -2.2684  1.0393  1.5573
  278MOL0     H37519  10.479   1.313   4.377 -0.0822 -1.0688  0.6781
  278MOL0     H37520  10.374   1.436   4.574 -0.5196 -0.7425  0.5338
  278MOL0     H37521  10.255   1.316   4.501 -2.1814  1.4820  2.6358
  278MOL0     H37522  10.118   1.479   4.409 -0.7657  2.0942 -0.3392
  278MOL0     H37523  10.227   1.622   4.438  2.3540  0.7864  1.6777
  278MOL0     H37524  10.200   1.572   4.670  1.3787  1.8512 -2.6652
  278MOL0     H37525  10.044   1.610   4.600 -1.1845  0.1694  1.2560
  278MOL0     H37526   9.908   1.229   4.661  0.6860 -0.4089 -0.2841
  278MOL0     H37527  10.085   1.313   4.212 -0.7933  0.2988 -1.4675
  278MOL0     H37528   9.920   1.152   4.211  1.3434  0.8026  0.5556
  278MOL0     H37529   9.921   1.079   4.045  0.4270 -1.0511 -0.1722
  278MOL0     H37530   9.949   0.977   4.196 -0.8527 -0.2380 -0.5476
  279MOL0     O37531   3.271   3.945   1.128 -0.8905  0.4826  0.2928
  279MOL0     C37532   3.362   4.012   1.080 -1.1754 -0.0067  0.5563
  279MOL0     O37533   3.373   4.154   1.081  0.0993  0.0883  0.3277
  279MOL0     C37534   3.267   4.212   1.147  0.1711 -0.2861  0.7908
  279MOL0     C37535   3.295   4.292   1.256  0.6023  0.3040  0.6367
  279MOL0     C37536   3.187   4.355   1.317  0.2802  0.2396 -0.2316
  279MOL0     C37537   3.053   4.339   1.278 -0.1066  0.1027  0.3252
  279MOL0     O37538   2.960   4.414   1.343 -0.2417  0.1567  0.2167
  279MOL0     C37539   2.839   4.432   1.266  0.2019 -0.6535 -0.0991
  279MOL0     C37540   2.747   4.550   1.312  0.5990  0.1881 -0.3045
  279MOL0     C37541   2.730   4.652   1.201  0.1872 -0.6730 -0.4401
  279MOL0     C37542   2.849   4.740   1.184  0.4557 -0.0188 -0.2982
  279MOL0     C37543   2.826   4.865   1.101 -0.5687 -0.0922  0.3312
  279MOL0     C37544   2.831   4.826   0.953  0.9468  0.3345 -0.1701
  279MOL0     C37545   2.812   4.948   0.856 -0.4643 -0.0338 -0.4724
  279MOL0     C37546   2.732   4.899   0.730 -0.4010 -0.1654 -0.0547
  279MOL0     N37547   2.811   4.797   0.648  0.1313  0.4674 -0.8274
  279MOL0     C37548   2.922   4.830   0.585 -0.0056  0.1250  0.6447
  279MOL0     C37549   2.960   4.728   0.498  0.1499 -0.3359  0.0691
  279MOL0     C37550   3.070   4.731   0.391  0.0388  0.5816 -0.0259
  279MOL0     C37551   3.182   4.637   0.432 -0.1481 -0.3545 -0.3245
  279MOL0     C37552   3.297   4.645   0.317  0.6023  0.7715  0.0178
  279MOL0     C37553   3.259   4.569   0.188  0.0798 -0.0097  0.2639
  279MOL0     O37554   3.330   4.641   0.086  0.2705 -0.3157  0.0132
  279MOL0     C37555   3.428   4.575   0.010  0.4118  0.2040 -0.0872
  279MOL0     C37556   3.487   4.455   0.044  0.4764 -0.1390  0.0875
  279MOL0     C37557   3.579   4.407  -0.049 -0.4904  0.3530 -1.1191
  279MOL0     C37558   3.631   4.468  -0.161 -0.0039  0.0222 -0.8981
  279MOL0     C37559   3.754   4.419  -0.227 -0.2475 -0.7043  0.2923
  279MOL0     O37560   3.830   4.511  -0.296  0.2112 -1.0150  0.0865
  279MOL0     C37561   3.934   4.462  -0.369 -0.7814  0.2757  0.3185
  279MOL0     C37562   4.009   4.343  -0.369 -0.2994  0.1645 -0.5410
  279MOL0     C37563   4.131   4.332  -0.440  0.9441 -0.2389 -0.3298
  279MOL0     C37564   4.184   4.438  -0.521 -0.7670  0.8591  0.1894
  279MOL0     O37565   4.304   4.433  -0.576 -0.3954 -0.2106 -0.0946
  279MOL0     C37566   4.393   4.316  -0.556  0.2569  0.5246 -0.7072
  279MOL0     C37567   4.359   4.187  -0.634  0.4684 -0.6016 -0.7565
  279MOL0     C37568   4.414   4.184  -0.773 -0.3239 -0.2888  0.2621
  279MOL0     C37569   4.329   4.271  -0.879  0.7832  0.5311  0.6246
  279MOL0     C37570   4.393   4.291  -1.021  0.8130  0.0912 -0.0266
  279MOL0     C37571   4.531   4.335  -1.040  0.9935 -0.1645 -0.4352
  279MOL0     C37572   4.570   4.307  -1.186 -0.5471 -0.0447  0.5688
  279MOL0     C37573   4.617   4.158  -1.212  0.4566 -0.2295 -1.0325
  279MOL0    Cl37574   4.659   4.154  -1.383  0.0395  0.3927  0.4064
  279MOL0     C37575   4.106   4.551  -0.525 -1.2306 -1.0847 -0.1403
  279MOL0     C37576   3.981   4.561  -0.457 -0.4423 -0.7516 -1.3143
  279MOL0     O37577   3.769   4.296  -0.222  0.0902 -0.2155 -0.8855
  279MOL0     C37578   3.583   4.597  -0.179  0.6680  0.3182 -0.8792
  279MOL0     C37579   3.469   4.650  -0.102 -0.0934  0.0357  0.0137
  279MOL0     N37580   2.856   4.632   0.517  0.6459  0.1329  0.1328
  279MOL0     N37581   2.768   4.670   0.602  0.2383 -0.0876 -1.4748
  279MOL0     C37582   3.025   4.252   1.172 -0.9619  0.0715  0.9747
  279MOL0     C37583   3.133   4.184   1.112  0.5303 -0.6876  0.4420
  279MOL0     C37584   3.488   3.940   1.024 -0.3397  0.0154 -0.0901
  279MOL0     C37585   3.587   4.009   0.945  0.7383  0.6237 -0.2541
  279MOL0     C37586   3.721   3.960   0.918  0.8845  0.3674  0.0680
  279MOL0     C37587   3.745   3.830   0.942 -0.0371  0.2730  0.4479
  279MOL0     O37588   3.855   3.772   0.889 -0.4611 -1.7964 -0.2144
  279MOL0     C37589   3.981   3.846   0.922  0.5226 -0.1254 -0.5000
  279MOL0     C37590   4.102   3.763   0.875  0.6616 -0.2851  0.3065
  279MOL0     C37591   4.134   3.638   0.960  1.0102  0.7241  0.1082
  279MOL0     C37592   4.024   3.520   0.986  0.1649 -0.2695 -0.0292
  279MOL0     C37593   3.940   3.553   1.090 -0.0395  0.1065  0.1440
  279MOL0     C37594   3.868   3.587   1.178  0.9658  0.4182 -0.3683
  279MOL0     C37595   3.644   3.746   0.996  0.1616 -0.5496 -0.6406
  279MOL0     C37596   3.523   3.802   1.046  1.0056 -0.0370 -0.8609
  279MOL0     C37597   3.436   3.699   1.115 -1.0016 -1.1111  0.3451
  279MOL0     H37598   3.388   4.323   1.303  1.0140  1.8230 -1.0525
  279MOL0     H37599   3.218   4.431   1.388 -2.5320 -1.4317  3.0764
  279MOL0     H37600   2.862   4.451   1.161 -2.4908  0.7769 -0.4930
  279MOL0     H37601   2.767   4.352   1.285 -0.5742 -0.1944 -1.0375
  279MOL0     H37602   2.782   4.605   1.400  3.8095 -1.3689 -0.4656
  279MOL0     H37603   2.657   4.488   1.326  1.6295 -2.2926 -3.3514
  279MOL0     H37604   2.635   4.706   1.211 -0.8249 -1.7779 -3.0020
  279MOL0     H37605   2.712   4.593   1.110 -0.7020  0.0742 -0.7766
  279MOL0     H37606   2.882   4.766   1.285 -4.3379  1.9645  1.0807
  279MOL0     H37607   2.938   4.688   1.148  2.6794  1.4733  2.5667
  279MOL0     H37608   2.731   4.910   1.131  0.6437  4.1390 -1.3378
  279MOL0     H37609   2.904   4.941   1.118  0.6501 -0.8449 -1.5531
  279MOL0     H37610   2.926   4.773   0.944  1.1039 -0.4032  3.8518
  279MOL0     H37611   2.753   4.752   0.936  0.5663 -0.0014  2.5486
  279MOL0     H37612   2.914   4.981   0.838  0.2758 -1.6380  0.5079
  279MOL0     H37613   2.757   5.024   0.912 -0.2814  0.2157 -0.6330
  279MOL0     H37614   2.641   4.843   0.752  0.1692 -2.1342 -2.2020
  279MOL0     H37615   2.704   4.975   0.657 -2.8810  0.5067  1.4963
  279MOL0     H37616   2.990   4.915   0.589  0.5886 -0.0427 -2.5641
  279MOL0     H37617   3.021   4.712   0.295 -1.1131  0.5185  0.5559
  279MOL0     H37618   3.113   4.832   0.381  1.3775 -0.0752 -1.4950
  279MOL0     H37619   3.233   4.664   0.525  1.5419  1.6614 -1.7444
  279MOL0     H37620   3.137   4.537   0.444  0.2332 -0.2147  3.5570
  279MOL0     H37621   3.388   4.596   0.352 -0.5095 -1.5446 -0.1946
  279MOL0     H37622   3.318   4.749   0.287 -0.3130  0.8587 -0.3488
  279MOL0     H37623   3.151   4.579   0.173 -0.0230  0.5711  1.3151
  279MOL0     H37624   3.264   4.460   0.188  0.4322  0.0049  0.0048
  279MOL0     H37625   3.466   4.385   0.124 -0.2004  0.6920  0.6497
  279MOL0     H37626   3.620   4.308  -0.029 -0.2188  0.1190 -2.6993
  279MOL0     H37627   3.996   4.265  -0.294  0.8713  1.8275  1.4949
  279MOL0     H37628   4.196   4.256  -0.398 -1.1436 -1.6683  0.5444
  279MOL0     H37629   4.499   4.345  -0.563  0.4102  0.0183 -0.5633
  279MOL0     H37630   4.390   4.280  -0.453 -0.9635  2.2018 -0.1086
  279MOL0     H37631   4.410   4.104  -0.583  1.5275 -0.0279 -0.8552
  279MOL0     H37632   4.250   4.181  -0.631  0.4756 -1.2998 -1.5728
  279MOL0     H37633   4.521   4.209  -0.782  0.3442 -2.7407  0.6594
  279MOL0     H37634   4.415   4.077  -0.796  0.1372 -0.2904  0.2751
  279MOL0     H37635   4.315   4.372  -0.841  0.8735  0.6553  0.3341
  279MOL0     H37636   4.230   4.226  -0.886 -0.3707  2.9705  0.3686
  279MOL0     H37637   4.329   4.355  -1.082  0.4471 -1.6027 -1.5202
  279MOL0     H37638   4.390   4.189  -1.061  1.2786 -0.0232  0.2232
  279MOL0     H37639   4.532   4.444  -1.028 -2.7711  0.4079 -3.4556
  279MOL0     H37640   4.595   4.267  -0.984  0.6235 -1.7588 -1.8697
  279MOL0     H37641   4.650   4.379  -1.210  0.5971 -1.2335  0.6904
  279MOL0     H37642   4.496   4.336  -1.261  1.2828  0.5425 -1.0912
  279MOL0     H37643   4.691   4.137  -1.135 -1.4537  2.1142  1.6294
  279MOL0     H37644   4.534   4.090  -1.195  2.0394 -2.1467 -0.6356
  279MOL0     H37645   4.141   4.641  -0.575  0.9772 -1.1463  1.2139
  279MOL0     H37646   3.925   4.653  -0.467 -0.6311 -0.9675 -2.4310
  279MOL0     H37647   3.624   4.635  -0.272 -0.1782  2.4074 -0.4554
  279MOL0     H37648   3.437   4.752  -0.122  0.2535  0.2285  0.4042
  279MOL0     H37649   2.927   4.222   1.138  1.0479 -3.4454 -2.5798
  279MOL0     H37650   3.111   4.114   1.032 -1.7667  0.9990 -0.5002
  279MOL0     H37651   3.577   4.116   0.929 -0.9107  0.2966 -1.8006
  279MOL0     H37652   3.801   4.023   0.880  0.8423 -1.2063 -2.8762
  279MOL0     H37653   3.992   3.867   1.028  0.6305  0.1701 -0.5709
  279MOL0     H37654   3.972   3.935   0.860  2.5565  0.0578 -0.5857
  279MOL0     H37655   4.195   3.821   0.873  1.3945 -1.3861 -2.2274
  279MOL0     H37656   4.089   3.719   0.775 -0.5121 -2.9086  1.5139
  279MOL0     H37657   4.166   3.669   1.060 -0.1667 -0.2026  0.8006
  279MOL0     H37658   4.217   3.588   0.909  0.8422  3.2522 -2.9787
  279MOL0     H37659   3.967   3.503   0.894  0.6600 -0.3765 -0.3238
  279MOL0     H37660   4.074   3.427   1.016  2.6681  1.3651  1.1993
  279MOL0     H37661   3.813   3.626   1.261  0.6725 -1.9453  0.6428
  279MOL0     H37662   3.658   3.640   1.011  1.8844 -0.2984 -0.1535
  279MOL0     H37663   3.359   3.669   1.044 -0.7490  1.9517 -1.3872
  279MOL0     H37664   3.498   3.616   1.151  0.8896  0.4080  0.7624
  279MOL0     H37665   3.393   3.739   1.207 -0.1707  4.1036 -1.1917
  280MOL0     O37666   6.149   7.488   0.953  0.3117 -0.7819 -0.1085
  280MOL0     C37667   6.160   7.455   0.837 -0.9882 -0.2145  1.0245
  280MOL0     O37668   6.070   7.488   0.736  0.5105 -0.8853  0.1084
  280MOL0     C37669   6.010   7.620   0.743 -1.1798  0.1985  0.6433
  280MOL0     C37670   6.089   7.733   0.789  0.2511  0.2873  0.5957
  280MOL0     C37671   6.018   7.857   0.793  0.1180 -0.0044  0.7646
  280MOL0     C37672   5.873   7.865   0.769 -1.0336  0.3937 -0.0116
  280MOL0     O37673   5.824   7.994   0.775  0.4743 -0.7984 -0.3897
  280MOL0     C37674   5.701   8.010   0.704 -0.0681 -0.0976  0.5547
  280MOL0     C37675   5.644   8.152   0.709 -0.0809 -0.8603 -0.0163
  280MOL0     C37676   5.510   8.169   0.773  0.1725 -0.7066  0.9854
  280MOL0     C37677   5.500   8.196   0.922 -0.5936 -0.4678 -0.1552
  280MOL0     C37678   5.503   8.061   0.995  0.7371 -0.0527  0.3360
  280MOL0     C37679   5.474   8.083   1.144  0.1468  0.0476  0.1304
  280MOL0     C37680   5.459   7.937   1.214 -0.2288  0.6100  0.9961
  280MOL0     C37681   5.490   7.960   1.359  0.4303  0.0272 -1.2178
  280MOL0     N37682   5.478   7.833   1.440  0.1069  0.0175  0.2878
  280MOL0     C37683   5.569   7.724   1.455 -0.2490 -0.1460 -0.7798
  280MOL0     C37684   5.527   7.658   1.568 -0.1582 -1.2023  0.5670
  280MOL0     C37685   5.591   7.547   1.634 -0.1072 -0.3167 -0.8396
  280MOL0     C37686   5.740   7.530   1.602  0.8302  0.4932  0.3326
  280MOL0     C37687   5.823   7.612   1.699  0.0176 -0.4945  0.3139
  280MOL0     C37688   5.971   7.617   1.653 -0.4048 -0.0370 -0.6027
  280MOL0     O37689   6.058   7.704   1.720  0.3605 -0.1616 -0.2062
  280MOL0     C37690   6.024   7.832   1.700  0.2771 -0.9706  1.3095
  280MOL0     C37691   5.985   7.915   1.800 -0.3799  1.3292  0.1309
  280MOL0     C37692   5.977   8.054   1.772 -0.0476 -0.0228  0.1372
  280MOL0     C37693   6.002   8.110   1.650  0.4300  0.2806  0.5305
  280MOL0     C37694   5.981   8.253   1.613  0.1539 -0.2627  0.3216
  280MOL0     O37695   6.029   8.298   1.490 -0.0744  0.6701  0.3148
  280MOL0     C37696   6.020   8.433   1.474 -0.6735 -0.3176  0.3058
  280MOL0     C37697   6.081   8.527   1.558 -0.5286 -0.0069 -1.1568
  280MOL0     C37698   6.079   8.667   1.531  0.3605 -0.1588  0.5660
  280MOL0     C37699   6.022   8.711   1.408 -0.3641 -0.1943 -0.4484
  280MOL0     O37700   6.027   8.846   1.384 -0.2945 -0.0892  0.2335
  280MOL0     C37701   5.920   8.904   1.310  0.1524  0.7355  0.2189
  280MOL0     C37702   5.912   9.042   1.369  1.1919 -0.3898  0.5288
  280MOL0     C37703   5.787   9.115   1.326  1.0225  0.0555  0.1432
  280MOL0     C37704   5.778   9.264   1.360  0.2137 -0.0527 -0.3438
  280MOL0     C37705   5.662   9.341   1.292 -0.5015 -0.0961 -0.2580
  280MOL0     C37706   5.672   9.364   1.143 -0.3632  0.3065 -0.3987
  280MOL0     C37707   5.798   9.448   1.079  0.2773  0.3863  0.1561
  280MOL0     C37708   5.746   9.583   1.034 -0.8166 -0.4270 -0.5472
  280MOL0    Cl37709   5.890   9.687   0.998 -0.2833  0.5208 -0.0596
  280MOL0     C37710   5.958   8.616   1.332  0.3528 -0.2335  0.8648
  280MOL0     C37711   5.966   8.480   1.363  0.6487  0.4689  0.4210
  280MOL0     O37712   5.927   8.315   1.708 -0.3165 -0.3546 -0.7930
  280MOL0     C37713   6.048   8.024   1.553 -0.8375  0.0592 -0.3931
  280MOL0     C37714   6.060   7.884   1.577  1.2075 -0.7948  0.5928
  280MOL0     N37715   5.398   7.710   1.605 -0.3508 -1.0904  0.0994
  280MOL0     N37716   5.378   7.814   1.532 -0.5105 -0.7583  0.4747
  280MOL0     C37717   5.806   7.753   0.736 -0.3922  0.6362 -0.6047
  280MOL0     C37718   5.877   7.635   0.715 -0.1551 -0.6460 -0.1485
  280MOL0     C37719   6.264   7.344   0.803  0.4026 -0.3577 -0.9937
  280MOL0     C37720   6.263   7.226   0.882 -0.5385  0.0141  0.6154
  280MOL0     C37721   6.359   7.136   0.857 -0.7046  0.0825 -0.1310
  280MOL0     C37722   6.447   7.146   0.748  0.2546  0.4770 -0.2162
  280MOL0     O37723   6.530   7.037   0.729 -0.0143 -0.0621  0.9079
  280MOL0     C37724   6.512   6.980   0.593  0.2485 -0.3999 -0.6890
  280MOL0     C37725   6.502   6.831   0.586 -0.0282 -0.0903 -0.7172
  280MOL0     C37726   6.372   6.769   0.638  0.0419  0.0776 -0.4925
  280MOL0     C37727   6.255   6.823   0.564 -0.1015 -0.6164  0.1193
  280MOL0     C37728   6.136   6.758   0.617  0.1013 -0.1508 -0.4926
  280MOL0     C37729   6.049   6.686   0.656  0.9401 -0.1683 -0.5180
  280MOL0     C37730   6.449   7.263   0.677  0.2384  0.2260  0.3648
  280MOL0     C37731   6.352   7.356   0.705 -0.8458  0.2457 -0.5821
  280MOL0     C37732   6.366   7.490   0.630 -0.0612  0.5917  0.5931
  280MOL0     H37733   6.188   7.728   0.835 -1.0759 -1.2528  3.6059
  280MOL0     H37734   6.056   7.955   0.821  1.1689 -0.8765  2.5992
  280MOL0     H37735   5.713   7.990   0.597 -2.1711 -1.0152  0.4342
  280MOL0     H37736   5.623   7.948   0.750  1.0246 -0.4028  2.0958
  280MOL0     H37737   5.635   8.199   0.610 -0.8772  0.7572  0.7883
  280MOL0     H37738   5.712   8.220   0.760 -2.2784  0.6334  1.1003
  280MOL0     H37739   5.445   8.082   0.757  1.1480 -0.9539 -2.6504
  280MOL0     H37740   5.468   8.256   0.721 -0.2312 -2.0916 -1.1729
  280MOL0     H37741   5.582   8.262   0.951  0.3705 -2.1026  1.0725
  280MOL0     H37742   5.409   8.247   0.954 -1.0098 -0.6869 -0.9604
  280MOL0     H37743   5.442   7.984   0.947  0.5136 -0.5630  1.4105
  280MOL0     H37744   5.608   8.030   1.002  1.0927  1.3808  3.5114
  280MOL0     H37745   5.559   8.141   1.182  0.8548 -1.8058  1.4997
  280MOL0     H37746   5.383   8.133   1.179  1.2661  0.2686  2.9611
  280MOL0     H37747   5.521   7.860   1.168 -1.0251 -0.1870  1.2325
  280MOL0     H37748   5.355   7.905   1.199  0.1234 -0.3181  0.4037
  280MOL0     H37749   5.591   7.999   1.377  0.0730  0.5923 -0.4214
  280MOL0     H37750   5.431   8.043   1.400  1.3833  1.4613 -2.6183
  280MOL0     H37751   5.660   7.700   1.401 -0.3544 -0.2536 -0.9126
  280MOL0     H37752   5.582   7.556   1.743  2.5264  2.1948 -0.7211
  280MOL0     H37753   5.541   7.456   1.600  2.0076 -0.8845 -2.6299
  280MOL0     H37754   5.753   7.422   1.609 -1.8736  0.0187 -0.6113
  280MOL0     H37755   5.758   7.560   1.498 -3.0022  0.5290 -0.4878
  280MOL0     H37756   5.836   7.577   1.802 -0.1878  1.6663  1.1273
  280MOL0     H37757   5.768   7.706   1.710  0.9598 -0.1271  2.7081
  280MOL0     H37758   5.966   7.626   1.545  1.7623 -2.8500 -1.0577
  280MOL0     H37759   6.018   7.519   1.665  0.6949  0.5984  0.5566
  280MOL0     H37760   5.949   7.889   1.900 -2.0299  1.7050 -0.3423
  280MOL0     H37761   5.943   8.118   1.853 -3.1289  1.0573 -1.8459
  280MOL0     H37762   6.127   8.498   1.652 -1.4788 -0.7191 -0.9003
  280MOL0     H37763   6.139   8.743   1.581  4.1257 -1.1278 -2.0419
  280MOL0     H37764   5.949   8.926   1.207  0.2337 -0.7276 -0.0863
  280MOL0     H37765   5.828   8.845   1.310  0.6615 -0.0712  0.4203
  280MOL0     H37766   5.909   9.045   1.479 -2.0233  2.4213  0.5007
  280MOL0     H37767   6.000   9.098   1.336 -0.8131  1.5272 -1.8654
  280MOL0     H37768   5.786   9.110   1.216 -0.6504  0.0713  0.1360
  280MOL0     H37769   5.696   9.062   1.355 -0.1414  1.3974 -0.8853
  280MOL0     H37770   5.872   9.312   1.333 -0.7333  0.8379 -2.2429
  280MOL0     H37771   5.765   9.278   1.468  0.0651  0.3068 -0.4087
  280MOL0     H37772   5.636   9.430   1.349  1.1254  0.8083 -0.8725
  280MOL0     H37773   5.581   9.271   1.314  0.1125 -0.6158  0.4511
  280MOL0     H37774   5.674   9.266   1.094 -2.0841 -1.1694  2.2058
  280MOL0     H37775   5.576   9.414   1.127 -0.6466  0.4988  1.6069
  280MOL0     H37776   5.835   9.385   0.998  0.7980  3.8078 -2.4605
  280MOL0     H37777   5.878   9.459   1.153 -0.0463 -1.6380  0.8921
  280MOL0     H37778   5.684   9.568   0.945 -0.8667 -0.4837 -0.5030
  280MOL0     H37779   5.691   9.625   1.119 -0.5101  0.4896 -0.7919
  280MOL0     H37780   5.893   8.647   1.251 -0.3238 -0.7030  1.2179
  280MOL0     H37781   5.904   8.416   1.301 -0.2258  1.7719 -0.1044
  280MOL0     H37782   6.075   8.063   1.456 -3.4352  0.7851 -0.8952
  280MOL0     H37783   6.103   7.821   1.500 -0.0213 -0.6040 -0.2796
  280MOL0     H37784   5.698   7.747   0.733 -0.7097  0.5732  3.7448
  280MOL0     H37785   5.811   7.551   0.695  0.7234 -2.0602  2.4893
  280MOL0     H37786   6.191   7.224   0.963  1.8437  1.3300  2.9346
  280MOL0     H37787   6.372   7.058   0.932 -1.0731  2.2320  2.3349
  280MOL0     H37788   6.604   7.018   0.548 -0.1994  1.9837  0.2547
  280MOL0     H37789   6.422   7.023   0.546  0.2405 -0.4403 -0.7089
  280MOL0     H37790   6.589   6.776   0.622 -1.0125 -1.6246 -0.5705
  280MOL0     H37791   6.506   6.819   0.477  1.2236  2.1436 -0.9730
  280MOL0     H37792   6.346   6.785   0.743 -2.0124  4.2863 -1.4210
  280MOL0     H37793   6.382   6.661   0.624  2.5164  0.0676  0.8348
  280MOL0     H37794   6.239   6.931   0.568  2.3211 -0.2391  1.0852
  280MOL0     H37795   6.265   6.798   0.458  1.0527  1.9446 -0.4507
  280MOL0     H37796   5.962   6.629   0.682  1.7061 -2.4534 -2.5493
  280MOL0     H37797   6.523   7.263   0.597  0.2425 -5.2105  0.0437
  280MOL0     H37798   6.360   7.574   0.701 -1.8256  1.8759 -0.9796
  280MOL0     H37799   6.454   7.496   0.565 -1.7350  3.0900 -1.6400
  280MOL0     H37800   6.281   7.502   0.563  0.1974 -2.5670 -0.4446
  281MOL0     O37801   0.306   8.834   4.944  0.2147  0.0831 -0.9076
  281MOL0     C37802   0.221   8.751   4.916  0.1942  0.9161 -0.1938
  281MOL0     O37803   0.208   8.687   4.798  0.1506  0.3527  0.2025
  281MOL0     C37804   0.258   8.748   4.686  0.4597 -0.4010 -0.5905
  281MOL0     C37805   0.166   8.824   4.620  0.1858 -0.8629  1.1304
  281MOL0     C37806   0.206   8.895   4.512  0.6380 -0.4745  0.1412
  281MOL0     C37807   0.342   8.888   4.475  1.4063 -0.2690 -0.2405
  281MOL0     O37808   0.377   8.974   4.374  0.2367  0.5426  0.1724
  281MOL0     C37809   0.512   8.972   4.336 -0.9290  0.6634 -0.3234
  281MOL0     C37810   0.516   9.082   4.230 -0.0684  0.0042  0.1463
  281MOL0     C37811   0.430   9.056   4.108 -0.2172  0.6449  0.0673
  281MOL0     C37812   0.475   8.940   4.019  0.2991 -0.0371  0.0231
  281MOL0     C37813   0.413   8.934   3.881  1.4755  0.0741 -0.4510
  281MOL0     C37814   0.265   8.892   3.904 -0.4345 -0.0294 -0.4490
  281MOL0     C37815   0.185   8.851   3.782 -0.5541 -0.7328 -0.1823
  281MOL0     C37816   0.060   8.776   3.839 -0.5182  0.3253  0.3970
  281MOL0     N37817   0.059   8.630   3.819  0.1097  0.6852  0.0690
  281MOL0     C37818   0.080   8.568   3.697 -0.2766 -0.2328 -0.4677
  281MOL0     C37819   0.145   8.454   3.728  0.2633 -0.1351 -0.3295
  281MOL0     C37820   0.193   8.337   3.648 -0.7603 -0.3202 -0.6281
  281MOL0     C37821   0.152   8.347   3.499  0.0242  0.1260 -0.2901
  281MOL0     C37822   0.201   8.224   3.421  1.1473 -0.1919 -0.0980
  281MOL0     C37823   0.256   8.264   3.289 -0.9095 -0.8766 -0.6064
  281MOL0     O37824   0.346   8.150   3.261 -0.2612  0.6352  0.3361
  281MOL0     C37825   0.361   8.101   3.128  0.2052  0.2583 -0.6687
  281MOL0     C37826   0.307   8.168   3.025 -0.1542 -0.9107  0.1359
  281MOL0     C37827   0.331   8.125   2.889  0.1173  0.8710  0.5023
  281MOL0     C37828   0.400   8.008   2.861 -0.2894 -0.0465  0.0193
  281MOL0     C37829   0.409   7.954   2.726 -0.3783 -0.3755 -0.1830
  281MOL0     O37830   0.483   7.851   2.711  0.0065  0.5342  0.0412
  281MOL0     C37831   0.512   7.800   2.584 -0.0175  0.5533 -1.0807
  281MOL0     C37832   0.619   7.849   2.509 -0.5356  0.4940  0.5896
  281MOL0     C37833   0.634   7.798   2.382 -0.0669 -0.5634 -0.3941
  281MOL0     C37834   0.547   7.702   2.331 -0.5445 -0.5908  0.7845
  281MOL0     O37835   0.562   7.684   2.196 -0.0843 -0.1298 -0.4271
  281MOL0     C37836   0.459   7.619   2.120 -0.2743  0.1950  0.9014
  281MOL0     C37837   0.492   7.625   1.967 -0.2752 -1.1418 -0.5684
  281MOL0     C37838   0.472   7.778   1.925  0.2590 -0.0540  0.0478
  281MOL0     C37839   0.528   7.794   1.785 -0.3392  0.3145 -0.1349
  281MOL0     C37840   0.480   7.913   1.711  0.0434 -0.3638 -0.6697
  281MOL0     C37841   0.543   7.926   1.567 -0.3569 -0.4368  0.4975
  281MOL0     C37842   0.474   8.030   1.487  0.0824 -0.7866 -0.7572
  281MOL0     C37843   0.487   8.003   1.330  0.8097  0.2459 -0.0938
  281MOL0    Cl37844   0.662   7.991   1.284  0.0581 -0.0481 -0.0727
  281MOL0     C37845   0.446   7.653   2.407 -0.1570  0.7621  0.8683
  281MOL0     C37846   0.427   7.694   2.539 -0.1527 -0.6409 -0.0305
  281MOL0     O37847   0.344   8.008   2.633  0.7744 -0.5299  1.3359
  281MOL0     C37848   0.458   7.944   2.973  0.2005 -0.5187 -0.1502
  281MOL0     C37849   0.442   7.992   3.106  0.2502  0.1087 -0.1691
  281MOL0     N37850   0.146   8.440   3.863  0.1742  0.0067 -0.1058
  281MOL0     N37851   0.092   8.539   3.922  0.2231  0.2806  0.9972
  281MOL0     C37852   0.427   8.820   4.547 -0.0052 -0.2747  0.2372
  281MOL0     C37853   0.393   8.741   4.658 -0.1548  0.0385  0.1664
  281MOL0     C37854   0.124   8.712   5.025 -0.4346 -0.5721  0.7975
  281MOL0     C37855   0.005   8.648   4.988  0.6295  0.0726  0.4357
  281MOL0     C37856  -0.084   8.626   5.093 -0.0720 -0.3257 -0.2549
  281MOL0     C37857  -0.043   8.649   5.225 -0.1861  0.1273 -0.1041
  281MOL0     O37858  -0.131   8.639   5.329  0.0599 -0.3654 -0.9828
  281MOL0     C37859  -0.250   8.725   5.327  0.0802 -0.3717  0.4582
  281MOL0     C37860  -0.230   8.873   5.315  0.0450  0.1826 -0.2081
  281MOL0     C37861  -0.163   8.937   5.441  0.8067  0.3257 -0.1607
  281MOL0     C37862  -0.135   9.097   5.438  0.1088  0.5539  0.2698
  281MOL0     C37863  -0.032   9.111   5.336  0.8941  0.4122 -0.8796
  281MOL0     C37864   0.058   9.096   5.263  0.4686 -0.5579 -0.5219
  281MOL0     C37865   0.088   8.689   5.259  0.4112 -0.6165 -0.1266
  281MOL0     C37866   0.163   8.734   5.161 -0.0570  0.5869 -0.4875
  281MOL0     C37867   0.307   8.784   5.211  0.8553  0.7376  0.3919
  281MOL0     H37868   0.061   8.821   4.649  0.2124 -2.4342  1.1617
  281MOL0     H37869   0.131   8.940   4.448 -1.3604 -1.7206  1.4800
  281MOL0     H37870   0.576   8.999   4.421 -2.7214 -0.5610  1.5048
  281MOL0     H37871   0.552   8.882   4.289  0.2458  1.8224 -1.6463
  281MOL0     H37872   0.620   9.091   4.198  1.5455  0.6107  4.8066
  281MOL0     H37873   0.501   9.179   4.279  2.0439  0.1430  0.6360
  281MOL0     H37874   0.442   9.149   4.052  0.6163  2.0039  2.3779
  281MOL0     H37875   0.323   9.058   4.131 -0.0256  4.1655  1.2156
  281MOL0     H37876   0.583   8.950   4.004 -0.1450  2.5365 -2.2273
  281MOL0     H37877   0.466   8.839   4.059  4.1004 -1.5794 -2.3366
  281MOL0     H37878   0.404   9.037   3.843 -1.9702  0.5510  1.2679
  281MOL0     H37879   0.467   8.864   3.818 -0.1391 -1.3957 -0.2574
  281MOL0     H37880   0.263   8.800   3.963 -2.2149  0.8243  0.9203
  281MOL0     H37881   0.211   8.973   3.954 -1.6129  0.5803 -2.5679
  281MOL0     H37882   0.240   8.790   3.710 -0.2246 -0.0013 -0.5642
  281MOL0     H37883   0.146   8.940   3.732 -2.3989 -2.5222 -2.0924
  281MOL0     H37884   0.020   8.809   3.935 -1.7027  0.2832 -0.0688
  281MOL0     H37885  -0.025   8.790   3.772  1.4798  2.6960 -1.8879
  281MOL0     H37886   0.061   8.613   3.600 -0.0812  1.5804  0.3047
  281MOL0     H37887   0.300   8.339   3.671 -0.7256  5.6562  0.3477
  281MOL0     H37888   0.154   8.244   3.690  1.7706 -2.6551 -3.0304
  281MOL0     H37889   0.044   8.366   3.498  0.3259  2.0252  0.1307
  281MOL0     H37890   0.194   8.439   3.459  1.8812 -0.6568 -0.2441
  281MOL0     H37891   0.122   8.149   3.408  1.7651 -0.8153 -0.3040
  281MOL0     H37892   0.282   8.171   3.471  1.8908 -0.6932 -1.7693
  281MOL0     H37893   0.322   8.351   3.280 -1.0315 -0.9304 -2.5156
  281MOL0     H37894   0.175   8.262   3.215 -0.3487  0.1592 -1.2815
  281MOL0     H37895   0.241   8.253   3.039 -1.3216 -1.6128 -0.8949
  281MOL0     H37896   0.284   8.174   2.805 -1.4493 -1.4999 -0.1282
  281MOL0     H37897   0.688   7.920   2.554 -0.6586  0.7399  0.3866
  281MOL0     H37898   0.715   7.821   2.312  0.4206  0.3372  0.4354
  281MOL0     H37899   0.444   7.513   2.141  0.2555 -0.9388 -3.3826
  281MOL0     H37900   0.368   7.677   2.139  0.6997  1.5853  1.4789
  281MOL0     H37901   0.585   7.568   1.953 -0.9905 -2.1280 -1.4760
  281MOL0     H37902   0.425   7.565   1.905 -0.9249 -0.7686 -0.2263
  281MOL0     H37903   0.365   7.795   1.910  0.0073  0.8212  2.4104
  281MOL0     H37904   0.523   7.842   1.997 -2.3031  0.3918  1.5971
  281MOL0     H37905   0.503   7.706   1.725  2.6731 -1.2096  0.6371
  281MOL0     H37906   0.637   7.788   1.789 -0.4581 -1.8295  1.6091
  281MOL0     H37907   0.500   7.997   1.778 -1.9722  1.2555 -1.9795
  281MOL0     H37908   0.371   7.904   1.707 -0.0323  0.2926 -0.2703
  281MOL0     H37909   0.652   7.935   1.571 -0.0749  2.0408 -4.8676
  281MOL0     H37910   0.525   7.830   1.517 -0.3857 -1.4408  2.3192
  281MOL0     H37911   0.518   8.127   1.511 -1.7587  1.2566 -4.6436
  281MOL0     H37912   0.366   8.043   1.501 -0.1857  1.4711 -3.7602
  281MOL0     H37913   0.447   7.903   1.309 -1.6501  1.3089 -0.8292
  281MOL0     H37914   0.431   8.075   1.269  0.7589  1.3678  1.2150
  281MOL0     H37915   0.384   7.576   2.363  1.0323  1.1998 -1.7332
  281MOL0     H37916   0.337   7.669   2.595 -0.0902  2.0262  1.4658
  281MOL0     H37917   0.521   7.859   2.950  1.6541 -0.4588  3.0723
  281MOL0     H37918   0.467   7.947   3.201  1.2834  0.9746 -0.0087
  281MOL0     H37919   0.533   8.829   4.526 -0.2524  2.3039 -0.2700
  281MOL0     H37920   0.466   8.684   4.714  0.0991  0.1272 -0.0742
  281MOL0     H37921  -0.024   8.637   4.885  3.2319  0.7678 -0.4648
  281MOL0     H37922  -0.184   8.595   5.063  1.0136 -1.5985 -2.7717
  281MOL0     H37923  -0.303   8.701   5.420 -1.3511 -0.9740 -0.4730
  281MOL0     H37924  -0.313   8.694   5.242  0.8301 -1.1935  0.1869
  281MOL0     H37925  -0.328   8.916   5.295  1.2176  2.2047 -2.0179
  281MOL0     H37926  -0.178   8.909   5.226  2.3246  0.9573  1.3513
  281MOL0     H37927  -0.063   8.897   5.461  0.5468  0.1360  0.8484
  281MOL0     H37928  -0.223   8.903   5.526  0.1460  2.5977  0.3551
  281MOL0     H37929  -0.215   9.164   5.407  0.9459  1.5795  0.2937
  281MOL0     H37930  -0.105   9.113   5.542 -0.4814 -4.2032  1.4458
  281MOL0     H37931   0.147   9.093   5.204 -0.3233 -1.6190 -1.7097
  281MOL0     H37932   0.115   8.702   5.363  3.1555  1.4109 -0.9996
  281MOL0     H37933   0.311   8.758   5.317  1.0855  1.4083  0.5567
  281MOL0     H37934   0.385   8.727   5.162  0.1779 -0.4694  0.6715
  281MOL0     H37935   0.319   8.893   5.204  1.1481  0.5910 -2.8045
  282MOL0     O37936   4.958   2.045  11.155  0.1822  0.5567  0.5906
  282MOL0     C37937   4.945   2.165  11.179 -0.1065 -0.4333 -0.6967
  282MOL0     O37938   4.932   2.224  11.297  0.5094  0.0424 -0.4999
  282MOL0     C37939   4.972   2.157  11.408  0.2828  0.0419 -0.3297
  282MOL0     C37940   4.873   2.129  11.512  0.2899  0.3596  0.4131
  282MOL0     C37941   4.916   2.074  11.629 -0.4079  0.0021  0.5306
  282MOL0     C37942   5.054   2.047  11.653 -0.1556  0.5591 -0.5125
  282MOL0     O37943   5.084   1.980  11.760 -0.4302  0.2429  0.3131
  282MOL0     C37944   5.098   2.064  11.873 -0.2705  0.7403 -0.9585
  282MOL0     C37945   5.017   2.003  11.980  0.0231  0.3933  0.2889
  282MOL0     C37946   5.070   1.994  12.126  0.6204  0.3798  0.1632
  282MOL0     C37947   5.172   1.889  12.139  0.0130 -0.1506 -0.0680
  282MOL0     C37948   5.255   1.903  12.266  1.0628  0.1282  1.0394
  282MOL0     C37949   5.334   1.780  12.310  0.3941  0.2198  0.1906
  282MOL0     C37950   5.371   1.782  12.460  0.2073  0.4097  1.1350
  282MOL0     C37951   5.464   1.668  12.504  0.1240  0.0542 -0.4096
  282MOL0     N37952   5.509   1.690  12.644 -0.8372  0.7860 -0.0766
  282MOL0     C37953   5.626   1.738  12.682 -0.6904 -0.2467  1.1218
  282MOL0     C37954   5.632   1.722  12.813  0.4538  1.0625  0.2465
  282MOL0     C37955   5.730   1.785  12.905 -0.5676  0.1485 -0.6864
  282MOL0     C37956   5.671   1.865  13.017 -0.4984  0.7695 -0.3323
  282MOL0     C37957   5.605   1.793  13.139 -1.2745  0.1284 -0.3667
  282MOL0     C37958   5.535   1.887  13.236 -0.0402 -0.4202 -0.5193
  282MOL0     O37959   5.527   1.840  13.371 -0.0579  0.4434 -0.2308
  282MOL0     C37960   5.467   1.924  13.466 -0.6208 -0.2446 -1.1199
  282MOL0     C37961   5.389   2.041  13.440 -0.2825 -0.1720  0.2868
  282MOL0     C37962   5.324   2.120  13.542 -0.3888  0.8378 -1.0996
  282MOL0     C37963   5.355   2.089  13.673  0.4370 -0.1320  0.8118
  282MOL0     C37964   5.292   2.164  13.775 -0.9361  0.3474 -0.9450
  282MOL0     O37965   5.364   2.176  13.895 -0.0771  0.4484  0.2365
  282MOL0     C37966   5.307   2.267  13.984 -0.4045  0.3249  0.8240
  282MOL0     C37967   5.227   2.214  14.086 -0.6913 -0.9099  0.2155
  282MOL0     C37968   5.195   2.288  14.198 -0.0944  0.3155 -0.3573
  282MOL0     C37969   5.217   2.427  14.196 -0.0703  0.8287  0.1657
  282MOL0     O37970   5.182   2.496  14.309  0.2142  0.6656  0.5697
  282MOL0     C37971   5.122   2.625  14.291 -0.1438  0.4251 -0.6939
  282MOL0     C37972   5.077   2.704  14.425  0.2085  0.0298 -0.2834
  282MOL0     C37973   4.988   2.612  14.507  0.0963 -1.3578 -0.4129
  282MOL0     C37974   4.932   2.692  14.622  0.0921  0.0944  0.1182
  282MOL0     C37975   4.811   2.625  14.684  0.0047 -0.2329  0.3331
  282MOL0     C37976   4.740   2.702  14.805 -0.4217 -0.0609  1.2295
  282MOL0     C37977   4.632   2.609  14.879 -0.0291 -0.5326  0.5120
  282MOL0     C37978   4.546   2.697  14.974  0.3149 -0.0566  0.8052
  282MOL0    Cl37979   4.628   2.730  15.131  0.0036 -0.0517  0.4035
  282MOL0     C37980   5.285   2.480  14.091 -0.1733 -0.8534 -0.3948
  282MOL0     C37981   5.336   2.407  13.980  0.1774  1.2538  0.3890
  282MOL0     O37982   5.185   2.220  13.754  0.5232 -0.2533  0.6739
  282MOL0     C37983   5.424   1.980  13.709 -0.4722 -0.7458 -0.4047
  282MOL0     C37984   5.480   1.896  13.608 -0.2897 -0.4192  1.1607
  282MOL0     N37985   5.520   1.654  12.850 -0.0689  0.3067  1.0427
  282MOL0     N37986   5.445   1.637  12.750 -0.1124 -0.3779  0.0891
  282MOL0     C37987   5.148   2.089  11.558  0.3033 -0.4760 -0.1487
  282MOL0     C37988   5.103   2.130  11.430 -0.1485  0.1002 -0.4195
  282MOL0     C37989   4.926   2.269  11.059 -0.1110 -0.4715 -0.8888
  282MOL0     C37990   4.853   2.383  11.090  0.3097 -0.2125  0.6321
  282MOL0     C37991   4.827   2.473  10.987 -0.2953 -0.4565 -0.4361
  282MOL0     C37992   4.869   2.452  10.858  0.1479 -0.0386  0.0542
  282MOL0     O37993   4.841   2.520  10.749 -0.1078 -0.3253 -0.5745
  282MOL0     C37994   4.770   2.639  10.741 -0.0748  0.6491  0.3486
  282MOL0     C37995   4.706   2.667  10.599 -0.1940 -0.5344  0.1408
  282MOL0     C37996   4.662   2.539  10.523  0.4418  0.7577 -0.8339
  282MOL0     C37997   4.547   2.473  10.607 -0.2530 -0.1301  0.6160
  282MOL0     C37998   4.453   2.397  10.520 -0.7337 -0.2645  0.0484
  282MOL0     C37999   4.363   2.354  10.447  0.4677  0.0199  0.3211
  282MOL0     C38000   4.942   2.343  10.830  0.4418  0.0731  0.0724
  282MOL0     C38001   4.987   2.258  10.932  0.6505  0.7751  0.6750
  282MOL0     C38002   5.093   2.151  10.897  0.5963 -0.4605 -0.9809
  282MOL0     H38003   4.769   2.137  11.483  0.1845 -0.2694  0.6003
  282MOL0     H38004   4.857   2.049  11.717 -2.0248  3.2376  0.5132
  282MOL0     H38005   5.199   2.060  11.915 -0.3079  2.4987 -0.6320
  282MOL0     H38006   5.069   2.168  11.855  1.2261  2.0765  3.1755
  282MOL0     H38007   4.972   1.907  11.952 -4.1681  2.0725  0.5021
  282MOL0     H38008   4.930   2.070  11.981 -1.0856 -0.9811 -0.1577
  282MOL0     H38009   4.990   1.984  12.200  0.1700  1.8715 -0.0718
  282MOL0     H38010   5.111   2.090  12.161  0.9734  0.4310 -0.3908
  282MOL0     H38011   5.110   1.799  12.133 -2.4625  1.4584 -0.1537
  282MOL0     H38012   5.245   1.903  12.058 -0.9881 -0.4443 -1.0412
  282MOL0     H38013   5.320   1.989  12.246 -0.8568  1.2845 -0.6844
  282MOL0     H38014   5.194   1.931  12.353  0.2554  1.7977 -0.0040
  282MOL0     H38015   5.266   1.696  12.298  0.7371 -0.6940  3.6482
  282MOL0     H38016   5.424   1.771  12.249  1.3166 -1.9642  1.7315
  282MOL0     H38017   5.282   1.757  12.518  1.5255 -1.5691  2.4843
  282MOL0     H38018   5.413   1.876  12.497 -0.1704 -0.2690  3.4447
  282MOL0     H38019   5.410   1.573  12.501 -2.5557  1.1082  4.1764
  282MOL0     H38020   5.547   1.660  12.434  0.5109  2.2335 -0.2669
  282MOL0     H38021   5.686   1.800  12.616 -1.5600 -0.1941  0.3529
  282MOL0     H38022   5.798   1.709  12.944  2.3454  2.7491 -0.2666
  282MOL0     H38023   5.793   1.853  12.846 -1.6272  0.0506 -1.9852
  282MOL0     H38024   5.744   1.934  13.061  0.1936 -0.0832 -0.1008
  282MOL0     H38025   5.595   1.926  12.969 -0.0585  2.1043  0.6032
  282MOL0     H38026   5.684   1.743  13.197 -0.9531  1.1366  0.0765
  282MOL0     H38027   5.524   1.725  13.110 -2.6695  0.6522  2.0175
  282MOL0     H38028   5.433   1.896  13.197 -1.1405 -2.0934  1.7491
  282MOL0     H38029   5.589   1.981  13.224 -0.7335  0.3121  1.7098
  282MOL0     H38030   5.352   2.070  13.342 -0.1419  2.0661  0.8387
  282MOL0     H38031   5.254   2.202  13.526 -0.1446  1.4440  0.7637
  282MOL0     H38032   5.203   2.108  14.087  4.0023 -2.2307 -0.9194
  282MOL0     H38033   5.144   2.239  14.281 -1.2328  0.9429 -0.6612
  282MOL0     H38034   5.186   2.699  14.242  0.1588  0.3748 -0.3679
  282MOL0     H38035   5.035   2.629  14.224  1.0789  1.5856 -2.2719
  282MOL0     H38036   5.161   2.733  14.490  0.4317  2.3756 -1.5022
  282MOL0     H38037   5.039   2.803  14.398 -2.9681 -0.8658  0.5218
  282MOL0     H38038   4.901   2.591  14.444 -0.8959  1.7850 -0.2769
  282MOL0     H38039   5.045   2.526  14.544  0.0910  0.1043  3.4156
  282MOL0     H38040   4.915   2.793  14.583  1.4730  0.9377  1.5594
  282MOL0     H38041   5.006   2.705  14.703 -0.6072 -1.4640  1.0524
  282MOL0     H38042   4.839   2.530  14.730 -3.6769 -1.5083  0.2793
  282MOL0     H38043   4.736   2.606  14.607  0.6871  1.6908 -0.8784
  282MOL0     H38044   4.821   2.739  14.869  1.5913  0.1210 -1.2666
  282MOL0     H38045   4.695   2.794  14.765  2.0734  0.0913 -1.5720
  282MOL0     H38046   4.670   2.523  14.934 -1.8775  1.1027  4.7615
  282MOL0     H38047   4.561   2.561  14.811 -0.2467 -0.5359  0.7426
  282MOL0     H38048   4.511   2.792  14.932 -0.1930 -1.2574 -1.6938
  282MOL0     H38049   4.457   2.646  15.012  0.9463  0.3910  3.0605
  282MOL0     H38050   5.293   2.588  14.095 -2.2270 -0.3803 -3.9718
  282MOL0     H38051   5.396   2.433  13.893 -2.4784 -3.5917 -3.3312
  282MOL0     H38052   5.415   1.946  13.812 -1.1890  0.6782  0.0311
  282MOL0     H38053   5.512   1.793  13.622  1.2196 -0.3016 -0.9027
  282MOL0     H38054   5.255   2.075  11.567  0.0699 -1.6969  1.1479
  282MOL0     H38055   5.171   2.161  11.352 -0.5799  1.3523 -0.3295
  282MOL0     H38056   4.816   2.398  11.191  0.1368  0.3805  0.4866
  282MOL0     H38057   4.769   2.562  11.010  0.4854 -0.4383  1.6343
  282MOL0     H38058   4.840   2.722  10.753 -1.3209  1.4621  2.5028
  282MOL0     H38059   4.686   2.640  10.812 -0.1771  2.6099  0.2414
  282MOL0     H38060   4.773   2.724  10.535 -3.1921  2.6752 -0.4275
  282MOL0     H38061   4.621   2.735  10.603 -0.2038 -0.1171 -3.4841
  282MOL0     H38062   4.749   2.473  10.520  1.1628  1.6968 -3.4542
  282MOL0     H38063   4.625   2.542  10.420 -3.6994 -4.0335  0.1582
  282MOL0     H38064   4.576   2.403  10.685 -0.8531 -0.2145  0.7701
  282MOL0     H38065   4.497   2.559  10.654  1.8936  0.2533  2.3484
  282MOL0     H38066   4.293   2.339  10.367  0.1330 -4.2232  1.2050
  282MOL0     H38067   4.953   2.334  10.722 -1.2205  2.1558 -0.3436
  282MOL0     H38068   5.185   2.169  10.954 -0.0825  2.3554 -0.6218
  282MOL0     H38069   5.052   2.050  10.912  0.0620  0.0695  1.8268
  282MOL0     H38070   5.123   2.160  10.793 -0.2928 -0.6466 -1.2616
  283MOL0     O38071   7.427   6.751   4.870 -0.0932  0.2079 -0.0751
  283MOL0     C38072   7.437   6.869   4.892 -0.6188 -1.3379  0.5892
  283MOL0     O38073   7.415   6.928   5.005  0.6947  0.8227  0.2069
  283MOL0     C38074   7.303   6.884   5.074  0.7628 -0.1958 -0.3094
  283MOL0     C38075   7.309   6.905   5.214  0.0510  0.5906  0.0106
  283MOL0     C38076   7.219   6.838   5.303  0.4249  0.0001  0.5203
  283MOL0     C38077   7.108   6.774   5.251 -0.4235  0.4165 -0.1596
  283MOL0     O38078   7.018   6.712   5.339  0.1391  0.2491  0.5367
  283MOL0     C38079   7.013   6.761   5.472 -0.3504  0.7511 -0.0265
  283MOL0     C38080   6.879   6.711   5.549 -0.2010 -0.2994 -0.6540
  283MOL0     C38081   6.751   6.763   5.487  0.0772 -0.5759  0.1438
  283MOL0     C38082   6.748   6.914   5.448 -0.4728  0.1663 -0.0476
  283MOL0     C38083   6.607   6.950   5.402  0.1595  0.2841  0.1936
  283MOL0     C38084   6.603   7.087   5.338 -0.3513 -0.5732  1.2035
  283MOL0     C38085   6.467   7.103   5.280  0.9200  0.7912  0.6193
  283MOL0     C38086   6.356   7.090   5.386  0.3257  0.0298 -0.0156
  283MOL0     N38087   6.222   7.108   5.323 -0.4924  1.0183 -0.2559
  283MOL0     C38088   6.162   7.016   5.244  0.3414 -0.0734 -0.3977
  283MOL0     C38089   6.050   7.077   5.205 -0.3407  0.4221 -1.2742
  283MOL0     C38090   5.955   7.017   5.103  0.1245 -0.0002  0.7429
  283MOL0     C38091   5.971   6.865   5.082 -0.3410  0.1685 -0.0076
  283MOL0     C38092   5.883   6.821   4.958 -0.0719 -0.1973 -0.4834
  283MOL0     C38093   5.927   6.885   4.821 -0.0188  0.2679 -0.1141
  283MOL0     O38094   5.863   6.818   4.705 -0.0662 -0.5980  0.9043
  283MOL0     C38095   5.748   6.869   4.656 -0.0615 -0.3382  0.6952
  283MOL0     C38096   5.691   6.789   4.557 -1.3967  0.4510  0.2846
  283MOL0     C38097   5.570   6.827   4.497 -1.6957  0.3000 -0.7934
  283MOL0     C38098   5.503   6.939   4.536 -0.1536  0.1705  0.0984
  283MOL0     C38099   5.364   6.974   4.491  0.1523  0.3562  0.1750
  283MOL0     O38100   5.355   7.102   4.452 -0.1709 -0.8586  0.2380
  283MOL0     C38101   5.238   7.170   4.424 -0.2391  0.6365  0.9396
  283MOL0     C38102   5.227   7.246   4.305 -0.4034  0.1541  0.2974
  283MOL0     C38103   5.117   7.325   4.293  0.0501 -0.2062 -1.3516
  283MOL0     C38104   5.006   7.314   4.379 -0.9423 -0.3804 -0.4648
  283MOL0     O38105   4.893   7.388   4.352  0.2224 -1.0113 -0.0299
  283MOL0     C38106   4.780   7.385   4.430  0.0808  0.1642  0.1856
  283MOL0     C38107   4.670   7.487   4.386 -0.2727 -0.1206  0.2141
  283MOL0     C38108   4.547   7.484   4.471 -0.3556 -0.0611 -0.7387
  283MOL0     C38109   4.422   7.557   4.435  0.6014  0.3693  0.6690
  283MOL0     C38110   4.423   7.710   4.428  0.0823  0.0584 -0.3255
  283MOL0     C38111   4.488   7.753   4.299 -0.9742 -0.1974 -0.9740
  283MOL0     C38112   4.452   7.897   4.261 -0.2364  0.0687 -0.1839
  283MOL0     C38113   4.509   7.929   4.113  0.1416  0.8596  0.1535
  283MOL0    Cl38114   4.506   8.104   4.093  0.5715 -0.0866 -0.4409
  283MOL0     C38115   5.029   7.246   4.494  0.8506  0.2533  0.0126
  283MOL0     C38116   5.136   7.179   4.518  0.5406  0.3382 -0.5018
  283MOL0     O38117   5.284   6.885   4.481 -0.6816 -0.4062  0.4751
  283MOL0     C38118   5.557   7.017   4.636 -0.6526 -1.0111 -0.9045
  283MOL0     C38119   5.675   6.977   4.705 -0.0939 -0.7064  0.0095
  283MOL0     N38120   6.062   7.214   5.238 -0.1632  0.3211 -0.4824
  283MOL0     N38121   6.164   7.233   5.312 -0.2507  0.6427  0.3698
  283MOL0     C38122   7.086   6.771   5.114 -0.7883  0.5268 -0.0458
  283MOL0     C38123   7.182   6.822   5.026  0.1250  0.1294  0.3591
  283MOL0     C38124   7.487   6.963   4.782 -0.2384 -0.3948  0.0433
  283MOL0     C38125   7.533   7.086   4.821 -0.2593  0.3098  0.2313
  283MOL0     C38126   7.585   7.174   4.732 -0.5320 -0.9435  0.0090
  283MOL0     C38127   7.581   7.153   4.597  0.3701  0.3225 -0.5290
  283MOL0     O38128   7.655   7.245   4.522 -0.3095  0.2645  0.0072
  283MOL0     C38129   7.674   7.234   4.378 -0.0470  0.3843 -0.4444
  283MOL0     C38130   7.601   7.342   4.306 -0.9135  0.5652 -0.5809
  283MOL0     C38131   7.672   7.481   4.333 -0.1468 -0.0738  0.3774
  283MOL0     C38132   7.604   7.587   4.249  0.2265 -0.4103  0.5038
  283MOL0     C38133   7.621   7.713   4.318  0.2291 -0.8042 -0.8813
  283MOL0     C38134   7.631   7.808   4.394  0.6100 -0.4361 -0.5097
  283MOL0     C38135   7.507   7.040   4.553  0.1661  0.7098  0.4694
  283MOL0     C38136   7.461   6.944   4.644  0.9852  0.1862 -0.4959
  283MOL0     C38137   7.387   6.822   4.592  0.0529 -0.6533  0.0079
  283MOL0     H38138   7.393   6.959   5.257 -1.2667  3.7805 -1.1328
  283MOL0     H38139   7.231   6.863   5.408 -0.0388  0.5253  0.4543
  283MOL0     H38140   7.095   6.723   5.532 -1.2960 -0.0777  0.7796
  283MOL0     H38141   7.012   6.871   5.477  0.7437  0.8082 -0.7160
  283MOL0     H38142   6.887   6.735   5.656 -2.8452  2.3945 -0.9396
  283MOL0     H38143   6.883   6.603   5.529  0.2131 -0.3444 -0.3543
  283MOL0     H38144   6.667   6.744   5.554 -1.8051  0.5168 -1.7700
  283MOL0     H38145   6.719   6.702   5.402 -4.1134 -1.2125  1.9250
  283MOL0     H38146   6.781   6.974   5.533  0.2888  0.9909 -0.9021
  283MOL0     H38147   6.824   6.926   5.371  0.9999  2.6314  1.6369
  283MOL0     H38148   6.582   6.874   5.327 -0.2016  1.7473 -1.2069
  283MOL0     H38149   6.547   6.934   5.492  3.3974  0.4514  2.5792
  283MOL0     H38150   6.624   7.163   5.414  1.6339 -0.7822  0.9160
  283MOL0     H38151   6.688   7.101   5.271 -2.1392  0.8223 -0.9043
  283MOL0     H38152   6.448   7.026   5.204  4.0365 -0.9140  1.3809
  283MOL0     H38153   6.460   7.198   5.225  2.4462  0.9627  0.6872
  283MOL0     H38154   6.350   6.986   5.420 -1.0458 -1.1819 -3.5090
  283MOL0     H38155   6.376   7.157   5.470 -1.5493 -1.3003  1.5537
  283MOL0     H38156   6.201   6.917   5.220 -1.7875 -1.2497  0.6754
  283MOL0     H38157   5.854   7.046   5.131  1.0809  0.2474  4.5024
  283MOL0     H38158   5.976   7.072   5.011 -1.3738  0.3776  0.6123
  283MOL0     H38159   6.074   6.837   5.056 -0.1334  0.0488  0.9166
  283MOL0     H38160   5.943   6.817   5.176  1.8361  0.7596  1.0125
  283MOL0     H38161   5.782   6.859   4.977 -0.5242 -0.0925 -2.7844
  283MOL0     H38162   5.873   6.713   4.953 -1.6814 -0.0706 -0.3715
  283MOL0     H38163   6.036   6.881   4.819  0.0951 -0.5969  2.9342
  283MOL0     H38164   5.900   6.991   4.813 -1.4407  0.1128  1.9616
  283MOL0     H38165   5.733   6.690   4.542  0.0043  1.3743 -2.5589
  283MOL0     H38166   5.535   6.771   4.411  2.2966 -0.7552 -1.9673
  283MOL0     H38167   5.305   7.257   4.231 -0.3673 -0.1380  0.2913
  283MOL0     H38168   5.102   7.401   4.217 -1.6134  0.4603 -0.4098
  283MOL0     H38169   4.749   7.282   4.448 -0.4857  0.6474  2.3157
  283MOL0     H38170   4.810   7.419   4.530 -2.5472  0.3578  0.9909
  283MOL0     H38171   4.706   7.590   4.375 -2.0473  0.8120  2.3356
  283MOL0     H38172   4.636   7.438   4.294  3.2659 -1.8286 -0.3581
  283MOL0     H38173   4.510   7.381   4.473  1.3826 -0.7185 -0.8427
  283MOL0     H38174   4.579   7.520   4.569 -1.2867 -0.5836 -0.2265
  283MOL0     H38175   4.352   7.521   4.511  0.9891 -2.4028 -0.1600
  283MOL0     H38176   4.394   7.507   4.341  1.3184  0.7006  0.2724
  283MOL0     H38177   4.464   7.747   4.522  1.9698 -0.3736 -0.9118
  283MOL0     H38178   4.317   7.736   4.429  0.4594  1.6946 -0.0594
  283MOL0     H38179   4.596   7.735   4.301 -0.8752 -0.4250 -3.7003
  283MOL0     H38180   4.456   7.686   4.218 -1.4629  0.7019 -1.5421
  283MOL0     H38181   4.486   7.968   4.337 -0.4492 -1.8631  1.8146
  283MOL0     H38182   4.343   7.897   4.264 -0.2920 -1.5812  3.8577
  283MOL0     H38183   4.613   7.905   4.088 -0.4253 -1.8425  0.1058
  283MOL0     H38184   4.455   7.877   4.034  2.9111  1.8246 -2.5906
  283MOL0     H38185   4.947   7.254   4.566 -1.4778 -0.0737 -2.4548
  283MOL0     H38186   5.136   7.123   4.611 -2.4308 -1.8409 -1.6549
  283MOL0     H38187   5.501   7.096   4.686 -0.9135 -1.2634 -0.7929
  283MOL0     H38188   5.700   7.044   4.787 -3.7485  1.4456 -0.4486
  283MOL0     H38189   7.000   6.717   5.075  0.2106 -0.7424 -0.5806
  283MOL0     H38190   7.167   6.819   4.918  1.2227  0.6159  0.1762
  283MOL0     H38191   7.556   7.105   4.925  1.9352 -2.3239  0.3702
  283MOL0     H38192   7.630   7.266   4.769  1.1354 -1.9608  0.6196
  283MOL0     H38193   7.655   7.135   4.335  2.8716 -1.0145  1.2115
  283MOL0     H38194   7.778   7.251   4.347  0.1146 -0.8783 -0.6530
  283MOL0     H38195   7.499   7.345   4.344 -0.4496 -0.3947  0.8323
  283MOL0     H38196   7.598   7.309   4.202 -2.4198  2.4715 -1.1921
  283MOL0     H38197   7.777   7.488   4.303  1.3684 -0.6776  4.9093
  283MOL0     H38198   7.666   7.509   4.438 -3.6794 -0.7211  0.4811
  283MOL0     H38199   7.637   7.593   4.145 -1.1717 -2.7738 -0.1518
  283MOL0     H38200   7.496   7.569   4.254  0.0332  0.5525 -0.0531
  283MOL0     H38201   7.648   7.883   4.469 -0.1332 -0.6290 -0.1344
  283MOL0     H38202   7.499   7.036   4.445 -0.6893  3.3939  0.3540
  283MOL0     H38203   7.340   6.838   4.494  2.1436  0.0617 -0.9275
  283MOL0     H38204   7.453   6.737   4.609 -1.8185 -2.3164 -0.6641
  283MOL0     H38205   7.304   6.802   4.660  0.3256 -1.0063  0.2389
  284MOL0     O38206   5.079   5.109   5.290 -0.2858 -0.4604 -0.1458
  284MOL0     C38207   4.983   5.034   5.296  0.3571  0.2437  0.6276
  284MOL0     O38208   4.961   4.922   5.214 -0.1128 -0.7731 -0.1289
  284MOL0     C38209   5.060   4.889   5.134 -0.3074 -0.4390  0.6587
  284MOL0     C38210   5.199   4.876   5.177 -0.8553  0.2318 -0.0939
  284MOL0     C38211   5.296   4.837   5.086 -0.2764 -0.3830  0.8214
  284MOL0     C38212   5.265   4.801   4.956 -0.6528  0.1746 -1.1962
  284MOL0     O38213   5.366   4.743   4.871  0.0971 -1.0468  0.1782
  284MOL0     C38214   5.475   4.831   4.862  0.3718 -0.4466 -1.5842
  284MOL0     C38215   5.576   4.771   4.758  0.1784  0.0319 -0.2003
  284MOL0     C38216   5.638   4.645   4.809  0.9595 -0.8176 -0.3130
  284MOL0     C38217   5.739   4.585   4.706 -0.0859 -0.9414  0.5507
  284MOL0     C38218   5.816   4.473   4.753  0.4757 -0.3241 -0.0613
  284MOL0     C38219   5.922   4.420   4.647  0.6024 -0.0856 -0.3276
  284MOL0     C38220   6.028   4.523   4.611 -0.0976  0.6265 -0.4768
  284MOL0     C38221   6.129   4.465   4.507 -1.2413 -0.9756 -1.3170
  284MOL0     N38222   6.221   4.563   4.458 -0.1101 -0.2076  0.8436
  284MOL0     C38223   6.343   4.530   4.419  0.0745 -0.6572  0.5989
  284MOL0     C38224   6.392   4.638   4.357 -0.1377 -0.0861  0.4179
  284MOL0     C38225   6.537   4.660   4.319  1.0344  0.0422 -1.1787
  284MOL0     C38226   6.599   4.541   4.244  1.1489 -0.6361  0.2775
  284MOL0     C38227   6.740   4.569   4.204  0.6154  0.1749 -0.3542
  284MOL0     C38228   6.803   4.441   4.137 -0.3666  0.6226 -0.2187
  284MOL0     O38229   6.916   4.460   4.046 -0.4193 -0.1978 -0.3895
  284MOL0     C38230   6.969   4.356   3.978 -0.1655  0.4600 -0.3020
  284MOL0     C38231   6.946   4.216   4.006 -1.0803 -0.8362 -0.9695
  284MOL0     C38232   7.019   4.115   3.940 -0.4739 -1.0937  0.5036
  284MOL0     C38233   7.106   4.154   3.827  0.9405  0.3026 -0.8241
  284MOL0     C38234   7.197   4.059   3.756 -0.2766  0.0430  0.4936
  284MOL0     O38235   7.273   4.117   3.658 -0.0093 -0.4104  0.3593
  284MOL0     C38236   7.361   4.039   3.593 -0.5339  0.7209 -0.4630
  284MOL0     C38237   7.483   4.106   3.577 -0.3800  0.6155  0.4252
  284MOL0     C38238   7.573   4.044   3.505  0.4913  0.6828  1.0042
  284MOL0     C38239   7.562   3.918   3.447 -1.1057  0.8023 -0.4788
  284MOL0     O38240   7.666   3.866   3.372  0.0105  0.7414 -0.4775
  284MOL0     C38241   7.649   3.880   3.238  0.1650 -0.2985  0.6796
  284MOL0     C38242   7.768   3.926   3.150 -0.0466 -0.0307  0.0691
  284MOL0     C38243   7.828   4.043   3.228 -0.3171  0.2852 -0.1334
  284MOL0     C38244   7.960   4.096   3.167  0.1096 -0.0140  0.2117
  284MOL0     C38245   7.984   4.247   3.168 -0.0432 -0.0013  0.7805
  284MOL0     C38246   7.950   4.318   3.303  0.3891 -0.3790 -0.8754
  284MOL0     C38247   8.022   4.278   3.440  0.0843 -0.4985 -0.9479
  284MOL0     C38248   8.176   4.251   3.448  0.4767  0.3488  0.2783
  284MOL0    Cl38249   8.266   4.405   3.454 -0.2393 -0.1964 -0.0828
  284MOL0     C38250   7.446   3.839   3.476 -0.3897 -0.9593 -0.7328
  284MOL0     C38251   7.338   3.913   3.540  0.4726 -0.5221  0.8352
  284MOL0     O38252   7.200   3.939   3.792  0.2238 -0.0620 -0.5437
  284MOL0     C38253   7.118   4.291   3.795  0.2903 -1.5564 -0.5624
  284MOL0     C38254   7.051   4.388   3.875  0.1554  0.4253 -0.5455
  284MOL0     N38255   6.287   4.739   4.365 -1.2330 -0.7868 -0.1528
  284MOL0     N38256   6.181   4.683   4.416 -0.3622  0.2050  0.1593
  284MOL0     C38257   5.132   4.804   4.913 -0.0883  1.2594 -0.9070
  284MOL0     C38258   5.032   4.855   5.000  0.0854 -1.1464 -0.6799
  284MOL0     C38259   4.880   5.076   5.399  0.0409 -0.6322 -0.4494
  284MOL0     C38260   4.782   4.992   5.452  0.2676  0.0505 -0.8518
  284MOL0     C38261   4.695   5.032   5.550 -0.4716  0.4169 -0.2465
  284MOL0     C38262   4.700   5.155   5.601  0.0951  0.0221 -0.4193
  284MOL0     O38263   4.643   5.190   5.711  0.2974 -0.3745  0.4380
  284MOL0     C38264   4.523   5.127   5.758  1.1102  0.2943 -0.4267
  284MOL0     C38265   4.508   5.137   5.915  0.1300  0.0959 -0.1800
  284MOL0     C38266   4.531   5.277   5.978  0.2852  0.0080 -0.2140
  284MOL0     C38267   4.628   5.388   5.937 -0.6215  0.3038  1.0060
  284MOL0     C38268   4.756   5.335   5.994 -1.3548  0.1167 -0.1666
  284MOL0     C38269   4.870   5.304   6.019  0.2977  0.5350  1.0913
  284MOL0     C38270   4.797   5.243   5.553  0.5255 -0.3072  0.1742
  284MOL0     C38271   4.879   5.214   5.454  0.1413  1.3806  0.3889
  284MOL0     C38272   4.966   5.332   5.403  0.9903  0.0295  0.0822
  284MOL0     H38273   5.228   4.904   5.278  0.1042  2.1020 -0.8395
  284MOL0     H38274   5.398   4.817   5.116 -0.4416  0.0438  1.6847
  284MOL0     H38275   5.444   4.935   4.848 -1.7544 -0.0929  3.5120
  284MOL0     H38276   5.521   4.847   4.960  0.2735  3.0574 -1.9747
  284MOL0     H38277   5.651   4.850   4.747 -0.7404  1.2061  1.4703
  284MOL0     H38278   5.532   4.770   4.658 -0.9007  0.3214  0.2593
  284MOL0     H38279   5.563   4.569   4.830  1.9914 -1.8114 -0.1035
  284MOL0     H38280   5.679   4.645   4.911  0.3948 -1.3250 -0.0788
  284MOL0     H38281   5.676   4.561   4.620  0.2395 -0.4552  0.1689
  284MOL0     H38282   5.806   4.670   4.689 -0.9735 -0.2457  0.4277
  284MOL0     H38283   5.860   4.506   4.848  1.2695  3.1573 -1.4883
  284MOL0     H38284   5.744   4.391   4.757 -1.7637  1.4427 -1.6791
  284MOL0     H38285   5.971   4.330   4.686 -0.3158 -1.4637 -2.2124
  284MOL0     H38286   5.878   4.378   4.556  0.8129  2.0639 -1.4627
  284MOL0     H38287   6.097   4.549   4.692  3.0444 -0.0713 -2.7628
  284MOL0     H38288   5.983   4.615   4.575 -1.7170 -0.1400 -0.5095
  284MOL0     H38289   6.188   4.398   4.569 -2.7843  0.7941  2.3556
  284MOL0     H38290   6.073   4.408   4.432 -2.4980 -1.7865  0.1886
  284MOL0     H38291   6.398   4.438   4.437 -0.6820 -0.6988  3.0171
  284MOL0     H38292   6.535   4.753   4.261 -3.8090  0.0826 -1.3292
  284MOL0     H38293   6.584   4.674   4.417 -3.5857  0.8733  1.1584
  284MOL0     H38294   6.588   4.448   4.300 -0.9901 -1.8541 -1.9612
  284MOL0     H38295   6.536   4.517   4.158 -0.9491 -0.6468  1.7369
  284MOL0     H38296   6.803   4.601   4.288 -0.6146  0.7947  0.3569
  284MOL0     H38297   6.752   4.651   4.132  2.2434  0.5951  0.3412
  284MOL0     H38298   6.725   4.396   4.075 -0.3175 -4.7265  3.0107
  284MOL0     H38299   6.817   4.357   4.205 -0.8738  0.7674  0.0710
  284MOL0     H38300   6.906   4.181   4.101  2.4167  1.6577  1.7196
  284MOL0     H38301   7.001   4.012   3.969  0.4222 -0.0660  5.5340
  284MOL0     H38302   7.503   4.205   3.618 -0.8697  1.1684 -0.6339
  284MOL0     H38303   7.659   4.100   3.467 -2.7166  4.6522 -1.2743
  284MOL0     H38304   7.605   3.786   3.204 -0.7173 -0.3821  1.9383
  284MOL0     H38305   7.573   3.958   3.229 -0.6751 -0.9826  1.5160
  284MOL0     H38306   7.840   3.845   3.137 -1.0492 -0.6317 -2.3178
  284MOL0     H38307   7.740   3.953   3.048  0.5784 -2.2104 -0.7299
  284MOL0     H38308   7.761   4.129   3.229 -1.0670 -0.2772 -0.7444
  284MOL0     H38309   7.833   4.011   3.332  0.0351  0.8343  0.0217
  284MOL0     H38310   7.962   4.067   3.061 -1.7362  0.5803 -0.0188
  284MOL0     H38311   8.046   4.046   3.213  1.0365 -0.1157 -1.5044
  284MOL0     H38312   7.916   4.294   3.096 -1.1129 -1.6617  0.6675
  284MOL0     H38313   8.089   4.268   3.144 -0.3317  1.6527  0.7898
  284MOL0     H38314   7.997   4.415   3.287 -0.3808  0.2919  0.7096
  284MOL0     H38315   7.842   4.337   3.315  0.3367  0.8723 -2.7951
  284MOL0     H38316   7.970   4.184   3.460 -2.3875  0.9638 -0.0232
  284MOL0     H38317   7.992   4.348   3.518  4.1424  0.1757  0.2121
  284MOL0     H38318   8.204   4.194   3.536 -2.1157  0.4474  1.2470
  284MOL0     H38319   8.203   4.195   3.358  0.8191 -0.7253  1.0280
  284MOL0     H38320   7.447   3.731   3.462 -1.6784 -1.1013  0.0254
  284MOL0     H38321   7.236   3.875   3.550 -0.3548  1.5504  0.7885
  284MOL0     H38322   7.195   4.327   3.727  0.4932 -0.3600  0.2579
  284MOL0     H38323   7.090   4.488   3.856 -0.8513  0.9708  0.1347
  284MOL0     H38324   5.126   4.763   4.813 -1.4507  0.4906 -0.5415
  284MOL0     H38325   4.927   4.855   4.970 -0.0129 -1.4378 -0.3454
  284MOL0     H38326   4.773   4.890   5.417  0.4796  1.0886 -4.2504
  284MOL0     H38327   4.638   4.959   5.607  1.9369 -2.3567 -1.1658
  284MOL0     H38328   4.510   5.019   5.744 -1.9556  0.3884  0.9385
  284MOL0     H38329   4.434   5.179   5.724 -0.4486 -2.3528 -0.6682
  284MOL0     H38330   4.582   5.073   5.964  1.4003  0.7273 -1.2106
  284MOL0     H38331   4.410   5.095   5.938 -0.3823  0.1444 -2.1357
  284MOL0     H38332   4.545   5.258   6.085  3.6806 -1.9129 -0.8625
  284MOL0     H38333   4.439   5.335   5.964 -0.1746 -0.5151  0.5655
  284MOL0     H38334   4.629   5.406   5.829 -1.1030 -0.2966  0.8991
  284MOL0     H38335   4.600   5.489   5.968  1.6825  2.0290 -1.9972
  284MOL0     H38336   4.970   5.268   6.037  0.4703  1.1943  1.5039
  284MOL0     H38337   4.790   5.344   5.591  1.4197  0.7799 -2.3698
  284MOL0     H38338   4.974   5.332   5.294  0.9360  2.2619  0.0237
  284MOL0     H38339   4.923   5.428   5.432  0.7968  0.1266 -0.5118
  284MOL0     H38340   5.067   5.329   5.446  1.0023 -0.6098  0.0196
  285MOL0     O38341  10.180   0.745   7.980 -0.4227  0.6059  0.5078
  285MOL0     C38342  10.150   0.717   8.098 -0.8288 -0.0683  0.1222
  285MOL0     O38343  10.172   0.800   8.210  0.4038 -0.1185 -0.2121
  285MOL0     C38344  10.244   0.923   8.193  0.2166  0.0591  0.1310
  285MOL0     C38345  10.214   1.034   8.271 -0.3334  0.6663 -0.3965
  285MOL0     C38346  10.290   1.156   8.242 -0.6180  0.5627 -1.4157
  285MOL0     C38347  10.392   1.177   8.151  0.2049  0.1247 -0.6102
  285MOL0     O38348  10.471   1.291   8.146  0.6320  0.2333 -0.2687
  285MOL0     C38349  10.451   1.366   8.016  0.3280 -0.2589 -0.7866
  285MOL0     C38350  10.576   1.441   7.987  0.2742 -0.7326 -0.2195
  285MOL0     C38351  10.715   1.367   7.983 -0.1689 -1.0338 -0.5006
  285MOL0     C38352  10.736   1.286   7.854  0.2850 -0.2392 -0.6397
  285MOL0     C38353  10.853   1.185   7.854 -0.2045  0.4776 -1.0039
  285MOL0     C38354  10.974   1.244   7.909 -0.6282 -0.3391 -0.1228
  285MOL0     C38355  11.078   1.144   7.936 -0.6098 -0.1386  0.1437
  285MOL0     C38356  11.222   1.209   7.916 -0.4984 -0.5556  0.4904
  285MOL0     N38357  11.319   1.104   7.928  0.2696  1.1913 -1.1649
  285MOL0     C38358  11.341   1.025   8.032  0.2089 -0.2040  0.3811
  285MOL0     C38359  11.451   0.948   7.980 -0.6828 -0.2745  0.9363
  285MOL0     C38360  11.538   0.858   8.051 -0.0348  0.1713  0.2956
  285MOL0     C38361  11.456   0.727   8.078 -0.4754  0.5516 -0.1559
  285MOL0     C38362  11.531   0.632   8.185 -0.2578  0.5344 -0.0373
  285MOL0     C38363  11.463   0.499   8.202 -0.0426  0.0569  0.5914
  285MOL0     O38364  11.343   0.508   8.280 -0.3504  0.1577 -0.5893
  285MOL0     C38365  11.349   0.502   8.416 -0.2332  0.0348 -0.2894
  285MOL0     C38366  11.466   0.505   8.487  1.0871  0.7577  0.2463
  285MOL0     C38367  11.463   0.505   8.635 -0.5390  1.0541 -0.3107
  285MOL0     C38368  11.339   0.509   8.705 -0.0840 -0.8516 -0.3481
  285MOL0     C38369  11.341   0.513   8.854  0.2463 -0.2105  0.1431
  285MOL0     O38370  11.222   0.537   8.913  0.5605 -0.0153 -0.0895
  285MOL0     C38371  11.217   0.555   9.054 -0.6361 -0.9239  0.3024
  285MOL0     C38372  11.201   0.446   9.141  0.0101 -0.3362 -0.6627
  285MOL0     C38373  11.190   0.474   9.278  0.4332  0.7100 -0.5926
  285MOL0     C38374  11.177   0.612   9.315 -0.3662  1.5506 -1.4420
  285MOL0     O38375  11.177   0.649   9.444 -0.4072  0.4091 -1.0855
  285MOL0     C38376  11.162   0.556   9.555 -0.4185 -0.6276  0.4389
  285MOL0     C38377  11.148   0.650   9.682  0.2928 -0.0816  0.0142
  285MOL0     C38378  11.183   0.587   9.823  1.0093 -0.8358  0.7722
  285MOL0     C38379  11.336   0.534   9.834  0.2776  0.1494 -0.3638
  285MOL0     C38380  11.360   0.465   9.967  1.1828  0.8745  0.3222
  285MOL0     C38381  11.502   0.401   9.968 -0.3833 -0.6918  0.0715
  285MOL0     C38382  11.608   0.517  10.005 -0.0597 -0.1781 -0.1246
  285MOL0     C38383  11.745   0.452  10.011 -0.3568  1.1483  0.3169
  285MOL0    Cl38384  11.789   0.387  10.180  0.1361 -0.7996  0.1679
  285MOL0     C38385  11.190   0.721   9.231 -0.1207  0.4760 -0.5192
  285MOL0     C38386  11.211   0.691   9.100  0.0180  0.9413  0.1969
  285MOL0     O38387  11.444   0.476   8.915 -0.2137 -0.3406  0.2592
  285MOL0     C38388  11.213   0.500   8.633 -0.4115  0.2658  0.5286
  285MOL0     C38389  11.227   0.501   8.491  0.0821 -0.6840  1.5114
  285MOL0     N38390  11.485   0.989   7.854 -0.7846  0.5629  0.1500
  285MOL0     N38391  11.398   1.071   7.820 -0.6144  0.6189  0.0195
  285MOL0     C38392  10.430   1.062   8.081  0.0558  0.7176 -0.1905
  285MOL0     C38393  10.351   0.944   8.100  1.0087  0.3606  0.0660
  285MOL0     C38394  10.070   0.588   8.130  0.4191  1.2535 -0.2382
  285MOL0     C38395  10.030   0.568   8.263  0.4047 -0.7922  0.0706
  285MOL0     C38396   9.951   0.456   8.307  0.0008 -1.3506  0.3887
  285MOL0     C38397   9.910   0.361   8.216  0.2915  0.0542 -0.4469
  285MOL0     O38398   9.835   0.251   8.265 -0.0745 -0.3649  0.1894
  285MOL0     C38399   9.883   0.186   8.381  0.6873 -0.8062  0.7998
  285MOL0     C38400   9.810   0.058   8.387  0.5432 -0.2831  0.3042
  285MOL0     C38401   9.855  -0.061   8.308  0.0583 -0.6041  0.3708
  285MOL0     C38402   9.842  -0.036   8.159  0.7062 -0.5491 -0.8588
  285MOL0     C38403   9.866  -0.151   8.071 -0.3303 -0.1234  0.2806
  285MOL0     C38404   9.880  -0.256   8.002 -0.2539  0.2157 -0.3792
  285MOL0     C38405   9.942   0.384   8.085  0.3980 -0.6618 -0.0692
  285MOL0     C38406  10.029   0.480   8.048  0.0863 -0.6106  0.0541
  285MOL0     C38407  10.065   0.467   7.901  0.0873 -0.8383 -0.7793
  285MOL0     H38408  10.131   1.044   8.339 -0.6936 -1.7435 -0.4064
  285MOL0     H38409  10.266   1.238   8.308 -1.4735  0.5667 -1.7186
  285MOL0     H38410  10.434   1.300   7.930  0.6010 -2.3004  0.6408
  285MOL0     H38411  10.362   1.428   8.023  1.2291  0.9085  1.1357
  285MOL0     H38412  10.593   1.519   8.062 -1.3505  2.7676 -3.2046
  285MOL0     H38413  10.564   1.489   7.889 -1.9327  0.6283  0.6346
  285MOL0     H38414  10.728   1.301   8.069  0.9333 -1.2864 -0.8458
  285MOL0     H38415  10.795   1.441   8.000 -1.2976  0.1503 -0.1688
  285MOL0     H38416  10.641   1.234   7.841 -0.0853 -0.1794  1.4657
  285MOL0     H38417  10.752   1.363   7.778  0.6910  0.8255  0.4947
  285MOL0     H38418  10.834   1.100   7.920  3.7631  0.2462  0.0997
  285MOL0     H38419  10.867   1.152   7.751 -0.3607 -0.8417 -0.6211
  285MOL0     H38420  11.009   1.324   7.843  1.3677 -1.6007 -0.6803
  285MOL0     H38421  10.959   1.289   8.007 -1.1163 -1.1495  0.1795
  285MOL0     H38422  11.076   1.069   7.856 -4.2461 -2.3365  1.9948
  285MOL0     H38423  11.061   1.092   8.031 -0.1981 -4.2200 -1.7946
  285MOL0     H38424  11.239   1.266   7.824  0.8916 -2.4690 -0.5251
  285MOL0     H38425  11.232   1.276   8.001 -2.2912 -0.7298  0.8727
  285MOL0     H38426  11.298   1.032   8.131 -0.0938 -1.8843  0.4014
  285MOL0     H38427  11.626   0.840   7.989  0.4379  2.1014  0.3513
  285MOL0     H38428  11.567   0.909   8.144  0.0698 -2.5258  1.8622
  285MOL0     H38429  11.352   0.749   8.107 -1.4054 -4.1459  0.8858
  285MOL0     H38430  11.457   0.681   7.979  0.0562  0.7935 -0.2631
  285MOL0     H38431  11.535   0.681   8.283  2.1493  0.3460  0.0114
  285MOL0     H38432  11.635   0.614   8.157 -0.3948 -0.8214  0.2753
  285MOL0     H38433  11.530   0.424   8.245  0.6919 -0.5404 -1.4854
  285MOL0     H38434  11.453   0.451   8.104  0.0985 -0.7721  0.9731
  285MOL0     H38435  11.562   0.509   8.438  0.2134 -0.3252 -1.7016
  285MOL0     H38436  11.562   0.520   8.677  0.2036 -0.7664 -1.3166
  285MOL0     H38437  11.216   0.345   9.106  1.5509 -0.8344  1.2698
  285MOL0     H38438  11.184   0.396   9.353  2.9633 -0.0695 -1.1130
  285MOL0     H38439  11.076   0.492   9.536 -0.5903  0.3784 -2.7808
  285MOL0     H38440  11.248   0.488   9.552  0.7414  0.7790 -1.4149
  285MOL0     H38441  11.215   0.735   9.669  0.5204  0.1880  2.4826
  285MOL0     H38442  11.042   0.677   9.692  0.2844 -0.7554  2.3044
  285MOL0     H38443  11.154   0.658   9.900  0.1415  2.5256 -2.3880
  285MOL0     H38444  11.106   0.509   9.837 -0.3150  0.2138 -0.3145
  285MOL0     H38445  11.403   0.618   9.820  2.1115 -1.2754 -0.5132
  285MOL0     H38446  11.352   0.451   9.764  0.3575 -1.5388  1.5505
  285MOL0     H38447  11.284   0.388   9.977  3.2411 -1.3891 -0.5426
  285MOL0     H38448  11.354   0.532  10.053 -0.1115  0.9015  0.2373
  285MOL0     H38449  11.512   0.322  10.043  0.2821 -1.2696 -0.6012
  285MOL0     H38450  11.538   0.360   9.872  2.2788 -2.6839  1.7591
  285MOL0     H38451  11.579   0.556  10.104 -0.4842  2.6263 -1.2532
  285MOL0     H38452  11.599   0.593   9.927  0.2164  0.4573  0.4438
  285MOL0     H38453  11.758   0.367   9.943  3.3075 -0.5143  2.7624
  285MOL0     H38454  11.822   0.522   9.976 -0.6123  2.3871  2.0948
  285MOL0     H38455  11.165   0.818   9.271 -2.9973 -0.6741  0.6859
  285MOL0     H38456  11.237   0.778   9.039  2.1150 -0.6879 -1.3931
  285MOL0     H38457  11.120   0.498   8.689  0.1390  0.6134  1.4846
  285MOL0     H38458  11.136   0.501   8.431  1.4686 -1.7740 -0.7405
  285MOL0     H38459  10.522   1.057   8.023  1.5310 -1.5401  2.1322
  285MOL0     H38460  10.386   0.865   8.034 -1.7395 -0.7481 -0.1851
  285MOL0     H38461  10.051   0.642   8.340  2.0054 -0.9806 -0.1347
  285MOL0     H38462   9.906   0.462   8.406 -1.8288 -0.0252 -0.4579
  285MOL0     H38463   9.851   0.253   8.462  0.4536  1.2625 -0.8995
  285MOL0     H38464   9.990   0.166   8.389  1.3366  1.7020 -0.5170
  285MOL0     H38465   9.704   0.083   8.383  0.2684 -0.8692  2.5152
  285MOL0     H38466   9.809   0.030   8.493 -3.6018  3.7841  1.6550
  285MOL0     H38467   9.807  -0.149   8.352 -2.1500  1.2405  1.9101
  285MOL0     H38468   9.961  -0.077   8.326  0.1682 -0.9350 -0.4926
  285MOL0     H38469   9.738  -0.004   8.149  0.3000  0.3209  3.8773
  285MOL0     H38470   9.908   0.048   8.133  1.8950 -0.9218  0.7890
  285MOL0     H38471   9.886  -0.333   7.927 -3.2254 -0.4601 -0.0459
  285MOL0     H38472   9.926   0.307   8.010 -0.7700 -0.1938 -0.3134
  285MOL0     H38473  10.107   0.370   7.871  1.2990  0.3412 -3.2738
  285MOL0     H38474   9.981   0.479   7.833 -0.1992  0.3234 -0.2411
  285MOL0     H38475  10.145   0.540   7.883 -1.7260  1.8711  1.4388
  286MOL0     O38476   7.088   4.059   4.386 -0.0874  0.9442 -0.0332
  286MOL0     C38477   7.106   4.141   4.471 -1.0942 -0.1730 -0.3336
  286MOL0     O38478   7.208   4.230   4.461  0.3277 -0.5552 -0.0095
  286MOL0     C38479   7.281   4.238   4.342  0.0983  0.0088 -0.5898
  286MOL0     C38480   7.233   4.324   4.239 -1.0767 -0.4585  0.0397
  286MOL0     C38481   7.306   4.345   4.127 -1.0556 -0.4539 -0.9428
  286MOL0     C38482   7.438   4.283   4.109  1.0449  1.2436 -0.7231
  286MOL0     O38483   7.512   4.298   3.993  0.3608  0.0488  0.0116
  286MOL0     C38484   7.563   4.435   3.976 -0.4077  0.8736  0.2320
  286MOL0     C38485   7.709   4.441   3.992 -0.0145  0.4083 -0.3130
  286MOL0     C38486   7.793   4.381   3.872 -0.3836  0.2424 -0.0965
  286MOL0     C38487   7.916   4.304   3.909  0.3783 -0.5401  0.1540
  286MOL0     C38488   7.904   4.218   4.041 -0.3215 -0.2381 -0.2843
  286MOL0     C38489   8.012   4.104   4.027 -0.3689  0.6014 -0.3315
  286MOL0     C38490   8.041   4.039   4.166 -0.2277 -0.6752  0.2622
  286MOL0     C38491   8.123   3.910   4.139  0.5138 -0.8609  0.5242
  286MOL0     N38492   8.123   3.827   4.260  0.2695  1.2482  0.5251
  286MOL0     C38493   8.194   3.846   4.373 -0.1468 -0.2925  0.1822
  286MOL0     C38494   8.134   3.772   4.474 -0.3892 -0.9756  0.8245
  286MOL0     C38495   8.170   3.753   4.618  0.7144 -0.0155  0.4465
  286MOL0     C38496   8.259   3.627   4.630 -1.2958 -0.4930  0.5212
  286MOL0     C38497   8.404   3.630   4.588  0.0059 -0.2903 -0.2011
  286MOL0     C38498   8.487   3.740   4.650 -1.3516  0.7063  0.1100
  286MOL0     O38499   8.538   3.844   4.556 -0.1345  1.1807  0.1461
  286MOL0     C38500   8.650   3.917   4.590 -0.1250 -0.6541  0.3507
  286MOL0     C38501   8.701   4.000   4.485  0.6771 -0.4654 -0.4810
  286MOL0     C38502   8.815   4.077   4.511  0.1593 -0.4287 -0.1315
  286MOL0     C38503   8.882   4.076   4.643 -0.0583  0.3571  1.4540
  286MOL0     C38504   9.000   4.159   4.669 -0.0258 -0.4478  0.6421
  286MOL0     O38505   9.050   4.135   4.795 -0.2599 -0.0070 -0.7923
  286MOL0     C38506   9.140   4.214   4.854 -0.4446 -0.1787 -0.8650
  286MOL0     C38507   9.260   4.248   4.794  0.1531 -0.4219 -0.5126
  286MOL0     C38508   9.363   4.290   4.875  0.5575  0.1237  1.0741
  286MOL0     C38509   9.341   4.310   5.012 -0.9992  0.3690 -0.3489
  286MOL0     O38510   9.441   4.323   5.103  0.7069 -0.7454  0.2490
  286MOL0     C38511   9.547   4.230   5.088  1.2705 -0.8071  0.6160
  286MOL0     C38512   9.659   4.233   5.190 -0.1861  0.3115 -0.2943
  286MOL0     C38513   9.801   4.222   5.135 -0.1699 -0.1630  0.2708
  286MOL0     C38514   9.903   4.271   5.237 -0.1763 -0.8757 -0.1218
  286MOL0     C38515   9.921   4.212   5.382  0.2034 -0.5986 -0.0918
  286MOL0     C38516   9.887   4.064   5.404  1.1749 -0.3061 -0.1518
  286MOL0     C38517   9.938   4.002   5.540  0.6034 -1.1447  0.5357
  286MOL0     C38518   9.830   3.989   5.649 -0.0220  0.2857  0.3521
  286MOL0    Cl38519   9.731   4.143   5.674 -0.2167 -0.1963 -0.0938
  286MOL0     C38520   9.214   4.296   5.069 -0.4040  0.3460  0.5074
  286MOL0     C38521   9.119   4.236   4.986 -0.5323 -0.9363  1.0913
  286MOL0     O38522   9.036   4.248   4.586 -0.3546  0.0317  0.0341
  286MOL0     C38523   8.832   3.991   4.742 -1.2571  0.5328  0.6119
  286MOL0     C38524   8.720   3.909   4.707 -0.4552  0.3958  0.2087
  286MOL0     N38525   8.031   3.703   4.409  0.2150 -1.3547 -0.1351
  286MOL0     N38526   8.022   3.739   4.285  0.2067  0.3632  0.3199
  286MOL0     C38527   7.485   4.200   4.206  0.5806 -0.0554 -0.1634
  286MOL0     C38528   7.405   4.179   4.323 -0.3593  0.4049  0.4768
  286MOL0     C38529   7.014   4.141   4.586  0.2652 -0.8278 -1.1161
  286MOL0     C38530   7.073   4.141   4.714 -0.1833 -1.0411  0.2377
  286MOL0     C38531   6.999   4.094   4.825  0.0455 -0.2626 -0.8900
  286MOL0     C38532   6.861   4.077   4.804  0.7821 -1.0981  0.1051
  286MOL0     O38533   6.788   4.067   4.921  0.0142  0.1917  0.6160
  286MOL0     C38534   6.737   3.935   4.933  0.1312  0.7442 -0.2103
  286MOL0     C38535   6.656   3.913   5.059  0.9029 -0.3811 -0.2743
  286MOL0     C38536   6.526   3.992   5.090 -0.4931 -0.2809 -0.4211
  286MOL0     C38537   6.541   4.136   5.135  0.1116 -0.1687 -0.9852
  286MOL0     C38538   6.601   4.159   5.269 -0.1652  0.2345  0.4721
  286MOL0     C38539   6.619   4.166   5.390 -0.2966  0.5830  0.3554
  286MOL0     C38540   6.794   4.100   4.681  0.3092 -0.1152  0.3553
  286MOL0     C38541   6.871   4.124   4.571 -0.5184 -0.0958  0.6743
  286MOL0     C38542   6.799   4.123   4.433 -0.1959 -0.4612  0.0033
  286MOL0     H38543   7.137   4.374   4.242 -1.2000 -0.7034  2.5622
  286MOL0     H38544   7.275   4.413   4.049  0.3556  0.9778 -0.3035
  286MOL0     H38545   7.541   4.464   3.873  3.1747  3.7056  0.0633
  286MOL0     H38546   7.518   4.508   4.044 -1.3441  0.0153  0.5722
  286MOL0     H38547   7.733   4.396   4.089  1.7109 -2.1376 -1.8077
  286MOL0     H38548   7.734   4.547   3.994  0.3521  0.3401 -1.0682
  286MOL0     H38549   7.819   4.465   3.807  0.1248 -0.8111 -1.2939
  286MOL0     H38550   7.734   4.314   3.809  0.5174  1.3913 -2.2791
  286MOL0     H38551   7.948   4.256   3.816  0.3743 -2.3501  1.0373
  286MOL0     H38552   8.004   4.367   3.923  3.2603 -4.3592  0.7400
  286MOL0     H38553   7.922   4.270   4.135  0.2287 -3.3543  1.4534
  286MOL0     H38554   7.810   4.166   4.062  0.4884 -1.4312  0.4822
  286MOL0     H38555   7.978   4.038   3.947 -0.1062  3.0539 -2.5757
  286MOL0     H38556   8.109   4.132   3.984 -1.9236  3.9253 -2.0554
  286MOL0     H38557   7.949   4.025   4.224  0.9804 -2.3669  1.9048
  286MOL0     H38558   8.108   4.105   4.223  2.3770 -3.0743  0.2200
  286MOL0     H38559   8.075   3.856   4.057  3.6995  0.6614 -2.6389
  286MOL0     H38560   8.227   3.922   4.108 -0.0348  0.9705 -0.8024
  286MOL0     H38561   8.279   3.912   4.387 -0.7828  0.7275 -0.6512
  286MOL0     H38562   8.201   3.843   4.672 -2.1061  2.1749 -1.3165
  286MOL0     H38563   8.075   3.725   4.666  0.5187  1.3682  0.9156
  286MOL0     H38564   8.241   3.583   4.729 -3.1631 -3.1401 -0.8497
  286MOL0     H38565   8.214   3.547   4.570 -1.4594  0.5107 -0.7301
  286MOL0     H38566   8.403   3.661   4.484 -2.6509 -0.0955 -0.1785
  286MOL0     H38567   8.456   3.534   4.600  1.5404  0.7436  2.4178
  286MOL0     H38568   8.567   3.683   4.698 -2.9756  1.4939  4.2008
  286MOL0     H38569   8.430   3.789   4.729 -1.8885 -0.3683  0.4062
  286MOL0     H38570   8.632   4.003   4.401 -0.3142 -0.7772  0.3084
  286MOL0     H38571   8.854   4.138   4.430  0.9413  2.8222  2.4603
  286MOL0     H38572   9.261   4.224   4.688  0.7745 -0.7254 -0.4372
  286MOL0     H38573   9.463   4.303   4.834  0.0491 -1.4218 -0.7881
  286MOL0     H38574   9.490   4.138   5.078 -4.9657  2.5724 -0.5377
  286MOL0     H38575   9.593   4.244   4.990  0.3183 -0.6264  0.1827
  286MOL0     H38576   9.649   4.332   5.235  0.1955  0.9938 -1.6561
  286MOL0     H38577   9.641   4.162   5.271 -0.0682 -1.6568 -1.9177
  286MOL0     H38578   9.822   4.114   5.132 -1.6959 -0.6312  3.2766
  286MOL0     H38579   9.813   4.270   5.037 -1.3373 -2.9044 -1.3337
  286MOL0     H38580   9.889   4.379   5.247 -2.0760 -1.1448  0.5341
  286MOL0     H38581   9.992   4.256   5.176 -0.6134 -1.8526 -0.5501
  286MOL0     H38582   9.868   4.262   5.462  2.5565 -1.3944  2.0972
  286MOL0     H38583  10.023   4.236   5.415 -0.2231 -3.2640  3.7196
  286MOL0     H38584   9.782   4.065   5.374  1.4711 -0.0070 -1.2403
  286MOL0     H38585   9.932   4.001   5.326  0.0041  1.7956 -2.6525
  286MOL0     H38586  10.021   4.059   5.584  0.7800 -1.0796  0.1234
  286MOL0     H38587   9.977   3.901   5.530  0.6109 -1.3934  2.5876
  286MOL0     H38588   9.760   3.915   5.612 -1.8234  1.9946  0.2062
  286MOL0     H38589   9.866   3.982   5.752 -0.4760  1.6352  0.6271
  286MOL0     H38590   9.206   4.298   5.177 -0.3230 -2.4176  0.6410
  286MOL0     H38591   9.023   4.217   5.033 -1.8893  1.6348 -0.4092
  286MOL0     H38592   8.883   3.993   4.838  2.7186 -2.8584 -1.1185
  286MOL0     H38593   8.693   3.849   4.793  0.4424 -1.7904 -0.9533
  286MOL0     H38594   7.583   4.152   4.206  1.0595  0.4423 -4.6772
  286MOL0     H38595   7.447   4.120   4.404  1.0048  1.7286  0.7696
  286MOL0     H38596   7.181   4.152   4.716  0.1003 -2.5036 -2.4913
  286MOL0     H38597   7.051   4.091   4.921 -2.0674  1.6034  0.4342
  286MOL0     H38598   6.823   3.867   4.924  0.5941  1.1476  0.9480
  286MOL0     H38599   6.674   3.905   4.849  1.6657 -1.1631 -0.7516
  286MOL0     H38600   6.722   3.921   5.146  1.3907  0.3776 -0.7002
  286MOL0     H38601   6.637   3.805   5.063 -0.1210 -0.5085 -4.0873
  286MOL0     H38602   6.486   3.927   5.169 -2.7179 -0.8477 -1.9027
  286MOL0     H38603   6.447   3.984   5.014 -0.1044  0.7014 -0.9490
  286MOL0     H38604   6.609   4.180   5.061 -0.3011  0.4774 -0.9819
  286MOL0     H38605   6.445   4.186   5.142  0.3864  0.4594 -1.5712
  286MOL0     H38606   6.631   4.168   5.496  0.2607 -0.2508  0.3161
  286MOL0     H38607   6.686   4.108   4.677  0.4967  3.6941 -0.1837
  286MOL0     H38608   6.834   4.208   4.374 -0.1130  0.2466  1.0323
  286MOL0     H38609   6.831   4.031   4.384  2.3043 -1.3809  3.0516
  286MOL0     H38610   6.690   4.124   4.443 -0.0379  0.8599  2.8214
  287MOL0     O38611   0.677  11.210   8.783 -0.5939  0.0037  0.1865
  287MOL0     C38612   0.787  11.197   8.739  0.4365  0.0992 -0.2444
  287MOL0     O38613   0.898  11.269   8.782  0.9276  0.9547 -0.3550
  287MOL0     C38614   0.880  11.313   8.908  0.4174  0.1127 -0.1379
  287MOL0     C38615   0.932  11.241   9.014 -0.8262 -0.2442  1.0771
  287MOL0     C38616   0.921  11.271   9.145 -0.1124 -0.4985 -0.6618
  287MOL0     C38617   0.846  11.391   9.182  0.7496 -0.2490 -0.4733
  287MOL0     O38618   0.802  11.429   9.307  0.2438  0.1944 -0.2813
  287MOL0     C38619   0.720  11.320   9.358 -0.2874  0.2282 -0.4569
  287MOL0     C38620   0.781  11.289   9.504  0.3619  0.4819 -0.1960
  287MOL0     C38621   0.767  11.415   9.594 -0.5446 -0.1264  0.3177
  287MOL0     C38622   0.778  11.379   9.745  0.4234  0.1474  0.8597
  287MOL0     C38623   0.888  11.442   9.811  0.4391  0.8729 -0.6150
  287MOL0     C38624   0.892  11.399   9.956  1.1575 -0.2672  0.4089
  287MOL0     C38625   1.007  11.452  10.038  0.2330 -0.7887  0.1617
  287MOL0     C38626   0.988  11.591  10.084 -0.2072  0.9954 -1.1894
  287MOL0     N38627   0.917  11.615  10.211  0.4164  0.4400  0.1801
  287MOL0     C38628   0.789  11.656  10.225 -0.2085 -0.2128 -0.5186
  287MOL0     C38629   0.774  11.700  10.347 -0.4472 -0.8288 -0.4546
  287MOL0     C38630   0.646  11.741  10.408  0.3340  0.3532 -0.2162
  287MOL0     C38631   0.592  11.630  10.496 -0.5336 -0.4784 -0.3798
  287MOL0     C38632   0.574  11.498  10.414  0.3732 -0.0178  0.4497
  287MOL0     C38633   0.496  11.405  10.504 -0.3946 -0.2867  0.3424
  287MOL0     O38634   0.466  11.289  10.427 -1.0852 -0.1544  0.0994
  287MOL0     C38635   0.368  11.211  10.473  0.0507  0.0412 -0.3121
  287MOL0     C38636   0.315  11.117  10.386 -0.8551 -0.4961 -1.2052
  287MOL0     C38637   0.200  11.041  10.419 -0.6903 -0.6396  0.2489
  287MOL0     C38638   0.139  11.062  10.545 -0.0729 -0.6411 -0.4061
  287MOL0     C38639   0.018  10.991  10.593 -0.1239 -0.1750 -0.3315
  287MOL0     O38640  -0.038  11.022  10.713 -0.3693 -0.5268 -0.0578
  287MOL0     C38641  -0.169  10.994  10.744  0.0003  0.2868  0.3584
  287MOL0     C38642  -0.186  10.933  10.868 -0.1273  0.8635 -0.9301
  287MOL0     C38643  -0.323  10.909  10.901 -0.2261 -0.9677 -0.1800
  287MOL0     C38644  -0.433  10.923  10.819 -0.6650  0.1326  0.8502
  287MOL0     O38645  -0.555  10.905  10.874 -0.2279  0.3222 -0.4012
  287MOL0     C38646  -0.655  10.832  10.797 -0.4665 -0.2130  0.0044
  287MOL0     C38647  -0.717  10.730  10.885 -0.7199 -0.5449 -0.0090
  287MOL0     C38648  -0.608  10.631  10.939 -0.4053  0.6185  0.4432
  287MOL0     C38649  -0.667  10.492  10.967  0.4912 -0.8030 -0.1296
  287MOL0     C38650  -0.568  10.398  11.010 -0.1124  0.1007 -0.5063
  287MOL0     C38651  -0.626  10.257  11.040  0.6589 -1.6188 -0.2480
  287MOL0     C38652  -0.527  10.133  11.040  0.5314 -1.4187  0.4962
  287MOL0     C38653  -0.585   9.989  11.057 -0.4027 -0.5063 -0.5314
  287MOL0    Cl38654  -0.615   9.987  11.238  0.4583  0.3170  0.1424
  287MOL0     C38655  -0.411  10.994  10.692 -0.1956  0.3093 -0.0691
  287MOL0     C38656  -0.277  11.024  10.656 -0.6235 -0.4860 -0.3497
  287MOL0     O38657  -0.028  10.903  10.519  0.8379 -1.0502  0.1901
  287MOL0     C38658   0.195  11.160  10.635 -0.1408 -0.4703  0.0779
  287MOL0     C38659   0.316  11.222  10.602  0.4167  0.0873 -0.2862
  287MOL0     N38660   0.898  11.685  10.409 -0.3699 -0.0400  0.1214
  287MOL0     N38661   0.986  11.625  10.333  0.9725 -0.8775 -0.1311
  287MOL0     C38662   0.817  11.484   9.080  0.2164  0.1678  0.9194
  287MOL0     C38663   0.829  11.443   8.947  0.3593  0.2898 -0.0116
  287MOL0     C38664   0.805  11.079   8.648 -0.0403 -1.9228  0.2390
  287MOL0     C38665   0.894  10.983   8.694 -0.5175  0.1815 -0.3498
  287MOL0     C38666   0.890  10.847   8.647 -0.5311 -0.8722 -0.1656
  287MOL0     C38667   0.804  10.813   8.541 -0.6444 -0.5971  0.8181
  287MOL0     O38668   0.827  10.687   8.484  0.2833 -0.1257  0.2871
  287MOL0     C38669   0.858  10.679   8.341  0.3017 -1.5359 -0.1306
  287MOL0     C38670   0.937  10.548   8.313  0.2772 -0.7058  0.2415
  287MOL0     C38671   0.962  10.542   8.161  0.6821  0.5237  0.0069
  287MOL0     C38672   1.009  10.405   8.122  0.6108 -1.0045 -0.1789
  287MOL0     C38673   1.048  10.396   7.987  0.8896 -0.1268 -0.3852
  287MOL0     C38674   1.080  10.400   7.871 -0.3170  0.0799 -0.4259
  287MOL0     C38675   0.735  10.927   8.480 -0.2973  0.1243  0.5778
  287MOL0     C38676   0.732  11.046   8.539  0.4368 -0.4400  0.4193
  287MOL0     C38677   0.649  11.159   8.487  0.3620 -0.2493  0.7492
  287MOL0     H38678   0.986  11.156   8.972 -0.7108  0.1754  0.3570
  287MOL0     H38679   0.968  11.208   9.220 -1.7386 -1.9681 -0.7997
  287MOL0     H38680   0.616  11.350   9.368 -1.0850 -2.3219 -0.3291
  287MOL0     H38681   0.721  11.225   9.304  1.2801 -0.5251  0.7805
  287MOL0     H38682   0.883  11.250   9.492 -0.0549 -0.3979 -1.1017
  287MOL0     H38683   0.731  11.202   9.548 -1.0103  0.7933 -1.0784
  287MOL0     H38684   0.670  11.452   9.560 -2.4354 -3.8308  1.1796
  287MOL0     H38685   0.841  11.494   9.575 -1.9331  1.0399 -0.4174
  287MOL0     H38686   0.682  11.408   9.790 -0.5826  1.1137 -1.7248
  287MOL0     H38687   0.796  11.271   9.750  0.5418  0.1502  0.5351
  287MOL0     H38688   0.980  11.410   9.761  1.1467  2.0172 -0.0906
  287MOL0     H38689   0.877  11.551   9.811 -1.2071  0.7389 -0.0498
  287MOL0     H38690   0.803  11.423  10.014  0.3771 -1.5935 -0.1941
  287MOL0     H38691   0.904  11.291   9.944  0.6785  0.0219 -4.8318
  287MOL0     H38692   1.095  11.458   9.973  1.2111 -1.1089  1.4113
  287MOL0     H38693   1.019  11.384  10.123  1.1975  0.0545  0.7393
  287MOL0     H38694   1.089  11.626  10.105 -0.3185  0.6841 -0.0950
  287MOL0     H38695   0.938  11.647  10.005 -0.1527  0.7344 -1.4122
  287MOL0     H38696   0.716  11.660  10.144  1.0228 -0.4823 -1.6822
  287MOL0     H38697   0.659  11.831  10.468 -3.9884  0.2988  1.1706
  287MOL0     H38698   0.568  11.760  10.333 -0.7206  0.9913  0.9958
  287MOL0     H38699   0.659  11.607  10.579  1.9121  2.3345 -1.4154
  287MOL0     H38700   0.496  11.671  10.531 -0.1248  0.1019  0.0852
  287MOL0     H38701   0.671  11.457  10.382 -0.8214  1.2204 -6.2284
  287MOL0     H38702   0.534  11.523  10.315  1.6600  1.0209  0.1669
  287MOL0     H38703   0.397  11.448  10.523  0.5444  2.2035 -0.0206
  287MOL0     H38704   0.537  11.386  10.604 -3.0330 -0.0470  1.5586
  287MOL0     H38705   0.371  11.109  10.294  0.2479  0.0252 -0.6024
  287MOL0     H38706   0.157  10.975  10.344 -0.4531 -0.4950 -0.0177
  287MOL0     H38707  -0.113  10.905  10.943  0.2816  1.0113 -1.2683
  287MOL0     H38708  -0.337  10.867  11.001  1.3752  2.0202  1.4406
  287MOL0     H38709  -0.733  10.900  10.764 -0.4856 -1.0257 -1.7315
  287MOL0     H38710  -0.607  10.773  10.718  0.5595 -1.3444  1.3905
  287MOL0     H38711  -0.790  10.778  10.950 -1.7657 -0.4015 -1.2549
  287MOL0     H38712  -0.775  10.666  10.818 -0.4266 -1.5845  0.6953
  287MOL0     H38713  -0.539  10.620  10.855 -0.3847  2.2215  0.2219
  287MOL0     H38714  -0.555  10.660  11.031  0.0358 -1.2994  0.8412
  287MOL0     H38715  -0.706  10.450  10.874 -1.3274 -0.8816  0.6223
  287MOL0     H38716  -0.755  10.506  11.032 -2.2343  0.7825 -3.7930
  287MOL0     H38717  -0.533  10.430  11.109 -5.3205  1.0343  1.3159
  287MOL0     H38718  -0.492  10.387  10.932 -0.1101 -0.2887 -0.4547
  287MOL0     H38719  -0.699  10.256  11.122 -3.5791  1.3690 -3.5359
  287MOL0     H38720  -0.691  10.236  10.955  1.1144  0.4080 -1.1669
  287MOL0     H38721  -0.457  10.140  11.125  0.6199  1.8826  0.2940
  287MOL0     H38722  -0.481  10.136  10.941  1.0103 -1.4628  0.7112
  287MOL0     H38723  -0.670   9.983  10.989  1.7846 -2.3564 -3.3740
  287MOL0     H38724  -0.512   9.911  11.034 -0.7905 -0.4408 -2.0743
  287MOL0     H38725  -0.487  11.009  10.616 -0.9517  0.6256  0.7321
  287MOL0     H38726  -0.272  11.077  10.561 -3.6386 -0.7744 -0.7808
  287MOL0     H38727   0.155  11.187  10.732 -0.8359 -0.8673 -0.0975
  287MOL0     H38728   0.362  11.295  10.668  4.4026 -2.7152  0.4500
  287MOL0     H38729   0.772  11.579   9.106  1.5822  1.0167  0.3371
  287MOL0     H38730   0.782  11.495   8.864  1.2239 -0.3265 -0.9218
  287MOL0     H38731   0.948  10.998   8.787  0.3842 -1.6672 -0.5230
  287MOL0     H38732   0.949  10.785   8.713  1.8205  1.4103 -0.0027
  287MOL0     H38733   0.928  10.758   8.314 -0.5029 -0.2268  1.4491
  287MOL0     H38734   0.766  10.683   8.282  0.5560  0.6820 -0.4364
  287MOL0     H38735   0.863  10.476   8.349 -2.2387  1.2243 -0.7430
  287MOL0     H38736   1.027  10.536   8.375  0.4636  0.7893  0.2921
  287MOL0     H38737   1.038  10.616   8.131  0.1315  0.6154 -1.2461
  287MOL0     H38738   0.874  10.577   8.107  1.4524  2.2456 -0.1966
  287MOL0     H38739   1.089  10.368   8.187 -0.5817 -1.1827  1.2425
  287MOL0     H38740   0.927  10.336   8.145 -1.0771  1.3186  1.2870
  287MOL0     H38741   1.129  10.434   7.783  3.0290  0.3173  1.3800
  287MOL0     H38742   0.676  10.913   8.390  3.3550  0.4249 -2.1020
  287MOL0     H38743   0.562  11.178   8.550  0.7535 -1.0908  1.5664
  287MOL0     H38744   0.698  11.257   8.486 -1.7030  0.8420  0.1227
  287MOL0     H38745   0.609  11.139   8.387  1.4227  0.3993  0.1734
  288MOL0     O38746   2.520   2.303   0.637  0.2407 -0.3437  0.1796
  288MOL0     C38747   2.451   2.234   0.714 -0.5223 -0.4052  0.0506
  288MOL0     O38748   2.440   2.096   0.708 -0.4258 -1.0100  0.3166
  288MOL0     C38749   2.488   2.032   0.600  0.2657 -0.2937  0.6981
  288MOL0     C38750   2.407   1.975   0.507  0.3034 -0.1381 -0.6505
  288MOL0     C38751   2.471   1.916   0.400 -1.1676  0.4257  0.8852
  288MOL0     C38752   2.604   1.904   0.386  0.0584  0.5543  0.0515
  288MOL0     O38753   2.651   1.829   0.267  0.3961 -0.4928  0.0744
  288MOL0     C38754   2.788   1.841   0.228 -0.4337  0.3503  0.5807
  288MOL0     C38755   2.793   1.762   0.097 -0.2745 -0.0439  0.5694
  288MOL0     C38756   2.821   1.614   0.104 -0.3250  0.2776  0.3591
  288MOL0     C38757   2.704   1.520   0.095  0.6603  0.2919 -0.2762
  288MOL0     C38758   2.748   1.378   0.087 -0.3140 -0.3764 -0.8152
  288MOL0     C38759   2.635   1.275   0.108 -0.0619 -0.2147 -0.4370
  288MOL0     C38760   2.682   1.125   0.120 -0.1135  0.4336  0.6544
  288MOL0     C38761   2.547   1.045   0.107 -0.7643  0.5125  0.2788
  288MOL0     N38762   2.582   0.909   0.081 -0.2435  0.1094 -0.0874
  288MOL0     C38763   2.592   0.858  -0.038  0.2036  0.9199  0.4028
  288MOL0     C38764   2.613   0.726  -0.017  0.5528  0.0547 -0.2611
  288MOL0     C38765   2.624   0.620  -0.119  1.0634 -1.0140 -0.4593
  288MOL0     C38766   2.490   0.569  -0.157  0.4369  0.7449  0.0938
  288MOL0     C38767   2.510   0.441  -0.251  0.3448  0.2782 -0.4385
  288MOL0     C38768   2.417   0.430  -0.370 -0.4223  0.0043 -0.1662
  288MOL0     O38769   2.469   0.520  -0.474 -0.6763 -0.7216  0.0263
  288MOL0     C38770   2.567   0.481  -0.562  0.7272 -1.1959 -0.0886
  288MOL0     C38771   2.594   0.567  -0.669  0.2277 -0.0634 -0.3208
  288MOL0     C38772   2.676   0.537  -0.776 -0.0729  0.3376 -0.8604
  288MOL0     C38773   2.740   0.415  -0.768 -0.5812 -1.2015  0.1315
  288MOL0     C38774   2.841   0.378  -0.866 -0.8444  0.0371 -0.0503
  288MOL0     O38775   2.874   0.248  -0.883  0.1465  0.1431  0.1294
  288MOL0     C38776   2.957   0.209  -0.989 -0.3845  0.7724  0.3488
  288MOL0     C38777   2.958   0.254  -1.110  0.5487 -0.1640  0.7505
  288MOL0     C38778   3.047   0.215  -1.209  0.0194 -0.7389  0.2448
  288MOL0     C38779   3.148   0.126  -1.174 -0.5833  0.0472  0.4718
  288MOL0     O38780   3.242   0.101  -1.279  0.7199 -0.1502 -0.4954
  288MOL0     C38781   3.317  -0.017  -1.261  0.5393  0.3235 -0.2071
  288MOL0     C38782   3.412  -0.033  -1.382 -0.1328  0.2357 -1.0376
  288MOL0     C38783   3.329  -0.041  -1.515 -0.3834  0.3778 -0.2238
  288MOL0     C38784   3.288  -0.172  -1.555  0.3133  0.0449  0.3037
  288MOL0     C38785   3.137  -0.178  -1.591 -0.0597 -0.7807 -0.9625
  288MOL0     C38786   3.098  -0.319  -1.628 -0.2761 -0.7448  0.3523
  288MOL0     C38787   3.125  -0.421  -1.520 -0.2211 -0.3539 -0.3834
  288MOL0     C38788   3.067  -0.552  -1.559  0.8005 -0.2329  0.0160
  288MOL0    Cl38789   3.118  -0.673  -1.431  0.0448  0.3377 -0.4220
  288MOL0     C38790   3.150   0.070  -1.049 -1.4952 -0.0169 -0.1431
  288MOL0     C38791   3.056   0.117  -0.950 -0.3674  0.2874  0.1447
  288MOL0     O38792   2.886   0.478  -0.927  0.4987 -0.4209  0.5851
  288MOL0     C38793   2.718   0.321  -0.668  0.4660 -0.2959  0.0536
  288MOL0     C38794   2.618   0.352  -0.570  0.2470 -0.0830  0.0360
  288MOL0     N38795   2.644   0.706   0.117 -0.2591  0.1901 -0.4560
  288MOL0     N38796   2.626   0.822   0.176 -0.3564 -0.4495  0.2978
  288MOL0     C38797   2.683   1.973   0.480 -0.6016  0.4119 -1.2669
  288MOL0     C38798   2.629   2.031   0.588  0.5351  1.1655  0.1427
  288MOL0     C38799   2.372   2.324   0.813 -0.4035  0.3717  0.6661
  288MOL0     C38800   2.389   2.466   0.807 -0.2311 -0.9735 -0.2393
  288MOL0     C38801   2.344   2.563   0.898 -0.3445 -0.2495  0.1323
  288MOL0     C38802   2.266   2.513   1.005  0.3450 -0.7938  0.6050
  288MOL0     O38803   2.221   2.599   1.099  0.2935 -0.0733 -0.2827
  288MOL0     C38804   2.241   2.561   1.235 -0.4585  0.8738 -0.2864
  288MOL0     C38805   2.150   2.642   1.334  0.1823 -0.3864  0.1967
  288MOL0     C38806   1.998   2.614   1.306 -1.0336 -0.5417 -0.5513
  288MOL0     C38807   1.919   2.714   1.387  0.8015 -0.2847  0.2978
  288MOL0     C38808   1.795   2.725   1.310  0.9005 -0.6234  0.3166
  288MOL0     C38809   1.701   2.725   1.229  0.2339 -0.2080 -0.3208
  288MOL0     C38810   2.234   2.375   1.009 -0.1887  0.0121 -0.4310
  288MOL0     C38811   2.293   2.281   0.915 -0.0584  0.1955  0.0988
  288MOL0     C38812   2.260   2.145   0.937  0.0124 -0.0188 -0.0949
  288MOL0     H38813   2.299   1.964   0.519  0.7501 -1.5026  6.1863
  288MOL0     H38814   2.418   1.856   0.327  1.0289 -0.6935  0.1115
  288MOL0     H38815   2.802   1.947   0.206 -1.3098  0.0555 -1.7448
  288MOL0     H38816   2.869   1.808   0.294  0.6807  3.9764  1.2428
  288MOL0     H38817   2.863   1.810   0.027  2.4946 -3.0644  1.0458
  288MOL0     H38818   2.696   1.754   0.046  1.3146 -0.9237 -2.6267
  288MOL0     H38819   2.877   1.593   0.195  0.3293 -2.1994 -0.5235
  288MOL0     H38820   2.887   1.575   0.025 -1.6602  0.0622 -0.6870
  288MOL0     H38821   2.643   1.532   0.186  1.3404  0.2034  0.1991
  288MOL0     H38822   2.640   1.537   0.008  1.0124  0.5954 -0.4763
  288MOL0     H38823   2.806   1.368  -0.005  1.0558 -0.5741  0.0531
  288MOL0     H38824   2.824   1.364   0.164 -0.1079 -1.7276 -1.2488
  288MOL0     H38825   2.578   1.287   0.200 -3.2802 -1.1339 -2.1566
  288MOL0     H38826   2.548   1.296   0.045 -1.1656 -0.2413  1.0319
  288MOL0     H38827   2.731   1.108   0.215 -0.1360 -2.0603  0.2673
  288MOL0     H38828   2.746   1.101   0.035 -1.4564  1.1779 -0.6187
  288MOL0     H38829   2.482   1.058   0.194 -1.4854  0.7937 -0.2910
  288MOL0     H38830   2.489   1.087   0.024 -3.4408  0.9763  2.2443
  288MOL0     H38831   2.578   0.912  -0.131 -1.2402  1.2149  0.7776
  288MOL0     H38832   2.672   0.643  -0.214 -1.2242 -2.5329 -2.0807
  288MOL0     H38833   2.697   0.548  -0.081  3.0031  0.8138 -0.5469
  288MOL0     H38834   2.431   0.542  -0.069 -0.8490 -0.1062 -0.9669
  288MOL0     H38835   2.437   0.648  -0.212 -1.2799  0.3890  1.1819
  288MOL0     H38836   2.485   0.356  -0.187 -1.8318 -0.4949 -2.1715
  288MOL0     H38837   2.617   0.438  -0.277  0.4984 -0.7838  0.2655
  288MOL0     H38838   2.313   0.442  -0.339 -0.7124 -3.6374  0.7666
  288MOL0     H38839   2.418   0.328  -0.412  2.7725 -0.1645  0.0652
  288MOL0     H38840   2.545   0.663  -0.678 -3.1528 -1.4200  1.6772
  288MOL0     H38841   2.670   0.618  -0.847 -0.1317  0.6635 -0.4843
  288MOL0     H38842   2.874   0.314  -1.145  2.0656  2.0590  0.6622
  288MOL0     H38843   3.043   0.247  -1.313  2.9588 -2.5612 -0.5318
  288MOL0     H38844   3.375  -0.014  -1.168  0.5179 -2.1019 -0.0417
  288MOL0     H38845   3.250  -0.102  -1.246  1.2630  0.1854  3.1125
  288MOL0     H38846   3.485   0.048  -1.378 -0.0924  0.3360  4.2764
  288MOL0     H38847   3.468  -0.125  -1.364 -0.0801 -0.2181 -3.2234
  288MOL0     H38848   3.237   0.017  -1.509 -0.3474  0.3164  1.2495
  288MOL0     H38849   3.397   0.002  -1.590  0.5499  1.4933  1.2101
  288MOL0     H38850   3.315  -0.239  -1.473  1.4260  1.2012  0.9047
  288MOL0     H38851   3.340  -0.190  -1.649 -0.6827  1.4235 -0.5516
  288MOL0     H38852   3.109  -0.112  -1.672  0.9775  1.2384  0.2418
  288MOL0     H38853   3.074  -0.164  -1.503  0.2195  4.1405 -1.3037
  288MOL0     H38854   2.994  -0.319  -1.662 -0.1861  1.9361 -0.1288
  288MOL0     H38855   3.170  -0.344  -1.706  0.2605  1.5812  0.0150
  288MOL0     H38856   3.093  -0.390  -1.420  0.2741 -0.2423 -0.2541
  288MOL0     H38857   3.234  -0.432  -1.515  0.1473  2.3247 -1.3105
  288MOL0     H38858   2.963  -0.521  -1.553  1.3323  1.6933  0.0917
  288MOL0     H38859   3.089  -0.567  -1.665 -2.2063 -0.1595 -0.6871
  288MOL0     H38860   3.220  -0.009  -1.025 -2.4370 -0.5963  0.7509
  288MOL0     H38861   3.065   0.086  -0.846  1.0775  0.2077  0.0168
  288MOL0     H38862   2.761   0.222  -0.669 -2.4023 -1.6743 -2.2980
  288MOL0     H38863   2.604   0.280  -0.491 -0.0306  0.3899  0.4205
  288MOL0     H38864   2.791   1.983   0.486 -0.4496 -0.9409 -1.3515
  288MOL0     H38865   2.689   2.077   0.666  2.6886 -1.2967  0.0881
  288MOL0     H38866   2.445   2.518   0.730 -0.9469 -1.3696 -1.0343
  288MOL0     H38867   2.371   2.667   0.887 -0.8780 -0.1533 -0.3173
  288MOL0     H38868   2.345   2.553   1.270 -0.3657 -3.2008 -0.9412
  288MOL0     H38869   2.212   2.456   1.245  2.0895  0.2063  1.3685
  288MOL0     H38870   2.169   2.746   1.308 -2.4190 -0.5316 -2.8747
  288MOL0     H38871   2.170   2.619   1.439 -1.1630  1.1487  0.8203
  288MOL0     H38872   1.985   2.510   1.336  1.4843 -1.0601 -1.0269
  288MOL0     H38873   1.975   2.611   1.199 -0.1447  0.3445 -0.7968
  288MOL0     H38874   1.895   2.692   1.492  0.5669  0.7987  0.4849
  288MOL0     H38875   1.983   2.802   1.403  0.2082 -0.1944  2.4919
  288MOL0     H38876   1.620   2.725   1.159  0.4627  2.4342 -0.6915
  288MOL0     H38877   2.182   2.341   1.098 -1.7025  4.9013  0.8407
  288MOL0     H38878   2.203   2.100   0.856 -1.4205  3.1070 -0.9709
  288MOL0     H38879   2.352   2.085   0.939  0.4440  0.6265  1.8890
  288MOL0     H38880   2.229   2.115   1.038  0.0865 -0.3764 -0.1770
  289MOL0     O38881   4.186   6.464   4.436  0.1971  1.0540  1.1074
  289MOL0     C38882   4.238   6.543   4.363  0.9415 -1.4506  0.0938
  289MOL0     O38883   4.343   6.625   4.399 -0.5522 -0.0120 -0.1095
  289MOL0     C38884   4.411   6.612   4.518  0.4720  0.4301 -0.0111
  289MOL0     C38885   4.552   6.623   4.510  0.9436 -0.3814 -0.2916
  289MOL0     C38886   4.628   6.602   4.622 -0.4304  0.3844  0.3509
  289MOL0     C38887   4.585   6.558   4.744 -0.2481 -0.2583  0.0125
  289MOL0     O38888   4.686   6.568   4.839  0.3345  0.1127  0.4147
  289MOL0     C38889   4.666   6.526   4.970 -0.5504  0.0149  0.8184
  289MOL0     C38890   4.683   6.370   4.989  0.5051 -0.9454 -0.6633
  289MOL0     C38891   4.781   6.348   5.113 -0.0018 -0.2578  0.3798
  289MOL0     C38892   4.836   6.208   5.129 -0.3908 -0.2761  0.9649
  289MOL0     C38893   4.899   6.194   5.265  0.3627  0.4729 -1.0140
  289MOL0     C38894   4.799   6.223   5.383 -0.4786  0.7568 -0.3238
  289MOL0     C38895   4.859   6.186   5.516 -0.2685 -1.2747  1.0468
  289MOL0     C38896   4.996   6.246   5.548 -0.4960 -1.0579 -0.3808
  289MOL0     N38897   5.032   6.224   5.688 -0.9584  0.2116  0.7529
  289MOL0     C38898   4.991   6.295   5.797  0.4806 -0.4769 -0.0615
  289MOL0     C38899   5.038   6.222   5.903  0.0760  0.4693  1.0111
  289MOL0     C38900   5.021   6.260   6.039 -0.1478 -0.4585  0.4251
  289MOL0     C38901   4.920   6.173   6.127  0.2858  0.2092 -0.0497
  289MOL0     C38902   4.956   6.203   6.275  0.5173 -0.2586  0.4403
  289MOL0     C38903   4.853   6.157   6.375 -0.4290 -0.8431 -0.1933
  289MOL0     O38904   4.909   6.203   6.504  0.1036  0.0738 -0.4087
  289MOL0     C38905   4.849   6.152   6.617  0.1353 -0.2907 -0.1295
  289MOL0     C38906   4.740   6.068   6.622  0.6590  1.1221 -0.6601
  289MOL0     C38907   4.688   6.025   6.745 -0.3078  0.2895 -0.0570
  289MOL0     C38908   4.765   6.048   6.863  0.4490 -0.5630 -0.7054
  289MOL0     C38909   4.710   5.993   6.994 -1.2642  0.2024  0.3551
  289MOL0     O38910   4.772   6.037   7.116 -0.2636 -0.1569  0.2931
  289MOL0     C38911   4.731   5.987   7.244 -0.1074  0.5544  0.5691
  289MOL0     C38912   4.816   6.024   7.347 -0.5753 -0.1275 -0.4748
  289MOL0     C38913   4.793   5.984   7.476  0.2240  0.1090 -0.0500
  289MOL0     C38914   4.680   5.907   7.508  0.7617 -0.5207 -0.0760
  289MOL0     O38915   4.669   5.890   7.643  0.1552  0.2294 -0.6003
  289MOL0     C38916   4.552   5.824   7.705  0.6130 -0.3207  0.2905
  289MOL0     C38917   4.586   5.672   7.725  0.5464 -0.7265 -0.1094
  289MOL0     C38918   4.702   5.648   7.809 -0.0732  0.3467  0.3689
  289MOL0     C38919   4.685   5.698   7.952 -0.2444 -0.2750 -0.7962
  289MOL0     C38920   4.790   5.629   8.044  0.1589 -1.1272  0.1625
  289MOL0     C38921   4.768   5.646   8.186 -0.3557  1.4181 -1.0474
  289MOL0     C38922   4.878   5.573   8.261  0.3055  0.4893 -0.2667
  289MOL0     C38923   4.872   5.619   8.405 -1.0603  0.1448 -0.4657
  289MOL0    Cl38924   4.728   5.554   8.476  0.2685  0.8949  0.1612
  289MOL0     C38925   4.595   5.860   7.402  0.6183 -0.9123  0.2711
  289MOL0     C38926   4.619   5.905   7.271 -0.4121  0.5031  0.1374
  289MOL0     O38927   4.618   5.915   6.985  0.4936 -0.4656 -0.4988
  289MOL0     C38928   4.878   6.132   6.857 -1.0749 -0.0677  0.0005
  289MOL0     C38929   4.913   6.188   6.737  0.1311 -0.3826  0.9938
  289MOL0     N38930   5.099   6.102   5.861 -0.5964  0.1240 -0.4998
  289MOL0     N38931   5.094   6.108   5.732 -0.0348  0.4234 -0.4237
  289MOL0     C38932   4.446   6.568   4.757  0.5050  0.0053  0.4604
  289MOL0     C38933   4.360   6.589   4.638 -0.4279 -0.4053  0.3385
  289MOL0     C38934   4.184   6.556   4.222 -0.1288  0.3132  1.3696
  289MOL0     C38935   4.144   6.435   4.167 -1.0822  0.2227 -1.2310
  289MOL0     C38936   4.110   6.417   4.033  0.0760  1.0102 -0.1791
  289MOL0     C38937   4.099   6.528   3.946  0.3999 -1.4035  0.1515
  289MOL0     O38938   4.076   6.506   3.819  0.5576  0.2337 -0.2137
  289MOL0     C38939   4.150   6.591   3.725  0.3532  0.3674  1.2092
  289MOL0     C38940   4.193   6.509   3.597  0.1436 -0.2905 -0.0268
  289MOL0     C38941   4.076   6.422   3.541 -0.1683  0.8657 -0.0561
  289MOL0     C38942   3.929   6.477   3.546  0.2661  0.5349  0.1129
  289MOL0     C38943   3.919   6.593   3.468 -0.1133 -0.4005  0.0802
  289MOL0     C38944   3.906   6.689   3.390 -0.3334  0.0993 -0.9410
  289MOL0     C38945   4.132   6.654   4.001 -0.5879  0.0764 -0.3663
  289MOL0     C38946   4.174   6.673   4.136  0.1340 -0.6722  0.8852
  289MOL0     C38947   4.216   6.797   4.206  0.7057  0.5903  0.7072
  289MOL0     H38948   4.599   6.661   4.421  1.4386  0.8214  0.4584
  289MOL0     H38949   4.729   6.641   4.613 -0.6670  1.4979  2.1483
  289MOL0     H38950   4.735   6.585   5.030  0.3583  0.4351 -0.5872
  289MOL0     H38951   4.568   6.556   5.009  0.8384  1.7703  3.2412
  289MOL0     H38952   4.731   6.338   4.896 -2.8862 -3.2087 -1.7980
  289MOL0     H38953   4.591   6.314   5.009 -0.3275  0.3456 -0.7703
  289MOL0     H38954   4.712   6.366   5.196 -1.6277 -1.7012 -0.6003
  289MOL0     H38955   4.865   6.416   5.130 -1.6141  0.9338  4.9583
  289MOL0     H38956   4.758   6.135   5.108  0.9622 -0.8346 -3.0824
  289MOL0     H38957   4.905   6.195   5.045 -1.0561  0.3724  0.3080
  289MOL0     H38958   4.939   6.094   5.279 -1.5741 -0.5593 -2.4333
  289MOL0     H38959   4.984   6.263   5.269  0.3673  0.4422 -0.4321
  289MOL0     H38960   4.770   6.328   5.397  3.1228  1.6866  1.2736
  289MOL0     H38961   4.704   6.171   5.365 -0.8965  1.4816 -0.2831
  289MOL0     H38962   4.852   6.078   5.527 -0.5717 -1.4972 -1.0140
  289MOL0     H38963   4.798   6.228   5.597 -0.6026 -1.4516  0.8884
  289MOL0     H38964   5.073   6.213   5.477  1.0356 -1.8248  1.5351
  289MOL0     H38965   5.004   6.355   5.542  5.7320 -0.9591  1.8780
  289MOL0     H38966   4.938   6.389   5.811 -0.8099 -1.7395  6.4742
  289MOL0     H38967   5.113   6.261   6.098 -1.5818  3.5709  2.9902
  289MOL0     H38968   4.979   6.359   6.024 -3.2003 -2.0413 -3.4697
  289MOL0     H38969   4.816   6.202   6.109 -0.6133 -2.8082 -0.1903
  289MOL0     H38970   4.926   6.068   6.100  2.8344 -0.1210  1.4839
  289MOL0     H38971   4.966   6.312   6.284 -0.2630 -0.0701 -0.7840
  289MOL0     H38972   5.058   6.165   6.288  1.2994  1.6717  0.3468
  289MOL0     H38973   4.849   6.048   6.364  0.2935 -0.8308 -0.6266
  289MOL0     H38974   4.754   6.202   6.362 -0.1256  0.1263  0.7298
  289MOL0     H38975   4.705   6.032   6.526  0.0711  0.3809 -0.1724
  289MOL0     H38976   4.599   5.965   6.733  0.5078 -1.5831  2.5052
  289MOL0     H38977   4.910   6.069   7.317  1.8669 -4.0155  0.6406
  289MOL0     H38978   4.856   6.028   7.553  1.3133  2.6930 -2.2790
  289MOL0     H38979   4.534   5.873   7.801 -0.2922 -2.6799  1.4114
  289MOL0     H38980   4.463   5.837   7.643  1.1769  1.2249 -0.2342
  289MOL0     H38981   4.500   5.621   7.770  0.3954  0.1741  0.6489
  289MOL0     H38982   4.598   5.622   7.628  1.3929 -2.8134  1.0235
  289MOL0     H38983   4.716   5.540   7.794  4.3953  1.1746 -4.2581
  289MOL0     H38984   4.792   5.694   7.765 -1.3873  2.7840  0.0597
  289MOL0     H38985   4.586   5.687   7.997 -0.4901  2.1051 -0.6263
  289MOL0     H38986   4.689   5.807   7.947  1.0637 -0.3299 -1.7363
  289MOL0     H38987   4.886   5.677   8.023  1.3049 -1.6321  3.6897
  289MOL0     H38988   4.784   5.524   8.016  0.7563 -2.1915  3.5814
  289MOL0     H38989   4.766   5.751   8.216  1.6447  1.7107 -1.7400
  289MOL0     H38990   4.675   5.589   8.194  0.6351 -0.0020  1.5889
  289MOL0     H38991   4.975   5.599   8.216  2.1512 -3.5919  0.8885
  289MOL0     H38992   4.867   5.465   8.250  2.9880  0.2290 -1.3981
  289MOL0     H38993   4.955   5.582   8.465  2.1046  4.0154 -2.0079
  289MOL0     H38994   4.883   5.727   8.415 -0.5046 -0.0812  2.1661
  289MOL0     H38995   4.502   5.805   7.414  0.9485 -1.8819 -1.3989
  289MOL0     H38996   4.554   5.862   7.195  0.9373 -0.6479 -0.4100
  289MOL0     H38997   4.924   6.171   6.947 -1.3826 -0.1093  0.1753
  289MOL0     H38998   4.996   6.257   6.746  1.0603 -1.5924  2.0831
  289MOL0     H38999   4.383   6.567   4.846 -0.3796  0.4285 -0.1439
  289MOL0     H39000   4.251   6.591   4.645 -0.4743  2.3185  0.2366
  289MOL0     H39001   4.148   6.343   4.223 -3.8962  1.5772  1.5202
  289MOL0     H39002   4.104   6.316   3.993 -0.5576 -1.0521  4.4395
  289MOL0     H39003   4.236   6.641   3.771  1.8867 -1.1505  0.0838
  289MOL0     H39004   4.089   6.678   3.698  2.1881  0.9940 -1.2513
  289MOL0     H39005   4.284   6.455   3.624  2.4250  1.9500 -2.5971
  289MOL0     H39006   4.232   6.575   3.520 -1.9165 -2.9794 -3.6898
  289MOL0     H39007   4.082   6.323   3.588  0.4147  2.2043  2.9423
  289MOL0     H39008   4.097   6.413   3.434 -1.5690  0.8073 -0.3471
  289MOL0     H39009   3.871   6.393   3.508  1.2690 -0.4228  0.6422
  289MOL0     H39010   3.897   6.482   3.651 -0.2772 -0.0223 -0.0233
  289MOL0     H39011   3.887   6.773   3.327 -0.8132  0.6821 -0.0292
  289MOL0     H39012   4.128   6.735   3.929 -3.5992 -0.9483 -1.5321
  289MOL0     H39013   4.193   6.805   4.312 -0.9862  3.3941  0.2295
  289MOL0     H39014   4.324   6.791   4.195  0.6951 -2.3913  1.3802
  289MOL0     H39015   4.165   6.885   4.166 -1.2059 -0.3598  0.8907
  290MOL0     O39016   6.374   4.007   1.878 -0.7536  0.0036 -0.1191
  290MOL0     C39017   6.256   4.027   1.862 -0.1036 -0.7318 -1.0664
  290MOL0     O39018   6.159   3.960   1.932  0.1232  0.0852 -0.4550
  290MOL0     C39019   6.172   3.841   2.000  0.1504 -0.6156  0.5860
  290MOL0     C39020   6.088   3.729   1.968  0.9918  0.9052  0.5188
  290MOL0     C39021   6.085   3.610   2.035  0.4958  0.2237  0.6392
  290MOL0     C39022   6.191   3.582   2.131 -0.5185 -0.2163 -0.3680
  290MOL0     O39023   6.208   3.470   2.210  0.1095  0.4931  0.1532
  290MOL0     C39024   6.128   3.357   2.190 -0.0721 -0.3502  0.6178
  290MOL0     C39025   6.211   3.239   2.248  0.6338  0.5412 -0.2341
  290MOL0     C39026   6.340   3.228   2.181 -0.2857  0.3856 -0.0461
  290MOL0     C39027   6.390   3.083   2.179  0.0382 -0.3459 -0.0354
  290MOL0     C39028   6.435   3.044   2.324 -0.5341 -0.1328  0.5577
  290MOL0     C39029   6.589   3.047   2.355  0.0679  0.4824  0.5847
  290MOL0     C39030   6.603   3.003   2.497  0.4744  0.2188 -0.0596
  290MOL0     C39031   6.748   2.992   2.549 -0.2730  0.2957 -0.9464
  290MOL0     N39032   6.823   2.877   2.486  0.1707  0.0593  0.5403
  290MOL0     C39033   6.906   2.883   2.376 -0.2963 -0.2896  0.4436
  290MOL0     C39034   6.971   2.762   2.368 -0.3261 -0.8123 -0.1032
  290MOL0     C39035   7.066   2.722   2.256  0.4440 -0.0125 -1.1539
  290MOL0     C39036   7.217   2.717   2.290  0.1423  0.3859 -0.8209
  290MOL0     C39037   7.279   2.868   2.304  1.3495  0.5809 -0.2061
  290MOL0     C39038   7.419   2.853   2.376 -0.4755  0.9209  0.2205
  290MOL0     O39039   7.404   2.803   2.509  0.6245 -0.0844  0.3334
  290MOL0     C39040   7.323   2.870   2.593 -0.1107  0.4167 -0.2969
  290MOL0     C39041   7.196   2.829   2.625 -0.0221  0.2039  0.0279
  290MOL0     C39042   7.107   2.902   2.694 -0.1180 -0.6891 -0.4021
  290MOL0     C39043   7.132   3.028   2.733  0.6937  0.3167  0.4002
  290MOL0     C39044   7.029   3.101   2.803 -0.2452 -0.5086 -0.5176
  290MOL0     O39045   6.989   3.049   2.924 -0.7093  0.0778  0.1274
  290MOL0     C39046   6.917   3.115   3.018  0.2771  0.7127 -0.2052
  290MOL0     C39047   6.826   3.030   3.082  0.3162  0.1181  0.3470
  290MOL0     C39048   6.745   3.077   3.181  0.6147 -0.6706  0.0730
  290MOL0     C39049   6.760   3.206   3.226  0.0399 -0.1462 -1.0151
  290MOL0     O39050   6.683   3.260   3.333  0.0408  0.0849  0.1682
  290MOL0     C39051   6.570   3.192   3.396  1.6524  0.3444  0.2239
  290MOL0     C39052   6.529   3.276   3.523 -0.8081  0.0260  0.0840
  290MOL0     C39053   6.605   3.250   3.647 -0.0101  0.0538 -0.8969
  290MOL0     C39054   6.535   3.300   3.775  0.8294  0.3119 -0.0153
  290MOL0     C39055   6.622   3.299   3.900  0.1714  0.8602 -0.3177
  290MOL0     C39056   6.547   3.312   4.035 -0.0535 -0.2803  0.3077
  290MOL0     C39057   6.470   3.447   4.060 -0.2636  0.4319 -1.1544
  290MOL0     C39058   6.399   3.443   4.194  0.3191  0.9931 -0.4338
  290MOL0    Cl39059   6.509   3.482   4.330 -0.1456  0.2519 -0.2167
  290MOL0     C39060   6.865   3.288   3.175  0.1173  0.6393 -0.3996
  290MOL0     C39061   6.947   3.247   3.068  0.4856  0.7198 -0.5083
  290MOL0     O39062   6.976   3.194   2.750 -0.1076 -0.1746 -0.6577
  290MOL0     C39063   7.261   3.071   2.699  1.1984 -0.3738 -0.2408
  290MOL0     C39064   7.356   2.997   2.636  0.2442  1.3371  0.0073
  290MOL0     N39065   6.944   2.681   2.481  0.5913 -0.4464  0.2657
  290MOL0     N39066   6.849   2.754   2.542  0.3948  0.5249 -0.6174
  290MOL0     C39067   6.279   3.687   2.164  1.5077  0.4323  0.1266
  290MOL0     C39068   6.267   3.819   2.104 -0.2255  0.2780  0.3900
  290MOL0     C39069   6.201   4.124   1.762 -0.5895  0.8384 -0.4757
  290MOL0     C39070   6.065   4.109   1.730 -0.2507  0.8485 -0.6183
  290MOL0     C39071   6.000   4.193   1.637  0.4687 -0.3502 -0.0866
  290MOL0     C39072   6.073   4.287   1.570 -1.7475  0.4274  0.2239
  290MOL0     O39073   6.014   4.359   1.465 -0.5040 -0.2249  0.3591
  290MOL0     C39074   5.915   4.454   1.495 -1.1523 -0.4040  0.3545
  290MOL0     C39075   5.985   4.595   1.560  0.6287  0.1228 -0.8712
  290MOL0     C39076   5.880   4.662   1.648 -0.5394  0.1509  0.3072
  290MOL0     C39077   5.909   4.807   1.687  0.4341 -0.0010 -0.0634
  290MOL0     C39078   5.885   4.896   1.569 -0.5431  0.5863 -0.4201
  290MOL0     C39079   5.869   4.985   1.490 -0.7405  0.1605 -0.0305
  290MOL0     C39080   6.210   4.301   1.601 -0.1465 -0.0980 -0.2067
  290MOL0     C39081   6.276   4.219   1.689  0.3749  0.3075 -0.4176
  290MOL0     C39082   6.432   4.240   1.713  1.0944  0.7383  0.3348
  290MOL0     H39083   6.013   3.745   1.891  1.5257  1.6093  0.1319
  290MOL0     H39084   6.011   3.534   2.012  3.7963 -2.5558 -2.1182
  290MOL0     H39085   6.033   3.358   2.245  1.2832  0.8387  3.0934
  290MOL0     H39086   6.110   3.329   2.086 -2.5505 -2.3343  1.4809
  290MOL0     H39087   6.152   3.148   2.233  1.3043 -0.5558  2.9214
  290MOL0     H39088   6.223   3.235   2.357  3.1655 -1.5883 -0.5042
  290MOL0     H39089   6.412   3.300   2.221 -0.0368  0.8810 -1.3512
  290MOL0     H39090   6.323   3.262   2.079 -1.5566 -1.8085 -0.6369
  290MOL0     H39091   6.313   3.019   2.134  0.4322 -0.9501  0.1285
  290MOL0     H39092   6.473   3.068   2.108  0.5950  3.3499 -0.3602
  290MOL0     H39093   6.376   3.105   2.393 -1.7721  0.1238 -0.6800
  290MOL0     H39094   6.395   2.944   2.343 -0.6556 -0.1886  0.0408
  290MOL0     H39095   6.650   2.996   2.279 -2.3700 -1.7156 -0.0709
  290MOL0     H39096   6.622   3.151   2.354 -2.5811  1.4714  2.7929
  290MOL0     H39097   6.555   2.906   2.507  1.5139 -0.3885 -0.7941
  290MOL0     H39098   6.550   3.072   2.563  0.1227 -0.9013  0.8447
  290MOL0     H39099   6.824   3.068   2.531  2.1772 -2.0637 -1.1541
  290MOL0     H39100   6.747   2.980   2.657  1.2939 -1.4181 -1.0664
  290MOL0     H39101   6.930   2.972   2.319 -0.7904 -1.0073 -0.9390
  290MOL0     H39102   7.028   2.625   2.222  0.2527 -0.3312 -0.0793
  290MOL0     H39103   7.060   2.782   2.165  2.4765 -4.0923 -4.3439
  290MOL0     H39104   7.236   2.663   2.383 -1.8441  2.9538  1.2364
  290MOL0     H39105   7.262   2.663   2.206 -0.4994 -1.0586 -0.2845
  290MOL0     H39106   7.211   2.930   2.362 -1.6290 -0.3342 -2.4918
  290MOL0     H39107   7.280   2.918   2.207 -2.3862 -0.0260 -0.7119
  290MOL0     H39108   7.472   2.948   2.379  1.9510 -0.3520  0.3524
  290MOL0     H39109   7.492   2.786   2.330  0.1974  1.2966  0.7388
  290MOL0     H39110   7.187   2.724   2.601  1.7631  0.1882 -0.7548
  290MOL0     H39111   7.010   2.854   2.704 -0.7953  0.5331 -0.8693
  290MOL0     H39112   6.811   2.927   3.050 -1.7173  0.3471  0.4230
  290MOL0     H39113   6.673   3.001   3.209  0.0716 -1.1829 -2.5251
  290MOL0     H39114   6.487   3.209   3.327 -1.3093  2.0029  3.8712
  290MOL0     H39115   6.578   3.084   3.411  0.4314  0.6537  4.1942
  290MOL0     H39116   6.541   3.382   3.495  1.2910 -0.2822 -0.3586
  290MOL0     H39117   6.428   3.251   3.557  0.7576 -0.8381  4.7166
  290MOL0     H39118   6.623   3.142   3.644 -1.6907 -0.2762 -4.7011
  290MOL0     H39119   6.704   3.297   3.635  1.4102 -2.6351 -0.5277
  290MOL0     H39120   6.455   3.228   3.798  0.9770  1.1135  3.6436
  290MOL0     H39121   6.482   3.392   3.749 -0.1564 -0.3262 -0.3209
  290MOL0     H39122   6.705   3.370   3.894 -1.0341  2.3409 -0.1095
  290MOL0     H39123   6.672   3.202   3.900 -0.7819  0.2580 -3.3006
  290MOL0     H39124   6.476   3.229   4.037  0.7010 -1.0519 -1.8613
  290MOL0     H39125   6.624   3.295   4.112  0.0804 -0.3391  0.1628
  290MOL0     H39126   6.402   3.467   3.977 -1.3902  1.3317 -0.0539
  290MOL0     H39127   6.540   3.530   4.069  3.2856 -1.8574 -4.5362
  290MOL0     H39128   6.321   3.520   4.199  0.1823  0.8050  2.8861
  290MOL0     H39129   6.358   3.343   4.213 -0.7748  2.0560  4.0060
  290MOL0     H39130   6.873   3.384   3.225  1.0019 -0.1554  1.0437
  290MOL0     H39131   7.035   3.298   3.030  0.0657 -1.2066 -4.7044
  290MOL0     H39132   7.301   3.157   2.752  3.5272 -1.1163 -0.6805
  290MOL0     H39133   7.454   3.042   2.623  0.7149  0.8198  1.5551
  290MOL0     H39134   6.351   3.664   2.242  4.7196 -0.5048 -2.8486
  290MOL0     H39135   6.332   3.897   2.141 -1.3727  1.1816  0.5579
  290MOL0     H39136   6.014   4.020   1.766  0.3365  1.8188  2.9621
  290MOL0     H39137   5.897   4.173   1.609 -0.5459  1.5388  1.9920
  290MOL0     H39138   5.845   4.406   1.564  1.7884 -3.1347  1.6893
  290MOL0     H39139   5.863   4.478   1.401 -3.1330 -1.6433  1.0669
  290MOL0     H39140   6.021   4.664   1.483 -2.9527  2.3474 -0.7732
  290MOL0     H39141   6.065   4.555   1.623  1.3145 -0.8154 -2.2616
  290MOL0     H39142   5.873   4.607   1.742 -1.6835 -0.3640 -0.0648
  290MOL0     H39143   5.781   4.662   1.603 -2.5260 -0.5753  4.2189
  290MOL0     H39144   5.845   4.840   1.770  2.0352  0.7088  0.9400
  290MOL0     H39145   6.013   4.812   1.721  1.1850 -1.2950 -2.0137
  290MOL0     H39146   5.865   5.059   1.413  0.7823 -0.9224 -1.2255
  290MOL0     H39147   6.276   4.367   1.546  0.9833  0.2481  1.4686
  290MOL0     H39148   6.473   4.327   1.661 -1.7056  2.2332  0.3989
  290MOL0     H39149   6.449   4.255   1.820  0.9461 -1.8009  0.7698
  290MOL0     H39150   6.483   4.147   1.690 -0.3968  0.5583 -2.8447
  291MOL0     O39151  11.147   4.756   6.095 -0.4599 -0.5338  0.6862
  291MOL0     C39152  11.096   4.675   6.014  0.4293  0.6672  0.2797
  291MOL0     O39153  10.977   4.614   6.036 -0.2590 -0.3907 -0.7853
  291MOL0     C39154  10.925   4.653   6.164 -0.7106 -0.5337  0.7564
  291MOL0     C39155  10.918   4.564   6.274  0.7617 -0.5543 -0.1503
  291MOL0     C39156  10.862   4.601   6.394  0.7192 -0.0098 -0.6625
  291MOL0     C39157  10.801   4.731   6.413 -0.0214 -0.3697  0.2438
  291MOL0     O39158  10.750   4.765   6.536  0.5342 -1.1410  0.2307
  291MOL0     C39159  10.833   4.864   6.599  0.3856  0.6094  0.4294
  291MOL0     C39160  10.810   4.834   6.747  0.4416 -0.3485 -0.5789
  291MOL0     C39161  10.904   4.918   6.836  0.6187 -0.7284 -0.6354
  291MOL0     C39162  10.903   4.874   6.985 -0.2280  0.7151 -0.7405
  291MOL0     C39163  10.866   4.997   7.083 -0.4816  0.3775 -0.4113
  291MOL0     C39164  10.817   4.950   7.222  0.0274  0.1113  0.8116
  291MOL0     C39165  10.836   5.049   7.339 -0.5096 -0.2534 -0.0444
  291MOL0     C39166  10.780   5.183   7.296 -0.1795  0.2206  0.5961
  291MOL0     N39167  10.638   5.183   7.255  0.7058 -0.7422  0.1596
  291MOL0     C39168  10.529   5.131   7.318 -0.1190  0.2222  0.0338
  291MOL0     C39169  10.430   5.127   7.214  0.0337  0.1907  0.2584
  291MOL0     C39170  10.291   5.081   7.245 -0.3037 -0.7504 -0.3611
  291MOL0     C39171  10.269   4.940   7.301  0.9603 -0.0743  0.3585
  291MOL0     C39172  10.294   4.915   7.451 -0.7388 -0.0849 -0.7168
  291MOL0     C39173  10.243   4.773   7.506  0.5484  0.0390 -0.4741
  291MOL0     O39174  10.312   4.718   7.617  0.1858  0.8738  0.5913
  291MOL0     C39175  10.417   4.627   7.605 -0.1040  1.5407  0.5236
  291MOL0     C39176  10.444   4.535   7.711 -0.1099  0.6243  0.0466
  291MOL0     C39177  10.561   4.460   7.708 -0.6509 -0.1374  0.0063
  291MOL0     C39178  10.635   4.454   7.598 -0.4868  0.3019  0.7290
  291MOL0     C39179  10.751   4.360   7.583  0.0275  0.1028  0.4968
  291MOL0     O39180  10.773   4.298   7.454 -0.7110 -0.0226 -0.0437
  291MOL0     C39181  10.886   4.228   7.427 -0.1211  0.5504 -0.2660
  291MOL0     C39182  11.021   4.271   7.441  0.2948  0.4222 -0.2826
  291MOL0     C39183  11.127   4.196   7.410  0.1014 -0.2033  0.6376
  291MOL0     C39184  11.104   4.075   7.359 -0.6789 -0.2075 -0.1240
  291MOL0     O39185  11.211   3.996   7.311  0.3602  0.3741 -0.1555
  291MOL0     C39186  11.286   4.069   7.203  0.1945 -0.3123 -0.7492
  291MOL0     C39187  11.221   4.045   7.067  0.3082 -0.5750 -0.2591
  291MOL0     C39188  11.112   4.151   7.037 -0.2283 -0.0972 -0.3465
  291MOL0     C39189  11.084   4.165   6.887 -0.5591  0.1626  0.1408
  291MOL0     C39190  10.978   4.275   6.855  1.0005  0.3062 -0.9248
  291MOL0     C39191  11.025   4.420   6.893 -1.5296  0.3707  0.1101
  291MOL0     C39192  10.925   4.523   6.913  1.4869 -0.0303 -0.5168
  291MOL0     C39193  10.853   4.515   7.055  0.2081 -0.3125  1.4371
  291MOL0    Cl39194  10.942   4.542   7.200  0.0687  0.2108  0.0790
  291MOL0     C39195  10.975   4.023   7.359 -0.1600 -0.0652 -0.1470
  291MOL0     C39196  10.864   4.103   7.386  1.3334 -0.6214 -0.3574
  291MOL0     O39197  10.827   4.346   7.677 -0.1134 -0.9853  0.3339
  291MOL0     C39198  10.597   4.526   7.485 -0.0350 -0.4209  0.1024
  291MOL0     C39199  10.494   4.621   7.492 -0.4814  1.0474  0.5369
  291MOL0     N39200  10.481   5.186   7.106 -0.5870  0.2053 -0.1034
  291MOL0     N39201  10.605   5.218   7.121  0.5579 -0.6173 -0.0779
  291MOL0     C39202  10.791   4.814   6.300 -0.6905  0.1167  0.1899
  291MOL0     C39203  10.855   4.774   6.183  0.3272 -0.2547 -0.2773
  291MOL0     C39204  11.155   4.648   5.874 -0.0021  1.5394 -0.5538
  291MOL0     C39205  11.165   4.750   5.780 -0.3497  0.0314  0.1734
  291MOL0     C39206  11.208   4.717   5.651  0.1237  0.1630 -0.5191
  291MOL0     C39207  11.225   4.587   5.612 -1.0754  0.3130 -0.6970
  291MOL0     O39208  11.260   4.569   5.480 -0.2618  0.2391  0.4380
  291MOL0     C39209  11.267   4.434   5.428 -1.0645 -0.8739  0.3395
  291MOL0     C39210  11.410   4.368   5.443  0.5332 -0.0301 -0.2869
  291MOL0     C39211  11.420   4.225   5.399  0.1457  1.6813  0.4881
  291MOL0     C39212  11.321   4.132   5.472  0.7558  0.3856 -0.0572
  291MOL0     C39213  11.326   4.124   5.622 -0.1700 -1.0022  0.5387
  291MOL0     C39214  11.348   4.112   5.734  0.2172 -0.5605  0.8665
  291MOL0     C39215  11.226   4.485   5.711  0.8506  0.6664 -0.4057
  291MOL0     C39216  11.177   4.519   5.840  0.2332 -0.0431  0.0002
  291MOL0     C39217  11.166   4.402   5.933  0.3444 -0.1502 -0.5074
  291MOL0     H39218  10.962   4.465   6.268 -0.3831 -0.9735 -2.4964
  291MOL0     H39219  10.863   4.540   6.484 -0.1219  0.4592 -0.3299
  291MOL0     H39220  10.936   4.863   6.563 -0.0788  1.3183 -1.0022
  291MOL0     H39221  10.785   4.955   6.563 -1.7352 -1.2209 -1.7672
  291MOL0     H39222  10.843   4.732   6.767 -0.8847 -0.2714  2.6871
  291MOL0     H39223  10.704   4.848   6.771  0.7780  1.5407  0.0215
  291MOL0     H39224  10.890   5.027   6.834  1.6534 -0.5950 -0.9679
  291MOL0     H39225  11.009   4.905   6.809  1.0619  3.1108 -1.3649
  291MOL0     H39226  10.826   4.800   7.008  3.3035 -2.7857  0.9269
  291MOL0     H39227  10.998   4.828   7.015 -0.8775 -0.3878 -0.3499
  291MOL0     H39228  10.954   5.058   7.103  0.3880  0.0710 -2.9329
  291MOL0     H39229  10.791   5.055   7.028 -2.4224 -1.1211  0.5380
  291MOL0     H39230  10.713   4.914   7.220  0.0987 -0.0726  0.2674
  291MOL0     H39231  10.889   4.875   7.257  0.6755  0.0968 -0.5248
  291MOL0     H39232  10.941   5.065   7.366 -0.0770 -3.1322  0.3141
  291MOL0     H39233  10.788   5.011   7.430  4.0918 -6.1461  0.5551
  291MOL0     H39234  10.788   5.255   7.378 -2.4016  0.4106  0.7129
  291MOL0     H39235  10.847   5.214   7.215 -1.2853  0.4489 -0.2494
  291MOL0     H39236  10.512   5.084   7.415 -0.2296 -5.9065 -2.4954
  291MOL0     H39237  10.248   5.156   7.312  0.6678  1.6135 -2.2182
  291MOL0     H39238  10.239   5.089   7.149 -1.1446  1.1003  0.1962
  291MOL0     H39239  10.163   4.919   7.279 -0.0002  2.2863  2.2341
  291MOL0     H39240  10.322   4.861   7.246 -0.6236 -0.4744 -0.6655
  291MOL0     H39241  10.279   5.005   7.512  1.2333  2.8067 -4.0554
  291MOL0     H39242  10.402   4.901   7.464 -0.2971  0.5295 -3.1851
  291MOL0     H39243  10.234   4.695   7.430 -3.0318  0.5631 -0.7482
  291MOL0     H39244  10.139   4.783   7.538  0.7924 -1.1481  0.7590
  291MOL0     H39245  10.384   4.530   7.801 -2.1520 -0.4639 -1.3037
  291MOL0     H39246  10.588   4.399   7.793 -0.2079  1.2805  0.9156
  291MOL0     H39247  11.044   4.368   7.482 -0.7487 -0.6192  3.1461
  291MOL0     H39248  11.229   4.229   7.428  1.0576 -2.7848  0.3510
  291MOL0     H39249  11.311   4.174   7.221  0.8311 -0.4767 -0.6655
  291MOL0     H39250  11.388   4.031   7.196  0.1134 -0.6713 -0.0547
  291MOL0     H39251  11.300   4.058   6.993 -0.4696 -0.3416 -1.0619
  291MOL0     H39252  11.188   3.941   7.064  0.7376 -0.6997 -0.7619
  291MOL0     H39253  11.017   4.128   7.086  0.3051  2.6426  2.2677
  291MOL0     H39254  11.134   4.247   7.084 -0.4358 -0.2461  0.0608
  291MOL0     H39255  11.041   4.068   6.858 -1.3599  0.6122 -0.1891
  291MOL0     H39256  11.175   4.179   6.829 -0.3550 -0.0038  0.4173
  291MOL0     H39257  10.892   4.244   6.916  1.0371 -1.4253 -1.7024
  291MOL0     H39258  10.952   4.269   6.749 -1.2111 -1.5638 -0.3630
  291MOL0     H39259  11.075   4.422   6.990 -2.0393  1.6765  0.3592
  291MOL0     H39260  11.090   4.451   6.811  0.7863  0.4865  1.8975
  291MOL0     H39261  10.843   4.516   6.841  0.2277  0.1703  0.8524
  291MOL0     H39262  10.960   4.626   6.908 -1.8876  1.4433  2.0109
  291MOL0     H39263  10.781   4.597   7.055  1.7343  1.0929  0.8829
  291MOL0     H39264  10.810   4.415   7.060  1.3587 -0.7857  2.4744
  291MOL0     H39265  10.967   3.919   7.330  0.6166  0.0277 -0.7347
  291MOL0     H39266  10.759   4.074   7.390  0.4705  2.3655  2.3068
  291MOL0     H39267  10.663   4.533   7.400 -1.2759 -0.7179 -0.9114
  291MOL0     H39268  10.486   4.697   7.415 -4.0914  1.7687  1.4700
  291MOL0     H39269  10.745   4.912   6.308  1.6556  1.3375 -0.2946
  291MOL0     H39270  10.861   4.855   6.112  2.9584  0.5981  0.8016
  291MOL0     H39271  11.146   4.853   5.805 -2.6643 -0.5716  1.1405
  291MOL0     H39272  11.227   4.794   5.577  4.6788  1.7141  1.8696
  291MOL0     H39273  11.235   4.439   5.323 -2.0221  2.3539  0.6816
  291MOL0     H39274  11.184   4.373   5.464  0.0843 -2.0789  1.0229
  291MOL0     H39275  11.448   4.358   5.545  1.5625  1.1749 -0.5322
  291MOL0     H39276  11.487   4.430   5.396  2.8147 -2.4730  0.0208
  291MOL0     H39277  11.519   4.184   5.418 -0.9667 -1.1389  0.6554
  291MOL0     H39278  11.408   4.219   5.291 -2.0541 -4.3647  0.6559
  291MOL0     H39279  11.221   4.164   5.444  0.8594 -0.7604 -1.9447
  291MOL0     H39280  11.336   4.028   5.442 -0.2223  0.2013  0.0725
  291MOL0     H39281  11.363   4.088   5.837 -2.6862 -1.9684  1.0701
  291MOL0     H39282  11.244   4.382   5.682 -1.6706 -0.0895  0.4426
  291MOL0     H39283  11.166   4.304   5.884 -1.2261 -1.2317  1.5292
  291MOL0     H39284  11.260   4.401   5.989 -0.0272  1.6900  0.2232
  291MOL0     H39285  11.087   4.406   6.009 -0.7601 -1.3578 -1.5358
  292MOL0     O39286   0.401   5.936   4.315  0.5529  0.3374  0.1993
  292MOL0     C39287   0.370   5.970   4.203 -0.2630 -1.2011 -0.2020
  292MOL0     O39288   0.439   6.069   4.127  0.2245 -0.4457 -0.8845
  292MOL0     C39289   0.570   6.101   4.150 -0.7385  0.7220  1.2898
  292MOL0     C39290   0.682   6.013   4.178  0.4865 -0.1719 -1.1024
  292MOL0     C39291   0.810   6.069   4.190  0.6459  0.4698  1.9089
  292MOL0     C39292   0.828   6.205   4.167  0.9637  0.3759  0.2484
  292MOL0     O39293   0.952   6.263   4.172  0.6258  0.4381  0.7467
  292MOL0     C39294   1.070   6.175   4.170 -0.6266 -0.3707  0.3317
  292MOL0     C39295   1.207   6.257   4.159  0.1903 -0.0046  0.1266
  292MOL0     C39296   1.329   6.161   4.167 -0.2396 -0.4912 -1.5068
  292MOL0     C39297   1.470   6.249   4.168  1.2649  0.6375  0.2106
  292MOL0     C39298   1.579   6.152   4.202 -0.1465  0.4247 -0.5808
  292MOL0     C39299   1.573   6.016   4.127 -0.6106 -0.0441  0.3512
  292MOL0     C39300   1.708   5.944   4.155  1.0438  0.1292 -0.2523
  292MOL0     C39301   1.715   5.794   4.136  0.0864 -0.3053 -0.0202
  292MOL0     N39302   1.671   5.708   4.250  0.6763 -0.9206 -0.0769
  292MOL0     C39303   1.544   5.657   4.277 -0.1192 -0.3783 -0.0855
  292MOL0     C39304   1.574   5.590   4.393  0.3283 -0.2021  0.3498
  292MOL0     C39305   1.480   5.499   4.459  0.1902 -0.5957 -0.4088
  292MOL0     C39306   1.429   5.381   4.367 -1.0821  0.3824 -0.5461
  292MOL0     C39307   1.549   5.303   4.320 -0.5043  0.0014  0.3345
  292MOL0     C39308   1.617   5.216   4.423 -0.2665 -0.0748  0.1526
  292MOL0     O39309   1.532   5.129   4.495  1.3365  0.2455 -0.0673
  292MOL0     C39310   1.499   5.016   4.431  0.4369 -0.8297  0.9514
  292MOL0     C39311   1.396   5.026   4.349 -0.2071 -0.1759  0.0246
  292MOL0     C39312   1.351   4.909   4.285 -0.4901  0.5344  0.1468
  292MOL0     C39313   1.425   4.791   4.277  0.3247  0.4758 -0.6582
  292MOL0     C39314   1.392   4.665   4.199 -0.2559  0.0095  0.0993
  292MOL0     O39315   1.288   4.661   4.110  0.3742  0.4489  0.2817
  292MOL0     C39316   1.281   4.564   4.013  0.2209  0.2710  0.1950
  292MOL0     C39317   1.158   4.512   3.988  0.5084  0.1561 -0.0891
  292MOL0     C39318   1.136   4.426   3.878  0.1618 -0.4063 -0.1309
  292MOL0     C39319   1.249   4.380   3.799 -1.2189 -0.0433 -0.4272
  292MOL0     O39320   1.217   4.303   3.694  0.8667  0.0620  0.5875
  292MOL0     C39321   1.314   4.205   3.650 -0.0370 -0.0047 -0.5898
  292MOL0     C39322   1.247   4.102   3.574 -0.7239  0.2878  0.1358
  292MOL0     C39323   1.350   3.997   3.518 -0.3329  0.1947 -0.1138
  292MOL0     C39324   1.282   3.871   3.459 -0.4636  0.2355  0.3748
  292MOL0     C39325   1.374   3.757   3.414 -0.4485  0.1899  0.0372
  292MOL0     C39326   1.505   3.808   3.351 -0.0013 -0.0211  0.5899
  292MOL0     C39327   1.477   3.858   3.212 -0.3620  1.0329  0.5663
  292MOL0     C39328   1.604   3.867   3.122  0.8837 -1.2907 -0.6006
  292MOL0    Cl39329   1.588   3.946   2.964  0.4437  0.6636 -0.3773
  292MOL0     C39330   1.378   4.426   3.838  0.7794  0.6185  0.2095
  292MOL0     C39331   1.389   4.519   3.936  0.4956 -0.6709 -0.1540
  292MOL0     O39332   1.454   4.570   4.237 -0.2429 -0.1295  0.4644
  292MOL0     C39333   1.542   4.794   4.351 -0.1917  0.3333 -0.4217
  292MOL0     C39334   1.580   4.904   4.427  1.1479  0.2955 -1.2997
  292MOL0     N39335   1.704   5.615   4.439  0.3054 -0.3625  0.0166
  292MOL0     N39336   1.755   5.676   4.346 -0.1888  0.0004  0.8627
  292MOL0     C39337   0.717   6.289   4.151 -0.6342  0.2462  0.1759
  292MOL0     C39338   0.592   6.233   4.133  0.7098  0.5027  0.5568
  292MOL0     C39339   0.242   5.926   4.151 -0.3614 -0.0644 -0.3490
  292MOL0     C39340   0.228   5.934   4.007 -0.5862 -0.0052  0.3948
  292MOL0     C39341   0.115   5.876   3.936 -0.5452 -0.5392  0.6658
  292MOL0     C39342   0.009   5.818   4.005 -1.5759  0.2836  0.5079
  292MOL0     O39343  -0.091   5.743   3.945 -1.2479 -0.2077 -0.3740
  292MOL0     C39344  -0.162   5.798   3.837 -0.3520 -0.7972  0.1018
  292MOL0     C39345  -0.308   5.791   3.870 -0.5810  0.8572  0.0268
  292MOL0     C39346  -0.403   5.783   3.755  0.4131 -0.5928 -0.1120
  292MOL0     C39347  -0.402   5.654   3.674  0.2731  0.2692  0.0616
  292MOL0     C39348  -0.494   5.548   3.715 -0.4368  0.3497  0.3081
  292MOL0     C39349  -0.580   5.477   3.767  0.2832 -0.0131  0.2452
  292MOL0     C39350   0.019   5.826   4.143  0.9506 -0.6570  0.3192
  292MOL0     C39351   0.128   5.865   4.226  0.4350 -0.3599  0.2276
  292MOL0     C39352   0.130   5.843   4.370  0.5629 -0.7333 -0.0762
  292MOL0     H39353   0.676   5.905   4.186 -0.2077 -0.0989 -0.5086
  292MOL0     H39354   0.892   5.999   4.204 -0.2636 -0.3876  3.2083
  292MOL0     H39355   1.081   6.106   4.254 -0.4969 -0.5798  0.1444
  292MOL0     H39356   1.070   6.127   4.072  2.8827  1.1934 -0.6150
  292MOL0     H39357   1.200   6.330   4.241 -1.2137 -1.7005  1.6188
  292MOL0     H39358   1.205   6.314   4.066  2.0132 -0.4540 -0.2104
  292MOL0     H39359   1.325   6.107   4.072  3.5535 -1.6557 -1.1811
  292MOL0     H39360   1.313   6.117   4.266 -0.3224 -1.7888 -2.0713
  292MOL0     H39361   1.486   6.287   4.067 -0.1470  2.0240  0.4664
  292MOL0     H39362   1.462   6.336   4.234  1.6954  1.9837 -1.4424
  292MOL0     H39363   1.679   6.194   4.190 -0.1541  0.3158 -1.0469
  292MOL0     H39364   1.555   6.120   4.303 -0.9954 -0.2554 -0.9798
  292MOL0     H39365   1.500   5.957   4.183  0.8851 -1.6273  0.7004
  292MOL0     H39366   1.551   6.026   4.020 -1.4205 -0.3026  0.4858
  292MOL0     H39367   1.751   5.966   4.253 -0.1617 -1.6778  0.7209
  292MOL0     H39368   1.773   5.996   4.084  1.1392 -0.2266 -0.4225
  292MOL0     H39369   1.651   5.763   4.052 -0.0460  2.0700 -0.8642
  292MOL0     H39370   1.818   5.765   4.111  1.3902 -0.3553  4.5888
  292MOL0     H39371   1.456   5.652   4.214 -2.0836  0.1752  2.4238
  292MOL0     H39372   1.512   5.462   4.557 -3.3192 -3.3545 -0.1404
  292MOL0     H39373   1.391   5.549   4.500 -0.7514 -2.7743  0.3439
  292MOL0     H39374   1.355   5.311   4.407  0.4540  1.2109  4.3929
  292MOL0     H39375   1.386   5.428   4.278 -0.2418  5.5364  1.4261
  292MOL0     H39376   1.624   5.364   4.268 -1.8716 -0.3307 -2.1415
  292MOL0     H39377   1.524   5.234   4.239 -0.9064  2.1531 -1.4438
  292MOL0     H39378   1.667   5.282   4.495 -0.5080  1.0717 -0.6892
  292MOL0     H39379   1.691   5.155   4.370  1.8331  0.7385  1.9853
  292MOL0     H39380   1.326   5.110   4.351 -0.4454 -0.3394 -0.9817
  292MOL0     H39381   1.263   4.908   4.221 -1.4178  1.3922  1.3705
  292MOL0     H39382   1.064   4.529   4.039 -2.0446 -2.6193 -3.3398
  292MOL0     H39383   1.044   4.372   3.858  0.7059 -2.4745  2.4415
  292MOL0     H39384   1.391   4.263   3.597  0.3920  1.9329  1.9629
  292MOL0     H39385   1.359   4.163   3.740 -0.2969  2.0827  0.5978
  292MOL0     H39386   1.182   4.048   3.644 -0.9787 -0.0225 -0.3326
  292MOL0     H39387   1.180   4.141   3.496  2.2325  1.3977 -2.0565
  292MOL0     H39388   1.408   4.039   3.436  2.8938 -2.6450  0.5021
  292MOL0     H39389   1.417   3.971   3.600 -1.3963 -1.9809  0.1441
  292MOL0     H39390   1.223   3.903   3.372 -3.0751 -0.8031  1.6407
  292MOL0     H39391   1.207   3.830   3.528 -1.4942  2.6459  0.7726
  292MOL0     H39392   1.310   3.696   3.350  1.2197  0.2678 -1.7968
  292MOL0     H39393   1.412   3.695   3.495  0.8986  1.3719  0.3645
  292MOL0     H39394   1.561   3.884   3.407 -0.8206  0.1234  1.2274
  292MOL0     H39395   1.581   3.731   3.337  1.3742  0.6708  3.5041
  292MOL0     H39396   1.417   3.949   3.218 -1.4144  0.3803  0.3335
  292MOL0     H39397   1.414   3.780   3.168  1.2439  0.1331 -0.2197
  292MOL0     H39398   1.675   3.929   3.177  2.4273 -2.0892 -1.6183
  292MOL0     H39399   1.651   3.768   3.119  2.6192 -0.6520  2.3389
  292MOL0     H39400   1.457   4.384   3.778  1.5893  0.3018  1.4522
  292MOL0     H39401   1.488   4.558   3.958  0.4503 -0.8804  0.4537
  292MOL0     H39402   1.613   4.712   4.348 -0.6668 -0.1230  0.5474
  292MOL0     H39403   1.663   4.897   4.495 -2.1348  0.0206  3.1326
  292MOL0     H39404   0.734   6.397   4.155  0.1764  0.1516 -0.4463
  292MOL0     H39405   0.503   6.293   4.113  0.0918 -1.1431 -2.1783
  292MOL0     H39406   0.304   5.972   3.941 -1.1807 -4.3087 -3.2884
  292MOL0     H39407   0.115   5.886   3.828  3.0665  2.1436  0.7167
  292MOL0     H39408  -0.129   5.748   3.745  0.8457  0.9521 -0.4613
  292MOL0     H39409  -0.134   5.901   3.814 -0.8139 -0.7415 -0.2364
  292MOL0     H39410  -0.336   5.875   3.934  0.0956 -0.3145  1.9457
  292MOL0     H39411  -0.337   5.707   3.933  4.3267  0.1857  1.7992
  292MOL0     H39412  -0.383   5.853   3.673 -3.3218  0.6197 -0.1665
  292MOL0     H39413  -0.507   5.800   3.783 -0.0491 -2.2881 -0.6895
  292MOL0     H39414  -0.430   5.668   3.569 -2.2593  2.0068  0.8872
  292MOL0     H39415  -0.297   5.625   3.660  1.1376  3.1630 -0.1225
  292MOL0     H39416  -0.650   5.405   3.804 -0.5391  1.7453  2.2561
  292MOL0     H39417  -0.069   5.786   4.193  0.2650 -0.3405 -0.6031
  292MOL0     H39418   0.031   5.836   4.418  1.7253 -0.8285  2.4573
  292MOL0     H39419   0.176   5.752   4.408  1.2068 -0.5890 -0.5011
  292MOL0     H39420   0.184   5.918   4.428  2.8821 -3.0494  0.9273
  293MOL0     O39421   0.976   3.955   8.468  0.1303  0.2257  0.0457
  293MOL0     C39422   1.029   3.925   8.358 -0.1669 -0.6520  0.4342
  293MOL0     O39423   1.012   3.991   8.240 -0.1720 -0.2350  0.7064
  293MOL0     C39424   0.913   4.084   8.220  0.0129  0.2090  0.3313
  293MOL0     C39425   0.939   4.203   8.144 -0.1629  0.0950  0.1757
  293MOL0     C39426   0.841   4.300   8.126  0.9751  0.1282 -0.2113
  293MOL0     C39427   0.714   4.290   8.190 -0.2924  0.6536  0.2951
  293MOL0     O39428   0.609   4.378   8.184 -0.2406  0.3250 -0.8446
  293MOL0     C39429   0.610   4.494   8.102 -0.0921 -1.2290 -0.6144
  293MOL0     C39430   0.561   4.610   8.186  0.7082  0.0127  0.6608
  293MOL0     C39431   0.421   4.577   8.257 -0.3153 -1.2121  0.2638
  293MOL0     C39432   0.389   4.674   8.368  0.3600 -0.7913 -0.4766
  293MOL0     C39433   0.245   4.647   8.431 -0.5504 -0.8428  0.0680
  293MOL0     C39434   0.211   4.737   8.555  0.2797  0.5268  0.5395
  293MOL0     C39435   0.236   4.881   8.526 -0.0950 -0.2117  0.3449
  293MOL0     C39436   0.142   4.974   8.589 -0.4686  0.3250 -0.6770
  293MOL0     N39437   0.182   5.012   8.723  0.7845 -0.0499 -0.4464
  293MOL0     C39438   0.304   5.059   8.765  0.0766  0.0001 -0.7852
  293MOL0     C39439   0.295   5.069   8.897 -0.0548  0.3165 -0.6744
  293MOL0     C39440   0.393   5.120   8.995 -0.4029  0.0192  0.2622
  293MOL0     C39441   0.540   5.100   8.942  0.1675 -0.2279 -0.2087
  293MOL0     C39442   0.632   5.088   9.066  0.5070 -0.3116 -1.6932
  293MOL0     C39443   0.589   4.978   9.163 -0.5869 -0.4125 -0.1738
  293MOL0     O39444   0.627   4.859   9.081 -0.0084  0.1195  0.0923
  293MOL0     C39445   0.672   4.744   9.131  0.2706 -0.4386  0.5465
  293MOL0     C39446   0.657   4.720   9.262  0.2882 -0.2851  0.0300
  293MOL0     C39447   0.695   4.607   9.323 -0.4874  0.0603 -0.6904
  293MOL0     C39448   0.777   4.517   9.251 -1.3243  1.1268  0.1818
  293MOL0     C39449   0.829   4.390   9.312 -0.3404  0.3095  0.2789
  293MOL0     O39450   0.834   4.271   9.240 -0.6645 -0.0092  0.3620
  293MOL0     C39451   0.856   4.148   9.289  0.5604  0.0581 -0.5538
  293MOL0     C39452   0.867   4.046   9.195 -0.3729  0.0842 -0.5045
  293MOL0     C39453   0.883   3.905   9.234 -0.7294 -0.9233  0.6939
  293MOL0     C39454   0.888   3.871   9.370 -0.2475  0.5495  0.1762
  293MOL0     O39455   0.917   3.736   9.410  0.7539 -0.5035 -0.5571
  293MOL0     C39456   1.031   3.681   9.344 -0.4839 -0.5286 -0.1466
  293MOL0     C39457   1.098   3.588   9.441  1.3425 -0.2069 -0.3523
  293MOL0     C39458   1.241   3.567   9.388  0.3071 -0.7548  0.0191
  293MOL0     C39459   1.315   3.469   9.479  0.1357 -0.7532 -0.2013
  293MOL0     C39460   1.463   3.477   9.461  0.8122  0.4553 -0.4022
  293MOL0     C39461   1.546   3.585   9.533  0.7005 -0.5080  0.0948
  293MOL0     C39462   1.698   3.557   9.504  0.3467 -0.8303 -0.7325
  293MOL0     C39463   1.741   3.592   9.365 -0.5431  0.8846 -0.7412
  293MOL0    Cl39464   1.712   3.758   9.335  0.0662  0.4487 -0.0228
  293MOL0     C39465   0.891   3.975   9.458  0.3096  0.6868  0.6131
  293MOL0     C39466   0.877   4.106   9.424  0.5288 -0.4519 -0.2376
  293MOL0     O39467   0.855   4.403   9.431  0.8982  1.1088  0.7420
  293MOL0     C39468   0.799   4.537   9.119 -0.0057 -0.2165  0.3190
  293MOL0     C39469   0.738   4.646   9.048 -0.1995 -0.2613 -0.4413
  293MOL0     N39470   0.173   5.012   8.937 -0.4321  0.3618 -0.1399
  293MOL0     N39471   0.108   4.977   8.832  0.6804 -0.4147  0.3607
  293MOL0     C39472   0.690   4.172   8.255  0.5115  0.2068  0.0528
  293MOL0     C39473   0.789   4.067   8.276 -0.4767 -0.6218  0.6777
  293MOL0     C39474   1.125   3.815   8.349  0.4470 -0.2400  1.0276
  293MOL0     C39475   1.234   3.833   8.268  0.3664 -0.9332  0.2737
  293MOL0     C39476   1.324   3.727   8.232 -0.2265  0.4193 -0.2259
  293MOL0     C39477   1.298   3.600   8.280 -0.2354 -0.5492 -0.0429
  293MOL0     O39478   1.370   3.486   8.246 -0.3561  0.1578 -0.4226
  293MOL0     C39479   1.496   3.489   8.181  0.1939 -0.9352  0.6922
  293MOL0     C39480   1.620   3.528   8.267  0.4572 -0.0865  0.6767
  293MOL0     C39481   1.611   3.466   8.420 -0.3804  0.6853  0.2980
  293MOL0     C39482   1.548   3.558   8.526 -0.7248  0.7328 -0.1813
  293MOL0     C39483   1.575   3.701   8.518 -0.2470 -0.6495  0.4990
  293MOL0     C39484   1.571   3.825   8.511 -0.3441  0.2078 -1.2014
  293MOL0     C39485   1.186   3.585   8.371  0.8942 -0.1742 -0.4317
  293MOL0     C39486   1.100   3.691   8.410  0.2172 -0.4074  0.4610
  293MOL0     C39487   0.988   3.672   8.508 -0.5813  0.5287  0.2748
  293MOL0     H39488   1.044   4.221   8.122  0.6940 -0.3624  3.2908
  293MOL0     H39489   0.861   4.393   8.073  2.7384  0.1844  0.4857
  293MOL0     H39490   0.702   4.531   8.057  0.8799 -1.1179  1.3370
  293MOL0     H39491   0.536   4.472   8.025  2.3306  0.9538 -3.8218
  293MOL0     H39492   0.548   4.704   8.132 -1.9376 -0.2476  0.7370
  293MOL0     H39493   0.635   4.628   8.265 -0.2491 -2.2730  2.1806
  293MOL0     H39494   0.415   4.479   8.303  0.7424 -1.3093  0.2244
  293MOL0     H39495   0.340   4.580   8.184 -0.0216 -1.1839 -0.0649
  293MOL0     H39496   0.473   4.682   8.437  1.7774  2.4264 -2.3617
  293MOL0     H39497   0.381   4.770   8.316 -0.6793 -0.5160  0.1542
  293MOL0     H39498   0.171   4.646   8.351 -0.7382 -0.7671  0.2388
  293MOL0     H39499   0.241   4.542   8.463  0.2036 -1.3452 -1.4106
  293MOL0     H39500   0.104   4.723   8.573  0.3406  2.4506  2.8646
  293MOL0     H39501   0.259   4.710   8.650 -0.6079 -4.2548 -0.1021
  293MOL0     H39502   0.216   4.903   8.421 -2.4240  0.8167  0.9393
  293MOL0     H39503   0.336   4.917   8.552 -0.5044  2.8389 -1.7704
  293MOL0     H39504   0.136   5.068   8.535  1.2083  1.6662  1.3055
  293MOL0     H39505   0.037   4.943   8.597 -0.4872  0.5744  0.2319
  293MOL0     H39506   0.392   5.078   8.705  1.1115 -3.3390 -0.4884
  293MOL0     H39507   0.382   5.227   9.015  2.1616  0.0829  1.8097
  293MOL0     H39508   0.375   5.089   9.099  2.0020  0.9115  0.9949
  293MOL0     H39509   0.563   5.009   8.887  0.5246 -1.6259  2.0939
  293MOL0     H39510   0.567   5.181   8.874 -0.0873 -1.9430 -2.4409
  293MOL0     H39511   0.639   5.188   9.110 -0.7455 -0.6906 -0.5456
  293MOL0     H39512   0.735   5.069   9.035  0.1901 -2.4502 -1.5857
  293MOL0     H39513   0.482   4.979   9.187 -1.6832  1.2854 -4.2562
  293MOL0     H39514   0.659   4.997   9.245 -4.0983  3.5232  2.3763
  293MOL0     H39515   0.603   4.790   9.325  1.2074  0.8439 -0.3937
  293MOL0     H39516   0.686   4.596   9.431  1.4372  1.0947 -0.3850
  293MOL0     H39517   0.864   4.077   9.091  0.3797  3.2171  0.3111
  293MOL0     H39518   0.886   3.834   9.153 -3.0052 -1.3932  0.9482
  293MOL0     H39519   0.993   3.638   9.251  0.9332  1.2493 -1.6178
  293MOL0     H39520   1.101   3.758   9.310  0.3932 -2.5384 -3.3911
  293MOL0     H39521   1.106   3.621   9.544  4.3965 -0.5760 -0.3846
  293MOL0     H39522   1.042   3.494   9.451 -0.3082  0.3411 -3.2819
  293MOL0     H39523   1.240   3.526   9.287 -0.1626 -0.7705  0.0281
  293MOL0     H39524   1.296   3.662   9.388 -1.5149  0.3685  0.9533
  293MOL0     H39525   1.289   3.365   9.457  0.9382 -0.7897 -1.0543
  293MOL0     H39526   1.289   3.497   9.582 -0.0504  3.2655 -1.1964
  293MOL0     H39527   1.482   3.490   9.355  0.7777  4.1758 -0.0880
  293MOL0     H39528   1.502   3.385   9.505  0.2861  0.7475  0.7390
  293MOL0     H39529   1.516   3.685   9.501  1.3062  0.3303  1.9786
  293MOL0     H39530   1.523   3.587   9.640  2.4219  3.3278  0.5752
  293MOL0     H39531   1.717   3.451   9.525  2.6165 -0.8408 -2.5175
  293MOL0     H39532   1.760   3.614   9.574  0.4630 -2.6457  0.7413
  293MOL0     H39533   1.846   3.560   9.362 -0.6526  0.1397  1.5873
  293MOL0     H39534   1.701   3.520   9.293  0.1471  0.0258 -0.2883
  293MOL0     H39535   0.891   3.943   9.562  2.1093  0.7339  0.6729
  293MOL0     H39536   0.852   4.175   9.504  3.8236  1.5137 -0.7414
  293MOL0     H39537   0.869   4.469   9.070 -0.8791 -0.5297 -0.5114
  293MOL0     H39538   0.759   4.672   8.944  2.3416  2.7945  0.6805
  293MOL0     H39539   0.595   4.157   8.306 -1.3644  1.1714 -2.8880
  293MOL0     H39540   0.764   3.980   8.335  2.9852 -4.0413 -2.3699
  293MOL0     H39541   1.259   3.925   8.216  0.6650 -1.4349 -0.4974
  293MOL0     H39542   1.413   3.751   8.175 -0.2518  0.6205 -0.1821
  293MOL0     H39543   1.497   3.550   8.090 -1.9551 -3.6417 -1.3144
  293MOL0     H39544   1.517   3.387   8.149 -2.2125 -1.9586  2.0979
  293MOL0     H39545   1.620   3.638   8.259  0.1386 -0.1026  0.4252
  293MOL0     H39546   1.706   3.484   8.216 -0.5884 -0.6879 -0.6195
  293MOL0     H39547   1.717   3.463   8.445 -0.6071 -1.8950  1.2096
  293MOL0     H39548   1.563   3.367   8.423 -1.2164  1.0925  2.9504
  293MOL0     H39549   1.440   3.554   8.509 -0.5816 -0.2878 -0.9448
  293MOL0     H39550   1.569   3.527   8.629 -0.9389  1.4850  0.0917
  293MOL0     H39551   1.570   3.932   8.510 -0.2101  0.2386  0.1388
  293MOL0     H39552   1.177   3.490   8.423 -2.0074  0.3481  0.1378
  293MOL0     H39553   1.001   3.741   8.592 -4.0652  1.8448 -0.1055
  293MOL0     H39554   0.895   3.699   8.457  0.1615  2.3939 -0.1812
  293MOL0     H39555   0.973   3.564   8.518  2.7945 -0.1789 -1.1001
  294MOL0     O39556   5.437   8.529   9.989  0.2438  0.1718  0.9642
  294MOL0     C39557   5.506   8.434   9.969 -0.7551  0.8465  0.9313
  294MOL0     O39558   5.589   8.416   9.859 -0.3360 -0.0920  0.5264
  294MOL0     C39559   5.634   8.541   9.816 -0.1421 -0.7794 -0.0659
  294MOL0     C39560   5.649   8.575   9.681  0.0911  0.1275  0.8042
  294MOL0     C39561   5.690   8.701   9.626  0.4133 -0.1106  0.1108
  294MOL0     C39562   5.729   8.794   9.714  0.7502  0.6971 -0.1121
  294MOL0     O39563   5.748   8.921   9.668  1.0524 -0.3487  0.3361
  294MOL0     C39564   5.668   9.018   9.730  0.8725 -0.6992 -0.3869
  294MOL0     C39565   5.714   9.152   9.664  0.1737  0.3300 -0.4468
  294MOL0     C39566   5.858   9.191   9.712 -0.1266  1.3295  0.1174
  294MOL0     C39567   5.962   9.166   9.609 -0.4008  0.1698  0.2363
  294MOL0     C39568   6.085   9.258   9.617 -0.2936 -0.7083 -0.4241
  294MOL0     C39569   6.087   9.402   9.564  0.1905 -0.1977 -0.0089
  294MOL0     C39570   6.227   9.432   9.502 -0.5013  0.4416 -1.3260
  294MOL0     C39571   6.239   9.557   9.426  0.6256  0.1092 -0.2768
  294MOL0     N39572   6.184   9.549   9.291  0.7160  0.5927 -0.8106
  294MOL0     C39573   6.141   9.671   9.234  0.6171  0.6340  0.1839
  294MOL0     C39574   6.122   9.637   9.108 -0.3002  0.0383  0.7779
  294MOL0     C39575   6.071   9.741   9.019 -0.2688  0.1622  0.4875
  294MOL0     C39576   6.182   9.831   8.970 -0.3131  0.3986  0.5363
  294MOL0     C39577   6.265   9.757   8.857  0.3417  0.2913 -0.3208
  294MOL0     C39578   6.400   9.839   8.816 -0.1889  0.6260 -0.7530
  294MOL0     O39579   6.363   9.979   8.804  0.0840 -0.2697 -0.3828
  294MOL0     C39580   6.449  10.078   8.754 -0.4626 -1.0630 -0.2979
  294MOL0     C39581   6.411  10.208   8.733  0.4632  0.6370 -0.8430
  294MOL0     C39582   6.503  10.302   8.688 -0.2429  1.0263 -0.5287
  294MOL0     C39583   6.629  10.264   8.639 -0.1839 -0.3946  0.1732
  294MOL0     C39584   6.721  10.361   8.585 -0.2723 -0.2971 -0.3284
  294MOL0     O39585   6.683  10.495   8.582 -0.0741  0.1402  1.2459
  294MOL0     C39586   6.735  10.596   8.506  1.0728  0.6816 -0.8868
  294MOL0     C39587   6.654  10.651   8.401  0.4044  0.6039 -0.2747
  294MOL0     C39588   6.713  10.734   8.310  0.5801 -0.3198 -0.7128
  294MOL0     C39589   6.843  10.778   8.328  0.3418 -0.5010 -0.3037
  294MOL0     O39590   6.902  10.875   8.247  0.4387  0.9760 -0.1424
  294MOL0     C39591   6.943  10.843   8.114  1.1173 -1.7279 -0.1354
  294MOL0     C39592   7.081  10.781   8.107  0.7156  0.0367  0.2286
  294MOL0     C39593   7.181  10.858   8.190  0.8414  0.2987  0.6463
  294MOL0     C39594   7.324  10.814   8.166  0.5361 -0.6199  0.1730
  294MOL0     C39595   7.411  10.910   8.241 -0.5497  0.1215 -0.4602
  294MOL0     C39596   7.412  10.899   8.392  0.7466  0.4851  0.0391
  294MOL0     C39597   7.537  10.969   8.446  0.9103  0.1563  0.9628
  294MOL0     C39598   7.542  11.121   8.412 -0.5195  0.7791  0.3955
  294MOL0    Cl39599   7.619  11.140   8.251  0.2743  0.4258 -0.2152
  294MOL0     C39600   6.922  10.727   8.427 -1.4209  0.5391 -0.6371
  294MOL0     C39601   6.865  10.635   8.521 -0.1555 -0.8792 -1.0647
  294MOL0     O39602   6.826  10.324   8.557 -0.4550 -0.1733 -0.3832
  294MOL0     C39603   6.662  10.129   8.651  0.3343  0.3128 -0.2080
  294MOL0     C39604   6.580  10.040   8.712 -0.1885  0.1476  0.3640
  294MOL0     N39605   6.150   9.506   9.084  0.7576 -0.0102  0.0445
  294MOL0     N39606   6.194   9.448   9.192  0.3275  0.4800 -0.1122
  294MOL0     C39607   5.732   8.756   9.848 -1.0695 -0.0312  0.0086
  294MOL0     C39608   5.689   8.632   9.898 -0.0672  0.0193 -0.6962
  294MOL0     C39609   5.507   8.310  10.060  1.3324  0.2898  0.5122
  294MOL0     C39610   5.611   8.225  10.050  0.0175  0.6210 -0.3926
  294MOL0     C39611   5.621   8.101  10.120 -0.5498 -0.6998  0.1759
  294MOL0     C39612   5.526   8.076  10.221 -0.8672 -0.1743 -0.0783
  294MOL0     O39613   5.544   7.960  10.287  0.3488 -0.2234  0.7845
  294MOL0     C39614   5.444   7.856  10.285 -0.7617 -1.4021  0.2343
  294MOL0     C39615   5.514   7.731  10.247 -0.1268 -0.6492 -1.0607
  294MOL0     C39616   5.539   7.741  10.096  0.1461 -0.1561  0.5472
  294MOL0     C39617   5.633   7.637  10.049 -0.4000  0.6414 -0.1631
  294MOL0     C39618   5.609   7.498  10.098 -1.0401  0.3744 -0.4871
  294MOL0     C39619   5.600   7.384  10.148  0.7887 -0.2366 -0.4605
  294MOL0     C39620   5.426   8.165  10.244  0.1029 -0.3062 -0.2693
  294MOL0     C39621   5.408   8.280  10.162  0.4837 -0.3271  0.0385
  294MOL0     C39622   5.302   8.373  10.206 -0.5042 -1.2758 -0.2822
  294MOL0     H39623   5.612   8.509   9.604  1.3220 -0.4797  0.7130
  294MOL0     H39624   5.693   8.733   9.523 -1.6859 -0.8143 -0.2023
  294MOL0     H39625   5.568   8.999   9.690  0.9119  0.3802 -1.0488
  294MOL0     H39626   5.674   9.023   9.839  0.6378  2.3379 -0.4286
  294MOL0     H39627   5.639   9.231   9.677 -0.0627 -0.0666  0.7266
  294MOL0     H39628   5.704   9.136   9.556 -1.1822  0.6803 -0.4009
  294MOL0     H39629   5.881   9.153   9.811 -1.3981 -1.3548 -0.5401
  294MOL0     H39630   5.856   9.300   9.728  2.5306  1.1084  2.7760
  294MOL0     H39631   5.999   9.065   9.630 -2.6230 -0.8547 -0.4505
  294MOL0     H39632   5.920   9.162   9.508  0.3021  0.7511 -0.0955
  294MOL0     H39633   6.123   9.259   9.720 -3.0997 -0.8280  0.6914
  294MOL0     H39634   6.170   9.205   9.572 -1.0405 -1.2045 -1.2673
  294MOL0     H39635   6.001   9.423   9.500 -0.3030  2.0057  1.2869
  294MOL0     H39636   6.078   9.477   9.644 -1.6249  0.3426 -0.6627
  294MOL0     H39637   6.258   9.347   9.440 -2.1239 -0.1847 -1.3317
  294MOL0     H39638   6.310   9.439   9.573  0.1375  0.8081 -2.1013
  294MOL0     H39639   6.179   9.635   9.473 -0.5877  0.8991 -2.9366
  294MOL0     H39640   6.347   9.571   9.414  0.1671  2.0654 -2.7695
  294MOL0     H39641   6.114   9.757   9.294  0.5227  0.5985  0.1942
  294MOL0     H39642   6.020   9.692   8.935 -2.7391 -0.1689  2.0640
  294MOL0     H39643   5.994   9.799   9.071 -3.5926 -2.1732 -1.4526
  294MOL0     H39644   6.142   9.921   8.923 -1.5598 -0.6703 -0.5418
  294MOL0     H39645   6.261   9.855   9.042  1.2499 -1.5112 -0.4208
  294MOL0     H39646   6.201   9.745   8.769  0.0920 -0.1072 -0.0871
  294MOL0     H39647   6.290   9.659   8.897  0.0165  0.5897  0.6378
  294MOL0     H39648   6.428   9.793   8.721 -1.0951 -1.5554 -0.0260
  294MOL0     H39649   6.479   9.834   8.892  0.8674  0.4426 -1.8339
  294MOL0     H39650   6.310  10.233   8.761  0.2234  3.1739 -3.5642
  294MOL0     H39651   6.460  10.402   8.683 -2.3497  0.1696 -0.4280
  294MOL0     H39652   6.555  10.606   8.400  0.1529  1.0358  1.5485
  294MOL0     H39653   6.646  10.771   8.233 -1.0071 -0.5041  0.5311
  294MOL0     H39654   6.869  10.778   8.067 -0.3841 -1.0286  1.1955
  294MOL0     H39655   6.943  10.941   8.066 -0.5608  0.1454  3.3369
  294MOL0     H39656   7.073  10.678   8.143  0.0097 -0.2025 -0.5903
  294MOL0     H39657   7.110  10.775   8.002  0.3677 -1.5551  0.1966
  294MOL0     H39658   7.166  10.957   8.145  0.4615  0.3081  0.7906
  294MOL0     H39659   7.158  10.865   8.297  1.1924  2.6475  0.6330
  294MOL0     H39660   7.334  10.826   8.058  0.6284  2.0512  0.4107
  294MOL0     H39661   7.341  10.706   8.174  0.2214 -0.9435 -2.7371
  294MOL0     H39662   7.386  11.010   8.205 -1.0394  0.8493  1.7443
  294MOL0     H39663   7.514  10.892   8.211 -0.1471 -0.0208  0.9226
  294MOL0     H39664   7.320  10.940   8.436  2.0910 -0.0670  3.7636
  294MOL0     H39665   7.419  10.794   8.423  1.8129 -0.3554 -2.7893
  294MOL0     H39666   7.629  10.929   8.402 -2.1784 -2.4516 -3.9656
  294MOL0     H39667   7.524  10.966   8.555 -1.2757  1.6257  0.8075
  294MOL0     H39668   7.445  11.171   8.401  0.0732  1.7909 -0.4865
  294MOL0     H39669   7.600  11.173   8.488  1.8941 -1.0467 -0.0972
  294MOL0     H39670   7.025  10.756   8.447 -1.5603  2.2003 -2.0555
  294MOL0     H39671   6.933  10.598   8.598  1.1686  1.6386 -0.9187
  294MOL0     H39672   6.742  10.081   8.595  1.3801 -0.2319  1.6677
  294MOL0     H39673   6.593   9.932   8.717 -2.7269 -0.1952  1.5154
  294MOL0     H39674   5.784   8.822   9.917  1.6325 -1.3987 -0.5893
  294MOL0     H39675   5.680   8.615  10.005 -0.5910 -3.3470 -1.1743
  294MOL0     H39676   5.679   8.241   9.967 -0.5573 -4.1735 -2.1295
  294MOL0     H39677   5.692   8.020  10.106 -0.9915 -1.3029  1.2987
  294MOL0     H39678   5.366   7.882  10.213  0.9668 -0.2806 -1.3243
  294MOL0     H39679   5.396   7.851  10.384 -3.5048  0.8766 -0.8389
  294MOL0     H39680   5.449   7.647  10.273  1.1349 -1.2876  0.1777
  294MOL0     H39681   5.600   7.717  10.314  2.6254  0.2363 -4.1371
  294MOL0     H39682   5.587   7.833  10.059 -0.4751 -1.1910 -3.3314
  294MOL0     H39683   5.445   7.737  10.040 -0.0902  0.7971  0.8556
  294MOL0     H39684   5.632   7.640   9.940 -1.1711  0.7721 -0.1558
  294MOL0     H39685   5.733   7.671  10.077  0.2740 -0.0634 -1.5961
  294MOL0     H39686   5.611   7.285  10.187 -1.5976 -1.0637 -1.6902
  294MOL0     H39687   5.352   8.137  10.319 -1.0206  1.3795 -0.6990
  294MOL0     H39688   5.327   8.426  10.299 -0.6129 -0.7771 -0.5378
  294MOL0     H39689   5.267   8.448  10.135  0.1424 -1.0764 -0.3934
  294MOL0     H39690   5.215   8.316  10.242  0.4023 -3.7812 -1.7680
  295MOL0     O39691   4.888   8.511  10.739 -1.0317  0.0572 -0.0949
  295MOL0     C39692   4.978   8.429  10.749  0.2706  0.3571  0.2095
  295MOL0     O39693   5.109   8.454  10.728 -0.3203 -0.4118 -0.0582
  295MOL0     C39694   5.165   8.572  10.711 -0.4659  0.0401  0.3600
  295MOL0     C39695   5.284   8.603  10.779  0.5010 -0.3675 -0.2150
  295MOL0     C39696   5.336   8.730  10.771 -1.4968 -0.3873 -0.2193
  295MOL0     C39697   5.275   8.813  10.679  0.5469 -0.0342  0.2022
  295MOL0     O39698   5.334   8.937  10.678  0.3821  0.6114 -0.1848
  295MOL0     C39699   5.287   9.048  10.592 -0.0952 -0.2653 -0.0242
  295MOL0     C39700   5.403   9.144  10.565  0.2174  0.0146 -0.3554
  295MOL0     C39701   5.459   9.203  10.695 -0.1375  0.3408  0.8123
  295MOL0     C39702   5.363   9.229  10.807 -0.3905  0.0405  0.4597
  295MOL0     C39703   5.407   9.344  10.893 -0.7373 -1.3745 -0.5063
  295MOL0     C39704   5.284   9.381  10.989  0.0792 -0.1873  0.3453
  295MOL0     C39705   5.269   9.286  11.104 -0.1125 -0.2950 -0.3579
  295MOL0     C39706   5.142   9.308  11.190 -0.3503  0.1050  1.6954
  295MOL0     N39707   5.161   9.281  11.334 -0.2447  0.7320 -0.3255
  295MOL0     C39708   5.248   9.189  11.398  0.0139  0.0907 -0.3748
  295MOL0     C39709   5.218   9.191  11.528  0.2237 -0.9852  0.2119
  295MOL0     C39710   5.268   9.104  11.637  0.9285  0.5407  0.1132
  295MOL0     C39711   5.170   9.084  11.754  0.1990 -0.2866  0.7755
  295MOL0     C39712   5.238   9.015  11.865 -0.7199  0.3346 -0.6776
  295MOL0     C39713   5.127   8.939  11.941 -0.4051 -0.0449  0.7384
  295MOL0     O39714   5.166   8.919  12.074  0.3938 -1.0094 -0.6837
  295MOL0     C39715   5.093   8.837  12.148  0.3871 -0.6616 -0.4720
  295MOL0     C39716   5.121   8.855  12.285  0.1577 -0.6049 -0.2590
  295MOL0     C39717   5.047   8.786  12.386 -0.7181 -0.7749 -0.1889
  295MOL0     C39718   4.951   8.689  12.348 -0.2202 -0.6277 -0.3627
  295MOL0     C39719   4.900   8.592  12.446 -0.6845  0.5647 -0.2923
  295MOL0     O39720   4.911   8.622  12.575  0.8338 -0.6280 -0.1389
  295MOL0     C39721   4.834   8.554  12.665  0.4766  0.0558 -0.3003
  295MOL0     C39722   4.831   8.414  12.669  0.4847  0.5779 -0.4357
  295MOL0     C39723   4.751   8.360  12.773  0.8139  0.5889  0.4505
  295MOL0     C39724   4.660   8.431  12.850  0.5136 -1.1321 -0.5317
  295MOL0     O39725   4.585   8.366  12.946  0.0980 -0.6795 -0.5709
  295MOL0     C39726   4.475   8.446  12.993  0.1971  0.4185  0.3072
  295MOL0     C39727   4.364   8.333  13.026  0.3649 -0.7099  0.0162
  295MOL0     C39728   4.394   8.299  13.170 -0.1173 -0.1896 -0.7812
  295MOL0     C39729   4.495   8.188  13.177 -0.6400  0.1549  0.3457
  295MOL0     C39730   4.490   8.134  13.320  0.2153  0.3246  0.8006
  295MOL0     C39731   4.586   8.022  13.333  0.0664  0.0789 -0.5494
  295MOL0     C39732   4.543   7.933  13.455  0.2251 -0.3228 -0.6083
  295MOL0     C39733   4.662   7.835  13.476  0.8543  0.0084 -0.2344
  295MOL0    Cl39734   4.801   7.920  13.541  0.1328 -0.5876  0.2458
  295MOL0     C39735   4.664   8.568  12.828  0.1647  0.4882  0.4315
  295MOL0     C39736   4.747   8.633  12.738  0.5378  0.5041  0.3109
  295MOL0     O39737   4.850   8.483  12.410 -0.4439 -0.8593  0.1843
  295MOL0     C39738   4.911   8.682  12.210  0.1612  1.0610  0.6936
  295MOL0     C39739   4.987   8.750  12.113  0.4881  0.4153  0.0822
  295MOL0     N39740   5.123   9.300  11.544 -0.0373  0.1931 -0.3305
  295MOL0     N39741   5.087   9.334  11.433 -0.1033 -0.1422 -0.6280
  295MOL0     C39742   5.167   8.779  10.600  0.0253 -0.8314  0.8795
  295MOL0     C39743   5.109   8.653  10.613 -0.2649  1.2863 -0.3474
  295MOL0     C39744   4.925   8.291  10.778 -0.3725 -1.3406  0.2972
  295MOL0     C39745   4.787   8.277  10.795  0.1245  0.5751  0.2930
  295MOL0     C39746   4.738   8.158  10.850 -0.0543 -0.0033 -0.8210
  295MOL0     C39747   4.820   8.049  10.869 -0.5212  0.9352 -0.4782
  295MOL0     O39748   4.754   7.933  10.900 -0.1677 -0.2670 -0.2915
  295MOL0     C39749   4.804   7.811  10.849 -0.4224  0.1537 -0.4989
  295MOL0     C39750   4.690   7.704  10.846 -0.8158 -1.0657 -1.1372
  295MOL0     C39751   4.568   7.775  10.811  0.8913 -0.1163  0.6682
  295MOL0     C39752   4.444   7.692  10.772  0.3896 -0.8305 -0.6147
  295MOL0     C39753   4.399   7.616  10.890 -0.1213 -0.3875 -0.0089
  295MOL0     C39754   4.368   7.557  10.989  0.5202 -0.5298  0.0792
  295MOL0     C39755   4.953   8.062  10.858 -0.5133  0.9811 -0.0141
  295MOL0     C39756   5.011   8.185  10.812 -0.6398  0.3590  0.7135
  295MOL0     C39757   5.154   8.184  10.794  1.0781  0.4185 -0.4832
  295MOL0     H39758   5.344   8.534  10.838  0.9915  0.1361 -0.1159
  295MOL0     H39759   5.422   8.780  10.816  1.8162 -2.4032 -3.6998
  295MOL0     H39760   5.264   9.015  10.490 -1.2726  0.8234 -0.1358
  295MOL0     H39761   5.197   9.094  10.633 -0.9509 -0.1163 -1.9520
  295MOL0     H39762   5.353   9.225  10.510  3.4072  3.5093  1.4418
  295MOL0     H39763   5.479   9.109  10.495  1.0555 -0.7693  0.9064
  295MOL0     H39764   5.529   9.283  10.668  2.5736 -1.9137  0.7502
  295MOL0     H39765   5.526   9.126  10.732 -0.6543 -0.6214 -0.2005
  295MOL0     H39766   5.261   9.239  10.769  0.6101  2.9698 -1.8435
  295MOL0     H39767   5.374   9.142  10.873  0.6240 -1.2510 -1.3248
  295MOL0     H39768   5.497   9.325  10.953 -2.1612  1.4985  2.8669
  295MOL0     H39769   5.427   9.429  10.827  1.3906 -1.5759 -0.1992
  295MOL0     H39770   5.288   9.483  11.028 -0.8496 -0.5602  1.4915
  295MOL0     H39771   5.188   9.390  10.937  0.1889 -1.8812 -0.2008
  295MOL0     H39772   5.357   9.303  11.167  0.6848  1.3051 -1.8210
  295MOL0     H39773   5.265   9.180  11.078 -1.0736 -0.4580  0.3986
  295MOL0     H39774   5.099   9.408  11.180 -3.3101 -1.2501 -0.5753
  295MOL0     H39775   5.069   9.242  11.143 -1.2281  0.9407  1.8513
  295MOL0     H39776   5.315   9.114  11.357 -0.7530 -0.1480 -1.2085
  295MOL0     H39777   5.280   9.005  11.593 -1.5000  0.7941 -1.3217
  295MOL0     H39778   5.360   9.141  11.682  0.7926  0.4435  0.4723
  295MOL0     H39779   5.136   9.186  11.776  0.8396  0.1368 -0.1241
  295MOL0     H39780   5.078   9.036  11.720  0.1158  1.3226 -1.5208
  295MOL0     H39781   5.284   9.082  11.939 -3.1129  2.1055 -0.6621
  295MOL0     H39782   5.316   8.947  11.830 -0.7018 -0.5138  0.8931
  295MOL0     H39783   5.099   8.851  11.884 -1.9724  1.9741 -1.8693
  295MOL0     H39784   5.038   9.003  11.949 -1.1504 -0.9483 -0.1071
  295MOL0     H39785   5.197   8.921  12.324  0.0640 -0.5196 -0.2190
  295MOL0     H39786   5.068   8.802  12.491  1.7029 -1.7582 -0.4671
  295MOL0     H39787   4.885   8.345  12.605 -0.2083 -0.5719  0.1815
  295MOL0     H39788   4.730   8.255  12.792 -0.4415  1.1826  2.6954
  295MOL0     H39789   4.494   8.510  13.080  0.6397  2.3089 -1.1326
  295MOL0     H39790   4.430   8.519  12.926 -0.3278  0.2717  0.4923
  295MOL0     H39791   4.262   8.374  13.034  0.8160  0.2930  0.9198
  295MOL0     H39792   4.373   8.245  12.962  1.5825 -1.8381  1.6357
  295MOL0     H39793   4.409   8.387  13.234 -1.9413  1.0783 -2.0140
  295MOL0     H39794   4.301   8.257  13.209 -0.5507  1.2726 -0.1762
  295MOL0     H39795   4.596   8.226  13.161 -1.8826  3.1922 -1.0073
  295MOL0     H39796   4.480   8.108  13.104  0.9187 -1.2492  1.5028
  295MOL0     H39797   4.392   8.102  13.356 -0.2079 -0.3970 -0.9079
  295MOL0     H39798   4.514   8.216  13.389 -2.2320 -0.1425  2.3346
  295MOL0     H39799   4.606   7.964  13.243 -0.1817  0.4770 -0.8666
  295MOL0     H39800   4.679   8.069  13.367 -1.7466  2.5002  1.4621
  295MOL0     H39801   4.455   7.870  13.441  2.9147 -4.1538 -2.1028
  295MOL0     H39802   4.540   7.998  13.543  2.7923  0.0428 -0.7179
  295MOL0     H39803   4.628   7.753  13.540  1.9644 -3.5786 -3.8224
  295MOL0     H39804   4.688   7.790  13.380 -2.3049  3.6719 -3.1386
  295MOL0     H39805   4.605   8.640  12.884  0.1920 -0.2851  1.4801
  295MOL0     H39806   4.755   8.740  12.727  2.9653  0.2796 -0.7506
  295MOL0     H39807   4.841   8.605  12.178  1.2358  0.0546  0.7160
  295MOL0     H39808   4.956   8.731  12.010  0.3281 -1.5292  0.4547
  295MOL0     H39809   5.127   8.849  10.527 -1.9471 -2.8053 -0.0702
  295MOL0     H39810   5.020   8.630  10.555  1.1485  0.8089 -2.4582
  295MOL0     H39811   4.721   8.364  10.796 -0.4580  0.2734  4.4933
  295MOL0     H39812   4.632   8.159  10.874  0.4942  0.0948  1.9845
  295MOL0     H39813   4.894   7.771  10.898 -0.5009  1.4109  0.7260
  295MOL0     H39814   4.826   7.821  10.743 -2.9450 -0.0963 -1.1119
  295MOL0     H39815   4.673   7.652  10.941 -0.7798  0.6190 -0.1613
  295MOL0     H39816   4.713   7.622  10.777  1.4473 -1.8857  0.4516
  295MOL0     H39817   4.572   7.839  10.723 -2.3021 -2.5494 -1.5062
  295MOL0     H39818   4.528   7.838  10.891 -1.5064  1.0198 -1.2958
  295MOL0     H39819   4.358   7.751  10.738  0.9454 -1.2692 -2.8845
  295MOL0     H39820   4.476   7.635  10.685 -1.4751 -0.5094 -1.5713
  295MOL0     H39821   4.337   7.500  11.074 -0.2226 -0.2039  0.0350
  295MOL0     H39822   5.017   7.977  10.877 -0.3294  0.7470 -1.5290
  295MOL0     H39823   5.191   8.237  10.883  1.7420 -1.1684  0.2255
  295MOL0     H39824   5.197   8.084  10.800 -0.5280 -0.3175 -0.8163
  295MOL0     H39825   5.181   8.230  10.698 -2.7829 -1.9220 -2.9392
  296MOL0     O39826   4.616   0.279   0.092 -0.1068 -0.3341  0.3130
  296MOL0     C39827   4.509   0.233   0.131 -0.0960 -0.1400  0.0874
  296MOL0     O39828   4.472   0.093   0.121  0.2133 -0.0738 -0.3608
  296MOL0     C39829   4.554  -0.005   0.061 -0.5337 -0.1323 -0.6050
  296MOL0     C39830   4.500  -0.134   0.093 -0.8118 -0.9674  0.8164
  296MOL0     C39831   4.564  -0.245   0.056  0.6725  1.3428 -0.5702
  296MOL0     C39832   4.681  -0.240  -0.021 -0.2480  0.9569  0.7424
  296MOL0     O39833   4.737  -0.355  -0.072 -0.1631  0.8038 -0.1552
  296MOL0     C39834   4.722  -0.481   0.000 -0.5471  0.6614  0.0367
  296MOL0     C39835   4.830  -0.568  -0.042 -1.4823  0.8647  0.2542
  296MOL0     C39836   4.865  -0.676   0.059  0.1334 -0.2244  0.1718
  296MOL0     C39837   4.754  -0.785   0.038 -0.6948  0.3472 -0.5552
  296MOL0     C39838   4.782  -0.907   0.128 -0.0477  0.4260 -1.1648
  296MOL0     C39839   4.681  -1.012   0.123  0.7316  0.2237 -0.2788
  296MOL0     C39840   4.702  -1.125   0.228  0.7022 -0.0902 -0.8985
  296MOL0     C39841   4.657  -1.076   0.365 -0.4559 -0.4309 -0.2509
  296MOL0     N39842   4.635  -1.184   0.462  0.0980 -0.0154 -1.0028
  296MOL0     C39843   4.737  -1.278   0.488 -0.1006 -0.3127 -0.4127
  296MOL0     C39844   4.692  -1.339   0.609 -0.3520 -0.3201  0.8640
  296MOL0     C39845   4.771  -1.445   0.677  0.1083 -1.3556 -0.2544
  296MOL0     C39846   4.901  -1.398   0.743  0.5502  0.8673 -0.7057
  296MOL0     C39847   5.002  -1.511   0.793 -0.2623 -0.2595 -0.0341
  296MOL0     C39848   4.959  -1.568   0.933 -0.0283 -1.0425  0.2889
  296MOL0     O39849   4.962  -1.472   1.041 -0.0257 -0.6648 -0.3081
  296MOL0     C39850   4.941  -1.514   1.173 -0.5949  0.1056 -0.4237
  296MOL0     C39851   4.967  -1.643   1.225  0.0100  0.4964  0.5322
  296MOL0     C39852   4.950  -1.675   1.361  0.3006 -0.8792 -0.5339
  296MOL0     C39853   4.911  -1.577   1.450  0.2141  0.8087  0.7575
  296MOL0     C39854   4.916  -1.592   1.592 -0.0748  0.3331  0.2707
  296MOL0     O39855   4.812  -1.534   1.662 -0.4120  0.5144 -0.6635
  296MOL0     C39856   4.802  -1.550   1.801  0.4863  0.5137 -0.3551
  296MOL0     C39857   4.679  -1.516   1.857  0.7306 -0.7339 -0.3537
  296MOL0     C39858   4.644  -1.546   1.986  1.6561  0.0968 -0.5610
  296MOL0     C39859   4.730  -1.590   2.077 -0.9621 -0.3507  0.0529
  296MOL0     O39860   4.676  -1.624   2.196 -1.0491  0.7431  0.3681
  296MOL0     C39861   4.759  -1.632   2.316 -0.8481  0.2652  0.6420
  296MOL0     C39862   4.699  -1.743   2.405 -0.5372 -0.1655  0.9213
  296MOL0     C39863   4.771  -1.738   2.538  0.0095 -0.1772 -0.7974
  296MOL0     C39864   4.697  -1.806   2.649  0.0810 -0.7544  0.4304
  296MOL0     C39865   4.786  -1.809   2.778  0.1865 -0.6796  0.7753
  296MOL0     C39866   4.901  -1.914   2.768 -0.5843  0.5090  0.2544
  296MOL0     C39867   4.975  -1.940   2.894  0.0926  0.1729 -1.1971
  296MOL0     C39868   5.101  -2.022   2.877 -0.4393 -0.3698  0.7663
  296MOL0    Cl39869   5.085  -2.198   2.848 -0.1649  0.0025 -0.2863
  296MOL0     C39870   4.856  -1.617   2.030 -0.7790 -0.1146  0.3184
  296MOL0     C39871   4.900  -1.584   1.892  0.7713  0.9932  0.1090
  296MOL0     O39872   5.004  -1.669   1.634 -0.5819  0.1207  0.4438
  296MOL0     C39873   4.870  -1.454   1.391  0.2016  0.4177 -0.2382
  296MOL0     C39874   4.884  -1.424   1.254 -0.1558 -0.0372 -0.5003
  296MOL0     N39875   4.577  -1.272   0.651 -1.0569 -0.7513  0.1005
  296MOL0     N39876   4.540  -1.192   0.562 -0.3899  1.0765 -0.0022
  296MOL0     C39877   4.734  -0.113  -0.052  0.6346 -0.3680  0.1594
  296MOL0     C39878   4.671   0.007  -0.014  0.0672  1.2619 -0.9865
  296MOL0     C39879   4.404   0.327   0.173  0.5042 -0.4925 -0.7649
  296MOL0     C39880   4.267   0.303   0.140 -0.2777 -0.2836  0.8830
  296MOL0     C39881   4.159   0.375   0.189 -0.5145 -0.1868  0.1216
  296MOL0     C39882   4.179   0.480   0.272  1.1445 -0.8632  0.4151
  296MOL0     O39883   4.079   0.524   0.352 -0.3394  0.6550 -0.1000
  296MOL0     C39884   3.942   0.463   0.355  0.2987 -0.2617 -0.1956
  296MOL0     C39885   3.844   0.521   0.457  0.4343 -0.2946 -0.2948
  296MOL0     C39886   3.839   0.676   0.475  1.0702  0.8614  0.3523
  296MOL0     C39887   3.737   0.747   0.391 -0.7244 -0.6127  0.1408
  296MOL0     C39888   3.598   0.698   0.409  0.5569  0.7730 -0.1251
  296MOL0     C39889   3.485   0.667   0.408  0.2125  0.0464  0.1255
  296MOL0     C39890   4.305   0.530   0.274 -0.3649  0.0314 -0.7897
  296MOL0     C39891   4.426   0.455   0.238 -0.0524  0.9894 -0.4851
  296MOL0     C39892   4.549   0.524   0.271  0.3377 -0.8189 -0.2133
  296MOL0     H39893   4.414  -0.150   0.158 -0.3818 -0.2714  1.5685
  296MOL0     H39894   4.521  -0.343   0.075  1.1012  1.1556 -0.5664
  296MOL0     H39895   4.707  -0.469   0.108  0.2054  4.1650 -0.1328
  296MOL0     H39896   4.629  -0.526  -0.036 -0.1240 -0.6237  0.4730
  296MOL0     H39897   4.924  -0.517  -0.064  1.6432 -3.8721  1.1358
  296MOL0     H39898   4.809  -0.606  -0.142  0.2378  2.7928 -0.9081
  296MOL0     H39899   4.867  -0.625   0.156 -1.8654  2.7367 -1.1903
  296MOL0     H39900   4.968  -0.713   0.054  0.9218  1.8706  0.0542
  296MOL0     H39901   4.659  -0.742   0.072 -0.2682  1.3334 -0.5852
  296MOL0     H39902   4.751  -0.831  -0.061 -0.5247 -1.7864  0.3732
  296MOL0     H39903   4.877  -0.941   0.085  0.0419 -0.8296 -0.0491
  296MOL0     H39904   4.804  -0.878   0.232 -0.4808 -0.8268 -0.7035
  296MOL0     H39905   4.579  -0.973   0.130 -0.1526 -1.6509 -1.8200
  296MOL0     H39906   4.702  -1.069   0.033 -0.5757 -1.9631  0.7175
  296MOL0     H39907   4.808  -1.148   0.238  1.7893  3.4663 -2.6330
  296MOL0     H39908   4.655  -1.216   0.190  1.3966 -0.8076 -0.0717
  296MOL0     H39909   4.735  -1.016   0.413 -0.9478  0.9400 -1.0963
  296MOL0     H39910   4.566  -1.019   0.344 -0.6932 -0.3372  0.9607
  296MOL0     H39911   4.832  -1.309   0.446  1.4048  0.7206  1.9919
  296MOL0     H39912   4.706  -1.513   0.732 -1.6513 -0.5244 -1.2431
  296MOL0     H39913   4.808  -1.517   0.603  2.7930 -3.3355  2.7275
  296MOL0     H39914   4.960  -1.348   0.666 -0.3350  0.1034 -1.9104
  296MOL0     H39915   4.876  -1.343   0.834 -0.8434 -0.6986 -0.0893
  296MOL0     H39916   5.103  -1.471   0.798 -1.0557  1.8275  0.4857
  296MOL0     H39917   5.005  -1.602   0.733  2.7132 -0.9690  1.0188
  296MOL0     H39918   5.040  -1.642   0.945  0.3604 -0.5916  0.4896
  296MOL0     H39919   4.858  -1.608   0.919 -0.2334 -0.5654  0.4231
  296MOL0     H39920   4.997  -1.709   1.144  1.2633  3.4574 -1.6028
  296MOL0     H39921   4.969  -1.778   1.392  3.6788 -0.0203  0.7755
  296MOL0     H39922   4.606  -1.470   1.791 -1.9072 -2.4189  1.1758
  296MOL0     H39923   4.544  -1.516   2.018  1.5123  1.6580 -2.3069
  296MOL0     H39924   4.866  -1.650   2.304 -1.1126 -0.4623 -0.7875
  296MOL0     H39925   4.753  -1.534   2.366 -0.4667 -0.1250  1.4653
  296MOL0     H39926   4.591  -1.736   2.421 -0.7205  2.0395 -0.8219
  296MOL0     H39927   4.724  -1.837   2.354  0.5427  0.9918 -0.8163
  296MOL0     H39928   4.869  -1.786   2.524 -1.0175 -2.9692  0.7278
  296MOL0     H39929   4.773  -1.633   2.565 -1.7427 -0.7819  2.1260
  296MOL0     H39930   4.672  -1.910   2.623  0.4636 -0.6230 -0.4798
  296MOL0     H39931   4.602  -1.759   2.675 -0.9781 -1.8318 -1.3089
  296MOL0     H39932   4.721  -1.826   2.864  2.7466 -1.5461  2.6430
  296MOL0     H39933   4.827  -1.709   2.792  2.3882 -1.2710 -0.8921
  296MOL0     H39934   4.856  -2.007   2.730 -3.0562  1.2829  1.1107
  296MOL0     H39935   4.965  -1.881   2.685 -3.0911  0.0345 -2.0123
  296MOL0     H39936   4.908  -1.978   2.971  0.5016 -1.5146 -1.6244
  296MOL0     H39937   5.008  -1.841   2.925  2.2960 -0.2335 -2.0206
  296MOL0     H39938   5.155  -1.981   2.791  2.0115  0.6641  2.6638
  296MOL0     H39939   5.167  -2.002   2.963  2.5152 -2.6285 -0.7806
  296MOL0     H39940   4.933  -1.668   2.086 -0.1526 -0.2965 -0.6871
  296MOL0     H39941   5.002  -1.615   1.869  0.2443 -2.3207  1.5823
  296MOL0     H39942   4.834  -1.384   1.466  1.0430 -1.9265  2.5395
  296MOL0     H39943   4.868  -1.322   1.219  0.6483 -0.5033 -2.3550
  296MOL0     H39944   4.824  -0.106  -0.112  0.5924 -0.9094  0.0260
  296MOL0     H39945   4.723   0.102  -0.019  1.8441  0.3700 -0.0402
  296MOL0     H39946   4.256   0.218   0.073 -0.4151  0.1337  0.3753
  296MOL0     H39947   4.063   0.335   0.159  0.1380 -1.2231 -0.6221
  296MOL0     H39948   3.941   0.355   0.371  2.4091 -0.6905 -2.3064
  296MOL0     H39949   3.890   0.483   0.260 -0.6094  1.4182  0.6012
  296MOL0     H39950   3.862   0.484   0.559  1.6268  0.3504 -0.2593
  296MOL0     H39951   3.750   0.477   0.422 -0.1805 -0.2102  1.1937
  296MOL0     H39952   3.938   0.721   0.462  0.3924  3.5054  3.1744
  296MOL0     H39953   3.819   0.693   0.581 -1.2441 -0.5845  0.2282
  296MOL0     H39954   3.737   0.846   0.439 -1.9785 -0.0814 -0.8774
  296MOL0     H39955   3.776   0.752   0.289 -2.0277  0.2601 -0.3446
  296MOL0     H39956   3.381   0.641   0.404  0.6541 -1.7091 -1.5006
  296MOL0     H39957   4.323   0.625   0.323 -2.5449  0.5966 -1.0139
  296MOL0     H39958   4.622   0.468   0.330  0.7997  1.3477  1.4084
  296MOL0     H39959   4.588   0.570   0.180 -1.2036  2.1358  0.4860
  296MOL0     H39960   4.528   0.608   0.337 -2.4701 -0.4827 -1.4075
  297MOL0     O39961   2.618   0.229   6.687  1.5609 -0.3006  1.1978
  297MOL0     C39962   2.489   0.223   6.692  0.0419  0.9266  0.3496
  297MOL0     O39963   2.409   0.173   6.603  0.9528  0.6351  0.5195
  297MOL0     C39964   2.469   0.161   6.475  0.9381  1.0617  0.0266
  297MOL0     C39965   2.445   0.039   6.400 -0.3964  0.8767 -0.0845
  297MOL0     C39966   2.490   0.032   6.271 -0.1997  0.4936 -0.1475
  297MOL0     C39967   2.567   0.134   6.218 -0.0996 -0.4009 -0.8573
  297MOL0     O39968   2.622   0.118   6.095 -0.7924  0.2676 -0.5736
  297MOL0     C39969   2.762   0.159   6.077 -1.1830  0.0098 -0.1379
  297MOL0     C39970   2.802   0.072   5.961 -0.3912  0.2568 -0.1449
  297MOL0     C39971   2.794  -0.083   5.996  0.0637  0.1300  0.2060
  297MOL0     C39972   2.886  -0.163   5.901  0.3850 -0.1911 -0.8707
  297MOL0     C39973   2.795  -0.171   5.780  0.8298 -0.6040  0.3811
  297MOL0     C39974   2.890  -0.235   5.678  0.0608 -0.2485  0.2973
  297MOL0     C39975   3.026  -0.173   5.642  0.2425  0.6781  0.7844
  297MOL0     C39976   3.096  -0.269   5.533  0.2858 -0.0231 -0.2374
  297MOL0     N39977   3.212  -0.198   5.479 -0.4949  0.4552  0.0796
  297MOL0     C39978   3.228  -0.145   5.348 -0.1788 -0.5247 -0.4937
  297MOL0     C39979   3.362  -0.122   5.338  0.9587 -0.0831 -0.6612
  297MOL0     C39980   3.429  -0.067   5.221 -0.8856 -0.5685 -1.0797
  297MOL0     C39981   3.563  -0.140   5.206  0.4313 -0.1327 -0.4078
  297MOL0     C39982   3.548  -0.286   5.183  0.3315  0.2657  0.8866
  297MOL0     C39983   3.684  -0.352   5.188 -0.5244 -0.1233  0.1217
  297MOL0     O39984   3.759  -0.356   5.067 -0.3442  0.5202  0.8115
  297MOL0     C39985   3.899  -0.359   5.057 -0.8690  0.2140  0.5755
  297MOL0     C39986   3.964  -0.327   4.930  0.2417  0.4364 -0.6768
  297MOL0     C39987   4.104  -0.335   4.926 -0.6224  0.4941  0.2657
  297MOL0     C39988   4.183  -0.372   5.027  0.7373 -0.5669  0.0118
  297MOL0     C39989   4.329  -0.367   5.021  1.1584 -0.3283  0.1562
  297MOL0     O39990   4.377  -0.294   4.913 -0.3732  0.3947  0.3214
  297MOL0     C39991   4.507  -0.281   4.870 -0.2870 -0.5075 -0.9275
  297MOL0     C39992   4.530  -0.159   4.800 -0.2481  0.1723 -1.1366
  297MOL0     C39993   4.653  -0.138   4.735  0.3772  0.7530 -0.7261
  297MOL0     C39994   4.764  -0.226   4.766  1.0877 -0.4977 -0.2757
  297MOL0     O39995   4.888  -0.192   4.711 -0.1545  0.0449 -0.3422
  297MOL0     C39996   4.902  -0.072   4.626  0.1631  0.3898 -0.6703
  297MOL0     C39997   5.043  -0.060   4.558 -0.4374 -0.1646  0.7057
  297MOL0     C39998   5.072   0.066   4.467  0.4203  0.5318  0.2742
  297MOL0     C39999   5.115   0.174   4.562 -1.4880 -1.0993 -0.5829
  297MOL0     C40000   5.187   0.289   4.487 -0.5836 -0.7231  0.3802
  297MOL0     C40001   5.247   0.387   4.595 -0.8007  0.2274 -0.5680
  297MOL0     C40002   5.337   0.494   4.531 -0.0622  0.5364  1.1480
  297MOL0     C40003   5.332   0.630   4.597  0.1059 -0.2407 -0.5930
  297MOL0    Cl40004   5.453   0.744   4.521 -0.5461 -0.1507 -0.5584
  297MOL0     C40005   4.741  -0.333   4.853  0.6464  0.1218  0.6513
  297MOL0     C40006   4.618  -0.363   4.905 -0.1544 -0.0794  1.0215
  297MOL0     O40007   4.400  -0.439   5.092 -1.0508 -0.8941 -0.2890
  297MOL0     C40008   4.119  -0.400   5.153 -0.4340 -0.0753 -0.1429
  297MOL0     C40009   3.980  -0.399   5.164 -0.8210  0.6172  0.0357
  297MOL0     N40010   3.415  -0.146   5.470 -0.4749  0.1001 -0.7720
  297MOL0     N40011   3.333  -0.199   5.544  0.5373 -0.0747  0.1321
  297MOL0     C40012   2.601   0.245   6.300 -0.1087  0.0419  0.3342
  297MOL0     C40013   2.539   0.266   6.423 -0.8530  0.5820  0.6837
  297MOL0     C40014   2.428   0.263   6.826  0.2502  0.6903  0.0950
  297MOL0     C40015   2.513   0.258   6.932  0.0551 -0.0747  0.2131
  297MOL0     C40016   2.473   0.303   7.061  0.1800  0.4292 -0.0964
  297MOL0     C40017   2.334   0.328   7.085  0.3296 -0.7370  0.2491
  297MOL0     O40018   2.284   0.353   7.212 -0.4698 -0.3939 -0.0553
  297MOL0     C40019   2.172   0.436   7.240  0.3683 -0.1159 -0.1761
  297MOL0     C40020   2.178   0.500   7.372 -0.5688  0.8738  0.4233
  297MOL0     C40021   2.062   0.591   7.391 -0.0574 -0.5861  0.6405
  297MOL0     C40022   2.051   0.668   7.520  0.8486 -0.2084  0.2891
  297MOL0     C40023   1.918   0.719   7.534  0.0588  0.7663 -0.2512
  297MOL0     C40024   1.806   0.764   7.543 -0.1387  0.7280 -0.6733
  297MOL0     C40025   2.239   0.317   6.983 -0.8115 -0.0545 -0.8264
  297MOL0     C40026   2.288   0.288   6.855  0.8050 -0.2433  0.2832
  297MOL0     C40027   2.194   0.311   6.740 -0.1478 -0.4215 -0.2264
  297MOL0     H40028   2.389  -0.037   6.452  3.5166 -1.3436  1.2616
  297MOL0     H40029   2.483  -0.057   6.209 -1.7629 -1.1954  2.2715
  297MOL0     H40030   2.770   0.266   6.053  2.6205 -0.2166 -0.5332
  297MOL0     H40031   2.823   0.141   6.166 -3.7578 -0.0057  1.7295
  297MOL0     H40032   2.904   0.108   5.944 -1.4007  3.8897  0.7868
  297MOL0     H40033   2.744   0.089   5.870  0.6630 -1.0657 -1.1134
  297MOL0     H40034   2.691  -0.117   6.003 -0.0012  0.6218  3.6213
  297MOL0     H40035   2.828  -0.090   6.100 -3.3414 -2.3851  1.3545
  297MOL0     H40036   2.975  -0.102   5.881  1.9786 -2.8120 -2.4370
  297MOL0     H40037   2.928  -0.255   5.945 -0.5541 -0.1391  0.1641
  297MOL0     H40038   2.709  -0.236   5.800 -2.0641  1.7470 -3.0533
  297MOL0     H40039   2.755  -0.076   5.744  0.2462 -0.8469  0.3711
  297MOL0     H40040   2.910  -0.329   5.732 -1.8806  0.5535  2.6032
  297MOL0     H40041   2.829  -0.252   5.589 -0.1866 -0.7767  0.5553
  297MOL0     H40042   3.094  -0.176   5.728  1.3330 -0.3346 -0.0728
  297MOL0     H40043   3.013  -0.070   5.606 -1.1827 -0.3553 -1.9618
  297MOL0     H40044   3.137  -0.358   5.582  1.4133  1.3995  1.5460
  297MOL0     H40045   3.027  -0.300   5.454  1.2545 -1.5914 -0.5193
  297MOL0     H40046   3.154  -0.122   5.272  0.6565  1.6796 -0.6973
  297MOL0     H40047   3.361  -0.073   5.135 -2.6076 -1.0577  0.2528
  297MOL0     H40048   3.451   0.040   5.226 -1.0706 -0.5138 -1.3694
  297MOL0     H40049   3.603  -0.088   5.119  1.1757  1.8365  1.0617
  297MOL0     H40050   3.624  -0.113   5.292  0.4481  1.6092 -0.9261
  297MOL0     H40051   3.488  -0.310   5.094  2.7231 -0.7931 -0.5260
  297MOL0     H40052   3.489  -0.341   5.258 -0.2158 -2.2492 -1.2557
  297MOL0     H40053   3.683  -0.456   5.222  0.6668 -0.1148  0.2105
  297MOL0     H40054   3.743  -0.295   5.260  2.9656 -3.1700 -0.0132
  297MOL0     H40055   3.906  -0.300   4.842  2.0674 -2.3773 -2.9377
  297MOL0     H40056   4.152  -0.314   4.831  2.1393 -1.0154  1.2214
  297MOL0     H40057   4.443  -0.098   4.778  1.7380  2.0429 -4.7008
  297MOL0     H40058   4.651  -0.066   4.653 -2.3559  2.3334  0.5663
  297MOL0     H40059   4.835  -0.079   4.540  1.2589  2.3571 -1.7640
  297MOL0     H40060   4.880   0.023   4.675 -0.8715 -0.1643 -0.0209
  297MOL0     H40061   5.119  -0.071   4.636 -0.1787 -2.5990  0.1847
  297MOL0     H40062   5.064  -0.141   4.488 -1.9045  0.1343 -0.1287
  297MOL0     H40063   5.149   0.051   4.390 -1.0253  0.5265 -1.2395
  297MOL0     H40064   4.981   0.100   4.416  0.7233  1.8547  0.5703
  297MOL0     H40065   5.194   0.142   4.630  0.5112 -0.0069 -2.2527
  297MOL0     H40066   5.027   0.211   4.615 -0.1805 -1.6606  2.1518
  297MOL0     H40067   5.110   0.339   4.427  0.6929 -0.0777 -0.7585
  297MOL0     H40068   5.265   0.260   4.417  1.1741  1.8937  1.1035
  297MOL0     H40069   5.166   0.435   4.651 -3.4408 -2.9596 -1.3734
  297MOL0     H40070   5.306   0.335   4.671 -0.7587  3.1042  1.5601
  297MOL0     H40071   5.312   0.503   4.425 -2.8823 -1.9756  1.4956
  297MOL0     H40072   5.438   0.452   4.521 -0.4332 -0.3730  1.1665
  297MOL0     H40073   5.230   0.670   4.604 -1.5562 -3.9379 -1.2356
  297MOL0     H40074   5.367   0.607   4.698  0.3833  0.6470 -0.4730
  297MOL0     H40075   4.834  -0.389   4.853  0.6058 -0.0031 -1.4456
  297MOL0     H40076   4.612  -0.452   4.966  0.3222  0.2763  1.5956
  297MOL0     H40077   4.190  -0.403   5.236  0.7992  3.1955 -0.9266
  297MOL0     H40078   3.930  -0.431   5.255  1.3005  2.1805  1.8566
  297MOL0     H40079   2.663   0.328   6.270 -0.5874  0.5556  0.7345
  297MOL0     H40080   2.558   0.358   6.478 -1.0074  0.4522  0.9556
  297MOL0     H40081   2.619   0.245   6.915 -0.0182  1.6715 -2.0462
  297MOL0     H40082   2.548   0.308   7.139  2.2326  2.5003 -2.0544
  297MOL0     H40083   2.076   0.384   7.231 -1.3343  2.7890  0.0654
  297MOL0     H40084   2.185   0.516   7.167  0.6695  2.7671  2.8168
  297MOL0     H40085   2.268   0.559   7.392 -0.2072  0.1858  0.8601
  297MOL0     H40086   2.185   0.418   7.444  1.2419  0.9566  0.3826
  297MOL0     H40087   1.970   0.534   7.379 -1.8389  1.3942  3.5364
  297MOL0     H40088   2.060   0.667   7.312  0.8354 -0.1898  0.9875
  297MOL0     H40089   2.062   0.607   7.610  0.4628  2.4160  2.2439
  297MOL0     H40090   2.132   0.741   7.516  2.0747 -1.5941 -2.4324
  297MOL0     H40091   1.709   0.806   7.559  0.6955  1.9901  1.4592
  297MOL0     H40092   2.131   0.318   6.985 -0.8354 -1.0866 -0.7999
  297MOL0     H40093   2.254   0.325   6.650  0.0890 -1.1315 -0.1870
  297MOL0     H40094   2.123   0.231   6.717 -3.2195  1.8913  0.5576
  297MOL0     H40095   2.128   0.389   6.780 -2.1845 -2.2086  0.0962
  298MOL0     O40096   3.872   0.117   0.371  0.5777  0.4600 -0.8408
  298MOL0     C40097   3.825   0.013   0.330  0.3402  0.5930 -0.0763
  298MOL0     O40098   3.687  -0.016   0.321 -0.3245  0.7474  0.5241
  298MOL0     C40099   3.607   0.086   0.353 -0.5783  0.0125 -0.8914
  298MOL0     C40100   3.610   0.220   0.296 -0.4105  0.5557 -0.1792
  298MOL0     C40101   3.511   0.307   0.316  0.1933  0.3599  0.1606
  298MOL0     C40102   3.407   0.279   0.413  0.7004 -0.1441  0.1640
  298MOL0     O40103   3.330   0.392   0.461 -0.0863 -0.2343  0.6536
  298MOL0     C40104   3.196   0.365   0.506  0.2993 -0.1934 -0.2592
  298MOL0     C40105   3.193   0.325   0.655  0.7461 -1.2845  0.4221
  298MOL0     C40106   3.303   0.385   0.739  0.9276 -0.6033  0.9292
  298MOL0     C40107   3.432   0.310   0.746  0.6170  0.4116 -0.8512
  298MOL0     C40108   3.524   0.367   0.853 -0.1940  0.1410 -0.4482
  298MOL0     C40109   3.652   0.297   0.869 -0.9474  1.4676  0.3050
  298MOL0     C40110   3.734   0.251   0.745  0.8006  0.1136  0.0191
  298MOL0     C40111   3.873   0.193   0.779  0.0028  0.6128 -0.7847
  298MOL0     N40112   3.985   0.287   0.828 -0.9877  0.3590  0.0363
  298MOL0     C40113   4.068   0.361   0.749  0.2027 -0.2985 -0.7879
  298MOL0     C40114   4.126   0.448   0.834  1.0204  0.4167  0.2179
  298MOL0     C40115   4.200   0.570   0.792 -0.0924  0.2644  0.3225
  298MOL0     C40116   4.352   0.547   0.796  0.6770 -0.2986  0.6212
  298MOL0     C40117   4.406   0.459   0.910  0.4245  0.4098 -0.0248
  298MOL0     C40118   4.559   0.486   0.923  0.5401 -0.4478  0.3096
  298MOL0     O40119   4.627   0.379   0.991  0.0879 -0.4364 -0.3664
  298MOL0     C40120   4.750   0.342   0.947  1.1226 -0.7915  0.6411
  298MOL0     C40121   4.825   0.413   0.843  0.5749  0.3363 -0.4541
  298MOL0     C40122   4.951   0.367   0.801  1.3095  0.0568  0.2073
  298MOL0     C40123   4.996   0.247   0.857  0.0852  0.6366 -0.8499
  298MOL0     C40124   5.134   0.189   0.803 -0.0255 -1.2117 -0.5906
  298MOL0     O40125   5.195   0.264   0.704 -0.4011 -0.1348  0.5253
  298MOL0     C40126   5.317   0.225   0.666  0.2433 -0.3497 -0.0475
  298MOL0     C40127   5.425   0.177   0.737  0.4645  0.1537  0.3148
  298MOL0     C40128   5.558   0.151   0.685  0.1655  0.1073 -0.5442
  298MOL0     C40129   5.568   0.170   0.544 -0.3528 -0.3542 -0.8366
  298MOL0     O40130   5.682   0.149   0.473  0.3532  0.0427 -0.0654
  298MOL0     C40131   5.793   0.086   0.535  0.5137 -0.1574  0.4589
  298MOL0     C40132   5.903   0.100   0.422  0.4518  0.2617 -0.3694
  298MOL0     C40133   6.020  -0.008   0.428  0.5179 -0.6957 -0.8475
  298MOL0     C40134   6.089  -0.012   0.568 -0.3852  0.7397  0.5632
  298MOL0     C40135   6.232  -0.068   0.580  0.0456 -0.9735  0.5657
  298MOL0     C40136   6.275  -0.034   0.733  0.3588 -0.6173  1.1797
  298MOL0     C40137   6.390  -0.130   0.779 -0.9789 -1.6547  0.5438
  298MOL0     C40138   6.471  -0.090   0.905 -0.1061  1.6410 -0.2761
  298MOL0    Cl40139   6.599  -0.213   0.944  0.1374 -0.3950 -0.0260
  298MOL0     C40140   5.463   0.210   0.463 -0.6030 -0.1590 -0.4425
  298MOL0     C40141   5.334   0.228   0.522  0.6458 -0.3841  0.0601
  298MOL0     O40142   5.172   0.083   0.850  0.2708 -0.6433  0.2524
  298MOL0     C40143   4.926   0.181   0.966  0.9607 -0.3837 -0.0744
  298MOL0     C40144   4.805   0.227   1.012 -0.2252 -1.1917  0.3701
  298MOL0     N40145   4.092   0.407   0.966  0.3211 -0.7173 -0.2886
  298MOL0     N40146   4.021   0.305   0.952  0.6121  0.2781  0.4182
  298MOL0     C40147   3.396   0.155   0.473 -1.2832  0.4377 -0.9672
  298MOL0     C40148   3.491   0.052   0.436 -0.7431 -0.4124  0.8113
  298MOL0     C40149   3.907  -0.104   0.287  0.2304 -0.5865 -0.2580
  298MOL0     C40150   3.850  -0.230   0.258  0.1821  0.1454  0.7489
  298MOL0     C40151   3.929  -0.338   0.222  0.3548  0.3700 -0.3003
  298MOL0     C40152   4.068  -0.325   0.196  0.3357 -0.0170 -0.5656
  298MOL0     O40153   4.140  -0.433   0.167 -0.3846 -0.4236 -0.0448
  298MOL0     C40154   4.248  -0.473   0.256  0.2559  0.3115  0.2706
  298MOL0     C40155   4.228  -0.619   0.297  0.2437 -0.1469  0.1772
  298MOL0     C40156   4.353  -0.691   0.341 -0.7425 -0.7449 -0.5487
  298MOL0     C40157   4.322  -0.822   0.421 -0.7645 -0.3238  0.1258
  298MOL0     C40158   4.294  -0.786   0.564  0.0805  0.3249 -0.8138
  298MOL0     C40159   4.266  -0.772   0.681  0.3216  0.4409 -0.3279
  298MOL0     C40160   4.120  -0.207   0.232 -1.0232 -0.7276 -0.6744
  298MOL0     C40161   4.050  -0.095   0.282  0.0214 -0.4470  0.1833
  298MOL0     C40162   4.135   0.022   0.313  0.5381 -0.5416  0.8706
  298MOL0     H40163   3.693   0.248   0.232 -1.7466  3.1427 -0.8810
  298MOL0     H40164   3.532   0.402   0.267 -0.5966  0.6513  0.3748
  298MOL0     H40165   3.133   0.454   0.495 -1.0352 -1.1907 -0.8923
  298MOL0     H40166   3.143   0.287   0.452 -1.0763 -2.2307  3.6809
  298MOL0     H40167   3.184   0.218   0.674  0.0970 -1.5930 -1.4677
  298MOL0     H40168   3.100   0.366   0.697  1.5448 -0.4499  1.4378
  298MOL0     H40169   3.276   0.391   0.844  4.0434 -0.8309  1.8422
  298MOL0     H40170   3.327   0.487   0.709  2.3614 -1.5084 -1.3441
  298MOL0     H40171   3.414   0.207   0.780  0.9593 -0.2950 -2.6954
  298MOL0     H40172   3.489   0.313   0.652 -0.1510  3.8768 -1.3462
  298MOL0     H40173   3.548   0.471   0.831 -2.2300  0.3276 -2.2060
  298MOL0     H40174   3.468   0.356   0.947 -1.7382 -0.3856 -1.3835
  298MOL0     H40175   3.724   0.366   0.914  0.5998 -0.5147  1.0396
  298MOL0     H40176   3.631   0.210   0.932  0.9704  0.4682 -0.3906
  298MOL0     H40177   3.740   0.334   0.674 -1.1927  2.1862  2.1167
  298MOL0     H40178   3.676   0.179   0.687  2.9672 -1.2692 -0.5351
  298MOL0     H40179   3.866   0.119   0.859  0.2582  2.3133  0.8809
  298MOL0     H40180   3.921   0.138   0.698 -1.7208  1.6080 -2.5702
  298MOL0     H40181   4.070   0.364   0.640  2.9817  3.8338 -0.8323
  298MOL0     H40182   4.161   0.589   0.692  2.6424 -0.7330 -1.0367
  298MOL0     H40183   4.179   0.647   0.867  4.1166  0.5002  1.5447
  298MOL0     H40184   4.375   0.497   0.702 -3.3011  1.0697 -1.2727
  298MOL0     H40185   4.408   0.641   0.794 -0.6732  0.5451  1.0865
  298MOL0     H40186   4.393   0.351   0.895 -1.3707  0.6771 -0.5623
  298MOL0     H40187   4.367   0.500   1.004  0.6558 -0.6702  0.5559
  298MOL0     H40188   4.569   0.578   0.980  0.5298 -0.8028  0.8958
  298MOL0     H40189   4.600   0.504   0.823  1.4674 -2.0333  0.3538
  298MOL0     H40190   4.804   0.508   0.796  2.7416  0.5998 -0.9961
  298MOL0     H40191   5.003   0.422   0.723  3.7264 -0.8235  1.1187
  298MOL0     H40192   5.402   0.157   0.841  1.8594 -1.2228  0.4081
  298MOL0     H40193   5.636   0.115   0.751 -3.6855 -1.8496  3.5018
  298MOL0     H40194   5.822   0.130   0.631 -0.2564 -2.2562  1.7304
  298MOL0     H40195   5.759  -0.017   0.551  0.6192  0.1563  3.2097
  298MOL0     H40196   5.859   0.075   0.325 -0.3620 -2.1159  0.5356
  298MOL0     H40197   5.942   0.202   0.414  1.5083  0.0222  1.2773
  298MOL0     H40198   5.992  -0.109   0.398 -1.0088 -1.2125  1.9489
  298MOL0     H40199   6.095   0.021   0.354  1.5153 -1.9103 -0.3540
  298MOL0     H40200   6.017  -0.054   0.639 -0.5637  0.6790  0.3476
  298MOL0     H40201   6.103   0.090   0.606  0.7326  0.7682  0.1101
  298MOL0     H40202   6.293  -0.016   0.506 -2.9123 -2.3056 -3.0747
  298MOL0     H40203   6.233  -0.170   0.541 -2.5004  0.0004 -2.4526
  298MOL0     H40204   6.306   0.071   0.736 -2.7058  0.4779 -0.8586
  298MOL0     H40205   6.184  -0.050   0.791  0.4714 -1.6064  1.0917
  298MOL0     H40206   6.452  -0.115   0.690 -0.3046 -2.1808  0.9115
  298MOL0     H40207   6.363  -0.235   0.774 -2.5416 -1.2195 -2.9279
  298MOL0     H40208   6.511   0.011   0.914  1.3751  0.8971  3.4673
  298MOL0     H40209   6.398  -0.098   0.987 -0.1152 -1.6978 -0.4619
  298MOL0     H40210   5.480   0.239   0.360  1.7791 -2.2396 -0.7460
  298MOL0     H40211   5.250   0.251   0.457  1.7849 -0.9795 -1.6944
  298MOL0     H40212   4.970   0.090   1.004 -0.6750 -1.6909 -1.1685
  298MOL0     H40213   4.750   0.185   1.095 -1.5666  2.2971  1.4067
  298MOL0     H40214   3.308   0.133   0.533 -1.8527 -3.5894 -2.9694
  298MOL0     H40215   3.472  -0.047   0.475 -2.8276 -1.8369 -3.2132
  298MOL0     H40216   3.743  -0.244   0.264 -0.7957  4.6396 -1.8632
  298MOL0     H40217   3.874  -0.425   0.188  2.2948 -2.3486  2.8074
  298MOL0     H40218   4.239  -0.410   0.346  0.2323 -1.1858  1.3523
  298MOL0     H40219   4.351  -0.465   0.222  0.6463 -3.9900 -0.0928
  298MOL0     H40220   4.187  -0.680   0.216 -0.9771  0.9607 -0.0768
  298MOL0     H40221   4.157  -0.617   0.381 -1.9052 -2.8765 -1.4156
  298MOL0     H40222   4.421  -0.626   0.397  1.4370 -1.2928 -2.4364
  298MOL0     H40223   4.405  -0.717   0.248  0.1664 -1.8503  0.2372
  298MOL0     H40224   4.240  -0.880   0.377 -0.7213  1.9460 -3.3816
  298MOL0     H40225   4.415  -0.881   0.423 -0.2703  0.4379  2.1463
  298MOL0     H40226   4.252  -0.790   0.786  0.3078  0.6025 -0.3016
  298MOL0     H40227   4.227  -0.201   0.244 -1.2529  3.8655  1.2771
  298MOL0     H40228   4.243   0.007   0.320  0.4338 -0.9743  1.6987
  298MOL0     H40229   4.106   0.110   0.254  1.2745 -2.7685 -3.1559
  298MOL0     H40230   4.106   0.029   0.418 -0.7964  0.3473  0.4679
  299MOL0     O40231   1.270   2.856   9.469 -0.0750 -0.2122 -1.2935
  299MOL0     C40232   1.195   2.770   9.423  1.3174 -0.0126 -0.2938
  299MOL0     O40233   1.137   2.782   9.302  0.2111 -0.2760 -0.1625
  299MOL0     C40234   1.167   2.886   9.222  0.0053  0.2790 -0.1523
  299MOL0     C40235   1.106   3.014   9.232  0.3596  0.1524  0.4913
  299MOL0     C40236   1.131   3.111   9.129  0.1421  0.1729 -0.3168
  299MOL0     C40237   1.225   3.102   9.034  0.4462  0.7061  1.0376
  299MOL0     O40238   1.264   3.190   8.927  0.5403  0.2069  0.3997
  299MOL0     C40239   1.275   3.322   8.965  0.1974  0.7333 -0.5016
  299MOL0     C40240   1.163   3.401   8.909  0.6958  0.1180  0.1786
  299MOL0     C40241   1.185   3.559   8.948 -1.1449  0.1626  1.0648
  299MOL0     C40242   1.064   3.648   8.906  0.2466  0.3107  0.4844
  299MOL0     C40243   1.092   3.786   8.937  0.3520 -0.1290  0.8933
  299MOL0     C40244   1.226   3.837   8.870  1.4906  0.2158  0.1090
  299MOL0     C40245   1.217   3.994   8.845  0.0067  0.5114  0.3325
  299MOL0     C40246   1.207   4.081   8.971  0.7490 -1.0354  0.4129
  299MOL0     N40247   1.222   4.226   8.935 -0.5889 -0.5959 -0.5237
  299MOL0     C40248   1.338   4.302   8.925 -0.6250  0.6010  0.7630
  299MOL0     C40249   1.297   4.430   8.903 -0.0429 -0.3535  0.2304
  299MOL0     C40250   1.382   4.537   8.851 -0.0535  0.3958  1.4169
  299MOL0     C40251   1.494   4.566   8.953 -0.0053 -0.5474 -0.9075
  299MOL0     C40252   1.513   4.718   8.992 -0.2962  0.1286  1.1831
  299MOL0     C40253   1.389   4.796   9.017 -0.4005  0.4531  0.1926
  299MOL0     O40254   1.423   4.889   9.123 -0.1230 -0.1287  0.2647
  299MOL0     C40255   1.485   5.010   9.111  0.0798  0.0551  0.2595
  299MOL0     C40256   1.514   5.073   9.233  0.6867  0.0197 -1.0263
  299MOL0     C40257   1.597   5.189   9.232  0.3408 -0.0376 -0.1299
  299MOL0     C40258   1.654   5.243   9.121  1.0918 -0.4342  0.8645
  299MOL0     C40259   1.756   5.359   9.125 -0.0996 -0.6533 -0.8013
  299MOL0     O40260   1.782   5.397   9.254  0.3938 -0.5857  0.3521
  299MOL0     C40261   1.888   5.480   9.288  0.0297 -1.0802  0.0080
  299MOL0     C40262   2.003   5.515   9.216  0.9213 -0.1861  0.3224
  299MOL0     C40263   2.115   5.575   9.267 -0.5712 -0.5648 -0.6500
  299MOL0     C40264   2.106   5.617   9.396  1.1582 -0.1323  0.5558
  299MOL0     O40265   2.216   5.685   9.445 -0.2906 -0.4311  0.1400
  299MOL0     C40266   2.210   5.719   9.576  0.1819  0.4616 -0.2155
  299MOL0     C40267   2.330   5.817   9.625  0.5929  0.1398  0.9393
  299MOL0     C40268   2.450   5.748   9.691  0.5826 -0.4605 -0.2389
  299MOL0     C40269   2.454   5.742   9.848  0.1423 -0.9495 -0.9592
  299MOL0     C40270   2.596   5.686   9.895 -0.9031  0.3590  0.6053
  299MOL0     C40271   2.613   5.521   9.896  0.4718  0.5882 -0.7994
  299MOL0     C40272   2.502   5.446   9.974 -0.2789 -0.1288 -0.3318
  299MOL0     C40273   2.453   5.495  10.107  0.6239  0.8332  0.6541
  299MOL0    Cl40274   2.594   5.483  10.228  0.0396 -0.5602  0.3805
  299MOL0     C40275   1.989   5.600   9.472 -0.0690  0.1624  0.7945
  299MOL0     C40276   1.890   5.518   9.424  0.4959 -1.1198  0.2523
  299MOL0     O40277   1.797   5.421   9.025  0.3397  0.6825 -0.2033
  299MOL0     C40278   1.627   5.176   8.995 -0.6623 -0.3525 -0.1439
  299MOL0     C40279   1.548   5.060   8.993 -0.4693  0.0955 -0.7656
  299MOL0     N40280   1.151   4.434   8.926  0.7724 -0.5053 -0.2112
  299MOL0     N40281   1.116   4.312   8.945  0.7346  0.0337 -1.1664
  299MOL0     C40282   1.289   2.975   9.030 -0.1621 -0.4866  1.5703
  299MOL0     C40283   1.261   2.875   9.120 -0.3345 -0.0065 -0.1113
  299MOL0     C40284   1.160   2.657   9.508 -0.3985  0.6524 -0.1646
  299MOL0     C40285   1.275   2.584   9.556  1.0213  0.0790  0.3800
  299MOL0     C40286   1.258   2.476   9.649  0.4151  0.3832  0.3415
  299MOL0     C40287   1.125   2.445   9.693 -0.7057  0.1760 -0.3867
  299MOL0     O40288   1.101   2.341   9.789 -0.4178 -0.1233 -0.0721
  299MOL0     C40289   1.212   2.295   9.873 -0.0546  0.3030  0.6224
  299MOL0     C40290   1.139   2.242  10.002 -0.3382 -0.6046 -0.0160
  299MOL0     C40291   1.110   2.091  10.002 -0.2048  0.3167 -0.8791
  299MOL0     C40292   1.053   2.056  10.132 -0.7945  1.1973 -0.7960
  299MOL0     C40293   1.002   1.919  10.138 -0.2882  0.5565  0.4446
  299MOL0     C40294   0.964   1.798  10.141 -0.4896 -0.0141  0.7389
  299MOL0     C40295   1.018   2.515   9.647 -0.4513  0.1176  0.1159
  299MOL0     C40296   1.035   2.624   9.551  0.0198  0.2846  0.6574
  299MOL0     C40297   0.909   2.702   9.512 -0.0032 -0.3075  0.7831
  299MOL0     H40298   1.038   3.015   9.317  1.7271  2.9787  1.6494
  299MOL0     H40299   1.070   3.200   9.121 -2.7033 -1.7899 -2.3323
  299MOL0     H40300   1.286   3.333   9.073 -2.4153  1.2215 -0.2140
  299MOL0     H40301   1.366   3.354   8.913 -1.5298 -0.6264 -4.8230
  299MOL0     H40302   1.068   3.369   8.953  0.3036  0.7042 -0.2249
  299MOL0     H40303   1.171   3.398   8.800 -2.6753  4.3475 -0.5117
  299MOL0     H40304   1.273   3.595   8.895 -2.0334  0.0655 -0.5373
  299MOL0     H40305   1.205   3.561   9.055 -0.4001  0.4030  0.9252
  299MOL0     H40306   1.027   3.643   8.803 -0.9043 -0.6532  0.9172
  299MOL0     H40307   0.975   3.612   8.958 -1.7977  1.2842 -2.1305
  299MOL0     H40308   1.007   3.845   8.899  0.7181 -2.5514 -4.5292
  299MOL0     H40309   1.094   3.807   9.045  0.4258  1.0121  0.6907
  299MOL0     H40310   1.311   3.812   8.934  3.0678  1.3059 -1.4580
  299MOL0     H40311   1.254   3.790   8.775 -3.7101  0.2002 -1.6866
  299MOL0     H40312   1.137   4.023   8.776 -0.4491 -0.5059  0.4172
  299MOL0     H40313   1.309   4.014   8.790  0.9897 -3.7211  0.0729
  299MOL0     H40314   1.101   4.076   9.000  0.9154  1.5281  1.7404
  299MOL0     H40315   1.265   4.062   9.061  3.6647 -1.8081 -1.5070
  299MOL0     H40316   1.442   4.272   8.922 -0.2032  1.9830 -2.1241
  299MOL0     H40317   1.418   4.512   8.751  1.4991  1.3709  1.7014
  299MOL0     H40318   1.311   4.620   8.850  0.2043  0.6155  0.5846
  299MOL0     H40319   1.480   4.502   9.041  1.1007 -0.5029 -0.6850
  299MOL0     H40320   1.590   4.542   8.908  1.0231 -0.4829  1.1431
  299MOL0     H40321   1.574   4.761   8.912 -0.2114 -1.2487  0.4685
  299MOL0     H40322   1.572   4.728   9.083  0.6943  0.3820  0.5322
  299MOL0     H40323   1.309   4.736   9.062  0.2877 -0.2584  0.5060
  299MOL0     H40324   1.345   4.840   8.928  0.3226 -0.0914 -0.4487
  299MOL0     H40325   1.472   5.029   9.323  1.2904  0.9765 -0.2478
  299MOL0     H40326   1.610   5.235   9.329 -0.4327  1.5671 -0.7525
  299MOL0     H40327   2.004   5.504   9.108 -1.2422  2.5819 -0.1028
  299MOL0     H40328   2.217   5.597   9.236 -0.8988 -1.0982 -2.1930
  299MOL0     H40329   2.127   5.791   9.578  1.5407  2.1335 -0.9027
  299MOL0     H40330   2.192   5.642   9.652 -2.0991  2.1077  1.0413
  299MOL0     H40331   2.368   5.883   9.547 -1.4106  1.9619  1.4156
  299MOL0     H40332   2.285   5.879   9.703  2.6276  2.3052  0.4992
  299MOL0     H40333   2.465   5.650   9.645  1.2158  0.7358 -2.7693
  299MOL0     H40334   2.535   5.813   9.669  0.6581 -0.4178  0.1808
  299MOL0     H40335   2.365   5.687   9.881  0.9929 -0.4926  2.5128
  299MOL0     H40336   2.450   5.842   9.893 -1.2876 -0.2181 -2.5842
  299MOL0     H40337   2.611   5.718   9.998  0.7456 -2.1389  1.2262
  299MOL0     H40338   2.676   5.733   9.836 -0.4753 -2.5238 -1.2859
  299MOL0     H40339   2.614   5.481   9.795 -0.3921 -1.3708 -0.0794
  299MOL0     H40340   2.712   5.488   9.931  0.1566 -0.5745 -0.9829
  299MOL0     H40341   2.516   5.338   9.987 -4.7914 -1.0674 -1.4511
  299MOL0     H40342   2.414   5.444   9.909  0.8174  0.3033 -1.8770
  299MOL0     H40343   2.425   5.600  10.101 -4.1176 -0.2652 -0.7317
  299MOL0     H40344   2.369   5.430  10.132  0.2771  1.8492  2.2904
  299MOL0     H40345   1.984   5.628   9.576 -0.1402 -0.8401  1.0759
  299MOL0     H40346   1.801   5.490   9.479 -0.2947  3.7138  1.9328
  299MOL0     H40347   1.674   5.211   8.903 -2.4095  1.8221 -0.2829
  299MOL0     H40348   1.550   5.006   8.899 -2.0914  0.2493 -0.9192
  299MOL0     H40349   1.367   2.953   8.958  0.1858  4.6105 -0.0145
  299MOL0     H40350   1.317   2.783   9.121 -0.1750  0.0927  0.1066
  299MOL0     H40351   1.376   2.610   9.524  0.1391  2.3929 -0.7819
  299MOL0     H40352   1.341   2.422   9.692  2.3982  1.3164 -2.0906
  299MOL0     H40353   1.272   2.377   9.912  1.5233 -1.3880  1.9130
  299MOL0     H40354   1.287   2.233   9.823  0.9887  2.7544 -1.0384
  299MOL0     H40355   1.055   2.312  10.011  1.3727  2.2225 -3.5469
  299MOL0     H40356   1.203   2.265  10.087 -1.6505  0.3424  0.7705
  299MOL0     H40357   1.205   2.038   9.993 -0.2944  0.0453 -0.3104
  299MOL0     H40358   1.061   2.070   9.906 -0.4794  0.0979 -0.6964
  299MOL0     H40359   1.131   2.086  10.202  0.7347 -0.5413 -1.6579
  299MOL0     H40360   0.971   2.128  10.147  0.3183  2.3914 -0.2377
  299MOL0     H40361   0.921   1.701  10.155 -0.1606 -0.0528  1.5594
  299MOL0     H40362   0.916   2.501   9.681 -1.0029  0.4368 -1.3320
  299MOL0     H40363   0.817   2.663   9.556 -0.6526 -0.5620 -0.7551
  299MOL0     H40364   0.913   2.807   9.544 -3.6816 -0.8419  3.8131
  299MOL0     H40365   0.894   2.713   9.404  1.6136  2.1667  0.7193
  300MOL0     O40366   8.869   7.716  11.126 -0.4388  0.6354 -0.5918
  300MOL0     C40367   8.843   7.652  11.023 -0.0770 -0.3585  0.5134
  300MOL0     O40368   8.849   7.520  11.014  0.6086  0.1194  0.6335
  300MOL0     C40369   8.913   7.461  11.118 -0.4834  0.6304  0.0355
  300MOL0     C40370   9.054   7.462  11.146 -0.3047  0.6837 -0.2710
  300MOL0     C40371   9.105   7.372  11.248 -0.3911  0.7490 -0.2146
  300MOL0     C40372   9.027   7.290  11.326 -0.1611  0.3305  0.1091
  300MOL0     O40373   9.085   7.207  11.421  0.5059 -0.5226  0.3107
  300MOL0     C40374   9.164   7.104  11.367  0.7507 -0.5382 -0.0918
  300MOL0     C40375   9.199   6.997  11.473  0.5291 -1.5454 -0.5136
  300MOL0     C40376   9.336   6.928  11.440  0.2730 -0.6041  0.6775
  300MOL0     C40377   9.452   7.034  11.464 -0.0774 -0.1636  0.1337
  300MOL0     C40378   9.580   7.003  11.382 -0.1252 -0.7646 -0.2641
  300MOL0     C40379   9.707   7.073  11.443  0.7209 -0.0084 -0.4016
  300MOL0     C40380   9.731   7.031  11.590 -0.4466  0.0560 -0.1230
  300MOL0     C40381   9.876   7.031  11.637  0.4671 -0.2851 -0.9605
  300MOL0     N40382   9.941   7.170  11.614  0.4635  0.5403 -0.7454
  300MOL0     C40383   9.935   7.269  11.700  0.1738 -1.3818 -1.0008
  300MOL0     C40384  10.040   7.355  11.663 -0.1136  0.3994  0.3067
  300MOL0     C40385  10.084   7.487  11.722 -0.3186  0.9990  0.1292
  300MOL0     C40386  10.168   7.459  11.854 -0.4500  0.2277  0.2941
  300MOL0     C40387  10.315   7.438  11.824  0.1534  0.3118 -0.5677
  300MOL0     C40388  10.398   7.388  11.947 -0.0661  0.1075 -0.9176
  300MOL0     O40389  10.509   7.318  11.887 -0.4790 -0.0676 -0.0479
  300MOL0     C40390  10.603   7.268  11.976  0.9567 -0.6495  0.3670
  300MOL0     C40391  10.722   7.223  11.916  0.6384  0.3010 -0.7191
  300MOL0     C40392  10.823   7.171  11.992 -0.0553  0.0056 -0.0125
  300MOL0     C40393  10.793   7.145  12.131  0.3456 -0.3324 -0.1437
  300MOL0     C40394  10.904   7.075  12.211 -0.6316  0.4666 -0.3485
  300MOL0     O40395  10.943   7.117  12.334  0.2021  0.6274 -0.3832
  300MOL0     C40396  11.026   7.034  12.414  0.8850 -0.0475 -0.1861
  300MOL0     C40397  11.116   7.100  12.496  0.3419 -0.3213  0.1063
  300MOL0     C40398  11.218   7.027  12.563  0.0490  0.2622  0.2161
  300MOL0     C40399  11.223   6.887  12.559  0.5602  0.0276 -0.1453
  300MOL0     O40400  11.313   6.813  12.628  0.1144 -0.2643 -0.0966
  300MOL0     C40401  11.431   6.873  12.688  0.2190 -0.1793  0.7655
  300MOL0     C40402  11.543   6.905  12.581  0.7898 -0.4864  0.9014
  300MOL0     C40403  11.623   6.776  12.523 -0.0235  0.6660  0.5022
  300MOL0     C40404  11.639   6.651  12.617  0.3947  0.5140  1.1093
  300MOL0     C40405  11.743   6.656  12.721 -0.1368  0.3985 -0.1949
  300MOL0     C40406  11.771   6.523  12.797  0.2695  0.1750  0.4059
  300MOL0     C40407  11.659   6.467  12.883  0.2077  0.1172  0.4559
  300MOL0     C40408  11.651   6.315  12.879  1.0511  0.7719 -0.0089
  300MOL0    Cl40409  11.522   6.266  12.993 -0.3019 -0.0151 -0.3116
  300MOL0     C40410  11.131   6.817  12.475  1.3329 -0.0773 -1.2980
  300MOL0     C40411  11.024   6.891  12.412  0.9695  1.0859 -0.6813
  300MOL0     O40412  10.960   6.984  12.149  0.0091  0.2666  0.2670
  300MOL0     C40413  10.681   7.194  12.188 -0.1247  0.5137  0.0945
  300MOL0     C40414  10.584   7.249  12.112 -0.5468  0.8886 -0.0276
  300MOL0     N40415  10.120   7.289  11.560  0.9770 -0.0598 -0.2959
  300MOL0     N40416  10.047   7.186  11.528 -0.1567 -0.3040 -1.3368
  300MOL0     C40417   8.888   7.288  11.295  0.2098 -0.4905 -0.1100
  300MOL0     C40418   8.835   7.367  11.183  0.2570  0.2009 -0.0423
  300MOL0     C40419   8.794   7.733  10.906  0.0680  0.6251  0.3280
  300MOL0     C40420   8.867   7.843  10.863  0.1474  0.0748  0.0996
  300MOL0     C40421   8.827   7.918  10.755  0.1713  0.9913 -0.5307
  300MOL0     C40422   8.713   7.878  10.679 -0.2228 -0.2070  0.5772
  300MOL0     O40423   8.687   7.955  10.569  0.5499  0.0263  0.6937
  300MOL0     C40424   8.548   7.971  10.544 -0.1250 -0.2391  0.3382
  300MOL0     C40425   8.507   8.091  10.459 -0.1904  0.0417 -0.6261
  300MOL0     C40426   8.528   8.063  10.311 -0.1003 -0.7656  0.1778
  300MOL0     C40427   8.672   8.009  10.269  0.1713  0.3299 -0.0059
  300MOL0     C40428   8.776   8.107  10.308 -0.6354  0.9841  0.4767
  300MOL0     C40429   8.855   8.192  10.320 -0.2674 -0.4533  0.5946
  300MOL0     C40430   8.635   7.770  10.727 -0.7701 -0.7077  0.9516
  300MOL0     C40431   8.674   7.703  10.843  0.2788 -1.1416  0.6525
  300MOL0     C40432   8.602   7.570  10.872 -0.9803 -0.8387 -0.5038
  300MOL0     H40433   9.110   7.527  11.080 -0.9963  2.0846  0.4606
  300MOL0     H40434   9.213   7.373  11.260 -0.3300  0.7305 -0.7612
  300MOL0     H40435   9.113   7.046  11.290 -4.2638  1.6413  1.1677
  300MOL0     H40436   9.254   7.158  11.334  1.0930 -0.4100  1.0057
  300MOL0     H40437   9.121   6.920  11.478  0.6294 -1.6513  4.5732
  300MOL0     H40438   9.202   7.046  11.570 -0.7435  0.6794 -1.5212
  300MOL0     H40439   9.335   6.909  11.333 -1.4786  1.8795  0.1620
  300MOL0     H40440   9.353   6.839  11.500 -1.3023  0.1447  2.3598
  300MOL0     H40441   9.414   7.131  11.432 -1.0989 -0.0486  1.5784
  300MOL0     H40442   9.466   7.055  11.571 -0.3633  1.6988 -0.1670
  300MOL0     H40443   9.593   6.895  11.376 -2.1395 -1.0448 -0.3447
  300MOL0     H40444   9.570   7.046  11.282  1.2358  1.1486  0.3479
  300MOL0     H40445   9.791   7.047  11.378  1.1404 -2.9018  1.1144
  300MOL0     H40446   9.692   7.181  11.444 -0.7742 -0.1878  0.0795
  300MOL0     H40447   9.685   6.934  11.612  1.6507 -0.8652  0.4961
  300MOL0     H40448   9.675   7.096  11.658  2.8479  0.3881  2.5012
  300MOL0     H40449   9.886   7.016  11.745  2.2979 -0.6084 -1.1311
  300MOL0     H40450   9.940   6.954  11.592  1.1612 -1.7199  2.1488
  300MOL0     H40451   9.872   7.292  11.785  0.6751 -0.4500 -0.8819
  300MOL0     H40452  10.139   7.547  11.648  2.6067 -0.3284  1.0575
  300MOL0     H40453   9.996   7.545  11.751 -2.2106 -2.7426  2.6688
  300MOL0     H40454  10.159   7.543  11.924 -2.2214  0.1147  0.2589
  300MOL0     H40455  10.130   7.373  11.910  2.0836 -0.1300  1.6125
  300MOL0     H40456  10.358   7.534  11.794 -1.3991  0.5346 -2.2886
  300MOL0     H40457  10.319   7.362  11.746 -1.1239  0.0368 -0.3947
  300MOL0     H40458  10.341   7.312  12.001 -0.6016  0.3501 -1.1391
  300MOL0     H40459  10.417   7.461  12.027 -1.8518 -1.1561  0.7676
  300MOL0     H40460  10.725   7.230  11.807  1.5035  1.4939 -0.6360
  300MOL0     H40461  10.919   7.140  11.951  0.9628  1.3258  1.2505
  300MOL0     H40462  11.107   7.208  12.487  0.3429 -0.4805 -2.8225
  300MOL0     H40463  11.298   7.072  12.621  1.7629 -2.8200  0.4601
  300MOL0     H40464  11.416   6.966  12.743 -0.0825  2.6835 -3.6461
  300MOL0     H40465  11.467   6.798  12.760 -1.5607 -0.9210  0.9345
  300MOL0     H40466  11.496   6.957  12.497 -0.5020 -1.8199  0.7595
  300MOL0     H40467  11.614   6.974  12.628 -0.1422 -0.1806  1.8923
  300MOL0     H40468  11.568   6.750  12.432  1.3889 -2.6687  0.4526
  300MOL0     H40469  11.724   6.812  12.507  0.3927 -1.4599 -2.3632
  300MOL0     H40470  11.650   6.565  12.550 -2.9417 -0.9464  2.1720
  300MOL0     H40471  11.542   6.633  12.666 -0.2667 -1.0856 -0.6334
  300MOL0     H40472  11.742   6.740  12.792  1.0835 -0.1790  0.5455
  300MOL0     H40473  11.830   6.668  12.657  0.7600 -1.2956  0.6566
  300MOL0     H40474  11.818   6.452  12.728  2.9841  1.7835  0.4403
  300MOL0     H40475  11.853   6.548  12.866 -2.7297  3.2734  3.2117
  300MOL0     H40476  11.565   6.512  12.849  0.1455  1.4334  2.2384
  300MOL0     H40477  11.670   6.494  12.988 -1.2186 -1.7621  1.1522
  300MOL0     H40478  11.608   6.281  12.784  0.5847 -1.0519  0.8203
  300MOL0     H40479  11.738   6.252  12.896  0.6758 -0.8987 -3.3719
  300MOL0     H40480  11.146   6.710  12.464 -0.0279 -0.6234  1.2424
  300MOL0     H40481  10.961   6.830  12.347  3.3911 -1.0675 -1.1577
  300MOL0     H40482  10.650   7.174  12.290 -1.1742  0.1325 -0.2866
  300MOL0     H40483  10.491   7.268  12.165  0.2632  1.4393  1.2455
  300MOL0     H40484   8.830   7.210  11.342 -2.0813 -1.1664 -3.6852
  300MOL0     H40485   8.726   7.362  11.179  0.2631  0.5299 -0.6753
  300MOL0     H40486   8.960   7.878  10.906  0.8466 -0.7400 -0.6944
  300MOL0     H40487   8.883   8.004  10.719  4.7436 -0.4742  2.3255
  300MOL0     H40488   8.504   7.972  10.644  2.5457 -1.7998  1.6315
  300MOL0     H40489   8.523   7.881  10.487  1.3388  1.4533 -3.2975
  300MOL0     H40490   8.564   8.181  10.487  0.4879 -1.0877  1.8347
  300MOL0     H40491   8.401   8.099  10.485 -0.0159 -1.0831  0.5002
  300MOL0     H40492   8.509   8.161  10.267  2.3228 -0.1252  0.4170
  300MOL0     H40493   8.442   8.005  10.276 -0.5509  0.6182 -1.0953
  300MOL0     H40494   8.691   7.911  10.314  1.3201 -0.6403 -2.4563
  300MOL0     H40495   8.680   7.989  10.162 -2.5772  5.6230 -1.5647
  300MOL0     H40496   8.924   8.273  10.333  0.6830 -1.2192  0.4345
  300MOL0     H40497   8.547   7.732  10.676 -0.6357  0.6356 -0.3731
  300MOL0     H40498   8.594   7.566  10.981 -1.1576  1.0465 -0.4225
  300MOL0     H40499   8.507   7.575  10.819 -0.3456 -2.2528 -1.8603
  300MOL0     H40500   8.653   7.481  10.833  0.3618 -0.2420 -0.1956
  301MOL0     O40501   8.867   9.714   6.317  0.4978  0.4400  0.3201
  301MOL0     C40502   8.774   9.632   6.325 -0.4113  0.2995  0.3724
  301MOL0     O40503   8.655   9.663   6.387 -0.1612  0.3534 -0.0061
  301MOL0     C40504   8.644   9.770   6.468 -0.3194  0.3194  0.1946
  301MOL0     C40505   8.731   9.801   6.571  1.4572 -0.2516  0.0893
  301MOL0     C40506   8.714   9.913   6.655 -0.1384 -0.4575 -0.5550
  301MOL0     C40507   8.594   9.983   6.656 -0.3267  1.1855  0.6606
  301MOL0     O40508   8.554  10.081   6.748 -0.2883 -0.4868  0.7933
  301MOL0     C40509   8.623  10.110   6.872 -0.1332 -0.0082  0.3320
  301MOL0     C40510   8.533  10.100   6.997 -0.5391 -0.8530  0.4952
  301MOL0     C40511   8.452   9.969   6.998  0.2198 -0.7308 -0.6116
  301MOL0     C40512   8.408   9.945   7.148 -0.2321 -0.8398  0.3899
  301MOL0     C40513   8.300   9.832   7.177 -0.4362  0.0656  0.9152
  301MOL0     C40514   8.248   9.840   7.319 -0.3083  0.4945 -0.7966
  301MOL0     C40515   8.111   9.772   7.363  0.0895  0.5557  0.1516
  301MOL0     C40516   8.084   9.764   7.513  0.4185 -0.0580  0.4502
  301MOL0     N40517   7.969   9.674   7.549 -0.2853 -0.5681  0.2349
  301MOL0     C40518   7.980   9.541   7.579  1.3801  0.8417 -0.4972
  301MOL0     C40519   7.857   9.505   7.625 -0.8461  0.6444  0.3794
  301MOL0     C40520   7.811   9.362   7.664 -0.3127 -0.0383 -0.2823
  301MOL0     C40521   7.727   9.291   7.563 -0.3452 -0.9985 -0.0300
  301MOL0     C40522   7.719   9.135   7.585  0.0774 -0.7760  0.9678
  301MOL0     C40523   7.660   9.078   7.721  0.6715  0.5926  0.0465
  301MOL0     O40524   7.518   9.101   7.721  0.2479  0.5923  0.0184
  301MOL0     C40525   7.458   8.981   7.692  0.8242 -0.2347  0.4798
  301MOL0     C40526   7.487   8.895   7.573  0.5257 -0.2692 -0.3543
  301MOL0     C40527   7.417   8.788   7.539 -0.5850  0.5535 -0.5843
  301MOL0     C40528   7.305   8.752   7.614 -0.5069 -0.0694 -0.3498
  301MOL0     C40529   7.225   8.637   7.567 -0.6187  0.2023 -0.7404
  301MOL0     O40530   7.100   8.605   7.628 -0.6798 -0.2820 -0.1684
  301MOL0     C40531   7.046   8.484   7.611  0.2533 -0.6518 -0.0143
  301MOL0     C40532   7.038   8.404   7.721  0.7319 -0.4403 -1.1980
  301MOL0     C40533   6.996   8.273   7.711  0.5390  0.4745  0.3199
  301MOL0     C40534   6.959   8.223   7.584  0.0698 -0.2702 -0.7534
  301MOL0     O40535   6.922   8.094   7.576  0.1107 -0.2977 -0.5753
  301MOL0     C40536   6.895   8.008   7.684  0.4656 -0.2231 -0.9312
  301MOL0     C40537   6.855   7.877   7.627  0.5629 -0.5139 -0.8251
  301MOL0     C40538   6.862   7.766   7.732  0.8762  0.3097  0.1679
  301MOL0     C40539   6.875   7.634   7.651  0.5616 -0.9653  0.5527
  301MOL0     C40540   6.858   7.511   7.744 -0.0059  0.7165  0.1263
  301MOL0     C40541   6.947   7.386   7.696 -0.4217 -0.0330  0.8567
  301MOL0     C40542   6.920   7.257   7.786 -0.0613 -0.0891  0.9220
  301MOL0     C40543   7.049   7.165   7.776  0.1614  0.1672 -1.0352
  301MOL0    Cl40544   7.131   7.164   7.622 -0.8665 -0.0036 -0.3532
  301MOL0     C40545   6.953   8.306   7.474 -0.1318 -0.1691 -0.5490
  301MOL0     C40546   7.001   8.439   7.486 -0.3882 -0.3652  0.3252
  301MOL0     O40547   7.275   8.567   7.477  0.0942 -0.3915  0.8321
  301MOL0     C40548   7.273   8.825   7.731  0.2189 -0.2143 -0.0721
  301MOL0     C40549   7.347   8.937   7.769  0.0299 -1.1810 -0.1639
  301MOL0     N40550   7.793   9.626   7.651  0.6867  0.0076  0.1414
  301MOL0     N40551   7.859   9.725   7.608  0.6654 -0.4630 -0.8437
  301MOL0     C40552   8.510   9.954   6.542  0.2996  0.4215 -0.3167
  301MOL0     C40553   8.523   9.846   6.454 -0.6821 -0.0280  0.4854
  301MOL0     C40554   8.775   9.518   6.233  0.8330  0.3622 -0.2379
  301MOL0     C40555   8.796   9.554   6.097 -0.4866 -0.8451 -0.2639
  301MOL0     C40556   8.811   9.445   6.020 -0.6291 -0.5889 -0.2526
  301MOL0     C40557   8.791   9.311   6.046  1.1424  0.0671 -0.5837
  301MOL0     O40558   8.784   9.215   5.952 -1.2566 -0.2573  0.9227
  301MOL0     C40559   8.860   9.237   5.831  0.6539 -0.7222  0.4909
  301MOL0     C40560   8.826   9.118   5.751  0.9134 -1.5418 -0.3651
  301MOL0     C40561   8.858   8.988   5.821 -0.1878  0.8774  0.6981
  301MOL0     C40562   8.982   8.910   5.765 -0.5653  0.0506 -0.2233
  301MOL0     C40563   8.995   8.767   5.782  0.0580  0.2248  0.5001
  301MOL0     C40564   9.027   8.650   5.789 -0.3486 -0.7389  0.2184
  301MOL0     C40565   8.766   9.279   6.186 -0.4831 -0.2516 -0.0042
  301MOL0     C40566   8.745   9.382   6.279 -0.4832  0.1599  0.4440
  301MOL0     C40567   8.720   9.342   6.423 -0.3558 -0.0913 -0.2164
  301MOL0     H40568   8.816   9.735   6.580  1.0691 -0.7358  0.2460
  301MOL0     H40569   8.791   9.919   6.731 -0.4887  1.3662 -0.2962
  301MOL0     H40570   8.712  10.053   6.897  2.8197  3.8277 -0.4738
  301MOL0     H40571   8.659  10.212   6.854 -0.0844 -0.1652 -0.5150
  301MOL0     H40572   8.464  10.183   7.009  0.0906  0.0172 -1.4053
  301MOL0     H40573   8.607  10.092   7.078  0.8908  0.7642 -0.5712
  301MOL0     H40574   8.518   9.891   6.960  0.2354 -1.5591  1.0330
  301MOL0     H40575   8.362   9.978   6.937 -0.8603  0.3299  1.0587
  301MOL0     H40576   8.493   9.921   7.212 -0.6474 -0.9118  0.9213
  301MOL0     H40577   8.357  10.038   7.176  0.3390 -0.0621 -1.0289
  301MOL0     H40578   8.214   9.849   7.112 -1.4480  1.1603  2.4850
  301MOL0     H40579   8.338   9.732   7.152 -1.9987 -0.1159 -1.0177
  301MOL0     H40580   8.320   9.790   7.385 -0.3955  1.1178 -0.2164
  301MOL0     H40581   8.252   9.945   7.349  1.8976  0.1639  0.3221
  301MOL0     H40582   8.109   9.667   7.332  1.1965  0.9535 -1.3794
  301MOL0     H40583   8.026   9.825   7.319 -0.0674 -0.7889 -1.2764
  301MOL0     H40584   8.173   9.724   7.563 -0.1608 -1.1496  0.6436
  301MOL0     H40585   8.069   9.864   7.555 -1.3106  0.7115 -1.8084
  301MOL0     H40586   8.065   9.478   7.555  1.0870  0.4903 -0.6184
  301MOL0     H40587   7.897   9.296   7.672 -2.4512 -2.8476  1.5660
  301MOL0     H40588   7.759   9.370   7.760 -1.2514  2.6670 -0.9027
  301MOL0     H40589   7.630   9.342   7.561  0.6999  1.0766 -1.8400
  301MOL0     H40590   7.774   9.297   7.464 -0.2711 -0.6475  0.0279
  301MOL0     H40591   7.823   9.101   7.575  1.0245  1.7574  1.5771
  301MOL0     H40592   7.668   9.087   7.501  2.0679  0.3173 -0.9842
  301MOL0     H40593   7.700   9.127   7.810 -1.1156  0.6576  0.8532
  301MOL0     H40594   7.682   8.971   7.733  1.3762  0.7103 -0.1246
  301MOL0     H40595   7.572   8.912   7.508  2.0265 -2.3241  0.9371
  301MOL0     H40596   7.446   8.748   7.442  1.4796 -1.2072  0.6664
  301MOL0     H40597   7.071   8.438   7.819  2.5584 -1.3960 -1.4469
  301MOL0     H40598   6.995   8.213   7.801  1.4676 -2.7542 -1.6600
  301MOL0     H40599   6.988   8.001   7.741  1.9181  1.4703 -2.9406
  301MOL0     H40600   6.822   8.048   7.756  2.4723  1.7149  0.1576
  301MOL0     H40601   6.753   7.880   7.590 -0.1122  4.7556  0.6961
  301MOL0     H40602   6.915   7.856   7.538  0.2190 -3.1910 -0.5218
  301MOL0     H40603   6.937   7.775   7.812  1.3721  2.2879 -0.4754
  301MOL0     H40604   6.763   7.758   7.778 -0.4406  1.0611 -2.3687
  301MOL0     H40605   6.982   7.641   7.629  0.3691 -1.7183 -0.7719
  301MOL0     H40606   6.814   7.630   7.560  2.4349 -3.9640 -0.7568
  301MOL0     H40607   6.750   7.495   7.744 -0.5511  2.9973 -3.7849
  301MOL0     H40608   6.895   7.537   7.844  0.1469  1.7614 -0.1901
  301MOL0     H40609   6.931   7.358   7.592  0.2573 -1.6904  1.1778
  301MOL0     H40610   7.051   7.419   7.707  0.4864 -2.6506  0.6670
  301MOL0     H40611   6.830   7.204   7.755 -0.2666  1.0328 -0.4882
  301MOL0     H40612   6.897   7.288   7.889 -1.6519  1.2346  0.2093
  301MOL0     H40613   7.123   7.182   7.855  1.4352 -0.8483 -1.9711
  301MOL0     H40614   7.011   7.063   7.785 -0.1798  0.2474 -1.5248
  301MOL0     H40615   6.944   8.256   7.379  1.3946 -0.6232 -0.4789
  301MOL0     H40616   7.029   8.503   7.403  2.8114 -0.1305  1.4326
  301MOL0     H40617   7.195   8.786   7.796  1.6845 -4.4011 -0.5289
  301MOL0     H40618   7.319   8.989   7.859 -0.0355 -0.0516 -0.8204
  301MOL0     H40619   8.407   9.988   6.546 -0.7441 -2.6212  2.3785
  301MOL0     H40620   8.454   9.812   6.378 -1.0289 -0.5299  1.0091
  301MOL0     H40621   8.817   9.659   6.078 -0.4442 -0.9002 -0.5325
  301MOL0     H40622   8.828   9.477   5.917 -2.4965  1.0787 -0.1165
  301MOL0     H40623   8.967   9.246   5.855  0.5225  2.4502  0.2596
  301MOL0     H40624   8.821   9.320   5.772 -0.8222 -0.3351  1.9572
  301MOL0     H40625   8.872   9.119   5.652 -2.6258 -1.8871 -2.1497
  301MOL0     H40626   8.717   9.122   5.749  0.8929 -0.9595  1.0274
  301MOL0     H40627   8.769   8.923   5.819  1.4354 -1.4772 -1.4531
  301MOL0     H40628   8.880   9.002   5.927 -3.3126 -2.2876  2.0019
  301MOL0     H40629   8.989   8.918   5.656 -2.1040  1.1905 -0.2700
  301MOL0     H40630   9.076   8.958   5.796 -0.1327  1.2244 -3.0528
  301MOL0     H40631   9.055   8.546   5.790  0.2750 -0.5747  0.4899
  301MOL0     H40632   8.762   9.173   6.208 -2.0872 -0.5509 -1.4790
  301MOL0     H40633   8.693   9.236   6.430  0.5275 -0.2463  1.3753
  301MOL0     H40634   8.814   9.356   6.478 -1.4464 -1.5743  2.1661
  301MOL0     H40635   8.635   9.405   6.452 -1.6249 -1.2725 -1.2582
  302MOL0     O40636   7.005   4.443   2.810 -0.2385  0.1092  0.6464
  302MOL0     C40637   6.969   4.506   2.916 -0.0957  0.2792  0.7481
  302MOL0     O40638   7.054   4.538   3.015  0.6857  0.6003 -0.1948
  302MOL0     C40639   7.187   4.520   3.001  0.3603 -0.0149 -0.0957
  302MOL0     C40640   7.268   4.441   3.093 -0.7501  0.6661  0.0704
  302MOL0     C40641   7.400   4.402   3.069  0.6927  0.9614  0.1903
  302MOL0     C40642   7.468   4.448   2.953  0.1574  0.2855  1.2061
  302MOL0     O40643   7.607   4.420   2.940  0.2198 -0.2794 -0.2052
  302MOL0     C40644   7.658   4.408   2.806 -0.7089 -1.1740 -0.4475
  302MOL0     C40645   7.754   4.536   2.779 -0.9171 -1.0122 -0.5824
  302MOL0     C40646   7.803   4.535   2.635  0.4762  0.8036  0.0783
  302MOL0     C40647   7.921   4.630   2.602  0.2536 -0.1719  0.0665
  302MOL0     C40648   7.953   4.653   2.454 -0.8962  0.2404 -0.7677
  302MOL0     C40649   8.064   4.763   2.433  0.6170 -0.5762 -0.6611
  302MOL0     C40650   8.059   4.804   2.275 -0.3497  1.0849  0.0232
  302MOL0     C40651   8.157   4.906   2.245  0.8079 -0.5601 -0.5432
  302MOL0     N40652   8.138   4.956   2.113 -0.7509 -0.5091  0.7013
  302MOL0     C40653   8.117   5.091   2.077  0.0734 -0.2401  0.9760
  302MOL0     C40654   8.136   5.091   1.942  0.2461 -0.1351 -0.0120
  302MOL0     C40655   8.151   5.207   1.850 -0.6655 -0.6760 -0.1770
  302MOL0     C40656   8.003   5.244   1.805 -0.8829  0.1712 -0.8146
  302MOL0     C40657   8.006   5.341   1.682  0.1910  0.1068 -0.8376
  302MOL0     C40658   8.060   5.482   1.725 -0.2635  1.2457  0.8625
  302MOL0     O40659   7.960   5.573   1.765 -0.0575 -1.1448  0.3214
  302MOL0     C40660   7.999   5.704   1.786  0.5555 -0.4047  0.0186
  302MOL0     C40661   7.902   5.806   1.779  0.3009  0.4213  0.1181
  302MOL0     C40662   7.935   5.943   1.784 -0.1506  1.1682 -0.1001
  302MOL0     C40663   8.063   5.985   1.807 -0.1580  1.3390  0.2952
  302MOL0     C40664   8.084   6.125   1.828  0.1864 -0.4618  0.8187
  302MOL0     O40665   8.213   6.178   1.822 -0.2476  0.4439  0.0526
  302MOL0     C40666   8.218   6.316   1.857  0.2626 -0.2049  0.4491
  302MOL0     C40667   8.173   6.376   1.978 -0.1517  0.0804  0.6535
  302MOL0     C40668   8.170   6.515   2.005 -0.4587  0.2680 -0.2315
  302MOL0     C40669   8.213   6.601   1.909 -0.5186 -0.5344  0.1895
  302MOL0     O40670   8.213   6.739   1.933 -0.5555  0.5349  0.8691
  302MOL0     C40671   8.213   6.825   1.815 -1.1413  0.6186 -0.3415
  302MOL0     C40672   8.147   6.959   1.870  0.0383  0.1570 -0.4325
  302MOL0     C40673   8.226   7.033   1.975 -0.1395 -0.9580 -1.2335
  302MOL0     C40674   8.142   7.150   2.047  0.0288  0.2891 -1.1191
  302MOL0     C40675   8.199   7.154   2.189  0.2144 -0.2379  0.5130
  302MOL0     C40676   8.137   7.053   2.296  0.0700  0.1713  0.3395
  302MOL0     C40677   8.116   6.904   2.258  0.4022  0.3832  0.0466
  302MOL0     C40678   8.049   6.827   2.367  0.0576 -0.6543  0.3051
  302MOL0    Cl40679   8.128   6.866   2.528  0.0106  0.0121  0.4005
  302MOL0     C40680   8.254   6.543   1.786  1.2040 -0.6226  0.2241
  302MOL0     C40681   8.258   6.405   1.760 -1.3783 -0.2689  1.1732
  302MOL0     O40682   7.985   6.198   1.832 -0.5403 -0.3682 -0.3491
  302MOL0     C40683   8.159   5.882   1.813 -0.6797 -0.6187 -0.8873
  302MOL0     C40684   8.130   5.745   1.802 -0.3280 -0.1437  0.4050
  302MOL0     N40685   8.180   4.972   1.896 -0.5273  0.5640 -0.6392
  302MOL0     N40686   8.183   4.889   1.996  0.1815 -0.7877 -0.3420
  302MOL0     C40687   7.395   4.550   2.878 -0.0185 -0.1957 -0.7534
  302MOL0     C40688   7.257   4.575   2.895 -0.1275 -0.0565  0.5825
  302MOL0     C40689   6.827   4.519   2.934 -0.3908 -0.7041 -0.2830
  302MOL0     C40690   6.777   4.527   3.067 -0.3547  0.0081  1.0053
  302MOL0     C40691   6.647   4.483   3.083  0.1983  0.5126  0.1979
  302MOL0     C40692   6.550   4.490   2.980 -0.6615 -0.8455  0.8265
  302MOL0     O40693   6.425   4.462   3.020 -0.0550  0.3904 -0.3085
  302MOL0     C40694   6.318   4.441   2.929  0.1286  0.0068 -0.2322
  302MOL0     C40695   6.185   4.473   2.991 -0.1644 -0.9295 -0.1374
  302MOL0     C40696   6.093   4.571   2.911 -0.8603  0.3002 -0.2944
  302MOL0     C40697   5.958   4.600   2.984 -0.1425  0.1152 -0.4097
  302MOL0     C40698   5.847   4.523   2.955  0.8338 -0.7742 -1.1514
  302MOL0     C40699   5.740   4.470   2.934 -0.2846 -0.0128 -0.0179
  302MOL0     C40700   6.592   4.520   2.856 -0.2255 -0.3414  0.3029
  302MOL0     C40701   6.731   4.531   2.831  0.0456 -0.3936 -0.2440
  302MOL0     C40702   6.778   4.568   2.698  0.0452 -0.3986  0.6964
  302MOL0     H40703   7.214   4.414   3.183  1.3799 -3.4799  0.3224
  302MOL0     H40704   7.439   4.324   3.134 -0.3441 -0.1970 -0.5318
  302MOL0     H40705   7.735   4.331   2.793  0.8589  0.4438 -1.1154
  302MOL0     H40706   7.578   4.394   2.733  0.5041 -0.0248 -2.0769
  302MOL0     H40707   7.846   4.528   2.838 -0.4010  0.1661 -1.1962
  302MOL0     H40708   7.714   4.636   2.802 -0.3466 -0.1644 -3.0132
  302MOL0     H40709   7.709   4.547   2.580  0.5176 -0.5550 -0.3161
  302MOL0     H40710   7.824   4.431   2.610 -1.5464  0.3700  0.0325
  302MOL0     H40711   7.898   4.734   2.627 -2.1444 -0.5068 -0.4980
  302MOL0     H40712   8.001   4.604   2.672  0.3985 -2.5115 -0.8611
  302MOL0     H40713   7.987   4.557   2.416 -1.1951 -0.0333 -0.3533
  302MOL0     H40714   7.862   4.694   2.409 -0.8198  2.3865  0.8414
  302MOL0     H40715   8.029   4.845   2.495 -2.4607 -1.0894 -1.5526
  302MOL0     H40716   8.160   4.726   2.471  0.5118  1.5198  1.9005
  302MOL0     H40717   7.953   4.823   2.255 -1.1731 -1.1032  1.9006
  302MOL0     H40718   8.090   4.717   2.215 -2.6508 -0.2685  0.6598
  302MOL0     H40719   8.141   4.992   2.310  2.4051 -0.3570 -0.3914
  302MOL0     H40720   8.260   4.872   2.251  0.2447 -2.7950 -2.1505
  302MOL0     H40721   8.091   5.163   2.154 -0.1944 -0.9021  1.5187
  302MOL0     H40722   8.214   5.284   1.894  2.7782 -3.4679  0.2033
  302MOL0     H40723   8.198   5.175   1.757  1.2933  1.4314  0.0082
  302MOL0     H40724   7.951   5.156   1.766  0.2613 -1.2127  0.6716
  302MOL0     H40725   7.941   5.289   1.883 -2.2685 -2.1455 -0.4819
  302MOL0     H40726   7.902   5.335   1.648 -1.5797 -4.5022  3.9424
  302MOL0     H40727   8.051   5.295   1.594  0.8412  0.4566 -0.6936
  302MOL0     H40728   8.124   5.515   1.643 -1.3391  0.9658 -0.1214
  302MOL0     H40729   8.120   5.459   1.814 -2.9089 -0.2437  2.3898
  302MOL0     H40730   7.798   5.778   1.760  0.2021 -0.1065  1.3241
  302MOL0     H40731   7.853   6.014   1.791 -0.3811  0.9363 -0.4231
  302MOL0     H40732   8.157   6.308   2.061  0.3841 -0.5255  0.2682
  302MOL0     H40733   8.142   6.547   2.105 -1.2222  2.1375 -1.0026
  302MOL0     H40734   8.314   6.844   1.780 -0.9500 -0.2798 -0.3032
  302MOL0     H40735   8.147   6.776   1.742  0.5348  0.0569 -1.5445
  302MOL0     H40736   8.145   7.024   1.782  0.0341  0.4918 -0.1869
  302MOL0     H40737   8.048   6.933   1.909 -0.9464  1.9977 -1.5424
  302MOL0     H40738   8.266   6.956   2.042  2.4273  0.4812 -1.0037
  302MOL0     H40739   8.308   7.080   1.922  0.6173  1.2350  1.5852
  302MOL0     H40740   8.037   7.121   2.037  0.3005 -1.1382 -0.1139
  302MOL0     H40741   8.179   7.240   1.996  1.6344 -1.3450 -2.9939
  302MOL0     H40742   8.188   7.249   2.241  1.7597  0.4566 -0.3609
  302MOL0     H40743   8.307   7.136   2.191  0.7119  2.4558  1.1058
  302MOL0     H40744   8.201   7.074   2.383 -0.3707  0.7581  0.5260
  302MOL0     H40745   8.036   7.091   2.312 -0.5644  0.0338 -2.7402
  302MOL0     H40746   8.211   6.864   2.223 -0.0552  0.5789 -1.4966
  302MOL0     H40747   8.050   6.896   2.171  1.2637  0.8905 -0.6616
  302MOL0     H40748   7.943   6.852   2.364  0.8915  4.0726 -3.9757
  302MOL0     H40749   8.049   6.723   2.332 -2.2308 -0.6996  0.3281
  302MOL0     H40750   8.286   6.611   1.709 -3.8748  3.2412  1.0532
  302MOL0     H40751   8.304   6.369   1.668 -1.0599 -2.3242  2.0833
  302MOL0     H40752   8.259   5.916   1.839 -0.3129 -0.7710 -2.0695
  302MOL0     H40753   8.210   5.672   1.810  0.3536  0.5378 -0.0474
  302MOL0     H40754   7.451   4.596   2.798  0.9770  1.3624  0.7755
  302MOL0     H40755   7.200   4.632   2.823  1.4199  1.0357  0.1675
  302MOL0     H40756   6.839   4.523   3.156 -0.2135  1.1276  0.9721
  302MOL0     H40757   6.613   4.450   3.181  1.1596  0.2005  0.4414
  302MOL0     H40758   6.317   4.335   2.901 -0.2044  0.2314 -1.1099
  302MOL0     H40759   6.338   4.484   2.831  2.1649  1.0553  0.5894
  302MOL0     H40760   6.212   4.526   3.082  4.6013 -0.9237 -1.3073
  302MOL0     H40761   6.137   4.377   3.013  0.0769 -1.8897 -3.2597
  302MOL0     H40762   6.079   4.529   2.811 -0.1538 -1.9097  0.4676
  302MOL0     H40763   6.142   4.667   2.898  1.1119 -0.6621 -0.3620
  302MOL0     H40764   5.966   4.611   3.093 -1.5803  2.8455 -0.4851
  302MOL0     H40765   5.941   4.702   2.949 -0.1246  0.3494  0.2362
  302MOL0     H40766   5.641   4.439   2.907 -1.6125  2.8005  1.1690
  302MOL0     H40767   6.519   4.541   2.778  0.5646 -0.8419 -0.5764
  302MOL0     H40768   6.851   4.650   2.707 -2.2164  1.8717 -0.3028
  302MOL0     H40769   6.833   4.488   2.648  2.0603  0.2054  1.8014
  302MOL0     H40770   6.692   4.605   2.641 -0.3618  0.5872  1.8877
  303MOL0     O40771   7.096   8.924   1.108  0.5601 -0.7043  0.0381
  303MOL0     C40772   7.107   8.855   1.009 -0.4036  0.4263  0.4648
  303MOL0     O40773   7.152   8.717   1.006  0.5167 -0.7086 -0.1175
  303MOL0     C40774   7.182   8.645   1.110  1.3899 -0.0084  0.6248
  303MOL0     C40775   7.162   8.675   1.254  0.0174  0.8656 -0.1119
  303MOL0     C40776   7.199   8.593   1.361  0.0871  0.1117  0.1013
  303MOL0     C40777   7.253   8.470   1.324  0.2992 -0.0316 -0.6200
  303MOL0     O40778   7.323   8.384   1.407  0.5995  0.9436 -0.0941
  303MOL0     C40779   7.302   8.381   1.544 -0.1011 -0.3711 -0.2371
  303MOL0     C40780   7.403   8.480   1.598  0.5050 -0.0608  0.4717
  303MOL0     C40781   7.530   8.393   1.627 -0.0885  1.4238 -0.3427
  303MOL0     C40782   7.658   8.466   1.660 -0.5698  0.2444 -0.4937
  303MOL0     C40783   7.724   8.523   1.535 -0.5252  0.4117  0.0534
  303MOL0     C40784   7.865   8.558   1.580 -0.2560 -0.1188 -0.0143
  303MOL0     C40785   7.920   8.671   1.493  0.1530  0.2968 -0.1404
  303MOL0     C40786   8.064   8.737   1.499  1.2843  0.2292 -0.6798
  303MOL0     N40787   8.164   8.629   1.544  0.4007 -0.1825 -0.4040
  303MOL0     C40788   8.197   8.524   1.456 -0.4048 -0.1018 -0.6908
  303MOL0     C40789   8.282   8.445   1.537 -0.6892  0.1274 -0.3835
  303MOL0     C40790   8.347   8.314   1.508 -0.0883  0.8981  0.3175
  303MOL0     C40791   8.504   8.318   1.534  0.1701  0.8310 -0.3640
  303MOL0     C40792   8.560   8.168   1.546  0.4398  0.4204 -0.4745
  303MOL0     C40793   8.518   8.062   1.436 -0.3900 -0.1875 -0.5212
  303MOL0     O40794   8.582   8.108   1.313  0.3697  0.0782  0.4582
  303MOL0     C40795   8.511   8.098   1.196  0.1592 -0.2791 -0.0506
  303MOL0     C40796   8.511   8.209   1.105  0.2266  0.1365 -0.6224
  303MOL0     C40797   8.451   8.189   0.982  0.6745  0.4493  0.9122
  303MOL0     C40798   8.393   8.072   0.941  0.3498 -0.2628 -0.4625
  303MOL0     C40799   8.367   8.058   0.799 -0.0705  1.0984 -0.9459
  303MOL0     O40800   8.260   7.985   0.763  0.1008 -0.4563 -0.0186
  303MOL0     C40801   8.239   7.937   0.635  0.4967 -0.5660 -0.0025
  303MOL0     C40802   8.144   7.996   0.555  0.0922 -0.0624 -0.0805
  303MOL0     C40803   8.117   7.960   0.424 -0.6570 -0.4931 -0.4981
  303MOL0     C40804   8.181   7.844   0.382  0.7544  0.2079  1.1073
  303MOL0     O40805   8.154   7.816   0.248 -0.5224  0.6341  0.5363
  303MOL0     C40806   8.100   7.683   0.239 -0.0366  0.6797 -0.4514
  303MOL0     C40807   8.049   7.666   0.096  0.3054  0.5831 -0.3470
  303MOL0     C40808   7.912   7.748   0.083 -0.3025 -0.3950 -0.2058
  303MOL0     C40809   7.898   7.801  -0.058 -0.4373  1.6203  0.1361
  303MOL0     C40810   7.987   7.926  -0.081 -0.2718 -0.2335  0.3825
  303MOL0     C40811   7.955   7.995  -0.211 -0.5832  1.0417 -0.0867
  303MOL0     C40812   8.052   8.104  -0.246  0.3561 -0.0617  0.9103
  303MOL0     C40813   8.052   8.215  -0.142 -0.7507 -0.1372  0.0262
  303MOL0    Cl40814   7.898   8.296  -0.138  0.2684  0.0252  0.7196
  303MOL0     C40815   8.268   7.777   0.458 -0.3583 -0.0398  0.4640
  303MOL0     C40816   8.292   7.821   0.587 -0.9905 -0.2507  0.1955
  303MOL0     O40817   8.467   8.088   0.736 -0.5000 -0.3120  0.2539
  303MOL0     C40818   8.362   7.982   1.040  0.5920 -0.2413  0.3872
  303MOL0     C40819   8.429   7.984   1.165  1.0316 -1.0128  0.6967
  303MOL0     N40820   8.283   8.505   1.663 -0.3862  0.4770  0.7374
  303MOL0     N40821   8.214   8.612   1.668 -0.1516 -0.0607 -0.0265
  303MOL0     C40822   7.264   8.433   1.185 -0.2022  0.0076 -0.4709
  303MOL0     C40823   7.224   8.518   1.082 -0.5050  0.1993 -0.6957
  303MOL0     C40824   7.085   8.914   0.867 -0.1531  0.6128 -0.9406
  303MOL0     C40825   7.096   9.055   0.857 -0.2762  0.2964 -0.7198
  303MOL0     C40826   7.075   9.118   0.735  0.5275 -0.2295  0.1429
  303MOL0     C40827   7.042   9.048   0.614 -0.0987  0.1352 -0.9258
  303MOL0     O40828   7.036   9.108   0.493  0.6999 -0.7802  0.2532
  303MOL0     C40829   7.081   9.039   0.376  0.3938 -0.3549  0.2185
  303MOL0     C40830   7.230   9.029   0.377 -0.2770  0.2148  0.1603
  303MOL0     C40831   7.285   8.928   0.270  0.8585  0.9668  0.0229
  303MOL0     C40832   7.418   8.862   0.312  0.1006 -0.7608  0.4379
  303MOL0     C40833   7.383   8.757   0.407  0.2602  0.4435  0.9007
  303MOL0     C40834   7.361   8.678   0.494 -0.5140 -0.6441 -0.0609
  303MOL0     C40835   7.026   8.910   0.628 -0.0678  0.0467 -0.0406
  303MOL0     C40836   7.050   8.839   0.746 -0.4237 -0.6514  0.5233
  303MOL0     C40837   7.011   8.686   0.738 -0.2474 -0.7642  0.2985
  303MOL0     H40838   7.113   8.767   1.285 -3.7407  0.3886 -3.7702
  303MOL0     H40839   7.197   8.632   1.463  1.3467  1.3282 -0.3111
  303MOL0     H40840   7.196   8.395   1.567 -0.4979  0.1194 -2.1790
  303MOL0     H40841   7.322   8.284   1.590 -1.0500  0.1928  1.4559
  303MOL0     H40842   7.358   8.517   1.692 -0.5361  0.2767 -0.1416
  303MOL0     H40843   7.421   8.572   1.542  1.4073  0.8451  2.1793
  303MOL0     H40844   7.552   8.322   1.547 -2.7958 -0.5972  0.5336
  303MOL0     H40845   7.502   8.324   1.708 -1.2800  2.4973  0.2046
  303MOL0     H40846   7.649   8.541   1.739 -1.1827  0.6712 -0.9541
  303MOL0     H40847   7.716   8.377   1.687 -2.6749 -0.4719  2.0284
  303MOL0     H40848   7.716   8.453   1.451 -1.4539 -0.0064  0.4800
  303MOL0     H40849   7.669   8.615   1.512  1.6320  1.3483 -1.7478
  303MOL0     H40850   7.843   8.609   1.674 -4.2084  0.7847 -1.2675
  303MOL0     H40851   7.939   8.480   1.599  0.9049  1.3037  1.6458
  303MOL0     H40852   7.849   8.754   1.499  2.0453  1.9272  1.0290
  303MOL0     H40853   7.921   8.639   1.388  1.6985 -0.3508  0.0424
  303MOL0     H40854   8.096   8.779   1.403 -2.0734  2.7692 -0.8704
  303MOL0     H40855   8.067   8.813   1.578  0.1089  0.7843 -1.1477
  303MOL0     H40856   8.161   8.510   1.355  0.4533  3.3761 -1.6208
  303MOL0     H40857   8.294   8.241   1.570 -0.3441 -0.3295 -1.2871
  303MOL0     H40858   8.328   8.281   1.405 -2.2041 -3.2510  1.8031
  303MOL0     H40859   8.551   8.380   1.457  1.4993 -0.0518 -0.2996
  303MOL0     H40860   8.528   8.374   1.625  0.3081  0.8110 -0.3887
  303MOL0     H40861   8.509   8.129   1.634 -1.5637 -0.0440 -1.7701
  303MOL0     H40862   8.668   8.175   1.562  0.6089  0.7385 -1.6403
  303MOL0     H40863   8.410   8.065   1.423 -0.4451  1.6770  0.0159
  303MOL0     H40864   8.553   7.963   1.467  1.9827 -0.6716 -4.0821
  303MOL0     H40865   8.561   8.303   1.124  0.2998 -0.1052  0.4338
  303MOL0     H40866   8.457   8.272   0.912  1.9434 -1.0655 -0.8690
  303MOL0     H40867   8.091   8.078   0.602 -1.0420 -1.4379  1.1585
  303MOL0     H40868   8.049   8.011   0.356 -1.9870 -2.1908 -0.5150
  303MOL0     H40869   8.176   7.606   0.249 -0.6946 -0.1588 -1.6365
  303MOL0     H40870   8.033   7.660   0.323  1.0947 -1.6615 -0.1228
  303MOL0     H40871   8.124   7.700   0.023 -0.2917 -0.7375 -1.6257
  303MOL0     H40872   8.022   7.562   0.078 -1.1061  0.8585  0.0486
  303MOL0     H40873   7.826   7.683   0.101 -1.5233  1.0540 -0.5509
  303MOL0     H40874   7.914   7.829   0.157 -1.9440 -0.4012 -0.1228
  303MOL0     H40875   7.796   7.839  -0.072 -2.3990 -3.4492 -2.2253
  303MOL0     H40876   7.922   7.720  -0.128 -0.9634  0.1077  1.6260
  303MOL0     H40877   8.095   7.914  -0.088 -0.1172  1.2046 -0.0402
  303MOL0     H40878   7.963   7.995   0.001 -2.8584 -0.6338  0.0609
  303MOL0     H40879   7.962   7.925  -0.294 -2.9870 -2.7931  2.6175
  303MOL0     H40880   7.852   8.031  -0.198 -0.2493  2.6787 -1.5960
  303MOL0     H40881   8.023   8.143  -0.345  0.3536  0.6720  1.1941
  303MOL0     H40882   8.147   8.051  -0.249  0.2285 -0.2849  0.7878
  303MOL0     H40883   8.074   8.173  -0.044 -2.2156  1.2040  0.9784
  303MOL0     H40884   8.127   8.292  -0.162  0.1573 -1.1605 -0.5420
  303MOL0     H40885   8.313   7.683   0.427  0.6220  0.4695  0.3142
  303MOL0     H40886   8.369   7.771   0.646  0.1526  1.9313  0.6730
  303MOL0     H40887   8.286   7.906   1.028 -1.6810  2.0834 -0.8657
  303MOL0     H40888   8.408   7.895   1.223 -0.6201 -1.5809 -0.6903
  303MOL0     H40889   7.285   8.327   1.175  0.0519 -0.1237  1.2045
  303MOL0     H40890   7.249   8.484   0.982  0.2997  2.1932 -1.2119
  303MOL0     H40891   7.121   9.113   0.945 -1.4382 -0.1799 -0.0459
  303MOL0     H40892   7.086   9.222   0.706  0.4263 -0.6679 -1.6209
  303MOL0     H40893   7.048   9.087   0.283  2.7161 -1.2301 -1.1392
  303MOL0     H40894   7.038   8.939   0.363  3.1285 -1.6138  0.0056
  303MOL0     H40895   7.268   8.996   0.474  2.3292 -1.3447 -1.2628
  303MOL0     H40896   7.254   9.135   0.360 -1.5449  0.4064 -0.5615
  303MOL0     H40897   7.298   8.988   0.179 -0.9462  2.0578  0.4270
  303MOL0     H40898   7.214   8.853   0.235  3.1945  0.2379 -3.7405
  303MOL0     H40899   7.470   8.808   0.233 -0.8901 -0.1759 -0.6625
  303MOL0     H40900   7.485   8.942   0.344  1.1456 -1.3259 -0.3079
  303MOL0     H40901   7.347   8.593   0.557  3.6280 -1.0875  0.5924
  303MOL0     H40902   7.001   8.851   0.540  3.6608 -0.8475 -0.7005
  303MOL0     H40903   7.084   8.617   0.782  0.3463 -0.9664 -0.9606
  303MOL0     H40904   6.914   8.660   0.781 -1.3313  0.1293 -1.5092
  303MOL0     H40905   7.010   8.655   0.633  2.7148  0.8712 -0.3247
  304MOL0     O40906   9.782   1.697  10.935 -0.3763 -0.8043  0.6439
  304MOL0     C40907   9.831   1.811  10.947  0.2398  0.7158 -0.5549
  304MOL0     O40908   9.841   1.908  10.853 -0.5054 -0.8632 -0.4479
  304MOL0     C40909   9.812   1.890  10.723 -0.3360  0.2464  0.2393
  304MOL0     C40910   9.774   2.006  10.641 -0.9844  1.2008 -0.5002
  304MOL0     C40911   9.756   1.993  10.506  0.1079  0.8778  0.1080
  304MOL0     C40912   9.764   1.870  10.445 -0.3773 -0.4241  0.4538
  304MOL0     O40913   9.760   1.878  10.310  0.4982  0.1416 -0.1866
  304MOL0     C40914   9.695   1.773  10.236 -0.1920  0.1802 -0.2905
  304MOL0     C40915   9.733   1.804  10.080  0.2819  0.1579  0.4422
  304MOL0     C40916   9.870   1.740  10.029 -0.3396 -0.0731  0.0408
  304MOL0     C40917   9.978   1.855  10.033  0.2507  0.2631  0.0693
  304MOL0     C40918  10.050   1.896  10.164  0.0501 -0.0885  0.4816
  304MOL0     C40919  10.084   1.777  10.254 -0.1371 -0.9749  1.4217
  304MOL0     C40920  10.176   1.820  10.365 -0.3559  0.7330  0.6697
  304MOL0     C40921  10.109   1.899  10.474 -0.5449  0.0957 -0.1826
  304MOL0     N40922  10.181   1.921  10.599  0.2206 -0.7954 -0.4787
  304MOL0     C40923  10.299   1.977  10.609 -0.9290 -0.2209 -0.2769
  304MOL0     C40924  10.346   1.950  10.733  1.4171 -0.3147 -0.2745
  304MOL0     C40925  10.477   2.009  10.782  0.5939  0.4948  0.0033
  304MOL0     C40926  10.456   2.133  10.860 -0.0027  0.3969 -0.1818
  304MOL0     C40927  10.390   2.107  10.991  0.7180  0.0778  0.6688
  304MOL0     C40928  10.479   2.029  11.092  0.5710  0.1981 -0.2719
  304MOL0     O40929  10.420   2.067  11.220  0.1194  0.2053 -1.0067
  304MOL0     C40930  10.496   2.042  11.333 -0.0118 -0.0317  0.2288
  304MOL0     C40931  10.612   1.964  11.352 -0.6874 -0.0861  0.2736
  304MOL0     C40932  10.677   1.955  11.479 -0.2898  0.8841 -0.3037
  304MOL0     C40933  10.624   2.016  11.597  0.3549  0.1402 -0.4730
  304MOL0     C40934  10.675   2.000  11.731  0.5995 -0.8856  0.5213
  304MOL0     O40935  10.578   2.024  11.835  0.3289  0.0183  0.0620
  304MOL0     C40936  10.632   1.983  11.958 -0.4882  0.4788  0.0155
  304MOL0     C40937  10.725   2.035  12.047 -0.5197 -0.1427 -0.3145
  304MOL0     C40938  10.752   1.968  12.172 -0.4164  0.5235  0.8384
  304MOL0     C40939  10.667   1.866  12.202  0.8523 -0.5665  0.8281
  304MOL0     O40940  10.703   1.809  12.326 -0.2840  0.4490  0.1351
  304MOL0     C40941  10.592   1.784  12.413  0.0375  0.9878 -0.2418
  304MOL0     C40942  10.643   1.707  12.541 -0.0655 -0.0757  0.0438
  304MOL0     C40943  10.688   1.793  12.651 -0.8449 -0.2915 -0.4580
  304MOL0     C40944  10.729   1.736  12.787 -0.2040 -1.1322 -0.6833
  304MOL0     C40945  10.844   1.636  12.782  0.6459 -1.3529  0.4221
  304MOL0     C40946  10.873   1.594  12.923  0.1481 -0.1356 -0.9079
  304MOL0     C40947  10.971   1.688  13.001 -0.0853  0.4039 -0.4360
  304MOL0     C40948  11.121   1.691  12.948  0.4677  0.2151 -0.2999
  304MOL0    Cl40949  11.210   1.542  12.964 -0.1736  0.2724 -0.2817
  304MOL0     C40950  10.570   1.810  12.120  0.1413 -0.4660 -0.3811
  304MOL0     C40951  10.556   1.868  11.998 -0.3993 -0.1964 -0.2304
  304MOL0     O40952  10.791   1.973  11.747  0.1658 -0.2783 -0.1292
  304MOL0     C40953  10.499   2.084  11.586  0.7187  0.8972 -0.1253
  304MOL0     C40954  10.448   2.094  11.456  0.8668 -0.1391 -1.0173
  304MOL0     N40955  10.248   1.897  10.807 -0.6416 -0.2602  0.2784
  304MOL0     N40956  10.153   1.874  10.720 -0.2204 -0.9151 -0.3202
  304MOL0     C40957   9.785   1.754  10.516 -0.5315  0.4596 -0.4236
  304MOL0     C40958   9.809   1.764  10.658  0.2748  0.3584 -0.0999
  304MOL0     C40959   9.890   1.839  11.080 -1.0847 -0.8641  0.3047
  304MOL0     C40960  10.031   1.832  11.070  0.1736  0.3419 -0.2815
  304MOL0     C40961  10.111   1.857  11.182  0.5433  0.1334 -0.4134
  304MOL0     C40962  10.050   1.891  11.307  0.1192  0.2301  0.2175
  304MOL0     O40963  10.123   1.921  11.419 -0.8002 -0.2765  1.1341
  304MOL0     C40964  10.085   1.895  11.550 -0.7279  0.0566 -0.3907
  304MOL0     C40965  10.214   1.828  11.612 -0.9398 -0.5086  0.1350
  304MOL0     C40966  10.256   1.710  11.529 -0.0042 -0.3531 -0.9622
  304MOL0     C40967  10.381   1.648  11.590 -1.1274  1.0338 -0.4773
  304MOL0     C40968  10.368   1.566  11.712  0.2517  0.1022  0.0181
  304MOL0     C40969  10.346   1.513  11.820 -0.3015  0.1868  0.4117
  304MOL0     C40970   9.905   1.902  11.310 -0.0427  0.7489  0.2530
  304MOL0     C40971   9.829   1.890  11.194  0.7485  0.5517 -0.5587
  304MOL0     C40972   9.679   1.927  11.188  0.1000  0.4349  0.1444
  304MOL0     H40973   9.769   2.102  10.692  0.5804  1.0278  0.0173
  304MOL0     H40974   9.726   2.079  10.447 -1.3470  1.4075  1.5552
  304MOL0     H40975   9.710   1.671  10.272  5.5662  1.0538  0.7814
  304MOL0     H40976   9.586   1.787  10.242  0.0336  2.1413  0.1330
  304MOL0     H40977   9.736   1.911  10.058  1.2288  1.0685  4.2191
  304MOL0     H40978   9.642   1.766  10.033 -1.6043  2.5787  1.9212
  304MOL0     H40979   9.861   1.712   9.924 -1.2733  0.5902 -0.0721
  304MOL0     H40980   9.901   1.670  10.107  0.5945  2.2809  1.9108
  304MOL0     H40981  10.061   1.819   9.971 -1.7383 -1.0925 -2.0172
  304MOL0     H40982   9.947   1.946   9.980 -1.0229  0.1734  0.6106
  304MOL0     H40983  10.139   1.947  10.128 -2.1258  1.5789 -2.9775
  304MOL0     H40984   9.985   1.965  10.218  1.6171  2.0535 -0.2682
  304MOL0     H40985   9.997   1.735  10.303 -0.1513  0.3375  2.6004
  304MOL0     H40986  10.113   1.695  10.188 -3.3352 -0.3020 -1.0560
  304MOL0     H40987  10.262   1.878  10.333  0.1306 -1.6156 -2.9892
  304MOL0     H40988  10.204   1.727  10.415 -0.0201  0.9052  0.8019
  304MOL0     H40989  10.069   1.989  10.427 -0.2709 -1.5774 -4.0032
  304MOL0     H40990  10.022   1.837  10.500  1.2081 -1.2541  2.9564
  304MOL0     H40991  10.351   2.033  10.533 -1.2112  0.9293  0.3583
  304MOL0     H40992  10.530   1.933  10.840 -2.7738 -0.8178  1.6491
  304MOL0     H40993  10.530   2.037  10.691  0.0087 -2.2040 -1.2770
  304MOL0     H40994  10.550   2.188  10.872  0.5746 -0.9187  2.0152
  304MOL0     H40995  10.396   2.198  10.796  3.0449  0.7890 -2.9378
  304MOL0     H40996  10.286   2.072  10.991 -0.4345  3.1742  0.0328
  304MOL0     H40997  10.378   2.209  11.028 -3.0979 -0.8533  2.5460
  304MOL0     H40998  10.585   2.056  11.089  0.4655  0.5561 -1.3517
  304MOL0     H40999  10.476   1.920  11.087  1.9573  0.1707 -0.7753
  304MOL0     H41000  10.656   1.932  11.258 -0.9081  1.3415 -0.3353
  304MOL0     H41001  10.774   1.906  11.484  0.1931  1.5689 -2.2961
  304MOL0     H41002  10.776   2.122  12.007  0.1186 -0.3994 -0.0682
  304MOL0     H41003  10.843   1.996  12.224  2.7808 -5.1709 -0.7483
  304MOL0     H41004  10.543   1.876  12.447 -1.4811 -0.8871  3.2438
  304MOL0     H41005  10.518   1.719  12.365  2.4216 -3.4305  1.4971
  304MOL0     H41006  10.562   1.648  12.586  1.2612 -2.2780 -0.3389
  304MOL0     H41007  10.726   1.642  12.514  0.2897  1.3385 -2.6555
  304MOL0     H41008  10.778   1.840  12.611 -0.4146 -2.1449 -1.8108
  304MOL0     H41009  10.601   1.855  12.672 -0.1409 -0.1961  2.5695
  304MOL0     H41010  10.634   1.706  12.833 -0.0275  1.3232  1.5749
  304MOL0     H41011  10.758   1.819  12.852 -1.3463 -2.6272  1.8825
  304MOL0     H41012  10.930   1.677  12.730  0.4508 -1.9127 -0.3637
  304MOL0     H41013  10.827   1.551  12.715  1.1281  0.9744 -2.8850
  304MOL0     H41014  10.785   1.592  12.987  0.8718  1.2665  0.1739
  304MOL0     H41015  10.908   1.490  12.922 -0.8042 -0.7978  4.5591
  304MOL0     H41016  10.976   1.640  13.099  0.8245  0.8771 -0.2349
  304MOL0     H41017  10.927   1.786  13.024 -0.7924 -0.5548  2.8171
  304MOL0     H41018  11.118   1.723  12.843  0.6981 -0.9558 -0.6852
  304MOL0     H41019  11.169   1.769  13.009 -0.2284  0.5478 -0.1718
  304MOL0     H41020  10.509   1.725  12.147 -1.1283 -0.1064 -2.0040
  304MOL0     H41021  10.500   1.818  11.919  3.7317 -3.6168 -1.4533
  304MOL0     H41022  10.455   2.143  11.666  0.7312 -0.4308  0.8973
  304MOL0     H41023  10.371   2.169  11.440  3.1958  2.7344  0.4199
  304MOL0     H41024   9.806   1.655  10.479 -2.9663 -0.0682 -0.5682
  304MOL0     H41025   9.830   1.671  10.709  0.0481 -0.0372 -0.7203
  304MOL0     H41026  10.081   1.805  10.978 -2.3302 -1.2564 -1.2559
  304MOL0     H41027  10.218   1.843  11.171  0.7839  0.6333  1.1055
  304MOL0     H41028  10.004   1.821  11.551 -1.2303  0.5762  0.9773
  304MOL0     H41029  10.057   1.986  11.604  1.0081 -0.4410  1.4791
  304MOL0     H41030  10.187   1.801  11.714 -1.8167 -1.2421 -0.2865
  304MOL0     H41031  10.300   1.896  11.609 -0.9642 -0.3599  1.9782
  304MOL0     H41032  10.281   1.741  11.427  2.2351  0.8265 -0.1334
  304MOL0     H41033  10.179   1.633  11.532  1.2026 -1.5805 -0.0200
  304MOL0     H41034  10.432   1.581  11.519  1.4151  3.5634 -1.2149
  304MOL0     H41035  10.458   1.721  11.614 -1.5058  0.2671  3.7457
  304MOL0     H41036  10.324   1.468  11.915  1.5188 -0.2005  0.6822
  304MOL0     H41037   9.854   1.921  11.404 -0.0261 -3.3990  1.2957
  304MOL0     H41038   9.615   1.927  11.276 -1.0210 -2.4884 -0.5480
  304MOL0     H41039   9.681   2.024  11.137  1.6788  1.9763  2.8853
  304MOL0     H41040   9.626   1.854  11.127 -1.0341  0.5857  0.9300
  305MOL0     O41041   3.450   4.083   7.753 -0.5956  0.1893 -0.1263
  305MOL0     C41042   3.338   4.069   7.712  0.6227 -0.2765 -0.2390
  305MOL0     O41043   3.225   4.088   7.778  0.7381  0.6392  0.0777
  305MOL0     C41044   3.240   4.108   7.910 -0.2403  0.8375 -0.1943
  305MOL0     C41045   3.255   4.234   7.956  0.5574 -0.3943 -1.5612
  305MOL0     C41046   3.270   4.264   8.104  0.6595  0.1774 -0.0979
  305MOL0     C41047   3.264   4.154   8.190  0.5784  0.4546 -0.6615
  305MOL0     O41048   3.273   4.175   8.324 -0.5672  0.1662  0.2831
  305MOL0     C41049   3.371   4.105   8.404  0.6881 -0.4828 -0.2412
  305MOL0     C41050   3.506   4.171   8.404 -0.2979 -0.0327  0.0544
  305MOL0     C41051   3.596   4.086   8.492 -0.3282 -0.7049  0.0164
  305MOL0     C41052   3.748   4.124   8.462 -0.1892 -0.0804  0.5392
  305MOL0     C41053   3.841   4.080   8.574  1.4613 -0.7459 -0.7491
  305MOL0     C41054   3.819   3.940   8.626  0.0188 -0.0572 -0.5476
  305MOL0     C41055   3.804   3.809   8.544  1.5993  0.6094 -0.4497
  305MOL0     C41056   3.907   3.798   8.433  0.3789  0.5676 -0.7276
  305MOL0     N41057   4.019   3.694   8.423  0.7117 -0.3952  0.6088
  305MOL0     C41058   4.065   3.642   8.312  0.6190  0.2716 -0.7641
  305MOL0     C41059   4.176   3.571   8.356  0.4948 -0.9810 -0.3166
  305MOL0     C41060   4.270   3.481   8.290  0.0100  0.1943 -0.1766
  305MOL0     C41061   4.412   3.543   8.284 -1.2810  0.0927 -0.7400
  305MOL0     C41062   4.505   3.469   8.184  0.4935 -0.2412 -0.2112
  305MOL0     C41063   4.627   3.554   8.156 -0.5231  0.6893  0.5455
  305MOL0     O41064   4.694   3.511   8.037  0.3483 -0.1767 -0.3496
  305MOL0     C41065   4.789   3.589   7.980  0.3794  0.2122  0.3935
  305MOL0     C41066   4.821   3.722   8.009  0.0183  0.0450  0.5711
  305MOL0     C41067   4.904   3.794   7.933  0.4567 -0.0534 -0.2941
  305MOL0     C41068   4.973   3.738   7.828  1.0223  0.6091  0.0213
  305MOL0     C41069   5.084   3.816   7.757  0.6467 -0.5953 -0.2158
  305MOL0     O41070   5.093   3.951   7.780 -0.1101 -0.5685  0.1835
  305MOL0     C41071   5.168   4.044   7.708  0.4172  0.0461  0.5977
  305MOL0     C41072   5.287   4.021   7.639 -0.9465  0.5410  0.6057
  305MOL0     C41073   5.369   4.120   7.575 -0.8556 -0.0047 -0.6734
  305MOL0     C41074   5.339   4.257   7.603 -0.2449  0.5270 -0.4503
  305MOL0     O41075   5.424   4.362   7.581 -0.7691  0.0640 -0.0953
  305MOL0     C41076   5.524   4.343   7.484 -0.0781 -0.0033 -0.8043
  305MOL0     C41077   5.638   4.451   7.511  0.8640 -0.7301 -0.1822
  305MOL0     C41078   5.612   4.578   7.436 -0.2929 -1.0132 -0.2991
  305MOL0     C41079   5.505   4.663   7.501  0.4957 -0.7026 -0.4507
  305MOL0     C41080   5.473   4.785   7.412  0.0233  0.3560  0.6864
  305MOL0     C41081   5.594   4.895   7.399 -0.0440 -0.2299 -0.4440
  305MOL0     C41082   5.543   5.009   7.310  0.2334  0.4862  1.3438
  305MOL0     C41083   5.624   5.134   7.307 -0.2087 -0.2513  0.2881
  305MOL0    Cl41084   5.795   5.084   7.273  0.0226 -0.0998 -0.1751
  305MOL0     C41085   5.212   4.283   7.663  0.6419  0.6685 -1.5724
  305MOL0     C41086   5.126   4.175   7.711 -0.3782  0.6411 -0.1889
  305MOL0     O41087   5.146   3.757   7.670  0.3644  0.7954 -0.2529
  305MOL0     C41088   4.947   3.603   7.805  1.6166  0.0939  0.7791
  305MOL0     C41089   4.852   3.524   7.877  0.1195 -0.5012 -1.0369
  305MOL0     N41090   4.205   3.613   8.491 -0.0434  0.2131  0.4692
  305MOL0     N41091   4.102   3.683   8.522 -0.1227 -0.3236 -0.3085
  305MOL0     C41092   3.227   4.026   8.142  0.4781 -0.2652 -0.4787
  305MOL0     C41093   3.221   4.004   8.004  0.3908  0.3596 -1.0427
  305MOL0     C41094   3.322   4.018   7.571  0.1415 -0.8882  0.4566
  305MOL0     C41095   3.429   4.035   7.484  0.4326  0.6366  0.3652
  305MOL0     C41096   3.417   3.988   7.355 -0.3215 -0.1499  0.7619
  305MOL0     C41097   3.307   3.914   7.305 -0.3365 -0.3917  0.1191
  305MOL0     O41098   3.305   3.882   7.170 -0.1661 -0.9078 -0.3551
  305MOL0     C41099   3.240   3.764   7.130 -0.6032  0.0935 -0.8218
  305MOL0     C41100   3.332   3.643   7.105 -0.4738  0.3585 -1.1812
  305MOL0     C41101   3.456   3.676   7.019 -0.2111 -0.4181 -0.3059
  305MOL0     C41102   3.560   3.564   6.987  0.0511 -0.3539  0.8589
  305MOL0     C41103   3.501   3.460   6.908  0.4265  0.7409  0.7737
  305MOL0     C41104   3.455   3.359   6.844  0.8200  0.2323 -0.2578
  305MOL0     C41105   3.196   3.913   7.386  0.3317  0.4882 -1.2143
  305MOL0     C41106   3.200   3.960   7.517  0.3893  0.5833  0.0751
  305MOL0     C41107   3.072   3.938   7.596  0.1373 -0.1011 -0.0630
  305MOL0     H41108   3.258   4.304   7.873 -2.0433 -1.6936 -2.8671
  305MOL0     H41109   3.285   4.367   8.134  0.0663 -0.4181  2.5214
  305MOL0     H41110   3.329   4.101   8.504  1.3676  2.6219  0.2703
  305MOL0     H41111   3.387   4.006   8.359  3.1867 -0.3292  0.1806
  305MOL0     H41112   3.501   4.275   8.437  0.2868  0.5156 -1.4886
  305MOL0     H41113   3.545   4.164   8.301 -2.0448 -1.2226 -0.5766
  305MOL0     H41114   3.582   3.979   8.475  0.9458 -0.6961 -1.2304
  305MOL0     H41115   3.572   4.113   8.596  0.6626  0.8438 -0.1196
  305MOL0     H41116   3.773   4.071   8.369  3.0044 -0.3602  1.4607
  305MOL0     H41117   3.765   4.231   8.447  0.1089  0.0632  1.8202
  305MOL0     H41118   3.937   4.114   8.534  0.4712  1.2932 -1.5599
  305MOL0     H41119   3.818   4.151   8.654 -0.0667  0.2648 -2.0033
  305MOL0     H41120   3.898   3.923   8.700  0.4412  2.0437 -0.4639
  305MOL0     H41121   3.725   3.948   8.682 -0.3540 -0.9536 -1.0306
  305MOL0     H41122   3.709   3.776   8.499  0.3531  1.7016  1.2459
  305MOL0     H41123   3.815   3.723   8.610  0.2938  0.5309 -0.3084
  305MOL0     H41124   3.847   3.803   8.342 -0.3749 -1.0339 -0.3443
  305MOL0     H41125   3.952   3.898   8.434  1.4542  0.1178 -1.8113
  305MOL0     H41126   4.032   3.657   8.210 -0.0762  1.4340 -0.3859
  305MOL0     H41127   4.266   3.381   8.335 -3.4428 -1.3585 -3.4514
  305MOL0     H41128   4.238   3.475   8.186 -1.6187 -2.0929  0.3788
  305MOL0     H41129   4.405   3.647   8.250  0.8425 -0.9660 -5.1132
  305MOL0     H41130   4.461   3.542   8.382  0.0451  0.8781 -1.3675
  305MOL0     H41131   4.446   3.447   8.095  2.5438 -1.0032 -1.4603
  305MOL0     H41132   4.536   3.371   8.222  0.3192  0.0003  0.5685
  305MOL0     H41133   4.695   3.558   8.242  1.7246  0.7251 -1.1574
  305MOL0     H41134   4.601   3.657   8.130  1.1613  0.4383 -2.5941
  305MOL0     H41135   4.765   3.781   8.081 -1.2750 -1.1863  0.6203
  305MOL0     H41136   4.914   3.900   7.952 -2.7473 -0.1807  3.2450
  305MOL0     H41137   5.321   3.919   7.623  2.9409  1.5707  1.1280
  305MOL0     H41138   5.458   4.097   7.519 -1.7242 -1.2068 -1.5983
  305MOL0     H41139   5.572   4.245   7.490  0.6324  0.3846  0.1703
  305MOL0     H41140   5.488   4.355   7.381 -2.1940  6.8911  0.2247
  305MOL0     H41141   5.642   4.468   7.618  0.9935  0.5680 -0.3784
  305MOL0     H41142   5.734   4.414   7.474  1.6153 -0.7428  1.7203
  305MOL0     H41143   5.698   4.643   7.418 -2.2887  0.9685 -3.7312
  305MOL0     H41144   5.592   4.561   7.330  0.8616  0.8672 -0.8653
  305MOL0     H41145   5.555   4.700   7.591 -1.3574  1.4080 -0.2081
  305MOL0     H41146   5.415   4.605   7.520 -1.6156  3.0684  2.5969
  305MOL0     H41147   5.394   4.844   7.460  0.1731 -0.5240  2.0862
  305MOL0     H41148   5.430   4.744   7.320  0.4923 -4.6549  2.3480
  305MOL0     H41149   5.628   4.938   7.494  2.3676  0.3351 -1.4844
  305MOL0     H41150   5.682   4.851   7.350  1.3234  0.8456  0.9441
  305MOL0     H41151   5.444   5.048   7.336 -2.1133 -0.0186 -4.9920
  305MOL0     H41152   5.529   4.972   7.208  1.5588  1.8348  0.6349
  305MOL0     H41153   5.591   5.212   7.239 -2.0633 -0.1430  1.2762
  305MOL0     H41154   5.628   5.183   7.404  0.6121  1.6918 -0.6705
  305MOL0     H41155   5.192   4.389   7.676  1.6576  0.4951  3.1665
  305MOL0     H41156   5.030   4.176   7.761 -0.1579  0.0926  0.2499
  305MOL0     H41157   4.988   3.547   7.721 -0.0324 -2.7250  1.7392
  305MOL0     H41158   4.830   3.420   7.857  1.3153 -0.5771 -2.1305
  305MOL0     H41159   3.227   3.945   8.214  0.2873  1.0807  1.0945
  305MOL0     H41160   3.199   3.901   7.979 -2.6567  1.0105 -1.4066
  305MOL0     H41161   3.524   4.086   7.495  0.2552  1.3090 -0.9815
  305MOL0     H41162   3.501   4.007   7.289 -0.0536 -0.7237  0.9270
  305MOL0     H41163   3.178   3.775   7.039 -2.6176  0.4547  0.5236
  305MOL0     H41164   3.155   3.748   7.197 -2.6045  0.9625 -2.9822
  305MOL0     H41165   3.283   3.575   7.033 -0.6237  1.0984 -1.7952
  305MOL0     H41166   3.358   3.599   7.202  0.2707  1.1601 -1.0110
  305MOL0     H41167   3.512   3.758   7.065 -0.3341  1.5250 -3.3043
  305MOL0     H41168   3.421   3.702   6.918 -3.4321  1.3666  1.1332
  305MOL0     H41169   3.634   3.610   6.920  0.7554 -1.3080  0.9632
  305MOL0     H41170   3.616   3.540   7.078  3.3273 -1.0320 -1.1705
  305MOL0     H41171   3.416   3.272   6.795 -2.1431  0.7310  1.0120
  305MOL0     H41172   3.096   3.882   7.356  0.2079  0.4315 -0.7506
  305MOL0     H41173   3.011   4.028   7.597 -2.4008 -1.5795  4.4138
  305MOL0     H41174   3.001   3.864   7.556 -1.2780  0.7277  0.8533
  305MOL0     H41175   3.086   3.924   7.703 -2.0942  1.6863  0.5314
  306MOL0     O41176   3.485   5.707   4.386 -0.0332 -0.1864  0.5452
  306MOL0     C41177   3.378   5.745   4.347  1.0614  0.3562  0.2893
  306MOL0     O41178   3.271   5.762   4.440 -0.7533 -0.7086  0.0517
  306MOL0     C41179   3.282   5.724   4.566 -0.8887  0.6013 -0.7309
  306MOL0     C41180   3.286   5.591   4.602 -1.3889 -0.1641  0.2021
  306MOL0     C41181   3.313   5.554   4.735 -0.9076  0.0785  0.6674
  306MOL0     C41182   3.321   5.654   4.828 -0.4899 -0.2711 -0.1852
  306MOL0     O41183   3.317   5.624   4.960 -0.0144 -0.2180 -0.5487
  306MOL0     C41184   3.400   5.520   5.008 -0.1739 -0.8981 -0.3728
  306MOL0     C41185   3.432   5.514   5.151  0.9370  0.5540  0.6795
  306MOL0     C41186   3.312   5.502   5.240 -0.2712 -0.2274 -0.0106
  306MOL0     C41187   3.345   5.551   5.386  0.8406 -0.0871  0.8576
  306MOL0     C41188   3.226   5.521   5.482  0.1049 -0.2416  1.1829
  306MOL0     C41189   3.223   5.619   5.602  0.6823  0.5969  0.4145
  306MOL0     C41190   3.172   5.747   5.556 -0.2606  0.6275 -0.2993
  306MOL0     C41191   3.015   5.743   5.543  0.4111 -0.2295 -0.9306
  306MOL0     N41192   2.973   5.881   5.513  0.6568 -0.2999  0.4003
  306MOL0     C41193   2.930   5.935   5.384  0.4562  0.6243 -0.1367
  306MOL0     C41194   2.884   6.059   5.418 -0.2332  0.3420 -0.3837
  306MOL0     C41195   2.804   6.164   5.340 -0.3275  0.8693  0.9519
  306MOL0     C41196   2.908   6.243   5.252  0.4048  0.9909  0.1185
  306MOL0     C41197   2.999   6.160   5.157 -0.5475  0.3123 -0.5931
  306MOL0     C41198   2.914   6.086   5.055 -0.2942 -0.2960 -0.2391
  306MOL0     O41199   2.986   5.962   5.021  0.5856  0.0132 -0.2918
  306MOL0     C41200   2.934   5.891   4.914 -0.0188  0.7971  1.1567
  306MOL0     C41201   2.826   5.938   4.834 -0.1623  0.6597  0.4722
  306MOL0     C41202   2.770   5.859   4.735 -0.3485  0.0003 -0.4103
  306MOL0     C41203   2.820   5.728   4.706 -0.5622  0.4234 -0.0917
  306MOL0     C41204   2.757   5.638   4.608 -0.5054 -0.5931 -0.4181
  306MOL0     O41205   2.815   5.520   4.604  0.2332 -0.2043  0.6566
  306MOL0     C41206   2.761   5.422   4.516 -0.1102  0.0609  0.2682
  306MOL0     C41207   2.742   5.440   4.376 -0.4856  0.1921 -0.0902
  306MOL0     C41208   2.675   5.336   4.310 -0.4648 -0.1307 -0.1904
  306MOL0     C41209   2.624   5.229   4.369  0.1035  0.2079 -0.0233
  306MOL0     O41210   2.552   5.148   4.280 -0.7923  0.4796 -0.7661
  306MOL0     C41211   2.566   5.005   4.301  0.6592 -0.4060  0.3407
  306MOL0     C41212   2.415   4.955   4.304  0.0265  0.7168 -0.7720
  306MOL0     C41213   2.392   4.807   4.268  0.2722 -0.0259  0.3762
  306MOL0     C41214   2.472   4.752   4.146 -0.1000  1.2366 -0.3046
  306MOL0     C41215   2.450   4.603   4.133 -0.7723  0.0814  0.0106
  306MOL0     C41216   2.559   4.527   4.222 -0.6061 -0.5511 -0.7030
  306MOL0     C41217   2.560   4.372   4.189 -0.1122 -0.0233 -0.8523
  306MOL0     C41218   2.637   4.290   4.293  0.0773  0.1775  0.4758
  306MOL0    Cl41219   2.672   4.122   4.231  0.2844  0.0397  0.3348
  306MOL0     C41220   2.657   5.202   4.505 -0.1532 -0.1809  0.8717
  306MOL0     C41221   2.720   5.300   4.579 -0.1029  0.3857  0.7488
  306MOL0     O41222   2.660   5.676   4.542  0.4600 -0.8072 -0.3678
  306MOL0     C41223   2.942   5.689   4.776 -0.5754 -0.4772 -0.6083
  306MOL0     C41224   2.989   5.767   4.883 -0.0695 -0.3688 -0.0080
  306MOL0     N41225   2.913   6.083   5.548 -0.7082  0.2542 -0.1322
  306MOL0     N41226   2.975   5.980   5.601  0.1081 -0.0067 -0.0233
  306MOL0     C41227   3.311   5.785   4.795  0.4198  1.3239 -1.3003
  306MOL0     C41228   3.285   5.824   4.665  0.1957 -1.2190  0.4223
  306MOL0     C41229   3.353   5.777   4.202 -0.4159  0.2572  0.9251
  306MOL0     C41230   3.230   5.835   4.167  0.3051 -0.3763 -0.0238
  306MOL0     C41231   3.209   5.875   4.033  0.1285  0.0828 -0.1000
  306MOL0     C41232   3.300   5.845   3.933 -0.6841 -0.5116  0.5488
  306MOL0     O41233   3.282   5.880   3.803 -0.1771 -0.8090  0.6180
  306MOL0     C41234   3.152   5.889   3.754  0.7436  0.4968  0.1647
  306MOL0     C41235   3.161   5.853   3.606  0.4755 -0.7794 -0.3444
  306MOL0     C41236   3.024   5.835   3.525 -0.5606  0.1676  0.0277
  306MOL0     C41237   2.959   5.968   3.511  0.6371  0.1512  0.0687
  306MOL0     C41238   2.811   5.958   3.538 -0.2270 -0.2540  0.0095
  306MOL0     C41239   2.694   5.965   3.562 -0.2380 -0.7912  0.9338
  306MOL0     C41240   3.411   5.770   3.963 -0.9147 -0.0872 -0.4047
  306MOL0     C41241   3.451   5.745   4.098  0.2305 -0.8579 -0.8658
  306MOL0     C41242   3.586   5.669   4.109 -0.6473 -0.3494 -0.1561
  306MOL0     H41243   3.268   5.510   4.532 -1.4800 -1.2504  1.4545
  306MOL0     H41244   3.296   5.451   4.765 -3.4249  0.1657 -0.1628
  306MOL0     H41245   3.374   5.419   4.975  0.1104 -0.9003 -0.5929
  306MOL0     H41246   3.501   5.528   4.966 -0.2477  1.4332 -0.2382
  306MOL0     H41247   3.460   5.618   5.171 -1.4441  1.3384  0.2869
  306MOL0     H41248   3.505   5.436   5.171 -0.9370 -0.8152  2.7299
  306MOL0     H41249   3.289   5.395   5.234 -0.4428 -0.0985 -2.4504
  306MOL0     H41250   3.229   5.566   5.209 -0.7641 -0.6576  0.3914
  306MOL0     H41251   3.435   5.500   5.421 -0.0092 -1.8807  0.5464
  306MOL0     H41252   3.379   5.655   5.379  2.1825 -0.5878 -0.8303
  306MOL0     H41253   3.134   5.546   5.429  2.0074  2.7511 -1.0006
  306MOL0     H41254   3.231   5.418   5.519 -1.1192 -0.8937 -0.3510
  306MOL0     H41255   3.167   5.582   5.689  0.3188  1.4891  0.5691
  306MOL0     H41256   3.326   5.646   5.624  0.3761  1.0613  1.3116
  306MOL0     H41257   3.199   5.786   5.457 -0.5194 -2.0390 -1.5132
  306MOL0     H41258   3.199   5.823   5.631  2.2574  1.9836 -2.3931
  306MOL0     H41259   2.966   5.678   5.470  0.5751 -1.4268 -0.0227
  306MOL0     H41260   2.971   5.713   5.639  1.6168 -1.2566 -0.6575
  306MOL0     H41261   2.928   5.873   5.295  1.1025 -1.2921  1.0984
  306MOL0     H41262   2.723   6.109   5.291  0.7009 -0.3461  0.5482
  306MOL0     H41263   2.748   6.233   5.403 -2.2670  1.8320 -1.6413
  306MOL0     H41264   2.854   6.314   5.188  1.1062  2.5515  1.1853
  306MOL0     H41265   2.970   6.301   5.321  1.5475 -0.3070  0.2365
  306MOL0     H41266   3.062   6.093   5.215  1.3152 -0.9435 -3.7903
  306MOL0     H41267   3.055   6.234   5.099  2.5163 -0.3667  1.2821
  306MOL0     H41268   2.893   6.153   4.971  2.1865  2.7446  1.3668
  306MOL0     H41269   2.818   6.049   5.091 -1.3335 -0.5811 -3.0169
  306MOL0     H41270   2.777   6.035   4.844 -1.5471 -0.2640  3.9706
  306MOL0     H41271   2.693   5.893   4.667  1.1607 -0.7160 -2.6336
  306MOL0     H41272   2.776   5.524   4.317  2.2679 -0.3851  0.5426
  306MOL0     H41273   2.639   5.348   4.209 -1.8680 -3.1577 -0.1469
  306MOL0     H41274   2.623   4.972   4.213  1.1676 -0.7070  0.7770
  306MOL0     H41275   2.608   4.960   4.392 -4.0001 -0.9272  2.4873
  306MOL0     H41276   2.378   4.968   4.406  1.4370 -1.1583  0.0467
  306MOL0     H41277   2.344   5.013   4.244  1.3905 -0.4882 -3.7536
  306MOL0     H41278   2.422   4.753   4.358  4.3485  0.1137 -0.7031
  306MOL0     H41279   2.287   4.802   4.238  0.7342  1.0502 -1.6081
  306MOL0     H41280   2.578   4.771   4.169 -0.1295  0.3284  0.6586
  306MOL0     H41281   2.442   4.808   4.057 -2.1489  1.2825  0.3730
  306MOL0     H41282   2.474   4.589   4.027 -0.1455 -0.2451  0.1884
  306MOL0     H41283   2.352   4.562   4.157 -0.4379  0.7167  2.8308
  306MOL0     H41284   2.657   4.568   4.196  1.2924 -3.4547  1.2816
  306MOL0     H41285   2.540   4.549   4.328 -0.5521 -1.5614 -0.4716
  306MOL0     H41286   2.609   4.345   4.096  2.1195  0.6162  0.0642
  306MOL0     H41287   2.462   4.327   4.206  0.0504  0.4995  1.9962
  306MOL0     H41288   2.733   4.337   4.315 -0.2947  0.9195  0.5509
  306MOL0     H41289   2.594   4.293   4.394  1.9951  1.6917  1.3196
  306MOL0     H41290   2.637   5.113   4.565 -2.7420  0.7633  1.5581
  306MOL0     H41291   2.762   5.279   4.677  1.5232 -1.7677 -0.3084
  306MOL0     H41292   2.994   5.594   4.762  0.0672  0.0002 -1.5042
  306MOL0     H41293   3.079   5.749   4.940  0.7960 -0.2070 -1.2861
  306MOL0     H41294   3.319   5.863   4.870  0.4351  0.6713 -0.6074
  306MOL0     H41295   3.278   5.920   4.616 -1.9275 -2.9659 -3.1241
  306MOL0     H41296   3.158   5.855   4.246 -0.3784 -0.5030 -0.6021
  306MOL0     H41297   3.130   5.949   4.022  0.2633  0.1183 -0.8468
  306MOL0     H41298   3.110   5.987   3.778  1.7412  1.1433 -0.6167
  306MOL0     H41299   3.092   5.809   3.798  0.5777 -1.1312 -2.7766
  306MOL0     H41300   3.219   5.760   3.602  2.5450  0.5106 -1.6415
  306MOL0     H41301   3.225   5.924   3.553  0.6262 -0.7419 -0.1090
  306MOL0     H41302   2.965   5.758   3.575  1.3695 -1.2604  0.2009
  306MOL0     H41303   3.050   5.794   3.426  1.2501 -0.5966  0.7757
  306MOL0     H41304   2.990   6.041   3.587  0.3041  3.0397 -2.3938
  306MOL0     H41305   2.982   6.015   3.415  1.0209 -0.8162 -0.3286
  306MOL0     H41306   2.588   5.964   3.579  0.0821  2.1718  4.6641
  306MOL0     H41307   3.465   5.729   3.878 -1.1452 -0.2230 -0.4856
  306MOL0     H41308   3.656   5.738   4.156  2.2138 -0.5495 -3.6920
  306MOL0     H41309   3.569   5.574   4.160 -2.5982  0.1409  0.1900
  306MOL0     H41310   3.610   5.657   4.003 -1.9126  1.5557 -0.7194
  307MOL0     O41311   2.930   7.147   8.967  0.1040  0.2912  0.6144
  307MOL0     C41312   3.044   7.124   9.022  0.6907  0.2162  0.1602
  307MOL0     O41313   3.155   7.069   8.954 -0.1663 -0.6548 -0.0809
  307MOL0     C41314   3.144   7.091   8.823  0.4271 -0.5539 -0.1850
  307MOL0     C41315   3.216   7.183   8.747  0.2080 -0.1384  0.1154
  307MOL0     C41316   3.209   7.190   8.602 -0.0647 -0.4285 -0.7009
  307MOL0     C41317   3.146   7.079   8.540  0.5527 -0.7358  0.8994
  307MOL0     O41318   3.154   7.045   8.406 -0.5274 -0.0974  0.7561
  307MOL0     C41319   3.187   7.143   8.301  0.0960 -0.5125  0.1689
  307MOL0     C41320   3.202   7.059   8.173  0.0890  1.1235 -0.2923
  307MOL0     C41321   3.078   6.981   8.139 -1.0764  0.2599  0.4460
  307MOL0     C41322   3.098   6.913   7.997  0.2578  0.0457 -0.3096
  307MOL0     C41323   2.999   6.801   7.957  0.1102  0.6452 -1.1531
  307MOL0     C41324   2.998   6.781   7.807 -0.1440 -0.0750 -0.3728
  307MOL0     C41325   2.875   6.696   7.763 -0.7392  0.7405  0.2875
  307MOL0     C41326   2.863   6.550   7.814 -0.1289  0.5401 -0.1980
  307MOL0     N41327   2.979   6.462   7.778  0.6589 -0.2014 -0.1119
  307MOL0     C41328   3.098   6.449   7.848 -0.1702 -0.3616 -0.5379
  307MOL0     C41329   3.182   6.395   7.761  0.0777 -0.3951  0.4344
  307MOL0     C41330   3.319   6.349   7.800 -0.7264 -0.7521 -0.2742
  307MOL0     C41331   3.331   6.200   7.816  0.7805 -0.1244 -0.5707
  307MOL0     C41332   3.470   6.159   7.883  0.0868 -0.1567 -0.5257
  307MOL0     C41333   3.599   6.184   7.799  0.6489  0.1335  0.7797
  307MOL0     O41334   3.610   6.078   7.695  0.0462 -1.2285 -0.6850
  307MOL0     C41335   3.739   6.061   7.650 -0.1439 -0.1745  0.1963
  307MOL0     C41336   3.854   6.143   7.657 -0.1448  0.1910  0.1113
  307MOL0     C41337   3.983   6.094   7.630 -0.2546 -0.1477 -0.8521
  307MOL0     C41338   3.998   5.960   7.586 -0.3309  0.1694 -0.7869
  307MOL0     C41339   4.135   5.895   7.548  0.1927 -0.4401 -0.6918
  307MOL0     O41340   4.133   5.760   7.555 -0.1803  0.4398 -0.7887
  307MOL0     C41341   4.207   5.684   7.457  0.0512 -0.8551  0.0876
  307MOL0     C41342   4.249   5.733   7.334  0.2468 -0.0128  0.9434
  307MOL0     C41343   4.311   5.645   7.251  0.6063  0.3258  0.0317
  307MOL0     C41344   4.362   5.520   7.302 -0.9663 -0.5693  0.9469
  307MOL0     O41345   4.470   5.453   7.245  0.3803  0.2105  1.1500
  307MOL0     C41346   4.523   5.508   7.122  0.0137 -0.3804 -0.0533
  307MOL0     C41347   4.649   5.449   7.064  0.5188 -0.4779 -0.0078
  307MOL0     C41348   4.769   5.531   7.134 -0.3666 -0.0990 -0.5431
  307MOL0     C41349   4.776   5.502   7.290 -0.3892  0.8397  1.0134
  307MOL0     C41350   4.882   5.588   7.346  0.4343 -0.8282 -0.8080
  307MOL0     C41351   4.906   5.549   7.490  0.9703  1.0537 -0.0755
  307MOL0     C41352   5.024   5.605   7.563 -0.6789  1.0323  0.2742
  307MOL0     C41353   5.051   5.763   7.564  0.5553 -0.8898  0.0004
  307MOL0    Cl41354   5.213   5.815   7.635 -0.0581  0.1052 -0.1734
  307MOL0     C41355   4.329   5.475   7.424  0.6741 -0.5279  1.6700
  307MOL0     C41356   4.248   5.558   7.494  0.3163 -0.5489 -0.5924
  307MOL0     O41357   4.239   5.963   7.536  0.0699 -0.0841  0.8366
  307MOL0     C41358   3.879   5.880   7.572 -0.5565  0.2401 -0.8383
  307MOL0     C41359   3.760   5.927   7.610  1.6702  0.1116 -0.4170
  307MOL0     N41360   3.124   6.370   7.643  1.0784  0.1432  0.2304
  307MOL0     N41361   3.000   6.414   7.658 -0.5371  0.0322 -0.0437
  307MOL0     C41362   3.070   6.991   8.614 -0.0655  0.3267 -0.5397
  307MOL0     C41363   3.065   6.999   8.753 -1.1564  0.4676  0.2818
  307MOL0     C41364   3.058   7.123   9.171 -0.5974  0.4831  1.2931
  307MOL0     C41365   3.136   7.017   9.218  0.0312 -0.7642 -1.2835
  307MOL0     C41366   3.147   6.999   9.354  0.1269 -0.2635  0.1229
  307MOL0     C41367   3.105   7.094   9.440  0.5537 -0.2158  1.3269
  307MOL0     O41368   3.138   7.092   9.567 -0.2597 -0.7496  0.0710
  307MOL0     C41369   3.185   6.977   9.623 -0.5135  0.2521 -0.5440
  307MOL0     C41370   3.194   6.986   9.775  0.5176 -0.2667 -0.3312
  307MOL0     C41371   3.077   7.055   9.844  0.9878 -0.6668 -1.0761
  307MOL0     C41372   3.065   7.025   9.995 -0.5289  0.2473 -0.4456
  307MOL0     C41373   3.023   6.890  10.002 -0.1171  0.7269  0.3255
  307MOL0     C41374   2.999   6.774  10.003 -0.4808 -0.4978  0.3005
  307MOL0     C41375   3.041   7.213   9.396 -0.0446 -0.1202 -0.0410
  307MOL0     C41376   3.021   7.226   9.257 -0.6060  0.1614  0.2735
  307MOL0     C41377   2.934   7.344   9.218 -0.9801  0.7028  0.5393
  307MOL0     H41378   3.278   7.255   8.799 -0.4093 -0.7382  1.7272
  307MOL0     H41379   3.278   7.256   8.551 -1.1513 -2.0371 -4.6409
  307MOL0     H41380   3.096   7.200   8.280 -1.2518 -4.1422 -6.9232
  307MOL0     H41381   3.278   7.199   8.327 -0.7372  1.3080 -0.6551
  307MOL0     H41382   3.294   7.001   8.178  0.8816  2.2468 -1.0854
  307MOL0     H41383   3.225   7.130   8.093  1.7547  1.9824  0.8899
  307MOL0     H41384   2.984   7.037   8.143 -1.8610 -0.9762  0.1128
  307MOL0     H41385   3.057   6.895   8.204 -0.4743 -0.5872 -0.4553
  307MOL0     H41386   3.091   6.997   7.927 -0.9295  1.4576  1.4222
  307MOL0     H41387   3.194   6.868   7.967  0.0494  1.0976 -2.8494
  307MOL0     H41388   3.018   6.703   8.002  0.8976  2.0082  1.7047
  307MOL0     H41389   2.896   6.825   7.984 -0.9715  0.5771 -4.7550
  307MOL0     H41390   2.999   6.878   7.757 -1.0710  2.1969  3.5735
  307MOL0     H41391   3.091   6.733   7.776 -0.5924  1.0168 -3.7593
  307MOL0     H41392   2.878   6.690   7.654  0.1857 -4.0823  0.3686
  307MOL0     H41393   2.785   6.749   7.797 -0.1244  0.6811  2.1041
  307MOL0     H41394   2.843   6.563   7.921  1.5584  0.9767  0.0961
  307MOL0     H41395   2.780   6.507   7.757  0.0960 -1.7759  1.1134
  307MOL0     H41396   3.124   6.476   7.950 -0.2010 -1.1083 -0.3228
  307MOL0     H41397   3.380   6.387   7.718  0.4069  1.4698  1.4904
  307MOL0     H41398   3.344   6.395   7.896  0.5981 -2.7682  0.4150
  307MOL0     H41399   3.254   6.173   7.889  0.2837 -0.1042 -1.0851
  307MOL0     H41400   3.313   6.141   7.726  0.5404 -1.9685  0.6197
  307MOL0     H41401   3.460   6.056   7.919 -2.9143  0.0869 -0.4587
  307MOL0     H41402   3.488   6.223   7.970  3.0448 -1.1748 -0.2711
  307MOL0     H41403   3.677   6.172   7.876  1.9322 -0.8412 -0.6192
  307MOL0     H41404   3.592   6.282   7.752 -0.1973  0.5762  1.7700
  307MOL0     H41405   3.856   6.246   7.690  3.2085  1.3868 -3.0847
  307MOL0     H41406   4.060   6.170   7.628 -0.8288  0.6266  1.8989
  307MOL0     H41407   4.207   5.831   7.315  1.2478  0.6289  1.9015
  307MOL0     H41408   4.327   5.684   7.151  0.4762  0.5353  0.0923
  307MOL0     H41409   4.445   5.505   7.045 -0.0667  4.2721 -0.4314
  307MOL0     H41410   4.549   5.614   7.126  0.1399 -0.4005 -0.3251
  307MOL0     H41411   4.644   5.343   7.092  0.1301 -0.4040  0.2094
  307MOL0     H41412   4.643   5.471   6.958 -1.9765 -1.9759 -0.2593
  307MOL0     H41413   4.865   5.506   7.088 -0.1574 -1.5984  0.6017
  307MOL0     H41414   4.760   5.638   7.119  0.1262  0.5420  2.8333
  307MOL0     H41415   4.785   5.394   7.307  2.0146  0.3456 -2.3502
  307MOL0     H41416   4.687   5.544   7.338 -0.4537  0.4106  1.2819
  307MOL0     H41417   4.867   5.696   7.338  1.1382 -0.6473  0.1985
  307MOL0     H41418   4.967   5.568   7.280  0.7800  3.6929 -2.0502
  307MOL0     H41419   4.821   5.561   7.558  2.1477 -1.3457  1.9678
  307MOL0     H41420   4.917   5.440   7.492  0.2607  0.8442 -2.8220
  307MOL0     H41421   5.115   5.565   7.520 -0.4475  0.8936  0.8760
  307MOL0     H41422   5.019   5.565   7.665 -1.3549 -1.3431 -0.6249
  307MOL0     H41423   5.046   5.803   7.462  1.8400  0.5393  0.4787
  307MOL0     H41424   4.968   5.806   7.621  0.0384 -3.4042  1.2829
  307MOL0     H41425   4.363   5.377   7.454  3.1434 -0.4924 -0.6703
  307MOL0     H41426   4.217   5.525   7.592  0.3770  2.7682  0.6778
  307MOL0     H41427   3.892   5.774   7.550  1.6462  0.6128 -1.6536
  307MOL0     H41428   3.683   5.851   7.619 -0.4134  2.0343 -1.3020
  307MOL0     H41429   3.011   6.920   8.557  0.4340 -1.5192  1.1130
  307MOL0     H41430   3.004   6.927   8.807 -1.2886  1.2976  1.2647
  307MOL0     H41431   3.179   6.938   9.156  0.8768 -0.1331 -1.5117
  307MOL0     H41432   3.205   6.911   9.379  2.9232  1.1424 -0.9393
  307MOL0     H41433   3.285   6.947   9.588 -0.0821  1.1743 -0.1523
  307MOL0     H41434   3.117   6.893   9.607 -0.8551  0.6079 -0.9893
  307MOL0     H41435   3.289   7.034   9.801 -1.1579  2.3045  1.5389
  307MOL0     H41436   3.200   6.879   9.797 -1.8633 -1.3392 -3.9164
  307MOL0     H41437   2.976   7.047   9.801  1.2591 -2.1673 -1.4856
  307MOL0     H41438   3.096   7.163   9.843  0.4453 -0.5307  0.4650
  307MOL0     H41439   3.156   7.046  10.053  0.1865 -2.3898 -0.4928
  307MOL0     H41440   2.979   7.078  10.036 -1.2868 -1.6049  0.4747
  307MOL0     H41441   2.987   6.670   9.985 -0.1060 -0.7866  1.6017
  307MOL0     H41442   3.026   7.291   9.470  4.3185  1.0308 -0.1140
  307MOL0     H41443   2.828   7.315   9.221 -0.9433 -0.9154 -4.3913
  307MOL0     H41444   2.964   7.430   9.278  0.6549 -0.0875  0.9229
  307MOL0     H41445   2.952   7.377   9.115  2.6339 -2.1589  0.0292
  308MOL0     O41446  10.258   6.949   8.004  0.0817  0.6008 -0.0324
  308MOL0     C41447  10.197   6.990   8.103 -0.6121 -1.0896  0.6848
  308MOL0     O41448  10.086   7.070   8.089 -0.6027  0.1150 -0.4370
  308MOL0     C41449  10.043   7.084   7.960 -0.9121 -0.2111 -0.5329
  308MOL0     C41450   9.945   7.015   7.896 -0.5679  0.3517 -0.1115
  308MOL0     C41451   9.902   7.059   7.771 -0.3484 -0.6298  0.0662
  308MOL0     C41452   9.950   7.174   7.704 -0.0022 -0.4619  0.0154
  308MOL0     O41453   9.891   7.214   7.586  0.1973 -0.0065 -0.1206
  308MOL0     C41454   9.963   7.169   7.475  0.1031 -0.2605  0.8217
  308MOL0     C41455   9.942   7.273   7.350  0.0713 -0.2084 -0.6272
  308MOL0     C41456   9.805   7.304   7.296 -0.6034 -0.3366 -0.2607
  308MOL0     C41457   9.821   7.382   7.163  0.1430  0.0364  0.1142
  308MOL0     C41458   9.714   7.494   7.147  0.8946 -0.0211 -0.1731
  308MOL0     C41459   9.733   7.607   7.241  0.1251 -0.7508 -0.4496
  308MOL0     C41460   9.627   7.721   7.237 -0.1764 -0.8942 -0.6056
  308MOL0     C41461   9.624   7.832   7.335 -1.1380  0.0550 -0.0442
  308MOL0     N41462   9.752   7.906   7.336 -0.4788  0.3240  0.0644
  308MOL0     C41463   9.822   7.962   7.440 -0.0533 -1.2578  0.8968
  308MOL0     C41464   9.898   8.055   7.372  0.3906 -0.8568 -0.5664
  308MOL0     C41465   9.997   8.152   7.451  0.3225  0.4038 -0.0837
  308MOL0     C41466  10.105   8.055   7.510 -0.3163 -0.0103 -0.1688
  308MOL0     C41467  10.235   8.120   7.584 -1.0620  0.7577  0.4957
  308MOL0     C41468  10.285   8.031   7.699 -1.1337 -0.6665 -0.2215
  308MOL0     O41469  10.407   8.099   7.741  0.3692 -0.2653 -0.6765
  308MOL0     C41470  10.467   8.055   7.851  0.0028  0.4984  0.6290
  308MOL0     C41471  10.578   8.127   7.904 -1.3041 -0.4819 -0.5974
  308MOL0     C41472  10.651   8.074   8.021  0.8536  0.2953 -0.0725
  308MOL0     C41473  10.613   7.952   8.084  0.5182  0.5592  1.5824
  308MOL0     C41474  10.680   7.885   8.202  0.5886  0.2511 -0.3942
  308MOL0     O41475  10.593   7.806   8.277 -0.1672 -0.8862 -0.0297
  308MOL0     C41476  10.630   7.713   8.374 -0.1140  0.2102  0.3254
  308MOL0     C41477  10.745   7.631   8.359  0.4492  0.1648 -0.3600
  308MOL0     C41478  10.777   7.537   8.456 -0.2252  0.0157 -0.2317
  308MOL0     C41479  10.696   7.524   8.567  0.9369  0.3128  0.5241
  308MOL0     O41480  10.733   7.439   8.672 -0.0839 -0.2016  0.1013
  308MOL0     C41481  10.647   7.314   8.668 -0.1724 -0.2536  1.1551
  308MOL0     C41482  10.683   7.213   8.768  0.8946 -0.3355  0.9396
  308MOL0     C41483  10.666   7.285   8.907 -1.1307 -0.0291  0.2948
  308MOL0     C41484  10.693   7.189   9.022 -0.2881  0.6315 -0.2831
  308MOL0     C41485  10.697   7.267   9.161 -0.3741  0.1169 -0.5541
  308MOL0     C41486  10.552   7.273   9.211  0.0165  0.7945  0.5307
  308MOL0     C41487  10.545   7.346   9.346 -0.5265  0.2060  0.0311
  308MOL0     C41488  10.585   7.491   9.341 -0.5882  0.6054 -0.3755
  308MOL0    Cl41489  10.515   7.572   9.482 -0.1406  0.0469 -0.4354
  308MOL0     C41490  10.585   7.599   8.574 -0.0048 -0.8310  0.0373
  308MOL0     C41491  10.545   7.698   8.487  0.2397 -0.1247  0.3088
  308MOL0     O41492  10.800   7.905   8.224 -0.8318 -0.0442  0.2756
  308MOL0     C41493  10.499   7.884   8.027 -0.1774 -0.5089  0.7405
  308MOL0     C41494  10.435   7.932   7.911  0.0748  0.1953  0.1463
  308MOL0     N41495   9.871   8.056   7.241 -0.3666  0.0113 -0.2111
  308MOL0     N41496   9.796   7.955   7.216 -0.4161 -0.0328 -0.3524
  308MOL0     C41497  10.070   7.227   7.759 -0.2842  0.0312  0.1093
  308MOL0     C41498  10.112   7.183   7.888  0.1724 -0.5738  0.4786
  308MOL0     C41499  10.270   6.985   8.236 -0.7518  0.0258  0.9612
  308MOL0     C41500  10.306   7.102   8.298  0.5305  0.4962  0.7152
  308MOL0     C41501  10.384   7.102   8.407  0.1520  0.1035 -0.4407
  308MOL0     C41502  10.413   6.980   8.478  0.0182  0.4948  1.0745
  308MOL0     O41503  10.510   6.979   8.572 -0.0475  0.3247  0.9365
  308MOL0     C41504  10.564   6.852   8.616 -1.2162 -1.3194 -0.0390
  308MOL0     C41505  10.670   6.878   8.720  0.0472  1.2058 -0.0353
  308MOL0     C41506  10.740   6.743   8.745 -0.3083  0.3317 -0.3691
  308MOL0     C41507  10.853   6.774   8.844 -0.1335  0.2821 -0.0630
  308MOL0     C41508  10.958   6.861   8.798 -0.2306 -0.3327 -0.2469
  308MOL0     C41509  11.041   6.934   8.744  0.0904  0.1913 -0.2994
  308MOL0     C41510  10.367   6.854   8.423 -0.6221  0.0590 -0.1069
  308MOL0     C41511  10.294   6.858   8.301  0.4293 -0.3213 -0.0770
  308MOL0     C41512  10.242   6.723   8.241 -0.1520  0.2698 -0.2981
  308MOL0     H41513   9.895   6.942   7.959 -0.4018  1.1558  0.9690
  308MOL0     H41514   9.814   7.010   7.730  0.4881 -0.9000 -1.5088
  308MOL0     H41515  10.072   7.167   7.485  0.0900  0.4135  1.1292
  308MOL0     H41516   9.920   7.075   7.439 -0.1844 -0.6172  2.0526
  308MOL0     H41517   9.998   7.242   7.261  1.9113  0.0318  0.4033
  308MOL0     H41518   9.997   7.361   7.385 -1.6636  0.1943  1.2513
  308MOL0     H41519   9.742   7.349   7.373 -0.7780  0.2790 -0.7617
  308MOL0     H41520   9.752   7.210   7.277  0.3054 -1.4844  2.3180
  308MOL0     H41521   9.925   7.416   7.154  0.4127 -1.1003 -1.6326
  308MOL0     H41522   9.799   7.308   7.086  1.0966 -4.5599  3.7428
  308MOL0     H41523   9.728   7.524   7.043 -1.1623  0.5229 -0.3513
  308MOL0     H41524   9.610   7.459   7.158  1.6035 -2.7802 -1.3924
  308MOL0     H41525   9.756   7.577   7.344  0.5106 -0.0879 -0.3367
  308MOL0     H41526   9.826   7.659   7.213 -1.3825  3.3884  1.3956
  308MOL0     H41527   9.524   7.685   7.245 -1.2090  1.7914 -0.9375
  308MOL0     H41528   9.626   7.765   7.137  0.8598 -2.3896 -1.3130
  308MOL0     H41529   9.555   7.914   7.312 -0.1268  1.0598  0.3568
  308MOL0     H41530   9.607   7.794   7.436  2.4069 -0.4494  0.5052
  308MOL0     H41531   9.817   7.952   7.548  1.1953 -2.0720  0.8897
  308MOL0     H41532  10.046   8.207   7.370  0.9491 -0.3944 -0.2545
  308MOL0     H41533   9.953   8.204   7.537 -2.2403 -2.9356  0.8283
  308MOL0     H41534  10.063   7.981   7.580 -1.1193  0.2409 -0.3696
  308MOL0     H41535  10.136   8.000   7.421 -0.5507  4.0368 -2.9910
  308MOL0     H41536  10.229   8.221   7.627  3.2080  0.7289  1.6354
  308MOL0     H41537  10.318   8.130   7.514 -1.3341  0.4867  0.1292
  308MOL0     H41538  10.311   7.929   7.670  3.1470  0.1765 -0.0671
  308MOL0     H41539  10.211   8.026   7.780 -1.4456 -3.1523 -0.5790
  308MOL0     H41540  10.616   8.221   7.864 -0.1820 -0.1022  1.2178
  308MOL0     H41541  10.741   8.124   8.054  1.3045  0.9135 -2.0609
  308MOL0     H41542  10.801   7.642   8.268 -0.7133  1.8345 -0.9148
  308MOL0     H41543  10.873   7.486   8.453 -0.2108 -0.2883  2.6890
  308MOL0     H41544  10.539   7.331   8.678  0.0107  1.0154  1.1780
  308MOL0     H41545  10.669   7.262   8.574 -0.1187  0.6106  0.6826
  308MOL0     H41546  10.614   7.129   8.759  1.6644 -1.0721  1.6910
  308MOL0     H41547  10.788   7.192   8.745  0.9927  1.2111 -0.1393
  308MOL0     H41548  10.750   7.354   8.914 -0.9424  0.0541 -2.0318
  308MOL0     H41549  10.577   7.345   8.929  0.0350  1.7408  0.3769
  308MOL0     H41550  10.787   7.137   9.004  1.2100  2.6112  1.2862
  308MOL0     H41551  10.628   7.102   9.030  2.4388 -1.5841 -0.9304
  308MOL0     H41552  10.724   7.371   9.141 -2.2863  0.4274 -1.8212
  308MOL0     H41553  10.767   7.209   9.221 -1.6442 -0.5065  0.3803
  308MOL0     H41554  10.493   7.334   9.142  2.9296 -0.4088 -3.3910
  308MOL0     H41555  10.518   7.171   9.230  2.7718 -0.2704  0.0990
  308MOL0     H41556  10.607   7.299   9.422  0.3495  1.8375  0.3768
  308MOL0     H41557  10.441   7.351   9.382  0.1013  1.6303  1.7712
  308MOL0     H41558  10.695   7.493   9.346 -0.2160  2.2367 -4.8702
  308MOL0     H41559  10.557   7.546   9.251 -0.7973  0.1578 -0.5845
  308MOL0     H41560  10.515   7.571   8.652 -1.0541  0.3700 -0.4302
  308MOL0     H41561  10.449   7.745   8.501 -0.0292  0.4967 -2.9991
  308MOL0     H41562  10.463   7.788   8.065  4.1493 -1.8156  2.1503
  308MOL0     H41563  10.351   7.877   7.870  1.0626 -1.3614  0.0965
  308MOL0     H41564  10.131   7.305   7.715 -1.2900  0.5808 -0.3529
  308MOL0     H41565  10.200   7.229   7.930  1.0883 -0.6924 -1.2221
  308MOL0     H41566  10.273   7.200   8.263 -1.0466 -0.1053  0.4135
  308MOL0     H41567  10.409   7.201   8.444  2.0891 -0.6495  0.4559
  308MOL0     H41568  10.619   6.798   8.538 -0.8424 -0.5634 -0.3040
  308MOL0     H41569  10.485   6.789   8.658 -3.2648  2.7160  2.8309
  308MOL0     H41570  10.634   6.919   8.815 -0.9846  3.2248 -1.2147
  308MOL0     H41571  10.747   6.949   8.686  2.5300 -2.6826 -3.4611
  308MOL0     H41572  10.779   6.713   8.647 -1.5458 -1.5249 -0.3474
  308MOL0     H41573  10.686   6.655   8.782  3.0444 -1.9606 -0.4852
  308MOL0     H41574  10.813   6.803   8.942  2.7393 -1.2619  1.6865
  308MOL0     H41575  10.895   6.678   8.875 -0.4686  0.4577  0.9823
  308MOL0     H41576  11.117   7.004   8.715 -0.4250 -0.3798 -3.2843
  308MOL0     H41577  10.377   6.756   8.468  1.7080  0.0491 -0.4941
  308MOL0     H41578  10.327   6.658   8.258  2.3038  2.3147 -3.6000
  308MOL0     H41579  10.150   6.699   8.295  0.9649 -1.1817  1.0308
  308MOL0     H41580  10.224   6.712   8.134 -1.0266 -4.0885  0.1405
  309MOL0     O41581   0.028   9.608   0.366 -1.0966 -0.3716  0.0965
  309MOL0     C41582  -0.086   9.631   0.402 -0.8491  0.3635  0.1356
  309MOL0     O41583  -0.178   9.694   0.323 -0.2902 -1.0509  0.5347
  309MOL0     C41584  -0.136   9.744   0.205 -0.3012  0.5497  0.1154
  309MOL0     C41585  -0.071   9.871   0.202 -0.1940 -1.0013 -0.5503
  309MOL0     C41586  -0.031   9.925   0.072 -0.3006  0.3319 -0.5227
  309MOL0     C41587  -0.060   9.861  -0.043 -0.4422 -0.4075  0.1784
  309MOL0     O41588  -0.021   9.914  -0.163  0.4626  0.4993  0.2261
  309MOL0     C41589  -0.022  10.055  -0.169  0.2932 -0.9977 -0.0372
  309MOL0     C41590  -0.128  10.083  -0.278 -0.0097  0.4472 -0.3437
  309MOL0     C41591  -0.157  10.229  -0.314  0.1354  0.8791 -0.7906
  309MOL0     C41592  -0.059  10.296  -0.416  0.1694  0.0613 -0.3403
  309MOL0     C41593  -0.105  10.433  -0.460  0.5154 -0.5328  1.5311
  309MOL0     C41594  -0.050  10.475  -0.606 -0.1122  0.1320 -0.0949
  309MOL0     C41595   0.096  10.530  -0.610 -1.2558  0.8575 -0.7835
  309MOL0     C41596   0.198  10.445  -0.683  0.2467  0.2239 -1.3036
  309MOL0     N41597   0.208  10.308  -0.646  1.0004  0.3124 -0.2721
  309MOL0     C41598   0.289  10.253  -0.550  0.1053  1.0150 -1.2616
  309MOL0     C41599   0.243  10.128  -0.536  0.0443 -0.5438  1.0396
  309MOL0     C41600   0.285  10.006  -0.450 -0.0238  1.2034  0.7458
  309MOL0     C41601   0.389   9.912  -0.513 -0.0360 -0.1318 -0.1563
  309MOL0     C41602   0.366   9.845  -0.651 -0.2110  0.1305  0.8522
  309MOL0     C41603   0.244   9.757  -0.647  0.2044  0.3094  0.4381
  309MOL0     O41604   0.229   9.682  -0.769 -0.5304  0.3976  0.2228
  309MOL0     C41605   0.191   9.733  -0.896  0.3631  0.2605  0.8184
  309MOL0     C41606   0.129   9.861  -0.923  0.4697  0.9067 -0.2453
  309MOL0     C41607   0.072   9.892  -1.046  1.0254 -0.5922 -0.0678
  309MOL0     C41608   0.087   9.810  -1.152  0.4830 -0.6495  0.2890
  309MOL0     C41609   0.016   9.826  -1.280 -0.4833 -0.6618 -0.6193
  309MOL0     O41610  -0.073   9.937  -1.277 -0.6157 -0.1080  0.1718
  309MOL0     C41611  -0.143   9.983  -1.384 -0.8533 -0.3577 -0.4254
  309MOL0     C41612  -0.250  10.066  -1.353  0.1514  1.4417  0.3148
  309MOL0     C41613  -0.338  10.111  -1.447 -0.0741 -0.2887  0.7802
  309MOL0     C41614  -0.329  10.072  -1.583 -0.2545  0.3500  0.0041
  309MOL0     O41615  -0.427  10.119  -1.665  0.4177 -0.2217 -0.0002
  309MOL0     C41616  -0.427  10.079  -1.806 -0.3034  0.8353 -0.1877
  309MOL0     C41617  -0.518   9.952  -1.823 -0.3568 -0.9836 -0.1107
  309MOL0     C41618  -0.662  10.015  -1.818 -0.4683  0.4060  0.1319
  309MOL0     C41619  -0.754   9.899  -1.850 -0.2332 -0.4573 -0.0643
  309MOL0     C41620  -0.901   9.929  -1.841 -0.8853  0.8844  0.1054
  309MOL0     C41621  -1.006   9.808  -1.882  0.6685 -0.1137 -0.1330
  309MOL0     C41622  -0.964   9.726  -2.001 -0.6518 -0.4133 -0.0690
  309MOL0     C41623  -1.062   9.624  -2.061 -0.6093 -0.5043  0.0916
  309MOL0    Cl41624  -1.108   9.514  -1.925 -0.0740 -0.0950 -0.2320
  309MOL0     C41625  -0.217   9.991  -1.619  0.7970  0.0111 -1.2416
  309MOL0     C41626  -0.126   9.949  -1.519  0.0434  0.0214 -1.0642
  309MOL0     O41627   0.040   9.752  -1.372 -0.7290  1.1731  0.0845
  309MOL0     C41628   0.165   9.686  -1.130 -0.1576  0.3366 -0.0377
  309MOL0     C41629   0.212   9.645  -1.001  0.7782  0.0915  0.6937
  309MOL0     N41630   0.137  10.110  -0.624  0.2426 -0.0607  0.4758
  309MOL0     N41631   0.110  10.218  -0.686  0.0091  0.7435 -0.6146
  309MOL0     C41632  -0.137   9.740  -0.037 -1.1217  0.7877 -0.1586
  309MOL0     C41633  -0.163   9.676   0.088 -0.0311  0.1751  0.4344
  309MOL0     C41634  -0.130   9.587   0.544  0.3982  1.5762  0.1614
  309MOL0     C41635  -0.247   9.652   0.595 -0.9452 -0.6873 -0.1413
  309MOL0     C41636  -0.300   9.616   0.717 -0.0060  0.5632  0.9600
  309MOL0     C41637  -0.233   9.520   0.801  0.1538 -0.1099 -0.4388
  309MOL0     O41638  -0.283   9.505   0.933  0.2156 -0.2176 -1.6242
  309MOL0     C41639  -0.204   9.436   1.029 -0.5926 -0.0508 -0.3142
  309MOL0     C41640  -0.222   9.287   1.027  0.0118  0.9830  0.3107
  309MOL0     C41641  -0.360   9.226   1.066 -0.6051 -0.1644 -0.4869
  309MOL0     C41642  -0.468   9.249   0.956  0.4693  0.0600 -0.0874
  309MOL0     C41643  -0.591   9.268   1.028  0.1019 -0.2459  1.0840
  309MOL0     C41644  -0.696   9.301   1.084  0.6944  1.1087 -0.0248
  309MOL0     C41645  -0.115   9.461   0.754 -0.6365 -0.7716 -0.4954
  309MOL0     C41646  -0.069   9.480   0.622  0.8716 -0.1083 -0.0209
  309MOL0     C41647   0.061   9.407   0.586 -0.2253 -0.5401 -0.1238
  309MOL0     H41648  -0.046   9.907   0.301 -0.2598 -0.7228 -0.6320
  309MOL0     H41649   0.040  10.008   0.070  1.7159 -1.3174 -2.6649
  309MOL0     H41650  -0.031  10.115  -0.078  0.6184 -0.9844 -0.0137
  309MOL0     H41651   0.073  10.093  -0.208 -0.6681 -0.8371 -2.3816
  309MOL0     H41652  -0.220  10.025  -0.261  0.6168  0.2202  3.2225
  309MOL0     H41653  -0.079  10.038  -0.365  2.4227 -0.5921  1.4380
  309MOL0     H41654  -0.191  10.278  -0.223  0.7010  0.5721 -0.4125
  309MOL0     H41655  -0.251  10.210  -0.369  0.5064 -0.1439 -1.1023
  309MOL0     H41656   0.047  10.302  -0.389  1.0222 -3.4485 -2.3412
  309MOL0     H41657  -0.044  10.232  -0.503  0.2816 -2.2013  1.2740
  309MOL0     H41658  -0.214  10.442  -0.454  0.4714 -0.3623  0.5666
  309MOL0     H41659  -0.065  10.509  -0.392  0.7474 -0.3977  1.2409
  309MOL0     H41660  -0.061  10.404  -0.688 -0.0379  1.2410 -1.0969
  309MOL0     H41661  -0.116  10.559  -0.632  1.5688  0.8479 -2.4189
  309MOL0     H41662   0.130  10.558  -0.510  0.2878 -3.1807 -0.0063
  309MOL0     H41663   0.088  10.623  -0.667 -0.5719  0.8543 -0.8832
  309MOL0     H41664   0.170  10.454  -0.788 -1.4787 -2.2475 -1.1297
  309MOL0     H41665   0.291  10.502  -0.670 -0.4198  1.0332  0.1324
  309MOL0     H41666   0.369  10.310  -0.503 -1.0817  2.2361 -0.6617
  309MOL0     H41667   0.323  10.039  -0.354  0.1442  1.9619  0.4231
  309MOL0     H41668   0.198   9.948  -0.418  0.2974  1.8426  2.9095
  309MOL0     H41669   0.482   9.968  -0.518  1.4162 -1.9484  3.0057
  309MOL0     H41670   0.409   9.827  -0.447  0.8665 -2.1812 -2.9025
  309MOL0     H41671   0.448   9.778  -0.678 -2.5562 -3.0047  0.8329
  309MOL0     H41672   0.375   9.917  -0.733 -3.6699  0.8919  0.9693
  309MOL0     H41673   0.160   9.824  -0.627  2.5229  2.8987  2.2194
  309MOL0     H41674   0.247   9.682  -0.567 -1.0178  1.0895  1.2555
  309MOL0     H41675   0.128   9.919  -0.831  0.4861  0.4863  0.0243
  309MOL0     H41676   0.016   9.984  -1.061  1.1809 -0.4362  0.3251
  309MOL0     H41677  -0.263  10.097  -1.250 -0.7003  4.5004 -0.6142
  309MOL0     H41678  -0.428  10.156  -1.407 -0.3663 -0.3312  0.1832
  309MOL0     H41679  -0.475  10.157  -1.867 -1.5719 -1.8861 -2.9426
  309MOL0     H41680  -0.327  10.055  -1.843 -0.7918 -1.2342 -0.2551
  309MOL0     H41681  -0.501   9.909  -1.922 -3.2118  2.1695 -2.1857
  309MOL0     H41682  -0.508   9.883  -1.739 -0.1309  1.4572  2.0176
  309MOL0     H41683  -0.690  10.058  -1.721 -1.1868  1.5053 -0.5444
  309MOL0     H41684  -0.658  10.091  -1.896  2.0177 -0.9859 -1.2181
  309MOL0     H41685  -0.731   9.814  -1.785  0.4265 -2.1003 -2.2780
  309MOL0     H41686  -0.719   9.858  -1.946  1.6021 -2.7701  1.4849
  309MOL0     H41687  -0.922  10.011  -1.910 -2.6868  0.4477  0.0793
  309MOL0     H41688  -0.923   9.970  -1.742  0.7580  0.3522  0.7214
  309MOL0     H41689  -1.018   9.742  -1.796 -1.0299 -2.1711 -1.8399
  309MOL0     H41690  -1.104   9.850  -1.906  0.9848  1.0974  0.5701
  309MOL0     H41691  -0.865   9.684  -1.981  0.1414  1.5177  0.2461
  309MOL0     H41692  -0.940   9.805  -2.073 -2.8120 -0.0227 -0.4317
  309MOL0     H41693  -1.145   9.675  -2.112 -1.9088 -0.4016  2.1758
  309MOL0     H41694  -1.010   9.562  -2.135 -0.7727  1.9299 -2.2059
  309MOL0     H41695  -0.178   9.963  -1.716  0.7520 -1.3326 -0.8925
  309MOL0     H41696  -0.040   9.895  -1.558  0.6984  0.6257 -0.4901
  309MOL0     H41697   0.179   9.615  -1.211  3.9925  0.0094  0.7212
  309MOL0     H41698   0.276   9.559  -0.984  0.4567 -0.9197 -2.4438
  309MOL0     H41699  -0.161   9.684  -0.127 -0.2655 -1.3536  0.8890
  309MOL0     H41700  -0.200   9.575   0.097  0.8029 -0.1613  0.1932
  309MOL0     H41701  -0.282   9.741   0.543  1.2405 -0.1274 -0.7337
  309MOL0     H41702  -0.384   9.666   0.764  1.3110  2.5523  1.3351
  309MOL0     H41703  -0.236   9.486   1.120  1.0119  2.3300 -0.9655
  309MOL0     H41704  -0.097   9.458   1.015 -0.2403 -0.4924  1.4955
  309MOL0     H41705  -0.141   9.238   1.082  0.5088 -0.2337 -1.4104
  309MOL0     H41706  -0.203   9.251   0.925  3.3559  0.2214  1.0628
  309MOL0     H41707  -0.397   9.272   1.158 -0.2358 -1.7346  0.4935
  309MOL0     H41708  -0.351   9.120   1.092 -1.8587  0.3411  2.2956
  309MOL0     H41709  -0.460   9.343   0.901 -1.1978  0.6671  0.6356
  309MOL0     H41710  -0.487   9.159   0.898 -4.3423  0.2423  0.7123
  309MOL0     H41711  -0.792   9.319   1.127 -1.0801  0.9213 -3.5490
  309MOL0     H41712  -0.074   9.391   0.826 -0.5866  1.1784  1.4961
  309MOL0     H41713   0.146   9.441   0.646  0.7495 -2.2980 -0.4410
  309MOL0     H41714   0.049   9.300   0.604 -2.8475 -0.2645  0.1119
  309MOL0     H41715   0.097   9.419   0.483 -0.0951 -1.4142 -0.1866
  310MOL0     O41716   3.509  10.502   4.084 -0.0968  0.6355  0.3375
  310MOL0     C41717   3.403  10.443   4.101 -0.5358  0.3279 -0.3185
  310MOL0     O41718   3.357  10.401   4.226 -0.4245  0.8217  0.2928
  310MOL0     C41719   3.460  10.364   4.317  0.7687 -0.3913 -0.5586
  310MOL0     C41720   3.546  10.258   4.291  0.5748 -0.1151  0.7025
  310MOL0     C41721   3.638  10.219   4.391  0.6944  0.5851  0.0444
  310MOL0     C41722   3.647  10.282   4.513 -0.9211  0.9952  0.6103
  310MOL0     O41723   3.732  10.240   4.606  0.5324  0.1075  0.0218
  310MOL0     C41724   3.679  10.125   4.678  0.4147 -0.5256  0.1822
  310MOL0     C41725   3.781  10.115   4.787  0.1813 -1.1388 -0.2391
  310MOL0     C41726   3.771  10.236   4.886 -0.6343  1.1412 -0.6023
  310MOL0     C41727   3.889  10.249   4.986  0.1874 -0.8988  1.1284
  310MOL0     C41728   3.844  10.343   5.101 -0.5585 -0.5909  0.0245
  310MOL0     C41729   3.947  10.353   5.218  0.0284 -0.3418  0.5292
  310MOL0     C41730   3.866  10.408   5.346  0.1371 -0.1324 -0.3240
  310MOL0     C41731   3.957  10.473   5.447  0.8481  0.6112  0.0753
  310MOL0     N41732   3.893  10.474   5.578 -0.1709 -0.5867  0.1968
  310MOL0     C41733   3.775  10.546   5.620 -1.2242 -0.6849  0.2749
  310MOL0     C41734   3.766  10.497   5.748 -0.9866 -1.0551 -0.2117
  310MOL0     C41735   3.662  10.539   5.849  0.5865  1.0324  0.1631
  310MOL0     C41736   3.654  10.687   5.860  0.4578 -0.1558 -0.7899
  310MOL0     C41737   3.777  10.749   5.916 -0.0739 -0.8909  0.4784
  310MOL0     C41738   3.855  10.689   6.024  0.5637 -0.7242 -1.8272
  310MOL0     O41739   3.794  10.695   6.150  0.0122  1.3817  0.0793
  310MOL0     C41740   3.761  10.815   6.204  0.0734 -0.0804 -0.1746
  310MOL0     C41741   3.852  10.921   6.238  1.1804 -0.1377 -0.3928
  310MOL0     C41742   3.815  11.046   6.282 -0.0586 -0.1518  0.0538
  310MOL0     C41743   3.684  11.072   6.306 -0.0383  0.4900  1.1793
  310MOL0     C41744   3.627  11.193   6.365  0.5270 -0.0765  0.0620
  310MOL0     O41745   3.722  11.286   6.403 -0.5144 -0.1306  0.3482
  310MOL0     C41746   3.671  11.392   6.473  0.6326  0.0676 -0.0269
  310MOL0     C41747   3.686  11.525   6.442  0.1792  0.1292  0.1578
  310MOL0     C41748   3.634  11.631   6.519 -0.4225 -0.4235 -0.2791
  310MOL0     C41749   3.582  11.608   6.644  0.2248  0.6072  0.7580
  310MOL0     O41750   3.531  11.720   6.714 -0.9375  0.5524 -0.3374
  310MOL0     C41751   3.532  11.707   6.856 -0.1958  0.1941  0.8301
  310MOL0     C41752   3.666  11.739   6.924 -0.3273 -0.4242  1.9081
  310MOL0     C41753   3.717  11.883   6.897  0.2684  0.5575 -0.5120
  310MOL0     C41754   3.852  11.919   6.968 -0.2925 -0.3701 -0.0454
  310MOL0     C41755   3.980  11.846   6.931 -0.0205  0.1744  1.2055
  310MOL0     C41756   4.102  11.908   6.987 -0.7723 -0.3599 -0.1417
  310MOL0     C41757   4.224  11.847   6.926 -0.6429  0.6565  0.6722
  310MOL0     C41758   4.280  11.718   7.001  0.5205  0.5792 -0.4454
  310MOL0    Cl41759   4.317  11.743   7.173  0.8519  0.0466 -0.1667
  310MOL0     C41760   3.597  11.479   6.693 -0.1253  0.0046 -0.3873
  310MOL0     C41761   3.627  11.369   6.611 -0.3147 -0.8290  0.1318
  310MOL0     O41762   3.505  11.205   6.371 -0.6729  0.4027 -0.0826
  310MOL0     C41763   3.584  10.974   6.254 -0.6774 -0.1576 -0.0090
  310MOL0     C41764   3.622  10.848   6.208  0.4093 -0.1561 -0.2965
  310MOL0     N41765   3.877  10.423   5.778 -0.1121  0.6818  0.8078
  310MOL0     N41766   3.954  10.403   5.677 -0.4729 -0.0462 -0.3594
  310MOL0     C41767   3.559  10.383   4.538 -0.0059  0.3513 -0.9542
  310MOL0     C41768   3.472  10.426   4.448 -0.2437 -0.3479 -0.0405
  310MOL0     C41769   3.325  10.423   3.978 -0.0505 -0.7602 -0.0236
  310MOL0     C41770   3.372  10.478   3.853 -0.8725  0.6076 -0.3377
  310MOL0     C41771   3.294  10.468   3.736 -0.5897  0.2503  0.4340
  310MOL0     C41772   3.174  10.384   3.737 -0.1171  0.0139 -0.7990
  310MOL0     O41773   3.086  10.352   3.640  1.1345  0.2960 -0.2054
  310MOL0     C41774   3.073  10.444   3.523 -0.3499 -0.3775  0.0205
  310MOL0     C41775   3.135  10.383   3.395  0.2163 -0.1752  1.1475
  310MOL0     C41776   3.083  10.245   3.369  0.1177  0.3360 -1.1522
  310MOL0     C41777   3.149  10.186   3.239  0.6192  0.1684 -0.3589
  310MOL0     C41778   3.293  10.193   3.233  0.3066 -0.5603  1.3441
  310MOL0     C41779   3.408  10.218   3.218 -1.2506 -0.3001  0.1452
  310MOL0     C41780   3.130  10.342   3.856 -0.4349 -0.2936  1.1876
  310MOL0     C41781   3.208  10.352   3.972  0.2423 -0.4374 -0.5350
  310MOL0     C41782   3.166  10.258   4.080  0.2850 -0.6282  0.8093
  310MOL0     H41783   3.542  10.211   4.193  0.9630  3.2613 -1.0779
  310MOL0     H41784   3.692  10.129   4.364 -1.3246 -0.4842 -0.6687
  310MOL0     H41785   3.574  10.130   4.709  0.4937  0.2307  0.3479
  310MOL0     H41786   3.675  10.038   4.612 -1.3907 -0.3098 -0.0572
  310MOL0     H41787   3.877  10.095   4.738  0.3862  0.3741 -0.5178
  310MOL0     H41788   3.759  10.025   4.845 -0.9635 -1.2934 -0.8855
  310MOL0     H41789   3.680  10.225   4.946 -0.3244  4.2630  0.6523
  310MOL0     H41790   3.751  10.329   4.833  1.3545  0.0038 -3.6093
  310MOL0     H41791   3.912  10.145   5.011  1.8046 -1.3480 -1.7984
  310MOL0     H41792   3.976  10.287   4.932 -1.8581  1.1764 -0.9063
  310MOL0     H41793   3.846  10.446   5.063 -1.1895 -0.4394  0.3910
  310MOL0     H41794   3.741  10.321   5.133 -1.7446  2.2298 -1.4590
  310MOL0     H41795   3.986  10.253   5.240  0.3184 -0.5524 -0.8466
  310MOL0     H41796   4.019  10.423   5.176 -4.5210  2.0034 -4.4946
  310MOL0     H41797   3.803  10.324   5.378  1.0445 -0.3769  0.8909
  310MOL0     H41798   3.802  10.489   5.310 -2.0539 -1.7871 -0.4330
  310MOL0     H41799   4.045  10.410   5.453 -0.3572 -0.9771  2.9173
  310MOL0     H41800   3.997  10.566   5.405 -0.0069  0.9332 -0.0645
  310MOL0     H41801   3.705  10.609   5.567 -1.8398 -2.5470 -1.2462
  310MOL0     H41802   3.564  10.514   5.806  1.0708 -4.0393  1.4059
  310MOL0     H41803   3.669  10.488   5.946  1.8607  1.3855  0.2749
  310MOL0     H41804   3.621  10.744   5.772 -5.6798  1.7089  2.1712
  310MOL0     H41805   3.585  10.697   5.944  2.3382  1.0362  0.7048
  310MOL0     H41806   3.741  10.849   5.939 -1.1150 -1.6566  2.3547
  310MOL0     H41807   3.845  10.769   5.832 -3.2915 -1.0607 -2.3694
  310MOL0     H41808   3.949  10.745   6.030  0.3207 -0.4103 -0.7143
  310MOL0     H41809   3.865  10.583   6.000 -2.0294 -1.2665 -0.7935
  310MOL0     H41810   3.959  10.916   6.226  1.3617  0.4351  0.8526
  310MOL0     H41811   3.889  11.115   6.323  0.0751  0.0507 -0.5227
  310MOL0     H41812   3.726  11.527   6.342 -2.2751 -6.3550 -1.4419
  310MOL0     H41813   3.627  11.736   6.495 -1.5563  0.0943  2.0198
  310MOL0     H41814   3.453  11.772   6.896 -1.5812 -1.3578  0.7010
  310MOL0     H41815   3.496  11.610   6.890 -0.5081  0.8667  2.5451
  310MOL0     H41816   3.657  11.734   7.033  0.0880 -0.8306  1.9238
  310MOL0     H41817   3.738  11.662   6.897 -0.4411  0.1326 -0.1905
  310MOL0     H41818   3.726  11.908   6.791 -2.0827  0.9875 -0.6686
  310MOL0     H41819   3.640  11.956   6.923 -0.7431  0.4977 -3.0126
  310MOL0     H41820   3.835  11.919   7.076 -1.4915 -1.6165 -0.1983
  310MOL0     H41821   3.865  12.025   6.943 -0.9941 -0.5031 -1.0517
  310MOL0     H41822   3.973  11.832   6.823 -3.5549  1.2165  1.1738
  310MOL0     H41823   3.968  11.742   6.964  1.8023 -1.1170 -1.8012
  310MOL0     H41824   4.093  12.012   6.955 -3.9819 -0.6773 -0.5825
  310MOL0     H41825   4.098  11.906   7.097  1.1906  2.8328  0.1235
  310MOL0     H41826   4.306  11.919   6.921  0.2315 -0.2540  1.7311
  310MOL0     H41827   4.202  11.801   6.829 -2.6984  0.1790  1.3124
  310MOL0     H41828   4.196  11.649   6.995  2.5601 -2.4102  2.1276
  310MOL0     H41829   4.363  11.667   6.952  1.1256 -0.2415  1.3229
  310MOL0     H41830   3.563  11.444   6.790  0.4970  0.3531 -0.0362
  310MOL0     H41831   3.612  11.281   6.672  1.0202  0.2168  2.0852
  310MOL0     H41832   3.478  10.997   6.248 -0.8429 -0.8614  0.1380
  310MOL0     H41833   3.545  10.783   6.169 -1.4900  0.5186  2.0897
  310MOL0     H41834   3.564  10.417   4.641  2.4955 -2.7783  0.1583
  310MOL0     H41835   3.416  10.517   4.466  1.0752 -0.0438  3.1218
  310MOL0     H41836   3.471  10.518   3.836  1.3490 -4.6685 -1.9163
  310MOL0     H41837   3.338  10.498   3.641  1.5360  2.3211  1.9518
  310MOL0     H41838   3.131  10.536   3.532 -0.9859 -0.1383  2.0985
  310MOL0     H41839   2.966  10.457   3.501 -0.3818  1.1526  0.9692
  310MOL0     H41840   3.244  10.383   3.402  0.3956  1.2416 -0.8018
  310MOL0     H41841   3.121  10.436   3.301 -0.5066 -3.1349 -0.5677
  310MOL0     H41842   2.974  10.247   3.365  0.1556  1.6351 -1.9276
  310MOL0     H41843   3.112  10.176   3.449 -3.7780 -0.2931 -0.0581
  310MOL0     H41844   3.127  10.079   3.235 -1.2585  0.5348 -1.7389
  310MOL0     H41845   3.114  10.230   3.145  3.6241  2.4987 -0.5461
  310MOL0     H41846   3.510  10.236   3.189 -1.0725 -1.0517  0.2843
  310MOL0     H41847   3.042  10.278   3.850 -0.1416 -0.6127  0.2355
  310MOL0     H41848   3.113  10.305   4.163 -0.2161 -1.5454  1.0260
  310MOL0     H41849   3.093  10.182   4.050  1.8946 -2.7248  1.8633
  310MOL0     H41850   3.253  10.204   4.119 -1.1230 -3.1791  0.6174
  311MOL0     O41851  11.191   4.885  10.304  0.0986 -0.2106  0.4232
  311MOL0     C41852  11.236   4.779  10.349  0.1522 -0.2559  0.5123
  311MOL0     O41853  11.330   4.700  10.293  0.3651 -0.8721  0.7516
  311MOL0     C41854  11.350   4.704  10.158 -0.1271  0.5042 -0.3531
  311MOL0     C41855  11.436   4.599  10.109  0.0082 -0.0851 -0.3419
  311MOL0     C41856  11.466   4.584   9.971  0.2374  0.4607 -0.8691
  311MOL0     C41857  11.403   4.666   9.875 -0.6529 -0.0917 -1.4392
  311MOL0     O41858  11.407   4.661   9.735  0.0680  0.3973 -0.1432
  311MOL0     C41859  11.418   4.536   9.676 -0.3889  0.6337  0.2581
  311MOL0     C41860  11.367   4.547   9.533  1.0402  0.4784  1.1703
  311MOL0     C41861  11.462   4.650   9.465  0.5558 -0.0860  0.5250
  311MOL0     C41862  11.406   4.674   9.322 -0.0467 -1.3562 -0.1107
  311MOL0     C41863  11.494   4.782   9.246 -0.7832  0.8041 -0.3380
  311MOL0     C41864  11.434   4.819   9.120 -0.0863  0.2808  0.2504
  311MOL0     C41865  11.432   4.688   9.021  0.3681  0.2638  0.7764
  311MOL0     C41866  11.396   4.729   8.872  0.3798  0.7887  0.4100
  311MOL0     N41867  11.321   4.618   8.806  0.2597  0.1444  1.1462
  311MOL0     C41868  11.188   4.597   8.829 -0.0532  0.4656 -0.7801
  311MOL0     C41869  11.167   4.476   8.763 -0.6021  1.1806  0.6153
  311MOL0     C41870  11.028   4.403   8.747 -0.7634  0.7809  0.0210
  311MOL0     C41871  10.974   4.431   8.608  0.2931 -0.0344 -0.7354
  311MOL0     C41872  10.848   4.348   8.555 -0.2626  0.4704  0.1682
  311MOL0     C41873  10.748   4.304   8.661  0.8041 -0.2593  0.9091
  311MOL0     O41874  10.792   4.202   8.745 -0.0083  0.1642 -0.8991
  311MOL0     C41875  10.832   4.073   8.704 -0.0906 -1.1518  1.0580
  311MOL0     C41876  10.928   4.001   8.771  0.2650  0.0574 -1.2728
  311MOL0     C41877  10.974   3.873   8.731  0.4774 -0.1753  0.1849
  311MOL0     C41878  10.906   3.813   8.633  0.5912 -0.1200  0.2317
  311MOL0     C41879  10.912   3.662   8.600  0.5306 -0.2308  0.3864
  311MOL0     O41880  11.003   3.600   8.688 -0.8501 -0.0691  0.5409
  311MOL0     C41881  11.054   3.472   8.665  0.4854  0.2599  0.3729
  311MOL0     C41882  11.088   3.400   8.776  0.1278 -0.2048  1.3084
  311MOL0     C41883  11.126   3.271   8.771  0.1700  0.2775  0.6799
  311MOL0     C41884  11.134   3.204   8.653 -0.1759  0.1910 -0.3789
  311MOL0     O41885  11.182   3.082   8.638  0.7520  1.0888 -0.8086
  311MOL0     C41886  11.270   3.027   8.738 -0.9028  0.5075  0.3048
  311MOL0     C41887  11.299   2.885   8.692  0.2683  1.3845 -1.3385
  311MOL0     C41888  11.219   2.777   8.756  0.2315  0.6746  0.3768
  311MOL0     C41889  11.274   2.742   8.886 -0.4302 -0.3988 -0.4892
  311MOL0     C41890  11.213   2.622   8.956  0.1809  0.8639  0.0338
  311MOL0     C41891  11.290   2.565   9.075  0.4477 -0.4032 -0.1929
  311MOL0     C41892  11.203   2.457   9.151  1.0993 -0.8986 -0.1832
  311MOL0     C41893  11.285   2.384   9.255 -0.3149 -1.1651 -0.2363
  311MOL0    Cl41894  11.182   2.263   9.324  0.0668 -0.3318  0.2764
  311MOL0     C41895  11.109   3.274   8.532 -0.6225 -0.4556 -0.1482
  311MOL0     C41896  11.075   3.407   8.538  1.2984  0.4845 -0.0201
  311MOL0     O41897  10.840   3.614   8.513  0.1870  1.1379  0.2972
  311MOL0     C41898  10.807   3.887   8.563  0.0020 -0.5160  0.9713
  311MOL0     C41899  10.776   4.020   8.588  0.5474  0.4755  1.0170
  311MOL0     N41900  11.286   4.430   8.705  0.3417  0.2487 -0.3557
  311MOL0     N41901  11.374   4.528   8.726  0.2451  0.5748  0.2608
  311MOL0     C41902  11.319   4.770   9.927  0.9436  0.2298  0.2212
  311MOL0     C41903  11.291   4.781  10.061  0.5570  0.0549  0.0606
  311MOL0     C41904  11.191   4.743  10.483 -0.6538 -0.9713  0.1495
  311MOL0     C41905  11.214   4.614  10.522 -0.7209 -0.2148  0.4423
  311MOL0     C41906  11.171   4.560  10.643  0.3547 -0.2866 -0.2762
  311MOL0     C41907  11.104   4.636  10.737  0.2832  0.0559  0.1767
  311MOL0     O41908  11.072   4.580  10.861  0.1163 -0.1920 -0.7023
  311MOL0     C41909  11.103   4.664  10.968 -0.1873 -0.8758 -0.6255
  311MOL0     C41910  11.045   4.573  11.077 -0.6067  0.3852  0.1693
  311MOL0     C41911  10.889   4.554  11.081  0.3721  0.3992  0.0330
  311MOL0     C41912  10.850   4.490  11.214  0.7412 -0.3825 -0.8264
  311MOL0     C41913  10.750   4.565  11.290  0.2525  0.0100 -0.5397
  311MOL0     C41914  10.677   4.639  11.350 -0.1294  0.4497 -0.6870
  311MOL0     C41915  11.074   4.771  10.692  0.3005  0.2858  0.1459
  311MOL0     C41916  11.121   4.824  10.575 -0.6958  0.4291  0.3113
  311MOL0     C41917  11.080   4.974  10.556 -0.0270 -0.1631 -0.2431
  311MOL0     H41918  11.477   4.521  10.174  0.4179  1.8115  1.7952
  311MOL0     H41919  11.537   4.509   9.938  0.3980 -0.2484  0.9596
  311MOL0     H41920  11.526   4.526   9.662 -0.5203  2.1471 -2.7159
  311MOL0     H41921  11.380   4.445   9.723  1.0412 -1.9874 -3.2067
  311MOL0     H41922  11.264   4.582   9.543  1.6785  1.5975  6.4335
  311MOL0     H41923  11.371   4.452   9.479  1.9841  1.3360 -0.3474
  311MOL0     H41924  11.565   4.615   9.460  0.2134 -1.0129 -0.7354
  311MOL0     H41925  11.443   4.741   9.521 -2.4977 -0.4692  0.3034
  311MOL0     H41926  11.396   4.581   9.266 -2.5872 -0.5739 -1.0888
  311MOL0     H41927  11.306   4.715   9.339  0.9583  2.0136 -1.5687
  311MOL0     H41928  11.518   4.874   9.300  3.1458 -0.6174  0.6302
  311MOL0     H41929  11.588   4.732   9.223 -2.8890 -2.2618 -3.4500
  311MOL0     H41930  11.335   4.864   9.130 -0.8409 -1.0517 -0.9554
  311MOL0     H41931  11.506   4.886   9.072  0.4758 -0.2887  0.2856
  311MOL0     H41932  11.371   4.606   9.059 -0.5335  1.0485  1.0410
  311MOL0     H41933  11.533   4.644   9.015 -0.7992 -2.5354 -0.4497
  311MOL0     H41934  11.320   4.806   8.883  0.3114  0.6969  0.5996
  311MOL0     H41935  11.479   4.767   8.812  0.4957  1.9361  1.2695
  311MOL0     H41936  11.117   4.658   8.883  0.9435  0.9829 -0.0344
  311MOL0     H41937  11.047   4.296   8.760 -0.2322  0.8421 -0.1995
  311MOL0     H41938  10.978   4.454   8.830  0.9442 -0.9635  2.2410
  311MOL0     H41939  10.947   4.536   8.601  2.8512  0.6346 -1.7041
  311MOL0     H41940  11.053   4.420   8.533  0.7431  0.1651 -0.2985
  311MOL0     H41941  10.886   4.259   8.504  2.0608  0.1836  2.2383
  311MOL0     H41942  10.786   4.407   8.488 -3.0830 -0.3934  1.8466
  311MOL0     H41943  10.655   4.279   8.611 -0.4265  1.6223  2.1035
  311MOL0     H41944  10.708   4.386   8.722  0.3203  0.8531 -0.8317
  311MOL0     H41945  10.963   4.039   8.866 -0.6341  1.7871 -1.5848
  311MOL0     H41946  11.046   3.829   8.799  1.7447  4.0041  1.9063
  311MOL0     H41947  11.080   3.444   8.876  1.5768  1.7387  0.6341
  311MOL0     H41948  11.142   3.220   8.866 -0.3576 -0.4683  0.3838
  311MOL0     H41949  11.363   3.082   8.750  0.2338 -1.5327  1.4199
  311MOL0     H41950  11.230   3.014   8.840  1.0605 -2.4678  0.7939
  311MOL0     H41951  11.282   2.876   8.584  0.9509 -4.2323 -1.2812
  311MOL0     H41952  11.405   2.865   8.713 -0.2300 -0.3759 -0.2927
  311MOL0     H41953  11.110   2.792   8.763  0.1917  1.0664 -0.7575
  311MOL0     H41954  11.234   2.693   8.688  0.6316 -0.6185  2.0008
  311MOL0     H41955  11.257   2.830   8.949  1.9093 -1.7270  2.2257
  311MOL0     H41956  11.383   2.728   8.883  0.2991  3.5995  1.0491
  311MOL0     H41957  11.207   2.545   8.879 -0.6814  1.2361 -0.2776
  311MOL0     H41958  11.114   2.658   8.986 -0.1596  0.4880 -0.6160
  311MOL0     H41959  11.377   2.522   9.023  0.8252  1.4535 -1.1931
  311MOL0     H41960  11.338   2.649   9.126  2.6322 -0.0724 -2.5859
  311MOL0     H41961  11.157   2.387   9.081 -2.8033  1.0302  0.2013
  311MOL0     H41962  11.116   2.504   9.197  1.9728  0.4103  0.1867
  311MOL0     H41963  11.373   2.344   9.204 -0.7618 -2.2017 -0.2203
  311MOL0     H41964  11.321   2.439   9.342  2.2232 -1.8167 -0.8080
  311MOL0     H41965  11.134   3.229   8.437 -2.5343 -3.0399  0.4698
  311MOL0     H41966  11.058   3.467   8.450 -2.1274 -0.0924  0.0861
  311MOL0     H41967  10.750   3.845   8.480  0.3148  0.6109  0.1547
  311MOL0     H41968  10.696   4.065   8.531  0.6830 -1.0335 -0.4290
  311MOL0     H41969  11.252   4.827   9.863 -0.2599 -2.1339 -0.7343
  311MOL0     H41970  11.206   4.843  10.086  0.4695 -0.5870  1.5000
  311MOL0     H41971  11.267   4.545  10.458 -0.4047  0.6248 -0.2206
  311MOL0     H41972  11.188   4.454  10.659  2.8450 -0.0344 -0.8542
  311MOL0     H41973  11.055   4.761  10.953  0.2091 -0.8690 -1.9405
  311MOL0     H41974  11.206   4.696  10.987 -1.3405  3.4154 -0.5671
  311MOL0     H41975  11.083   4.620  11.168  1.3863  0.6701 -0.7755
  311MOL0     H41976  11.092   4.475  11.078  2.2545  1.5230 -3.3420
  311MOL0     H41977  10.861   4.479  11.006  1.7844 -3.2769  2.9062
  311MOL0     H41978  10.837   4.647  11.054 -1.7137 -0.9419 -0.8985
  311MOL0     H41979  10.807   4.391  11.200  1.4651 -0.7327 -0.6407
  311MOL0     H41980  10.930   4.477  11.288 -2.9368 -3.2989  3.1096
  311MOL0     H41981  10.598   4.691  11.401 -1.0483 -0.1145 -1.4877
  311MOL0     H41982  11.010   4.844  10.741  0.5101  2.0828 -2.0802
  311MOL0     H41983  10.986   4.979  10.502 -0.5035  0.8685  0.6492
  311MOL0     H41984  11.073   5.033  10.648  2.0376  0.5645 -0.4881
  311MOL0     H41985  11.161   5.025  10.503  0.9045  0.6397  1.8389
  312MOL0     O41986   0.741   4.102   4.548 -0.4242 -0.2406  0.9570
  312MOL0     C41987   0.689   4.031   4.627 -0.4474  0.8666  0.5030
  312MOL0     O41988   0.618   4.072   4.730  0.4402 -0.1469 -0.1627
  312MOL0     C41989   0.613   4.214   4.755  0.0684  0.3645 -0.0291
  312MOL0     C41990   0.515   4.292   4.690 -0.1686  0.4241  0.2738
  312MOL0     C41991   0.512   4.428   4.721 -0.4447  0.3098  0.2660
  312MOL0     C41992   0.603   4.482   4.808  0.1728 -0.4171  0.0091
  312MOL0     O41993   0.588   4.614   4.848  0.5743  0.0265  0.9875
  312MOL0     C41994   0.670   4.704   4.766 -0.1447 -0.0951 -0.3620
  312MOL0     C41995   0.616   4.846   4.814  0.0213  0.1557  0.6055
  312MOL0     C41996   0.484   4.881   4.749 -0.9434  0.1601  0.0798
  312MOL0     C41997   0.401   4.992   4.823  0.0515  0.1561 -0.1565
  312MOL0     C41998   0.336   4.946   4.950 -0.6799  0.8656 -0.2707
  312MOL0     C41999   0.328   5.040   5.071 -0.1108  0.0295  0.0505
  312MOL0     C42000   0.260   5.172   5.018 -1.4118  1.2614  0.0657
  312MOL0     C42001   0.135   5.203   5.092 -0.2351 -0.1801  0.4368
  312MOL0     N42002   0.072   5.311   5.009  0.0335  0.3772  0.3858
  312MOL0     C42003   0.117   5.435   4.972  0.5378 -0.5892  0.9474
  312MOL0     C42004   0.013   5.497   4.903  0.4470  0.3433 -0.3401
  312MOL0     C42005   0.030   5.625   4.838  0.2431  0.2042  0.1894
  312MOL0     C42006  -0.086   5.659   4.754  0.3252  0.0460 -0.3928
  312MOL0     C42007  -0.080   5.807   4.716 -0.4812 -0.9212 -0.1536
  312MOL0     C42008  -0.223   5.859   4.677 -0.2458  0.2201  0.5201
  312MOL0     O42009  -0.275   5.793   4.559 -0.5612  0.1873 -0.1013
  312MOL0     C42010  -0.405   5.785   4.542  0.1553 -0.0994  0.7718
  312MOL0     C42011  -0.471   5.838   4.428 -0.0600  0.6273 -1.0546
  312MOL0     C42012  -0.608   5.823   4.409 -0.4118  0.0435 -0.7771
  312MOL0     C42013  -0.690   5.751   4.504  0.1742 -0.1026 -0.1938
  312MOL0     C42014  -0.822   5.713   4.450 -0.4267  0.0281  0.2633
  312MOL0     O42015  -0.873   5.792   4.352 -0.3983 -0.2446  1.5278
  312MOL0     C42016  -1.005   5.766   4.317 -0.8361 -0.0690  0.7237
  312MOL0     C42017  -1.028   5.761   4.175  0.2170 -1.3160 -0.5236
  312MOL0     C42018  -1.164   5.755   4.122 -0.3784  0.0392  0.4981
  312MOL0     C42019  -1.270   5.739   4.218  0.6204 -0.5606  0.1417
  312MOL0     O42020  -1.401   5.735   4.180  0.1490  0.3353  0.0161
  312MOL0     C42021  -1.427   5.633   4.078 -0.2302  0.4492 -0.2471
  312MOL0     C42022  -1.544   5.681   4.000 -0.3747 -0.1800 -0.4573
  312MOL0     C42023  -1.476   5.783   3.910 -0.3801  0.3994 -0.2067
  312MOL0     C42024  -1.553   5.923   3.917 -0.0593  1.2695 -0.1756
  312MOL0     C42025  -1.516   6.018   3.813  0.2800  0.8490  0.2084
  312MOL0     C42026  -1.564   5.979   3.670  0.0563 -0.8866 -0.3749
  312MOL0     C42027  -1.497   6.071   3.563 -0.5752 -0.3144  0.2482
  312MOL0     C42028  -1.564   6.066   3.426  0.3597 -0.2290  0.5814
  312MOL0    Cl42029  -1.459   6.137   3.307 -0.6049  0.0823  0.0624
  312MOL0     C42030  -1.241   5.726   4.353 -0.8849 -0.1243 -0.2509
  312MOL0     C42031  -1.111   5.753   4.406  0.1771 -0.3699 -0.2375
  312MOL0     O42032  -0.874   5.618   4.503 -0.0807  0.2323 -0.7061
  312MOL0     C42033  -0.636   5.695   4.621 -1.5436  1.0644  0.9622
  312MOL0     C42034  -0.494   5.708   4.636 -0.0433  0.1003  0.4796
  312MOL0     N42035  -0.093   5.413   4.895 -0.1139 -0.2273 -0.2727
  312MOL0     N42036  -0.065   5.302   4.966  0.1473 -0.9940  0.4242
  312MOL0     C42037   0.698   4.400   4.879  0.4455  0.0355 -0.6554
  312MOL0     C42038   0.702   4.267   4.850 -1.0312 -0.8406 -0.4801
  312MOL0     C42039   0.698   3.887   4.599  0.3618  0.8532 -0.8351
  312MOL0     C42040   0.591   3.802   4.637 -0.3565  0.2398 -0.1886
  312MOL0     C42041   0.603   3.669   4.619  0.8398  0.3090  0.4444
  312MOL0     C42042   0.711   3.602   4.563  0.2699 -0.5867  0.6392
  312MOL0     O42043   0.734   3.470   4.546 -0.0158  0.5695  1.0144
  312MOL0     C42044   0.650   3.370   4.605 -0.4245 -0.0552  0.4006
  312MOL0     C42045   0.537   3.335   4.513  0.4412 -0.5040  0.0630
  312MOL0     C42046   0.584   3.326   4.358  0.2892 -0.1804 -1.3491
  312MOL0     C42047   0.503   3.222   4.282  0.8364 -0.1162 -0.2259
  312MOL0     C42048   0.565   3.211   4.148 -0.2857 -0.4426 -0.0718
  312MOL0     C42049   0.618   3.216   4.036 -0.0337  0.7468 -0.9406
  312MOL0     C42050   0.814   3.678   4.519 -0.3642 -0.9432 -1.5761
  312MOL0     C42051   0.813   3.822   4.540  0.2724 -0.7123 -0.1924
  312MOL0     C42052   0.936   3.891   4.501  1.1955  0.6463 -0.5091
  312MOL0     H42053   0.455   4.257   4.607  0.9696  1.4787 -1.0478
  312MOL0     H42054   0.447   4.505   4.681  0.5487  1.2813  0.4629
  312MOL0     H42055   0.774   4.702   4.801 -0.4084  0.2279  0.4445
  312MOL0     H42056   0.656   4.683   4.659 -1.5877  2.1146 -0.6707
  312MOL0     H42057   0.689   4.918   4.775 -0.4603  1.1500  1.4890
  312MOL0     H42058   0.607   4.861   4.922 -2.8903  0.6247  0.3670
  312MOL0     H42059   0.434   4.785   4.730  0.6051 -0.2084 -2.5049
  312MOL0     H42060   0.505   4.919   4.649  3.7613 -1.0093  0.4012
  312MOL0     H42061   0.469   5.075   4.843 -0.3115  0.3307  0.3653
  312MOL0     H42062   0.329   5.036   4.754  2.6552  2.4423 -1.6225
  312MOL0     H42063   0.230   4.927   4.929 -0.3415 -1.6034 -0.0426
  312MOL0     H42064   0.383   4.851   4.978 -2.2496 -0.9126 -3.1438
  312MOL0     H42065   0.273   4.998   5.156 -1.8310  0.8181 -0.6225
  312MOL0     H42066   0.424   5.083   5.101  0.5228 -1.5335  0.3769
  312MOL0     H42067   0.243   5.177   4.910  2.0639 -0.4456 -0.6911
  312MOL0     H42068   0.332   5.253   5.035 -3.1252  2.5242  1.7311
  312MOL0     H42069   0.073   5.116   5.114  1.6868 -1.1567  2.3626
  312MOL0     H42070   0.172   5.245   5.186  1.4474 -1.8422  0.5598
  312MOL0     H42071   0.208   5.490   4.993  0.8137 -0.8718  0.5035
  312MOL0     H42072   0.035   5.704   4.913  5.0508  0.6606 -0.3040
  312MOL0     H42073   0.119   5.634   4.776  2.2792 -1.2161  2.7355
  312MOL0     H42074  -0.083   5.598   4.663 -4.7743 -2.1390  0.5761
  312MOL0     H42075  -0.185   5.635   4.793 -0.0313  2.5965  0.4807
  312MOL0     H42076  -0.012   5.833   4.635 -2.7599  1.0100 -1.5614
  312MOL0     H42077  -0.048   5.861   4.806  4.3687  0.0180 -2.1269
  312MOL0     H42078  -0.236   5.967   4.672 -0.7159  0.1071 -1.1401
  312MOL0     H42079  -0.294   5.833   4.756 -1.3908  0.4234 -0.4335
  312MOL0     H42080  -0.414   5.907   4.366 -1.4487  4.0319  1.1843
  312MOL0     H42081  -0.647   5.871   4.320  4.0502  1.8015 -2.1076
  312MOL0     H42082  -0.937   5.760   4.116  0.9904  1.2272  0.4821
  312MOL0     H42083  -1.173   5.744   4.014  2.7942 -3.7128  0.3953
  312MOL0     H42084  -1.347   5.613   4.007  0.0142 -3.7811  0.9499
  312MOL0     H42085  -1.456   5.542   4.133  2.0273  0.6989  1.5016
  312MOL0     H42086  -1.587   5.595   3.946 -1.3688 -0.2693  0.4350
  312MOL0     H42087  -1.619   5.724   4.066  2.9359  2.7973  1.7062
  312MOL0     H42088  -1.373   5.807   3.936  1.2509 -4.0222 -1.7354
  312MOL0     H42089  -1.484   5.740   3.810 -3.8123 -1.6204  0.7684
  312MOL0     H42090  -1.532   5.963   4.017 -0.5660  0.1101  0.4201
  312MOL0     H42091  -1.661   5.910   3.901 -0.0221 -0.6126  0.8367
  312MOL0     H42092  -1.408   6.034   3.809  0.1618  1.4794 -0.5155
  312MOL0     H42093  -1.557   6.117   3.838 -1.4417  0.5627 -1.2491
  312MOL0     H42094  -1.554   5.872   3.649  1.0443 -1.4542  2.6331
  312MOL0     H42095  -1.668   6.013   3.661  0.7775  0.9432 -3.8941
  312MOL0     H42096  -1.394   6.037   3.549 -0.2298 -0.5301  2.7995
  312MOL0     H42097  -1.502   6.178   3.587 -0.4962 -0.5094  1.1531
  312MOL0     H42098  -1.575   5.963   3.392  0.4717  0.9957 -3.7450
  312MOL0     H42099  -1.656   6.124   3.436  1.4355  1.2322  2.6483
  312MOL0     H42100  -1.320   5.703   4.424  0.0063 -3.4115 -0.1747
  312MOL0     H42101  -1.105   5.743   4.513 -3.5312 -1.8648 -0.0006
  312MOL0     H42102  -0.687   5.637   4.697  1.4674 -0.2848  2.1433
  312MOL0     H42103  -0.433   5.661   4.713  0.7507 -1.8384 -1.2346
  312MOL0     H42104   0.762   4.458   4.944 -0.3992  0.4971 -0.2200
  312MOL0     H42105   0.754   4.196   4.915 -1.1589  0.9739  1.7328
  312MOL0     H42106   0.508   3.840   4.695  1.8346  2.3522  1.7599
  312MOL0     H42107   0.524   3.604   4.655  1.4299  1.3190  3.9283
  312MOL0     H42108   0.618   3.408   4.703  0.5074  0.6595  0.4384
  312MOL0     H42109   0.710   3.279   4.616  0.0664  0.3175  0.8629
  312MOL0     H42110   0.462   3.411   4.533 -1.0117 -2.1938  1.4199
  312MOL0     H42111   0.500   3.233   4.531  0.9198 -0.8226 -0.7157
  312MOL0     H42112   0.690   3.297   4.360 -0.2183 -2.3977  1.4826
  312MOL0     H42113   0.565   3.427   4.321 -5.1056 -0.0264  0.9144
  312MOL0     H42114   0.531   3.127   4.330 -0.3395 -0.3718 -0.0051
  312MOL0     H42115   0.395   3.237   4.277  0.9095  0.1608 -1.5287
  312MOL0     H42116   0.657   3.209   3.937 -0.9193 -0.5900 -1.2183
  312MOL0     H42117   0.899   3.631   4.471  0.2435 -0.1959 -1.2523
  312MOL0     H42118   0.937   3.989   4.550 -0.3292  0.0760  0.7586
  312MOL0     H42119   1.027   3.840   4.535  0.9810  1.9327  2.2926
  312MOL0     H42120   0.936   3.905   4.393 -3.5968  1.3117 -0.6586
  313MOL0     O42121   0.744   7.851   7.076 -0.1082 -0.2128 -0.5776
  313MOL0     C42122   0.737   7.970   7.056  0.1242 -0.2516  0.8626
  313MOL0     O42123   0.630   8.030   6.989 -0.0182 -0.5971 -0.5138
  313MOL0     C42124   0.545   7.948   6.914  1.0876 -0.2452  0.4592
  313MOL0     C42125   0.426   8.008   6.885  0.2495  1.0516 -0.2049
  313MOL0     C42126   0.337   7.948   6.799 -0.0047  0.4143  0.3746
  313MOL0     C42127   0.358   7.830   6.734  0.1453  0.0723 -0.3723
  313MOL0     O42128   0.259   7.793   6.650  0.0178  0.3492 -0.7616
  313MOL0     C42129   0.267   7.657   6.597  0.1103 -0.6825  0.1713
  313MOL0     C42130   0.142   7.638   6.524 -0.3198 -0.8670 -0.1249
  313MOL0     C42131   0.149   7.687   6.379  0.4290  1.1190  0.1679
  313MOL0     C42132   0.001   7.695   6.337  0.1257 -0.3784  0.7869
  313MOL0     C42133  -0.023   7.732   6.181 -0.1200 -0.1272 -0.2839
  313MOL0     C42134   0.006   7.615   6.085  0.5103 -0.3653  0.2150
  313MOL0     C42135  -0.005   7.646   5.936 -0.7911  0.2840  0.9946
  313MOL0     C42136   0.124   7.726   5.899 -0.4419  0.5381  0.3075
  313MOL0     N42137   0.232   7.633   5.899 -1.2430  0.0598  0.5664
  313MOL0     C42138   0.358   7.666   5.947  0.4868  0.1499  0.1844
  313MOL0     C42139   0.449   7.579   5.880 -0.7421 -0.0221 -0.1459
  313MOL0     C42140   0.600   7.591   5.874  0.1818  0.1240 -0.8801
  313MOL0     C42141   0.682   7.475   5.937  0.2906 -0.7806 -0.0895
  313MOL0     C42142   0.682   7.467   6.095 -0.1555  0.3765  0.0248
  313MOL0     C42143   0.774   7.573   6.166  0.1900  1.6068  0.5780
  313MOL0     O42144   0.756   7.564   6.303 -0.2676  0.4519 -0.6945
  313MOL0     C42145   0.835   7.658   6.373  1.2599 -0.0390  0.7170
  313MOL0     C42146   0.969   7.684   6.356 -0.1547 -0.4105 -0.0117
  313MOL0     C42147   1.036   7.786   6.429  0.1029  0.4734 -0.5327
  313MOL0     C42148   0.965   7.865   6.537 -1.0412 -0.4402  0.7397
  313MOL0     C42149   1.042   7.965   6.620 -0.5346  0.6090 -0.3161
  313MOL0     O42150   1.183   7.950   6.640  0.9942 -0.3418 -0.6020
  313MOL0     C42151   1.239   8.037   6.723 -0.5542 -0.8408  0.6080
  313MOL0     C42152   1.229   8.037   6.866 -0.0313  0.1161 -0.4969
  313MOL0     C42153   1.323   8.108   6.949 -0.2627  0.9381  0.1405
  313MOL0     C42154   1.425   8.177   6.891  0.3305 -0.1261 -0.1869
  313MOL0     O42155   1.503   8.264   6.968  0.8884  0.3619 -0.3137
  313MOL0     C42156   1.450   8.401   6.960 -0.2423 -0.6475  0.0445
  313MOL0     C42157   1.552   8.474   6.865  0.1637  0.5120  0.0897
  313MOL0     C42158   1.461   8.530   6.748  0.4637 -0.3822 -0.3401
  313MOL0     C42159   1.549   8.603   6.643  0.3596 -0.3596 -0.3451
  313MOL0     C42160   1.468   8.670   6.534 -0.3581  1.0001  0.1310
  313MOL0     C42161   1.530   8.740   6.416  0.1650  0.3444 -0.1716
  313MOL0     C42162   1.636   8.656   6.346  1.1138 -0.4180  0.1418
  313MOL0     C42163   1.582   8.535   6.279  0.4641 -0.0169  0.7713
  313MOL0    Cl42164   1.452   8.584   6.168  0.1712 -0.1868 -0.3823
  313MOL0     C42165   1.437   8.171   6.751  0.4626  0.0862  0.2347
  313MOL0     C42166   1.356   8.094   6.664  0.4856  0.7509 -0.3489
  313MOL0     O42167   0.970   8.046   6.684  0.5037 -0.0057  0.3938
  313MOL0     C42168   0.831   7.837   6.551 -0.5315  0.6100  0.1892
  313MOL0     C42169   0.768   7.736   6.470 -0.3085 -0.0457  0.4741
  313MOL0     N42170   0.369   7.504   5.793  0.1054  0.6031 -0.2691
  313MOL0     N42171   0.242   7.532   5.808 -0.4861 -0.0221 -0.2860
  313MOL0     C42172   0.488   7.775   6.749 -0.3124 -0.7496 -0.3460
  313MOL0     C42173   0.574   7.830   6.840  0.3222  0.1124  0.7604
  313MOL0     C42174   0.863   8.052   7.091  0.7314  0.3347  0.4096
  313MOL0     C42175   0.896   8.145   6.997  0.5465  0.6768  1.0260
  313MOL0     C42176   0.991   8.238   7.017 -0.6700 -0.1179  1.3356
  313MOL0     C42177   1.061   8.235   7.137  0.2072  0.0845  0.5227
  313MOL0     O42178   1.158   8.329   7.145 -0.4473 -0.6775 -0.9693
  313MOL0     C42179   1.197   8.389   7.270  0.6360  0.8359 -0.3924
  313MOL0     C42180   1.070   8.452   7.340 -0.5201  0.1711  0.2222
  313MOL0     C42181   1.106   8.545   7.460  0.0999 -0.5527  0.0745
  313MOL0     C42182   1.207   8.507   7.569 -0.1312  0.6239 -0.3908
  313MOL0     C42183   1.253   8.619   7.645  1.1147 -1.0658  0.4131
  313MOL0     C42184   1.291   8.716   7.713 -0.3358  0.4580 -0.8613
  313MOL0     C42185   1.056   8.112   7.216  1.2053  0.1252  0.4041
  313MOL0     C42186   0.946   8.033   7.206 -0.4340  0.6213 -0.9336
  313MOL0     C42187   0.913   7.925   7.314  0.3660  0.7755  0.2021
  313MOL0     H42188   0.413   8.112   6.915 -0.0725  0.7674  0.6690
  313MOL0     H42189   0.239   7.987   6.774 -0.3668 -1.8285 -2.0745
  313MOL0     H42190   0.353   7.648   6.530 -3.0520  2.5377 -4.9517
  313MOL0     H42191   0.261   7.586   6.681  2.0892 -0.4487  0.5514
  313MOL0     H42192   0.063   7.688   6.582  0.1961 -0.3362  0.1310
  313MOL0     H42193   0.116   7.533   6.540  3.2918 -1.8987 -0.1832
  313MOL0     H42194   0.203   7.614   6.317  2.0213  3.2641 -1.1527
  313MOL0     H42195   0.202   7.783   6.370  2.5858  0.0252  0.3957
  313MOL0     H42196  -0.046   7.597   6.342 -2.1576  0.5025 -1.3530
  313MOL0     H42197  -0.045   7.767   6.406 -1.2256 -0.0025 -0.4601
  313MOL0     H42198  -0.130   7.755   6.174  0.3517  2.0629 -1.3105
  313MOL0     H42199   0.023   7.826   6.151  0.2659 -0.5790 -1.1649
  313MOL0     H42200   0.106   7.572   6.097  1.0802  1.4928  3.2265
  313MOL0     H42201  -0.068   7.538   6.108 -0.7448  0.5650 -0.5995
  313MOL0     H42202  -0.089   7.713   5.917  1.2890  2.8842  0.2867
  313MOL0     H42203  -0.015   7.556   5.875  4.9642  0.3394 -0.6921
  313MOL0     H42204   0.124   7.781   5.804  2.7135 -1.5963 -1.0930
  313MOL0     H42205   0.150   7.796   5.979 -1.9442  1.1942  0.2533
  313MOL0     H42206   0.377   7.741   6.024  0.2687 -0.9938  1.3977
  313MOL0     H42207   0.635   7.621   5.774 -1.8974  2.7571 -0.9393
  313MOL0     H42208   0.631   7.678   5.932  0.9235 -0.4039 -0.4663
  313MOL0     H42209   0.634   7.385   5.899 -0.4798  0.0828 -1.2523
  313MOL0     H42210   0.781   7.474   5.893  0.3802 -0.8948  0.1137
  313MOL0     H42211   0.700   7.362   6.121  1.5110  0.4307 -0.7808
  313MOL0     H42212   0.576   7.491   6.107 -1.2781 -2.6092 -2.4289
  313MOL0     H42213   0.734   7.672   6.141  0.7438  2.0956  1.5785
  313MOL0     H42214   0.880   7.556   6.145 -0.3280  0.7757 -1.6863
  313MOL0     H42215   1.024   7.629   6.280 -4.1635 -1.9166 -2.1031
  313MOL0     H42216   1.138   7.818   6.412 -0.5242  3.4228  0.6216
  313MOL0     H42217   1.145   7.992   6.918 -0.2882  2.6532  1.4529
  313MOL0     H42218   1.315   8.110   7.057 -1.7905 -0.4945  0.0990
  313MOL0     H42219   1.344   8.405   6.934  0.0617  0.7601 -1.1252
  313MOL0     H42220   1.456   8.444   7.060 -0.6532 -0.2453 -0.1000
  313MOL0     H42221   1.607   8.552   6.917  1.8081 -0.7888  0.4043
  313MOL0     H42222   1.631   8.408   6.826  1.5053  0.8331  2.1431
  313MOL0     H42223   1.408   8.446   6.702  0.8235 -0.3914 -0.7464
  313MOL0     H42224   1.382   8.598   6.780  1.0004 -0.0073  0.2235
  313MOL0     H42225   1.632   8.545   6.601  1.3255 -2.9241  4.3622
  313MOL0     H42226   1.590   8.687   6.700  1.2681 -0.2878 -1.0687
  313MOL0     H42227   1.405   8.738   6.593  2.8347  1.4868  3.3172
  313MOL0     H42228   1.426   8.589   6.474  4.2020  1.0562 -3.7211
  313MOL0     H42229   1.455   8.794   6.358  0.9333  0.1796 -1.3499
  313MOL0     H42230   1.588   8.824   6.456 -1.9936  1.8477 -0.0581
  313MOL0     H42231   1.717   8.627   6.413  1.6970  0.6376 -0.0837
  313MOL0     H42232   1.669   8.724   6.266 -1.7800 -1.1201 -1.8196
  313MOL0     H42233   1.658   8.486   6.217 -0.2493  1.5430 -1.4881
  313MOL0     H42234   1.541   8.465   6.352  0.5229  0.0223  0.8415
  313MOL0     H42235   1.519   8.226   6.705 -0.8335  1.5662 -0.3574
  313MOL0     H42236   1.364   8.087   6.556 -1.6890  0.9414 -0.5464
  313MOL0     H42237   0.777   7.890   6.629 -2.1344 -1.0186  0.2445
  313MOL0     H42238   0.660   7.729   6.485 -0.3775  1.8364  1.1838
  313MOL0     H42239   0.504   7.675   6.707  0.2824 -2.4791  3.5577
  313MOL0     H42240   0.669   7.779   6.852  0.3717 -0.2549 -0.8998
  313MOL0     H42241   0.846   8.152   6.902  3.4956  2.7039 -0.5311
  313MOL0     H42242   1.019   8.314   6.945 -1.2940  2.2882  3.4806
  313MOL0     H42243   1.267   8.471   7.252  1.4775  0.3611  0.5990
  313MOL0     H42244   1.249   8.313   7.331  0.4252  0.8904 -0.1431
  313MOL0     H42245   1.004   8.375   7.382  1.4523 -1.0848  1.1272
  313MOL0     H42246   1.014   8.516   7.270  0.8831  2.3326  0.9754
  313MOL0     H42247   1.019   8.590   7.508 -1.0914 -2.1755 -0.4720
  313MOL0     H42248   1.152   8.624   7.400 -2.0371 -0.4261 -1.4667
  313MOL0     H42249   1.152   8.443   7.639 -1.8401  1.7025 -0.6899
  313MOL0     H42250   1.292   8.448   7.532  0.1688  1.5662 -1.2416
  313MOL0     H42251   1.324   8.780   7.791 -0.0856  1.6275 -1.8948
  313MOL0     H42252   1.120   8.087   7.300  0.6423 -2.1295  0.2351
  313MOL0     H42253   0.964   7.940   7.410  0.4804 -0.9554  0.4505
  313MOL0     H42254   0.807   7.934   7.340  0.3277 -1.0513  0.8091
  313MOL0     H42255   0.940   7.833   7.261  0.8185  1.8138 -1.4141
  314MOL0     O42256   9.473   6.307   3.688  0.2194  0.0161  0.0608
  314MOL0     C42257   9.493   6.182   3.703 -0.5936  0.2831  0.5680
  314MOL0     O42258   9.612   6.130   3.737 -0.3142  0.1557  0.3343
  314MOL0     C42259   9.697   6.223   3.779 -0.0394 -0.0659 -0.1425
  314MOL0     C42260   9.773   6.304   3.694 -0.1043 -0.1663  0.8920
  314MOL0     C42261   9.846   6.405   3.757 -0.7646 -0.2532  0.0154
  314MOL0     C42262   9.851   6.436   3.896  0.4353  0.4845  0.1290
  314MOL0     O42263   9.912   6.535   3.962  0.0743 -0.0904  1.1489
  314MOL0     C42264  10.008   6.611   3.887 -0.6790 -1.2474  0.9498
  314MOL0     C42265  10.046   6.739   3.962 -0.2732 -0.1121 -0.3222
  314MOL0     C42266   9.928   6.843   3.968 -0.1740 -0.1869  0.8128
  314MOL0     C42267   9.958   6.971   4.042 -1.0342  0.3134  0.4194
  314MOL0     C42268   9.842   7.065   4.028  0.1825  0.8852 -0.1038
  314MOL0     C42269   9.841   7.176   4.135 -0.2115 -0.0376  0.4877
  314MOL0     C42270   9.701   7.252   4.130  0.4625 -0.1879 -0.1887
  314MOL0     C42271   9.709   7.403   4.158 -0.0956  0.0224  0.5707
  314MOL0     N42272   9.773   7.482   4.054  0.1753 -0.0161  0.1504
  314MOL0     C42273   9.725   7.489   3.924 -0.4807 -0.1429 -0.5604
  314MOL0     C42274   9.791   7.592   3.863 -0.1791  0.4234  0.6159
  314MOL0     C42275   9.785   7.628   3.719  0.1385 -0.1375  0.9811
  314MOL0     C42276   9.923   7.684   3.669  0.1968  0.2796  0.2677
  314MOL0     C42277   9.931   7.723   3.518  0.6794  0.0707 -0.1860
  314MOL0     C42278   9.983   7.618   3.426  0.6631 -0.3019 -0.2303
  314MOL0     O42279   9.874   7.525   3.393  0.1959 -0.4352  0.1501
  314MOL0     C42280   9.769   7.557   3.305 -0.4551  0.7363 -0.6576
  314MOL0     C42281   9.644   7.489   3.322 -1.2117 -1.2296 -0.3058
  314MOL0     C42282   9.543   7.522   3.240  0.2096  1.3098 -0.5670
  314MOL0     C42283   9.560   7.601   3.126 -0.2529  0.4492  0.0875
  314MOL0     C42284   9.459   7.605   3.026 -0.2341 -0.4888  0.3631
  314MOL0     O42285   9.357   7.520   3.023 -0.5246 -0.9064 -0.6176
  314MOL0     C42286   9.271   7.508   2.926  0.0486 -0.1241  0.2531
  314MOL0     C42287   9.306   7.497   2.791 -0.0716  0.0939 -0.3838
  314MOL0     C42288   9.207   7.465   2.693  0.0517 -0.4714 -0.8555
  314MOL0     C42289   9.072   7.463   2.726  0.8203  0.3094  0.4340
  314MOL0     O42290   8.983   7.430   2.631  0.1986  0.5758 -0.1578
  314MOL0     C42291   8.853   7.484   2.626  0.0614  0.7314 -0.8540
  314MOL0     C42292   8.804   7.476   2.479  0.9047  0.4053  0.2672
  314MOL0     C42293   8.778   7.333   2.434 -0.2719  0.0691 -0.7026
  314MOL0     C42294   8.656   7.318   2.345 -0.1949  0.4033 -0.1400
  314MOL0     C42295   8.644   7.193   2.256 -0.8538 -0.1337  0.0356
  314MOL0     C42296   8.637   7.061   2.334 -0.0257  1.1149 -0.0387
  314MOL0     C42297   8.622   6.937   2.243 -0.1817  0.4212 -0.1930
  314MOL0     C42298   8.586   6.808   2.315  0.0798 -0.0983  0.9941
  314MOL0    Cl42299   8.714   6.757   2.425  0.4313 -0.3816  0.0523
  314MOL0     C42300   9.030   7.487   2.853 -0.2268  0.0244 -0.1288
  314MOL0     C42301   9.134   7.500   2.956 -0.0999 -0.3711  0.3651
  314MOL0     O42302   9.461   7.709   2.956 -0.0913 -0.3730 -0.4946
  314MOL0     C42303   9.686   7.670   3.113 -0.3326  0.3104 -0.7780
  314MOL0     C42304   9.784   7.657   3.207  0.6709 -0.4951 -0.5376
  314MOL0     N42305   9.870   7.648   3.965  0.3144 -0.5001 -0.3073
  314MOL0     N42306   9.869   7.571   4.064 -0.0926  0.4653 -0.6960
  314MOL0     C42307   9.780   6.336   3.965  0.5473 -0.3424  0.2187
  314MOL0     C42308   9.706   6.230   3.917  0.1840 -0.1191  0.4415
  314MOL0     C42309   9.378   6.100   3.685 -0.2293  0.1861  0.5761
  314MOL0     C42310   9.400   5.986   3.611  0.6584  0.6174  0.3218
  314MOL0     C42311   9.303   5.884   3.606 -0.7129  0.6266  1.2522
  314MOL0     C42312   9.178   5.901   3.661 -0.6833 -0.4918 -0.0295
  314MOL0     O42313   9.075   5.826   3.635 -0.2362  0.1051 -0.4148
  314MOL0     C42314   9.040   5.752   3.752  0.1129 -0.1169 -0.5941
  314MOL0     C42315   8.986   5.622   3.694  0.1008 -0.0169 -0.5799
  314MOL0     C42316   8.835   5.639   3.650 -1.4675  0.4537  0.1015
  314MOL0     C42317   8.780   5.502   3.602  0.4656 -0.6999  1.1468
  314MOL0     C42318   8.758   5.411   3.713 -0.6238 -0.7963  0.1797
  314MOL0     C42319   8.741   5.326   3.800  0.2076 -0.4227 -0.3972
  314MOL0     C42320   9.156   6.015   3.739 -0.3311  1.5592  0.0015
  314MOL0     C42321   9.260   6.109   3.755  0.9216 -1.3305  0.4874
  314MOL0     C42322   9.224   6.229   3.847 -0.4034  0.7755 -0.7085
  314MOL0     H42323   9.759   6.283   3.589 -0.0174 -2.3148  1.2455
  314MOL0     H42324   9.899   6.471   3.689  2.5597  0.2101  2.7925
  314MOL0     H42325  10.097   6.549   3.873  0.0859  0.2273 -1.2170
  314MOL0     H42326   9.977   6.636   3.785 -5.1653 -2.4693  1.8095
  314MOL0     H42327  10.128   6.792   3.913 -0.3423 -0.1994 -0.5298
  314MOL0     H42328  10.062   6.700   4.063 -3.3347 -3.2465 -0.8585
  314MOL0     H42329   9.840   6.800   4.016  1.9259 -0.9797  4.2546
  314MOL0     H42330   9.900   6.870   3.865  1.2705  0.2023  0.4978
  314MOL0     H42331   9.958   6.940   4.147  1.0422 -1.1804  0.0545
  314MOL0     H42332  10.052   7.023   4.022 -2.5518  2.1722 -2.5090
  314MOL0     H42333   9.854   7.116   3.932  5.8469  0.8905  0.2697
  314MOL0     H42334   9.745   7.015   4.019 -0.2759  2.0808 -2.7813
  314MOL0     H42335   9.859   7.116   4.225  2.6098 -0.3827 -0.2121
  314MOL0     H42336   9.926   7.244   4.121 -0.5192  0.6909  1.9411
  314MOL0     H42337   9.635   7.201   4.201  1.1695 -0.0145  0.6212
  314MOL0     H42338   9.658   7.248   4.030 -1.4038 -3.2287  0.6280
  314MOL0     H42339   9.612   7.449   4.180  0.3075  0.0278  2.5553
  314MOL0     H42340   9.757   7.425   4.254  0.7120  0.3001  0.1081
  314MOL0     H42341   9.653   7.417   3.885 -0.2565 -0.6501 -0.0584
  314MOL0     H42342   9.767   7.537   3.660 -0.9229  0.8369 -0.2591
  314MOL0     H42343   9.717   7.705   3.683 -1.2681 -1.0988  1.4994
  314MOL0     H42344   9.964   7.763   3.732  0.5445 -1.0050  1.7014
  314MOL0     H42345   9.998   7.608   3.690 -2.4602 -2.5318  0.4029
  314MOL0     H42346   9.998   7.809   3.508 -0.8787  1.1728 -1.5289
  314MOL0     H42347   9.832   7.756   3.485 -0.3947 -2.3170  0.4567
  314MOL0     H42348  10.073   7.574   3.470  0.9906  2.6843  2.4627
  314MOL0     H42349  10.016   7.671   3.337 -2.6841  2.0450 -0.2932
  314MOL0     H42350   9.633   7.419   3.405  1.0890  1.6834  2.7122
  314MOL0     H42351   9.453   7.464   3.261  2.6509 -1.8200  2.4613
  314MOL0     H42352   9.402   7.519   2.745 -1.5023  4.6740 -1.6512
  314MOL0     H42353   9.232   7.451   2.589  2.0307 -1.2341 -0.3406
  314MOL0     H42354   8.787   7.427   2.691  2.1908  0.4656  1.1965
  314MOL0     H42355   8.861   7.585   2.666 -0.8754  0.3727  0.2673
  314MOL0     H42356   8.711   7.530   2.459  0.2921 -1.6415 -3.3642
  314MOL0     H42357   8.872   7.528   2.411 -0.6815  1.1301 -0.8066
  314MOL0     H42358   8.873   7.297   2.394  2.1996  1.9461  2.8733
  314MOL0     H42359   8.758   7.270   2.522 -0.0119  1.4408  0.3686
  314MOL0     H42360   8.654   7.410   2.286  3.5398  1.2245  0.7501
  314MOL0     H42361   8.575   7.315   2.418  0.3726 -2.8234  0.4715
  314MOL0     H42362   8.738   7.193   2.200  0.3333  3.3408  1.7943
  314MOL0     H42363   8.560   7.195   2.185  0.8022 -4.4501 -2.4539
  314MOL0     H42364   8.726   7.042   2.395 -0.8414  1.5975  1.3355
  314MOL0     H42365   8.550   7.077   2.398  0.4139  3.8874 -0.0201
  314MOL0     H42366   8.721   6.927   2.197 -0.2005 -0.4777 -0.0595
  314MOL0     H42367   8.555   6.954   2.159  1.4520 -0.0798 -1.6677
  314MOL0     H42368   8.497   6.811   2.378 -1.1861 -3.5242 -0.3895
  314MOL0     H42369   8.579   6.721   2.250 -1.2288  1.8141 -1.5843
  314MOL0     H42370   8.924   7.477   2.874  0.0849  0.7906  2.0382
  314MOL0     H42371   9.115   7.521   3.061  2.4710 -2.7417  1.4500
  314MOL0     H42372   9.710   7.730   3.026 -3.3522 -1.6883 -3.1993
  314MOL0     H42373   9.872   7.720   3.209 -0.0888  0.5667  0.3726
  314MOL0     H42374   9.767   6.358   4.070 -2.4330 -1.9929  0.3055
  314MOL0     H42375   9.647   6.178   3.991 -0.1424 -1.1922 -0.5416
  314MOL0     H42376   9.495   5.982   3.557  1.7791  4.4369  1.6851
  314MOL0     H42377   9.330   5.810   3.532 -1.5681  3.2288 -1.9238
  314MOL0     H42378   8.973   5.811   3.816  2.2635  2.8296 -0.8206
  314MOL0     H42379   9.123   5.727   3.819 -0.5626 -2.7231 -0.6355
  314MOL0     H42380   9.009   5.546   3.770  1.0763 -0.5114 -1.3413
  314MOL0     H42381   9.047   5.591   3.609 -2.6332  0.4623 -2.8461
  314MOL0     H42382   8.823   5.708   3.566 -0.6790 -0.0322 -0.4236
  314MOL0     H42383   8.790   5.672   3.743  0.2095 -2.1887  1.9972
  314MOL0     H42384   8.680   5.528   3.567  1.7004 -0.2514 -2.3660
  314MOL0     H42385   8.839   5.461   3.520  0.5896  1.7381 -0.0492
  314MOL0     H42386   8.715   5.267   3.886 -0.5905 -0.3060 -0.5507
  314MOL0     H42387   9.064   6.032   3.793  1.2619  0.4426  3.3402
  314MOL0     H42388   9.317   6.268   3.889 -0.5612  1.0224 -0.5857
  314MOL0     H42389   9.170   6.306   3.791 -6.1595  0.8998  4.0596
  314MOL0     H42390   9.159   6.199   3.930  1.8591  1.1025  1.3083
  315MOL0     O42391   5.919   4.733  11.020  0.0565 -0.0164  0.6246
  315MOL0     C42392   5.984   4.837  11.057  0.4928  1.0590  1.1459
  315MOL0     O42393   5.964   4.959  11.014  0.1954  0.0763  0.4764
  315MOL0     C42394   5.916   4.979  10.886  0.2188 -0.0215 -0.3449
  315MOL0     C42395   5.779   4.960  10.863  0.8042  0.2107  0.5713
  315MOL0     C42396   5.715   4.998  10.739  0.4071 -0.0593  0.4714
  315MOL0     C42397   5.797   5.037  10.632  0.4378  0.9520  0.7347
  315MOL0     O42398   5.746   5.046  10.503 -0.6035  0.1579 -0.3715
  315MOL0     C42399   5.708   4.920  10.437  0.5836 -0.0742 -0.2033
  315MOL0     C42400   5.834   4.830  10.430  0.3658  0.1091  0.6619
  315MOL0     C42401   5.912   4.860  10.309  0.1166 -0.3562  0.8276
  315MOL0     C42402   6.035   4.771  10.296  0.2700  0.1471  0.0461
  315MOL0     C42403   6.114   4.799  10.176  0.6102 -0.2022  0.1210
  315MOL0     C42404   6.240   4.717  10.149 -0.8210 -0.5269  0.0683
  315MOL0     C42405   6.343   4.752  10.247 -0.9708 -0.4294 -0.4668
  315MOL0     C42406   6.483   4.703  10.206 -0.5869 -0.2018  0.4163
  315MOL0     N42407   6.567   4.813  10.148  0.4278 -0.3861 -0.5827
  315MOL0     C42408   6.681   4.854  10.203 -0.4308 -0.0093 -0.3868
  315MOL0     C42409   6.742   4.932  10.117 -0.1411 -0.9269  0.4762
  315MOL0     C42410   6.868   5.012  10.136 -0.1773  0.6444  0.3659
  315MOL0     C42411   6.987   4.968  10.045 -0.1297  0.0728  0.4535
  315MOL0     C42412   7.120   5.040  10.076 -0.9831 -0.0048 -1.0028
  315MOL0     C42413   7.189   4.965  10.193  0.2143 -0.4217  1.3082
  315MOL0     O42414   7.315   5.022  10.188 -0.5449  0.0029 -0.2608
  315MOL0     C42415   7.403   4.948  10.268 -0.7522 -0.2079  0.1640
  315MOL0     C42416   7.366   4.847  10.358 -0.2496  1.0175  0.5072
  315MOL0     C42417   7.463   4.767  10.421  0.0753 -0.4581 -0.5366
  315MOL0     C42418   7.598   4.796  10.413  0.2743  0.0339  0.1842
  315MOL0     C42419   7.698   4.718  10.491  0.6549 -0.1949  0.0783
  315MOL0     O42420   7.827   4.762  10.481  1.2429  0.0353  0.0894
  315MOL0     C42421   7.933   4.691  10.536  0.3363  0.3476 -0.3802
  315MOL0     C42422   8.057   4.700  10.463  0.1522 -0.6408  0.3013
  315MOL0     C42423   8.177   4.642  10.508 -0.0049 -0.2860  1.0027
  315MOL0     C42424   8.176   4.578  10.628  0.5330  0.3527 -0.9487
  315MOL0     O42425   8.276   4.526  10.702  0.3694 -0.4315 -0.0420
  315MOL0     C42426   8.409   4.553  10.653 -0.6672  0.6701 -0.4130
  315MOL0     C42427   8.457   4.693  10.674  0.4310 -0.3339 -0.5321
  315MOL0     C42428   8.581   4.752  10.595 -0.4994  0.5479  0.2514
  315MOL0     C42429   8.562   4.725  10.438  0.8666 -0.3506 -0.5788
  315MOL0     C42430   8.637   4.823  10.344 -0.1101 -0.5492 -0.6628
  315MOL0     C42431   8.580   4.971  10.358 -1.1306 -0.1343  0.0455
  315MOL0     C42432   8.618   5.056  10.232 -0.5532  0.0942  0.6406
  315MOL0     C42433   8.594   5.200  10.266  0.5189 -0.4979  0.4754
  315MOL0    Cl42434   8.625   5.318  10.141 -0.0278 -0.0675  0.4800
  315MOL0     C42435   8.054   4.561  10.697  1.4519 -0.1990  0.2349
  315MOL0     C42436   7.937   4.616  10.659 -0.0345 -0.2087  0.5297
  315MOL0     O42437   7.657   4.622  10.559  0.0798 -0.1246  1.1529
  315MOL0     C42438   7.639   4.881  10.312 -0.1838 -0.4155  0.3960
  315MOL0     C42439   7.542   4.956  10.246 -0.5224  0.4798 -0.5835
  315MOL0     N42440   6.663   4.929  10.008  0.2423  0.0099  0.0179
  315MOL0     N42441   6.558   4.852  10.021 -0.8961  0.5774 -0.2605
  315MOL0     C42442   5.934   5.048  10.655  0.6385  0.0218  1.0415
  315MOL0     C42443   5.987   5.023  10.779 -0.7219  0.5949 -0.0915
  315MOL0     C42444   6.084   4.829  11.170 -0.7173 -0.2019  0.3519
  315MOL0     C42445   6.198   4.907  11.166  0.6156 -0.6101  0.2403
  315MOL0     C42446   6.295   4.901  11.266 -0.3887 -0.0207 -0.2918
  315MOL0     C42447   6.287   4.806  11.369 -0.5299  0.6874 -0.2891
  315MOL0     O42448   6.384   4.781  11.460  0.1140 -0.4450 -0.2016
  315MOL0     C42449   6.481   4.880  11.476  0.6786 -0.4056  0.7171
  315MOL0     C42450   6.576   4.844  11.590  0.8806  0.6006 -0.0468
  315MOL0     C42451   6.689   4.936  11.595  0.5694  0.0634  0.9337
  315MOL0     C42452   6.640   5.086  11.598 -1.2044 -0.0131  0.4659
  315MOL0     C42453   6.756   5.169  11.575 -0.6859 -1.1990  0.5328
  315MOL0     C42454   6.850   5.240  11.563 -0.4446 -0.0169  0.7209
  315MOL0     C42455   6.170   4.730  11.385 -0.0120  1.5430  0.3030
  315MOL0     C42456   6.071   4.742  11.282 -0.3568 -1.0543 -0.0873
  315MOL0     C42457   5.937   4.663  11.297 -0.4410  0.6316  0.3343
  315MOL0     H42458   5.711   4.912  10.933 -0.2596  1.8552  0.7422
  315MOL0     H42459   5.610   4.973  10.725  0.2620  1.1036 -0.5909
  315MOL0     H42460   5.630   4.856  10.480  0.3596 -3.0365 -4.3874
  315MOL0     H42461   5.670   4.949  10.339 -3.7310  1.9259  1.7700
  315MOL0     H42462   5.784   4.734  10.444  0.9883  0.1503  3.7942
  315MOL0     H42463   5.884   4.834  10.527 -0.4386  3.1633  1.0569
  315MOL0     H42464   5.967   4.955  10.313 -2.2925  1.0665  1.7982
  315MOL0     H42465   5.853   4.847  10.218 -0.1628 -3.6955  1.3320
  315MOL0     H42466   6.094   4.781  10.388  1.9223 -2.3883 -0.6202
  315MOL0     H42467   6.006   4.666  10.296 -3.2183  0.9943 -0.0926
  315MOL0     H42468   6.046   4.767  10.097 -1.1346 -0.1466  1.5124
  315MOL0     H42469   6.132   4.906  10.160  1.7424 -0.2769  0.8120
  315MOL0     H42470   6.207   4.612  10.155 -2.8013  0.1000  1.0856
  315MOL0     H42471   6.289   4.745  10.056  1.7106 -2.5976  0.6530
  315MOL0     H42472   6.307   4.708  10.340  1.3973  0.8604  1.1773
  315MOL0     H42473   6.352   4.859  10.268 -0.1963 -0.3143 -1.3376
  315MOL0     H42474   6.528   4.648  10.290 -0.3109  2.5422  2.1963
  315MOL0     H42475   6.469   4.624  10.131 -4.3124  1.8138 -1.2630
  315MOL0     H42476   6.730   4.823  10.295  1.5041  0.9864 -1.0253
  315MOL0     H42477   6.838   5.117  10.130 -5.9099 -0.5916  1.2230
  315MOL0     H42478   6.889   4.982  10.239 -0.6930 -0.1554  0.2451
  315MOL0     H42479   7.016   4.863  10.049  3.3270  0.8780 -0.4075
  315MOL0     H42480   6.964   4.999   9.942  0.0759 -1.0987  0.0409
  315MOL0     H42481   7.100   5.142  10.109  1.1795 -0.1803  1.0911
  315MOL0     H42482   7.187   5.035   9.990 -0.2468 -0.8540 -0.3901
  315MOL0     H42483   7.203   4.860  10.166 -0.1913  0.0259 -0.8477
  315MOL0     H42484   7.134   4.991  10.284 -1.2255  2.2157 -0.1882
  315MOL0     H42485   7.265   4.819  10.388  1.8558 -4.9063  3.6952
  315MOL0     H42486   7.418   4.703  10.497 -3.4870  3.0599  0.6938
  315MOL0     H42487   8.062   4.752  10.368  1.2474  1.6192  1.5050
  315MOL0     H42488   8.264   4.651  10.444 -2.5732  0.4030 -2.7019
  315MOL0     H42489   8.494   4.497  10.693  0.7848  2.3686 -0.9645
  315MOL0     H42490   8.422   4.527  10.548  2.1922 -0.7223  0.1948
  315MOL0     H42491   8.377   4.763  10.650 -0.1994 -1.2054 -1.0492
  315MOL0     H42492   8.487   4.688  10.779 -0.6798 -3.0449 -0.2463
  315MOL0     H42493   8.580   4.861  10.606  1.0264  0.8750 -2.1311
  315MOL0     H42494   8.680   4.721  10.629  0.2086  3.4446  1.0769
  315MOL0     H42495   8.457   4.731  10.407  0.3555  2.9520  1.3421
  315MOL0     H42496   8.589   4.623  10.410 -1.2104 -0.5488 -2.1739
  315MOL0     H42497   8.618   4.793  10.241 -0.7298 -2.5688 -0.0083
  315MOL0     H42498   8.746   4.825  10.356 -0.0824 -0.4704 -0.9390
  315MOL0     H42499   8.471   4.968  10.369 -1.5326  0.5089 -2.9269
  315MOL0     H42500   8.631   5.022  10.440 -1.7073  0.8349 -0.1839
  315MOL0     H42501   8.565   5.014  10.146 -0.2815  2.1808 -0.5909
  315MOL0     H42502   8.720   5.044  10.196 -1.8143  0.0949 -3.3707
  315MOL0     H42503   8.489   5.217  10.291 -0.2448  2.8803 -3.8448
  315MOL0     H42504   8.654   5.231  10.352  0.2324 -0.3550  0.6262
  315MOL0     H42505   8.049   4.524  10.799 -0.6564  0.7550  0.5185
  315MOL0     H42506   7.856   4.604  10.730 -0.4128 -1.5218 -0.0842
  315MOL0     H42507   7.742   4.910  10.293 -1.4290  3.2537 -1.6850
  315MOL0     H42508   7.576   5.038  10.184  0.6799  0.4006 -0.0576
  315MOL0     H42509   5.987   5.071  10.563 -1.1157 -2.5103 -0.7541
  315MOL0     H42510   6.094   5.040  10.792 -0.1348 -2.7364  0.2407
  315MOL0     H42511   6.214   4.981  11.088  0.8508 -0.7693  0.1375
  315MOL0     H42512   6.377   4.971  11.249 -0.5334  0.1619 -0.2315
  315MOL0     H42513   6.423   4.968  11.504  1.0185 -0.6891  2.3858
  315MOL0     H42514   6.537   4.901  11.384 -1.0737  0.2442 -0.2400
  315MOL0     H42515   6.621   4.746  11.577 -0.7087 -0.1496 -0.0940
  315MOL0     H42516   6.519   4.843  11.683  1.4145  0.1097  0.2825
  315MOL0     H42517   6.738   4.919  11.499  0.2549 -3.2480  1.2374
  315MOL0     H42518   6.759   4.916  11.677  2.1263  1.8937  0.1357
  315MOL0     H42519   6.562   5.103  11.523 -2.8262 -1.5021  1.7159
  315MOL0     H42520   6.599   5.114  11.695 -1.6159 -1.3465  0.6974
  315MOL0     H42521   6.925   5.304  11.520 -0.4811 -1.6371 -1.9629
  315MOL0     H42522   6.160   4.666  11.473 -0.6662 -1.3974 -1.7678
  315MOL0     H42523   5.854   4.695  11.233 -0.0852 -3.4538 -2.4874
  315MOL0     H42524   5.948   4.556  11.279  0.1102  0.3293  2.2384
  315MOL0     H42525   5.904   4.666  11.402  0.9905 -2.5274  0.9727
  316MOL0     O42526   2.119   9.991   3.360  0.7731 -0.5877 -0.3032
  316MOL0     C42527   2.185  10.012   3.262  0.7420 -0.3266  0.7464
  316MOL0     O42528   2.292  10.099   3.242  0.5630 -0.1263 -0.2143
  316MOL0     C42529   2.331  10.197   3.326 -0.4099  0.4197  0.2505
  316MOL0     C42530   2.299  10.218   3.463 -0.5167  0.2902  1.2299
  316MOL0     C42531   2.365  10.306   3.544  0.5019 -0.3411  0.1401
  316MOL0     C42532   2.480  10.366   3.506  0.2540 -1.0405  0.0456
  316MOL0     O42533   2.553  10.429   3.599 -0.7722 -0.1810  0.2322
  316MOL0     C42534   2.698  10.401   3.582 -0.2558 -0.9258  0.4479
  316MOL0     C42535   2.744  10.254   3.597 -0.1225  0.1714  0.0102
  316MOL0     C42536   2.723  10.190   3.735  0.4702  0.6671  1.1069
  316MOL0     C42537   2.576  10.165   3.775  0.1109  0.4419  0.5379
  316MOL0     C42538   2.574  10.052   3.884  0.7583 -0.2512  0.5102
  316MOL0     C42539   2.432   9.997   3.923  0.6282  0.0829 -0.3628
  316MOL0     C42540   2.415   9.844   3.968 -0.0283  0.4447 -0.7625
  316MOL0     C42541   2.526   9.793   4.066  0.6252 -0.0041  1.1351
  316MOL0     N42542   2.563   9.878   4.183  0.4703  0.4697 -0.7615
  316MOL0     C42543   2.494   9.944   4.281  0.0353  0.8332  0.1739
  316MOL0     C42544   2.589  10.013   4.348  0.5880  0.1812  0.3556
  316MOL0     C42545   2.563  10.107   4.462  0.2388  0.0203  0.4340
  316MOL0     C42546   2.534  10.033   4.593 -0.3898  0.0631 -1.1452
  316MOL0     C42547   2.595  10.102   4.720  0.5738  0.0276 -0.9717
  316MOL0     C42548   2.593  10.019   4.853  1.3676  0.5875  0.3676
  316MOL0     O42549   2.681  10.086   4.936  0.6879 -0.5391  0.3533
  316MOL0     C42550   2.652  10.198   5.021  0.9094 -0.0608 -0.6862
  316MOL0     C42551   2.526  10.222   5.068  0.2041  0.1703 -0.5091
  316MOL0     C42552   2.500  10.332   5.155  0.0578 -0.4771  0.3863
  316MOL0     C42553   2.599  10.423   5.201 -0.1998  0.2348  0.3507
  316MOL0     C42554   2.580  10.530   5.302  0.5487  0.0252  0.9140
  316MOL0     O42555   2.450  10.540   5.340  0.7562 -0.2697  1.1912
  316MOL0     C42556   2.424  10.641   5.420 -0.2480  0.3358 -0.0485
  316MOL0     C42557   2.403  10.776   5.379  0.4547 -0.1086  0.6141
  316MOL0     C42558   2.358  10.871   5.468  0.2480  0.7037  0.1730
  316MOL0     C42559   2.329  10.829   5.604  0.5411  0.5925 -0.2606
  316MOL0     O42560   2.267  10.907   5.701 -0.2249  0.1565 -0.0649
  316MOL0     C42561   2.284  11.048   5.674 -0.6325 -0.8956 -0.0537
  316MOL0     C42562   2.247  11.123   5.798 -0.3009 -0.6913  0.3836
  316MOL0     C42563   2.325  11.097   5.928  0.3085 -0.8927  0.1307
  316MOL0     C42564   2.468  11.149   5.907  1.0404  0.2714 -0.0725
  316MOL0     C42565   2.539  11.206   6.022 -0.4270  0.1156  0.3160
  316MOL0     C42566   2.534  11.113   6.139 -0.0085  0.3762 -0.6917
  316MOL0     C42567   2.649  11.121   6.253 -0.8610 -0.1940 -0.1100
  316MOL0     C42568   2.635  11.004   6.349 -0.4527 -0.4050  0.4665
  316MOL0    Cl42569   2.755  11.014   6.477 -0.2895 -0.0997  0.2251
  316MOL0     C42570   2.360  10.695   5.643 -0.4268 -1.0003 -0.5763
  316MOL0     C42571   2.412  10.607   5.554  0.1200  0.6602  0.5928
  316MOL0     O42572   2.670  10.606   5.332  0.1170  0.4804 -0.8788
  316MOL0     C42573   2.730  10.389   5.158  0.3286  0.3250  0.7685
  316MOL0     C42574   2.756  10.285   5.059 -0.5833 -0.3047 -0.2301
  316MOL0     N42575   2.714   9.986   4.300  0.7065  0.4119  0.5457
  316MOL0     N42576   2.693   9.907   4.202  0.4492  1.4909 -0.0387
  316MOL0     C42577   2.509  10.366   3.366 -0.7218 -0.2617 -1.1988
  316MOL0     C42578   2.439  10.275   3.283 -0.6939  0.5355  0.6344
  316MOL0     C42579   2.153   9.926   3.143 -0.3523  0.1359  0.2829
  316MOL0     C42580   2.211   9.952   3.025  0.6353  0.4281  0.2286
  316MOL0     C42581   2.182   9.883   2.906  0.3563  0.7715  0.2776
  316MOL0     C42582   2.098   9.770   2.903  0.8303 -0.4589  0.0294
  316MOL0     O42583   2.063   9.704   2.785  0.5546  0.3482 -0.0868
  316MOL0     C42584   1.937   9.751   2.742 -0.2489  0.6149  0.0924
  316MOL0     C42585   1.947   9.860   2.629 -1.2065 -1.0873  0.0961
  316MOL0     C42586   1.854   9.851   2.496 -0.4704 -0.2289 -0.0020
  316MOL0     C42587   1.918   9.906   2.358  0.3240  0.4614 -0.3369
  316MOL0     C42588   2.030   9.824   2.309  0.2656  0.6756 -0.8765
  316MOL0     C42589   2.113   9.757   2.254  0.3439  0.2865  0.8403
  316MOL0     C42590   2.052   9.730   3.028  0.8765 -0.5656 -0.9101
  316MOL0     C42591   2.065   9.809   3.144  0.6212  0.1986 -0.2790
  316MOL0     C42592   2.011   9.743   3.276  0.2857  0.2966  0.0760
  316MOL0     H42593   2.216  10.161   3.503  1.4628 -3.0738  0.9821
  316MOL0     H42594   2.324  10.333   3.641  0.5867  3.0134 -0.6412
  316MOL0     H42595   2.725  10.424   3.478 -2.8143  0.2412 -0.0460
  316MOL0     H42596   2.736  10.475   3.653 -1.0797 -1.5226  1.5379
  316MOL0     H42597   2.853  10.259   3.602 -0.0249 -2.2174  2.6122
  316MOL0     H42598   2.699  10.192   3.519 -0.7148 -1.9389  1.9404
  316MOL0     H42599   2.775  10.246   3.814 -0.6723  2.1471  0.8497
  316MOL0     H42600   2.776  10.095   3.719 -0.3202  0.4993 -0.8725
  316MOL0     H42601   2.535  10.256   3.819  1.5268  0.6992  1.3795
  316MOL0     H42602   2.523  10.125   3.688  2.0809  0.1828 -0.6075
  316MOL0     H42603   2.628   9.965   3.846 -2.7102 -1.3514 -2.5479
  316MOL0     H42604   2.622  10.094   3.973 -2.9702  0.5697  2.3234
  316MOL0     H42605   2.380  10.055   3.999 -0.8919 -0.9318 -0.5735
  316MOL0     H42606   2.376  10.018   3.831  0.1121  1.7455  0.3052
  316MOL0     H42607   2.408   9.780   3.880  4.3706 -0.0922 -0.9452
  316MOL0     H42608   2.325   9.834   4.030  0.6881  0.4220  0.2808
  316MOL0     H42609   2.483   9.695   4.091 -0.3201 -0.2475 -1.1587
  316MOL0     H42610   2.618   9.778   4.009 -0.5978  0.4407 -1.0637
  316MOL0     H42611   2.388   9.928   4.294  0.4811 -1.9310  1.0859
  316MOL0     H42612   2.642  10.182   4.453  0.9270 -0.8984 -2.4844
  316MOL0     H42613   2.473  10.163   4.431  1.3979  3.2581  2.3979
  316MOL0     H42614   2.425  10.034   4.591 -0.4894  3.7024 -4.2542
  316MOL0     H42615   2.586   9.937   4.587  0.4735  0.5711 -2.1512
  316MOL0     H42616   2.528  10.187   4.738  0.1125 -0.9023  2.3456
  316MOL0     H42617   2.700  10.127   4.703  1.0847  1.4817  3.1815
  316MOL0     H42618   2.624   9.916   4.837  0.7613  0.3228  0.8387
  316MOL0     H42619   2.490  10.016   4.890  0.4908 -0.3155 -1.9482
  316MOL0     H42620   2.448  10.150   5.046  0.2070  0.3998 -1.2843
  316MOL0     H42621   2.400  10.355   5.188 -0.4906 -0.1490 -1.3960
  316MOL0     H42622   2.428  10.811   5.280 -0.5730  0.4300  0.5317
  316MOL0     H42623   2.320  10.964   5.428  0.7863  1.1222  0.6143
  316MOL0     H42624   2.387  11.074   5.648 -0.2822 -3.0216 -0.9721
  316MOL0     H42625   2.221  11.077   5.589  0.5898  1.0025 -0.3719
  316MOL0     H42626   2.252  11.229   5.773 -4.0497 -0.6117 -0.5513
  316MOL0     H42627   2.142  11.109   5.824 -0.3289  2.8050  2.9211
  316MOL0     H42628   2.267  11.146   6.007  2.7132  2.5485 -0.0250
  316MOL0     H42629   2.331  10.989   5.945 -0.9298 -1.0894 -0.5549
  316MOL0     H42630   2.462  11.226   5.829  1.6116  0.2740 -0.1198
  316MOL0     H42631   2.516  11.066   5.856  2.2127  1.6059 -1.2250
  316MOL0     H42632   2.502  11.306   6.049 -1.3413  0.4430 -1.9681
  316MOL0     H42633   2.642  11.223   5.990 -0.5270 -1.7663 -1.1239
  316MOL0     H42634   2.437  11.139   6.184  1.5634  1.4482  2.3792
  316MOL0     H42635   2.522  11.010   6.106  1.9508 -0.7141  1.6804
  316MOL0     H42636   2.646  11.211   6.314 -2.5867 -0.2974 -0.0065
  316MOL0     H42637   2.748  11.119   6.206 -0.4481 -1.4771  0.7585
  316MOL0     H42638   2.536  11.021   6.392  0.0309  0.1233  1.4055
  316MOL0     H42639   2.635  10.910   6.294  3.6999 -2.0283  2.7851
  316MOL0     H42640   2.346  10.669   5.747 -1.1098  3.4136  0.6521
  316MOL0     H42641   2.437  10.509   5.593  0.0057  0.0159 -0.8915
  316MOL0     H42642   2.817  10.445   5.192  0.6913  0.0504  0.3177
  316MOL0     H42643   2.861  10.277   5.030 -0.8267 -1.0470 -0.9562
  316MOL0     H42644   2.590  10.425   3.323  1.4649 -1.6379  0.8529
  316MOL0     H42645   2.461  10.262   3.177 -2.5635  1.1536  0.1359
  316MOL0     H42646   2.262  10.048   3.018 -1.7953  1.8157  0.3651
  316MOL0     H42647   2.250   9.910   2.826 -1.5537  2.3706 -0.9135
  316MOL0     H42648   1.883   9.810   2.817  1.6477  1.6603  0.6886
  316MOL0     H42649   1.866   9.678   2.702 -1.5696  1.1725  1.3208
  316MOL0     H42650   2.049   9.847   2.593 -1.1445 -2.0066  0.5599
  316MOL0     H42651   1.922   9.953   2.681 -0.4792 -1.6755  1.5452
  316MOL0     H42652   1.761   9.907   2.510 -1.3870 -2.2614  3.3405
  316MOL0     H42653   1.829   9.745   2.484 -0.7670  0.0039 -1.6651
  316MOL0     H42654   1.839   9.902   2.282  1.4469  0.2996 -1.5304
  316MOL0     H42655   1.953  10.007   2.379 -2.1216  1.1593  0.8366
  316MOL0     H42656   2.199   9.700   2.223 -1.0493 -1.3638 -0.1710
  316MOL0     H42657   2.012   9.630   3.043  1.0604 -0.2933  1.9772
  316MOL0     H42658   2.076   9.743   3.364 -3.5944 -1.9449  3.2533
  316MOL0     H42659   1.916   9.787   3.306 -0.7736  0.2799 -2.9078
  316MOL0     H42660   1.997   9.637   3.254  1.2372  0.1736  0.0065
  317MOL0     O42661   1.129   7.867   9.444  0.4716 -1.0691  0.7921
  317MOL0     C42662   1.225   7.828   9.515  0.5725  0.8061  0.1567
  317MOL0     O42663   1.357   7.824   9.478  0.1392 -0.1025 -0.0813
  317MOL0     C42664   1.384   7.871   9.352 -0.3300 -0.5354  0.6674
  317MOL0     C42665   1.363   7.990   9.302  0.0645  0.0678  0.3546
  317MOL0     C42666   1.408   8.015   9.165  0.4122 -0.3674 -0.1768
  317MOL0     C42667   1.477   7.920   9.090  0.0838  0.2398  0.2076
  317MOL0     O42668   1.520   7.940   8.960 -0.3582  0.2309 -0.0208
  317MOL0     C42669   1.458   8.024   8.865 -0.0126  0.7677 -0.4926
  317MOL0     C42670   1.569   8.116   8.799 -0.4915  1.0000 -0.8969
  317MOL0     C42671   1.570   8.254   8.854  0.6307 -0.7753 -0.6970
  317MOL0     C42672   1.650   8.253   8.981 -0.4184  0.3616 -0.4577
  317MOL0     C42673   1.656   8.390   9.055 -0.2784  0.6496  0.5969
  317MOL0     C42674   1.730   8.507   8.986 -1.1588  0.0121  0.0460
  317MOL0     C42675   1.727   8.642   9.061 -0.2920 -0.0796  0.3280
  317MOL0     C42676   1.786   8.755   8.973 -0.5423  0.4099  0.4166
  317MOL0     N42677   1.803   8.878   9.041 -0.8211  0.6143 -1.1724
  317MOL0     C42678   1.857   8.985   8.982 -0.2219 -0.7242  0.9498
  317MOL0     C42679   1.869   9.074   9.084 -0.4733 -0.2210 -1.1560
  317MOL0     C42680   1.948   9.199   9.076  0.1477 -0.3251  0.0398
  317MOL0     C42681   2.093   9.186   9.063  0.4887 -0.5469  0.5943
  317MOL0     C42682   2.152   9.123   9.195  0.7678  0.5234 -0.1588
  317MOL0     C42683   2.301   9.133   9.203  0.5068  0.2947  0.2813
  317MOL0     O42684   2.347   9.264   9.168 -0.0826 -0.0624 -0.6568
  317MOL0     C42685   2.468   9.283   9.106  0.2478 -0.4071  0.4228
  317MOL0     C42686   2.569   9.193   9.095 -0.5501 -0.1102  0.7633
  317MOL0     C42687   2.693   9.228   9.036  0.0284  0.0853  0.3490
  317MOL0     C42688   2.719   9.359   8.999 -0.9816 -0.3351 -0.5105
  317MOL0     C42689   2.855   9.403   8.958 -1.2473  0.1937 -0.2205
  317MOL0     O42690   2.876   9.536   8.944 -0.6394 -0.2840 -0.0564
  317MOL0     C42691   2.999   9.599   8.904 -0.2637  1.1660 -0.1917
  317MOL0     C42692   3.013   9.730   8.865 -0.6619  0.5568 -0.3379
  317MOL0     C42693   3.139   9.775   8.818  0.3982  0.8093 -0.3761
  317MOL0     C42694   3.262   9.704   8.815  0.5529 -0.0962 -0.3062
  317MOL0     O42695   3.384   9.736   8.778  0.0101  0.0120  0.4044
  317MOL0     C42696   3.421   9.877   8.752 -0.1662  1.1910 -0.1500
  317MOL0     C42697   3.578   9.890   8.772 -0.2957 -0.5176 -0.1021
  317MOL0     C42698   3.629  10.035   8.727  1.3680  0.3197 -0.2276
  317MOL0     C42699   3.777  10.074   8.700  0.0301 -0.3503 -1.2500
  317MOL0     C42700   3.865  10.077   8.826  0.0259 -0.0218  0.3600
  317MOL0     C42701   3.901   9.937   8.884  1.2636 -0.3955 -0.9788
  317MOL0     C42702   3.984   9.951   9.009  0.4892  0.0383 -0.1199
  317MOL0     C42703   3.900   9.983   9.141 -0.7309 -0.0568 -0.7630
  317MOL0    Cl42704   3.926  10.167   9.171 -0.8911  0.1002  0.3188
  317MOL0     C42705   3.251   9.575   8.868  0.1087  0.4662  0.4838
  317MOL0     C42706   3.121   9.526   8.905 -0.0403 -0.6542  0.7664
  317MOL0     O42707   2.940   9.317   8.935  0.1477 -0.2751 -0.0908
  317MOL0     C42708   2.622   9.456   9.013  0.4789  0.5440 -0.4211
  317MOL0     C42709   2.501   9.416   9.071  0.0879 -0.0884 -0.3479
  317MOL0     N42710   1.816   9.021   9.199 -0.6637 -0.0394  0.7228
  317MOL0     N42711   1.783   8.899   9.171 -0.2602 -0.2243 -0.2290
  317MOL0     C42712   1.517   7.803   9.149 -0.1477 -0.4631  0.3457
  317MOL0     C42713   1.470   7.784   9.279  0.1937  0.9585  0.0666
  317MOL0     C42714   1.198   7.798   9.658  0.1553  0.1537  0.6541
  317MOL0     C42715   1.298   7.835   9.746 -0.9948  0.4568  0.0891
  317MOL0     C42716   1.289   7.806   9.879 -0.5511 -0.5744 -0.1603
  317MOL0     C42717   1.183   7.747   9.936  0.7578 -0.0025 -0.8943
  317MOL0     O42718   1.193   7.716  10.070  0.5694 -0.4113 -0.6732
  317MOL0     C42719   1.123   7.595  10.123  0.0100 -0.0257 -0.1837
  317MOL0     C42720   1.226   7.508  10.180  0.5305 -0.3025  0.6202
  317MOL0     C42721   1.192   7.366  10.180 -0.4696  0.3968  0.3185
  317MOL0     C42722   1.075   7.321  10.268 -0.7833  0.6901  0.0747
  317MOL0     C42723   1.052   7.182  10.239 -0.3032 -0.9343 -0.2128
  317MOL0     C42724   1.028   7.063  10.220 -0.1632 -0.3768  0.1003
  317MOL0     C42725   1.073   7.713   9.850 -0.2265 -0.4951 -0.1724
  317MOL0     C42726   1.082   7.739   9.714 -0.4783 -0.4614  0.0891
  317MOL0     C42727   0.957   7.715   9.641 -0.5187 -0.3646 -0.1199
  317MOL0     H42728   1.315   8.067   9.361  0.1905  1.7681 -1.6546
  317MOL0     H42729   1.375   8.111   9.128 -0.9222 -0.5003  0.6235
  317MOL0     H42730   1.418   7.961   8.785  2.5543 -1.5341 -0.1223
  317MOL0     H42731   1.372   8.076   8.908  0.3362 -0.4821  1.8474
  317MOL0     H42732   1.545   8.123   8.693 -1.5771  0.2390 -0.7131
  317MOL0     H42733   1.672   8.081   8.810 -0.9952 -0.0250  0.9363
  317MOL0     H42734   1.471   8.294   8.877  0.6462  1.5359 -3.8926
  317MOL0     H42735   1.608   8.331   8.786  0.5650  0.6763  0.8384
  317MOL0     H42736   1.617   8.173   9.048  2.5459 -0.7082 -0.1056
  317MOL0     H42737   1.750   8.224   8.949 -0.8742 -2.5663  0.4760
  317MOL0     H42738   1.552   8.415   9.076 -1.6940 -3.9796  0.2665
  317MOL0     H42739   1.696   8.374   9.156 -1.8449  1.0390  1.3098
  317MOL0     H42740   1.838   8.494   8.976 -0.8692 -0.8168  3.1441
  317MOL0     H42741   1.687   8.519   8.886  1.9077  1.8083 -1.2083
  317MOL0     H42742   1.782   8.635   9.155 -0.9885  2.0385  0.9481
  317MOL0     H42743   1.626   8.677   9.086  0.1764  1.1997  0.4731
  317MOL0     H42744   1.886   8.725   8.940 -0.3572  1.7931 -0.3360
  317MOL0     H42745   1.735   8.776   8.878  4.2874 -1.2201 -2.9350
  317MOL0     H42746   1.897   8.990   8.881 -0.2447 -0.6802  0.9430
  317MOL0     H42747   1.911   9.240   8.981 -3.4168 -3.4623 -0.1225
  317MOL0     H42748   1.919   9.271   9.153  0.0516  0.5600 -0.8064
  317MOL0     H42749   2.123   9.127   8.976  1.6182 -1.1663  1.3779
  317MOL0     H42750   2.134   9.286   9.046 -1.0283 -0.4272 -3.3197
  317MOL0     H42751   2.121   9.020   9.211 -1.2189  0.9064 -1.2412
  317MOL0     H42752   2.108   9.184   9.275  0.6889 -1.5199  1.4394
  317MOL0     H42753   2.328   9.059   9.126  2.3293 -0.1259  1.2627
  317MOL0     H42754   2.334   9.100   9.301  0.1376 -0.1641  0.2575
  317MOL0     H42755   2.551   9.088   9.116  1.6783 -0.7068 -0.0258
  317MOL0     H42756   2.777   9.160   9.032 -0.7554 -0.8439 -1.9028
  317MOL0     H42757   2.921   9.787   8.861 -2.2808 -1.7301  1.1680
  317MOL0     H42758   3.136   9.878   8.785 -0.8879  0.7862 -0.3639
  317MOL0     H42759   3.409   9.911   8.649  2.2517  1.3437 -0.4193
  317MOL0     H42760   3.370   9.943   8.824 -1.3247 -0.2327  0.3777
  317MOL0     H42761   3.605   9.879   8.877  0.7511  0.2138 -0.2753
  317MOL0     H42762   3.632   9.812   8.718 -2.1942 -2.7399  1.0242
  317MOL0     H42763   3.580  10.042   8.629  1.0488  0.2695 -0.0708
  317MOL0     H42764   3.571  10.106   8.786 -0.9895 -1.1044 -0.7115
  317MOL0     H42765   3.774  10.179   8.671 -0.5922  0.9339  2.7259
  317MOL0     H42766   3.829  10.006   8.633  6.2796 -0.7103  3.1093
  317MOL0     H42767   3.817  10.141   8.901  1.2002 -0.7711  1.7806
  317MOL0     H42768   3.964  10.111   8.796  1.1783 -3.7642 -0.5827
  317MOL0     H42769   3.812   9.877   8.907  1.7808 -1.0671 -0.6909
  317MOL0     H42770   3.950   9.888   8.800  2.9871  2.8443 -2.0127
  317MOL0     H42771   4.063  10.025   8.995  1.0385 -0.5359 -0.1224
  317MOL0     H42772   4.041   9.858   9.008 -1.9443 -1.5488 -0.9548
  317MOL0     H42773   3.794   9.957   9.137 -0.1359 -2.9594  0.2764
  317MOL0     H42774   3.923   9.932   9.234 -2.4374  0.4113 -0.0383
  317MOL0     H42775   3.345   9.527   8.890  1.1871  1.8860 -0.8519
  317MOL0     H42776   3.121   9.431   8.956 -0.7062 -1.6996 -1.0717
  317MOL0     H42777   2.635   9.560   8.982 -0.1479  0.1397 -2.1293
  317MOL0     H42778   2.420   9.488   9.084  1.0346  0.5407  3.1770
  317MOL0     H42779   1.569   7.723   9.098 -0.9843  0.2537 -1.7544
  317MOL0     H42780   1.501   7.696   9.335  1.0173  2.5070  2.1755
  317MOL0     H42781   1.390   7.888   9.725 -0.8279  0.9019  1.7895
  317MOL0     H42782   1.367   7.836   9.947 -1.9137  3.5286 -0.1259
  317MOL0     H42783   1.083   7.545  10.035  2.1342 -0.7678 -0.7916
  317MOL0     H42784   1.037   7.609  10.189  0.8948  3.1005  0.4594
  317MOL0     H42785   1.235   7.536  10.285 -2.0697  0.0949  0.7907
  317MOL0     H42786   1.313   7.525  10.116 -1.4454 -0.7369 -2.3691
  317MOL0     H42787   1.276   7.297  10.195 -3.6196 -3.9458  0.0484
  317MOL0     H42788   1.149   7.347  10.081  2.3740  1.9555 -1.3419
  317MOL0     H42789   1.093   7.352  10.371  0.4582 -0.9620  0.3807
  317MOL0     H42790   0.993   7.380  10.224  0.1190  1.8821 -0.0711
  317MOL0     H42791   1.002   6.960  10.205  2.2814 -0.6547 -3.7699
  317MOL0     H42792   0.983   7.662   9.883  0.2729 -3.9855 -3.4766
  317MOL0     H42793   0.879   7.775   9.689  2.4758  1.3380  3.0555
  317MOL0     H42794   0.955   7.747   9.536 -0.1578  0.1417  0.0226
  317MOL0     H42795   0.929   7.610   9.638 -1.7003 -0.1976  2.2459
  318MOL0     O42796   5.532   7.621   6.032 -0.2609  0.1067 -0.7119
  318MOL0     C42797   5.504   7.524   6.096  0.2016  0.0459  0.3066
  318MOL0     O42798   5.490   7.520   6.231 -1.3025 -0.0001  0.5836
  318MOL0     C42799   5.543   7.636   6.291  0.0133 -0.7470 -0.9229
  318MOL0     C42800   5.449   7.734   6.329 -0.1078  0.4252  0.1251
  318MOL0     C42801   5.489   7.853   6.387  0.3962  0.1139 -0.2626
  318MOL0     C42802   5.623   7.874   6.412 -0.6586 -0.5203 -0.2252
  318MOL0     O42803   5.653   8.002   6.463 -0.0188  0.5041 -0.8405
  318MOL0     C42804   5.749   8.079   6.393 -0.1276 -0.5889 -0.8407
  318MOL0     C42805   5.786   8.200   6.483 -0.3523 -0.2926 -0.0450
  318MOL0     C42806   5.831   8.178   6.629 -0.3851  0.4812 -0.6009
  318MOL0     C42807   5.814   8.301   6.710  0.4931  0.0700  1.4831
  318MOL0     C42808   5.944   8.382   6.710  0.5663  0.4426  0.2213
  318MOL0     C42809   5.919   8.495   6.811 -0.7125 -0.3264  0.7797
  318MOL0     C42810   6.028   8.595   6.834 -0.3093  0.9799 -0.8651
  318MOL0     C42811   6.165   8.547   6.875 -0.7715  0.5298  0.5301
  318MOL0     N42812   6.167   8.499   7.016  0.0444  0.3197 -0.1032
  318MOL0     C42813   6.108   8.383   7.061  0.5042  0.9655  0.3961
  318MOL0     C42814   6.160   8.376   7.183  0.2428  0.1602 -0.4663
  318MOL0     C42815   6.129   8.274   7.294  0.2302  0.5926 -0.9700
  318MOL0     C42816   5.979   8.223   7.280  0.9491  0.3700 -1.0308
  318MOL0     C42817   5.950   8.122   7.397  0.8486 -1.2586 -0.0099
  318MOL0     C42818   5.811   8.117   7.444  0.3004  0.5193 -0.0264
  318MOL0     O42819   5.804   8.244   7.510  0.8533 -0.4071  0.0277
  318MOL0     C42820   5.782   8.242   7.653 -0.7198  0.4323  0.3167
  318MOL0     C42821   5.695   8.153   7.716 -0.0107 -0.7098 -0.0849
  318MOL0     C42822   5.689   8.139   7.857  1.7052 -0.1522  0.4410
  318MOL0     C42823   5.771   8.217   7.932  0.3761 -0.6890  0.7115
  318MOL0     C42824   5.753   8.216   8.080 -0.7751 -0.5374 -0.7528
  318MOL0     O42825   5.687   8.124   8.145  1.0129 -0.0320  0.1808
  318MOL0     C42826   5.629   8.155   8.268  0.0593  0.5269  0.1900
  318MOL0     C42827   5.527   8.255   8.288  0.3089 -0.1103 -0.0053
  318MOL0     C42828   5.483   8.280   8.416  0.5448  0.0218 -0.3815
  318MOL0     C42829   5.530   8.207   8.530  0.2196  0.3707 -0.1556
  318MOL0     O42830   5.469   8.240   8.656  0.1556 -0.3537 -0.2328
  318MOL0     C42831   5.546   8.210   8.770 -0.0679 -0.1113 -0.5609
  318MOL0     C42832   5.456   8.259   8.875  0.4188 -0.6596  0.4481
  318MOL0     C42833   5.515   8.261   9.008 -0.3397  0.9836 -0.2305
  318MOL0     C42834   5.419   8.296   9.123  0.4308  0.1570  0.4469
  318MOL0     C42835   5.448   8.200   9.241  0.2018 -0.5259  0.2806
  318MOL0     C42836   5.365   8.226   9.368  0.2472 -0.0082  0.2071
  318MOL0     C42837   5.379   8.366   9.408 -0.3311 -0.1002 -0.0679
  318MOL0     C42838   5.375   8.396   9.558  0.0158  0.1879  0.5303
  318MOL0    Cl42839   5.226   8.324   9.633 -0.2493  0.6598  0.0748
  318MOL0     C42840   5.609   8.098   8.502  0.3180 -0.6830 -0.2383
  318MOL0     C42841   5.669   8.074   8.376 -0.7072 -0.2235  0.1414
  318MOL0     O42842   5.804   8.318   8.136  0.1379  0.6479  0.1260
  318MOL0     C42843   5.856   8.316   7.874 -0.9979  0.1548 -0.1103
  318MOL0     C42844   5.863   8.319   7.732 -0.7741 -0.2876  0.0228
  318MOL0     N42845   6.244   8.480   7.205 -0.8536  0.6562  0.0379
  318MOL0     N42846   6.256   8.556   7.103  0.7020  0.2973  0.0218
  318MOL0     C42847   5.716   7.776   6.383  0.7443  0.2917 -0.3960
  318MOL0     C42848   5.680   7.664   6.317  1.0749  1.0550  0.0966
  318MOL0     C42849   5.501   7.389   6.017 -0.0312  0.0877 -0.2883
  318MOL0     C42850   5.482   7.274   6.101 -0.3805 -0.2757  0.0959
  318MOL0     C42851   5.460   7.149   6.040  0.0504  0.1180 -0.0309
  318MOL0     C42852   5.469   7.137   5.898  0.0580 -0.3435 -0.9347
  318MOL0     O42853   5.462   7.025   5.828  0.2327  0.5535 -0.1632
  318MOL0     C42854   5.443   6.899   5.898  0.0221  0.1067 -0.7531
  318MOL0     C42855   5.299   6.878   5.920 -0.2973  1.1158  0.2227
  318MOL0     C42856   5.285   6.746   5.990 -0.5579  0.8951 -0.0961
  318MOL0     C42857   5.148   6.674   5.977 -0.1418  0.0086  0.2100
  318MOL0     C42858   5.040   6.739   6.042  0.2540 -0.9875 -0.0272
  318MOL0     C42859   4.960   6.803   6.117  0.0401  0.9744 -0.6012
  318MOL0     C42860   5.504   7.244   5.825 -0.9836 -1.3112 -0.6734
  318MOL0     C42861   5.513   7.376   5.886 -0.3226 -0.1523  0.2485
  318MOL0     C42862   5.528   7.491   5.786 -0.4288 -0.8613  0.0645
  318MOL0     H42863   5.343   7.712   6.317  0.2234 -1.0704 -0.2856
  318MOL0     H42864   5.415   7.928   6.410  0.2390 -0.2040  0.2737
  318MOL0     H42865   5.841   8.023   6.374 -0.1889 -0.2544 -2.1687
  318MOL0     H42866   5.715   8.104   6.293  0.9575 -0.8599 -1.2915
  318MOL0     H42867   5.704   8.271   6.469 -3.1124 -3.5708 -2.1246
  318MOL0     H42868   5.884   8.236   6.451  0.1043  1.9396  3.3888
  318MOL0     H42869   5.937   8.150   6.630 -0.5740 -0.2612 -1.0225
  318MOL0     H42870   5.778   8.096   6.679  1.3943  0.5142  1.5000
  318MOL0     H42871   5.725   8.352   6.672 -2.7326 -4.8530  1.5191
  318MOL0     H42872   5.785   8.276   6.812 -0.6291  3.0442  1.9743
  318MOL0     H42873   6.033   8.322   6.733 -0.5083 -1.4744 -0.3543
  318MOL0     H42874   5.950   8.427   6.611  0.0620 -0.4096 -0.2031
  318MOL0     H42875   5.845   8.560   6.763 -1.8377 -1.4240  0.9620
  318MOL0     H42876   5.877   8.445   6.899 -1.2948 -1.2220  0.0166
  318MOL0     H42877   5.988   8.663   6.910  2.3198  0.0334  1.5289
  318MOL0     H42878   6.039   8.653   6.742 -2.2340  1.2260 -0.9801
  318MOL0     H42879   6.199   8.469   6.807 -0.4230  0.4593  0.7819
  318MOL0     H42880   6.242   8.624   6.861  2.4669 -2.6372 -0.6676
  318MOL0     H42881   6.026   8.321   7.026  0.4190 -0.9368  3.5179
  318MOL0     H42882   6.200   8.194   7.271  3.5917  2.2749  2.4260
  318MOL0     H42883   6.165   8.322   7.385  1.5652  0.4114 -1.3830
  318MOL0     H42884   5.905   8.302   7.269  2.4293  1.9170 -0.3337
  318MOL0     H42885   5.983   8.160   7.191 -2.5125 -3.0333  0.8951
  318MOL0     H42886   6.005   8.163   7.482 -0.6865  3.6958 -1.0932
  318MOL0     H42887   5.992   8.022   7.377  0.6003 -0.7219 -4.1481
  318MOL0     H42888   5.793   8.031   7.510 -0.9213 -0.5966 -1.7365
  318MOL0     H42889   5.739   8.112   7.362  1.4873 -0.1677 -1.0477
  318MOL0     H42890   5.613   8.116   7.655  1.6791 -1.2250 -2.1626
  318MOL0     H42891   5.616   8.077   7.908  2.2588  0.2369  1.7595
  318MOL0     H42892   5.490   8.300   8.196 -2.5292 -0.8737  0.6546
  318MOL0     H42893   5.421   8.366   8.438  3.1924  2.1175 -0.6028
  318MOL0     H42894   5.556   8.101   8.777  3.7712  0.1987  1.6220
  318MOL0     H42895   5.641   8.262   8.783 -1.1925  3.2275 -3.7309
  318MOL0     H42896   5.401   8.352   8.854  0.3563 -1.2117 -2.1904
  318MOL0     H42897   5.370   8.191   8.873 -0.1371  0.0527 -1.1202
  318MOL0     H42898   5.567   8.169   9.033 -1.4704  0.4243  0.1614
  318MOL0     H42899   5.607   8.319   9.012  0.5785 -0.4908  0.6709
  318MOL0     H42900   5.318   8.278   9.086  1.5407 -0.9204 -2.3267
  318MOL0     H42901   5.425   8.403   9.143 -2.2395  0.5310 -0.3622
  318MOL0     H42902   5.553   8.214   9.267 -0.3891  2.0614  1.6316
  318MOL0     H42903   5.427   8.098   9.207 -2.3760 -0.2591  0.8258
  318MOL0     H42904   5.262   8.200   9.342  0.6995  0.9094 -2.8169
  318MOL0     H42905   5.397   8.163   9.452 -2.3589  0.6661  1.8078
  318MOL0     H42906   5.300   8.425   9.361  0.8615 -0.4631 -2.7176
  318MOL0     H42907   5.469   8.411   9.365 -2.3045  1.8200 -2.4800
  318MOL0     H42908   5.465   8.352   9.601  0.1085 -2.3923 -1.9955
  318MOL0     H42909   5.375   8.504   9.576  0.2726 -0.1541  2.8817
  318MOL0     H42910   5.654   8.038   8.580 -0.5582 -2.5595 -1.1121
  318MOL0     H42911   5.723   7.985   8.346 -0.1083  0.7801 -2.0055
  318MOL0     H42912   5.909   8.393   7.928 -0.0714  1.2642 -2.4595
  318MOL0     H42913   5.921   8.388   7.672 -0.4499 -1.4215 -1.0204
  318MOL0     H42914   5.822   7.792   6.404  0.5054 -0.6163  1.6624
  318MOL0     H42915   5.751   7.585   6.297 -2.0125 -1.9958  0.2993
  318MOL0     H42916   5.472   7.286   6.208 -0.7555 -1.1316  0.1713
  318MOL0     H42917   5.425   7.069   6.105 -2.6022  3.1651  2.7122
  318MOL0     H42918   5.492   6.886   5.994  2.5744  3.1648 -1.4717
  318MOL0     H42919   5.478   6.821   5.831 -1.6800 -1.3189 -0.0654
  318MOL0     H42920   5.232   6.881   5.833  0.7946  2.2264 -0.6137
  318MOL0     H42921   5.280   6.958   5.992  2.2569  1.3149  0.7639
  318MOL0     H42922   5.313   6.749   6.095  2.4801 -0.3346 -0.7530
  318MOL0     H42923   5.362   6.681   5.947  1.8607  1.0264  3.5561
  318MOL0     H42924   5.117   6.647   5.876 -1.6736 -4.5984  1.6382
  318MOL0     H42925   5.164   6.571   6.009  0.9281 -1.3649 -4.0769
  318MOL0     H42926   4.903   6.852   6.193 -0.4684  1.2591 -1.1548
  318MOL0     H42927   5.513   7.232   5.718 -2.6227  3.5982 -1.6149
  318MOL0     H42928   5.512   7.463   5.681  1.9884 -0.9293 -0.3309
  318MOL0     H42929   5.454   7.567   5.815  0.4013  0.0433 -0.1586
  318MOL0     H42930   5.630   7.529   5.794 -1.1011  1.4960 -1.4752
  319MOL0     O42931   4.226   7.137  10.031 -0.1675  0.4395  0.1728
  319MOL0     C42932   4.219   7.156   9.909 -1.3337  0.1982  0.4281
  319MOL0     O42933   4.299   7.230   9.832  0.0582 -0.3669 -0.2823
  319MOL0     C42934   4.433   7.241   9.866 -0.2058 -0.0181  0.5911
  319MOL0     C42935   4.497   7.146   9.949  0.4322 -0.0973  0.5686
  319MOL0     C42936   4.633   7.147   9.969 -0.2937 -0.0438  0.2777
  319MOL0     C42937   4.707   7.255   9.939  1.1352 -0.2205 -0.1675
  319MOL0     O42938   4.832   7.261   9.988  1.0836 -1.5257 -0.6998
  319MOL0     C42939   4.926   7.352   9.927 -0.1298 -0.2250 -0.0339
  319MOL0     C42940   5.062   7.317   9.969 -1.0144  0.2344  0.0822
  319MOL0     C42941   5.176   7.375   9.875  1.2239 -0.6763  0.2201
  319MOL0     C42942   5.147   7.520   9.818 -0.3643  0.7881 -0.0188
  319MOL0     C42943   5.151   7.628   9.935 -0.2999 -1.1905  0.2582
  319MOL0     C42944   5.176   7.772   9.887  0.4878  0.3775  0.5238
  319MOL0     C42945   5.088   7.817   9.774 -1.4349 -0.2927 -0.1220
  319MOL0     C42946   5.129   7.949   9.722  0.3441 -0.6924  0.6388
  319MOL0     N42947   5.045   7.983   9.609  0.1982  0.2172 -0.0180
  319MOL0     C42948   4.906   8.009   9.607  0.0781 -0.4449  0.5743
  319MOL0     C42949   4.874   8.036   9.484 -0.0089  0.3699 -0.2190
  319MOL0     C42950   4.731   8.069   9.442  0.0469  0.1279  0.0759
  319MOL0     C42951   4.721   8.063   9.295 -0.1095  0.5586  0.3880
  319MOL0     C42952   4.594   8.125   9.251 -0.1189 -0.2459 -0.0985
  319MOL0     C42953   4.490   8.019   9.236  0.0110 -0.8338 -0.7349
  319MOL0     O42954   4.504   7.925   9.124  0.3778  0.1966 -0.3704
  319MOL0     C42955   4.436   7.804   9.110  1.6167 -0.7533 -0.2724
  319MOL0     C42956   4.329   7.759   9.199 -0.7877 -0.4224  0.6026
  319MOL0     C42957   4.251   7.643   9.159  0.8162 -0.3544  0.4657
  319MOL0     C42958   4.281   7.581   9.030  0.9944 -0.2316 -0.1482
  319MOL0     C42959   4.207   7.473   8.979 -0.9162 -0.6108 -0.6648
  319MOL0     O42960   4.173   7.470   8.853 -0.4302 -0.1225 -0.1076
  319MOL0     C42961   4.093   7.376   8.804  0.7559  0.8075  0.7070
  319MOL0     C42962   4.001   7.419   8.699 -1.4552 -0.8277 -0.3386
  319MOL0     C42963   3.932   7.336   8.612 -0.4282  0.7795 -0.0581
  319MOL0     C42964   3.982   7.203   8.610  0.2134  0.8996  0.3653
  319MOL0     O42965   3.920   7.131   8.500 -0.3266 -0.0532 -0.4276
  319MOL0     C42966   3.970   7.002   8.474 -0.0217 -0.4835 -0.4293
  319MOL0     C42967   3.898   6.948   8.344  0.2511 -0.4005  0.1070
  319MOL0     C42968   3.996   6.908   8.231  0.0043 -0.3517 -0.1487
  319MOL0     C42969   3.927   6.865   8.100  0.0133  0.5977  0.4972
  319MOL0     C42970   4.034   6.838   7.989 -0.8496  0.4527 -0.2757
  319MOL0     C42971   3.975   6.792   7.863 -0.1404  0.5014 -0.3059
  319MOL0     C42972   4.078   6.777   7.750  0.6650 -0.5997 -0.1459
  319MOL0     C42973   4.099   6.912   7.681  0.1136 -0.1019 -0.4399
  319MOL0    Cl42974   4.241   6.904   7.560 -0.2283  0.3144  0.0407
  319MOL0     C42975   4.073   7.152   8.705  0.3359  0.0425 -0.5139
  319MOL0     C42976   4.120   7.240   8.805 -0.0646  0.4933  0.2840
  319MOL0     O42977   4.173   7.392   9.066 -0.5099 -0.0307 -0.1763
  319MOL0     C42978   4.381   7.634   8.949  0.1749 -0.6709 -0.6572
  319MOL0     C42979   4.457   7.743   8.991 -0.9980  0.3070  0.1481
  319MOL0     N42980   4.983   8.004   9.399  0.1331  0.3724 -0.8430
  319MOL0     N42981   5.078   7.959   9.476  0.7339  0.4757 -0.2562
  319MOL0     C42982   4.645   7.369   9.877  0.1448  0.1594 -0.1221
  319MOL0     C42983   4.504   7.359   9.832 -0.0618  0.6073 -0.7134
  319MOL0     C42984   4.091   7.109   9.843 -0.8316 -0.0576  0.1661
  319MOL0     C42985   4.031   7.178   9.733  0.0279  1.0312 -0.8715
  319MOL0     C42986   3.912   7.126   9.689  0.2474  0.2683 -0.0101
  319MOL0     C42987   3.859   7.000   9.728  0.0503 -0.0945 -0.7330
  319MOL0     O42988   3.741   6.964   9.661 -0.2620  0.2787 -0.3068
  319MOL0     C42989   3.702   6.829   9.656 -0.0255  0.1688  0.3956
  319MOL0     C42990   3.802   6.740   9.574  1.0116  0.3216  0.6894
  319MOL0     C42991   3.821   6.791   9.434  0.0363  0.3302 -0.3516
  319MOL0     C42992   3.881   6.675   9.336 -0.4671  0.1349  0.2740
  319MOL0     C42993   3.930   6.739   9.218 -0.0239  0.1843 -0.6679
  319MOL0     C42994   3.956   6.781   9.103  0.6191  0.3414  1.2601
  319MOL0     C42995   3.929   6.922   9.817  0.6653  0.2549  0.3080
  319MOL0     C42996   4.047   6.977   9.880  0.7147  0.8269  0.8285
  319MOL0     C42997   4.118   6.881   9.976  0.1934 -0.2439 -0.3823
  319MOL0     H42998   4.459   7.054   9.992 -1.9774  0.6466  0.1857
  319MOL0     H42999   4.680   7.065  10.023 -2.4049 -0.4355  1.6218
  319MOL0     H43000   4.928   7.370   9.819 -0.3545  0.2121  0.0349
  319MOL0     H43001   4.910   7.454   9.962  2.1116  0.4064 -0.6601
  319MOL0     H43002   5.083   7.210   9.960 -3.1573 -0.1609 -0.7403
  319MOL0     H43003   5.087   7.339  10.073  2.3925  1.8093 -0.9104
  319MOL0     H43004   5.181   7.312   9.786 -0.2270  0.0638 -0.4102
  319MOL0     H43005   5.274   7.372   9.925 -0.6406 -3.2161  4.2995
  319MOL0     H43006   5.219   7.538   9.737  0.4126 -2.9115 -0.3254
  319MOL0     H43007   5.046   7.529   9.778 -2.2032 -0.5074  3.8463
  319MOL0     H43008   5.055   7.617   9.987 -1.3491 -1.9970 -1.7730
  319MOL0     H43009   5.234   7.610  10.005 -1.5654 -4.6022  1.0880
  319MOL0     H43010   5.178   7.837   9.975  0.4079 -1.6236  2.0794
  319MOL0     H43011   5.275   7.774   9.841 -0.7550 -3.1003 -2.8843
  319MOL0     H43012   4.986   7.814   9.813 -1.3827 -0.0118  0.0326
  319MOL0     H43013   5.094   7.737   9.698 -1.6797 -0.7941  0.3806
  319MOL0     H43014   5.114   8.014   9.809  0.0981 -2.5719  2.0631
  319MOL0     H43015   5.233   7.955   9.689  0.2232 -0.3669  0.3099
  319MOL0     H43016   4.839   8.005   9.693 -1.8001  0.5874 -0.7839
  319MOL0     H43017   4.658   8.004   9.490 -0.6608 -0.6156 -1.9112
  319MOL0     H43018   4.712   8.171   9.477 -1.4079 -0.5609  1.4157
  319MOL0     H43019   4.806   8.112   9.246  0.0254 -1.1744 -1.2249
  319MOL0     H43020   4.737   7.963   9.253 -1.0991 -0.4702  2.2818
  319MOL0     H43021   4.617   8.168   9.153  1.8704 -1.7685 -0.3795
  319MOL0     H43022   4.561   8.204   9.320 -1.7778 -0.9122 -0.1027
  319MOL0     H43023   4.393   8.067   9.223  0.7110  0.7800 -0.3025
  319MOL0     H43024   4.485   7.959   9.327  2.3886 -1.9933 -1.2942
  319MOL0     H43025   4.299   7.832   9.274 -1.8000  0.6173 -0.7597
  319MOL0     H43026   4.167   7.611   9.219 -0.4321  0.4887 -0.7563
  319MOL0     H43027   3.979   7.526   8.700  1.4316 -0.1312 -1.3628
  319MOL0     H43028   3.857   7.372   8.543 -1.8932 -3.5306 -1.0393
  319MOL0     H43029   4.076   6.995   8.451  1.0833 -0.6607  3.9356
  319MOL0     H43030   3.951   6.936   8.559  1.0998 -0.3426 -0.0545
  319MOL0     H43031   3.830   6.866   8.367  2.3778 -2.2414  0.1788
  319MOL0     H43032   3.842   7.032   8.302 -0.1863 -0.7713 -0.0592
  319MOL0     H43033   4.069   6.989   8.225 -0.8533  0.3422 -1.5025
  319MOL0     H43034   4.055   6.817   8.249 -2.0334 -2.1398 -1.9221
  319MOL0     H43035   3.852   6.939   8.069 -1.5949 -1.1086  0.1843
  319MOL0     H43036   3.872   6.772   8.118 -4.2438  2.7253 -0.0935
  319MOL0     H43037   4.102   6.761   8.026 -0.2775  1.6419  1.2610
  319MOL0     H43038   4.093   6.928   7.967  2.2374 -1.6265 -1.1312
  319MOL0     H43039   3.924   6.696   7.876 -1.2574  0.5423 -3.3797
  319MOL0     H43040   3.895   6.860   7.833 -0.4261 -0.5345 -2.0912
  319MOL0     H43041   4.031   6.701   7.686 -0.3612 -3.0745  3.2211
  319MOL0     H43042   4.171   6.736   7.792 -0.2685 -1.7262  0.8819
  319MOL0     H43043   4.009   6.938   7.625 -1.3428 -0.0487  1.8217
  319MOL0     H43044   4.121   6.983   7.761  0.7149 -0.0232 -0.6726
  319MOL0     H43045   4.095   7.046   8.695  0.5881 -0.3922  3.2006
  319MOL0     H43046   4.188   7.198   8.878 -1.2470  0.2585  1.2773
  319MOL0     H43047   4.387   7.597   8.847  0.7598 -0.0312 -0.8574
  319MOL0     H43048   4.532   7.779   8.921 -3.2320  0.9904 -2.0381
  319MOL0     H43049   4.703   7.459   9.863 -1.8475  1.3945 -0.8851
  319MOL0     H43050   4.451   7.439   9.780  0.8651 -0.0674 -2.8378
  319MOL0     H43051   4.083   7.266   9.695  1.3071  0.8362  0.3352
  319MOL0     H43052   3.868   7.185   9.609 -2.4501 -0.2402  0.9904
  319MOL0     H43053   3.608   6.834   9.601 -0.9427  2.0076  1.9943
  319MOL0     H43054   3.676   6.793   9.756 -3.9436  1.0579 -0.1134
  319MOL0     H43055   3.779   6.634   9.570  0.8007  0.4100 -1.8911
  319MOL0     H43056   3.899   6.753   9.625  1.9304  0.5666 -1.0450
  319MOL0     H43057   3.896   6.871   9.439  0.0948  0.2544  0.0272
  319MOL0     H43058   3.734   6.841   9.391  0.2150  1.5039  0.6155
  319MOL0     H43059   3.956   6.611   9.382 -0.2442 -1.4906 -2.1635
  319MOL0     H43060   3.804   6.612   9.291  0.5667 -1.0056  0.0563
  319MOL0     H43061   4.003   6.814   9.012  1.5202  2.9410  2.5583
  319MOL0     H43062   3.899   6.819   9.832  0.9277 -0.2959 -2.3926
  319MOL0     H43063   4.086   6.776   9.983 -0.6056  0.0175  0.0165
  319MOL0     H43064   4.220   6.885   9.938  0.3638  2.3441  0.1971
  319MOL0     H43065   4.111   6.933  10.072  0.5343  0.2894 -0.6490
  320MOL0     O43066   9.289   3.995   0.653 -0.4693 -0.5913 -1.0397
  320MOL0     C43067   9.376   3.967   0.735 -0.2994  1.0064  0.1367
  320MOL0     O43068   9.436   3.842   0.750  0.0983 -0.5069  0.1328
  320MOL0     C43069   9.470   3.757   0.649  0.2439 -0.3896  1.0818
  320MOL0     C43070   9.469   3.795   0.514  0.2307 -0.5141  0.2466
  320MOL0     C43071   9.489   3.692   0.414  0.3326  0.2212 -0.0179
  320MOL0     C43072   9.501   3.563   0.453 -0.6963  1.0623 -0.1785
  320MOL0     O43073   9.511   3.458   0.360  0.5472  0.1260  0.4843
  320MOL0     C43074   9.441   3.456   0.238 -0.0482 -0.2868  0.0075
  320MOL0     C43075   9.290   3.417   0.249  0.5042 -1.3600  0.0815
  320MOL0     C43076   9.267   3.301   0.347 -0.0757 -0.9895  0.0066
  320MOL0     C43077   9.126   3.253   0.335  0.1141 -0.4041  0.3330
  320MOL0     C43078   9.110   3.107   0.373  0.3272  0.2036  0.6712
  320MOL0     C43079   8.965   3.056   0.378 -0.0978 -0.2389  0.0238
  320MOL0     C43080   8.888   3.105   0.250  0.8177 -0.0531 -0.5111
  320MOL0     C43081   8.815   3.240   0.241  0.1714  0.1966  0.8384
  320MOL0     N43082   8.689   3.233   0.164 -0.0577 -0.0791  0.4262
  320MOL0     C43083   8.673   3.216   0.026 -0.4965 -0.1362 -0.6293
  320MOL0     C43084   8.544   3.234   0.010  0.0435  0.8092  0.6280
  320MOL0     C43085   8.482   3.215  -0.121 -0.2343  0.3579 -0.3194
  320MOL0     C43086   8.333   3.165  -0.107 -0.9967 -0.1801 -0.0819
  320MOL0     C43087   8.264   3.159  -0.243 -0.1197 -0.2327 -0.0732
  320MOL0     C43088   8.303   3.023  -0.303  0.4823  0.0329 -0.1647
  320MOL0     O43089   8.284   3.039  -0.442  0.2687  0.5619  0.5433
  320MOL0     C43090   8.314   2.936  -0.524  0.3075 -0.3220 -0.0422
  320MOL0     C43091   8.286   2.805  -0.492 -0.3865 -0.5981 -0.8421
  320MOL0     C43092   8.296   2.700  -0.581 -0.4086 -0.4124  0.0143
  320MOL0     C43093   8.349   2.731  -0.710  0.2523  0.2583  0.3090
  320MOL0     C43094   8.382   2.623  -0.798  0.0041 -0.1358  0.2038
  320MOL0     O43095   8.388   2.638  -0.929  0.0710  0.1363 -0.0427
  320MOL0     C43096   8.412   2.536  -1.012  0.1343 -0.6199  0.3305
  320MOL0     C43097   8.501   2.570  -1.117  0.8366  0.0160 -1.2207
  320MOL0     C43098   8.525   2.469  -1.219 -0.3574  0.1051  0.4221
  320MOL0     C43099   8.468   2.346  -1.221 -0.4448 -0.0347 -0.6909
  320MOL0     O43100   8.496   2.275  -1.330 -0.0750 -0.3771  0.9782
  320MOL0     C43101   8.554   2.148  -1.302 -1.1388  0.5830  0.4924
  320MOL0     C43102   8.586   2.056  -1.423 -0.6724 -0.7530  0.1575
  320MOL0     C43103   8.624   1.931  -1.361 -0.9516 -0.2994  0.1444
  320MOL0     C43104   8.633   1.828  -1.474  0.8251 -0.4885 -0.1915
  320MOL0     C43105   8.752   1.839  -1.567 -1.3598 -1.9789  0.0436
  320MOL0     C43106   8.755   1.732  -1.669  0.1849 -0.3190  0.2103
  320MOL0     C43107   8.785   1.589  -1.607  0.3162 -1.1721 -0.2608
  320MOL0     C43108   8.809   1.498  -1.726  0.5243  0.7385 -0.1330
  320MOL0    Cl43109   8.885   1.350  -1.652 -0.1417 -0.6468  0.1476
  320MOL0     C43110   8.373   2.319  -1.125 -0.0230 -0.2452  0.1340
  320MOL0     C43111   8.346   2.416  -1.023 -0.3947  0.4945 -0.1210
  320MOL0     O43112   8.422   2.519  -0.730  0.3631 -0.5316 -0.1750
  320MOL0     C43113   8.371   2.863  -0.747 -1.0287 -0.4436  0.3907
  320MOL0     C43114   8.356   2.963  -0.650  0.2363 -0.3600 -1.0541
  320MOL0     N43115   8.483   3.234   0.129  0.2379  0.5112 -0.4707
  320MOL0     N43116   8.564   3.252   0.229 -0.5749  0.5002 -0.2720
  320MOL0     C43117   9.495   3.527   0.586  0.2023  0.2073  1.1681
  320MOL0     C43118   9.486   3.626   0.680  0.4332  0.3822  0.5336
  320MOL0     C43119   9.413   4.060   0.841  0.5420  0.1333 -0.4933
  320MOL0     C43120   9.487   4.014   0.944 -0.1936  0.0656 -0.6305
  320MOL0     C43121   9.505   4.089   1.064  0.3867 -0.0198  0.9451
  320MOL0     C43122   9.464   4.220   1.069  0.0757 -0.3496 -0.8432
  320MOL0     O43123   9.474   4.307   1.183  0.1250  0.1159  0.6839
  320MOL0     C43124   9.531   4.277   1.304  1.3488  0.3500  0.0364
  320MOL0     C43125   9.690   4.272   1.301 -0.4530 -0.3538  0.2200
  320MOL0     C43126   9.735   4.289   1.453  0.4905  0.3182  0.6290
  320MOL0     C43127   9.894   4.313   1.467  0.6049  0.5421 -0.0359
  320MOL0     C43128   9.944   4.439   1.411 -1.2155 -0.4483  0.7076
  320MOL0     C43129   9.984   4.537   1.354 -0.4863 -0.5114 -0.1395
  320MOL0     C43130   9.410   4.279   0.956 -1.0599  1.0818  0.0400
  320MOL0     C43131   9.365   4.197   0.848  0.6565  0.6259 -0.1214
  320MOL0     C43132   9.292   4.270   0.729 -0.0392 -0.6335  0.0644
  320MOL0     H43133   9.465   3.897   0.478 -2.3538  0.0405  1.8477
  320MOL0     H43134   9.482   3.725   0.311  1.4924  2.3340  0.5219
  320MOL0     H43135   9.451   3.549   0.181  2.2165  0.3564  1.3710
  320MOL0     H43136   9.492   3.375   0.185  1.8248 -0.9154  2.5962
  320MOL0     H43137   9.259   3.408   0.144  0.8787  0.8919 -0.2743
  320MOL0     H43138   9.224   3.494   0.290 -1.1610 -2.0730 -1.1495
  320MOL0     H43139   9.273   3.336   0.451 -0.8742  3.0960 -1.1396
  320MOL0     H43140   9.337   3.220   0.326  0.8885 -0.7593  2.0664
  320MOL0     H43141   9.057   3.317   0.390  0.5785 -0.7652  1.3717
  320MOL0     H43142   9.104   3.262   0.228  2.4230 -1.5052 -0.2988
  320MOL0     H43143   9.152   3.034   0.303 -2.8073 -1.3996  0.3096
  320MOL0     H43144   9.156   3.103   0.472  2.5953 -1.1131 -0.3420
  320MOL0     H43145   8.970   2.947   0.373  2.5725 -0.1062 -2.8177
  320MOL0     H43146   8.916   3.075   0.474  1.6763  0.8918  0.7514
  320MOL0     H43147   8.829   3.018   0.222 -2.3720  1.4995  0.9258
  320MOL0     H43148   8.958   3.101   0.166  0.1739 -1.0962 -1.0105
  320MOL0     H43149   8.784   3.271   0.341 -2.7081  2.1116 -0.4906
  320MOL0     H43150   8.870   3.322   0.194  0.6691 -1.1892 -1.1153
  320MOL0     H43151   8.737   3.186  -0.056  0.2740 -0.4472  0.0699
  320MOL0     H43152   8.488   3.308  -0.180  0.1822 -2.4653 -5.3069
  320MOL0     H43153   8.531   3.139  -0.181 -0.6664  0.3719 -0.6983
  320MOL0     H43154   8.341   3.064  -0.067  0.0576 -0.9111 -2.0330
  320MOL0     H43155   8.284   3.240  -0.043 -0.4101  0.8985 -0.8649
  320MOL0     H43156   8.281   3.246  -0.307 -1.9949 -1.7681 -2.8636
  320MOL0     H43157   8.157   3.163  -0.221 -0.3000 -0.4257 -0.8895
  320MOL0     H43158   8.236   2.947  -0.263  1.1354 -1.4744 -1.8174
  320MOL0     H43159   8.407   3.004  -0.276 -0.3659  1.5401  5.4372
  320MOL0     H43160   8.254   2.765  -0.396  0.2745 -1.9279 -1.1602
  320MOL0     H43161   8.255   2.603  -0.554  1.6711 -0.8250  1.9461
  320MOL0     H43162   8.548   2.668  -1.114  1.4892 -0.2826 -1.3820
  320MOL0     H43163   8.598   2.476  -1.299  0.7745  0.9606  1.4900
  320MOL0     H43164   8.638   2.153  -1.232 -0.9392 -1.4085  0.4280
  320MOL0     H43165   8.479   2.095  -1.242 -0.6262 -1.9616 -0.9848
  320MOL0     H43166   8.508   2.053  -1.499 -0.0087 -3.6656 -0.5176
  320MOL0     H43167   8.666   2.113  -1.473 -1.1760  2.0999  2.3643
  320MOL0     H43168   8.712   1.949  -1.298 -0.9997 -1.0555  0.4277
  320MOL0     H43169   8.553   1.894  -1.288  1.4422  0.3111  2.9724
  320MOL0     H43170   8.543   1.844  -1.535 -0.6351  1.3475  2.2705
  320MOL0     H43171   8.634   1.726  -1.435 -1.6242 -1.3240 -2.0451
  320MOL0     H43172   8.850   1.850  -1.519 -1.2245  1.9393 -0.8068
  320MOL0     H43173   8.731   1.921  -1.636 -2.0715 -3.6195 -1.7783
  320MOL0     H43174   8.654   1.740  -1.708 -0.0432  1.8835  1.1457
  320MOL0     H43175   8.825   1.761  -1.749  2.4221  2.3678  2.8846
  320MOL0     H43176   8.702   1.544  -1.553  1.3421  0.2516  2.7017
  320MOL0     H43177   8.868   1.589  -1.536  0.5643 -0.8283 -0.5412
  320MOL0     H43178   8.716   1.468  -1.776  0.0540  0.3821  0.9089
  320MOL0     H43179   8.878   1.547  -1.795 -0.2802  3.4227  0.8291
  320MOL0     H43180   8.323   2.222  -1.127 -2.0907  0.7741 -1.3533
  320MOL0     H43181   8.271   2.389  -0.949 -1.4908  1.2979 -0.8959
  320MOL0     H43182   8.413   2.893  -0.843  0.2065  3.8139  2.0371
  320MOL0     H43183   8.361   3.067  -0.679  0.1825  0.7724  2.5335
  320MOL0     H43184   9.493   3.421   0.611  1.8856 -0.0495  0.3647
  320MOL0     H43185   9.479   3.604   0.786  1.2080  1.9665  0.9456
  320MOL0     H43186   9.515   3.911   0.963  2.0886  1.1157  2.4555
  320MOL0     H43187   9.561   4.043   1.145 -0.8878  0.2871  2.0451
  320MOL0     H43188   9.486   4.182   1.334 -1.7348  2.0996  1.4272
  320MOL0     H43189   9.510   4.353   1.380  2.1746  2.2885 -1.5944
  320MOL0     H43190   9.730   4.366   1.263 -0.1192 -0.5705  0.0335
  320MOL0     H43191   9.734   4.192   1.240  0.4921  1.5982 -1.7978
  320MOL0     H43192   9.714   4.193   1.500  2.2169 -1.3573 -1.7587
  320MOL0     H43193   9.686   4.370   1.509 -0.3504  1.3425 -1.4702
  320MOL0     H43194   9.925   4.308   1.572 -0.4578 -0.2921  0.2562
  320MOL0     H43195   9.950   4.237   1.410 -0.6790  0.7378 -1.6346
  320MOL0     H43196  10.017   4.626   1.304 -0.8134  1.8149  3.4560
  320MOL0     H43197   9.374   4.382   0.957 -1.8108  0.8396  1.0724
  320MOL0     H43198   9.265   4.374   0.753 -2.4644 -1.2257  0.1530
  320MOL0     H43199   9.353   4.277   0.638  2.8978  1.1569  1.9935
  320MOL0     H43200   9.207   4.203   0.713  0.5961 -1.3632 -0.3293
  321MOL0     O43201   0.854   5.758   5.435  0.3977 -0.5599 -0.8726
  321MOL0     C43202   0.844   5.845   5.348 -0.1804  0.2427 -0.0737
  321MOL0     O43203   0.726   5.870   5.279 -0.6538 -0.7923  0.0572
  321MOL0     C43204   0.608   5.811   5.302  0.6104  0.0009 -0.2121
  321MOL0     C43205   0.515   5.805   5.196 -0.3125 -0.4174  0.5305
  321MOL0     C43206   0.387   5.747   5.208 -0.7183 -0.0532 -0.5293
  321MOL0     C43207   0.356   5.689   5.324  0.2279 -0.6437  0.4240
  321MOL0     O43208   0.230   5.641   5.319 -0.0356 -0.5505 -0.5533
  321MOL0     C43209   0.156   5.665   5.444 -0.9660  0.2683 -0.0090
  321MOL0     C43210   0.009   5.691   5.414 -0.1570  1.5801  0.5361
  321MOL0     C43211  -0.055   5.598   5.306  0.2358 -1.2815  0.3634
  321MOL0     C43212  -0.063   5.452   5.366 -0.3428  0.5478  0.2118
  321MOL0     C43213  -0.167   5.358   5.312 -0.3113  0.6199  0.7233
  321MOL0     C43214  -0.170   5.218   5.388  0.9933  0.2533 -0.9630
  321MOL0     C43215  -0.285   5.125   5.334  0.0138 -0.0474 -0.5418
  321MOL0     C43216  -0.269   4.972   5.365  0.5312 -1.3114  1.5809
  321MOL0     N43217  -0.144   4.913   5.312  0.2141 -1.0119  0.3526
  321MOL0     C43218  -0.049   4.849   5.396 -0.7198  0.7559 -0.4929
  321MOL0     C43219   0.025   4.775   5.302  0.3549 -1.0406  0.6069
  321MOL0     C43220   0.144   4.691   5.331  0.0692 -0.0500  0.4313
  321MOL0     C43221   0.281   4.767   5.348  1.0008  0.1952 -0.5102
  321MOL0     C43222   0.383   4.698   5.256 -0.9575  0.1564  0.1318
  321MOL0     C43223   0.524   4.751   5.268 -0.5266 -0.1428  0.0197
  321MOL0     O43224   0.597   4.704   5.386 -0.8813 -0.7685 -0.1526
  321MOL0     C43225   0.649   4.578   5.386 -0.1962  0.4118  0.7313
  321MOL0     C43226   0.647   4.493   5.263  0.0617  0.2551 -0.3359
  321MOL0     C43227   0.669   4.355   5.259 -0.2072  0.7732 -0.2196
  321MOL0     C43228   0.694   4.289   5.383 -0.0204  0.2051  0.0799
  321MOL0     C43229   0.703   4.136   5.386  1.1140 -0.3834  0.0841
  321MOL0     O43230   0.718   4.074   5.257  0.2434 -0.0568  0.3586
  321MOL0     C43231   0.680   3.946   5.239  0.2798 -0.1301 -0.6536
  321MOL0     C43232   0.685   3.901   5.106 -0.1124 -0.4699  0.0773
  321MOL0     C43233   0.645   3.777   5.069 -0.1003 -0.2694  0.3811
  321MOL0     C43234   0.581   3.698   5.163  0.7943  0.4848  1.1842
  321MOL0     O43235   0.525   3.570   5.135  0.1870  0.3735  0.3815
  321MOL0     C43236   0.594   3.473   5.050  0.0688 -0.3428  0.2543
  321MOL0     C43237   0.522   3.337   5.065 -0.7059 -1.0191 -1.0388
  321MOL0     C43238   0.617   3.227   5.040  0.2727  0.8365 -0.1618
  321MOL0     C43239   0.546   3.093   5.068  0.1703 -1.6461  0.5818
  321MOL0     C43240   0.662   2.982   5.063 -0.0508  0.1133  0.1640
  321MOL0     C43241   0.619   2.837   5.069 -0.2905 -0.2821 -0.4436
  321MOL0     C43242   0.557   2.801   5.206 -0.2449  0.6859 -0.4352
  321MOL0     C43243   0.463   2.688   5.218 -0.2516  0.4232 -1.0335
  321MOL0    Cl43244   0.291   2.755   5.185 -0.4983 -0.0809  0.5463
  321MOL0     C43245   0.557   3.748   5.286 -0.0499 -0.5156  0.8714
  321MOL0     C43246   0.603   3.872   5.331  0.6143 -0.8302  0.5153
  321MOL0     O43247   0.684   4.082   5.496 -0.4912  0.2232 -0.0137
  321MOL0     C43248   0.686   4.365   5.501 -0.2351 -0.1737  0.1918
  321MOL0     C43249   0.665   4.505   5.510 -0.5350 -0.9097  0.8706
  321MOL0     N43250  -0.010   4.808   5.171  0.5131  1.1346 -0.0942
  321MOL0     N43251  -0.110   4.888   5.182  0.0178  0.5235  0.6430
  321MOL0     C43252   0.441   5.693   5.437 -0.7914 -0.1405 -0.3161
  321MOL0     C43253   0.565   5.753   5.420  0.1612 -0.0590 -0.5369
  321MOL0     C43254   0.971   5.924   5.319 -0.1335 -0.8680 -0.3129
  321MOL0     C43255   0.951   6.045   5.244  0.3641 -0.1741 -0.8130
  321MOL0     C43256   1.054   6.130   5.218 -0.3731  0.0385  0.9106
  321MOL0     C43257   1.185   6.113   5.264 -0.4997 -0.1508 -0.4944
  321MOL0     O43258   1.280   6.202   5.226 -0.8852 -0.3608 -0.5013
  321MOL0     C43259   1.344   6.263   5.337 -0.4608  0.6604  0.9322
  321MOL0     C43260   1.499   6.282   5.318  0.9683 -0.1992 -0.5592
  321MOL0     C43261   1.580   6.162   5.328 -0.1344  0.8250  0.3849
  321MOL0     C43262   1.606   6.123   5.479 -0.4860  0.8479 -0.5299
  321MOL0     C43263   1.743   6.073   5.505 -0.5481 -0.7135  0.5979
  321MOL0     C43264   1.861   6.059   5.545 -0.1473 -0.5882  0.4931
  321MOL0     C43265   1.208   6.004   5.344  0.3843 -0.1725 -0.1329
  321MOL0     C43266   1.104   5.903   5.369 -1.1891 -0.6803  0.1098
  321MOL0     C43267   1.137   5.791   5.472 -0.6855  0.6571  0.8747
  321MOL0     H43268   0.543   5.851   5.103  0.6775 -1.0553  0.4938
  321MOL0     H43269   0.313   5.747   5.128  1.3531  3.3956 -2.7309
  321MOL0     H43270   0.164   5.572   5.501  0.0891  0.4648  0.1836
  321MOL0     H43271   0.194   5.750   5.501  1.3392 -0.0070 -1.0219
  321MOL0     H43272   0.013   5.786   5.359  1.4634  0.9984 -0.4003
  321MOL0     H43273  -0.048   5.694   5.507  0.9073  2.4515  1.1830
  321MOL0     H43274  -0.022   5.610   5.203 -0.2027  0.2199  0.3689
  321MOL0     H43275  -0.156   5.638   5.288  0.6557 -1.1982 -2.2322
  321MOL0     H43276   0.033   5.407   5.339 -1.8365 -1.5311 -2.1210
  321MOL0     H43277  -0.072   5.451   5.475  0.3414  0.5871  0.2723
  321MOL0     H43278  -0.264   5.408   5.306 -0.7547 -0.3841 -1.9281
  321MOL0     H43279  -0.140   5.346   5.207 -0.4571  1.2493  0.6090
  321MOL0     H43280  -0.078   5.159   5.380 -0.6712 -2.6556 -0.3310
  321MOL0     H43281  -0.179   5.234   5.496  1.4082  0.5473 -0.9678
  321MOL0     H43282  -0.281   5.140   5.226  0.4380  1.5697 -0.3345
  321MOL0     H43283  -0.377   5.162   5.379 -0.2345 -1.2041 -0.0641
  321MOL0     H43284  -0.284   4.969   5.473  0.4516 -0.7339  1.5905
  321MOL0     H43285  -0.348   4.915   5.316  1.8548 -3.0686  1.3901
  321MOL0     H43286  -0.014   4.855   5.499  2.2243 -5.5487 -0.6055
  321MOL0     H43287   0.121   4.642   5.426 -0.8991  3.2991  2.0944
  321MOL0     H43288   0.143   4.611   5.257 -2.0508  0.4181 -0.0996
  321MOL0     H43289   0.278   4.874   5.324  1.0882  1.1288  3.1529
  321MOL0     H43290   0.307   4.766   5.454 -0.0659 -1.0170 -0.2404
  321MOL0     H43291   0.345   4.701   5.153 -0.9013 -1.3432  0.0448
  321MOL0     H43292   0.380   4.591   5.281 -2.7167 -0.6236 -2.8051
  321MOL0     H43293   0.505   4.858   5.269 -1.1160 -0.0051 -4.4499
  321MOL0     H43294   0.581   4.736   5.176  0.8704 -3.1398  1.2154
  321MOL0     H43295   0.631   4.525   5.160  1.2659 -4.4601 -2.2763
  321MOL0     H43296   0.656   4.304   5.164 -2.9921 -0.0158  0.5123
  321MOL0     H43297   0.736   3.968   5.038  1.7689 -2.1818 -0.2877
  321MOL0     H43298   0.646   3.743   4.966 -1.4950 -2.9058  1.1432
  321MOL0     H43299   0.582   3.503   4.945 -1.9739 -0.2257  0.4892
  321MOL0     H43300   0.695   3.470   5.091 -0.2935  1.4612  1.3918
  321MOL0     H43301   0.495   3.333   5.171  1.4078  3.1522 -0.1210
  321MOL0     H43302   0.428   3.331   5.010 -0.3821 -0.1478 -1.7176
  321MOL0     H43303   0.647   3.233   4.935 -0.1474  3.3713 -0.1796
  321MOL0     H43304   0.707   3.225   5.103  1.1127 -4.6828 -1.0088
  321MOL0     H43305   0.473   3.067   4.990 -0.0649 -3.1720  1.2740
  321MOL0     H43306   0.486   3.105   5.158  0.3783  1.0444  0.4473
  321MOL0     H43307   0.740   2.992   5.139 -0.2021 -0.2576  0.3674
  321MOL0     H43308   0.714   3.000   4.968  0.2092  2.6768  0.7016
  321MOL0     H43309   0.556   2.821   4.981  0.6745  2.7108 -1.8150
  321MOL0     H43310   0.711   2.785   5.041  0.3814  1.1023 -0.8793
  321MOL0     H43311   0.516   2.898   5.234 -2.0322  0.4084 -1.9339
  321MOL0     H43312   0.639   2.788   5.278  1.1818 -2.4134 -2.3740
  321MOL0     H43313   0.505   2.608   5.156 -0.5382  0.0423 -0.7406
  321MOL0     H43314   0.468   2.658   5.323 -2.2230 -0.0048 -1.0207
  321MOL0     H43315   0.489   3.693   5.350 -1.6517  1.7065  1.2043
  321MOL0     H43316   0.574   3.882   5.435  1.5989 -3.8495  1.1931
  321MOL0     H43317   0.707   4.314   5.595  4.6084  0.4607 -0.3307
  321MOL0     H43318   0.669   4.567   5.599 -1.3180 -1.0010  0.9762
  321MOL0     H43319   0.417   5.642   5.530  2.6004  0.7679  1.1665
  321MOL0     H43320   0.626   5.741   5.509 -0.6625 -0.1865  0.0216
  321MOL0     H43321   0.856   6.075   5.201  0.6180  0.2147 -1.1095
  321MOL0     H43322   1.036   6.209   5.146  0.8218 -0.3336  0.1699
  321MOL0     H43323   1.327   6.214   5.433 -1.9748 -0.1545  0.2708
  321MOL0     H43324   1.295   6.360   5.347 -0.4223  0.8484 -0.4999
  321MOL0     H43325   1.524   6.344   5.405 -1.4792 -3.0359  2.4388
  321MOL0     H43326   1.525   6.342   5.230 -2.0544  0.5804 -1.0234
  321MOL0     H43327   1.680   6.191   5.295 -0.7359  0.5387 -1.8549
  321MOL0     H43328   1.539   6.083   5.265 -1.1291  1.7602 -0.1603
  321MOL0     H43329   1.590   6.197   5.557  0.7288 -0.4786  1.0550
  321MOL0     H43330   1.541   6.038   5.502  0.6009 -0.3849 -1.8336
  321MOL0     H43331   1.964   6.046   5.569 -0.6879 -4.3183  1.3741
  321MOL0     H43332   1.310   5.996   5.381 -0.7968 -1.8208  3.1233
  321MOL0     H43333   1.245   5.779   5.458 -0.3664  1.8827  2.0195
  321MOL0     H43334   1.126   5.820   5.577 -1.4025  0.8248  0.7588
  321MOL0     H43335   1.097   5.695   5.439 -0.8387  1.7948 -2.6801
  322MOL0     O43336   7.117   1.379   4.673 -0.3763  0.4215  0.0237
  322MOL0     C43337   7.196   1.369   4.581 -0.5035  0.4679 -0.4301
  322MOL0     O43338   7.168   1.387   4.455 -0.0578 -0.2614  0.8947
  322MOL0     C43339   7.041   1.410   4.408 -0.6121  0.4016  0.0199
  322MOL0     C43340   7.005   1.540   4.373  0.1593  0.8138  1.2707
  322MOL0     C43341   6.885   1.566   4.308  0.5526 -0.4318 -0.3809
  322MOL0     C43342   6.804   1.456   4.262 -0.0865  0.1949 -0.4604
  322MOL0     O43343   6.678   1.475   4.214 -0.3776 -0.7727 -0.6188
  322MOL0     C43344   6.579   1.370   4.242  0.1119  0.4215 -0.3849
  322MOL0     C43345   6.434   1.412   4.235 -0.0224 -0.4403  0.2346
  322MOL0     C43346   6.405   1.438   4.084  0.8845 -0.4833  0.6320
  322MOL0     C43347   6.254   1.469   4.066  0.6890 -1.2974 -0.5468
  322MOL0     C43348   6.227   1.548   3.938  0.5767  1.3757  0.3536
  322MOL0     C43349   6.248   1.698   3.945  0.0144  0.2415 -0.5830
  322MOL0     C43350   6.196   1.772   3.819  0.0101  0.0298  0.5648
  322MOL0     C43351   6.194   1.924   3.860  1.0802 -1.0080 -0.0578
  322MOL0     N43352   6.131   2.003   3.759 -0.0689  0.0695 -0.6956
  322MOL0     C43353   6.157   1.990   3.623  0.1011 -0.0311  0.1629
  322MOL0     C43354   6.066   2.070   3.559 -0.5560  0.3447 -0.1154
  322MOL0     C43355   6.061   2.095   3.416 -0.7358  0.4646 -0.5562
  322MOL0     C43356   5.979   2.226   3.391 -0.1872  0.8961  0.9978
  322MOL0     C43357   5.931   2.239   3.246  0.3087 -0.1889  0.4834
  322MOL0     C43358   6.034   2.231   3.130 -0.1411 -0.5402 -1.0892
  322MOL0     O43359   5.955   2.228   3.011 -0.1419 -0.3931  0.3297
  322MOL0     C43360   6.028   2.228   2.899  0.4135  0.0720  0.4233
  322MOL0     C43361   5.952   2.202   2.784  0.9098  0.5887  0.1880
  322MOL0     C43362   6.016   2.193   2.662  0.5024  0.4916  0.3769
  322MOL0     C43363   6.149   2.220   2.637 -0.4618  0.6562  0.1923
  322MOL0     C43364   6.211   2.210   2.500  1.2328 -0.2600  0.7372
  322MOL0     O43365   6.349   2.182   2.503 -0.3368 -0.1739  0.8283
  322MOL0     C43366   6.405   2.132   2.391  0.4260 -0.3029  0.6624
  322MOL0     C43367   6.466   2.206   2.289  0.2885  0.6616 -0.5105
  322MOL0     C43368   6.501   2.143   2.178 -0.7198  0.3348  0.6796
  322MOL0     C43369   6.517   2.007   2.157 -0.0780  0.2990 -0.0717
  322MOL0     O43370   6.584   1.966   2.045  0.3962 -0.5866 -0.0992
  322MOL0     C43371   6.494   1.940   1.932 -0.4572  0.5412 -0.8554
  322MOL0     C43372   6.441   1.796   1.943  0.0441  0.0576  0.9385
  322MOL0     C43373   6.548   1.690   1.959 -0.8097 -0.5568  0.2580
  322MOL0     C43374   6.482   1.557   1.938  0.6489 -0.2984 -0.0877
  322MOL0     C43375   6.562   1.430   1.954 -0.9262  0.5192 -0.3573
  322MOL0     C43376   6.607   1.401   2.098  0.9129  0.1471 -0.2084
  322MOL0     C43377   6.721   1.286   2.117  0.5118 -0.2516 -1.0670
  322MOL0     C43378   6.668   1.157   2.171  0.0171 -0.0438 -0.1450
  322MOL0    Cl43379   6.521   1.105   2.081  0.4741 -0.1879 -0.1678
  322MOL0     C43380   6.487   1.931   2.264  0.5654 -0.7695 -0.4854
  322MOL0     C43381   6.423   1.992   2.376  0.3208  0.3744  0.1181
  322MOL0     O43382   6.139   2.213   2.396 -0.6809  0.2230 -0.5199
  322MOL0     C43383   6.228   2.236   2.750 -0.1739  0.6492 -0.6570
  322MOL0     C43384   6.164   2.246   2.882 -0.8295  0.3723  0.8676
  322MOL0     N43385   5.983   2.137   3.659 -0.5093  0.9277  0.8467
  322MOL0     N43386   6.023   2.088   3.776 -0.3340  0.4445  0.9826
  322MOL0     C43387   6.859   1.325   4.286  0.3592 -0.6403 -0.2055
  322MOL0     C43388   6.974   1.307   4.360 -1.0652  0.2911  0.1321
  322MOL0     C43389   7.332   1.326   4.608 -0.4088  0.3587 -0.4889
  322MOL0     C43390   7.429   1.392   4.536 -0.7163  0.2189  0.4479
  322MOL0     C43391   7.555   1.347   4.541 -0.5329  0.1967 -0.5756
  322MOL0     C43392   7.592   1.244   4.623  0.7502  0.7300  0.2227
  322MOL0     O43393   7.723   1.214   4.629  0.3367  0.0363 -0.3678
  322MOL0     C43394   7.770   1.075   4.620 -0.1636  0.0222  0.0186
  322MOL0     C43395   7.857   1.040   4.741 -0.2251  0.4638  0.2219
  322MOL0     C43396   7.957   1.162   4.768  0.2601  0.1561  0.3658
  322MOL0     C43397   8.031   1.235   4.644 -0.0792  0.7446  0.2006
  322MOL0     C43398   8.139   1.148   4.597  0.7149  0.6847  0.9152
  322MOL0     C43399   8.233   1.081   4.575  0.5990  0.3579 -0.3518
  322MOL0     C43400   7.489   1.172   4.687 -0.0563  0.3141  1.5695
  322MOL0     C43401   7.363   1.226   4.695 -0.7084  0.2412 -0.3501
  322MOL0     C43402   7.272   1.152   4.779 -0.2672 -0.6755  0.1697
  322MOL0     H43403   7.071   1.620   4.407  1.3126 -0.0111  1.0458
  322MOL0     H43404   6.867   1.673   4.303 -0.6577 -0.4736  1.8484
  322MOL0     H43405   6.597   1.291   4.169  1.8539  0.4319 -0.0108
  322MOL0     H43406   6.605   1.332   4.341 -0.2406  2.0409  0.3690
  322MOL0     H43407   6.423   1.500   4.298  0.4546 -0.0418 -0.2284
  322MOL0     H43408   6.375   1.328   4.273 -0.0175 -1.2756 -1.4889
  322MOL0     H43409   6.426   1.343   4.035 -2.7402 -2.7178  2.9685
  322MOL0     H43410   6.460   1.518   4.034  2.6413 -1.0142  1.6475
  322MOL0     H43411   6.187   1.382   4.056  1.6062 -2.1357  0.3229
  322MOL0     H43412   6.218   1.520   4.156  4.7126  1.8880 -0.4523
  322MOL0     H43413   6.286   1.510   3.854  0.7671 -1.1137  1.5305
  322MOL0     H43414   6.124   1.540   3.904  1.2371 -2.4496 -1.2574
  322MOL0     H43415   6.187   1.732   4.029 -2.5204  0.5714 -2.4171
  322MOL0     H43416   6.350   1.731   3.967 -1.1753  2.9863  1.3278
  322MOL0     H43417   6.098   1.735   3.789  0.8957 -1.1460 -1.0533
  322MOL0     H43418   6.256   1.749   3.731 -1.6551 -4.4265  0.3097
  322MOL0     H43419   6.143   1.939   3.955  0.5135  1.1650 -0.6574
  322MOL0     H43420   6.297   1.962   3.861  1.8559 -2.9316 -1.1672
  322MOL0     H43421   6.235   1.938   3.568  1.6397  0.8776  1.4307
  322MOL0     H43422   6.159   2.118   3.372 -1.3846  1.2998 -1.6163
  322MOL0     H43423   6.025   2.005   3.365  1.8557  0.4691 -2.6244
  322MOL0     H43424   5.891   2.237   3.455 -0.4208 -2.4058  1.4366
  322MOL0     H43425   6.045   2.312   3.405  1.2308  0.1200 -0.4970
  322MOL0     H43426   5.871   2.330   3.237 -1.7640 -1.7070 -2.9434
  322MOL0     H43427   5.864   2.155   3.224  1.0647 -0.7634  0.3432
  322MOL0     H43428   6.110   2.152   3.138  2.9641  2.3594  0.3189
  322MOL0     H43429   6.087   2.326   3.131  0.8455 -0.9850  2.1886
  322MOL0     H43430   5.847   2.174   2.781  1.3032 -1.0266 -3.1809
  322MOL0     H43431   5.953   2.163   2.579  1.5946 -2.2472  0.4320
  322MOL0     H43432   6.466   2.313   2.307 -0.0486  0.8816 -1.7167
  322MOL0     H43433   6.514   2.208   2.092  0.1246  0.6984  1.0691
  322MOL0     H43434   6.409   2.007   1.925 -1.4951 -0.4683  1.1451
  322MOL0     H43435   6.565   1.943   1.848 -0.7136 -1.5170 -1.2082
  322MOL0     H43436   6.373   1.793   2.028 -0.2229 -0.2123  0.7205
  322MOL0     H43437   6.393   1.775   1.847 -0.6548 -1.1250  1.5313
  322MOL0     H43438   6.620   1.705   1.879  0.0007  0.5329  1.1728
  322MOL0     H43439   6.595   1.695   2.057 -0.1165 -0.0797 -0.0928
  322MOL0     H43440   6.456   1.552   1.832 -0.7318 -1.5157  0.2749
  322MOL0     H43441   6.393   1.554   2.002  0.4500  2.3916 -0.1288
  322MOL0     H43442   6.653   1.425   1.893 -0.3566  1.0774  0.4262
  322MOL0     H43443   6.503   1.340   1.934  1.9667 -1.6185 -0.0469
  322MOL0     H43444   6.646   1.492   2.145 -0.1138  0.4430  0.0910
  322MOL0     H43445   6.523   1.361   2.156 -0.6845  0.3696 -2.2485
  322MOL0     H43446   6.798   1.319   2.188 -0.6739 -4.3696  2.5530
  322MOL0     H43447   6.777   1.269   2.025  0.3714 -1.5805 -0.9286
  322MOL0     H43448   6.742   1.077   2.183  0.3767  0.2679 -0.2603
  322MOL0     H43449   6.641   1.188   2.272 -0.4147  0.6529 -0.4721
  322MOL0     H43450   6.507   1.825   2.254 -2.3915 -1.2793 -1.8934
  322MOL0     H43451   6.382   1.922   2.449  1.2627  0.8834  1.1547
  322MOL0     H43452   6.336   2.234   2.751 -0.0960  1.0247  2.3902
  322MOL0     H43453   6.223   2.248   2.972 -2.1598 -1.1971  1.8345
  322MOL0     H43454   6.808   1.235   4.253 -1.9967  0.1720  0.9840
  322MOL0     H43455   7.000   1.205   4.385 -0.7786 -0.1930 -1.9154
  322MOL0     H43456   7.397   1.467   4.464 -0.8764 -0.8415 -0.6177
  322MOL0     H43457   7.626   1.400   4.479 -0.0897  0.1732 -0.0942
  322MOL0     H43458   7.827   1.063   4.527 -0.1672  1.8527 -0.2623
  322MOL0     H43459   7.684   1.008   4.629  0.4331 -0.4968  3.2846
  322MOL0     H43460   7.919   0.952   4.722  1.7873  2.0034 -0.8137
  322MOL0     H43461   7.795   1.021   4.829 -0.1524  0.9553  0.3843
  322MOL0     H43462   8.040   1.134   4.833  2.1668  0.9661 -1.6092
  322MOL0     H43463   7.905   1.237   4.829  1.9772  1.5793  0.1485
  322MOL0     H43464   7.949   1.251   4.573 -0.0512  0.9016  0.2047
  322MOL0     H43465   8.070   1.329   4.684 -0.6811  0.4358  1.5426
  322MOL0     H43466   8.321   1.022   4.561  0.2404  0.0026 -1.2354
  322MOL0     H43467   7.527   1.085   4.740 -1.5753 -3.1418 -2.4350
  322MOL0     H43468   7.304   1.047   4.786  1.2988 -0.2677 -0.2890
  322MOL0     H43469   7.278   1.203   4.876 -1.7018 -0.2392  0.0450
  322MOL0     H43470   7.168   1.146   4.747 -1.1793  1.6761  2.3757
  323MOL0     O43471   1.540   9.687   6.763  0.6812 -0.0715  0.3109
  323MOL0     C43472   1.555   9.813   6.755 -1.1319 -0.3475  1.0062
  323MOL0     O43473   1.545   9.903   6.859 -0.2120  0.2421  0.2261
  323MOL0     C43474   1.496   9.843   6.978  0.1631  0.0039 -0.4033
  323MOL0     C43475   1.364   9.848   7.018 -0.4940 -0.5210 -0.3739
  323MOL0     C43476   1.325   9.788   7.138 -0.4882 -0.5750  0.1698
  323MOL0     C43477   1.419   9.746   7.233 -0.6281 -0.1028 -0.2899
  323MOL0     O43478   1.386   9.697   7.353 -0.1836 -0.0998 -0.4581
  323MOL0     C43479   1.270   9.609   7.352  0.9311 -0.2463 -0.4933
  323MOL0     C43480   1.270   9.500   7.465 -0.4261  0.5904 -0.7599
  323MOL0     C43481   1.131   9.435   7.508  0.4217 -0.0339  0.9827
  323MOL0     C43482   1.056   9.373   7.393 -0.8719 -0.5623  0.2367
  323MOL0     C43483   1.100   9.241   7.335 -0.1385 -0.0265  0.8412
  323MOL0     C43484   1.116   9.133   7.445  0.4361 -0.8082 -1.0305
  323MOL0     C43485   1.130   9.002   7.391  0.6972 -0.1678 -0.3700
  323MOL0     C43486   0.994   8.936   7.324 -0.1833 -0.5643 -0.1433
  323MOL0     N43487   0.895   8.930   7.423 -0.0347 -0.3665  0.7046
  323MOL0     C43488   0.776   9.005   7.443 -0.9410 -0.4988 -0.3975
  323MOL0     C43489   0.717   8.953   7.548 -0.0661  0.4363 -1.0359
  323MOL0     C43490   0.577   8.993   7.602  0.0813  0.7000 -0.4281
  323MOL0     C43491   0.544   9.137   7.599 -0.5513 -0.1844 -0.0156
  323MOL0     C43492   0.624   9.221   7.709 -0.7327 -0.7735 -0.1780
  323MOL0     C43493   0.576   9.368   7.694 -0.2224 -0.6587  0.1913
  323MOL0     O43494   0.602   9.421   7.563 -0.5421  0.5374  0.8292
  323MOL0     C43495   0.572   9.551   7.533  0.3593 -0.3197 -0.3687
  323MOL0     C43496   0.576   9.650   7.633  1.7223 -0.0789  0.5892
  323MOL0     C43497   0.543   9.780   7.607 -0.2032  0.2221  1.3764
  323MOL0     C43498   0.494   9.819   7.475 -0.5780 -0.7749 -0.9532
  323MOL0     C43499   0.451   9.956   7.439 -0.3844 -1.1718 -0.1191
  323MOL0     O43500   0.462   9.986   7.306  0.7397 -0.2252 -0.2675
  323MOL0     C43501   0.442  10.122   7.287  0.6590 -0.6184  0.4398
  323MOL0     C43502   0.538  10.225   7.308 -0.5879  0.2932  0.0467
  323MOL0     C43503   0.509  10.353   7.258  0.7705  0.4884 -1.3590
  323MOL0     C43504   0.394  10.389   7.190  0.9352 -0.4654  0.4078
  323MOL0     O43505   0.377  10.520   7.158 -0.5118 -0.2452  0.1168
  323MOL0     C43506   0.394  10.553   7.025  0.0916  0.1708 -0.7782
  323MOL0     C43507   0.334  10.691   6.993 -0.2939 -0.1852  0.3763
  323MOL0     C43508   0.359  10.746   6.850 -0.3513 -0.2704 -0.1106
  323MOL0     C43509   0.501  10.775   6.816  0.1894 -0.5043  0.3628
  323MOL0     C43510   0.499  10.859   6.689 -0.2742 -0.8454  0.5755
  323MOL0     C43511   0.645  10.914   6.670  0.8633  0.1859  0.9673
  323MOL0     C43512   0.652  10.996   6.537  0.7008  1.5465  0.0892
  323MOL0     C43513   0.647  10.918   6.406 -0.8741  0.4056 -0.5849
  323MOL0    Cl43514   0.664  11.021   6.268 -0.7089 -0.0062  0.0927
  323MOL0     C43515   0.294  10.288   7.171  0.4975  1.1268 -0.5185
  323MOL0     C43516   0.328  10.155   7.207 -0.1917 -0.3776 -0.8307
  323MOL0     O43517   0.418  10.036   7.530 -1.0077  0.7625 -0.8345
  323MOL0     C43518   0.478   9.723   7.383 -0.3649 -0.4413 -0.8997
  323MOL0     C43519   0.530   9.594   7.408  0.0778  0.4328  0.7334
  323MOL0     N43520   0.802   8.865   7.611 -0.0776 -0.1011  0.5618
  323MOL0     N43521   0.904   8.844   7.531  0.1711  0.8322  0.8699
  323MOL0     C43522   1.550   9.766   7.194 -0.2429  0.1775 -0.5477
  323MOL0     C43523   1.591   9.812   7.069  0.3543  0.3376 -0.8985
  323MOL0     C43524   1.584   9.876   6.619 -0.6373  0.0928  1.3683
  323MOL0     C43525   1.626  10.007   6.615 -0.1209 -0.2869 -0.4055
  323MOL0     C43526   1.688  10.065   6.499  0.2060 -0.6404 -0.6354
  323MOL0     C43527   1.680   9.992   6.379 -0.1829  0.5467  0.5020
  323MOL0     O43528   1.746  10.044   6.273  0.5743  0.2912  0.8382
  323MOL0     C43529   1.735   9.973   6.145  0.5705  0.1430 -0.7301
  323MOL0     C43530   1.763  10.066   6.037  0.0103 -0.2934  0.0985
  323MOL0     C43531   1.897  10.133   6.055 -0.2350  0.3656 -0.1563
  323MOL0     C43532   1.977  10.178   5.930  0.7606  0.4214 -0.6001
  323MOL0     C43533   2.024  10.085   5.820  0.1023 -0.3376  0.1410
  323MOL0     C43534   2.069  10.026   5.725  0.3185 -0.7473  0.4998
  323MOL0     C43535   1.630   9.861   6.379 -0.3685 -0.8432 -0.6620
  323MOL0     C43536   1.577   9.807   6.492 -0.2176 -0.3559  0.4024
  323MOL0     C43537   1.514   9.665   6.486 -0.1443 -0.5508  0.4279
  323MOL0     H43538   1.304   9.895   6.941 -2.3312 -0.8257  0.8315
  323MOL0     H43539   1.218   9.773   7.147 -0.6263 -0.3158 -0.9314
  323MOL0     H43540   1.173   9.660   7.354 -0.9156 -3.5437  0.5722
  323MOL0     H43541   1.258   9.551   7.261 -0.6478 -1.0263  0.1705
  323MOL0     H43542   1.318   9.540   7.554 -1.9181 -1.6796  1.1729
  323MOL0     H43543   1.329   9.415   7.430 -1.7495 -0.0154 -1.5724
  323MOL0     H43544   1.071   9.505   7.568 -0.1819  0.4124 -0.1141
  323MOL0     H43545   1.145   9.362   7.588 -2.4507  0.6704  2.2794
  323MOL0     H43546   0.949   9.356   7.407 -0.1841 -4.1199  2.4163
  323MOL0     H43547   1.055   9.458   7.324  1.3334  0.0535  0.8594
  323MOL0     H43548   1.026   9.217   7.258  0.6619  4.2900 -1.6329
  323MOL0     H43549   1.195   9.256   7.282 -0.1630 -2.9172 -0.2038
  323MOL0     H43550   1.212   9.142   7.496 -1.2351 -1.9931  2.6810
  323MOL0     H43551   1.037   9.149   7.520  0.8683 -2.0373 -0.3016
  323MOL0     H43552   1.162   8.931   7.467 -1.1663 -0.2489  0.3917
  323MOL0     H43553   1.207   9.022   7.316 -0.7923  0.6023 -1.7870
  323MOL0     H43554   0.972   9.002   7.240  0.6411 -0.0134  0.0599
  323MOL0     H43555   1.025   8.836   7.292  2.7283 -0.6402  2.3561
  323MOL0     H43556   0.732   9.075   7.373 -2.0983 -0.5764  0.2204
  323MOL0     H43557   0.492   8.943   7.557 -2.1845  1.5804  2.5334
  323MOL0     H43558   0.582   8.962   7.707  2.3644  2.9851  0.2582
  323MOL0     H43559   0.563   9.176   7.499  0.3826  4.3792  1.6937
  323MOL0     H43560   0.438   9.158   7.612 -0.1837  2.1859 -0.2902
  323MOL0     H43561   0.731   9.201   7.700 -0.9523 -3.8646  2.3027
  323MOL0     H43562   0.591   9.169   7.800  1.9904 -1.7877  0.3435
  323MOL0     H43563   0.628   9.430   7.768  0.7408 -0.9364 -0.2291
  323MOL0     H43564   0.472   9.374   7.728 -0.9245  1.5862 -2.0014
  323MOL0     H43565   0.602   9.637   7.738  2.2730  0.8217  0.5793
  323MOL0     H43566   0.555   9.860   7.679 -0.2983  2.1313 -0.6209
  323MOL0     H43567   0.619  10.198   7.374  0.2182  3.4514  0.4945
  323MOL0     H43568   0.594  10.419   7.269  0.8669  0.1190  0.5546
  323MOL0     H43569   0.500  10.552   6.997  0.3409 -2.9923 -0.0253
  323MOL0     H43570   0.332  10.483   6.969  0.2440  0.8660 -1.8601
  323MOL0     H43571   0.226  10.691   7.011 -0.6620 -1.4387 -1.5725
  323MOL0     H43572   0.377  10.761   7.066  1.5283 -0.8517 -0.0083
  323MOL0     H43573   0.318  10.687   6.768 -1.3496  2.2099 -1.5014
  323MOL0     H43574   0.312  10.844   6.846  2.6097  1.2423 -0.7570
  323MOL0     H43575   0.563  10.684   6.810  2.0120  0.7274 -0.4856
  323MOL0     H43576   0.548  10.835   6.895 -1.0126  0.1936  0.5603
  323MOL0     H43577   0.443  10.953   6.694  1.1159 -0.0221  2.0353
  323MOL0     H43578   0.465  10.802   6.602  5.3233 -1.0383 -1.9506
  323MOL0     H43579   0.649  10.975   6.760 -2.5994  1.1278  0.6335
  323MOL0     H43580   0.725  10.839   6.673  1.0835  0.4065  0.6359
  323MOL0     H43581   0.735  11.067   6.545 -1.1446  4.1261 -1.9354
  323MOL0     H43582   0.558  11.049   6.523 -1.0171 -1.7184 -2.2541
  323MOL0     H43583   0.728  10.845   6.401 -1.4682 -0.2247 -1.1918
  323MOL0     H43584   0.548  10.872   6.406 -1.1392  0.9362 -1.7974
  323MOL0     H43585   0.203  10.307   7.115 -0.4057 -2.1167 -0.3636
  323MOL0     H43586   0.268  10.071   7.176  0.6080 -1.9189  1.5566
  323MOL0     H43587   0.457   9.754   7.281 -1.6779  1.8059 -0.0121
  323MOL0     H43588   0.517   9.510   7.341  1.1297 -1.8710  3.1965
  323MOL0     H43589   1.631   9.740   7.261 -1.5033 -1.5365  0.3980
  323MOL0     H43590   1.699   9.820   7.059  0.3990  0.2516 -0.4929
  323MOL0     H43591   1.630  10.070   6.704 -2.1124  2.2052 -1.9165
  323MOL0     H43592   1.734  10.163   6.502 -1.3117  0.0632  1.3383
  323MOL0     H43593   1.637   9.931   6.119  0.1088  1.4185 -1.1425
  323MOL0     H43594   1.805   9.888   6.143 -0.8209 -1.1911  2.0931
  323MOL0     H43595   1.693  10.150   6.026  0.9451  0.6299  0.9251
  323MOL0     H43596   1.767  10.011   5.943 -1.2688  3.0024 -2.0760
  323MOL0     H43597   1.968  10.072   6.112 -0.6104 -0.6094 -0.6879
  323MOL0     H43598   1.889  10.224   6.114  1.1000 -0.2852  1.0780
  323MOL0     H43599   1.922  10.259   5.881  1.4339  0.7364 -0.8580
  323MOL0     H43600   2.073  10.215   5.967  0.1746  0.3419  1.0523
  323MOL0     H43601   2.106   9.964   5.646 -4.1550  0.0919 -2.6367
  323MOL0     H43602   1.638   9.799   6.291 -1.1479 -0.1036 -1.2736
  323MOL0     H43603   1.583   9.592   6.528 -0.4484  0.1674  2.2717
  323MOL0     H43604   1.421   9.669   6.544  1.0712 -0.7775  2.5057
  323MOL0     H43605   1.466   9.648   6.389 -3.8008 -0.5799  2.0531
  324MOL0     O43606   1.868   3.778  10.656  0.7140  0.2219 -0.2673
  324MOL0     C43607   1.820   3.704  10.572  0.8819  0.1073 -0.1790
  324MOL0     O43608   1.851   3.573  10.564  0.1777  0.4627 -0.0571
  324MOL0     C43609   1.939   3.530  10.656  0.3817 -0.5931  0.6199
  324MOL0     C43610   1.893   3.456  10.769  0.2160  0.3681  0.1085
  324MOL0     C43611   1.981   3.402  10.859 -0.0009  0.6035 -0.0424
  324MOL0     C43612   2.121   3.404  10.840 -0.5290  0.0668  0.0470
  324MOL0     O43613   2.202   3.328  10.924 -0.9556 -0.3233 -0.5870
  324MOL0     C43614   2.344   3.326  10.919  0.3741  0.4837 -0.3594
  324MOL0     C43615   2.401   3.213  11.004 -0.1986  0.0578 -0.1460
  324MOL0     C43616   2.352   3.229  11.154 -0.2558  0.0418 -0.2554
  324MOL0     C43617   2.421   3.119  11.240  0.8728  0.7481 -1.1253
  324MOL0     C43618   2.393   3.141  11.393 -0.6712 -0.7871 -1.1538
  324MOL0     C43619   2.485   3.052  11.471  0.2069 -0.5503  0.1800
  324MOL0     C43620   2.404   2.939  11.536  0.2741  0.1997 -0.6204
  324MOL0     C43621   2.397   2.807  11.444 -0.4062 -0.3386 -0.1767
  324MOL0     N43622   2.529   2.765  11.392  0.6641  0.0227 -0.3867
  324MOL0     C43623   2.620   2.691  11.458 -0.0206  0.8954 -0.2396
  324MOL0     C43624   2.725   2.685  11.365  1.0120 -0.0843 -0.0319
  324MOL0     C43625   2.857   2.627  11.387 -1.1784 -0.0032 -1.1824
  324MOL0     C43626   2.976   2.720  11.348 -0.1001  0.4241 -1.0279
  324MOL0     C43627   2.977   2.843  11.435  0.2196  0.4561  0.5382
  324MOL0     C43628   3.084   2.933  11.374  0.7478  0.2636 -0.3536
  324MOL0     O43629   3.036   2.967  11.238 -1.2220  0.4115  0.1758
  324MOL0     C43630   2.969   3.082  11.222  0.9904  0.4004  0.0395
  324MOL0     C43631   2.905   3.154  11.328  0.4372 -0.2827 -0.3314
  324MOL0     C43632   2.826   3.260  11.297  0.2597  0.1728  0.7058
  324MOL0     C43633   2.804   3.299  11.164  0.5163  0.2052  0.7499
  324MOL0     C43634   2.728   3.426  11.140 -0.5149  0.9540 -0.1253
  324MOL0     O43635   2.684   3.454  11.011 -0.8324 -0.5381  0.0055
  324MOL0     C43636   2.603   3.557  10.981  0.9433 -0.4720 -0.0889
  324MOL0     C43637   2.592   3.585  10.841 -0.2997  0.3224  0.2001
  324MOL0     C43638   2.530   3.713  10.808  0.0453  0.4995  0.3530
  324MOL0     C43639   2.460   3.788  10.906 -0.0368 -0.1560 -0.3117
  324MOL0     O43640   2.409   3.911  10.870 -0.0308 -0.1330 -0.4263
  324MOL0     C43641   2.419   4.012  10.971  0.0224 -0.3351  0.1365
  324MOL0     C43642   2.412   4.157  10.929 -0.3016  0.0794  0.0459
  324MOL0     C43643   2.537   4.191  10.866 -0.6010  0.0897 -0.0886
  324MOL0     C43644   2.557   4.335  10.804  0.1607  0.5817  0.4615
  324MOL0     C43645   2.701   4.376  10.779  0.4005 -0.0794  0.9209
  324MOL0     C43646   2.705   4.507  10.703  0.1479 -0.1239  0.0387
  324MOL0     C43647   2.709   4.620  10.800  0.4661 -0.4484  0.3539
  324MOL0     C43648   2.638   4.745  10.724  0.1873 -0.2156 -0.6700
  324MOL0    Cl43649   2.717   4.817  10.589 -0.5613  0.3779  0.0313
  324MOL0     C43650   2.440   3.735  11.034  0.0780  0.4996  0.1517
  324MOL0     C43651   2.508   3.615  11.073 -0.0686 -0.5764  0.0324
  324MOL0     O43652   2.715   3.497  11.240 -0.1903 -0.1977  0.6412
  324MOL0     C43653   2.869   3.218  11.055  0.1381 -0.3020 -0.3776
  324MOL0     C43654   2.940   3.110  11.087 -0.3437  0.5492  0.0129
  324MOL0     N43655   2.686   2.755  11.254 -0.2934  0.3737  0.3040
  324MOL0     N43656   2.564   2.804  11.267  0.8914  0.0247  0.6402
  324MOL0     C43657   2.167   3.479  10.733 -0.5590 -0.6997  0.4614
  324MOL0     C43658   2.082   3.548  10.645  0.7452 -0.1121 -0.8731
  324MOL0     C43659   1.731   3.768  10.470 -0.6556 -1.4959  0.2938
  324MOL0     C43660   1.679   3.691  10.363 -0.2267  0.3771 -0.5757
  324MOL0     C43661   1.603   3.741  10.263 -0.8823  0.8796 -0.8205
  324MOL0     C43662   1.562   3.873  10.263 -0.8791  0.2012 -0.1241
  324MOL0     O43663   1.473   3.904  10.161 -0.6126 -0.0409  0.2829
  324MOL0     C43664   1.449   4.042  10.137 -1.0359 -0.2983 -0.1215
  324MOL0     C43665   1.579   4.106  10.079 -0.5718  0.4718 -0.2254
  324MOL0     C43666   1.627   4.051   9.946 -0.4962 -0.5327  0.0895
  324MOL0     C43667   1.671   3.909   9.925 -0.0015  0.1732  0.4257
  324MOL0     C43668   1.731   3.891   9.789 -0.2678 -0.1812  0.4613
  324MOL0     C43669   1.784   3.888   9.684  0.5126 -0.9248  1.1593
  324MOL0     C43670   1.598   3.958  10.375 -0.2406  0.3735  1.4838
  324MOL0     C43671   1.684   3.914  10.469 -0.0793  1.3369  0.3776
  324MOL0     C43672   1.738   4.027  10.548  1.0022 -0.0632  0.3292
  324MOL0     H43673   1.787   3.438  10.787 -0.7780  2.8963 -2.4457
  324MOL0     H43674   1.946   3.342  10.942  0.7946  0.7807  0.4272
  324MOL0     H43675   2.386   3.328  10.818  1.3340  3.1742 -0.0051
  324MOL0     H43676   2.374   3.420  10.968 -0.2486 -0.4953  2.0361
  324MOL0     H43677   2.509   3.220  10.992 -0.4542 -0.1690 -3.5270
  324MOL0     H43678   2.366   3.113  10.978 -0.9286  0.5509 -1.1099
  324MOL0     H43679   2.243   3.220  11.167 -0.8413  1.7248 -3.2069
  324MOL0     H43680   2.386   3.323  11.200  1.0896 -0.8112  0.5539
  324MOL0     H43681   2.387   3.017  11.218 -1.6678  1.4460 -0.8094
  324MOL0     H43682   2.528   3.120  11.216  2.3867 -1.9340  3.9433
  324MOL0     H43683   2.410   3.247  11.415  0.3477 -0.9381 -1.1360
  324MOL0     H43684   2.287   3.125  11.413 -0.7800  0.8198 -0.2792
  324MOL0     H43685   2.563   3.010  11.407 -0.9745 -0.3410 -1.4575
  324MOL0     H43686   2.524   3.110  11.555 -0.5607 -2.4615  1.9356
  324MOL0     H43687   2.301   2.964  11.563  1.3726  0.7833  3.7225
  324MOL0     H43688   2.458   2.916  11.628 -2.2682  1.6524  1.3528
  324MOL0     H43689   2.343   2.723  11.489 -1.0293  0.1129 -0.0574
  324MOL0     H43690   2.335   2.847  11.363 -1.8291 -0.4973  0.7824
  324MOL0     H43691   2.614   2.635  11.550  1.5055 -4.3639 -2.9597
  324MOL0     H43692   2.873   2.580  11.485  0.7335  2.7744 -0.0398
  324MOL0     H43693   2.868   2.541  11.321 -2.0407 -0.3432 -0.8876
  324MOL0     H43694   3.072   2.669  11.355  0.4232  1.4189 -0.6951
  324MOL0     H43695   2.945   2.752  11.248 -1.5993  0.8204 -0.4651
  324MOL0     H43696   3.012   2.833  11.539  3.1891 -4.3528 -0.6086
  324MOL0     H43697   2.878   2.889  11.446 -0.7365 -1.9473  3.3617
  324MOL0     H43698   3.182   2.885  11.371  1.8586  1.9765  3.1874
  324MOL0     H43699   3.108   3.016  11.441  2.1623  0.0481 -0.5645
  324MOL0     H43700   2.920   3.118  11.429  2.8034  0.3985 -0.3745
  324MOL0     H43701   2.781   3.320  11.375 -0.4881 -0.9690  1.1881
  324MOL0     H43702   2.640   3.519  10.769  2.2332  1.0129  1.1366
  324MOL0     H43703   2.544   3.740  10.703  0.4430 -1.8012 -0.2564
  324MOL0     H43704   2.322   3.995  11.018 -0.8607  0.1097 -1.4415
  324MOL0     H43705   2.500   3.997  11.043  1.4262 -0.6338 -1.4371
  324MOL0     H43706   2.325   4.167  10.862 -0.9083 -0.7227  0.6872
  324MOL0     H43707   2.399   4.213  11.022 -2.8629  3.5768 -2.1448
  324MOL0     H43708   2.603   4.178  10.953 -2.1997 -0.1741  1.1384
  324MOL0     H43709   2.568   4.111  10.798 -2.9706 -3.6862  2.8599
  324MOL0     H43710   2.531   4.413  10.876 -2.6817  0.1560  0.0366
  324MOL0     H43711   2.498   4.339  10.712  1.3807 -3.6841 -0.7507
  324MOL0     H43712   2.742   4.295  10.718  0.5723  0.2559  0.5886
  324MOL0     H43713   2.759   4.371  10.872 -0.4264  2.5364  1.6513
  324MOL0     H43714   2.803   4.506  10.655  0.8260 -0.8733  1.3721
  324MOL0     H43715   2.626   4.509  10.628  1.4044 -2.9223 -1.4980
  324MOL0     H43716   2.813   4.640  10.825  0.4818  0.2246 -0.2148
  324MOL0     H43717   2.662   4.597  10.896  1.7241 -0.9451  0.8698
  324MOL0     H43718   2.534   4.724  10.699  0.7114 -1.4123 -2.0026
  324MOL0     H43719   2.640   4.828  10.795 -0.7948 -0.9730  0.2828
  324MOL0     H43720   2.377   3.778  11.111  1.2028  0.0393  1.3758
  324MOL0     H43721   2.494   3.570  11.171  0.2423  0.1301  0.4056
  324MOL0     H43722   2.851   3.250  10.953 -1.0040  1.5583  0.3506
  324MOL0     H43723   2.988   3.038  11.022 -2.3890 -1.6350  0.7948
  324MOL0     H43724   2.273   3.491  10.713 -0.5257  1.0587  1.5093
  324MOL0     H43725   2.119   3.610  10.564  0.2479 -0.2083 -1.1792
  324MOL0     H43726   1.705   3.585  10.361  0.7196  0.6055 -1.5184
  324MOL0     H43727   1.571   3.679  10.179 -0.1167  2.6099 -2.4777
  324MOL0     H43728   1.412   4.093  10.226 -1.2057 -0.4161 -0.1258
  324MOL0     H43729   1.372   4.047  10.060 -0.3439 -2.5122 -1.0339
  324MOL0     H43730   1.662   4.094  10.149 -1.8454 -0.0131  1.2640
  324MOL0     H43731   1.569   4.215  10.067  1.0816  0.7965  1.0035
  324MOL0     H43732   1.705   4.121   9.915 -0.6475 -1.5717 -2.9663
  324MOL0     H43733   1.547   4.073   9.875  0.9046 -3.2836 -2.5833
  324MOL0     H43734   1.739   3.876  10.005  0.1690 -0.0459  0.1949
  324MOL0     H43735   1.590   3.836   9.928  1.1715 -1.1647  1.3036
  324MOL0     H43736   1.839   3.863   9.595 -1.8401  2.5075 -1.4914
  324MOL0     H43737   1.566   4.061  10.372  0.8006  0.7062 -0.2772
  324MOL0     H43738   1.670   4.023  10.633  0.1732  1.5019 -0.2270
  324MOL0     H43739   1.844   4.008  10.568  0.7251 -3.6410 -0.8770
  324MOL0     H43740   1.718   4.120  10.494  0.2085 -0.4959 -0.1468
  325MOL0     O43741   1.340   4.740   9.422  0.4532  0.1046 -0.1683
  325MOL0     C43742   1.289   4.635   9.375 -0.3599 -0.4519  0.2808
  325MOL0     O43743   1.160   4.612   9.363  0.0644 -0.5421  0.3410
  325MOL0     C43744   1.065   4.709   9.389  0.2976  1.1145 -0.5895
  325MOL0     C43745   1.026   4.798   9.299  0.5613 -0.2893 -0.7500
  325MOL0     C43746   0.934   4.902   9.325  0.1013 -0.6347 -1.0464
  325MOL0     C43747   0.859   4.901   9.448 -0.4699  0.3911 -0.1493
  325MOL0     O43748   0.781   5.012   9.455 -0.1722 -0.5461  1.5729
  325MOL0     C43749   0.757   5.070   9.581 -0.4126  0.4560 -0.1417
  325MOL0     C43750   0.641   4.997   9.651 -0.3611 -0.5093 -0.1194
  325MOL0     C43751   0.493   5.022   9.602 -0.1025  1.3540  0.9850
  325MOL0     C43752   0.431   5.165   9.615 -0.3844  0.5423  0.5266
  325MOL0     C43753   0.294   5.179   9.557  1.0525  1.4697  0.7744
  325MOL0     C43754   0.200   5.084   9.624  0.6721 -0.2123 -0.8727
  325MOL0     C43755   0.055   5.134   9.653 -0.2110  0.5674 -0.1289
  325MOL0     C43756  -0.048   5.020   9.657 -0.5035 -0.2451 -0.2311
  325MOL0     N43757  -0.174   5.043   9.728 -0.4957  0.6599 -0.2823
  325MOL0     C43758  -0.186   5.096   9.850 -0.3677 -0.0721 -0.4431
  325MOL0     C43759  -0.314   5.118   9.871 -0.8541  0.1933 -0.0163
  325MOL0     C43760  -0.361   5.194   9.992 -0.0721 -0.0620  0.0471
  325MOL0     C43761  -0.313   5.331   9.969 -0.2434  0.1596  0.1314
  325MOL0     C43762  -0.345   5.431  10.081 -0.5418 -0.0308 -0.1543
  325MOL0     C43763  -0.256   5.428  10.204 -0.8832 -0.1481 -0.5781
  325MOL0     O43764  -0.310   5.329  10.289 -0.0386 -0.2007  0.0193
  325MOL0     C43765  -0.424   5.355  10.358 -1.2822  0.4151  0.7313
  325MOL0     C43766  -0.432   5.470  10.434  1.8918 -0.3754 -1.0618
  325MOL0     C43767  -0.531   5.479  10.532  0.3244  0.4696  0.2402
  325MOL0     C43768  -0.608   5.362  10.555 -0.8741  0.2764 -0.5552
  325MOL0     C43769  -0.689   5.341  10.682  0.3227 -0.7270  0.4708
  325MOL0     O43770  -0.656   5.426  10.787  0.3256  0.5344 -0.4089
  325MOL0     C43771  -0.733   5.439  10.893 -0.5862  0.5609 -0.6559
  325MOL0     C43772  -0.823   5.345  10.946  0.0814  0.0195 -0.5154
  325MOL0     C43773  -0.895   5.381  11.061 -0.0533  0.0513  0.2641
  325MOL0     C43774  -0.903   5.514  11.114  0.4999  0.1518 -0.0851
  325MOL0     O43775  -0.987   5.553  11.216  0.5378 -0.3974 -0.8233
  325MOL0     C43776  -1.053   5.455  11.295  1.2156 -0.1097  0.3268
  325MOL0     C43777  -1.130   5.520  11.413  0.3821 -0.0381  0.1455
  325MOL0     C43778  -1.286   5.509  11.435  0.1041 -0.2371 -0.0417
  325MOL0     C43779  -1.332   5.366  11.442 -0.0858  0.1987  0.4651
  325MOL0     C43780  -1.476   5.365  11.502  0.6336 -0.4913 -0.1447
  325MOL0     C43781  -1.584   5.468  11.450 -0.4855 -0.0392 -1.2251
  325MOL0     C43782  -1.721   5.466  11.524  0.3387 -0.0150 -0.4768
  325MOL0     C43783  -1.843   5.499  11.446 -0.1597 -0.9372  0.3435
  325MOL0    Cl43784  -2.002   5.485  11.534  0.5201  0.4134  0.2317
  325MOL0     C43785  -0.817   5.602  11.063 -0.1927  0.1986 -0.4427
  325MOL0     C43786  -0.725   5.566  10.952  0.1000  0.0396  0.0104
  325MOL0     O43787  -0.770   5.253  10.686 -0.6359 -0.4217  0.6691
  325MOL0     C43788  -0.615   5.259  10.456  0.1587  0.7370 -0.1647
  325MOL0     C43789  -0.513   5.250  10.372 -0.5626 -0.9165  0.4192
  325MOL0     N43790  -0.384   5.088   9.757  0.1714  0.6176 -0.6991
  325MOL0     N43791  -0.293   5.046   9.667  0.9669  0.1215  1.1525
  325MOL0     C43792   0.903   4.803   9.546  1.0920 -0.3380  0.3453
  325MOL0     C43793   1.004   4.706   9.513 -0.1116 -0.0745 -0.4882
  325MOL0     C43794   1.384   4.530   9.336 -0.7917 -0.7592 -0.6060
  325MOL0     C43795   1.526   4.557   9.344  0.2187  0.2941 -0.5708
  325MOL0     C43796   1.617   4.459   9.286  0.1356  0.8903 -0.1529
  325MOL0     C43797   1.572   4.327   9.259  0.0011 -0.5222  0.2767
  325MOL0     O43798   1.663   4.231   9.225 -0.0591  0.3331 -0.5686
  325MOL0     C43799   1.665   4.162   9.099 -0.0121 -1.1080 -0.2187
  325MOL0     C43800   1.726   4.260   9.002  0.8937 -0.8392  0.4904
  325MOL0     C43801   1.778   4.198   8.879 -0.6746  0.1964 -0.2589
  325MOL0     C43802   1.678   4.140   8.774 -0.2989  0.2884 -0.7307
  325MOL0     C43803   1.619   4.013   8.816 -0.3908 -0.0469 -0.0119
  325MOL0     C43804   1.576   3.905   8.865 -0.1302 -0.5131 -0.4245
  325MOL0     C43805   1.435   4.304   9.259  0.3257 -0.2575  0.1414
  325MOL0     C43806   1.341   4.403   9.302 -1.0197  0.5488  0.1299
  325MOL0     C43807   1.207   4.333   9.330  0.0909  0.3234 -0.0313
  325MOL0     H43808   1.070   4.792   9.200 -1.3369 -2.7268 -1.5543
  325MOL0     H43809   0.904   4.971   9.246  0.8377  2.6449  1.3107
  325MOL0     H43810   0.856   5.060   9.629 -0.1332 -0.0045 -0.8065
  325MOL0     H43811   0.736   5.177   9.571 -1.5870  0.0975 -1.9280
  325MOL0     H43812   0.642   5.017   9.759  2.3070 -1.2540  0.0693
  325MOL0     H43813   0.662   4.890   9.637 -0.5991 -0.7491  1.1955
  325MOL0     H43814   0.439   4.956   9.670  0.3485  1.8668  1.8754
  325MOL0     H43815   0.479   4.981   9.502 -2.3493  0.0529  1.7651
  325MOL0     H43816   0.432   5.192   9.721 -1.5178  0.0233  0.6946
  325MOL0     H43817   0.500   5.241   9.578 -1.0877  1.9708  2.0368
  325MOL0     H43818   0.270   5.284   9.580  1.3629  1.3033  1.9311
  325MOL0     H43819   0.301   5.160   9.450 -0.3911  2.4605  0.4768
  325MOL0     H43820   0.180   4.994   9.566 -0.6910  0.3654 -1.3683
  325MOL0     H43821   0.229   5.038   9.719 -5.8738  0.2480  1.9257
  325MOL0     H43822   0.030   5.201   9.570  0.8054  0.0503 -0.8781
  325MOL0     H43823   0.041   5.191   9.745  1.7980 -0.1339  0.6684
  325MOL0     H43824  -0.074   4.996   9.553  0.1566 -1.2502 -0.1823
  325MOL0     H43825  -0.005   4.933   9.708  0.1528 -0.0481 -0.4414
  325MOL0     H43826  -0.103   5.109   9.919 -1.5862 -0.3179  1.1533
  325MOL0     H43827  -0.470   5.205   9.980 -0.1455 -0.9244 -0.1360
  325MOL0     H43828  -0.351   5.142  10.088  0.3850 -0.4331 -0.1984
  325MOL0     H43829  -0.205   5.328   9.952  0.0850 -2.0354  1.9573
  325MOL0     H43830  -0.362   5.370   9.879 -1.0916  1.2280  1.0218
  325MOL0     H43831  -0.451   5.415  10.106 -2.2200  5.4409 -2.2104
  325MOL0     H43832  -0.354   5.534  10.043 -0.4073  0.3037  0.6981
  325MOL0     H43833  -0.254   5.528  10.250  2.5060 -0.3367 -0.0455
  325MOL0     H43834  -0.157   5.405  10.165 -0.1693  2.7369 -0.7258
  325MOL0     H43835  -0.348   5.538  10.427  2.1000 -0.4755  0.1975
  325MOL0     H43836  -0.531   5.555  10.609  2.4532  0.1378  0.6274
  325MOL0     H43837  -0.849   5.247  10.908 -0.9160  1.7688 -5.0039
  325MOL0     H43838  -0.962   5.306  11.102  0.8501 -1.1128 -0.3229
  325MOL0     H43839  -1.133   5.397  11.249  0.8701  1.8166 -1.6522
  325MOL0     H43840  -0.986   5.375  11.326 -1.8557 -2.8780  0.3753
  325MOL0     H43841  -1.076   5.471  11.494  1.6433  0.3907 -0.4044
  325MOL0     H43842  -1.105   5.623  11.439 -0.7673 -0.3186  2.6318
  325MOL0     H43843  -1.326   5.562  11.521 -0.5324 -1.9534  0.7648
  325MOL0     H43844  -1.319   5.550  11.339  1.0982  2.7460  0.7880
  325MOL0     H43845  -1.266   5.301  11.501  1.2879 -1.3386 -2.5720
  325MOL0     H43846  -1.328   5.306  11.351  2.6473  1.1179 -0.0841
  325MOL0     H43847  -1.464   5.400  11.604  1.8573 -0.0146 -0.4353
  325MOL0     H43848  -1.517   5.264  11.506  1.7412 -0.9168  0.6156
  325MOL0     H43849  -1.544   5.570  11.451 -0.2694  0.1421  4.7177
  325MOL0     H43850  -1.595   5.445  11.343  1.3453 -1.1790 -1.2000
  325MOL0     H43851  -1.718   5.543  11.602 -0.8349 -0.3079 -0.1160
  325MOL0     H43852  -1.728   5.369  11.575  2.3664  1.4154  2.8817
  325MOL0     H43853  -1.843   5.605  11.418 -2.1904 -0.5621  1.5809
  325MOL0     H43854  -1.845   5.430  11.361 -0.4307 -2.0337  1.2230
  325MOL0     H43855  -0.836   5.705  11.090 -0.7432  1.0950 -3.8800
  325MOL0     H43856  -0.648   5.631  10.911 -0.9250 -0.5956 -3.2808
  325MOL0     H43857  -0.680   5.172  10.462  1.4581 -0.2205  0.3743
  325MOL0     H43858  -0.501   5.154  10.323 -2.5955 -1.6531  1.2756
  325MOL0     H43859   0.866   4.812   9.648  4.5667 -0.9651  1.7980
  325MOL0     H43860   1.038   4.637   9.589 -2.0541 -0.5164  0.0308
  325MOL0     H43861   1.579   4.647   9.374 -0.2642 -0.1349  1.8250
  325MOL0     H43862   1.722   4.488   9.285 -0.0021  1.3972 -0.1447
  325MOL0     H43863   1.569   4.117   9.071 -0.9854 -1.2676  2.9170
  325MOL0     H43864   1.733   4.077   9.100 -0.0292 -1.1233 -0.4978
  325MOL0     H43865   1.814   4.307   9.047 -0.0882  0.1846  1.3955
  325MOL0     H43866   1.661   4.340   8.967  2.9208  0.2520 -1.0407
  325MOL0     H43867   1.854   4.121   8.896 -1.1890 -0.8870 -2.4564
  325MOL0     H43868   1.826   4.277   8.820 -1.4933  1.2076  0.3974
  325MOL0     H43869   1.603   4.215   8.746  0.8979  1.5730 -0.5927
  325MOL0     H43870   1.736   4.141   8.681 -0.1278  0.7551 -0.6214
  325MOL0     H43871   1.525   3.830   8.921  1.6544 -0.2841  1.6785
  325MOL0     H43872   1.420   4.200   9.229  2.2843 -1.1922  2.0678
  325MOL0     H43873   1.142   4.391   9.262  2.3874  1.6537 -1.2441
  325MOL0     H43874   1.199   4.226   9.309 -3.5938  0.2279  1.2277
  325MOL0     H43875   1.183   4.355   9.434  1.3379  2.6729 -0.1692
  326MOL0     O43876   2.376   7.569   0.276 -0.0742 -0.2826 -0.8405
  326MOL0     C43877   2.441   7.655   0.207 -0.2205  0.2745 -0.7514
  326MOL0     O43878   2.394   7.765   0.146 -0.4619 -0.2005 -0.4122
  326MOL0     C43879   2.263   7.812   0.161  0.4978  0.1520 -0.6047
  326MOL0     C43880   2.190   7.809   0.278  0.0259  0.5751 -0.0962
  326MOL0     C43881   2.053   7.841   0.283 -0.7363  0.3277  0.9294
  326MOL0     C43882   1.986   7.870   0.163  0.1013 -0.0131 -0.2279
  326MOL0     O43883   1.849   7.872   0.151  0.6021 -0.9285 -0.7492
  326MOL0     C43884   1.772   7.949   0.248  0.3175 -0.0620 -1.0645
  326MOL0     C43885   1.685   8.038   0.172  0.8588  0.9492 -0.8072
  326MOL0     C43886   1.749   8.162   0.111 -0.4192  0.9837  0.3859
  326MOL0     C43887   1.641   8.248   0.046 -0.5725 -0.8136  0.1098
  326MOL0     C43888   1.709   8.370  -0.004  0.6983  0.4417  0.2787
  326MOL0     C43889   1.758   8.469   0.105  0.2328 -0.5691 -0.9227
  326MOL0     C43890   1.795   8.603   0.047  0.0844 -0.5835  0.0565
  326MOL0     C43891   1.817   8.716   0.154 -0.5734  0.6376 -0.1069
  326MOL0     N43892   1.934   8.792   0.105 -0.6105  0.0559  0.4469
  326MOL0     C43893   1.923   8.895   0.009 -0.1538  0.0265 -0.0154
  326MOL0     C43894   2.054   8.926  -0.007  0.2705  0.8012 -0.1767
  326MOL0     C43895   2.113   9.026  -0.097  0.5400  0.7246  0.2195
  326MOL0     C43896   2.132   8.981  -0.244  0.3742  0.1915  1.2176
  326MOL0     C43897   2.206   9.088  -0.325 -0.4277 -0.7447 -0.3774
  326MOL0     C43898   2.242   9.040  -0.468  0.3402  0.1897 -0.2302
  326MOL0     O43899   2.376   9.011  -0.455 -0.3780  0.2853  0.0844
  326MOL0     C43900   2.424   8.902  -0.516 -0.7195  0.0339 -0.4759
  326MOL0     C43901   2.383   8.772  -0.480  0.1698  0.0277  0.6488
  326MOL0     C43902   2.426   8.664  -0.557 -0.9079 -0.0173  0.0262
  326MOL0     C43903   2.511   8.680  -0.664  0.4898  0.1556  1.2961
  326MOL0     C43904   2.561   8.564  -0.739  0.6708 -0.8459 -0.5178
  326MOL0     O43905   2.469   8.472  -0.767  0.2123  0.2451  0.4658
  326MOL0     C43906   2.495   8.345  -0.819  0.5448 -0.2670 -0.2919
  326MOL0     C43907   2.402   8.245  -0.780  0.1656  0.4033 -0.7400
  326MOL0     C43908   2.412   8.118  -0.827 -0.3315 -0.4931  0.9226
  326MOL0     C43909   2.510   8.087  -0.925 -0.5966  0.5596 -0.2472
  326MOL0     O43910   2.506   7.958  -0.972 -0.7594  0.7939  0.2677
  326MOL0     C43911   2.569   7.931  -1.105 -0.1007  0.2419  0.9282
  326MOL0     C43912   2.513   7.808  -1.166 -0.1937  0.4506  0.3764
  326MOL0     C43913   2.589   7.757  -1.290 -0.0076 -1.4678  0.3063
  326MOL0     C43914   2.557   7.614  -1.336  0.2078  0.5442 -0.0365
  326MOL0     C43915   2.637   7.581  -1.460  0.7332  1.3023  1.1423
  326MOL0     C43916   2.580   7.441  -1.513 -0.0771 -0.4123  0.1046
  326MOL0     C43917   2.673   7.367  -1.617  1.9881 -0.2828 -0.7091
  326MOL0     C43918   2.718   7.439  -1.737  0.2230 -0.3756 -0.0057
  326MOL0    Cl43919   2.856   7.377  -1.817 -0.2794  0.0247  0.0732
  326MOL0     C43920   2.600   8.190  -0.964 -0.2044 -0.7932  0.3183
  326MOL0     C43921   2.595   8.316  -0.909 -0.1156 -0.9071 -0.9668
  326MOL0     O43922   2.679   8.562  -0.763 -0.6185 -0.1416  1.0502
  326MOL0     C43923   2.552   8.801  -0.699 -0.5020 -0.0073  0.0177
  326MOL0     C43924   2.507   8.916  -0.625 -0.2213  0.7615  0.1361
  326MOL0     N43925   2.132   8.849   0.090  0.2598  0.1489  0.3121
  326MOL0     N43926   2.058   8.767   0.143 -0.6058 -0.1865 -0.2246
  326MOL0     C43927   2.054   7.879   0.041 -0.8387 -0.4469  1.3919
  326MOL0     C43928   2.193   7.851   0.045 -0.0863  0.2746 -0.0752
  326MOL0     C43929   2.598   7.638   0.214 -0.1190 -0.5682 -0.2193
  326MOL0     C43930   2.655   7.559   0.318 -1.0050  0.1853  0.4695
  326MOL0     C43931   2.798   7.545   0.334 -0.4657  0.4616  0.0070
  326MOL0     C43932   2.890   7.614   0.251 -0.3227  0.3572 -1.4298
  326MOL0     O43933   3.024   7.617   0.268 -0.6529  0.4666  0.8676
  326MOL0     C43934   3.070   7.657   0.403  0.4449 -0.1903 -1.0360
  326MOL0     C43935   3.073   7.812   0.417 -0.4344  0.0255 -0.4257
  326MOL0     C43936   3.136   7.885   0.295  0.8624  0.1396  0.4090
  326MOL0     C43937   3.147   8.029   0.304  0.2604 -0.6099 -0.6816
  326MOL0     C43938   3.235   8.076   0.416 -0.1641  0.0376  0.3241
  326MOL0     C43939   3.316   8.115   0.501 -0.9885 -0.0230 -0.7304
  326MOL0     C43940   2.837   7.690   0.151 -0.1574  0.4075  0.5350
  326MOL0     C43941   2.695   7.715   0.140 -0.8444  1.2912 -0.0538
  326MOL0     C43942   2.659   7.807   0.024 -1.0559 -0.3169 -0.0224
  326MOL0     H43943   2.217   7.762   0.372 -3.8534 -2.6311 -0.2869
  326MOL0     H43944   1.983   7.826   0.364 -0.3582 -0.0675  1.1867
  326MOL0     H43945   1.733   7.877   0.320  3.5970  1.8251  3.0085
  326MOL0     H43946   1.839   8.015   0.305 -2.1129  1.4464  0.1948
  326MOL0     H43947   1.605   8.077   0.235  1.2907 -1.0734  1.1036
  326MOL0     H43948   1.639   7.975   0.095  0.4648 -0.0935  0.2441
  326MOL0     H43949   1.812   8.133   0.027 -2.1840 -1.1869 -0.2840
  326MOL0     H43950   1.799   8.204   0.200 -1.1539 -1.5017  2.0840
  326MOL0     H43951   1.589   8.204  -0.040 -1.3621 -3.0735  1.6344
  326MOL0     H43952   1.570   8.284   0.121  2.5602  5.1086  0.7563
  326MOL0     H43953   1.797   8.337  -0.061  0.1863  2.5215 -1.8738
  326MOL0     H43954   1.649   8.419  -0.081  0.6007  0.2908  0.2570
  326MOL0     H43955   1.676   8.483   0.176  0.7130 -2.3710  0.0287
  326MOL0     H43956   1.847   8.426   0.152 -0.2108 -0.8548 -0.3335
  326MOL0     H43957   1.720   8.634  -0.026  0.7203 -0.6784 -0.6507
  326MOL0     H43958   1.890   8.587  -0.006  1.5569 -2.2074  2.9666
  326MOL0     H43959   1.726   8.771   0.181 -0.8908 -1.0709  2.7213
  326MOL0     H43960   1.858   8.671   0.244 -0.4401 -1.6960 -1.2630
  326MOL0     H43961   1.838   8.914  -0.055 -0.7652 -2.2047  0.0343
  326MOL0     H43962   2.041   9.108  -0.099  1.1816  1.2840 -1.9725
  326MOL0     H43963   2.201   9.068  -0.048 -1.4228  1.7907  3.0632
  326MOL0     H43964   2.183   8.884  -0.245  0.4451  0.2285  0.1858
  326MOL0     H43965   2.038   8.961  -0.296 -0.0960  0.1730  2.0626
  326MOL0     H43966   2.295   9.129  -0.276 -1.3035  1.4411 -0.4780
  326MOL0     H43967   2.134   9.169  -0.337 -1.7658 -1.4823  2.0592
  326MOL0     H43968   2.207   9.113  -0.541  0.1217 -0.5388 -0.8645
  326MOL0     H43969   2.186   8.950  -0.493  1.4048 -0.1374 -1.5068
  326MOL0     H43970   2.323   8.764  -0.390  0.5268  3.0678  1.2810
  326MOL0     H43971   2.397   8.563  -0.529  0.0051 -0.2106  0.3191
  326MOL0     H43972   2.314   8.276  -0.724  2.7719  1.7130  3.0638
  326MOL0     H43973   2.349   8.037  -0.792 -1.8793  0.6510  0.9111
  326MOL0     H43974   2.551   8.016  -1.171  1.4952 -0.1845 -0.1129
  326MOL0     H43975   2.678   7.922  -1.097 -0.0865 -3.9496 -1.1964
  326MOL0     H43976   2.509   7.731  -1.089 -2.1067 -1.2831 -1.3112
  326MOL0     H43977   2.410   7.828  -1.198 -0.4230  0.4318  1.0839
  326MOL0     H43978   2.569   7.824  -1.374  0.4494  0.5958  1.7515
  326MOL0     H43979   2.696   7.773  -1.275  0.2691 -0.4330 -2.2838
  326MOL0     H43980   2.449   7.604  -1.356  0.1845  2.6446 -1.3322
  326MOL0     H43981   2.592   7.547  -1.257  0.9622 -1.8534 -2.2775
  326MOL0     H43982   2.747   7.576  -1.457  0.8481  2.7744  0.4846
  326MOL0     H43983   2.607   7.649  -1.540 -0.0410  0.8919  1.0794
  326MOL0     H43984   2.571   7.376  -1.425  1.7208 -0.5446  0.2278
  326MOL0     H43985   2.481   7.456  -1.557  0.6447  0.4170 -1.3120
  326MOL0     H43986   2.651   7.266  -1.653  3.3299 -0.6817 -0.4806
  326MOL0     H43987   2.755   7.336  -1.551 -0.6064 -3.2768  1.3801
  326MOL0     H43988   2.629   7.462  -1.797  0.4239  0.6853  0.0800
  326MOL0     H43989   2.759   7.537  -1.711  0.3839  0.1009 -1.8976
  326MOL0     H43990   2.680   8.172  -1.036  1.0002 -0.3446  1.5114
  326MOL0     H43991   2.666   8.391  -0.942 -0.4505 -0.2618 -0.2350
  326MOL0     H43992   2.631   8.816  -0.772  0.3327 -0.0954  0.8880
  326MOL0     H43993   2.548   9.009  -0.664  1.0777 -0.2247 -0.9760
  326MOL0     H43994   1.987   7.898  -0.043  0.2163  0.2707  0.6963
  326MOL0     H43995   2.242   7.865  -0.050 -1.6808  1.3441 -0.7793
  326MOL0     H43996   2.604   7.508   0.399  1.2542 -1.6678  0.8363
  326MOL0     H43997   2.823   7.476   0.414 -0.9141 -0.3016 -0.4959
  326MOL0     H43998   3.171   7.618   0.422 -0.2209 -0.6163  2.2146
  326MOL0     H43999   3.015   7.616   0.488 -0.1836 -1.4364 -2.0207
  326MOL0     H44000   3.125   7.833   0.511  2.1953 -2.7480 -1.1291
  326MOL0     H44001   2.966   7.837   0.423 -0.1813  0.8407  1.9814
  326MOL0     H44002   3.068   7.854   0.216  2.3349 -2.2427 -0.0421
  326MOL0     H44003   3.236   7.843   0.279  0.7963  1.1274 -3.5604
  326MOL0     H44004   3.185   8.077   0.213  1.3465 -1.1318 -0.5220
  326MOL0     H44005   3.047   8.070   0.320  0.8181 -0.2581  2.7212
  326MOL0     H44006   3.396   8.151   0.562 -2.3529  1.8884  0.0434
  326MOL0     H44007   2.913   7.727   0.084 -1.1539 -1.0867 -1.5398
  326MOL0     H44008   2.603   7.897   0.048  1.9332  1.5299  0.5382
  326MOL0     H44009   2.743   7.851  -0.031 -3.0378  0.3497 -2.7148
  326MOL0     H44010   2.605   7.750  -0.052 -0.8360  0.4914 -0.8052
  327MOL0     O44011   1.350   0.575   7.873  1.3068  0.0806 -0.2705
  327MOL0     C44012   1.407   0.547   7.766 -0.0485  0.2189  0.5988
  327MOL0     O44013   1.519   0.459   7.751  0.2810  0.0904  0.4623
  327MOL0     C44014   1.563   0.389   7.858 -0.2399 -0.8080 -0.6142
  327MOL0     C44015   1.552   0.249   7.858  0.6533  0.3056  0.1588
  327MOL0     C44016   1.602   0.176   7.975 -1.1296 -0.5238  1.2992
  327MOL0     C44017   1.671   0.242   8.080  0.4996 -0.2567  0.6380
  327MOL0     O44018   1.712   0.170   8.183 -0.2586  0.8742  0.3129
  327MOL0     C44019   1.822   0.222   8.263  0.5255 -0.3576  0.0112
  327MOL0     C44020   1.922   0.122   8.313 -0.0647  0.2066  0.1406
  327MOL0     C44021   2.010   0.069   8.194  0.6736  0.9895 -0.3876
  327MOL0     C44022   2.103   0.173   8.157  0.1289  1.1578 -0.2882
  327MOL0     C44023   2.218   0.102   8.072  0.4094  0.2681 -0.1776
  327MOL0     C44024   2.329   0.182   8.016 -0.1401  0.3576  0.0837
  327MOL0     C44025   2.430   0.228   8.126  0.1470 -0.4567  0.0074
  327MOL0     C44026   2.585   0.228   8.082 -0.4531  0.8908 -0.5142
  327MOL0     N44027   2.628   0.327   7.989  0.1726  0.0003  0.3395
  327MOL0     C44028   2.721   0.316   7.885  0.9677  0.3067 -0.7364
  327MOL0     C44029   2.743   0.443   7.839 -0.0579  0.7148 -0.4676
  327MOL0     C44030   2.863   0.481   7.758 -0.7974  0.1016 -0.2053
  327MOL0     C44031   2.959   0.599   7.801 -1.2013  1.6276 -0.3960
  327MOL0     C44032   3.022   0.568   7.940  0.3885  0.0197  0.0666
  327MOL0     C44033   3.081   0.694   8.009  0.8468 -0.7085  1.0182
  327MOL0     O44034   3.175   0.755   7.917  1.0574  0.3412  0.4303
  327MOL0     C44035   3.275   0.825   7.975 -0.3565 -0.1916  0.5473
  327MOL0     C44036   3.408   0.793   7.943 -0.3247 -0.3137  0.7756
  327MOL0     C44037   3.517   0.864   7.992 -0.5756  0.7012 -0.3115
  327MOL0     C44038   3.489   0.970   8.084  0.4130  0.6080  1.1379
  327MOL0     C44039   3.598   1.048   8.136 -0.5598  0.5778  0.1770
  327MOL0     O44040   3.577   1.131   8.242  0.9846 -0.1434 -0.8423
  327MOL0     C44041   3.644   1.243   8.243  0.4111 -0.0047 -0.0675
  327MOL0     C44042   3.591   1.363   8.201 -0.3510 -0.3413 -0.2889
  327MOL0     C44043   3.648   1.485   8.206  0.0862 -0.0084 -0.5344
  327MOL0     C44044   3.772   1.503   8.274 -0.3067 -0.8636 -0.1974
  327MOL0     O44045   3.844   1.618   8.279 -0.6582  0.0104  0.4250
  327MOL0     C44046   3.781   1.741   8.294  0.2225  0.4843  0.7249
  327MOL0     C44047   3.793   1.816   8.164  0.4181  0.1481  0.5082
  327MOL0     C44048   3.801   1.967   8.172  0.8055 -0.3090  0.5388
  327MOL0     C44049   3.671   2.028   8.226  0.4029  0.1107  0.8104
  327MOL0     C44050   3.673   2.175   8.235  0.2739  0.0480  0.4529
  327MOL0     C44051   3.547   2.227   8.297 -1.1937 -0.4725 -1.2305
  327MOL0     C44052   3.564   2.375   8.336  0.3980  0.0350 -0.1924
  327MOL0     C44053   3.448   2.410   8.431  0.5043 -0.3497 -0.1894
  327MOL0    Cl44054   3.308   2.417   8.323 -0.2958 -0.2777 -0.3744
  327MOL0     C44055   3.831   1.381   8.320 -0.4774 -0.1799  0.0265
  327MOL0     C44056   3.768   1.255   8.303  0.7783  0.3737  0.5905
  327MOL0     O44057   3.706   1.038   8.071  0.2722 -0.4255  0.0018
  327MOL0     C44058   3.360   1.003   8.115  0.1485  0.0080 -0.6886
  327MOL0     C44059   3.249   0.930   8.055 -0.4224 -0.5800  0.0568
  327MOL0     N44060   2.651   0.527   7.899  0.0885 -0.5669 -0.5384
  327MOL0     N44061   2.585   0.452   7.978  0.2086 -0.3305 -1.0197
  327MOL0     C44062   1.655   0.379   8.079 -1.2350  0.3234 -0.3142
  327MOL0     C44063   1.618   0.453   7.966  0.4713 -0.3503 -0.3888
  327MOL0     C44064   1.352   0.603   7.639  0.6669  0.1834 -0.7364
  327MOL0     C44065   1.343   0.517   7.528  0.1713 -0.3181  0.0585
  327MOL0     C44066   1.311   0.564   7.407 -0.6030 -0.4222  0.4846
  327MOL0     C44067   1.275   0.703   7.392 -0.5302 -0.0374 -0.3716
  327MOL0     O44068   1.237   0.759   7.272 -0.1254  0.4933  0.4231
  327MOL0     C44069   1.201   0.671   7.159  0.3045  0.6516  0.7782
  327MOL0     C44070   1.097   0.736   7.066 -0.2273  0.1132  0.3237
  327MOL0     C44071   1.121   0.886   7.042 -0.4142 -0.0129  0.0314
  327MOL0     C44072   1.083   0.916   6.892  0.4013  0.4466 -0.0729
  327MOL0     C44073   1.102   1.059   6.881 -0.8208 -0.2075 -0.1827
  327MOL0     C44074   1.130   1.171   6.863  0.4229 -0.5274  0.4177
  327MOL0     C44075   1.266   0.782   7.503 -0.0615 -0.0995 -0.6228
  327MOL0     C44076   1.302   0.733   7.630 -0.6320  0.5423  0.1585
  327MOL0     C44077   1.308   0.826   7.753 -0.7637  0.5805 -0.9112
  327MOL0     H44078   1.508   0.201   7.772 -1.9095  0.7483  1.1446
  327MOL0     H44079   1.603   0.068   7.986 -0.7566 -0.4389  2.1408
  327MOL0     H44080   1.887   0.292   8.209  2.7706 -0.9924  1.7365
  327MOL0     H44081   1.764   0.274   8.340  0.2759  0.5347 -0.7573
  327MOL0     H44082   1.870   0.044   8.370  0.2969  1.1246  1.7913
  327MOL0     H44083   1.992   0.168   8.384  1.5451 -0.0246 -1.2329
  327MOL0     H44084   1.954   0.034   8.106 -1.6699 -0.5503  1.6010
  327MOL0     H44085   2.071  -0.015   8.229 -0.9738 -0.8065 -1.5804
  327MOL0     H44086   2.075   0.249   8.084  3.4079  3.3216  0.4832
  327MOL0     H44087   2.142   0.232   8.241 -0.4183  2.0359 -0.6404
  327MOL0     H44088   2.261   0.019   8.129  0.3738  1.4004  1.5972
  327MOL0     H44089   2.177   0.048   7.986  1.0803 -0.1492 -0.2409
  327MOL0     H44090   2.379   0.118   7.943  0.8477  1.3081 -0.1030
  327MOL0     H44091   2.293   0.272   7.964 -4.8012 -2.7834 -2.7997
  327MOL0     H44092   2.419   0.169   8.217 -3.1452 -0.9584 -0.5788
  327MOL0     H44093   2.413   0.336   8.134 -1.4984 -0.7615  1.0340
  327MOL0     H44094   2.640   0.246   8.175  2.7096 -1.6088 -1.7104
  327MOL0     H44095   2.618   0.136   8.033 -1.6633  1.3754 -2.3372
  327MOL0     H44096   2.782   0.232   7.852 -2.1844 -2.0013 -1.1679
  327MOL0     H44097   2.935   0.399   7.755  1.5623  1.9505  1.8460
  327MOL0     H44098   2.834   0.500   7.654 -1.6071 -2.6203 -0.5553
  327MOL0     H44099   3.044   0.597   7.731 -1.3849  0.4354 -0.6052
  327MOL0     H44100   2.923   0.701   7.783  1.4187  2.4431 -1.4811
  327MOL0     H44101   3.107   0.505   7.914 -0.6268 -0.6259 -1.8616
  327MOL0     H44102   2.950   0.531   8.014  2.2160 -2.0518  0.9029
  327MOL0     H44103   3.137   0.672   8.100  4.0387  2.3105 -0.0162
  327MOL0     H44104   3.001   0.768   8.017  2.2292  0.7781  1.5075
  327MOL0     H44105   3.428   0.720   7.865  2.0907 -0.8525  1.8208
  327MOL0     H44106   3.614   0.860   7.943 -1.2941 -0.5783 -1.6677
  327MOL0     H44107   3.494   1.349   8.153 -0.1224  0.9771 -1.1840
  327MOL0     H44108   3.607   1.571   8.154 -0.6301 -0.6322 -1.0266
  327MOL0     H44109   3.676   1.722   8.322  0.1886  0.6354  0.6978
  327MOL0     H44110   3.832   1.795   8.375  3.5002  1.9022 -2.0759
  327MOL0     H44111   3.894   1.785   8.135 -0.5058 -0.6923 -2.1388
  327MOL0     H44112   3.722   1.793   8.083  2.5776  0.6682 -1.6363
  327MOL0     H44113   3.881   1.998   8.241 -1.0841 -0.1974  2.8083
  327MOL0     H44114   3.826   2.006   8.073 -1.7047  1.1313  0.3840
  327MOL0     H44115   3.664   1.996   8.330  3.6249  1.0621  1.4134
  327MOL0     H44116   3.585   1.995   8.167  2.7611 -1.0600 -2.2217
  327MOL0     H44117   3.687   2.219   8.136 -1.9304 -1.3484 -0.5565
  327MOL0     H44118   3.763   2.209   8.287 -0.2706  0.4029  1.1712
  327MOL0     H44119   3.469   2.230   8.220  0.4491  1.8765 -2.9629
  327MOL0     H44120   3.519   2.165   8.383  0.3008  0.0688 -0.3070
  327MOL0     H44121   3.556   2.435   8.245  1.9125 -1.7944 -1.6341
  327MOL0     H44122   3.656   2.406   8.386 -0.1634  0.6592  0.4786
  327MOL0     H44123   3.430   2.345   8.517 -1.1169  0.2173 -0.0557
  327MOL0     H44124   3.469   2.506   8.480  2.8929 -1.3141  0.8321
  327MOL0     H44125   3.930   1.389   8.364  0.1979 -1.3753 -1.1663
  327MOL0     H44126   3.828   1.170   8.335  0.6693  0.0149 -0.1199
  327MOL0     H44127   3.342   1.088   8.180  0.9071  0.0502 -0.5213
  327MOL0     H44128   3.149   0.967   8.071 -1.2255 -2.8645  0.6439
  327MOL0     H44129   1.695   0.429   8.166 -1.7263 -0.5015  0.3958
  327MOL0     H44130   1.625   0.560   7.982  0.9093 -0.5030  0.4618
  327MOL0     H44131   1.391   0.420   7.538  3.0445  0.8790 -0.8654
  327MOL0     H44132   1.298   0.490   7.328  0.3095  0.5055 -0.5782
  327MOL0     H44133   1.154   0.578   7.191  0.0676  0.3699 -0.3625
  327MOL0     H44134   1.293   0.635   7.112 -0.3611 -2.2249  1.4728
  327MOL0     H44135   0.993   0.726   7.098 -1.0356  0.9874 -1.8124
  327MOL0     H44136   1.109   0.679   6.973  0.2787  0.5797  0.0961
  327MOL0     H44137   1.228   0.897   7.060  0.0784 -1.9945 -1.3768
  327MOL0     H44138   1.061   0.954   7.103 -1.6255 -0.2075 -0.9130
  327MOL0     H44139   1.142   0.855   6.822 -0.2099 -0.8019  0.4687
  327MOL0     H44140   0.979   0.883   6.887  0.2738  0.3161  2.3030
  327MOL0     H44141   1.165   1.271   6.845  1.8013 -0.3694  3.3667
  327MOL0     H44142   1.246   0.887   7.484 -0.9143 -0.3064 -0.8900
  327MOL0     H44143   1.282   0.927   7.720 -0.6072 -0.1286 -3.3780
  327MOL0     H44144   1.234   0.789   7.824  1.8935 -3.6953  0.0323
  327MOL0     H44145   1.406   0.834   7.800 -1.9557  2.1254  1.4881
  328MOL0     O44146  10.536   7.877   2.205  0.1416  0.1823 -0.2323
  328MOL0     C44147  10.486   7.988   2.206  0.8678  0.1506  1.0547
  328MOL0     O44148  10.551   8.108   2.213  0.0281  0.0834 -0.4670
  328MOL0     C44149  10.684   8.103   2.201  0.4083  1.1832 -0.7164
  328MOL0     C44150  10.741   8.088   2.321 -0.0908 -0.7486 -0.9199
  328MOL0     C44151  10.879   8.069   2.321 -1.0304 -0.6234 -0.5157
  328MOL0     C44152  10.961   8.065   2.204  0.0226 -0.1027  0.0474
  328MOL0     O44153  11.094   8.032   2.205 -0.7290  0.3863  0.6857
  328MOL0     C44154  11.112   7.912   2.281 -0.8131  1.3063 -0.2401
  328MOL0     C44155  11.258   7.863   2.268 -0.0699 -0.5196  0.2086
  328MOL0     C44156  11.285   7.772   2.378 -0.0189  0.8693  0.1187
  328MOL0     C44157  11.407   7.688   2.353 -0.2524 -1.2286  0.6581
  328MOL0     C44158  11.454   7.628   2.483 -0.2128 -0.2350  0.1443
  328MOL0     C44159  11.561   7.522   2.456  0.1672 -1.3151 -0.3874
  328MOL0     C44160  11.604   7.430   2.578  0.4455 -1.0576  0.3442
  328MOL0     C44161  11.713   7.333   2.534 -0.1142  0.0436 -0.5882
  328MOL0     N44162  11.750   7.233   2.631 -0.1679 -0.4960 -0.4033
  328MOL0     C44163  11.673   7.122   2.679  0.2958 -0.0803  0.1151
  328MOL0     C44164  11.741   7.075   2.777  0.6039  0.5505 -0.7053
  328MOL0     C44165  11.709   6.961   2.877  0.7759  0.3499  0.1256
  328MOL0     C44166  11.565   6.987   2.937 -0.4465  0.4848 -0.4880
  328MOL0     C44167  11.529   6.852   2.997 -0.0886 -0.5098 -0.8839
  328MOL0     C44168  11.378   6.839   3.029 -0.7800 -0.1650  0.3631
  328MOL0     O44169  11.381   6.753   3.143  0.7371  0.3712  1.2719
  328MOL0     C44170  11.258   6.690   3.158 -0.3122  0.6687 -0.1820
  328MOL0     C44171  11.242   6.553   3.150 -0.1916  0.3121  0.3804
  328MOL0     C44172  11.117   6.497   3.169  0.3165 -0.7191  0.8070
  328MOL0     C44173  11.010   6.571   3.216  0.2454  0.8448  0.4380
  328MOL0     C44174  10.883   6.507   3.205  0.9070 -1.1489  1.2332
  328MOL0     O44175  10.778   6.575   3.271  0.0337  0.1671  0.3010
  328MOL0     C44176  10.646   6.527   3.243 -0.9888 -0.1249 -0.1766
  328MOL0     C44177  10.571   6.576   3.129 -0.1919  0.1068 -0.9804
  328MOL0     C44178  10.436   6.539   3.117  0.6623 -0.1686  0.2426
  328MOL0     C44179  10.377   6.438   3.185 -0.6583  0.1973  0.3716
  328MOL0     O44180  10.253   6.391   3.151 -1.5940 -0.2007  0.2891
  328MOL0     C44181  10.167   6.476   3.056 -0.8824 -0.1391  0.0265
  328MOL0     C44182  10.033   6.406   3.050 -0.2337  0.8890 -0.6855
  328MOL0     C44183   9.945   6.445   2.926 -0.6684  0.4626  0.1638
  328MOL0     C44184   9.874   6.591   2.945 -0.1980 -0.7408  0.5038
  328MOL0     C44185   9.804   6.651   2.824  0.7091  0.9122 -0.8924
  328MOL0     C44186   9.671   6.585   2.770  0.1316 -0.7469 -0.4837
  328MOL0     C44187   9.568   6.539   2.878 -0.8758 -0.6082 -0.5898
  328MOL0     C44188   9.422   6.530   2.832 -0.1246 -0.6061 -0.4087
  328MOL0    Cl44189   9.314   6.608   2.946  0.0840  0.0844 -0.4834
  328MOL0     C44190  10.458   6.376   3.287 -0.0663  0.7916 -0.4517
  328MOL0     C44191  10.596   6.426   3.313  0.1469  0.9801 -0.5006
  328MOL0     O44192  10.872   6.402   3.151 -0.1421  0.2296  0.5408
  328MOL0     C44193  11.029   6.708   3.233 -0.2935  0.3519 -0.4030
  328MOL0     C44194  11.160   6.760   3.212  0.8212  0.0812 -0.8334
  328MOL0     N44195  11.852   7.146   2.799 -0.6485 -0.7494 -0.4813
  328MOL0     N44196  11.859   7.246   2.716 -0.0166  0.9611 -0.5231
  328MOL0     C44197  10.899   8.095   2.083  0.2894  0.2416 -1.2447
  328MOL0     C44198  10.757   8.110   2.080  0.1913 -0.5054 -0.8484
  328MOL0     C44199  10.335   7.986   2.186 -0.4122  0.1439  0.0876
  328MOL0     C44200  10.265   7.862   2.165 -1.0075 -0.0429 -0.4924
  328MOL0     C44201  10.128   7.851   2.163 -0.6410 -0.2817 -0.4253
  328MOL0     C44202  10.051   7.969   2.147  0.3323 -0.4160  0.0520
  328MOL0     O44203   9.918   7.975   2.151  0.7147 -0.1498  0.4378
  328MOL0     C44204   9.838   7.862   2.100  0.1314  1.0309 -0.1686
  328MOL0     C44205   9.840   7.821   1.947  0.1958 -0.1058 -0.2429
  328MOL0     C44206   9.765   7.925   1.871  0.2729 -0.3488 -0.0211
  328MOL0     C44207   9.786   7.928   1.716  0.4737 -0.1810 -0.4474
  328MOL0     C44208   9.865   7.823   1.661  0.4157 -0.3088  0.4869
  328MOL0     C44209   9.927   7.729   1.623 -0.2186  0.4189 -0.0944
  328MOL0     C44210  10.116   8.096   2.158  1.2709  0.9250  0.3111
  328MOL0     C44211  10.255   8.110   2.179 -0.5920  0.1410 -0.4913
  328MOL0     C44212  10.299   8.257   2.201  0.2149  0.1947 -0.2796
  328MOL0     H44213  10.663   8.087   2.396 -0.5063 -1.4929 -1.3470
  328MOL0     H44214  10.930   8.049   2.415 -1.3191 -1.7192 -0.5777
  328MOL0     H44215  11.076   7.911   2.384 -1.2923 -0.9550 -0.3687
  328MOL0     H44216  11.058   7.828   2.238 -0.8158  1.3603 -0.3402
  328MOL0     H44217  11.322   7.951   2.257 -0.8412  0.1869  1.1374
  328MOL0     H44218  11.281   7.802   2.180 -0.8054 -1.7670  0.8546
  328MOL0     H44219  11.201   7.701   2.377 -1.7443  2.7965  0.7549
  328MOL0     H44220  11.292   7.828   2.471 -5.5788  0.0678  1.4390
  328MOL0     H44221  11.385   7.630   2.262 -1.9234  3.2452 -2.1177
  328MOL0     H44222  11.488   7.756   2.327 -1.1041 -0.9696 -1.5706
  328MOL0     H44223  11.499   7.706   2.545 -2.9215  0.4496  1.3896
  328MOL0     H44224  11.373   7.573   2.532  0.4947 -0.8351  0.6613
  328MOL0     H44225  11.527   7.473   2.365 -0.6843  0.8291 -1.2821
  328MOL0     H44226  11.659   7.560   2.427  0.1612  0.5081  1.7525
  328MOL0     H44227  11.510   7.382   2.605 -0.7893  0.8402 -0.4014
  328MOL0     H44228  11.643   7.492   2.659  0.0929 -3.4686  2.5054
  328MOL0     H44229  11.679   7.277   2.446 -1.7254 -0.2316  0.1667
  328MOL0     H44230  11.799   7.388   2.495  1.9048 -4.7268 -3.7233
  328MOL0     H44231  11.571   7.099   2.651  0.3892  1.1489 -1.3725
  328MOL0     H44232  11.723   6.863   2.829 -2.0600  1.0503 -2.4419
  328MOL0     H44233  11.777   6.962   2.963  0.6903  0.4307  0.1926
  328MOL0     H44234  11.571   7.072   3.006  1.4545  1.1148 -1.3662
  328MOL0     H44235  11.500   7.008   2.851  3.1148 -1.7855 -4.1237
  328MOL0     H44236  11.584   6.837   3.091 -0.6930  0.8512 -0.2792
  328MOL0     H44237  11.560   6.774   2.927 -1.2928 -0.3682 -1.6108
  328MOL0     H44238  11.325   6.803   2.941 -3.5207  1.2524  1.3257
  328MOL0     H44239  11.333   6.937   3.048 -0.4083  0.1612 -0.4122
  328MOL0     H44240  11.319   6.484   3.118 -1.7701 -2.1539  1.5621
  328MOL0     H44241  11.115   6.396   3.129 -0.6521 -0.5381  0.3623
  328MOL0     H44242  10.628   6.639   3.062  0.0029  0.5738 -0.3906
  328MOL0     H44243  10.390   6.592   3.034 -2.2693 -0.9667  1.2495
  328MOL0     H44244  10.144   6.575   3.098  1.4029  0.9733 -1.1680
  328MOL0     H44245  10.220   6.476   2.961  1.2870 -1.9441  1.1431
  328MOL0     H44246  10.064   6.303   3.035  3.4507  1.9004 -1.1703
  328MOL0     H44247   9.979   6.412   3.145  0.6584 -0.5946 -0.0643
  328MOL0     H44248  10.006   6.449   2.835 -0.8086 -2.2635 -0.1274
  328MOL0     H44249   9.866   6.371   2.911 -1.1660  0.0565  3.7651
  328MOL0     H44250   9.946   6.651   3.000 -0.0370 -1.5284  1.1813
  328MOL0     H44251   9.801   6.574   3.024 -0.4564 -0.1066  0.4085
  328MOL0     H44252   9.876   6.663   2.743 -0.7299  0.2056 -2.3186
  328MOL0     H44253   9.767   6.746   2.865 -0.3566  0.0700  0.1987
  328MOL0     H44254   9.621   6.648   2.696 -2.7413 -1.1347  0.9849
  328MOL0     H44255   9.708   6.496   2.718 -1.6943 -0.4291 -2.5024
  328MOL0     H44256   9.567   6.625   2.945  1.7022 -0.1976 -0.9820
  328MOL0     H44257   9.589   6.447   2.934  1.8655  0.2718 -0.0043
  328MOL0     H44258   9.407   6.595   2.745 -1.3889 -0.9511 -0.4607
  328MOL0     H44259   9.396   6.429   2.799  1.2375  0.0453 -3.8479
  328MOL0     H44260  10.421   6.284   3.331  0.5398  0.3271 -0.8852
  328MOL0     H44261  10.648   6.370   3.389 -2.3910 -0.3437  0.3508
  328MOL0     H44262  10.947   6.777   3.252  0.4191  1.5754 -1.5226
  328MOL0     H44263  11.179   6.867   3.208 -0.4278  0.3628  0.0903
  328MOL0     H44264  10.943   8.081   1.985 -2.4480 -0.0748 -2.5240
  328MOL0     H44265  10.706   8.119   1.985 -0.5131 -0.2214 -0.4588
  328MOL0     H44266  10.330   7.775   2.157 -1.0022 -0.1226  0.3736
  328MOL0     H44267  10.079   7.754   2.169 -0.6440 -0.2412  0.3381
  328MOL0     H44268   9.735   7.889   2.127 -0.2603  2.0842 -2.4111
  328MOL0     H44269   9.865   7.774   2.158 -0.5508  1.6956  1.1981
  328MOL0     H44270   9.783   7.733   1.913 -3.7788  2.5298 -1.1297
  328MOL0     H44271   9.944   7.820   1.914  0.1368  0.5784 -0.4651
  328MOL0     H44272   9.787   8.024   1.913  0.6353 -0.1730 -0.6126
  328MOL0     H44273   9.657   7.912   1.883  0.4562 -1.5700  0.4286
  328MOL0     H44274   9.692   7.941   1.662 -0.1376 -1.9975  0.1248
  328MOL0     H44275   9.845   8.020   1.706 -0.4402  0.4595 -0.0410
  328MOL0     H44276   9.971   7.635   1.599  1.4014  1.0780  0.1808
  328MOL0     H44277  10.048   8.179   2.143  0.2386 -0.4110 -3.5130
  328MOL0     H44278  10.370   8.251   2.284 -2.4475 -3.4977  2.0199
  328MOL0     H44279  10.345   8.288   2.106 -1.3513 -1.4775 -1.6547
  328MOL0     H44280  10.220   8.325   2.232  1.5029  3.0040 -2.6010
  329MOL0     O44281   8.220   9.540   6.468 -0.2235  0.2484 -0.0605
  329MOL0     C44282   8.184   9.436   6.426  0.5219 -0.1055 -0.1479
  329MOL0     O44283   8.061   9.391   6.405 -0.6294  0.2780 -0.1862
  329MOL0     C44284   7.957   9.469   6.450 -0.0160 -1.1343 -0.1144
  329MOL0     C44285   7.906   9.572   6.365  0.2028 -0.2598  0.5984
  329MOL0     C44286   7.808   9.665   6.417 -0.2895  0.2340  0.4377
  329MOL0     C44287   7.750   9.636   6.540  0.6181  0.5196  0.8890
  329MOL0     O44288   7.645   9.713   6.590  0.3637  0.0158 -0.2090
  329MOL0     C44289   7.670   9.848   6.616  0.3345 -1.5043  0.1707
  329MOL0     C44290   7.572   9.937   6.543  0.0508 -0.5308  0.5726
  329MOL0     C44291   7.585  10.082   6.605  0.5361  0.4557 -0.1178
  329MOL0     C44292   7.514  10.192   6.518  0.2115 -0.0936 -0.4728
  329MOL0     C44293   7.522  10.329   6.585 -0.0878 -0.3924 -0.2840
  329MOL0     C44294   7.658  10.397   6.578 -0.6736 -0.1430  0.6629
  329MOL0     C44295   7.686  10.539   6.638  0.2118  0.6164 -0.2308
  329MOL0     C44296   7.754  10.627   6.535 -0.1076 -0.3803 -0.2703
  329MOL0     N44297   7.687  10.636   6.410 -0.2767 -0.0902  0.6539
  329MOL0     C44298   7.750  10.620   6.294  0.3122 -0.8729  0.8183
  329MOL0     C44299   7.649  10.638   6.207  0.5580  0.2451  0.6670
  329MOL0     C44300   7.638  10.615   6.062 -0.4883 -0.2768  0.1233
  329MOL0     C44301   7.541  10.512   6.004  0.5242  0.0154 -0.2258
  329MOL0     C44302   7.518  10.501   5.855 -0.9904  0.6717  0.0585
  329MOL0     C44303   7.447  10.366   5.820  0.2979 -0.2127 -0.2920
  329MOL0     O44304   7.448  10.327   5.681 -0.3590  0.4611  0.2100
  329MOL0     C44305   7.574  10.296   5.623  1.0367  0.6673  1.0607
  329MOL0     C44306   7.583  10.284   5.486 -0.9308  0.0077 -0.4193
  329MOL0     C44307   7.698  10.244   5.430  0.1894 -0.6960 -0.7523
  329MOL0     C44308   7.814  10.218   5.505 -0.6586 -0.8699  0.3754
  329MOL0     C44309   7.936  10.183   5.433 -0.9650  0.2866  0.5956
  329MOL0     O44310   7.933  10.174   5.299 -0.1782  0.6117  0.1151
  329MOL0     C44311   8.055  10.186   5.223 -0.3161  0.3863 -0.1498
  329MOL0     C44312   8.037  10.258   5.104 -0.4942 -0.4859 -0.3922
  329MOL0     C44313   8.137  10.253   5.012 -1.8155 -0.8969 -0.5622
  329MOL0     C44314   8.263  10.179   5.035 -0.0031 -0.5273 -0.6717
  329MOL0     O44315   8.361  10.181   4.939  0.1753 -0.3876 -0.0033
  329MOL0     C44316   8.494  10.225   4.969 -0.1979 -0.0361  0.6354
  329MOL0     C44317   8.516  10.370   4.925  1.2320  0.0890  0.7561
  329MOL0     C44318   8.486  10.394   4.771  0.2004  0.1470  0.0760
  329MOL0     C44319   8.537  10.532   4.732  0.7826  0.7668  0.2056
  329MOL0     C44320   8.539  10.542   4.569  0.1423 -0.2961 -0.1705
  329MOL0     C44321   8.408  10.621   4.520  0.0381  0.5272  0.4991
  329MOL0     C44322   8.420  10.684   4.381  0.3376 -0.3192  0.0789
  329MOL0     C44323   8.296  10.769   4.342  1.2193  0.8388  0.4335
  329MOL0    Cl44324   8.193  10.636   4.294  0.3642  0.1798  0.1125
  329MOL0     C44325   8.279  10.110   5.157  0.4737  0.0409 -0.4396
  329MOL0     C44326   8.177  10.113   5.251 -0.5193  0.0824  0.0401
  329MOL0     O44327   8.035  10.177   5.499  0.3293  0.6054  0.3650
  329MOL0     C44328   7.808  10.228   5.640 -0.9982  0.1120 -0.0802
  329MOL0     C44329   7.685  10.258   5.700  0.7105 -0.1384 -0.2478
  329MOL0     N44330   7.525  10.661   6.275 -0.5595  0.2187 -0.3902
  329MOL0     N44331   7.554  10.660   6.397  0.3488  0.1639  0.1898
  329MOL0     C44332   7.799   9.533   6.619 -0.4094 -0.7234 -0.1800
  329MOL0     C44333   7.902   9.447   6.573  0.0128 -0.6491 -0.3899
  329MOL0     C44334   8.276   9.342   6.370 -0.0945  0.8237 -0.1255
  329MOL0     C44335   8.263   9.206   6.427 -0.7251  0.0883  0.8268
  329MOL0     C44336   8.328   9.107   6.351  0.5278 -0.6158 -0.2187
  329MOL0     C44337   8.406   9.137   6.241  0.7702  0.2119  0.0775
  329MOL0     O44338   8.458   9.028   6.172 -0.6675 -0.6997  0.8040
  329MOL0     C44339   8.534   8.927   6.237  1.3198 -0.2652 -0.3569
  329MOL0     C44340   8.632   8.866   6.139 -2.0193  0.9950 -0.8551
  329MOL0     C44341   8.749   8.802   6.216 -0.4205  0.4751 -1.1683
  329MOL0     C44342   8.816   8.700   6.121 -0.3231 -0.2610  0.6507
  329MOL0     C44343   8.935   8.638   6.173 -0.6589  0.3679  1.0193
  329MOL0     C44344   9.026   8.572   6.206  0.2906  0.0040 -0.4158
  329MOL0     C44345   8.428   9.275   6.203 -0.7037  0.4419 -0.7618
  329MOL0     C44346   8.361   9.372   6.263 -0.5159 -0.7274  0.1589
  329MOL0     C44347   8.373   9.508   6.202  0.1601 -0.7362  0.2155
  329MOL0     H44348   7.951   9.586   6.268 -0.8999 -1.3940 -0.1017
  329MOL0     H44349   7.769   9.748   6.360 -0.0517 -1.0758 -1.7508
  329MOL0     H44350   7.670   9.853   6.725  1.4003 -1.2206  0.1771
  329MOL0     H44351   7.765   9.879   6.571  0.2786 -1.4247  0.1073
  329MOL0     H44352   7.472   9.892   6.546 -1.0723  1.8651  1.5213
  329MOL0     H44353   7.599   9.955   6.438 -0.9038 -0.5668  0.3084
  329MOL0     H44354   7.689  10.110   6.627  0.2975  4.4303 -3.0126
  329MOL0     H44355   7.543  10.079   6.706  1.8554 -0.6314  0.4426
  329MOL0     H44356   7.566  10.195   6.422  3.2249  0.3614  1.0472
  329MOL0     H44357   7.408  10.168   6.508 -0.2974  2.2087 -1.1467
  329MOL0     H44358   7.461  10.398   6.526 -3.1047 -0.9890  1.8804
  329MOL0     H44359   7.476  10.327   6.685 -1.3279 -0.5536 -0.8456
  329MOL0     H44360   7.743  10.340   6.617  1.7996 -0.8742 -4.9228
  329MOL0     H44361   7.698  10.389   6.477  0.7010 -1.8985  1.2803
  329MOL0     H44362   7.750  10.527   6.725  0.2018  2.4578  0.0715
  329MOL0     H44363   7.594  10.582   6.678  0.5547  0.0669  1.2049
  329MOL0     H44364   7.769  10.727   6.575 -2.1898 -0.4636  0.8671
  329MOL0     H44365   7.844  10.567   6.521  0.5279  0.4081  0.3816
  329MOL0     H44366   7.854  10.594   6.277  0.0416 -1.3379 -0.1520
  329MOL0     H44367   7.616  10.712   6.017 -0.0997 -2.2765 -5.0366
  329MOL0     H44368   7.741  10.598   6.029 -0.7295  1.5459 -1.7171
  329MOL0     H44369   7.565  10.410   6.036 -1.0715 -0.5998 -0.8864
  329MOL0     H44370   7.447  10.533   6.055  0.8148 -1.4872  1.0090
  329MOL0     H44371   7.612  10.502   5.801 -0.5075 -0.0255  0.8442
  329MOL0     H44372   7.462  10.584   5.811  0.7422 -0.2604 -4.3354
  329MOL0     H44373   7.350  10.379   5.868  1.1457  3.5366  0.6968
  329MOL0     H44374   7.499  10.289   5.878  2.3729  1.4215  0.1331
  329MOL0     H44375   7.491  10.281   5.428  0.0767 -3.6528 -2.0861
  329MOL0     H44376   7.689  10.202   5.330 -0.5955 -2.3504 -0.0431
  329MOL0     H44377   7.957  10.313   5.055  0.8430  0.3140 -1.7482
  329MOL0     H44378   8.127  10.302   4.916 -0.0870 -1.1473 -0.8979
  329MOL0     H44379   8.519  10.233   5.075 -1.8723  0.8921  0.9886
  329MOL0     H44380   8.569  10.168   4.914  0.7697 -1.3199  3.1026
  329MOL0     H44381   8.438  10.435   4.966 -0.5700 -0.2531 -1.8663
  329MOL0     H44382   8.616  10.403   4.954  0.8664  1.1203  0.8842
  329MOL0     H44383   8.528  10.320   4.702  2.9085  3.5701 -2.2530
  329MOL0     H44384   8.381  10.388   4.741  0.6043 -2.6512 -1.1326
  329MOL0     H44385   8.633  10.551   4.780  0.5659  0.3083  0.8210
  329MOL0     H44386   8.463  10.609   4.758  2.4355  2.1027  1.1317
  329MOL0     H44387   8.536  10.445   4.520 -0.0817  0.9329 -2.7703
  329MOL0     H44388   8.635  10.593   4.555  0.9659 -1.0779  2.1812
  329MOL0     H44389   8.319  10.558   4.520 -0.9232  1.7840  2.5768
  329MOL0     H44390   8.373  10.706   4.580 -1.4062  1.5271 -1.6370
  329MOL0     H44391   8.436  10.601   4.312 -1.5807 -0.8299  0.1750
  329MOL0     H44392   8.511  10.743   4.389  0.0680  0.0265  0.6800
  329MOL0     H44393   8.253  10.832   4.421 -1.5813  0.6457 -0.8322
  329MOL0     H44394   8.308  10.836   4.256 -0.0740 -0.4587 -0.7952
  329MOL0     H44395   8.375  10.062   5.172  0.8308  0.8616 -0.0211
  329MOL0     H44396   8.190  10.057   5.343  2.0007  3.2946  1.8650
  329MOL0     H44397   7.894  10.209   5.704 -0.8840  1.8526  0.3083
  329MOL0     H44398   7.688  10.280   5.806 -1.9848  0.6715 -0.2718
  329MOL0     H44399   7.745   9.529   6.713 -1.6272  0.1261 -0.8167
  329MOL0     H44400   7.934   9.363   6.635  1.6725  1.1049  1.2845
  329MOL0     H44401   8.198   9.178   6.509  0.3031 -1.4603  1.1419
  329MOL0     H44402   8.297   9.006   6.376 -2.0365  0.4270  1.1684
  329MOL0     H44403   8.462   8.860   6.285 -2.6535  4.0849  0.4512
  329MOL0     H44404   8.601   8.983   6.303  1.8799 -1.2185 -0.0928
  329MOL0     H44405   8.677   8.950   6.087 -1.9777 -0.3141 -3.0876
  329MOL0     H44406   8.581   8.793   6.075  1.1031 -1.9470 -0.2676
  329MOL0     H44407   8.716   8.738   6.298 -0.0984  2.6133  0.7255
  329MOL0     H44408   8.824   8.872   6.253 -0.8506  0.1475  0.4018
  329MOL0     H44409   8.738   8.625   6.105  0.4082 -1.0084  0.5555
  329MOL0     H44410   8.820   8.736   6.018 -5.0588  3.5491  1.4289
  329MOL0     H44411   9.115   8.515   6.228  0.1706 -0.6865 -1.6096
  329MOL0     H44412   8.493   9.295   6.119  1.9697 -0.4142  0.9921
  329MOL0     H44413   8.275   9.548   6.175  1.1417 -0.3520 -3.2099
  329MOL0     H44414   8.420   9.573   6.277 -0.3623 -0.5200  0.3558
  329MOL0     H44415   8.432   9.514   6.110 -0.9290  0.3387 -0.4403
  330MOL0     O44416   8.044   6.282   5.670 -0.1416 -0.4135  0.3216
  330MOL0     C44417   8.095   6.287   5.557 -0.0443 -0.1254  0.2758
  330MOL0     O44418   8.031   6.335   5.447 -0.2150  0.3378  0.2548
  330MOL0     C44419   7.905   6.388   5.464 -0.7276 -0.1684 -0.6307
  330MOL0     C44420   7.803   6.297   5.481 -0.3488  0.5055 -0.0851
  330MOL0     C44421   7.673   6.341   5.510 -0.1898  0.1679  0.1078
  330MOL0     C44422   7.642   6.481   5.520 -0.3323 -0.1421 -0.0453
  330MOL0     O44423   7.515   6.536   5.540 -0.1732  0.3517 -0.1969
  330MOL0     C44424   7.467   6.608   5.422 -0.0786 -0.1531 -0.8172
  330MOL0     C44425   7.375   6.515   5.355  0.2910  0.7099 -0.2356
  330MOL0     C44426   7.266   6.455   5.443  0.6170  0.1196 -0.3666
  330MOL0     C44427   7.161   6.393   5.349 -0.0451  0.2113  0.7587
  330MOL0     C44428   7.042   6.340   5.433 -0.0200 -0.0326 -0.1525
  330MOL0     C44429   6.944   6.284   5.332  0.6724 -0.3473 -0.4583
  330MOL0     C44430   6.820   6.236   5.402 -0.0164  0.0644  0.0879
  330MOL0     C44431   6.719   6.187   5.292 -1.1981 -0.3945 -0.2875
  330MOL0     N44432   6.591   6.129   5.350 -0.4691  0.3274  0.1178
  330MOL0     C44433   6.462   6.173   5.306 -0.7906  0.0327  0.0633
  330MOL0     C44434   6.375   6.123   5.395  1.1874  0.8133 -0.7901
  330MOL0     C44435   6.220   6.141   5.417 -0.9528 -0.2788 -0.8156
  330MOL0     C44436   6.158   6.083   5.291 -0.7441 -0.0215 -0.2579
  330MOL0     C44437   6.204   5.940   5.257 -0.6814 -0.2194  0.1817
  330MOL0     C44438   6.146   5.888   5.129  0.1197  0.7586  0.3152
  330MOL0     O44439   6.172   5.964   5.010 -0.0829 -0.6935 -0.0649
  330MOL0     C44440   6.305   6.000   4.977  1.4239 -0.1404 -0.4813
  330MOL0     C44441   6.341   6.133   4.981  0.2852 -0.4659 -0.1367
  330MOL0     C44442   6.469   6.170   4.949 -0.7428  0.3867 -0.8733
  330MOL0     C44443   6.568   6.073   4.912  0.4007 -0.0609  0.5049
  330MOL0     C44444   6.700   6.121   4.872  0.2357  0.8403 -0.1463
  330MOL0     O44445   6.741   6.231   4.947 -0.0251 -0.1789  0.8067
  330MOL0     C44446   6.872   6.266   4.952  0.2639 -0.4771 -0.0758
  330MOL0     C44447   6.975   6.171   4.987  1.1390  0.3538  0.6300
  330MOL0     C44448   7.104   6.212   4.996 -0.4273 -0.0973  0.1068
  330MOL0     C44449   7.146   6.340   5.011 -0.8979  0.3037 -0.0790
  330MOL0     O44450   7.284   6.353   5.033  0.0702 -0.6915  0.4641
  330MOL0     C44451   7.359   6.469   5.000  0.7960 -0.2498  0.9167
  330MOL0     C44452   7.476   6.410   4.926 -0.0645  0.3847 -0.3301
  330MOL0     C44453   7.429   6.396   4.777 -0.1498  0.1821 -0.5576
  330MOL0     C44454   7.530   6.328   4.690 -1.1960 -0.1703  0.6454
  330MOL0     C44455   7.494   6.313   4.543  0.7565 -0.2586  0.7298
  330MOL0     C44456   7.586   6.377   4.447 -0.2196 -0.1390 -0.5995
  330MOL0     C44457   7.560   6.347   4.295 -0.2514  0.6109 -0.4094
  330MOL0     C44458   7.427   6.411   4.257 -1.3869 -0.7681 -0.3109
  330MOL0    Cl44459   7.390   6.362   4.087 -0.0640  0.5177 -0.2101
  330MOL0     C44460   7.054   6.442   4.992 -0.0296  0.2780  0.7511
  330MOL0     C44461   6.924   6.405   4.945 -0.3929  0.4494 -0.1035
  330MOL0     O44462   6.774   6.040   4.810 -1.2523  0.3757  0.4565
  330MOL0     C44463   6.532   5.933   4.924 -1.1932 -0.6435 -0.5299
  330MOL0     C44464   6.396   5.901   4.946  0.7573  0.3153  0.4276
  330MOL0     N44465   6.443   6.055   5.494  0.6450  1.4200 -0.1296
  330MOL0     N44466   6.573   6.063   5.477  0.2666  0.0363  0.2450
  330MOL0     C44467   7.748   6.573   5.515 -0.2288  0.0161  0.4756
  330MOL0     C44468   7.877   6.528   5.475 -0.5425  0.5136 -1.1082
  330MOL0     C44469   8.227   6.229   5.530  0.2329 -0.1293 -0.0712
  330MOL0     C44470   8.259   6.180   5.396  0.5564  0.0655 -0.6229
  330MOL0     C44471   8.365   6.097   5.373 -0.0023 -0.3456 -0.8772
  330MOL0     C44472   8.464   6.086   5.468 -0.3435  1.1515 -0.3872
  330MOL0     O44473   8.589   6.025   5.452  0.3373  0.3227  0.1328
  330MOL0     C44474   8.602   5.915   5.365  0.8838  0.9342 -0.0016
  330MOL0     C44475   8.725   5.925   5.273  0.4443 -0.2746 -0.2566
  330MOL0     C44476   8.849   5.916   5.351  0.2532 -0.4219 -1.1748
  330MOL0     C44477   8.929   5.806   5.303 -0.6738 -0.9475 -0.4830
  330MOL0     C44478   9.005   5.849   5.177 -0.2373 -0.3977 -0.2796
  330MOL0     C44479   9.066   5.876   5.074 -0.2149 -0.1855 -0.6097
  330MOL0     C44480   8.438   6.127   5.591  0.5274 -0.8340  0.2197
  330MOL0     C44481   8.321   6.198   5.636  0.2149 -0.7221 -0.4812
  330MOL0     C44482   8.309   6.244   5.784  0.7884 -0.7734  0.6966
  330MOL0     H44483   7.827   6.193   5.499  0.7772  1.1399  2.4427
  330MOL0     H44484   7.590   6.272   5.526  0.7180 -0.8201  0.7436
  330MOL0     H44485   7.408   6.692   5.459  0.9621  1.4566 -2.5971
  330MOL0     H44486   7.544   6.649   5.355 -2.0736  0.6978 -2.6796
  330MOL0     H44487   7.427   6.436   5.300  0.2014 -0.3657  1.1626
  330MOL0     H44488   7.338   6.587   5.281  3.4914  4.2071  1.2452
  330MOL0     H44489   7.214   6.533   5.499  1.1620  0.1308  0.1287
  330MOL0     H44490   7.316   6.371   5.492  2.0490 -1.2413 -3.8234
  330MOL0     H44491   7.130   6.469   5.277  1.2007  0.8128  0.8345
  330MOL0     H44492   7.213   6.320   5.286  4.1056  1.7880  2.0184
  330MOL0     H44493   7.070   6.271   5.513  1.8969  4.4547  3.4478
  330MOL0     H44494   6.985   6.423   5.475 -1.0876 -1.2285  0.8465
  330MOL0     H44495   6.915   6.358   5.258  0.6204  2.1725  1.9348
  330MOL0     H44496   6.997   6.196   5.295 -0.7335 -1.7901  0.7491
  330MOL0     H44497   6.769   6.311   5.463 -1.6326 -1.8048  1.1067
  330MOL0     H44498   6.830   6.146   5.462 -1.4651  0.3136  0.7326
  330MOL0     H44499   6.699   6.261   5.214  1.1899  0.0630 -0.5685
  330MOL0     H44500   6.783   6.110   5.248 -1.4301 -0.3743 -0.6648
  330MOL0     H44501   6.436   6.231   5.218 -1.7624  0.0426  0.3545
  330MOL0     H44502   6.188   6.082   5.504  0.8030 -1.9674 -1.2384
  330MOL0     H44503   6.191   6.246   5.425 -0.4431 -0.0720 -1.5441
  330MOL0     H44504   6.048   6.079   5.298 -0.8480  3.0842  3.0013
  330MOL0     H44505   6.201   6.154   5.220  2.1822  0.5601  1.9148
  330MOL0     H44506   6.191   5.876   5.344  1.7140 -0.3336  0.5188
  330MOL0     H44507   6.311   5.943   5.234 -0.7034  0.7764  0.1623
  330MOL0     H44508   6.038   5.887   5.146  0.1557  0.2944  0.5116
  330MOL0     H44509   6.177   5.785   5.113  0.7572  1.0034 -0.0643
  330MOL0     H44510   6.261   6.200   5.013 -1.0435 -2.3727  0.7555
  330MOL0     H44511   6.485   6.276   4.930  0.3034  0.7067  1.4464
  330MOL0     H44512   6.951   6.066   4.985 -1.2294  0.8549  0.2378
  330MOL0     H44513   7.173   6.130   5.009  3.2913  2.8312  0.5264
  330MOL0     H44514   7.309   6.549   4.943  0.8063 -0.7384  0.2101
  330MOL0     H44515   7.407   6.524   5.081  1.6887  1.7222 -0.8475
  330MOL0     H44516   7.565   6.473   4.928  0.7519 -0.6543 -1.8304
  330MOL0     H44517   7.513   6.316   4.969 -1.0061  0.4691  0.7208
  330MOL0     H44518   7.333   6.345   4.773 -0.0852 -0.9914  5.1555
  330MOL0     H44519   7.428   6.495   4.730  1.0925  0.8142  0.6725
  330MOL0     H44520   7.548   6.229   4.732 -1.2066 -0.7327 -0.6368
  330MOL0     H44521   7.618   6.393   4.694 -1.3819  0.0100  2.5166
  330MOL0     H44522   7.395   6.358   4.528  1.2357  0.2011 -1.4227
  330MOL0     H44523   7.481   6.206   4.524 -0.3528 -0.0156 -0.0102
  330MOL0     H44524   7.588   6.483   4.473 -0.1388 -0.8367  2.7724
  330MOL0     H44525   7.687   6.348   4.477 -0.6188 -0.3656  0.5949
  330MOL0     H44526   7.557   6.242   4.261 -1.5113  0.6641 -0.4791
  330MOL0     H44527   7.647   6.388   4.242  1.1575  0.9349  1.9817
  330MOL0     H44528   7.345   6.370   4.317  0.4962 -1.0714  2.2531
  330MOL0     H44529   7.423   6.520   4.270  1.2522 -0.5743 -0.6236
  330MOL0     H44530   7.081   6.546   5.010  0.7308 -0.2456  2.9003
  330MOL0     H44531   6.847   6.481   4.944 -1.0946 -0.2037  1.1028
  330MOL0     H44532   6.613   5.863   4.906  1.5643  2.7769 -3.2159
  330MOL0     H44533   6.354   5.800   4.943 -3.3572  1.8468 -0.4791
  330MOL0     H44534   7.738   6.676   5.547 -0.7395  0.2717 -0.4796
  330MOL0     H44535   7.959   6.599   5.479 -0.0269 -0.1290  1.8588
  330MOL0     H44536   8.196   6.214   5.314 -0.2365 -2.4356 -1.1455
  330MOL0     H44537   8.369   6.060   5.271  1.2573  1.1784 -1.4273
  330MOL0     H44538   8.508   5.905   5.308  2.1509 -0.4129 -1.9870
  330MOL0     H44539   8.597   5.824   5.426 -3.6748  0.5351 -0.5910
  330MOL0     H44540   8.733   6.021   5.221  0.8912  0.4077  1.0419
  330MOL0     H44541   8.715   5.843   5.201 -0.1923 -0.1753 -0.2857
  330MOL0     H44542   8.833   5.907   5.458 -1.9477  0.5971 -1.3463
  330MOL0     H44543   8.904   6.011   5.349 -1.5527  0.6666 -2.0723
  330MOL0     H44544   9.001   5.776   5.379  0.7886  0.0545 -1.4136
  330MOL0     H44545   8.871   5.716   5.282 -1.0384 -0.8619  0.1464
  330MOL0     H44546   9.128   5.903   4.990  2.5419 -4.1578 -0.1688
  330MOL0     H44547   8.522   6.119   5.658 -0.7640  1.0014  2.1767
  330MOL0     H44548   8.221   6.196   5.827  0.3846 -0.3364  0.3821
  330MOL0     H44549   8.390   6.220   5.853 -0.2163  0.6805  2.4969
  330MOL0     H44550   8.286   6.351   5.786  0.0514 -0.8884 -0.5685
  331MOL0     O44551   6.556   4.016   2.756 -0.5222  0.4780  0.1659
  331MOL0     C44552   6.547   3.948   2.659 -0.2538  0.0251  0.3038
  331MOL0     O44553   6.639   3.939   2.568 -0.1544  0.5100  0.6936
  331MOL0     C44554   6.751   4.014   2.544  0.3667 -0.7408  0.5237
  331MOL0     C44555   6.795   4.044   2.415  0.2477  0.5052 -0.3952
  331MOL0     C44556   6.914   4.112   2.388  0.4225  0.2434  0.3178
  331MOL0     C44557   6.998   4.152   2.492  0.3182  0.0278 -0.1022
  331MOL0     O44558   7.124   4.196   2.461 -0.9278  0.0268 -0.6209
  331MOL0     C44559   7.200   4.250   2.568  0.5078  0.9250 -0.4629
  331MOL0     C44560   7.329   4.302   2.524 -1.0451 -0.5010  0.3211
  331MOL0     C44561   7.326   4.413   2.419 -0.4258  0.5108 -0.4057
  331MOL0     C44562   7.458   4.466   2.394 -1.1722  0.8785  0.6312
  331MOL0     C44563   7.452   4.573   2.287  0.2453 -1.0212 -0.6119
  331MOL0     C44564   7.597   4.641   2.272 -0.0712  0.5985  0.3414
  331MOL0     C44565   7.618   4.730   2.146 -0.3180 -0.7052  1.3008
  331MOL0     C44566   7.615   4.665   2.011  0.0332  0.4364 -0.1645
  331MOL0     N44567   7.659   4.752   1.902 -0.4466 -0.3148  0.1538
  331MOL0     C44568   7.718   4.698   1.790  0.8596 -0.5111 -0.5842
  331MOL0     C44569   7.724   4.805   1.703 -0.7766 -0.2204 -0.8044
  331MOL0     C44570   7.787   4.784   1.569 -0.3843 -0.7227 -0.5452
  331MOL0     C44571   7.913   4.876   1.564 -0.3307 -0.3374  0.0777
  331MOL0     C44572   8.014   4.824   1.473 -0.0854 -1.3564 -0.0398
  331MOL0     C44573   7.982   4.806   1.325  0.4334 -0.1885 -0.4504
  331MOL0     O44574   8.100   4.811   1.240  0.6605 -0.2561  0.1959
  331MOL0     C44575   8.095   4.776   1.109  1.1697 -0.1794  0.3192
  331MOL0     C44576   7.985   4.735   1.035  0.0822  0.3088 -0.1687
  331MOL0     C44577   8.009   4.720   0.901  0.1497  0.1833  0.0742
  331MOL0     C44578   8.134   4.751   0.828 -0.5910 -0.3362  0.3910
  331MOL0     C44579   8.138   4.729   0.681 -0.1151  0.6165  0.5919
  331MOL0     O44580   8.027   4.706   0.609 -0.0435 -0.0765  0.6032
  331MOL0     C44581   8.040   4.695   0.466 -0.7914  0.4610  0.6388
  331MOL0     C44582   8.145   4.639   0.395  0.4502 -0.0078 -0.4605
  331MOL0     C44583   8.147   4.641   0.257  0.0930  0.5179 -0.2828
  331MOL0     C44584   8.043   4.700   0.181 -0.3923  0.0135  1.3242
  331MOL0     O44585   8.062   4.696   0.043  0.1238  0.3184 -0.2931
  331MOL0     C44586   7.946   4.701  -0.039 -0.9759  0.3620 -0.2133
  331MOL0     C44587   7.874   4.562  -0.055  0.3739 -0.4095  0.0694
  331MOL0     C44588   7.831   4.519  -0.202 -0.0997 -0.1592  0.8600
  331MOL0     C44589   7.773   4.375  -0.234 -0.8964  0.3701 -0.4257
  331MOL0     C44590   7.739   4.361  -0.385 -0.5846  0.4044 -0.4092
  331MOL0     C44591   7.654   4.480  -0.443 -0.1838  0.0523  0.0798
  331MOL0     C44592   7.599   4.452  -0.582  0.7949  0.1186 -0.1270
  331MOL0     C44593   7.481   4.547  -0.597  0.1431  0.3456 -0.0504
  331MOL0    Cl44594   7.427   4.515  -0.771 -0.2146 -0.1166 -0.3221
  331MOL0     C44595   7.927   4.740   0.252  0.3813  0.2268 -0.8054
  331MOL0     C44596   7.929   4.737   0.391 -0.0007 -0.1476 -0.0204
  331MOL0     O44597   8.255   4.744   0.626  0.0991 -0.1347 -0.1709
  331MOL0     C44598   8.237   4.810   0.908 -1.1343 -0.4974  0.2508
  331MOL0     C44599   8.217   4.809   1.040  0.1442  0.8452 -0.1200
  331MOL0     N44600   7.687   4.925   1.768 -0.8719  0.4848  0.4314
  331MOL0     N44601   7.642   4.882   1.889 -0.4915  0.8723  0.6371
  331MOL0     C44602   6.950   4.129   2.624 -0.5046 -1.4008 -1.5132
  331MOL0     C44603   6.825   4.065   2.648 -0.1403 -0.2909  0.5642
  331MOL0     C44604   6.430   3.850   2.643 -0.6215 -0.9274 -0.4777
  331MOL0     C44605   6.442   3.744   2.549 -0.1507  0.4645 -0.1412
  331MOL0     C44606   6.348   3.657   2.512  0.4283 -0.0231 -0.0554
  331MOL0     C44607   6.221   3.662   2.577 -0.5543 -0.1933  0.0072
  331MOL0     O44608   6.119   3.577   2.541  0.4539 -0.0123  0.2184
  331MOL0     C44609   5.995   3.640   2.500 -0.4909  0.0342  0.0583
  331MOL0     C44610   5.902   3.544   2.421 -0.2503 -0.0820  0.0878
  331MOL0     C44611   5.751   3.573   2.430 -0.5073 -0.7042  0.4366
  331MOL0     C44612   5.671   3.449   2.377 -0.3667  1.1813 -0.6160
  331MOL0     C44613   5.671   3.418   2.232  0.2208 -0.6357 -1.3055
  331MOL0     C44614   5.685   3.409   2.115  0.6053  0.8319 -0.3559
  331MOL0     C44615   6.204   3.770   2.666 -0.2687 -1.3500 -0.3143
  331MOL0     C44616   6.303   3.859   2.703 -0.4324  0.6359  0.0572
  331MOL0     C44617   6.271   3.955   2.812  0.4179 -0.1880  0.3751
  331MOL0     H44618   6.741   3.998   2.333 -1.8505 -2.6910  2.4784
  331MOL0     H44619   6.926   4.131   2.282 -2.5698 -1.7019 -0.4813
  331MOL0     H44620   7.143   4.325   2.623 -0.2774  0.1486 -0.1835
  331MOL0     H44621   7.225   4.166   2.634 -1.9355  0.3585 -0.1685
  331MOL0     H44622   7.396   4.223   2.490  1.1589 -0.1452  3.3367
  331MOL0     H44623   7.379   4.340   2.614  0.8394 -4.1288  0.9749
  331MOL0     H44624   7.260   4.496   2.448  0.6201  1.3458 -0.3617
  331MOL0     H44625   7.286   4.374   2.325 -1.6956  1.2125 -0.1948
  331MOL0     H44626   7.499   4.488   2.493 -0.2951 -4.0406  1.6136
  331MOL0     H44627   7.518   4.385   2.350  0.9121  2.7615 -0.2060
  331MOL0     H44628   7.416   4.544   2.188 -1.4027  4.6061 -2.0232
  331MOL0     H44629   7.388   4.652   2.327  0.6869 -1.2961  0.6796
  331MOL0     H44630   7.612   4.707   2.358  0.5311  1.6885 -0.5632
  331MOL0     H44631   7.666   4.557   2.284 -1.2568 -0.1914  1.8219
  331MOL0     H44632   7.716   4.779   2.151 -2.2833  3.8441  0.2414
  331MOL0     H44633   7.543   4.809   2.140  1.6962  1.1787 -1.0927
  331MOL0     H44634   7.679   4.577   2.018 -0.5563 -0.0471 -0.7295
  331MOL0     H44635   7.514   4.627   1.993 -0.3760  1.1491  0.5327
  331MOL0     H44636   7.750   4.598   1.764 -0.6265 -1.1584 -0.0604
  331MOL0     H44637   7.817   4.680   1.549  0.2068 -0.3656 -1.6286
  331MOL0     H44638   7.730   4.833   1.489 -1.0847 -0.1207  0.3177
  331MOL0     H44639   7.909   4.984   1.546  3.2528  0.0861  1.0290
  331MOL0     H44640   7.963   4.851   1.658 -1.1138 -0.6142  0.4298
  331MOL0     H44641   8.051   4.731   1.516 -2.4005 -2.6929 -0.7418
  331MOL0     H44642   8.100   4.891   1.481  0.9543 -2.5976 -0.4185
  331MOL0     H44643   7.898   4.869   1.294 -0.4788 -1.6227 -0.9872
  331MOL0     H44644   7.942   4.705   1.317 -1.4288  0.5582 -1.1349
  331MOL0     H44645   7.883   4.716   1.065  0.2867 -1.3001 -0.3964
  331MOL0     H44646   7.915   4.683   0.862  0.0785 -1.3378  1.5812
  331MOL0     H44647   8.229   4.594   0.448  2.0211  1.4383 -1.6244
  331MOL0     H44648   8.236   4.601   0.209  0.6339  2.9930 -1.5436
  331MOL0     H44649   7.878   4.779  -0.003 -0.2653  2.1771 -2.5409
  331MOL0     H44650   7.982   4.722  -0.140 -0.0685  3.2762  0.6211
  331MOL0     H44651   7.960   4.498  -0.034  1.4404  1.1106  0.5473
  331MOL0     H44652   7.802   4.561   0.028  0.2281  1.2384 -0.0148
  331MOL0     H44653   7.756   4.592  -0.233  0.1795  0.6359  1.9587
  331MOL0     H44654   7.911   4.529  -0.276 -3.1839 -2.8133 -3.2051
  331MOL0     H44655   7.688   4.366  -0.167 -0.2075  3.4408  1.0530
  331MOL0     H44656   7.842   4.295  -0.206 -2.6911 -1.1261 -0.1465
  331MOL0     H44657   7.681   4.270  -0.401 -0.2510  0.4067 -1.6649
  331MOL0     H44658   7.827   4.352  -0.449  0.0875  0.5709  0.4572
  331MOL0     H44659   7.567   4.489  -0.378  2.3605 -0.7354  3.9216
  331MOL0     H44660   7.697   4.580  -0.444 -0.1534  0.0406 -0.4644
  331MOL0     H44661   7.577   4.345  -0.584  0.1797 -0.0579  4.5558
  331MOL0     H44662   7.657   4.473  -0.672  0.8103 -1.7849 -0.6123
  331MOL0     H44663   7.398   4.518  -0.531 -0.8893 -1.5375 -2.0614
  331MOL0     H44664   7.511   4.651  -0.578  1.4614 -0.2922  1.6289
  331MOL0     H44665   7.837   4.778   0.204  1.5135  1.5790 -1.9724
  331MOL0     H44666   7.837   4.770   0.439  0.8073  3.1598 -0.4589
  331MOL0     H44667   8.334   4.820   0.861 -1.4571 -2.8259 -1.0795
  331MOL0     H44668   8.297   4.821   1.112 -0.8001  2.7865  0.6749
  331MOL0     H44669   7.010   4.148   2.712  3.7067 -1.0120 -4.1820
  331MOL0     H44670   6.806   4.058   2.755 -0.4997 -0.8030  0.4704
  331MOL0     H44671   6.546   3.737   2.519  0.6916  0.4431  2.4773
  331MOL0     H44672   6.383   3.577   2.447  2.6300  1.4978 -0.8473
  331MOL0     H44673   6.031   3.719   2.433  0.2191 -0.1116  0.2656
  331MOL0     H44674   5.935   3.678   2.584 -1.3755 -0.0196 -0.5311
  331MOL0     H44675   5.924   3.448   2.468 -0.2517 -0.4185 -0.5913
  331MOL0     H44676   5.931   3.519   2.318 -0.5008 -1.6472  0.3822
  331MOL0     H44677   5.723   3.664   2.376 -0.6044 -0.6752  0.5351
  331MOL0     H44678   5.709   3.582   2.531  3.5288  2.3851  2.1160
  331MOL0     H44679   5.705   3.355   2.422 -1.8171 -0.1297 -2.0694
  331MOL0     H44680   5.572   3.446   2.424  0.5951 -2.6003  1.6125
  331MOL0     H44681   5.679   3.411   2.008 -1.7600 -2.5797 -0.4569
  331MOL0     H44682   6.101   3.769   2.702 -0.5332  2.2265 -0.6595
  331MOL0     H44683   6.358   3.962   2.877  3.7276 -0.4167 -3.6089
  331MOL0     H44684   6.271   4.059   2.778  2.3929 -0.3867 -0.3589
  331MOL0     H44685   6.171   3.938   2.853 -0.4219 -2.2442 -2.2518
  332MOL0     O44686   8.353   0.420   6.217 -0.4068 -0.0578 -0.6531
  332MOL0     C44687   8.423   0.489   6.139 -0.1299  0.0766  0.4015
  332MOL0     O44688   8.488   0.433   6.033  0.6716 -0.0680 -0.5542
  332MOL0     C44689   8.531   0.301   6.045  0.7683  0.4895 -0.8381
  332MOL0     C44690   8.536   0.229   5.920 -0.1894  0.2087 -1.0489
  332MOL0     C44691   8.591   0.104   5.923 -0.2567 -0.7467  0.5850
  332MOL0     C44692   8.633   0.043   6.045  1.6355  0.0951 -0.2241
  332MOL0     O44693   8.676  -0.087   6.043  0.7237 -0.1374 -0.0810
  332MOL0     C44694   8.758  -0.135   6.149  0.9569 -0.3358 -0.4352
  332MOL0     C44695   8.802  -0.276   6.122  0.3087 -0.0630 -0.3783
  332MOL0     C44696   8.868  -0.307   5.985 -0.1900 -0.2577  0.3172
  332MOL0     C44697   8.961  -0.201   5.927 -0.0995  0.1962 -0.7882
  332MOL0     C44698   9.112  -0.206   5.982  0.1785 -0.8890 -0.3651
  332MOL0     C44699   9.220  -0.148   5.887  0.4497 -0.1194 -0.3893
  332MOL0     C44700   9.351  -0.116   5.958 -0.2506  0.0551  0.2143
  332MOL0     C44701   9.339  -0.009   6.065  0.1181  0.1096  0.7040
  332MOL0     N44702   9.463   0.064   6.077  0.3469 -0.8122  0.2427
  332MOL0     C44703   9.551   0.037   6.176 -0.1576 -0.4848 -0.6376
  332MOL0     C44704   9.661   0.099   6.136  0.2014  1.2343  0.3145
  332MOL0     C44705   9.799   0.077   6.203 -0.0226 -0.0079  0.7291
  332MOL0     C44706   9.885   0.209   6.184  0.4193  0.1339  0.0598
  332MOL0     C44707   9.888   0.301   6.303 -0.0030 -0.1314 -0.3544
  332MOL0     C44708   9.933   0.453   6.259 -0.4891  0.2159 -0.6035
  332MOL0     O44709  10.067   0.455   6.209  0.7459 -0.7610  0.8928
  332MOL0     C44710  10.088   0.481   6.077 -0.2061  0.5662  0.5739
  332MOL0     C44711  10.216   0.458   6.031 -0.6854 -0.2984  0.1023
  332MOL0     C44712  10.254   0.475   5.897 -0.0714 -0.0811  1.2041
  332MOL0     C44713  10.169   0.535   5.799 -0.0894 -0.3864  0.3067
  332MOL0     C44714  10.207   0.540   5.660  0.9381 -0.4440  0.3525
  332MOL0     O44715  10.324   0.474   5.632  1.1491 -0.5830  0.1997
  332MOL0     C44716  10.413   0.499   5.531  0.9843 -0.2204  0.3445
  332MOL0     C44717  10.544   0.538   5.559 -0.3446  0.6091 -0.6572
  332MOL0     C44718  10.623   0.570   5.453 -0.6790  0.5569  1.0489
  332MOL0     C44719  10.572   0.567   5.314 -0.0012  0.3946 -0.6365
  332MOL0     O44720  10.642   0.618   5.206 -0.1868  0.0722 -0.1031
  332MOL0     C44721  10.579   0.659   5.090 -0.6334 -0.0370  0.3620
  332MOL0     C44722  10.675   0.727   4.991  0.1834 -0.3718  0.2479
  332MOL0     C44723  10.586   0.780   4.870  0.5938 -0.8716 -0.2508
  332MOL0     C44724  10.674   0.841   4.773  0.5885 -0.0746 -0.4695
  332MOL0     C44725  10.596   0.935   4.677 -0.6507  0.2774  0.6782
  332MOL0     C44726  10.480   0.864   4.602 -0.0828 -0.2839 -0.0958
  332MOL0     C44727  10.398   0.957   4.508  0.2275  0.6169 -0.0008
  332MOL0     C44728  10.286   0.875   4.441  0.2813 -0.4036 -1.4043
  332MOL0    Cl44729  10.358   0.765   4.321  0.1430  0.2877  0.1290
  332MOL0     C44730  10.442   0.512   5.296  0.1403 -0.5168 -0.5526
  332MOL0     C44731  10.373   0.468   5.403  0.0527  0.7540  0.8348
  332MOL0     O44732  10.149   0.611   5.578  0.4717  0.1662  0.6506
  332MOL0     C44733  10.047   0.575   5.850  0.9547 -0.1200  0.2138
  332MOL0     C44734  10.004   0.546   5.985 -0.3055  0.2286  0.6520
  332MOL0     N44735   9.629   0.159   6.019  0.1449 -0.3996  0.4092
  332MOL0     N44736   9.509   0.152   5.988 -0.7433  0.0411 -0.5341
  332MOL0     C44737   8.634   0.112   6.163  0.1882  0.1575  0.2683
  332MOL0     C44738   8.590   0.245   6.162  0.3521 -1.0830 -0.5581
  332MOL0     C44739   8.397   0.638   6.124 -0.3443 -0.6068 -0.3160
  332MOL0     C44740   8.393   0.700   5.999 -0.7307 -0.1466 -0.3729
  332MOL0     C44741   8.372   0.836   5.986 -0.4644  0.6348 -0.1378
  332MOL0     C44742   8.360   0.928   6.092  1.1952 -0.0383  0.2528
  332MOL0     O44743   8.324   1.054   6.056  0.5985 -0.2029 -0.0690
  332MOL0     C44744   8.241   1.136   6.137  0.2532  0.6171 -0.2452
  332MOL0     C44745   8.092   1.111   6.129 -0.1629 -0.5242 -0.1542
  332MOL0     C44746   8.044   1.085   5.985  0.2749 -0.0116  0.2945
  332MOL0     C44747   7.894   1.077   5.964 -0.2585  0.6281  0.8809
  332MOL0     C44748   7.831   1.213   5.964 -0.0735  0.2612  0.2773
  332MOL0     C44749   7.794   1.327   5.963  0.3626 -0.3310 -0.0460
  332MOL0     C44750   8.362   0.872   6.214 -0.9587 -0.6721 -0.0388
  332MOL0     C44751   8.384   0.735   6.240 -0.5162  0.0681  0.2396
  332MOL0     C44752   8.404   0.674   6.375  0.5903  0.4259  0.0717
  332MOL0     H44753   8.504   0.271   5.825  0.2122  2.2463 -0.3567
  332MOL0     H44754   8.595   0.056   5.825  0.3013 -1.2410  0.8403
  332MOL0     H44755   8.848  -0.076   6.170  1.8778 -1.4341 -1.1914
  332MOL0     H44756   8.694  -0.139   6.238  0.6027  1.3336 -0.5836
  332MOL0     H44757   8.720  -0.346   6.137 -0.4383  0.6362 -1.0827
  332MOL0     H44758   8.869  -0.291   6.208  1.6645 -0.0859 -1.3978
  332MOL0     H44759   8.781  -0.315   5.919  0.7211  1.1882 -1.1463
  332MOL0     H44760   8.915  -0.406   5.982 -0.3683 -0.3201 -0.8000
  332MOL0     H44761   8.957  -0.224   5.820 -1.8447 -4.8345  0.1010
  332MOL0     H44762   8.921  -0.099   5.926  0.2380  0.3430 -0.0201
  332MOL0     H44763   9.115  -0.145   6.072  1.3635  0.3567 -1.1997
  332MOL0     H44764   9.130  -0.308   6.016 -2.0203 -0.4807  2.3797
  332MOL0     H44765   9.242  -0.227   5.815 -3.1491 -0.8801 -0.8563
  332MOL0     H44766   9.189  -0.053   5.842  2.0585 -0.9233 -3.4649
  332MOL0     H44767   9.402  -0.081   5.868 -0.2346 -1.2436 -0.3012
  332MOL0     H44768   9.381  -0.214   5.997 -0.5425  0.6948  2.1412
  332MOL0     H44769   9.256   0.061   6.050  0.3974  0.8211  2.2588
  332MOL0     H44770   9.311  -0.052   6.161 -2.8777  2.0264  0.8147
  332MOL0     H44771   9.544  -0.029   6.262  1.4297  0.7868  0.5291
  332MOL0     H44772   9.791   0.040   6.306  1.7354 -3.8743 -0.3198
  332MOL0     H44773   9.851   0.001   6.143 -2.0871  2.2883 -4.5653
  332MOL0     H44774   9.992   0.198   6.167  0.7130  3.3946 -0.9094
  332MOL0     H44775   9.850   0.268   6.099 -1.5110 -1.0303 -0.0161
  332MOL0     H44776   9.951   0.276   6.389 -1.4365 -1.0690  0.4709
  332MOL0     H44777   9.789   0.319   6.347 -0.5837  0.6299 -1.8796
  332MOL0     H44778   9.942   0.511   6.351  2.5934 -1.3463  0.2110
  332MOL0     H44779   9.866   0.508   6.192  1.0568 -0.2185 -2.5908
  332MOL0     H44780  10.284   0.408   6.099 -0.5528  0.4514  0.5309
  332MOL0     H44781  10.352   0.438   5.867  0.6704 -0.2601  3.5665
  332MOL0     H44782  10.576   0.543   5.662  0.0070  0.7432 -0.7703
  332MOL0     H44783  10.724   0.604   5.477  0.7484 -2.9934  0.7392
  332MOL0     H44784  10.533   0.570   5.045 -2.3943  0.9134  0.2234
  332MOL0     H44785  10.503   0.736   5.107 -0.9037  0.4062 -2.4377
  332MOL0     H44786  10.714   0.808   5.054 -1.2595  1.5441 -1.2304
  332MOL0     H44787  10.760   0.671   4.950 -1.0635 -0.1578 -2.8508
  332MOL0     H44788  10.536   0.693   4.826  0.7065 -0.5343 -1.0783
  332MOL0     H44789  10.519   0.854   4.916 -1.6684 -2.1326 -1.3712
  332MOL0     H44790  10.726   0.760   4.721  2.4198  0.4634  0.4430
  332MOL0     H44791  10.745   0.889   4.840 -0.1244 -1.6671  1.5259
  332MOL0     H44792  10.656   0.985   4.600  0.4548  0.7819  1.8307
  332MOL0     H44793  10.551   1.016   4.735  2.2125  1.9263  0.8279
  332MOL0     H44794  10.514   0.772   4.554  0.5743 -0.6791  1.0706
  332MOL0     H44795  10.415   0.824   4.680  1.4422 -2.6703  0.0607
  332MOL0     H44796  10.460   0.995   4.427  1.1602  1.4077  1.0459
  332MOL0     H44797  10.360   1.040   4.570  1.8043  1.5485 -0.2398
  332MOL0     H44798  10.230   0.819   4.517  0.4111 -1.8472 -2.3330
  332MOL0     H44799  10.217   0.949   4.401 -1.1600  0.3087  1.9852
  332MOL0     H44800  10.404   0.509   5.194  0.9243 -0.7942 -0.8425
  332MOL0     H44801  10.285   0.406   5.393 -0.0119  1.0210 -0.5375
  332MOL0     H44802   9.980   0.634   5.788  0.6253 -1.2978 -0.5745
  332MOL0     H44803   9.905   0.585   6.008 -0.6975 -0.4748  0.2098
  332MOL0     H44804   8.684   0.072   6.251  0.3545  1.9156  1.0074
  332MOL0     H44805   8.603   0.312   6.246 -1.3661  2.5048 -2.8739
  332MOL0     H44806   8.402   0.647   5.906 -0.7864 -0.3218 -0.2787
  332MOL0     H44807   8.369   0.874   5.884  0.3386  0.1801 -0.3414
  332MOL0     H44808   8.256   1.235   6.095 -3.2029 -0.3870 -4.6327
  332MOL0     H44809   8.281   1.133   6.239  0.8020 -1.5816 -0.4676
  332MOL0     H44810   8.037   1.194   6.174 -1.3924  2.7101 -6.5045
  332MOL0     H44811   8.075   1.022   6.191  2.3339 -0.4958  0.6950
  332MOL0     H44812   8.088   0.992   5.947 -1.0722  0.1759 -1.8750
  332MOL0     H44813   8.091   1.161   5.922 -0.2450 -1.2490 -1.6784
  332MOL0     H44814   7.863   1.024   5.874  1.2180 -1.1050  1.3361
  332MOL0     H44815   7.852   1.006   6.036  0.1383 -0.9895 -0.4136
  332MOL0     H44816   7.760   1.425   5.990  2.4610 -0.5585  4.2274
  332MOL0     H44817   8.354   0.935   6.302 -0.2286  1.0768 -1.1578
  332MOL0     H44818   8.471   0.741   6.430 -2.2359  2.5106  1.2247
  332MOL0     H44819   8.314   0.664   6.436  0.6275 -0.3496  0.0040
  332MOL0     H44820   8.460   0.580   6.372 -2.6806 -1.7278  1.2242
  333MOL0     O44821   1.771   3.649   7.666  0.4024  0.6630  0.4396
  333MOL0     C44822   1.824   3.552   7.602 -0.1912 -0.2925  0.2903
  333MOL0     O44823   1.764   3.425   7.598 -0.0729 -0.0378 -0.1478
  333MOL0     C44824   1.627   3.434   7.618 -0.6101  1.0818 -1.9918
  333MOL0     C44825   1.573   3.310   7.664 -1.4376 -0.6546 -0.5612
  333MOL0     C44826   1.444   3.309   7.712 -0.4710  0.1845  0.3454
  333MOL0     C44827   1.361   3.422   7.706 -1.2572  0.1857  0.4611
  333MOL0     O44828   1.231   3.426   7.759  0.1599 -0.7132 -0.3283
  333MOL0     C44829   1.207   3.347   7.881  0.3357  0.1584 -0.2632
  333MOL0     C44830   1.058   3.354   7.920 -0.7451 -0.1040  0.2287
  333MOL0     C44831   0.975   3.268   7.829  0.5968 -0.0157  0.7657
  333MOL0     C44832   0.832   3.331   7.802 -0.0682  0.2214 -0.3330
  333MOL0     C44833   0.754   3.344   7.942 -0.4341 -0.3439 -0.5863
  333MOL0     C44834   0.753   3.229   8.035 -0.0901  0.0006 -0.7597
  333MOL0     C44835   0.637   3.127   8.006 -0.0633  1.0895 -0.4584
  333MOL0     C44836   0.498   3.185   8.024  0.8089  0.6595 -0.5730
  333MOL0     N44837   0.379   3.108   7.973  0.6344 -0.3252 -0.0505
  333MOL0     C44838   0.310   3.135   7.851  0.0686  0.0681  0.7482
  333MOL0     C44839   0.196   3.065   7.864 -0.2968 -0.0763 -0.0440
  333MOL0     C44840   0.067   3.084   7.778 -0.6122  0.0233  0.5598
  333MOL0     C44841   0.040   2.953   7.698 -0.1131  0.6932  1.0327
  333MOL0     C44842   0.153   2.923   7.598 -1.1105 -0.1241 -0.4662
  333MOL0     C44843   0.168   2.782   7.547  0.2438  0.4458 -0.3717
  333MOL0     O44844   0.296   2.756   7.489 -0.5737  0.2198  0.5415
  333MOL0     C44845   0.412   2.761   7.560  1.3826  0.0055 -0.1945
  333MOL0     C44846   0.415   2.798   7.700  0.8313  0.3694  0.2003
  333MOL0     C44847   0.542   2.790   7.760 -1.4611 -0.3410 -0.0570
  333MOL0     C44848   0.661   2.762   7.692 -0.0627 -0.5415 -0.2142
  333MOL0     C44849   0.797   2.761   7.763  0.8733 -0.0218 -0.2341
  333MOL0     O44850   0.806   2.822   7.889 -0.7524 -0.3361 -0.0613
  333MOL0     C44851   0.923   2.845   7.958 -0.2866  0.7587  0.0456
  333MOL0     C44852   1.056   2.804   7.928 -0.7150  0.6590 -0.8951
  333MOL0     C44853   1.160   2.863   8.001  0.0050  1.0286  0.3497
  333MOL0     C44854   1.145   2.950   8.106  0.5885  0.7380 -0.0279
  333MOL0     O44855   1.245   3.006   8.186  1.0552 -0.2702  0.5904
  333MOL0     C44856   1.378   3.015   8.132  0.2940  0.5142  0.7055
  333MOL0     C44857   1.495   3.061   8.228 -0.2394  0.0395 -0.2731
  333MOL0     C44858   1.520   2.954   8.335 -0.0966  0.9195 -1.2819
  333MOL0     C44859   1.462   2.994   8.469 -0.2566  0.4651 -0.7395
  333MOL0     C44860   1.489   2.878   8.566 -0.2677  0.2486  0.0059
  333MOL0     C44861   1.498   2.928   8.707  0.0387 -0.0089 -0.5321
  333MOL0     C44862   1.648   2.971   8.742 -0.0512  0.0300  0.2806
  333MOL0     C44863   1.639   3.077   8.852 -0.8229 -0.1608  0.1475
  333MOL0    Cl44864   1.624   3.238   8.762  0.0883  0.3726 -0.2085
  333MOL0     C44865   1.011   2.967   8.151  0.4832 -0.8655 -0.2714
  333MOL0     C44866   0.903   2.903   8.081  0.0827  0.8171  0.0117
  333MOL0     O44867   0.892   2.736   7.696  0.6544  1.2602 -1.2786
  333MOL0     C44868   0.649   2.729   7.555  0.0656 -0.5347 -0.0362
  333MOL0     C44869   0.526   2.730   7.496  0.2078 -1.0566  0.4022
  333MOL0     N44870   0.204   2.989   7.976  0.6810 -0.3115  0.2534
  333MOL0     N44871   0.310   3.011   8.032  0.6055 -0.2832 -0.9784
  333MOL0     C44872   1.402   3.529   7.640 -0.9562  0.5727 -0.0632
  333MOL0     C44873   1.533   3.540   7.588 -0.0768 -0.2720  0.0556
  333MOL0     C44874   1.967   3.569   7.554 -0.0538  1.5069  0.1148
  333MOL0     C44875   2.022   3.471   7.473  1.4721  0.3971  0.0173
  333MOL0     C44876   2.150   3.482   7.422 -0.2806  0.5676  0.0300
  333MOL0     C44877   2.241   3.587   7.448 -0.2883 -0.0011 -0.3375
  333MOL0     O44878   2.374   3.607   7.422  1.0476 -1.2773  0.5765
  333MOL0     C44879   2.416   3.520   7.309  0.4617 -0.8685 -1.0091
  333MOL0     C44880   2.555   3.522   7.263  0.3802  0.3555  1.7461
  333MOL0     C44881   2.589   3.637   7.170  0.4848 -0.4327 -0.2782
  333MOL0     C44882   2.736   3.683   7.175  0.4825 -0.0481  0.4193
  333MOL0     C44883   2.829   3.601   7.106 -0.0739  0.8585 -0.1535
  333MOL0     C44884   2.905   3.540   7.028 -0.2363  0.3597 -0.1514
  333MOL0     C44885   2.175   3.689   7.518  0.3988  1.0605  1.2605
  333MOL0     C44886   2.041   3.686   7.565  0.3587  0.6743  0.1974
  333MOL0     C44887   2.013   3.809   7.651  0.0746  0.5180  0.6699
  333MOL0     H44888   1.639   3.224   7.665 -2.3466 -1.4015  1.9686
  333MOL0     H44889   1.403   3.210   7.732 -1.5393 -1.0548 -5.8206
  333MOL0     H44890   1.249   3.247   7.864  1.5138  0.7535 -0.9474
  333MOL0     H44891   1.262   3.395   7.962 -0.3887  0.7938 -0.1355
  333MOL0     H44892   1.033   3.460   7.926  0.0193  0.1208 -0.4645
  333MOL0     H44893   1.059   3.304   8.018 -0.8437 -0.1855  0.1886
  333MOL0     H44894   0.960   3.166   7.862 -2.2517 -0.6052 -1.8756
  333MOL0     H44895   1.033   3.269   7.736  1.2893 -2.9133  1.0929
  333MOL0     H44896   0.844   3.430   7.756  0.2660  0.6091  0.5767
  333MOL0     H44897   0.776   3.265   7.734 -1.9220  0.7038  0.6519
  333MOL0     H44898   0.800   3.427   7.996 -3.4724  3.5814 -3.3800
  333MOL0     H44899   0.650   3.372   7.919 -2.3308 -3.7524  2.6270
  333MOL0     H44900   0.847   3.174   8.043  0.5964  1.3338  1.3289
  333MOL0     H44901   0.745   3.271   8.136  0.1893  2.2674 -1.6127
  333MOL0     H44902   0.658   3.044   8.073  1.7807  1.4460 -0.5569
  333MOL0     H44903   0.645   3.089   7.904 -0.1991  0.1140 -0.1158
  333MOL0     H44904   0.489   3.200   8.132 -1.5880 -2.9645 -0.0840
  333MOL0     H44905   0.485   3.281   7.973 -3.0735 -0.4454 -2.0642
  333MOL0     H44906   0.330   3.216   7.782 -0.8697  0.0925  0.4918
  333MOL0     H44907  -0.016   3.091   7.849 -1.5886 -2.6407 -0.1843
  333MOL0     H44908   0.064   3.176   7.718 -4.0111  0.1672  0.7225
  333MOL0     H44909   0.008   2.872   7.765 -0.9586  0.5270  0.4472
  333MOL0     H44910  -0.050   2.970   7.638 -2.4555  0.2705  4.1635
  333MOL0     H44911   0.246   2.961   7.640 -1.9144  1.6899 -0.2371
  333MOL0     H44912   0.136   2.999   7.521  0.3213  3.5251  2.5293
  333MOL0     H44913   0.088   2.748   7.481 -2.1399 -1.3476  3.1103
  333MOL0     H44914   0.139   2.719   7.632 -0.3565  0.8696 -0.2536
  333MOL0     H44915   0.326   2.820   7.758 -1.0929 -3.0926 -1.1551
  333MOL0     H44916   0.550   2.803   7.868 -2.4947 -0.4719  0.0470
  333MOL0     H44917   1.079   2.745   7.839  0.6253  0.9872 -0.7834
  333MOL0     H44918   1.261   2.840   7.969  0.4278 -1.4537  3.0397
  333MOL0     H44919   1.412   2.915   8.102  0.2132  1.6370 -3.7579
  333MOL0     H44920   1.389   3.082   8.047 -0.7230 -1.5976 -1.2048
  333MOL0     H44921   1.587   3.066   8.169  0.2035  0.4869  0.4403
  333MOL0     H44922   1.485   3.159   8.276 -0.0684 -0.6074  1.1434
  333MOL0     H44923   1.481   2.856   8.304  1.5702 -0.4415  0.6314
  333MOL0     H44924   1.629   2.940   8.339 -0.3084 -0.6944  0.0321
  333MOL0     H44925   1.356   3.013   8.448  0.4800  2.0043 -3.5203
  333MOL0     H44926   1.511   3.076   8.521 -0.0691 -2.3700  4.1920
  333MOL0     H44927   1.581   2.826   8.536  0.8714  1.2901  1.5221
  333MOL0     H44928   1.411   2.806   8.540  1.5972 -1.2995 -1.6844
  333MOL0     H44929   1.429   3.009   8.732  1.0644 -0.2824  4.1165
  333MOL0     H44930   1.463   2.850   8.775 -0.7725 -0.7144 -1.7177
  333MOL0     H44931   1.709   3.011   8.661  3.3302 -2.1206  1.5098
  333MOL0     H44932   1.704   2.881   8.771  2.3436 -0.2500 -4.2794
  333MOL0     H44933   1.557   3.052   8.921  0.2612  0.5404  1.7339
  333MOL0     H44934   1.735   3.075   8.903 -0.9878  0.4180  0.4838
  333MOL0     H44935   0.993   3.020   8.244 -0.0243 -1.1964 -0.1762
  333MOL0     H44936   0.802   2.916   8.119  0.1475 -0.8328  0.8506
  333MOL0     H44937   0.736   2.714   7.492  1.5546 -1.6872  2.1729
  333MOL0     H44938   0.513   2.715   7.389  1.5012  0.6522 -0.0521
  333MOL0     H44939   1.326   3.601   7.611 -1.9735  0.6535  2.5323
  333MOL0     H44940   1.559   3.637   7.548  0.5788 -0.8420 -0.9397
  333MOL0     H44941   1.964   3.380   7.467  0.1185  0.8839  3.3501
  333MOL0     H44942   2.180   3.396   7.363  2.2040 -2.7933  5.3638
  333MOL0     H44943   2.351   3.532   7.223 -1.4332  0.3815  0.5168
  333MOL0     H44944   2.396   3.417   7.339 -0.6894 -0.4609 -0.3450
  333MOL0     H44945   2.576   3.435   7.199 -3.2572  1.8178 -1.8857
  333MOL0     H44946   2.619   3.498   7.348  1.2416 -1.6487  0.6171
  333MOL0     H44947   2.536   3.728   7.203  0.8225  0.0543 -1.0528
  333MOL0     H44948   2.557   3.624   7.066 -0.5280  1.0107 -0.1939
  333MOL0     H44949   2.742   3.786   7.139 -3.6238  1.0164  2.1984
  333MOL0     H44950   2.767   3.684   7.280 -1.4959 -0.2385  1.0435
  333MOL0     H44951   2.983   3.496   6.969  0.9601  1.7858  0.2903
  333MOL0     H44952   2.237   3.771   7.553  0.7985  0.7609  1.2681
  333MOL0     H44953   1.917   3.853   7.621 -0.1473  0.9294  1.9289
  333MOL0     H44954   1.995   3.781   7.755  5.0983  0.8772  1.8596
  333MOL0     H44955   2.091   3.886   7.648  0.0195  0.7145 -4.4692
  334MOL0     O44956   8.804   0.340   0.892 -0.1487  0.3481  0.6237
  334MOL0     C44957   8.750   0.389   0.994 -0.7620  1.3251  1.7135
  334MOL0     O44958   8.637   0.464   0.998  0.6141  0.1158 -0.4206
  334MOL0     C44959   8.544   0.482   0.898  0.3091 -0.7050 -0.2245
  334MOL0     C44960   8.435   0.562   0.925  0.0967 -0.7081  0.5200
  334MOL0     C44961   8.326   0.572   0.841  0.0089  0.6732  0.1367
  334MOL0     C44962   8.321   0.496   0.719 -0.1551 -1.0484 -0.5012
  334MOL0     O44963   8.213   0.497   0.634 -0.8140 -0.8458 -0.2620
  334MOL0     C44964   8.251   0.504   0.500  0.1231 -0.0961 -0.2394
  334MOL0     C44965   8.130   0.546   0.420 -0.0276 -0.1606  0.3387
  334MOL0     C44966   8.149   0.529   0.276 -0.0375 -0.9279 -0.3013
  334MOL0     C44967   8.006   0.562   0.211 -0.8879 -0.4956  0.3599
  334MOL0     C44968   8.013   0.564   0.060 -0.5013  0.7630 -0.9365
  334MOL0     C44969   8.042   0.701   0.001 -0.2075  0.4455 -0.2178
  334MOL0     C44970   8.086   0.692  -0.146  0.3747  0.3701  0.7059
  334MOL0     C44971   8.218   0.616  -0.187  0.1710  0.0179 -0.1107
  334MOL0     N44972   8.332   0.661  -0.095 -0.1693 -0.2375 -0.1308
  334MOL0     C44973   8.373   0.794  -0.068  0.2746 -0.4448 -0.0452
  334MOL0     C44974   8.453   0.780   0.042 -0.2911 -0.0104  0.3224
  334MOL0     C44975   8.527   0.887   0.113  0.7816 -1.0555  0.3167
  334MOL0     C44976   8.495   0.902   0.255 -0.8671  0.7685  0.6677
  334MOL0     C44977   8.351   0.960   0.289  0.4008 -0.4035 -0.4207
  334MOL0     C44978   8.343   0.981   0.444  0.1843  0.3898  0.4118
  334MOL0     O44979   8.398   0.861   0.505 -0.1398  0.3657 -0.5152
  334MOL0     C44980   8.451   0.873   0.635 -0.0422 -0.4691 -0.7389
  334MOL0     C44981   8.561   0.794   0.675  1.6821  0.9861  0.1280
  334MOL0     C44982   8.634   0.798   0.793 -0.7145 -0.2148 -0.5013
  334MOL0     C44983   8.585   0.892   0.889  0.1277 -0.0051 -0.5790
  334MOL0     C44984   8.649   0.924   1.024 -0.2724 -0.0239  0.0934
  334MOL0     O44985   8.582   0.992   1.112 -0.4277  0.1187  0.0731
  334MOL0     C44986   8.642   1.038   1.226 -0.1658  0.0634  0.0009
  334MOL0     C44987   8.666   1.173   1.252  0.7147  0.5857 -0.0717
  334MOL0     C44988   8.700   1.224   1.366  0.0729  0.2651 -1.0336
  334MOL0     C44989   8.734   1.136   1.476  0.9950 -0.3504  0.0344
  334MOL0     O44990   8.800   1.174   1.594 -0.1018 -0.1203  0.3350
  334MOL0     C44991   8.834   1.311   1.612  0.2883  0.2449 -0.0629
  334MOL0     C44992   8.919   1.342   1.731 -0.1591  0.1853 -0.1582
  334MOL0     C44993   8.904   1.273   1.870 -1.1250 -0.5364 -0.1484
  334MOL0     C44994   9.040   1.265   1.940  0.1967 -0.7972  0.0170
  334MOL0     C44995   9.012   1.205   2.082  0.2497 -0.7422 -0.1131
  334MOL0     C44996   9.142   1.164   2.155  1.2192 -0.4259  0.4743
  334MOL0     C44997   9.106   1.121   2.302 -0.2388 -0.5057 -0.3869
  334MOL0     C44998   9.084   1.241   2.396 -0.4436  0.7769 -0.2887
  334MOL0    Cl44999   9.226   1.330   2.399  0.1913 -0.0501 -0.2091
  334MOL0     C45000   8.709   1.005   1.456  0.2611  0.1706  0.4902
  334MOL0     C45001   8.660   0.961   1.337  0.4042 -0.4884 -0.3882
  334MOL0     O45002   8.761   0.875   1.051  0.2282  0.2790  0.4516
  334MOL0     C45003   8.469   0.968   0.857 -0.2823 -0.0548 -0.0249
  334MOL0     C45004   8.405   0.961   0.733 -0.0892  0.8895 -0.5201
  334MOL0     N45005   8.460   0.642   0.078  0.3321 -0.9857  0.4890
  334MOL0     N45006   8.392   0.579  -0.003  0.2196  0.6073 -0.5879
  334MOL0     C45007   8.424   0.411   0.698  0.5695  0.4799 -0.5234
  334MOL0     C45008   8.538   0.408   0.777 -0.0423 -0.2665 -0.7193
  334MOL0     C45009   8.827   0.362   1.115  0.5152  0.3106 -0.5799
  334MOL0     C45010   8.804   0.239   1.172  0.1004 -0.8592  0.1381
  334MOL0     C45011   8.878   0.195   1.271  0.0304  0.3658 -0.3270
  334MOL0     C45012   8.966   0.276   1.333 -0.7168 -0.9073 -0.4561
  334MOL0     O45013   9.028   0.230   1.449  0.1465  0.0466  0.1153
  334MOL0     C45014   9.159   0.269   1.490 -0.0908 -0.6904  0.5121
  334MOL0     C45015   9.197   0.165   1.589  1.8564  0.3410  0.3630
  334MOL0     C45016   9.311   0.196   1.689  0.9028  0.7173 -0.0413
  334MOL0     C45017   9.343   0.090   1.793 -0.2174  0.0074 -0.4463
  334MOL0     C45018   9.483   0.098   1.830 -0.0763 -0.1338  0.7783
  334MOL0     C45019   9.590   0.106   1.886 -0.2351  1.1051 -0.5089
  334MOL0     C45020   9.001   0.402   1.274  0.9801  0.4090 -0.0868
  334MOL0     C45021   8.927   0.447   1.165  0.4355 -0.5796 -0.7967
  334MOL0     C45022   8.978   0.561   1.089 -1.0902 -0.3603  0.3139
  334MOL0     H45023   8.437   0.617   1.019  0.0813  0.9593 -0.4161
  334MOL0     H45024   8.240   0.636   0.862  0.0100  0.7437 -0.0644
  334MOL0     H45025   8.329   0.579   0.484 -0.8646  1.4615  1.7758
  334MOL0     H45026   8.276   0.408   0.454 -0.9991 -0.2915 -0.4650
  334MOL0     H45027   8.093   0.648   0.436 -4.6263 -1.5780  0.3873
  334MOL0     H45028   8.041   0.487   0.444  1.3619 -1.7797  1.7776
  334MOL0     H45029   8.187   0.433   0.240  1.5560 -0.6355  0.5289
  334MOL0     H45030   8.230   0.594   0.243  1.3911 -2.1724  0.6260
  334MOL0     H45031   7.938   0.480   0.234 -3.3595  0.7669 -1.9508
  334MOL0     H45032   7.960   0.659   0.235  1.7524  0.6701  1.1236
  334MOL0     H45033   8.088   0.493   0.024  0.1380  0.4406  0.9227
  334MOL0     H45034   7.918   0.524   0.025  1.1397 -3.8195 -0.8574
  334MOL0     H45035   7.951   0.761   0.011  1.0336  2.1199  2.3295
  334MOL0     H45036   8.117   0.765   0.049  0.9731 -0.3422 -0.9539
  334MOL0     H45037   8.074   0.793  -0.187 -1.4844  1.0308  2.6761
  334MOL0     H45038   8.010   0.624  -0.184 -0.3899 -0.2198  3.0886
  334MOL0     H45039   8.195   0.509  -0.182  3.5920 -0.7805  1.1953
  334MOL0     H45040   8.243   0.635  -0.291  3.8253 -0.0472  0.6211
  334MOL0     H45041   8.354   0.891  -0.112  3.5701  0.7722  0.8627
  334MOL0     H45042   8.635   0.875   0.102  1.2096  2.0874  0.0606
  334MOL0     H45043   8.502   0.983   0.066  1.8024  0.1588  2.1036
  334MOL0     H45044   8.511   0.802   0.297  1.2299  1.5213  1.8353
  334MOL0     H45045   8.563   0.976   0.299 -0.5374 -0.8601  3.1189
  334MOL0     H45046   8.278   0.885   0.258 -0.6641  1.1183 -1.7847
  334MOL0     H45047   8.329   1.051   0.232 -1.9019 -1.7216 -1.7691
  334MOL0     H45048   8.241   0.993   0.483 -1.1151 -2.2911 -1.7725
  334MOL0     H45049   8.389   1.074   0.477 -1.0903  2.0810 -2.2585
  334MOL0     H45050   8.587   0.724   0.596  1.2700 -0.9089  1.6263
  334MOL0     H45051   8.727   0.743   0.802 -1.1514 -1.5152 -2.9571
  334MOL0     H45052   8.646   1.243   1.171  0.8309 -1.9781 -2.4673
  334MOL0     H45053   8.720   1.330   1.384  0.6849  0.1800 -1.1808
  334MOL0     H45054   8.879   1.336   1.516  4.6295 -1.9531  1.1338
  334MOL0     H45055   8.754   1.384   1.608 -2.4479 -2.4192  1.7805
  334MOL0     H45056   9.018   1.309   1.698  0.3093 -1.0118  2.1744
  334MOL0     H45057   8.921   1.451   1.741  1.1597  0.0203  2.1284
  334MOL0     H45058   8.829   1.322   1.933  0.0243  0.8776  0.1613
  334MOL0     H45059   8.861   1.172   1.860  4.1440 -3.3688  1.9539
  334MOL0     H45060   9.078   1.367   1.950  0.8584 -0.9242 -1.0230
  334MOL0     H45061   9.117   1.204   1.892  1.1176  1.5732 -1.7298
  334MOL0     H45062   8.958   1.113   2.057  2.0310 -1.8113 -0.1493
  334MOL0     H45063   8.947   1.262   2.149  2.5790  1.7233  0.2170
  334MOL0     H45064   9.175   1.079   2.094  0.4659 -1.1899  1.1149
  334MOL0     H45065   9.216   1.243   2.136 -1.0198  0.8564 -4.9134
  334MOL0     H45066   9.185   1.055   2.338  1.2230  1.1845 -0.3659
  334MOL0     H45067   9.022   1.051   2.308  1.3691 -2.3945  1.4835
  334MOL0     H45068   8.997   1.297   2.358  2.1749  4.7662 -1.0561
  334MOL0     H45069   9.069   1.215   2.501  1.2918  3.8779  0.8773
  334MOL0     H45070   8.736   0.931   1.531  1.4993  0.2849  0.1890
  334MOL0     H45071   8.638   0.856   1.320 -2.8036  0.2102 -1.1134
  334MOL0     H45072   8.417   1.020   0.936 -0.1664 -0.6151  0.4235
  334MOL0     H45073   8.317   1.021   0.715 -0.8533  0.1519  0.5840
  334MOL0     H45074   8.417   0.348   0.610  0.7340  0.0207 -0.2100
  334MOL0     H45075   8.607   0.331   0.747  2.9806  1.3870  1.4637
  334MOL0     H45076   8.745   0.163   1.122 -0.8137 -0.6363  0.8582
  334MOL0     H45077   8.847   0.103   1.319 -0.2462  0.1589 -0.8928
  334MOL0     H45078   9.157   0.371   1.531 -0.0654 -0.1308 -0.8175
  334MOL0     H45079   9.217   0.263   1.398  2.2009 -1.3085  1.9355
  334MOL0     H45080   9.205   0.067   1.543  1.0472  0.4484 -0.0354
  334MOL0     H45081   9.108   0.152   1.651  0.1096 -2.0144 -2.3848
  334MOL0     H45082   9.283   0.286   1.745  0.8460  1.7303 -1.6329
  334MOL0     H45083   9.399   0.213   1.626 -1.5618  0.0007 -3.9724
  334MOL0     H45084   9.288   0.098   1.888  1.5989  0.4035  0.6226
  334MOL0     H45085   9.318  -0.010   1.757 -0.6501  0.2080 -0.7199
  334MOL0     H45086   9.685   0.114   1.935  0.5599 -0.8342 -1.6006
  334MOL0     H45087   9.068   0.471   1.324  2.6882 -2.0579  1.2831
  334MOL0     H45088   8.907   0.644   1.084 -0.4146  0.1779 -0.5945
  334MOL0     H45089   9.074   0.603   1.119 -0.6343  0.1388 -1.7368
  334MOL0     H45090   8.991   0.529   0.985  1.0369 -1.6404  0.9018
  335MOL0     O45091   9.698   5.132   6.188  0.5900  0.7085  0.4041
  335MOL0     C45092   9.776   5.031   6.217  0.6492  0.0227  0.4044
  335MOL0     O45093   9.739   4.896   6.198  0.2001 -0.6797  0.0764
  335MOL0     C45094   9.603   4.857   6.172  1.1720 -0.2105  0.7329
  335MOL0     C45095   9.490   4.916   6.228 -0.4695  0.5201 -0.3106
  335MOL0     C45096   9.357   4.890   6.167 -0.1971 -0.5645  0.1151
  335MOL0     C45097   9.344   4.790   6.071  0.2004  0.4432 -0.0528
  335MOL0     O45098   9.216   4.754   6.029  0.2034  0.0729 -0.4887
  335MOL0     C45099   9.209   4.712   5.899 -0.3066  0.5559  0.2535
  335MOL0     C45100   9.064   4.706   5.861 -1.0780  0.4817 -0.6156
  335MOL0     C45101   9.049   4.680   5.713  0.5511 -0.1506  0.2567
  335MOL0     C45102   8.896   4.697   5.668 -0.8154 -0.5092  0.3305
  335MOL0     C45103   8.893   4.672   5.524  0.7369  0.1624  0.2959
  335MOL0     C45104   8.865   4.523   5.512 -0.2536  0.2409  0.3995
  335MOL0     C45105   8.856   4.461   5.364 -0.3623 -0.5699 -0.6797
  335MOL0     C45106   8.808   4.309   5.357 -0.6578  0.2990 -0.9299
  335MOL0     N45107   8.781   4.259   5.226 -0.1374  0.8272 -0.5521
  335MOL0     C45108   8.773   4.332   5.112 -0.3784  0.4321  1.1031
  335MOL0     C45109   8.729   4.246   5.022 -0.1740 -0.2595  0.4275
  335MOL0     C45110   8.714   4.281   4.877  0.1705 -0.5548  0.6616
  335MOL0     C45111   8.611   4.393   4.848  0.0283 -0.5610 -0.2226
  335MOL0     C45112   8.647   4.536   4.879 -0.3829 -0.8275  0.2150
  335MOL0     C45113   8.554   4.638   4.815 -0.1608 -1.3902 -1.2569
  335MOL0     O45114   8.546   4.764   4.886  0.5287  0.1267 -1.0720
  335MOL0     C45115   8.656   4.833   4.910 -0.3057 -0.7315  0.9470
  335MOL0     C45116   8.753   4.852   4.802 -0.4728  0.2504 -0.7483
  335MOL0     C45117   8.862   4.942   4.825 -0.2605  0.0541 -0.0598
  335MOL0     C45118   8.878   5.013   4.939  1.0301  0.5317  0.0080
  335MOL0     C45119   9.005   5.105   4.967  0.4356 -0.6913 -0.6233
  335MOL0     O45120   9.023   5.143   5.093 -0.2772 -0.8512 -0.5554
  335MOL0     C45121   9.119   5.238   5.121  1.0271 -0.2799  1.0611
  335MOL0     C45122   9.247   5.194   5.160  1.5055  0.3403  0.8647
  335MOL0     C45123   9.349   5.289   5.182 -1.2319  0.2704 -0.3865
  335MOL0     C45124   9.330   5.429   5.166  0.2034 -0.3927 -0.1828
  335MOL0     O45125   9.428   5.519   5.175 -0.0553 -0.5605  1.0231
  335MOL0     C45126   9.534   5.488   5.082 -0.3986  0.5496 -0.3257
  335MOL0     C45127   9.630   5.606   5.109 -1.6840  0.0937  0.6118
  335MOL0     C45128   9.628   5.715   5.004 -0.7374 -1.1588 -0.0148
  335MOL0     C45129   9.711   5.835   5.050 -0.4973 -0.2024  0.0820
  335MOL0     C45130   9.691   5.957   4.961  0.0083  0.0702  0.3708
  335MOL0     C45131   9.770   5.935   4.824 -0.6468 -0.5947  0.1117
  335MOL0     C45132   9.836   6.071   4.784 -0.6128  0.1694  1.3819
  335MOL0     C45133   9.738   6.175   4.743  0.2179 -1.0988 -0.2262
  335MOL0    Cl45134   9.813   6.342   4.764 -0.2779  0.1218 -0.0046
  335MOL0     C45135   9.198   5.466   5.142 -0.1710 -0.5253 -0.0002
  335MOL0     C45136   9.099   5.373   5.118 -0.0415 -0.4991  1.1675
  335MOL0     O45137   9.082   5.131   4.873  0.1490 -0.5958 -0.0699
  335MOL0     C45138   8.778   5.013   5.031 -0.6108  0.2327 -1.1336
  335MOL0     C45139   8.679   4.911   5.026 -0.0707 -1.0945 -0.0792
  335MOL0     N45140   8.708   4.122   5.080  0.4371  0.4470  0.9901
  335MOL0     N45141   8.740   4.131   5.201  0.6057 -0.0833 -0.6629
  335MOL0     C45142   9.462   4.732   6.019 -0.7430 -0.3383 -0.1148
  335MOL0     C45143   9.589   4.771   6.065 -0.2344  0.2007 -0.3725
  335MOL0     C45144   9.908   5.067   6.257  0.5111  0.9073 -0.0113
  335MOL0     C45145   9.964   5.006   6.370 -1.1357 -1.1007  0.5125
  335MOL0     C45146  10.084   5.039   6.415 -0.5241 -0.5081 -0.4240
  335MOL0     C45147  10.166   5.142   6.352 -0.3492 -0.5550 -1.1466
  335MOL0     O45148  10.294   5.166   6.386  0.3277  0.5356  0.6930
  335MOL0     C45149  10.367   5.056   6.449  0.0016 -0.0182 -1.2210
  335MOL0     C45150  10.349   5.064   6.609 -0.0961  0.2265 -1.4708
  335MOL0     C45151  10.474   5.007   6.697  0.3758  0.7916 -0.3934
  335MOL0     C45152  10.477   5.039   6.850 -0.4291  0.7548 -0.3816
  335MOL0     C45153  10.392   4.934   6.921 -0.9521  0.2681 -0.1115
  335MOL0     C45154  10.338   4.838   6.966  0.5502  0.1633  0.8610
  335MOL0     C45155  10.113   5.203   6.242  0.2804 -0.0541  0.2130
  335MOL0     C45156   9.982   5.179   6.197 -0.8799  0.5605 -0.1989
  335MOL0     C45157   9.939   5.261   6.082 -0.1055 -0.1771  0.8167
  335MOL0     H45158   9.508   4.990   6.305 -2.4179  1.8709 -1.0604
  335MOL0     H45159   9.262   4.918   6.212 -2.1328  1.0153 -4.3177
  335MOL0     H45160   9.253   4.801   5.853  1.2837 -0.6113 -0.5907
  335MOL0     H45161   9.260   4.620   5.869 -2.6271 -1.1177  1.1181
  335MOL0     H45162   9.017   4.805   5.867 -0.3732  1.0351 -2.9196
  335MOL0     H45163   9.014   4.632   5.924  1.6916 -0.8164  0.1895
  335MOL0     H45164   9.079   4.575   5.702 -3.3764 -1.2993 -1.3076
  335MOL0     H45165   9.112   4.752   5.659  0.8339  1.5313  2.6848
  335MOL0     H45166   8.829   4.626   5.717  0.1502 -2.6289 -1.2671
  335MOL0     H45167   8.855   4.795   5.696 -2.7731 -0.8398 -1.1608
  335MOL0     H45168   8.811   4.731   5.480  0.5985 -1.2004 -1.3682
  335MOL0     H45169   8.984   4.695   5.468  0.6403 -0.4180 -0.1022
  335MOL0     H45170   8.936   4.471   5.576 -0.5929  0.7573  1.2027
  335MOL0     H45171   8.764   4.511   5.550 -0.5255 -2.1520 -0.8956
  335MOL0     H45172   8.957   4.472   5.323 -0.3080  0.5092 -0.2906
  335MOL0     H45173   8.806   4.534   5.299 -0.8942  1.4560  1.8719
  335MOL0     H45174   8.890   4.250   5.397  0.0160  1.0664 -1.1563
  335MOL0     H45175   8.713   4.304   5.411 -2.1934  1.4356 -3.3178
  335MOL0     H45176   8.799   4.436   5.092 -0.1414 -0.0123 -1.1335
  335MOL0     H45177   8.814   4.306   4.841  0.1518 -0.1542  0.8855
  335MOL0     H45178   8.683   4.187   4.830  0.2417 -0.0982 -0.3222
  335MOL0     H45179   8.581   4.396   4.743 -1.5200  1.7438  0.2125
  335MOL0     H45180   8.524   4.390   4.914  1.4326  2.1177  1.9873
  335MOL0     H45181   8.746   4.559   4.837  0.4640  0.7153  2.8067
  335MOL0     H45182   8.646   4.548   4.987  2.4189 -3.0187  0.5993
  335MOL0     H45183   8.457   4.588   4.824 -0.7011 -0.0997  1.1723
  335MOL0     H45184   8.590   4.648   4.713  1.9636 -1.7770 -0.6016
  335MOL0     H45185   8.760   4.795   4.710  1.5817  0.4309 -0.7401
  335MOL0     H45186   8.938   4.949   4.747  2.5335 -1.3160  2.3171
  335MOL0     H45187   9.271   5.089   5.155  2.7269  0.6137 -3.1099
  335MOL0     H45188   9.443   5.248   5.218 -2.1859 -0.9466  0.8305
  335MOL0     H45189   9.579   5.389   5.097 -0.2589  0.4914 -1.1073
  335MOL0     H45190   9.505   5.500   4.978  1.3262 -1.4867 -1.1127
  335MOL0     H45191   9.613   5.652   5.207 -1.1446 -0.8177  1.1423
  335MOL0     H45192   9.722   5.553   5.132 -2.8598 -2.7196 -0.6645
  335MOL0     H45193   9.663   5.682   4.905  2.5408  2.8394 -0.4646
  335MOL0     H45194   9.524   5.746   4.988 -0.5679 -0.6875 -0.2245
  335MOL0     H45195   9.814   5.799   5.059 -0.9384 -1.0371  2.8618
  335MOL0     H45196   9.687   5.875   5.149 -1.5896 -1.1334  0.2065
  335MOL0     H45197   9.726   6.048   5.011  3.7837 -3.5547  5.4255
  335MOL0     H45198   9.585   5.968   4.938  0.4595  1.6830 -1.1229
  335MOL0     H45199   9.856   5.868   4.826  2.8258  3.3878  2.0842
  335MOL0     H45200   9.705   5.906   4.742  0.8510  1.2545 -1.8591
  335MOL0     H45201   9.908   6.064   4.702 -2.7533  1.1052 -0.6702
  335MOL0     H45202   9.891   6.111   4.870 -0.5456  0.3225  1.2669
  335MOL0     H45203   9.706   6.165   4.639  0.8021 -3.4714 -0.2231
  335MOL0     H45204   9.650   6.184   4.807  0.5121  0.0274  0.0473
  335MOL0     H45205   9.165   5.569   5.129  2.4991  0.1790 -1.8826
  335MOL0     H45206   9.003   5.417   5.094  0.0297 -1.6238 -1.5613
  335MOL0     H45207   8.792   5.068   5.123 -3.3623  1.1957 -1.2070
  335MOL0     H45208   8.611   4.904   5.110  1.7056 -5.3941  1.2439
  335MOL0     H45209   9.464   4.658   5.939  1.0718 -0.7616  0.2739
  335MOL0     H45210   9.680   4.745   6.011  0.3563  2.8862 -0.8068
  335MOL0     H45211   9.913   4.925   6.422 -2.2993  0.5302  2.0568
  335MOL0     H45212  10.126   4.976   6.493 -1.8774 -0.4477  0.3881
  335MOL0     H45213  10.472   5.076   6.429  1.1299 -4.3453 -0.5470
  335MOL0     H45214  10.347   4.957   6.408  4.9666 -2.2041  0.8688
  335MOL0     H45215  10.257   5.010   6.632  0.5129 -0.3977 -0.4303
  335MOL0     H45216  10.334   5.166   6.645 -0.0222 -0.2419 -0.0409
  335MOL0     H45217  10.558   5.054   6.645 -1.5823  5.3646  0.0449
  335MOL0     H45218  10.466   4.901   6.675 -0.1031  0.7922 -0.2206
  335MOL0     H45219  10.579   5.029   6.885 -0.3459  2.8062  0.1244
  335MOL0     H45220  10.436   5.139   6.871 -3.2535 -0.5744  0.9653
  335MOL0     H45221  10.294   4.755   7.018  0.1577 -0.0941  0.1176
  335MOL0     H45222  10.177   5.273   6.189  2.3397  0.5104  3.2545
  335MOL0     H45223   9.862   5.211   6.023 -0.4720  2.2273 -0.9218
  335MOL0     H45224   9.879   5.342   6.125 -0.2879  0.0876  0.0762
  335MOL0     H45225  10.015   5.295   6.011 -1.1493  0.3107 -0.1024
  336MOL0     O45226   2.366   6.761  11.335 -0.3581 -1.0236  0.0942
  336MOL0     C45227   2.243   6.760  11.341  0.6066  0.3388 -0.6369
  336MOL0     O45228   2.158   6.719  11.239 -0.6751 -0.2273  0.2317
  336MOL0     C45229   2.203   6.677  11.111  0.0255  1.1941 -0.7803
  336MOL0     C45230   2.257   6.760  11.016 -0.3676 -0.3586 -0.1645
  336MOL0     C45231   2.295   6.713  10.893 -0.4803 -1.0114  0.2977
  336MOL0     C45232   2.283   6.578  10.869  0.6357 -0.2059  0.1468
  336MOL0     O45233   2.312   6.546  10.745  0.5347  0.6880  0.7533
  336MOL0     C45234   2.408   6.438  10.748 -0.2787  0.1301 -0.6120
  336MOL0     C45235   2.482   6.415  10.614 -0.4960  0.7342  0.2575
  336MOL0     C45236   2.440   6.301  10.533  0.5786 -0.1480  0.4537
  336MOL0     C45237   2.557   6.253  10.446  0.5840 -0.3584  0.0567
  336MOL0     C45238   2.639   6.134  10.488 -0.6016 -0.4127  0.2610
  336MOL0     C45239   2.773   6.117  10.408  0.1283 -0.1159 -0.9361
  336MOL0     C45240   2.865   6.240  10.406 -0.2716  0.0920 -0.2918
  336MOL0     C45241   2.957   6.262  10.531  0.6142 -0.4573  0.5581
  336MOL0     N45242   3.034   6.385  10.533  0.0614  0.2413 -0.3489
  336MOL0     C45243   3.088   6.462  10.430  0.6796  0.4893  0.6858
  336MOL0     C45244   3.097   6.590  10.481  0.6941  0.5560  0.3708
  336MOL0     C45245   3.146   6.701  10.396 -0.0598  0.0797 -0.4298
  336MOL0     C45246   3.128   6.830  10.475 -0.5164  0.1111  0.0839
  336MOL0     C45247   3.170   6.952  10.372 -0.7763  0.1120 -0.0572
  336MOL0     C45248   3.156   7.088  10.419 -0.6387 -0.3014 -0.8807
  336MOL0     O45249   3.020   7.115  10.420  0.4218 -0.0282  0.8908
  336MOL0     C45250   2.989   7.248  10.404  0.3100 -0.0016  0.5308
  336MOL0     C45251   3.034   7.322  10.288 -0.9845 -0.3940 -0.4496
  336MOL0     C45252   3.009   7.461  10.272  0.4307  1.5435 -0.0279
  336MOL0     C45253   2.930   7.528  10.379 -0.4949 -0.1212 -0.8893
  336MOL0     C45254   2.906   7.673  10.378  0.6975  0.0016 -0.1602
  336MOL0     O45255   2.970   7.738  10.272 -0.3866  0.3338  0.3760
  336MOL0     C45256   2.971   7.872  10.272  0.1035  0.4822 -0.2047
  336MOL0     C45257   3.048   7.933  10.371  0.5128  0.1505  0.5667
  336MOL0     C45258   3.041   8.073  10.393  0.2823  0.5249  0.4538
  336MOL0     C45259   2.954   8.151  10.316  0.2189 -0.6925  0.3159
  336MOL0     O45260   2.933   8.287  10.347  0.3255  0.9617 -0.1443
  336MOL0     C45261   3.033   8.370  10.288  0.1120  0.1413 -0.5093
  336MOL0     C45262   3.029   8.509  10.337  1.0069  0.2141 -0.2409
  336MOL0     C45263   3.042   8.510  10.490  0.3882  0.2771 -0.5649
  336MOL0     C45264   3.071   8.659  10.533  0.4332 -0.4241 -0.0456
  336MOL0     C45265   3.086   8.669  10.688 -0.0613  0.8478 -0.5662
  336MOL0     C45266   3.103   8.808  10.730  0.3600 -0.2035  0.5403
  336MOL0     C45267   3.067   8.813  10.880 -0.0350 -0.3921 -0.4012
  336MOL0     C45268   2.923   8.827  10.907  0.4934 -0.4226 -0.4177
  336MOL0    Cl45269   2.863   8.975  10.823  0.5016  0.4594  0.7858
  336MOL0     C45270   2.883   8.091  10.210  0.9290  0.2989  0.2709
  336MOL0     C45271   2.892   7.954  10.192  0.3641 -0.8757  0.2278
  336MOL0     O45272   2.831   7.724  10.455  0.1580 -0.5842 -0.4101
  336MOL0     C45273   2.893   7.453  10.490  0.7153 -0.8973  0.3067
  336MOL0     C45274   2.917   7.324  10.500  0.9514 -0.6615  0.7044
  336MOL0     N45275   3.065   6.584  10.617 -0.2488 -0.8512 -0.6186
  336MOL0     N45276   3.021   6.462  10.644  0.6766  0.5744 -0.0518
  336MOL0     C45277   2.245   6.485  10.972 -1.0152  0.1985 -0.4621
  336MOL0     C45278   2.201   6.537  11.095 -0.4306 -0.9113  0.6005
  336MOL0     C45279   2.191   6.778  11.474  0.4903 -0.4200 -0.1829
  336MOL0     C45280   2.278   6.802  11.590  0.0832 -0.1981 -0.0898
  336MOL0     C45281   2.229   6.819  11.722 -0.3206  0.7803 -0.6703
  336MOL0     C45282   2.090   6.817  11.746  0.8278 -0.5041 -0.0774
  336MOL0     O45283   2.048   6.850  11.875  0.0694 -0.2441  0.2094
  336MOL0     C45284   1.915   6.811  11.912 -0.9014 -0.8689 -0.4036
  336MOL0     C45285   1.904   6.806  12.065 -0.1828 -0.1330 -0.1747
  336MOL0     C45286   1.874   6.933  12.144 -0.0608  0.3477  0.1650
  336MOL0     C45287   1.906   6.918  12.296  1.2427 -0.4990 -0.0992
  336MOL0     C45288   1.940   7.042  12.357 -0.1728 -0.8630  0.4952
  336MOL0     C45289   1.943   7.139  12.420 -1.0097 -0.6938  0.0934
  336MOL0     C45290   2.007   6.800  11.635 -0.7405  0.5415  0.6400
  336MOL0     C45291   2.048   6.777  11.503 -0.8148 -0.2137  0.1681
  336MOL0     C45292   1.943   6.789  11.391  0.2952  0.6627 -0.6324
  336MOL0     H45293   2.271   6.865  11.041 -0.6259 -0.7165  1.5862
  336MOL0     H45294   2.340   6.779  10.820  2.1579 -1.6648  1.2523
  336MOL0     H45295   2.484   6.462  10.823 -0.0173 -2.3171  0.0109
  336MOL0     H45296   2.380   6.341  10.791  1.9008 -0.5989 -0.6995
  336MOL0     H45297   2.586   6.419  10.648  0.7310  2.8376 -3.2468
  336MOL0     H45298   2.488   6.506  10.554  1.4901 -0.8396 -2.0934
  336MOL0     H45299   2.355   6.332  10.471  2.6888 -0.1255 -2.6119
  336MOL0     H45300   2.393   6.222  10.592  2.2453 -2.7884 -1.5128
  336MOL0     H45301   2.513   6.246  10.346 -2.3288  1.3290  1.1069
  336MOL0     H45302   2.625   6.339  10.452 -0.8752  0.7671  2.3132
  336MOL0     H45303   2.673   6.143  10.592 -0.1576  1.4908 -0.0086
  336MOL0     H45304   2.595   6.038  10.460  0.6027 -0.5838 -1.1217
  336MOL0     H45305   2.833   6.031  10.440  0.4111  0.7073  0.8446
  336MOL0     H45306   2.748   6.086  10.306  3.5153 -1.4209 -1.4885
  336MOL0     H45307   2.803   6.329  10.390 -0.5400  0.8048  3.6804
  336MOL0     H45308   2.934   6.212  10.326  0.8867 -0.5885  0.9155
  336MOL0     H45309   2.898   6.249  10.622 -0.6357 -0.2559 -0.1982
  336MOL0     H45310   3.026   6.178  10.544  1.6676  0.4899  1.3842
  336MOL0     H45311   3.114   6.424  10.331  0.2965  2.1606 -0.0863
  336MOL0     H45312   3.251   6.682  10.371  0.9877  1.9816  2.1416
  336MOL0     H45313   3.078   6.706  10.310 -1.9797 -0.9412  0.9547
  336MOL0     H45314   3.028   6.831  10.520  0.0694  1.6458  1.4364
  336MOL0     H45315   3.196   6.832  10.561  1.2489 -0.8476 -1.2249
  336MOL0     H45316   3.126   6.946  10.272 -2.0683  2.0189  0.3429
  336MOL0     H45317   3.276   6.928  10.365 -1.3051 -2.9441  0.7680
  336MOL0     H45318   3.207   7.155  10.349 -0.1983  1.0959  0.7182
  336MOL0     H45319   3.203   7.100  10.517 -2.2486  0.7950 -0.2089
  336MOL0     H45320   3.106   7.280  10.219 -0.5320 -3.8266  1.8863
  336MOL0     H45321   3.042   7.506  10.179 -0.3262  1.0282 -0.5563
  336MOL0     H45322   3.112   7.874  10.435 -0.2812  0.8788  2.0633
  336MOL0     H45323   3.101   8.110  10.476  0.3717  0.2289  0.5241
  336MOL0     H45324   3.130   8.330  10.318  0.2642  1.5521  1.0315
  336MOL0     H45325   3.013   8.366  10.180 -3.7303 -0.7645  0.0925
  336MOL0     H45326   3.113   8.567  10.297  2.1418 -1.4949 -0.4670
  336MOL0     H45327   2.932   8.555  10.318 -0.3356 -2.0825  0.7209
  336MOL0     H45328   2.949   8.470  10.532 -0.5498  2.6961 -0.1784
  336MOL0     H45329   3.138   8.468  10.520  1.1510  2.4655  0.1770
  336MOL0     H45330   2.989   8.717  10.490 -0.5953 -1.2333  0.7874
  336MOL0     H45331   3.159   8.695  10.479  0.2791  1.2044  0.7207
  336MOL0     H45332   3.169   8.610  10.727 -0.6586  0.9181  0.8723
  336MOL0     H45333   2.998   8.626  10.736 -0.8606  1.2281 -1.6370
  336MOL0     H45334   3.205   8.840  10.707  0.2080 -0.6905 -0.9527
  336MOL0     H45335   3.025   8.865  10.678  1.4146  5.1488  4.0025
  336MOL0     H45336   3.117   8.897  10.929 -1.1817 -1.0396  2.0197
  336MOL0     H45337   3.105   8.724  10.931  1.4475 -0.0860 -0.9036
  336MOL0     H45338   2.875   8.735  10.873  0.8081 -0.3294 -1.1249
  336MOL0     H45339   2.909   8.837  11.015  0.4421  0.8670 -0.5293
  336MOL0     H45340   2.809   8.154  10.162 -0.8105 -0.7026  1.5087
  336MOL0     H45341   2.846   7.902  10.108 -2.2459  0.8563  0.4726
  336MOL0     H45342   2.830   7.503  10.562  0.8642  1.5799 -1.1777
  336MOL0     H45343   2.886   7.283  10.596  0.5123  0.2116  0.9441
  336MOL0     H45344   2.248   6.378  10.953 -2.7317 -0.2418  1.4182
  336MOL0     H45345   2.153   6.465  11.161 -1.3704  0.3867  1.3866
  336MOL0     H45346   2.383   6.819  11.574  0.1966 -1.1881 -0.4369
  336MOL0     H45347   2.287   6.836  11.812 -2.8162 -0.7290  1.3701
  336MOL0     H45348   1.894   6.711  11.872 -2.5086 -0.8993  0.4061
  336MOL0     H45349   1.843   6.877  11.863 -1.5822 -0.4928  1.0231
  336MOL0     H45350   1.992   6.753  12.103 -2.3793 -2.7420  1.7105
  336MOL0     H45351   1.824   6.734  12.088 -0.0261  0.2855  1.9069
  336MOL0     H45352   1.766   6.949  12.147  0.2743  3.3802 -0.3003
  336MOL0     H45353   1.936   7.016  12.108 -2.5991  1.9731 -0.6966
  336MOL0     H45354   1.832   6.851  12.342  2.4088 -0.7952  1.4270
  336MOL0     H45355   1.994   6.853  12.299  1.5994 -0.0194 -0.1265
  336MOL0     H45356   1.942   7.234  12.470  2.6421 -0.7797  0.6125
  336MOL0     H45357   1.900   6.817  11.648 -1.3717  1.7048 -4.2647
  336MOL0     H45358   1.978   6.850  11.306  0.6271  0.7786 -0.4150
  336MOL0     H45359   1.917   6.691  11.350  2.5151 -0.9834  1.6006
  336MOL0     H45360   1.848   6.832  11.425 -0.9437 -1.5181 -1.1402
  337MOL0     O45361  10.028   4.426   0.570  0.2869  0.0305  0.0665
  337MOL0     C45362   9.923   4.417   0.496  0.0217  0.3240  0.4368
  337MOL0     O45363   9.854   4.525   0.466  0.5836  0.3523  0.3032
  337MOL0     C45364   9.923   4.644   0.459  1.0116  0.2773 -0.6001
  337MOL0     C45365  10.001   4.681   0.356 -0.4303 -0.4788  0.7723
  337MOL0     C45366  10.057   4.811   0.355  0.5065  0.2776 -1.0230
  337MOL0     C45367  10.019   4.900   0.459 -0.2854 -0.1488  0.1040
  337MOL0     O45368  10.054   5.033   0.452  0.1460 -0.3997  0.6489
  337MOL0     C45369  10.150   5.086   0.370  0.1196  0.3804 -0.6170
  337MOL0     C45370  10.158   5.236   0.386  0.3111 -1.5813 -0.4296
  337MOL0     C45371  10.017   5.317   0.382 -0.3440  0.6476  0.1263
  337MOL0     C45372  10.033   5.471   0.355  0.2611 -0.4991  0.1462
  337MOL0     C45373   9.993   5.546   0.483  0.4798 -0.2982 -0.2530
  337MOL0     C45374  10.018   5.693   0.498  0.3317  0.4589  0.9639
  337MOL0     C45375  10.027   5.759   0.640  0.5688  0.3512  0.4928
  337MOL0     C45376  10.015   5.904   0.651  0.7606 -0.1179 -0.2174
  337MOL0     N45377  10.042   5.966   0.783  0.1963  0.4831 -0.3164
  337MOL0     C45378   9.957   5.962   0.890 -0.2774  0.8468 -0.1776
  337MOL0     C45379  10.035   6.010   0.996  0.3697  0.8780  0.5313
  337MOL0     C45380   9.983   6.009   1.134  0.4683 -0.7297  0.1124
  337MOL0     C45381   9.833   6.018   1.173  0.4941 -0.3653 -1.0592
  337MOL0     C45382   9.757   5.890   1.159  1.2930 -0.1199 -0.1248
  337MOL0     C45383   9.704   5.828   1.291  0.3567  0.5160  0.0293
  337MOL0     O45384   9.596   5.724   1.289  0.0646  0.3515  0.9025
  337MOL0     C45385   9.635   5.598   1.260 -0.0570 -1.4355  1.1533
  337MOL0     C45386   9.530   5.507   1.268 -0.2802  0.5917  1.2354
  337MOL0     C45387   9.551   5.368   1.234 -0.1322 -0.0826 -0.3868
  337MOL0     C45388   9.678   5.319   1.203 -0.1559  0.3310 -0.0978
  337MOL0     C45389   9.701   5.171   1.167  0.5193 -0.6385 -0.4830
  337MOL0     O45390   9.823   5.138   1.145 -0.9419  0.7041 -0.3643
  337MOL0     C45391   9.856   5.014   1.087 -0.1648 -0.2613 -0.5366
  337MOL0     C45392   9.981   4.959   1.101  0.0696 -0.1323 -0.4074
  337MOL0     C45393  10.021   4.844   1.038  0.1598  0.1088 -0.0937
  337MOL0     C45394   9.949   4.783   0.944 -0.2125  0.5031  0.6344
  337MOL0     O45395   9.993   4.664   0.884 -0.2068  0.5018  1.2884
  337MOL0     C45396   9.996   4.549   0.969 -1.0399  0.4373 -0.0143
  337MOL0     C45397  10.140   4.507   0.993 -0.1596 -0.1511  1.0945
  337MOL0     C45398  10.210   4.439   0.871 -0.7369  0.5990  0.0518
  337MOL0     C45399  10.200   4.285   0.872  0.6965 -0.1521 -0.5120
  337MOL0     C45400  10.258   4.231   0.744 -0.4647  0.6538 -0.0509
  337MOL0     C45401  10.242   4.077   0.739  0.7841 -0.4170 -0.1858
  337MOL0     C45402  10.282   4.030   0.595  0.3909 -1.0744 -0.6647
  337MOL0     C45403  10.230   3.892   0.567 -0.5878  0.4213  0.0309
  337MOL0    Cl45404  10.277   3.835   0.396  0.3540  0.2627  0.1377
  337MOL0     C45405   9.830   4.843   0.903  0.7099 -0.5790  0.1235
  337MOL0     C45406   9.784   4.965   0.978 -0.4151  0.7760 -0.1032
  337MOL0     O45407   9.605   5.099   1.186  0.6341 -0.6220 -0.2285
  337MOL0     C45408   9.780   5.412   1.196 -0.6462  0.8314  1.0865
  337MOL0     C45409   9.765   5.545   1.220 -0.2620  0.5874 -0.2363
  337MOL0     N45410  10.169   6.032   0.958  1.0191  0.3984  0.5368
  337MOL0     N45411  10.162   6.010   0.832  0.1846 -0.4038  0.8681
  337MOL0     C45412   9.948   4.848   0.567  0.2402 -0.5701 -0.6866
  337MOL0     C45413   9.895   4.723   0.566 -0.0184  0.3727  0.3972
  337MOL0     C45414   9.887   4.278   0.437  0.7436  0.4228 -0.8646
  337MOL0     C45415   9.980   4.175   0.412  0.0373 -0.7680 -0.0050
  337MOL0     C45416   9.941   4.053   0.366  0.1355  0.4806  0.3817
  337MOL0     C45417   9.808   4.026   0.337  1.1244  0.3082  0.0047
  337MOL0     O45418   9.758   3.911   0.285 -0.0721 -0.3335 -0.8324
  337MOL0     C45419   9.831   3.824   0.209 -1.2134  0.3005 -0.7056
  337MOL0     C45420   9.847   3.864   0.059  0.0145  0.0888 -0.7749
  337MOL0     C45421   9.940   3.987   0.021 -0.1599 -0.2993  0.6101
  337MOL0     C45422   9.978   4.014  -0.130 -0.6643 -0.0613 -0.2003
  337MOL0     C45423  10.051   3.899  -0.189  0.5359  0.0631 -0.0500
  337MOL0     C45424  10.105   3.808  -0.237 -0.0608  0.7163  0.3803
  337MOL0     C45425   9.709   4.115   0.376  1.0683 -0.0107  0.6101
  337MOL0     C45426   9.744   4.241   0.428 -0.1708 -0.3824  1.0369
  337MOL0     C45427   9.631   4.315   0.489 -0.8349  0.3005  0.2659
  337MOL0     H45428  10.024   4.615   0.273  1.8444 -0.7562  1.5679
  337MOL0     H45429  10.117   4.839   0.269  0.9960  0.2765 -0.6796
  337MOL0     H45430  10.251   5.052   0.395  0.0284  0.2578 -0.4180
  337MOL0     H45431  10.126   5.067   0.265 -0.5102  3.9473 -1.2753
  337MOL0     H45432  10.217   5.292   0.314  0.4011  2.8096  2.6573
  337MOL0     H45433  10.207   5.271   0.478  3.4096  1.8728 -3.0904
  337MOL0     H45434   9.946   5.306   0.464 -1.5277 -0.4530 -1.0064
  337MOL0     H45435   9.963   5.266   0.302  4.0696 -1.5590 -1.7945
  337MOL0     H45436  10.133   5.501   0.324  0.5840 -3.0117 -1.5730
  337MOL0     H45437   9.970   5.519   0.281  3.4550  2.6212 -0.8278
  337MOL0     H45438   9.891   5.517   0.507  1.0088 -2.3782 -0.3625
  337MOL0     H45439  10.056   5.501   0.560 -3.8492 -4.7881  1.1867
  337MOL0     H45440  10.103   5.716   0.433  0.1818 -1.6298 -0.0575
  337MOL0     H45441   9.932   5.742   0.452  0.3935 -0.0032  0.3474
  337MOL0     H45442  10.127   5.728   0.672  0.3978 -1.4380 -0.5674
  337MOL0     H45443   9.961   5.710   0.712  2.4303 -5.2555 -1.0837
  337MOL0     H45444  10.078   5.957   0.579 -0.5229  2.5559  0.4956
  337MOL0     H45445   9.913   5.936   0.628  0.8139 -0.1295 -0.4731
  337MOL0     H45446   9.855   5.924   0.889 -0.0028  0.1077 -0.8460
  337MOL0     H45447  10.041   5.928   1.179  1.8571  0.0301 -0.2490
  337MOL0     H45448  10.020   6.101   1.179 -3.4025  0.6062  0.9708
  337MOL0     H45449   9.822   6.058   1.275 -1.2359 -0.3963 -1.2099
  337MOL0     H45450   9.787   6.095   1.110  3.6628  3.7215  1.1312
  337MOL0     H45451   9.819   5.825   1.096  4.0352  1.0469  1.1687
  337MOL0     H45452   9.661   5.910   1.111 -0.8396 -3.0102  2.5451
  337MOL0     H45453   9.656   5.899   1.359 -0.9922 -1.5371  1.3513
  337MOL0     H45454   9.795   5.795   1.342  0.3504 -0.6928 -0.6965
  337MOL0     H45455   9.438   5.544   1.311 -2.5786 -2.4167 -0.6783
  337MOL0     H45456   9.474   5.298   1.263 -0.4593  0.4415  0.0087
  337MOL0     H45457  10.042   5.008   1.176 -0.3333  1.0595 -0.8365
  337MOL0     H45458  10.114   4.802   1.074  1.6022  1.9281 -1.4910
  337MOL0     H45459   9.943   4.573   1.062  0.4429 -2.4504  1.7191
  337MOL0     H45460   9.939   4.465   0.928 -1.1521  0.5117 -0.0121
  337MOL0     H45461  10.191   4.600   1.022  1.7609 -1.7587  3.3039
  337MOL0     H45462  10.149   4.440   1.079 -1.8774 -1.4598  0.3195
  337MOL0     H45463  10.182   4.476   0.772  1.3624  0.3978 -0.6814
  337MOL0     H45464  10.313   4.471   0.890 -1.0168  0.6595  1.5593
  337MOL0     H45465  10.097   4.249   0.881  1.5671 -2.4870  0.6469
  337MOL0     H45466  10.256   4.245   0.956 -0.4009  0.9444  0.8078
  337MOL0     H45467  10.364   4.258   0.734 -0.4538  0.2923 -0.9417
  337MOL0     H45468  10.208   4.265   0.653 -1.1260  3.7211  1.3265
  337MOL0     H45469  10.310   4.043   0.818  1.0495  1.3932  0.4054
  337MOL0     H45470  10.144   4.041   0.771  1.1220  1.5804  3.7260
  337MOL0     H45471  10.392   4.031   0.590  0.6414  3.6047  0.7721
  337MOL0     H45472  10.242   4.093   0.515  1.6246 -1.9939 -2.0740
  337MOL0     H45473  10.282   3.817   0.628  2.4278  0.9443 -1.6608
  337MOL0     H45474  10.122   3.885   0.577 -0.5021  0.2808  0.9750
  337MOL0     H45475   9.769   4.791   0.829 -0.2600 -4.2369  3.1882
  337MOL0     H45476   9.687   5.009   0.957 -0.5842  0.2034 -0.5337
  337MOL0     H45477   9.878   5.396   1.151 -1.0643 -1.0603  0.7304
  337MOL0     H45478   9.851   5.611   1.210  1.7959 -1.8954 -0.2742
  337MOL0     H45479   9.936   4.907   0.657  1.3904  0.1094 -0.9539
  337MOL0     H45480   9.824   4.688   0.640  1.0688 -1.4683  0.6273
  337MOL0     H45481  10.087   4.188   0.424 -0.2279 -0.4475  2.8770
  337MOL0     H45482  10.023   3.984   0.349  2.2381  2.6832  1.0667
  337MOL0     H45483   9.768   3.734   0.210 -0.4183 -0.2569 -0.4797
  337MOL0     H45484   9.922   3.796   0.262 -2.8296 -1.1257  1.4993
  337MOL0     H45485   9.746   3.891   0.030  0.2469  3.2172  0.8553
  337MOL0     H45486   9.886   3.775   0.008 -1.1343 -1.5685  1.0798
  337MOL0     H45487  10.035   3.981   0.074 -0.1115 -1.2258  0.4435
  337MOL0     H45488   9.891   4.081   0.050 -2.4773 -1.2212 -0.0485
  337MOL0     H45489   9.882   4.021  -0.182 -1.2860 -0.0002  0.9261
  337MOL0     H45490  10.045   4.098  -0.147 -2.4359  1.7101  1.1288
  337MOL0     H45491  10.137   3.720  -0.290  0.6045  0.0799  1.7694
  337MOL0     H45492   9.602   4.100   0.364  0.9013  1.5187 -0.0681
  337MOL0     H45493   9.573   4.249   0.554 -1.5656  2.0449  1.4764
  337MOL0     H45494   9.665   4.395   0.555 -2.0155  1.9899 -1.0781
  337MOL0     H45495   9.570   4.354   0.406 -0.2627 -0.7027 -0.6553
  338MOL0     O45496   6.218   1.528   1.022  0.3911 -0.1048  0.1995
  338MOL0     C45497   6.275   1.641   1.010  0.1024 -0.6024  0.6652
  338MOL0     O45498   6.409   1.649   1.018 -0.8754 -1.1806  0.0978
  338MOL0     C45499   6.465   1.630   1.139  0.0148 -1.1463 -0.3561
  338MOL0     C45500   6.576   1.542   1.148  0.0055 -0.3508 -0.0225
  338MOL0     C45501   6.653   1.533   1.263  0.1745 -0.2702  0.7379
  338MOL0     C45502   6.619   1.607   1.375 -0.5031  1.1905 -0.5777
  338MOL0     O45503   6.706   1.607   1.486 -0.4594 -0.5200  0.3291
  338MOL0     C45504   6.675   1.540   1.605 -0.6076 -0.4417  0.0372
  338MOL0     C45505   6.693   1.386   1.605  0.1916 -0.4890 -0.5967
  338MOL0     C45506   6.813   1.334   1.514 -0.0203 -0.2280 -0.3727
  338MOL0     C45507   6.933   1.434   1.513 -0.3531  0.4704 -0.4099
  338MOL0     C45508   7.059   1.355   1.501  0.0840  0.0427 -0.4057
  338MOL0     C45509   7.179   1.445   1.495  0.6775  0.1118  0.2069
  338MOL0     C45510   7.205   1.496   1.361 -0.1257 -0.4091  0.1245
  338MOL0     C45511   7.239   1.393   1.249  1.1106 -0.4284 -0.5822
  338MOL0     N45512   7.321   1.456   1.137  0.0859 -0.3664 -0.1467
  338MOL0     C45513   7.268   1.540   1.038 -0.2403  0.0565  0.0940
  338MOL0     C45514   7.369   1.545   0.954  0.5231 -0.2350  0.8633
  338MOL0     C45515   7.374   1.609   0.824  0.4381  0.3786  0.1276
  338MOL0     C45516   7.263   1.716   0.813  0.2277  0.8351  0.1152
  338MOL0     C45517   7.289   1.825   0.693 -0.1824  0.6860  0.3318
  338MOL0     C45518   7.231   1.967   0.703  0.7303  0.3567  0.3380
  338MOL0     O45519   7.090   1.963   0.754 -0.4504 -0.0551 -0.6777
  338MOL0     C45520   7.053   2.078   0.825  0.9036  0.6018 -0.9858
  338MOL0     C45521   7.118   2.200   0.827 -0.7602  0.8678 -0.4224
  338MOL0     C45522   7.081   2.303   0.916 -0.6728  0.3654 -0.2597
  338MOL0     C45523   6.977   2.289   1.012 -0.0013 -0.5854 -0.2583
  338MOL0     C45524   6.927   2.403   1.098 -0.9928 -0.2900 -0.0375
  338MOL0     O45525   6.997   2.521   1.085  0.6410  0.2549  0.1957
  338MOL0     C45526   6.981   2.637   1.161 -0.7615  0.7297  0.2247
  338MOL0     C45527   6.870   2.666   1.251 -0.7460  0.1877  0.6013
  338MOL0     C45528   6.871   2.779   1.329 -0.2895 -0.2352 -0.5582
  338MOL0     C45529   6.963   2.884   1.310 -0.1884 -0.0766 -0.1808
  338MOL0     O45530   6.961   3.008   1.376 -0.4518  0.3170 -0.2464
  338MOL0     C45531   6.850   3.046   1.457  0.3614 -0.0380 -0.5073
  338MOL0     C45532   6.846   3.195   1.457  0.7774 -0.1057  0.4058
  338MOL0     C45533   6.791   3.256   1.331  0.7634  0.4896  0.0355
  338MOL0     C45534   6.800   3.411   1.342 -0.7066  0.0819 -0.7893
  338MOL0     C45535   6.671   3.484   1.337 -0.0177 -0.2446  0.5814
  338MOL0     C45536   6.688   3.632   1.377 -0.4099 -0.0825 -0.5196
  338MOL0     C45537   6.561   3.697   1.360  0.3850 -0.2841  0.4894
  338MOL0     C45538   6.563   3.839   1.406  0.1940 -0.4359 -0.4496
  338MOL0    Cl45539   6.411   3.913   1.355 -0.5155  0.0946 -0.3239
  338MOL0     C45540   7.062   2.852   1.219 -0.3449 -0.1046  0.6590
  338MOL0     C45541   7.080   2.733   1.154 -1.1574  0.3815  0.1781
  338MOL0     O45542   6.829   2.385   1.162  0.6638 -0.4188 -0.1473
  338MOL0     C45543   6.907   2.167   0.997 -0.3114 -0.9578  0.3551
  338MOL0     C45544   6.943   2.060   0.921 -0.3403  0.2294  0.7233
  338MOL0     N45545   7.480   1.476   1.004 -0.4873  0.4088  0.8857
  338MOL0     N45546   7.456   1.426   1.119 -0.5791 -0.1294 -0.1523
  338MOL0     C45547   6.512   1.697   1.369  0.3192  0.5370 -0.0790
  338MOL0     C45548   6.437   1.703   1.254  0.3338 -0.6609 -0.0720
  338MOL0     C45549   6.203   1.764   0.956 -0.8610  0.6381  0.8692
  338MOL0     C45550   6.283   1.874   0.908 -0.2700 -0.1327 -0.0620
  338MOL0     C45551   6.228   1.990   0.864 -0.9629 -0.1344  0.1592
  338MOL0     C45552   6.090   2.006   0.860 -0.7275 -0.1915  0.0830
  338MOL0     O45553   6.026   2.120   0.815  0.0685 -0.1839  0.3183
  338MOL0     C45554   6.092   2.228   0.738 -0.4045 -0.1137 -0.1143
  338MOL0     C45555   6.124   2.335   0.838  0.8075  0.0722 -0.8079
  338MOL0     C45556   6.188   2.453   0.765 -0.8109 -1.2278  0.3551
  338MOL0     C45557   6.148   2.595   0.824 -0.3458  0.6785 -0.4333
  338MOL0     C45558   6.027   2.632   0.752 -0.7980  0.5520 -0.5461
  338MOL0     C45559   5.924   2.652   0.697  1.1376 -1.0308 -0.2697
  338MOL0     C45560   6.006   1.896   0.908 -0.2691 -0.8261 -1.1617
  338MOL0     C45561   6.065   1.771   0.951  0.2950 -0.6312  0.6382
  338MOL0     C45562   5.962   1.663   0.986  0.3549 -0.1146  0.0384
  338MOL0     H45563   6.588   1.488   1.055 -2.0504  0.6995 -0.9626
  338MOL0     H45564   6.736   1.464   1.255  0.7085  0.5685 -3.7998
  338MOL0     H45565   6.744   1.590   1.673  0.2944  0.6837 -1.6409
  338MOL0     H45566   6.573   1.560   1.641 -1.5081 -3.4084 -0.5816
  338MOL0     H45567   6.602   1.339   1.566  1.5300 -1.8603 -2.2379
  338MOL0     H45568   6.715   1.341   1.702 -1.5441 -2.8097 -1.1601
  338MOL0     H45569   6.773   1.313   1.414 -1.7345  0.7238  0.0562
  338MOL0     H45570   6.842   1.242   1.565 -1.1659  0.1163  0.9879
  338MOL0     H45571   6.929   1.501   1.427 -0.6403  0.1858 -0.6240
  338MOL0     H45572   6.929   1.483   1.610 -0.4752 -0.0179 -0.1661
  338MOL0     H45573   7.063   1.303   1.597 -0.5281 -2.6240 -1.7195
  338MOL0     H45574   7.051   1.278   1.423 -0.9392 -0.7298  0.4416
  338MOL0     H45575   7.179   1.533   1.559  1.4155  1.3337 -1.4118
  338MOL0     H45576   7.267   1.391   1.532  1.5724  1.6280  0.3613
  338MOL0     H45577   7.287   1.569   1.366  1.7794 -2.4975  2.8988
  338MOL0     H45578   7.119   1.554   1.327  0.0609 -0.1417  0.1015
  338MOL0     H45579   7.305   1.325   1.303  3.9055  2.4485 -0.0856
  338MOL0     H45580   7.151   1.343   1.207  0.5881 -1.6200  1.7689
  338MOL0     H45581   7.170   1.586   1.030 -1.1989 -1.7272  0.8726
  338MOL0     H45582   7.474   1.647   0.802  0.7987 -0.0458  0.9947
  338MOL0     H45583   7.357   1.535   0.745 -0.5768 -0.9467  1.5213
  338MOL0     H45584   7.164   1.670   0.799  1.2275 -1.2824 -0.3686
  338MOL0     H45585   7.256   1.761   0.912 -0.6260 -2.1883  1.5338
  338MOL0     H45586   7.252   1.778   0.602  0.9728  0.8396 -0.2433
  338MOL0     H45587   7.397   1.840   0.689 -0.1302  1.2431  2.5387
  338MOL0     H45588   7.238   2.007   0.601 -0.5800 -0.2760 -0.0146
  338MOL0     H45589   7.292   2.028   0.772  1.2730  0.6225 -0.3635
  338MOL0     H45590   7.203   2.235   0.771  1.3200  0.2400  2.1458
  338MOL0     H45591   7.137   2.397   0.915  2.0200 -1.0883 -2.4172
  338MOL0     H45592   6.784   2.601   1.268  0.7116 -2.3292 -1.0217
  338MOL0     H45593   6.791   2.782   1.402 -0.1038 -0.6482 -0.3362
  338MOL0     H45594   6.757   3.004   1.417  1.6248 -2.4758 -1.0983
  338MOL0     H45595   6.875   3.007   1.556 -0.8018  0.4988  0.0147
  338MOL0     H45596   6.782   3.216   1.544  3.6533 -1.2766  2.9907
  338MOL0     H45597   6.939   3.243   1.488  0.9887 -0.6631  0.6402
  338MOL0     H45598   6.848   3.222   1.244  1.9689 -0.5212  1.1799
  338MOL0     H45599   6.686   3.227   1.325  0.5641  1.1574  0.2234
  338MOL0     H45600   6.849   3.458   1.256 -3.4138 -1.1043 -3.1306
  338MOL0     H45601   6.864   3.435   1.428 -1.2700 -2.1977  0.3442
  338MOL0     H45602   6.598   3.446   1.409 -1.0965  2.8282  1.2836
  338MOL0     H45603   6.628   3.474   1.237 -2.0518  0.8328  1.2729
  338MOL0     H45604   6.723   3.637   1.481  2.2824 -0.9791 -1.2951
  338MOL0     H45605   6.770   3.674   1.318 -0.6141 -2.1650 -2.4204
  338MOL0     H45606   6.489   3.637   1.416  1.9629 -1.0663  1.7872
  338MOL0     H45607   6.533   3.698   1.254 -0.6376  0.2584  0.7529
  338MOL0     H45608   6.589   3.847   1.512  1.3511  1.5121 -0.8330
  338MOL0     H45609   6.639   3.891   1.347  1.1033 -0.5656  0.5644
  338MOL0     H45610   7.140   2.924   1.197 -1.5788  0.6218 -1.6544
  338MOL0     H45611   7.166   2.718   1.090 -0.8641  2.4772  0.0114
  338MOL0     H45612   6.811   2.163   1.047 -0.4360 -2.4310  0.0411
  338MOL0     H45613   6.887   1.967   0.921 -0.4240  0.2756  1.3603
  338MOL0     H45614   6.489   1.750   1.460  0.9133 -1.0260  1.0225
  338MOL0     H45615   6.349   1.766   1.247  1.1980  0.4301 -2.0907
  338MOL0     H45616   6.390   1.860   0.900 -0.4723 -0.6544 -2.4903
  338MOL0     H45617   6.295   2.067   0.826 -0.0903  0.7470  3.2364
  338MOL0     H45618   6.023   2.263   0.660 -0.7050  0.2939  0.3282
  338MOL0     H45619   6.189   2.197   0.698  0.3702 -0.2967  1.8280
  338MOL0     H45620   6.183   2.285   0.916 -0.9151 -0.7392  0.0362
  338MOL0     H45621   6.029   2.358   0.887 -1.1389 -1.7703 -3.4252
  338MOL0     H45622   6.164   2.455   0.658 -0.0466  0.9965  0.1665
  338MOL0     H45623   6.297   2.454   0.776 -0.7630  1.0433  0.1814
  338MOL0     H45624   6.134   2.594   0.933 -0.6106 -0.1130 -0.4626
  338MOL0     H45625   6.213   2.669   0.777  1.5391 -0.7851 -0.2578
  338MOL0     H45626   5.827   2.668   0.653  1.3709 -1.8581 -1.1102
  338MOL0     H45627   5.898   1.895   0.895 -0.6625  3.2805  0.2669
  338MOL0     H45628   5.990   1.570   0.935 -0.0880 -0.5728  0.6208
  338MOL0     H45629   5.964   1.639   1.093  3.4507 -2.6085 -0.3899
  338MOL0     H45630   5.867   1.684   0.937  2.1239 -0.3963 -3.9088
  339MOL0     O45631   0.134   7.004   4.695  0.1132  0.1928 -0.1561
  339MOL0     C45632   0.252   6.964   4.711  0.8234  0.0887  0.0379
  339MOL0     O45633   0.364   7.042   4.749 -0.1481  0.0290  0.1760
  339MOL0     C45634   0.358   7.177   4.747 -0.2297 -0.7233  1.1530
  339MOL0     C45635   0.318   7.241   4.857  0.5777 -0.4174 -0.4062
  339MOL0     C45636   0.318   7.387   4.860  0.0010 -0.4577  0.8896
  339MOL0     C45637   0.344   7.467   4.750  0.5299  0.2941  0.9585
  339MOL0     O45638   0.330   7.607   4.750 -0.2988  1.0107 -0.2145
  339MOL0     C45639   0.455   7.671   4.803  0.3298 -0.0446  0.5681
  339MOL0     C45640   0.559   7.672   4.692  0.3524 -0.2369  0.8110
  339MOL0     C45641   0.540   7.761   4.571  0.3392 -0.6533  0.2644
  339MOL0     C45642   0.663   7.776   4.486 -0.2884 -0.1262  0.5303
  339MOL0     C45643   0.640   7.866   4.364  0.5673  0.3390 -0.6485
  339MOL0     C45644   0.764   7.945   4.332  0.2640  0.5594 -0.5729
  339MOL0     C45645   0.897   7.869   4.300 -0.3946  0.3107  0.4209
  339MOL0     C45646   1.030   7.937   4.300 -0.6919  0.8515 -0.1943
  339MOL0     N45647   1.043   8.023   4.181 -0.0682 -0.8975 -0.6699
  339MOL0     C45648   1.074   7.990   4.053  0.0060  0.7613  0.5364
  339MOL0     C45649   1.071   8.105   3.984  0.5968  1.1002  0.3240
  339MOL0     C45650   1.093   8.116   3.831 -0.7616 -0.3775  0.5584
  339MOL0     C45651   1.047   7.981   3.767 -0.1526  1.1367 -0.0022
  339MOL0     C45652   1.006   8.000   3.622 -0.2379  0.9839 -0.8980
  339MOL0     C45653   0.964   7.864   3.565 -0.2198  0.2968  0.0980
  339MOL0     O45654   1.077   7.804   3.506  0.3958  0.2989 -0.1819
  339MOL0     C45655   1.070   7.731   3.391 -0.6190 -0.2339 -1.1081
  339MOL0     C45656   1.177   7.742   3.301  0.2470  0.6363  0.0366
  339MOL0     C45657   1.175   7.666   3.185  0.6820  0.5160  0.1595
  339MOL0     C45658   1.065   7.581   3.148 -0.4496  0.5698  0.2936
  339MOL0     C45659   1.085   7.478   3.040 -0.5186  0.3122  0.5962
  339MOL0     O45660   0.983   7.398   3.016 -0.8757  1.3233 -1.0031
  339MOL0     C45661   1.007   7.281   2.935 -0.2640 -0.2882  1.3307
  339MOL0     C45662   0.968   7.157   2.967  0.1928 -0.4175 -0.0617
  339MOL0     C45663   0.989   7.044   2.883 -0.3833 -0.0846 -1.0620
  339MOL0     C45664   1.048   7.056   2.755  0.6888 -1.1082  0.0290
  339MOL0     O45665   1.064   6.946   2.669  0.3170  0.1211  0.8493
  339MOL0     C45666   0.953   6.854   2.669 -0.5068  0.9173  0.3972
  339MOL0     C45667   0.817   6.933   2.658 -0.1681  0.2513 -0.0323
  339MOL0     C45668   0.708   6.828   2.684 -0.0816 -0.1534 -0.4753
  339MOL0     C45669   0.564   6.879   2.643 -0.7810  0.0415 -0.2952
  339MOL0     C45670   0.449   6.783   2.665  0.5706 -0.0619 -0.8223
  339MOL0     C45671   0.477   6.685   2.775  0.5460 -0.4286  0.4579
  339MOL0     C45672   0.367   6.580   2.794  0.7468  0.3956 -0.3043
  339MOL0     C45673   0.398   6.494   2.919 -0.8941 -0.5238  0.5930
  339MOL0    Cl45674   0.313   6.556   3.067 -0.2639  0.3556  0.2533
  339MOL0     C45675   1.091   7.192   2.713  0.0247  0.8747  0.5624
  339MOL0     C45676   1.067   7.303   2.803  0.0619  0.1439  0.1783
  339MOL0     O45677   1.197   7.480   2.982 -0.1921 -0.3685  0.3395
  339MOL0     C45678   0.953   7.579   3.236 -0.2153 -0.3981  0.1285
  339MOL0     C45679   0.952   7.664   3.355  0.0742 -0.4138  1.5046
  339MOL0     N45680   1.057   8.212   4.073  1.2330  0.5563  0.4063
  339MOL0     N45681   1.021   8.157   4.186 -1.1958  0.4573  0.2735
  339MOL0     C45682   0.377   7.399   4.633 -0.2861 -0.1750  0.2980
  339MOL0     C45683   0.377   7.255   4.627 -0.4071  0.1566  1.2149
  339MOL0     C45684   0.278   6.822   4.672  0.2303 -0.8876 -0.6608
  339MOL0     C45685   0.171   6.725   4.676  0.8227 -0.3584 -0.1840
  339MOL0     C45686   0.192   6.587   4.664  0.0392  0.5689  0.2397
  339MOL0     C45687   0.319   6.540   4.638 -0.6829  0.0317 -0.1907
  339MOL0     O45688   0.346   6.400   4.631  0.2879 -0.2345  0.0586
  339MOL0     C45689   0.484   6.341   4.633  0.2911  0.7566  0.2146
  339MOL0     C45690   0.522   6.271   4.759  0.2581 -0.5253  0.0815
  339MOL0     C45691   0.651   6.195   4.771  0.1444  0.7936  0.2983
  339MOL0     C45692   0.679   6.145   4.920  0.6639  0.4087 -1.0276
  339MOL0     C45693   0.571   6.147   5.021  0.8634 -0.4264  0.2243
  339MOL0     C45694   0.478   6.127   5.095  0.8627 -0.1364  0.1242
  339MOL0     C45695   0.423   6.630   4.614  0.7858 -1.0437 -0.0170
  339MOL0     C45696   0.403   6.769   4.629 -1.0967  0.2323  0.3352
  339MOL0     C45697   0.511   6.854   4.566 -0.7297  0.1170  1.4966
  339MOL0     H45698   0.297   7.183   4.947  1.7872  1.0392  0.8767
  339MOL0     H45699   0.290   7.437   4.953 -2.0336 -0.6643  0.4360
  339MOL0     H45700   0.414   7.770   4.823  0.7594  0.7554 -2.2409
  339MOL0     H45701   0.483   7.639   4.904 -4.7922  0.8784  2.5959
  339MOL0     H45702   0.588   7.568   4.673  0.4886  0.0550 -0.7115
  339MOL0     H45703   0.647   7.722   4.733  0.8916  2.3312 -2.9848
  339MOL0     H45704   0.501   7.857   4.607 -1.8062 -0.3046 -2.5730
  339MOL0     H45705   0.456   7.718   4.516  2.3560 -2.0323 -1.9275
  339MOL0     H45706   0.739   7.821   4.550  1.9714 -2.8734 -0.0301
  339MOL0     H45707   0.688   7.676   4.451 -3.3031  0.2577 -3.4142
  339MOL0     H45708   0.606   7.810   4.277 -0.7868  3.4745 -2.2855
  339MOL0     H45709   0.560   7.938   4.385  0.6581  0.3599 -0.3658
  339MOL0     H45710   0.743   8.015   4.250 -0.0592 -1.6038 -2.4217
  339MOL0     H45711   0.792   7.995   4.425  1.1835  0.9698 -1.0547
  339MOL0     H45712   0.886   7.793   4.221  3.6927  0.0997 -0.1529
  339MOL0     H45713   0.906   7.799   4.384  1.5410 -1.3581 -1.0625
  339MOL0     H45714   1.043   7.993   4.393  2.1472 -1.7401  1.1529
  339MOL0     H45715   1.106   7.861   4.282 -0.7321  1.1483 -1.6703
  339MOL0     H45716   1.074   7.887   4.018 -1.8454  1.3557 -1.4448
  339MOL0     H45717   1.045   8.204   3.788  0.4083  0.4158  0.8481
  339MOL0     H45718   1.201   8.108   3.813 -0.8877  0.4245 -0.5906
  339MOL0     H45719   1.121   7.901   3.774  1.0828  2.2928  0.8264
  339MOL0     H45720   0.953   7.959   3.818 -2.3827  4.5281 -2.2361
  339MOL0     H45721   1.089   8.033   3.558  0.3600 -1.1287 -1.2908
  339MOL0     H45722   0.917   8.062   3.608 -0.1309  0.9803 -1.6162
  339MOL0     H45723   0.900   7.886   3.479 -2.0364 -1.5303  0.8992
  339MOL0     H45724   0.905   7.792   3.622  1.3828 -2.5101 -1.5164
  339MOL0     H45725   1.264   7.805   3.320  2.5988 -2.5240  0.5579
  339MOL0     H45726   1.266   7.664   3.124  3.1868 -2.8613  3.5024
  339MOL0     H45727   0.912   7.147   3.059 -4.5842 -0.5393 -2.6343
  339MOL0     H45728   0.939   6.959   2.927 -0.7246  1.5762  2.0874
  339MOL0     H45729   0.969   6.797   2.578  0.5660 -0.1374  1.2159
  339MOL0     H45730   0.955   6.785   2.754 -1.5242  2.6596  1.9462
  339MOL0     H45731   0.806   7.018   2.726 -2.5099  1.9228 -2.2882
  339MOL0     H45732   0.802   6.975   2.558 -3.5439  1.1877  0.7426
  339MOL0     H45733   0.725   6.742   2.618 -0.3476 -0.0747 -0.6494
  339MOL0     H45734   0.711   6.808   2.792  0.6146 -2.8251 -0.9199
  339MOL0     H45735   0.561   6.904   2.537  0.9514 -0.1639 -0.4213
  339MOL0     H45736   0.547   6.972   2.699  0.8278 -0.0737  0.4708
  339MOL0     H45737   0.418   6.723   2.579 -2.2285  0.8111 -0.5434
  339MOL0     H45738   0.364   6.845   2.695  2.8937  2.2229  1.6230
  339MOL0     H45739   0.567   6.633   2.739  0.8837  0.8131 -0.5808
  339MOL0     H45740   0.507   6.731   2.869  0.6647  0.8605 -0.1790
  339MOL0     H45741   0.351   6.508   2.713 -3.3761  1.4142 -0.6306
  339MOL0     H45742   0.272   6.622   2.827  0.5694 -1.6277  2.0566
  339MOL0     H45743   0.369   6.392   2.894  1.9695 -0.5552 -3.7141
  339MOL0     H45744   0.507   6.487   2.926 -0.4541  3.8380  1.2950
  339MOL0     H45745   1.139   7.223   2.620  0.3664 -1.1521  0.0145
  339MOL0     H45746   1.088   7.405   2.774 -2.0269  0.4935 -0.2807
  339MOL0     H45747   0.864   7.528   3.200  1.0855 -1.7751 -1.2422
  339MOL0     H45748   0.858   7.679   3.408 -2.5774  3.0815 -3.2767
  339MOL0     H45749   0.384   7.460   4.544  0.8258 -1.6825 -0.7055
  339MOL0     H45750   0.407   7.205   4.536  0.5539  0.1329  1.5271
  339MOL0     H45751   0.072   6.765   4.690  1.7918  1.3902  2.4357
  339MOL0     H45752   0.105   6.523   4.669  1.0160 -0.6814  3.4018
  339MOL0     H45753   0.564   6.415   4.626 -0.3351  1.6329  1.7620
  339MOL0     H45754   0.516   6.287   4.543 -1.1801  0.4277 -0.1380
  339MOL0     H45755   0.443   6.197   4.772  0.5992 -0.3817  4.2896
  339MOL0     H45756   0.519   6.344   4.840  1.3526 -2.6785  2.1946
  339MOL0     H45757   0.731   6.258   4.732 -1.1144  3.0369  1.1233
  339MOL0     H45758   0.646   6.106   4.709 -4.8111 -0.6475  2.2923
  339MOL0     H45759   0.723   6.045   4.914  1.5709  0.3888  2.9774
  339MOL0     H45760   0.758   6.212   4.956  0.7666  0.5059 -1.4199
  339MOL0     H45761   0.392   6.140   5.157 -0.0217 -0.1495 -1.0680
  339MOL0     H45762   0.524   6.603   4.588  0.2153 -1.3402 -2.0806
  339MOL0     H45763   0.604   6.841   4.622  1.0465 -2.3738 -1.7055
  339MOL0     H45764   0.527   6.810   4.467  1.4556  0.1031  1.8154
  339MOL0     H45765   0.478   6.958   4.562 -1.2329 -0.0453  1.3330
  340MOL0     O45766  10.089   7.635   7.953  0.3442 -0.2313 -0.8726
  340MOL0     C45767  10.164   7.562   7.894  0.7813  0.4071  0.1688
  340MOL0     O45768  10.236   7.467   7.946 -0.5860  0.7128 -0.7036
  340MOL0     C45769  10.243   7.460   8.084  0.7957 -1.1646 -0.3474
  340MOL0     C45770  10.126   7.440   8.160 -0.2999 -1.3381  0.4276
  340MOL0     C45771  10.128   7.432   8.303 -0.5323  0.3774 -0.3239
  340MOL0     C45772  10.257   7.451   8.365 -0.0968  0.0130  0.0228
  340MOL0     O45773  10.288   7.445   8.502 -0.1640  0.2073  0.6373
  340MOL0     C45774  10.180   7.476   8.592 -1.3116  0.4074 -0.1245
  340MOL0     C45775  10.193   7.393   8.723 -0.3928 -0.3356 -0.1711
  340MOL0     C45776  10.173   7.247   8.699  0.5660  0.7821 -0.0664
  340MOL0     C45777  10.146   7.168   8.824  0.4183  0.0575 -0.2409
  340MOL0     C45778  10.278   7.163   8.901 -0.1438 -0.1124 -1.1467
  340MOL0     C45779  10.289   7.068   9.020 -0.2353  0.6126  0.3199
  340MOL0     C45780  10.207   7.126   9.135  0.6501 -0.2562  0.2729
  340MOL0     C45781  10.198   7.031   9.256 -0.3370 -0.5372  0.4998
  340MOL0     N45782  10.123   7.103   9.357 -0.4683  0.3592 -0.2128
  340MOL0     C45783  10.168   7.217   9.427  0.6220  0.7540 -0.6978
  340MOL0     C45784  10.067   7.257   9.499  0.5128 -0.6166  0.2991
  340MOL0     C45785  10.073   7.348   9.613 -0.0050  0.2732 -1.3862
  340MOL0     C45786  10.122   7.489   9.579  0.7521  0.2501 -1.0240
  340MOL0     C45787  10.018   7.573   9.492 -0.2253 -0.1312 -0.7919
  340MOL0     C45788   9.980   7.520   9.351  0.1526 -0.2941  0.4361
  340MOL0     O45789  10.096   7.508   9.265 -0.5047 -0.4116 -0.3574
  340MOL0     C45790  10.133   7.620   9.191  0.9192  1.2439 -0.7223
  340MOL0     C45791  10.200   7.590   9.076  1.0019 -0.4777  0.7025
  340MOL0     C45792  10.221   7.684   8.978 -0.6813 -0.6880  0.5985
  340MOL0     C45793  10.175   7.822   9.002 -0.3734  0.2882  0.3742
  340MOL0     C45794  10.215   7.934   8.905 -0.7442  0.2055  0.2403
  340MOL0     O45795  10.248   7.892   8.779  0.3958 -0.3206  0.4042
  340MOL0     C45796  10.304   7.980   8.690 -0.9513 -0.6200 -0.8010
  340MOL0     C45797  10.402   8.073   8.741 -0.3253 -1.1965 -0.7312
  340MOL0     C45798  10.477   8.148   8.645 -0.0159 -0.4057  0.3143
  340MOL0     C45799  10.462   8.133   8.507  0.1298  1.2389  0.3789
  340MOL0     O45800  10.538   8.200   8.416 -0.3434 -0.5690  0.2933
  340MOL0     C45801  10.488   8.308   8.330 -0.9861 -0.3148 -0.1497
  340MOL0     C45802  10.600   8.392   8.260 -0.3522 -0.8232  0.7458
  340MOL0     C45803  10.562   8.522   8.180 -0.1332  0.7738  0.3364
  340MOL0     C45804  10.522   8.478   8.037  0.3385  0.9081  0.5686
  340MOL0     C45805  10.518   8.601   7.941  0.4692 -0.0829 -0.5445
  340MOL0     C45806  10.509   8.552   7.799  0.3878  0.3496  0.2897
  340MOL0     C45807  10.471   8.656   7.706  0.5232  0.3013 -0.3703
  340MOL0     C45808  10.510   8.633   7.550 -0.8958  0.1631 -0.1547
  340MOL0    Cl45809  10.419   8.502   7.482  0.6939  0.5425 -0.4251
  340MOL0     C45810  10.362   8.036   8.466 -0.7467 -1.4728 -0.5527
  340MOL0     C45811  10.280   7.971   8.552  0.0288 -0.6282  1.0111
  340MOL0     O45812  10.209   8.051   8.945  0.1352  0.6486 -0.1802
  340MOL0     C45813  10.110   7.844   9.125  1.6397 -0.6880  0.9446
  340MOL0     C45814  10.090   7.750   9.224  0.0998  0.7639  0.6574
  340MOL0     N45815   9.954   7.192   9.449 -0.0757 -0.4906 -0.0086
  340MOL0     N45816   9.988   7.098   9.373  0.1791 -0.7386  0.0008
  340MOL0     C45817  10.374   7.472   8.289 -0.1256  1.0447  0.3921
  340MOL0     C45818  10.360   7.479   8.149  0.0006 -0.7359  0.5342
  340MOL0     C45819  10.170   7.589   7.748 -0.4915 -0.1384  0.4701
  340MOL0     C45820  10.296   7.608   7.697  0.1321 -0.0147 -0.2503
  340MOL0     C45821  10.307   7.646   7.564  1.0566  1.2113  0.8424
  340MOL0     C45822  10.196   7.670   7.475 -0.6760  0.0170  0.5405
  340MOL0     O45823  10.229   7.706   7.346  0.0464 -0.3353 -1.2957
  340MOL0     C45824  10.114   7.750   7.267  0.9626  0.5352 -1.6254
  340MOL0     C45825  10.160   7.791   7.121  0.0268  0.7963  0.0329
  340MOL0     C45826  10.255   7.907   7.124  1.2055  0.7996 -0.0709
  340MOL0     C45827  10.387   7.891   7.181  0.4763 -1.5326 -0.9074
  340MOL0     C45828  10.473   7.795   7.127  0.9647  0.6080 -0.9072
  340MOL0     C45829  10.539   7.697   7.094  0.5308 -0.3658  0.5508
  340MOL0     C45830  10.068   7.652   7.534 -0.5594 -0.1370  1.2251
  340MOL0     C45831  10.057   7.605   7.668  0.4775 -0.0277 -0.3943
  340MOL0     C45832   9.916   7.583   7.728 -0.6884 -0.0977 -0.7970
  340MOL0     H45833  10.039   7.411   8.102  0.5105 -0.7513 -1.1499
  340MOL0     H45834  10.039   7.407   8.359 -1.8236  2.2363 -1.4429
  340MOL0     H45835  10.186   7.573   8.641  0.8860 -0.3946  1.3852
  340MOL0     H45836  10.077   7.461   8.557 -2.6011  2.4361  2.4145
  340MOL0     H45837  10.110   7.417   8.790 -1.3096 -3.2164 -0.1346
  340MOL0     H45838  10.285   7.419   8.776 -1.2491 -1.6312  2.0879
  340MOL0     H45839  10.258   7.205   8.643 -0.0450 -1.7872  0.8026
  340MOL0     H45840  10.084   7.225   8.639  1.3549 -3.5505 -0.0177
  340MOL0     H45841  10.071   7.226   8.878 -1.2714  1.3466 -3.7157
  340MOL0     H45842  10.116   7.065   8.801 -1.3424  0.6140 -0.5554
  340MOL0     H45843  10.349   7.127   8.826 -3.6183 -0.9598 -4.3447
  340MOL0     H45844  10.308   7.260   8.941 -0.3940 -0.5435  0.1338
  340MOL0     H45845  10.240   6.972   8.999  1.4526 -0.1424 -0.3808
  340MOL0     H45846  10.397   7.064   9.040 -0.5096 -0.1718  1.7633
  340MOL0     H45847  10.110   7.157   9.095  1.4883 -0.7244 -2.2909
  340MOL0     H45848  10.259   7.216   9.169  1.3240 -0.7967  0.6984
  340MOL0     H45849  10.142   6.945   9.219 -0.7793  0.0068 -0.1209
  340MOL0     H45850  10.302   7.011   9.283 -0.6359 -1.0197  1.3357
  340MOL0     H45851  10.268   7.251   9.448  1.1661 -0.8608 -0.5432
  340MOL0     H45852   9.981   7.376   9.665 -0.6405  0.6258 -2.6672
  340MOL0     H45853  10.146   7.312   9.687 -0.1782  1.9818 -0.3444
  340MOL0     H45854  10.145   7.551   9.666  0.4582 -2.5571  1.2245
  340MOL0     H45855  10.219   7.470   9.533  0.5758  1.2289 -1.8161
  340MOL0     H45856  10.048   7.678   9.495 -4.5495  1.3836 -3.2476
  340MOL0     H45857   9.931   7.571   9.559 -0.0234 -0.8012 -0.5406
  340MOL0     H45858   9.904   7.584   9.306 -0.6157  0.1783  2.3444
  340MOL0     H45859   9.943   7.418   9.364 -1.5804  0.4052  1.2072
  340MOL0     H45860  10.232   7.488   9.057 -1.5525 -1.0347 -1.1859
  340MOL0     H45861  10.264   7.651   8.884 -1.3436 -1.6174  0.6077
  340MOL0     H45862  10.430   8.084   8.845  3.4347  2.0858 -1.8435
  340MOL0     H45863  10.560   8.211   8.676  1.0199 -0.8555 -1.3925
  340MOL0     H45864  10.411   8.268   8.264 -1.2109 -4.3221  2.1850
  340MOL0     H45865  10.436   8.378   8.396 -0.6388  1.4594 -1.6761
  340MOL0     H45866  10.670   8.413   8.342  1.7579 -2.3530 -0.5526
  340MOL0     H45867  10.639   8.309   8.199  0.9524  1.5988 -1.9837
  340MOL0     H45868  10.481   8.580   8.224 -1.1817 -1.5014  1.6213
  340MOL0     H45869  10.647   8.590   8.179  1.4866 -1.1457  0.3927
  340MOL0     H45870  10.430   8.419   8.033 -0.0660  1.1511  3.6520
  340MOL0     H45871  10.599   8.419   7.987 -0.1316  0.9903 -0.2679
  340MOL0     H45872  10.580   8.689   7.957 -1.7211  1.1426  1.8677
  340MOL0     H45873  10.427   8.659   7.959 -0.1181 -1.5531  1.5652
  340MOL0     H45874  10.605   8.504   7.775  0.2347 -0.7078  1.6857
  340MOL0     H45875  10.439   8.468   7.801 -0.2506  0.8789  0.4048
  340MOL0     H45876  10.515   8.753   7.734 -2.2923  1.3509  0.8274
  340MOL0     H45877  10.363   8.669   7.713  0.3771  0.9116 -2.7998
  340MOL0     H45878  10.495   8.731   7.504  5.1836  2.1178  1.0814
  340MOL0     H45879  10.618   8.620   7.543 -0.3491  1.1574  3.8052
  340MOL0     H45880  10.374   8.006   8.362  2.6159 -0.4509 -0.5823
  340MOL0     H45881  10.222   7.901   8.492  2.8085 -2.5235  0.3390
  340MOL0     H45882  10.076   7.947   9.134 -0.6435 -1.2683 -0.3102
  340MOL0     H45883  10.036   7.800   9.304  1.1024  1.5398  0.8710
  340MOL0     H45884  10.471   7.478   8.338 -0.1750 -2.3075  1.1284
  340MOL0     H45885  10.443   7.491   8.079  1.0695 -0.4569  1.8171
  340MOL0     H45886  10.386   7.583   7.753  1.6828 -1.2855 -3.1087
  340MOL0     H45887  10.406   7.635   7.521  0.4116 -1.7746 -0.0971
  340MOL0     H45888  10.062   7.830   7.320  0.4239 -0.3154 -0.8261
  340MOL0     H45889  10.038   7.672   7.263 -1.5935  2.2255  3.8395
  340MOL0     H45890  10.075   7.820   7.058 -1.7546 -2.2184  0.8503
  340MOL0     H45891  10.200   7.699   7.079 -0.7207  0.3311  0.3106
  340MOL0     H45892  10.198   7.984   7.176  1.6353 -1.2536  3.9399
  340MOL0     H45893  10.261   7.930   7.018 -1.5094 -0.6426 -0.6420
  340MOL0     H45894  10.438   7.985   7.161  2.0752 -0.9053  4.4076
  340MOL0     H45895  10.380   7.880   7.290 -2.0293 -1.0642 -0.9569
  340MOL0     H45896  10.585   7.603   7.070  1.5652  0.2250  0.1299
  340MOL0     H45897   9.974   7.677   7.486  0.6415  3.8468  0.5701
  340MOL0     H45898   9.912   7.521   7.818  2.5232  0.4078 -0.1942
  340MOL0     H45899   9.865   7.677   7.750 -1.1957 -1.2110  3.8926
  340MOL0     H45900   9.864   7.529   7.649  0.9908  0.7748 -2.5890
  341MOL0     O45901   8.224   0.048   3.335  0.0108 -0.2624  0.0092
  341MOL0     C45902   8.130   0.049   3.256  0.8560  0.6880  0.1912
  341MOL0     O45903   7.998   0.018   3.298  0.2401  0.4399  0.2503
  341MOL0     C45904   7.973   0.069   3.429 -0.6724  1.4891  0.0344
  341MOL0     C45905   8.005   0.195   3.474  0.2900  0.4532 -0.3727
  341MOL0     C45906   7.982   0.220   3.606  0.5194 -0.1128  0.0845
  341MOL0     C45907   7.909   0.150   3.688  0.5218  0.1665  0.0323
  341MOL0     O45908   7.877   0.206   3.808  0.4321 -0.6725  0.0688
  341MOL0     C45909   7.748   0.197   3.858 -0.1768  0.2501 -0.3961
  341MOL0     C45910   7.712   0.342   3.913  0.0849  0.3134 -0.4830
  341MOL0     C45911   7.708   0.450   3.798  0.6663 -0.1498  0.0430
  341MOL0     C45912   7.641   0.409   3.666 -0.0378 -0.1781  0.1957
  341MOL0     C45913   7.668   0.506   3.539  0.2583  0.1096 -0.7538
  341MOL0     C45914   7.671   0.654   3.561 -0.5793 -0.0971 -0.4369
  341MOL0     C45915   7.718   0.713   3.431 -1.3552  0.6493  1.1207
  341MOL0     C45916   7.685   0.860   3.425 -0.4651 -0.4233  0.1544
  341MOL0     N45917   7.546   0.897   3.412 -0.1999  1.3373 -0.4431
  341MOL0     C45918   7.436   0.831   3.364  0.0643 -0.7893  1.0331
  341MOL0     C45919   7.340   0.920   3.361  0.3103 -0.6849  0.3030
  341MOL0     C45920   7.191   0.903   3.330 -0.3088  0.0483  0.1556
  341MOL0     C45921   7.098   0.892   3.453  0.0893 -0.7323  0.5009
  341MOL0     C45922   6.947   0.904   3.400  0.8672 -0.0560  0.5090
  341MOL0     C45923   6.850   0.897   3.515  0.0701  0.5496 -0.2384
  341MOL0     O45924   6.807   0.754   3.527 -0.3075  0.9074  0.4575
  341MOL0     C45925   6.691   0.732   3.596  0.2173  0.6864  0.5056
  341MOL0     C45926   6.688   0.679   3.729 -0.1765 -0.9517 -1.3736
  341MOL0     C45927   6.572   0.669   3.805  0.4344 -1.1742 -0.0001
  341MOL0     C45928   6.452   0.706   3.738  0.5496  0.7906  0.5626
  341MOL0     C45929   6.331   0.705   3.816  0.7189  0.2790 -0.2431
  341MOL0     O45930   6.209   0.707   3.744  0.3740 -0.3983  0.1008
  341MOL0     C45931   6.098   0.680   3.818 -0.7188 -0.0394 -0.5790
  341MOL0     C45932   6.059   0.549   3.863 -0.0265 -0.2040 -0.9689
  341MOL0     C45933   5.953   0.534   3.943  1.4606  1.0423  0.6950
  341MOL0     C45934   5.861   0.643   3.971 -1.0415 -0.0642 -0.1682
  341MOL0     O45935   5.739   0.618   4.030 -0.1245  0.1381 -1.0285
  341MOL0     C45936   5.687   0.484   4.050  1.0367  0.7896 -0.3182
  341MOL0     C45937   5.543   0.482   4.100  0.5527  0.9532  0.3405
  341MOL0     C45938   5.520   0.344   4.179  0.0902  1.0544 -0.6030
  341MOL0     C45939   5.528   0.210   4.103  0.6135 -0.7039  0.2531
  341MOL0     C45940   5.564   0.093   4.203 -0.4206  0.3447 -0.6942
  341MOL0     C45941   5.579  -0.050   4.130  0.7746  0.2490  0.2946
  341MOL0     C45942   5.578  -0.169   4.228  0.9980 -0.8358 -0.5142
  341MOL0     C45943   5.557  -0.291   4.137 -0.1159 -0.5552  0.4547
  341MOL0    Cl45944   5.713  -0.334   4.063 -0.6797  0.1123  0.4318
  341MOL0     C45945   5.913   0.777   3.944  0.4759 -0.2890  0.2755
  341MOL0     C45946   6.022   0.791   3.866 -1.6155  0.2690 -0.3859
  341MOL0     O45947   6.334   0.700   3.940 -0.4571  0.0299 -0.2350
  341MOL0     C45948   6.451   0.741   3.609  0.3184 -0.1565  0.6439
  341MOL0     C45949   6.572   0.753   3.537  0.1327 -0.2395 -0.5503
  341MOL0     N45950   7.387   1.039   3.408 -0.4680 -0.0716 -0.0019
  341MOL0     N45951   7.512   1.031   3.431 -0.2134 -0.6566 -0.0742
  341MOL0     C45952   7.869   0.022   3.644  0.3581 -1.3655  0.1950
  341MOL0     C45953   7.896  -0.015   3.515  0.7470  0.9537 -1.0121
  341MOL0     C45954   8.154   0.087   3.110 -0.2123 -0.1958  0.3732
  341MOL0     C45955   8.055   0.136   3.030  0.4023  0.2554 -0.5616
  341MOL0     C45956   8.079   0.197   2.910  1.4828  0.3423 -0.3188
  341MOL0     C45957   8.205   0.206   2.853  0.6044 -0.0750 -0.6472
  341MOL0     O45958   8.211   0.277   2.734 -0.6672 -0.6139 -0.0211
  341MOL0     C45959   8.317   0.363   2.711 -0.7034 -0.5622  0.1529
  341MOL0     C45960   8.337   0.397   2.562 -0.4908  0.0957  0.6370
  341MOL0     C45961   8.408   0.283   2.483 -0.2522  0.5862  0.6842
  341MOL0     C45962   8.547   0.322   2.427 -0.1850 -0.3853  1.2778
  341MOL0     C45963   8.536   0.410   2.309 -0.8612  1.1133  0.1157
  341MOL0     C45964   8.516   0.463   2.204 -0.6310  0.8912 -0.1057
  341MOL0     C45965   8.302   0.146   2.932  0.4001 -0.3048 -0.6717
  341MOL0     C45966   8.282   0.091   3.056  0.7039  0.3345 -0.6696
  341MOL0     C45967   8.418   0.054   3.122 -0.1147  0.0320 -0.2204
  341MOL0     H45968   8.054   0.255   3.397 -0.0962  1.4871  0.1626
  341MOL0     H45969   7.998   0.319   3.646  0.1341 -1.0254  2.6995
  341MOL0     H45970   7.683   0.179   3.771 -1.0307  3.7640 -0.6388
  341MOL0     H45971   7.739   0.115   3.930  1.2501  0.9078  0.5633
  341MOL0     H45972   7.774   0.373   3.997  0.2826  0.8564 -0.8218
  341MOL0     H45973   7.606   0.330   3.937  0.3355 -0.8477  0.0832
  341MOL0     H45974   7.811   0.473   3.769  0.7211 -0.7333 -0.2385
  341MOL0     H45975   7.657   0.542   3.826 -1.6789 -1.0873 -0.9215
  341MOL0     H45976   7.662   0.311   3.622  1.3398  0.4573 -0.6268
  341MOL0     H45977   7.533   0.399   3.683 -0.0440 -0.7746 -0.1507
  341MOL0     H45978   7.766   0.476   3.498  0.3598 -0.0622 -0.3868
  341MOL0     H45979   7.600   0.468   3.462 -0.6164  0.6914 -0.2743
  341MOL0     H45980   7.568   0.684   3.580  0.1518  1.0726  2.1099
  341MOL0     H45981   7.737   0.675   3.645 -1.1524 -0.6128  0.1490
  341MOL0     H45982   7.667   0.678   3.341 -2.2750  3.1720  0.5651
  341MOL0     H45983   7.821   0.686   3.409 -1.6716 -1.2796  1.8393
  341MOL0     H45984   7.723   0.907   3.516  0.1253 -1.1545  0.2987
  341MOL0     H45985   7.731   0.907   3.338 -1.1696  0.7997  0.4193
  341MOL0     H45986   7.415   0.727   3.342 -1.0974 -0.3627 -0.0102
  341MOL0     H45987   7.149   0.988   3.275 -0.7968  0.5247  1.2304
  341MOL0     H45988   7.176   0.816   3.265  2.1881 -0.7370  0.5325
  341MOL0     H45989   7.093   0.788   3.487  1.7894 -1.1683 -0.4672
  341MOL0     H45990   7.128   0.958   3.535 -2.0304 -0.5063  1.1573
  341MOL0     H45991   6.928   0.825   3.327  1.5827  1.1829 -1.0821
  341MOL0     H45992   6.936   0.998   3.346  0.7329 -0.1291  0.4089
  341MOL0     H45993   6.760   0.958   3.500 -2.3293 -1.6226  3.5260
  341MOL0     H45994   6.891   0.930   3.611  1.1403 -0.2573 -0.4004
  341MOL0     H45995   6.777   0.660   3.787 -1.1238  1.4781  1.0777
  341MOL0     H45996   6.557   0.682   3.912 -0.3422 -0.4842 -0.1795
  341MOL0     H45997   6.124   0.473   3.821 -2.9385 -2.4698 -1.7547
  341MOL0     H45998   5.929   0.433   3.977  0.8470  0.4386 -1.3676
  341MOL0     H45999   5.695   0.431   3.954  1.6931 -1.2859  0.8304
  341MOL0     H46000   5.749   0.421   4.114  0.2134 -0.2127 -0.4870
  341MOL0     H46001   5.530   0.570   4.164 -0.3412  0.9228  0.2026
  341MOL0     H46002   5.477   0.485   4.013  0.0765 -0.3408  0.6425
  341MOL0     H46003   5.583   0.343   4.268 -0.5329  0.4903 -0.1560
  341MOL0     H46004   5.419   0.355   4.220 -1.3057 -1.4443 -3.0489
  341MOL0     H46005   5.607   0.214   4.028  1.3370  3.0219  1.0122
  341MOL0     H46006   5.437   0.180   4.050  1.8553  0.3628 -2.6512
  341MOL0     H46007   5.483   0.088   4.277 -0.3305  1.9344 -0.4693
  341MOL0     H46008   5.665   0.109   4.239 -0.6590  1.6592 -0.5655
  341MOL0     H46009   5.493  -0.050   4.062 -2.0499  2.3542  3.5161
  341MOL0     H46010   5.666  -0.061   4.065 -0.8551 -1.3663 -1.8001
  341MOL0     H46011   5.509  -0.166   4.312 -0.1270 -2.9689 -1.2891
  341MOL0     H46012   5.676  -0.178   4.276  1.9110  2.1368 -1.5697
  341MOL0     H46013   5.547  -0.372   4.210 -0.1955  1.0198  2.2881
  341MOL0     H46014   5.484  -0.278   4.058  0.2719  1.8174  0.4235
  341MOL0     H46015   5.848   0.859   3.974  1.0055  0.8177 -1.4772
  341MOL0     H46016   6.058   0.892   3.846 -1.7476 -0.1400 -3.0123
  341MOL0     H46017   6.352   0.751   3.565 -0.4997  1.8942  2.7387
  341MOL0     H46018   6.567   0.770   3.430 -0.3892 -2.5176 -0.9472
  341MOL0     H46019   7.821  -0.034   3.724 -0.3487  0.8581  1.4106
  341MOL0     H46020   7.875  -0.114   3.476 -2.1027  1.8541 -2.0680
  341MOL0     H46021   7.957   0.143   3.075 -0.3705 -2.4015 -1.5924
  341MOL0     H46022   8.000   0.246   2.855  0.0835  3.6150  4.0466
  341MOL0     H46023   8.411   0.315   2.739 -0.9394 -0.9950  0.2093
  341MOL0     H46024   8.308   0.455   2.769  2.6336 -1.0390  1.6461
  341MOL0     H46025   8.403   0.484   2.567  0.1750 -0.3426 -0.1940
  341MOL0     H46026   8.242   0.424   2.516 -1.4312  0.4747  2.7130
  341MOL0     H46027   8.340   0.245   2.407 -0.6307 -1.4357  1.9756
  341MOL0     H46028   8.413   0.197   2.550 -1.0863  3.5352  4.9754
  341MOL0     H46029   8.598   0.368   2.512  1.5557 -1.7893  1.0529
  341MOL0     H46030   8.599   0.231   2.397 -3.6751 -1.7019 -1.5035
  341MOL0     H46031   8.503   0.502   2.105  1.9581 -0.7751 -1.2009
  341MOL0     H46032   8.402   0.161   2.892 -0.0147  2.9321 -0.7327
  341MOL0     H46033   8.470   0.012   3.035 -4.5048 -2.9037 -1.7688
  341MOL0     H46034   8.465   0.136   3.176  5.0899 -4.2154  2.5910
  341MOL0     H46035   8.401  -0.027   3.194  2.0826 -2.3436 -2.1517
  342MOL0     O46036   3.345   6.360   1.326 -0.5481 -0.4566 -0.3441
  342MOL0     C46037   3.456   6.412   1.330 -0.1888 -0.0966  0.7837
  342MOL0     O46038   3.574   6.360   1.368 -0.6313  0.2513 -0.0652
  342MOL0     C46039   3.598   6.225   1.402  0.3893  0.5379  0.5044
  342MOL0     C46040   3.721   6.169   1.375 -0.4654  1.1360 -0.3990
  342MOL0     C46041   3.761   6.053   1.440 -0.0531  0.1025  0.1086
  342MOL0     C46042   3.667   5.995   1.533 -0.0262 -0.2673  1.1498
  342MOL0     O46043   3.712   5.881   1.590  0.1143 -0.3405 -0.0540
  342MOL0     C46044   3.738   5.894   1.729  0.6305 -0.0359  1.2494
  342MOL0     C46045   3.770   5.763   1.789 -0.3559 -0.0996 -0.3359
  342MOL0     C46046   3.906   5.696   1.740 -0.8640 -0.5424 -0.1540
  342MOL0     C46047   3.930   5.574   1.825  0.8660 -0.5320  0.8827
  342MOL0     C46048   4.038   5.490   1.758 -0.1697 -0.3293 -1.0988
  342MOL0     C46049   4.069   5.358   1.840  0.6542  0.0633  0.4725
  342MOL0     C46050   4.147   5.254   1.767 -0.0785  0.0025  0.2614
  342MOL0     C46051   4.302   5.294   1.739  0.0424 -0.8939 -0.2751
  342MOL0     N46052   4.386   5.261   1.858  0.3393  0.7911  0.0484
  342MOL0     C46053   4.454   5.143   1.869 -0.0672  0.3611  0.1813
  342MOL0     C46054   4.505   5.143   1.992  0.3301  0.1100 -0.3522
  342MOL0     C46055   4.593   5.034   2.054 -0.4730  0.4320 -1.4555
  342MOL0     C46056   4.517   4.901   2.062  0.3299 -0.3111 -0.2893
  342MOL0     C46057   4.589   4.802   2.152 -0.0805  0.2593 -0.3066
  342MOL0     C46058   4.705   4.725   2.100  0.4236  0.2669  0.1935
  342MOL0     O46059   4.658   4.670   1.977  0.1698  0.6940 -0.1803
  342MOL0     C46060   4.645   4.532   1.962  0.2635  0.3755 -0.6260
  342MOL0     C46061   4.526   4.499   1.904 -0.3953  0.3987  0.8692
  342MOL0     C46062   4.481   4.371   1.900  0.2158  0.5063  0.4067
  342MOL0     C46063   4.569   4.271   1.936  0.4081  1.3295  0.9879
  342MOL0     C46064   4.523   4.124   1.924 -0.1545 -1.1712 -0.4497
  342MOL0     O46065   4.388   4.105   1.897 -0.1714  0.4310  0.3258
  342MOL0     C46066   4.336   3.986   1.853 -1.6029  0.3871  0.0017
  342MOL0     C46067   4.202   3.975   1.832  0.9770  0.7828 -0.7490
  342MOL0     C46068   4.152   3.865   1.756 -0.5646  0.2143  0.2664
  342MOL0     C46069   4.238   3.763   1.707  0.0720 -0.1740  0.1043
  342MOL0     O46070   4.209   3.679   1.604  0.1845 -0.5621 -0.3959
  342MOL0     C46071   4.108   3.702   1.508 -0.0733 -1.0510  0.7814
  342MOL0     C46072   3.971   3.648   1.543  0.1949 -0.1219  0.9629
  342MOL0     C46073   3.979   3.502   1.567  0.2575  0.2322  0.1991
  342MOL0     C46074   3.829   3.462   1.555  0.5984  0.7637 -0.0301
  342MOL0     C46075   3.806   3.327   1.633  0.4390 -0.8694 -0.2951
  342MOL0     C46076   3.856   3.210   1.565  0.6851 -0.3020 -0.2054
  342MOL0     C46077   3.992   3.197   1.490 -0.8611 -0.4991 -0.2608
  342MOL0     C46078   4.043   3.050   1.471 -0.2254 -0.0233 -1.2101
  342MOL0    Cl46079   4.217   3.040   1.430  0.3874  0.2429 -0.3701
  342MOL0     C46080   4.369   3.763   1.739 -0.7662 -0.2338  0.2291
  342MOL0     C46081   4.416   3.872   1.812 -1.0771 -0.3925 -1.1668
  342MOL0     O46082   4.598   4.034   1.977  0.3127 -0.8316  0.8358
  342MOL0     C46083   4.692   4.291   1.982  0.2627 -0.9414  0.3453
  342MOL0     C46084   4.725   4.424   2.004  0.7471 -0.4606 -0.8154
  342MOL0     N46085   4.455   5.256   2.059  0.1924 -0.3687  0.2241
  342MOL0     N46086   4.380   5.322   1.975  0.1334  0.4151 -0.3837
  342MOL0     C46087   3.539   6.038   1.538 -0.5200 -1.9405 -0.3240
  342MOL0     C46088   3.502   6.157   1.480  0.0913  0.1556  0.4010
  342MOL0     C46089   3.480   6.552   1.268 -0.9234  0.7981 -0.3593
  342MOL0     C46090   3.600   6.622   1.307 -0.3787  0.8640 -0.7205
  342MOL0     C46091   3.634   6.749   1.252 -0.6925  0.1313 -0.1488
  342MOL0     C46092   3.553   6.819   1.166 -0.1414  0.4983  0.4282
  342MOL0     O46093   3.587   6.928   1.096 -0.6920 -0.0448 -0.0924
  342MOL0     C46094   3.649   7.038   1.165  0.4137 -0.1154 -0.9212
  342MOL0     C46095   3.677   7.163   1.075 -0.4464  0.2792 -0.2118
  342MOL0     C46096   3.753   7.278   1.146 -0.1105 -0.1444 -0.9955
  342MOL0     C46097   3.655   7.400   1.185 -0.9038 -0.0223  0.3199
  342MOL0     C46098   3.561   7.354   1.290 -0.2110 -0.1326  0.1439
  342MOL0     C46099   3.501   7.299   1.386 -0.2932 -0.3332 -0.3313
  342MOL0     C46100   3.419   6.759   1.139 -0.6475  0.0645  0.0540
  342MOL0     C46101   3.388   6.626   1.192 -0.3303 -0.5613  0.7752
  342MOL0     C46102   3.234   6.587   1.156  0.3926 -0.0591  0.3046
  342MOL0     H46103   3.796   6.221   1.317  2.3308 -0.3042  1.7199
  342MOL0     H46104   3.869   6.039   1.430  0.4416  1.5875  2.4322
  342MOL0     H46105   3.831   5.951   1.741  0.0491  1.5916 -1.2340
  342MOL0     H46106   3.654   5.927   1.790 -0.3541 -1.1730  0.5474
  342MOL0     H46107   3.688   5.691   1.779 -0.4570 -0.4882  2.4940
  342MOL0     H46108   3.786   5.787   1.894  0.0426 -0.4562 -0.3110
  342MOL0     H46109   3.989   5.766   1.745  0.5165 -2.1745  0.8576
  342MOL0     H46110   3.906   5.674   1.633  1.9263 -0.4835 -0.2277
  342MOL0     H46111   3.957   5.595   1.929  4.8078  1.6335 -0.3746
  342MOL0     H46112   3.845   5.505   1.821 -2.3446  3.0286  2.2286
  342MOL0     H46113   4.021   5.458   1.655 -1.5125 -5.2677  0.3516
  342MOL0     H46114   4.128   5.551   1.768 -0.3559 -0.3046  0.7248
  342MOL0     H46115   4.128   5.395   1.924  2.7470  0.0603 -0.9295
  342MOL0     H46116   3.974   5.310   1.867  1.1961 -0.4655  1.5074
  342MOL0     H46117   4.108   5.229   1.668  1.8510  0.2848 -0.6287
  342MOL0     H46118   4.132   5.162   1.824 -1.0872 -0.0266 -0.0283
  342MOL0     H46119   4.341   5.243   1.650  0.3676 -0.3554 -0.4459
  342MOL0     H46120   4.322   5.401   1.733 -0.0305 -0.8270  0.5413
  342MOL0     H46121   4.452   5.068   1.791 -0.5554 -0.9841  1.4377
  342MOL0     H46122   4.683   5.020   1.994  0.5928 -3.0506  0.7108
  342MOL0     H46123   4.620   5.062   2.156  0.1107  2.0258 -2.0131
  342MOL0     H46124   4.417   4.911   2.104  0.8377  0.3041  0.8265
  342MOL0     H46125   4.504   4.868   1.959  0.5461 -0.8977 -0.1309
  342MOL0     H46126   4.517   4.738   2.204 -0.6863  2.3501  1.5742
  342MOL0     H46127   4.645   4.863   2.223  0.4368  0.7331 -1.0985
  342MOL0     H46128   4.738   4.652   2.175 -1.2064 -0.8035 -0.0724
  342MOL0     H46129   4.787   4.796   2.089  1.0559  0.4751  4.5523
  342MOL0     H46130   4.466   4.585   1.876 -1.0522 -0.2064  0.4043
  342MOL0     H46131   4.381   4.353   1.862  0.2974  1.3345 -0.2142
  342MOL0     H46132   4.123   4.038   1.873 -0.2622 -1.1316 -0.0507
  342MOL0     H46133   4.048   3.856   1.726 -0.2210  0.7810 -1.2054
  342MOL0     H46134   4.105   3.811   1.498  0.8210 -1.1963 -2.6591
  342MOL0     H46135   4.118   3.661   1.407 -1.8465  2.0302 -0.8129
  342MOL0     H46136   3.936   3.686   1.640 -4.2472 -0.7294 -0.1600
  342MOL0     H46137   3.900   3.685   1.468  1.8056  0.2602 -0.4162
  342MOL0     H46138   4.036   3.445   1.492 -0.1555  0.1810 -0.0831
  342MOL0     H46139   4.015   3.479   1.667 -1.9427 -1.9904  0.5762
  342MOL0     H46140   3.783   3.451   1.456  0.3586  0.4389  0.1135
  342MOL0     H46141   3.762   3.539   1.596 -1.7972 -0.8471 -0.6978
  342MOL0     H46142   3.699   3.314   1.651  0.2263  3.6001  3.3409
  342MOL0     H46143   3.853   3.342   1.730 -0.5099 -0.7380  0.1597
  342MOL0     H46144   3.847   3.136   1.645  1.6157 -1.3674 -1.0612
  342MOL0     H46145   3.776   3.184   1.495  1.3968 -1.4148 -0.6435
  342MOL0     H46146   4.069   3.243   1.552 -1.7036  1.2668 -0.4763
  342MOL0     H46147   3.980   3.248   1.394  0.7170  0.5726  0.0675
  342MOL0     H46148   4.031   3.010   1.572 -0.9247  3.2514  0.1029
  342MOL0     H46149   3.979   2.986   1.409 -0.2491 -0.1667 -1.0393
  342MOL0     H46150   4.425   3.681   1.697 -3.3400 -1.7499 -0.4693
  342MOL0     H46151   4.522   3.860   1.832 -1.6034 -0.0330  2.6201
  342MOL0     H46152   4.765   4.218   2.017 -1.8861 -3.4241 -0.0317
  342MOL0     H46153   4.816   4.442   2.061 -0.8175  0.4427  1.5348
  342MOL0     H46154   3.475   5.977   1.600 -0.7220 -2.3776 -0.9471
  342MOL0     H46155   3.403   6.194   1.505  1.2047  0.9327  4.1094
  342MOL0     H46156   3.671   6.582   1.378  1.4775  4.7986 -0.1005
  342MOL0     H46157   3.735   6.786   1.270 -0.9534  0.7628  0.0277
  342MOL0     H46158   3.743   7.009   1.212  2.6068  2.6585 -3.2060
  342MOL0     H46159   3.576   7.070   1.239  2.6377  0.1546  1.2944
  342MOL0     H46160   3.579   7.195   1.039 -0.6007  1.7281  1.3503
  342MOL0     H46161   3.739   7.142   0.988  0.0808 -0.7677  0.3929
  342MOL0     H46162   3.829   7.308   1.073  0.6327 -0.0630 -0.2031
  342MOL0     H46163   3.802   7.242   1.237  1.6165 -2.1761 -2.6247
  342MOL0     H46164   3.716   7.483   1.222  1.0735 -0.5785 -1.4954
  342MOL0     H46165   3.591   7.425   1.100 -0.0302 -0.6972 -0.5513
  342MOL0     H46166   3.445   7.251   1.463 -3.0267 -0.1114 -2.0653
  342MOL0     H46167   3.349   6.819   1.082 -1.4377 -0.2180  0.7138
  342MOL0     H46168   3.211   6.639   1.062  3.0281  5.2955  2.2076
  342MOL0     H46169   3.216   6.481   1.135  4.7537 -1.0340  0.5371
  342MOL0     H46170   3.174   6.626   1.238  1.8554 -0.6172  1.6924
  343MOL0     O46171   6.110  11.005   3.955 -0.4173 -0.1480 -0.0400
  343MOL0     C46172   6.030  11.092   3.934  0.4806 -0.7641 -0.5485
  343MOL0     O46173   5.952  11.097   3.828 -0.3696 -0.7202 -0.0889
  343MOL0     C46174   5.959  11.003   3.728 -0.0024  0.0044 -0.5623
  343MOL0     C46175   5.902  10.882   3.760  0.8429  0.4774 -0.5536
  343MOL0     C46176   5.888  10.774   3.671  0.8555 -0.5778  0.4545
  343MOL0     C46177   5.951  10.783   3.544 -0.2684 -0.4738 -0.0504
  343MOL0     O46178   5.967  10.683   3.455 -0.2740 -0.6269  0.9016
  343MOL0     C46179   5.984  10.554   3.517  0.3968  0.0813  0.2735
  343MOL0     C46180   6.133  10.538   3.562  0.8714  0.1785  0.8862
  343MOL0     C46181   6.174  10.401   3.616  0.2284  0.0023 -0.3909
  343MOL0     C46182   6.308  10.366   3.591 -1.1951  1.2241  1.4795
  343MOL0     C46183   6.354  10.226   3.607 -0.1832 -0.2821  0.6650
  343MOL0     C46184   6.280  10.132   3.708  0.5890 -0.6533  0.1876
  343MOL0     C46185   6.356  10.003   3.732 -0.0813  0.2329 -0.3196
  343MOL0     C46186   6.490   9.998   3.805  0.1848 -0.4390  0.4124
  343MOL0     N46187   6.561   9.870   3.770  0.0444 -0.5558 -0.5788
  343MOL0     C46188   6.517   9.755   3.813  0.1682  0.2719 -0.4906
  343MOL0     C46189   6.563   9.660   3.725 -0.4922  0.0449 -0.2743
  343MOL0     C46190   6.550   9.513   3.742 -0.7543  0.4223  0.8452
  343MOL0     C46191   6.504   9.435   3.613 -0.5480 -0.2471  0.2753
  343MOL0     C46192   6.352   9.436   3.620 -1.2516  0.1475  0.0743
  343MOL0     C46193   6.288   9.381   3.492 -0.1019  0.5997 -0.1575
  343MOL0     O46194   6.318   9.238   3.484 -0.0392 -0.0459  0.2179
  343MOL0     C46195   6.367   9.184   3.368  0.3280  0.3882  1.0751
  343MOL0     C46196   6.446   9.073   3.380 -0.1404 -0.3502 -0.7731
  343MOL0     C46197   6.472   8.998   3.266 -0.2846  0.2947  0.2697
  343MOL0     C46198   6.413   9.036   3.135  0.2103  0.3417 -0.2400
  343MOL0     C46199   6.447   8.963   3.014 -0.0205  0.0559  0.2511
  343MOL0     O46200   6.565   8.886   3.009  0.4849  0.1703  0.3887
  343MOL0     C46201   6.583   8.805   2.895 -0.6343 -0.4306  0.4435
  343MOL0     C46202   6.494   8.715   2.834  0.4482  0.0467  0.0602
  343MOL0     C46203   6.533   8.633   2.730  0.7646 -0.3304  0.7104
  343MOL0     C46204   6.656   8.643   2.663 -0.3916 -0.5003 -1.0579
  343MOL0     O46205   6.693   8.574   2.551  0.7196  0.1134  0.4702
  343MOL0     C46206   6.600   8.515   2.465  0.3478 -0.3875  0.1665
  343MOL0     C46207   6.664   8.468   2.331  0.1927  0.2446  1.5159
  343MOL0     C46208   6.793   8.382   2.343  0.1478  0.3808  0.7436
  343MOL0     C46209   6.849   8.352   2.200  0.2143  0.0887 -0.1322
  343MOL0     C46210   6.967   8.260   2.204 -0.0095  0.3901 -0.5148
  343MOL0     C46211   7.015   8.252   2.064 -0.3211 -0.2185 -0.3290
  343MOL0     C46212   7.133   8.154   2.062 -0.0965 -0.2498  0.1504
  343MOL0     C46213   7.183   8.125   1.921  0.0816  0.2727 -0.4370
  343MOL0    Cl46214   7.349   8.080   1.935  0.1482  0.4122 -0.1934
  343MOL0     C46215   6.748   8.728   2.731  0.6670  0.4016 -0.3448
  343MOL0     C46216   6.716   8.808   2.840  0.1971 -0.0765 -0.8400
  343MOL0     O46217   6.372   8.979   2.923  1.2094 -0.5719  0.7108
  343MOL0     C46218   6.330   9.147   3.128 -0.2977  1.0076  0.1804
  343MOL0     C46219   6.314   9.220   3.244  0.2535 -0.0064  0.2103
  343MOL0     N46220   6.625   9.725   3.615 -0.1146 -0.1300 -0.2386
  343MOL0     N46221   6.625   9.851   3.659 -0.2581  0.1305 -0.5586
  343MOL0     C46222   6.024  10.898   3.518 -0.2079  0.2208  0.3572
  343MOL0     C46223   6.027  11.012   3.608 -0.3826  1.0043 -0.2294
  343MOL0     C46224   6.057  11.217   4.014  0.4084 -0.5909 -0.2406
  343MOL0     C46225   6.112  11.205   4.139 -0.6366 -0.3912 -0.3215
  343MOL0     C46226   6.121  11.313   4.233 -0.5331 -0.2952  0.4627
  343MOL0     C46227   6.077  11.443   4.201  0.0981 -1.0503  1.7113
  343MOL0     O46228   6.076  11.549   4.282  0.8495 -0.5612  0.7276
  343MOL0     C46229   6.106  11.536   4.418  0.1498 -0.5658  0.0075
  343MOL0     C46230   6.050  11.651   4.506  0.3649  0.8969 -0.0858
  343MOL0     C46231   5.895  11.670   4.484  0.6312 -0.2672  0.2298
  343MOL0     C46232   5.798  11.547   4.482  0.6712  0.4425 -0.6460
  343MOL0     C46233   5.822  11.468   4.602 -0.1893  0.0455  0.6761
  343MOL0     C46234   5.874  11.399   4.690  0.1996  0.7957  0.0226
  343MOL0     C46235   6.030  11.456   4.072 -0.1677 -0.0006  0.0155
  343MOL0     C46236   6.020  11.356   3.975  0.5679  0.5830 -0.8785
  343MOL0     C46237   5.964  11.395   3.840  0.0995 -0.2262  0.3504
  343MOL0     H46238   5.854  10.889   3.857  1.6597  3.4635 -0.2825
  343MOL0     H46239   5.827  10.686   3.691 -2.6512  1.7029  0.7112
  343MOL0     H46240   5.909  10.530   3.593  1.1881 -0.6563  0.8281
  343MOL0     H46241   5.982  10.469   3.449 -1.1280  0.0258  0.3399
  343MOL0     H46242   6.154  10.608   3.643 -0.9489  1.1779  0.5681
  343MOL0     H46243   6.189  10.559   3.471 -1.1815 -1.1312 -0.7818
  343MOL0     H46244   6.123  10.324   3.557  0.5813  2.2040 -3.8421
  343MOL0     H46245   6.140  10.398   3.720 -3.5229  0.9018 -1.4545
  343MOL0     H46246   6.338  10.405   3.493 -1.3772  1.0801  1.3682
  343MOL0     H46247   6.368  10.419   3.666 -0.1912  0.0077  1.5570
  343MOL0     H46248   6.346  10.186   3.505 -0.1686  0.9656  0.1520
  343MOL0     H46249   6.459  10.226   3.639  0.1102 -1.6428 -0.1829
  343MOL0     H46250   6.253  10.181   3.802 -0.2352 -0.4217 -0.1587
  343MOL0     H46251   6.185  10.109   3.659  0.3655  1.3982 -0.4505
  343MOL0     H46252   6.362   9.956   3.634  1.0545  4.6700 -2.6288
  343MOL0     H46253   6.282   9.932   3.771  0.8274 -1.9903 -2.3830
  343MOL0     H46254   6.563  10.062   3.754 -3.0805 -1.2915 -6.5626
  343MOL0     H46255   6.480  10.025   3.910 -0.6652 -1.3626  0.5773
  343MOL0     H46256   6.475   9.735   3.911  4.1619  0.9804  1.5986
  343MOL0     H46257   6.654   9.480   3.750 -0.4292  0.7316 -1.4338
  343MOL0     H46258   6.496   9.490   3.833  1.2813  1.8383  2.5271
  343MOL0     H46259   6.535   9.476   3.516 -2.5832  0.1354 -0.2493
  343MOL0     H46260   6.538   9.331   3.613 -1.1708 -0.5747  3.8248
  343MOL0     H46261   6.321   9.537   3.649 -0.9817  0.5240 -0.9203
  343MOL0     H46262   6.329   9.363   3.698  1.4957 -0.9544 -0.0465
  343MOL0     H46263   6.318   9.440   3.405  1.4643  0.7878  0.4755
  343MOL0     H46264   6.179   9.378   3.498 -0.3526  2.6851 -2.3319
  343MOL0     H46265   6.483   9.042   3.478 -2.0485  0.5632  0.2892
  343MOL0     H46266   6.538   8.911   3.270 -0.5471 -0.0448 -1.7245
  343MOL0     H46267   6.395   8.692   2.871  0.9066 -3.3754 -0.5254
  343MOL0     H46268   6.467   8.555   2.692  2.1239  0.4010 -3.7232
  343MOL0     H46269   6.542   8.434   2.510  1.4956 -1.2987  0.0455
  343MOL0     H46270   6.537   8.603   2.447  0.9950  0.1552  0.5268
  343MOL0     H46271   6.586   8.406   2.288 -0.1572  0.3852  1.9458
  343MOL0     H46272   6.696   8.554   2.270  1.4961 -0.7374  0.7540
  343MOL0     H46273   6.860   8.423   2.420 -0.2782  1.8251  0.3762
  343MOL0     H46274   6.762   8.286   2.383 -2.0327  0.8959  0.3879
  343MOL0     H46275   6.873   8.446   2.151  1.4925  1.1542  2.3398
  343MOL0     H46276   6.766   8.312   2.141  0.4390 -0.4595 -0.0834
  343MOL0     H46277   6.931   8.161   2.230  2.1651 -0.6497 -1.1920
  343MOL0     H46278   7.028   8.305   2.283 -1.5750 -1.2089  1.7302
  343MOL0     H46279   6.925   8.221   2.010  0.0014  1.6166 -2.0454
  343MOL0     H46280   7.045   8.341   2.007 -1.2321 -1.0940 -2.2934
  343MOL0     H46281   7.109   8.069   2.126 -1.2392  1.5653  2.2451
  343MOL0     H46282   7.218   8.195   2.117 -1.2024 -0.8836  2.4761
  343MOL0     H46283   7.112   8.056   1.875 -3.8864  2.0445  2.4719
  343MOL0     H46284   7.175   8.224   1.876  0.4968  0.7204  0.4567
  343MOL0     H46285   6.850   8.712   2.700  1.2989 -0.1957  1.8492
  343MOL0     H46286   6.795   8.863   2.890  0.1443  0.5324 -1.4104
  343MOL0     H46287   6.277   9.178   3.038 -3.2179  0.1718  1.5152
  343MOL0     H46288   6.243   9.302   3.243  0.3375  0.1269 -2.2093
  343MOL0     H46289   6.088  10.909   3.431  1.4578  0.9247  1.6185
  343MOL0     H46290   6.076  11.103   3.576  1.1255  1.5930  3.2863
  343MOL0     H46291   6.154  11.112   4.177 -0.4277  0.6666  2.2368
  343MOL0     H46292   6.165  11.295   4.330  0.4306  1.4343  0.3969
  343MOL0     H46293   6.215  11.532   4.429 -0.1320 -1.2305  4.3318
  343MOL0     H46294   6.071  11.440   4.458  2.1809 -2.6824 -2.8769
  343MOL0     H46295   6.109  11.740   4.485  1.8332  0.0533  0.3176
  343MOL0     H46296   6.075  11.622   4.608  2.0100  3.7329  0.4147
  343MOL0     H46297   5.879  11.719   4.387  0.1078 -0.8691  0.0054
  343MOL0     H46298   5.878  11.748   4.559  4.2738  2.8504 -1.8024
  343MOL0     H46299   5.696  11.586   4.474  0.6330  0.1497 -1.7096
  343MOL0     H46300   5.822  11.480   4.399 -1.5941 -1.2307 -0.0379
  343MOL0     H46301   5.904  11.349   4.779  0.5045  1.9693  0.5922
  343MOL0     H46302   5.990  11.555   4.052  1.1710  0.6973  0.6908
  343MOL0     H46303   5.986  11.323   3.760  0.3642  0.9812 -0.7056
  343MOL0     H46304   5.855  11.387   3.839  0.0683  0.0287 -1.2276
  343MOL0     H46305   6.014  11.490   3.816 -1.9452  0.7691 -0.1983
  344MOL0     O46306   5.737   4.734   8.076  0.1555 -0.0540 -0.1095
  344MOL0     C46307   5.623   4.712   8.027 -0.2871 -0.0877  0.2894
  344MOL0     O46308   5.551   4.801   7.949 -0.3213 -0.1273  0.0394
  344MOL0     C46309   5.606   4.922   7.933 -0.2246 -0.7311  0.4247
  344MOL0     C46310   5.614   4.971   7.800 -0.6827  0.9351 -0.5176
  344MOL0     C46311   5.667   5.096   7.766 -0.9322  0.6457 -0.0487
  344MOL0     C46312   5.710   5.179   7.870  0.7170 -0.0296  0.3858
  344MOL0     O46313   5.752   5.300   7.834 -0.1654 -0.3359 -0.3737
  344MOL0     C46314   5.877   5.294   7.768  0.3790 -0.8527 -0.0915
  344MOL0     C46315   5.993   5.307   7.867 -0.0432  0.0526  0.3922
  344MOL0     C46316   5.976   5.414   7.977  0.1806 -1.1391  0.7219
  344MOL0     C46317   5.947   5.559   7.913  0.5501 -0.4450  0.1862
  344MOL0     C46318   5.929   5.669   8.027 -0.3366  0.7671  0.0212
  344MOL0     C46319   5.797   5.658   8.107 -1.1337 -0.2942 -0.9062
  344MOL0     C46320   5.820   5.604   8.249  0.1092 -0.4537  0.5393
  344MOL0     C46321   5.682   5.579   8.304  0.0284 -0.6566  0.0308
  344MOL0     N46322   5.687   5.546   8.444 -0.0223  0.2995 -0.2625
  344MOL0     C46323   5.674   5.416   8.487 -0.5005 -0.0585  0.1866
  344MOL0     C46324   5.657   5.439   8.628  0.0312  0.5066 -0.2584
  344MOL0     C46325   5.662   5.324   8.736  0.0968  0.3908  0.4901
  344MOL0     C46326   5.540   5.234   8.753 -0.4149 -0.1592  0.0352
  344MOL0     C46327   5.441   5.278   8.856  0.6012  0.2020  0.6454
  344MOL0     C46328   5.330   5.169   8.863 -0.1397  0.5868  0.3732
  344MOL0     O46329   5.382   5.049   8.931 -0.0802 -0.1474 -0.4272
  344MOL0     C46330   5.311   4.936   8.960  0.9357 -0.4534 -0.6124
  344MOL0     C46331   5.393   4.828   8.999  0.8146  0.8421  0.1155
  344MOL0     C46332   5.335   4.711   9.042 -0.0489 -1.3109  0.7273
  344MOL0     C46333   5.196   4.696   9.052  0.2742  0.9011 -1.3028
  344MOL0     C46334   5.140   4.571   9.108 -0.2410 -0.1366  0.5443
  344MOL0     O46335   5.224   4.466   9.133  0.1381  0.0297  0.0449
  344MOL0     C46336   5.176   4.343   9.181 -0.4635  0.1972 -0.8010
  344MOL0     C46337   5.059   4.271   9.144 -0.0027  0.3769  0.1846
  344MOL0     C46338   5.036   4.138   9.184 -0.2486 -0.2241 -1.1338
  344MOL0     C46339   5.129   4.069   9.259 -0.0136 -0.2327 -0.6294
  344MOL0     O46340   5.123   3.931   9.282  0.5207 -0.8219  0.6019
  344MOL0     C46341   5.148   3.890   9.407  0.8210 -0.9143 -0.7239
  344MOL0     C46342   5.052   3.944   9.511  0.5995 -1.0239 -0.3360
  344MOL0     C46343   4.903   3.947   9.482  1.0441 -1.1402 -1.1525
  344MOL0     C46344   4.830   4.028   9.587 -0.1078  0.6276 -0.0309
  344MOL0     C46345   4.670   4.007   9.583  1.0434  0.5621 -0.6058
  344MOL0     C46346   4.610   4.071   9.705 -0.4649  0.7618 -0.2681
  344MOL0     C46347   4.494   4.175   9.675 -0.0404  0.6022  0.3566
  344MOL0     C46348   4.544   4.305   9.620 -0.3727  0.0463  0.5793
  344MOL0    Cl46349   4.616   4.403   9.764 -0.1256 -0.1703 -0.2912
  344MOL0     C46350   5.249   4.136   9.299 -0.3062  0.5728 -0.9001
  344MOL0     C46351   5.268   4.265   9.253 -0.3193  0.5621  0.6918
  344MOL0     O46352   5.021   4.569   9.114 -0.2793 -0.1453  0.6766
  344MOL0     C46353   5.121   4.800   9.001  0.2244 -0.6766  0.3052
  344MOL0     C46354   5.170   4.918   8.951  0.4076 -0.9653  0.7410
  344MOL0     N46355   5.642   5.577   8.661 -0.4891  0.4743 -0.1676
  344MOL0     N46356   5.672   5.638   8.549 -0.2821  1.1356 -0.2853
  344MOL0     C46357   5.712   5.131   8.000  0.2439  0.5685 -0.0852
  344MOL0     C46358   5.663   5.002   8.034 -0.5254 -0.5878  0.0126
  344MOL0     C46359   5.570   4.584   8.034 -0.8797  0.1499  0.5447
  344MOL0     C46360   5.515   4.523   7.917  0.3081 -0.2935  0.4906
  344MOL0     C46361   5.439   4.406   7.933 -1.2940  0.0324  0.9406
  344MOL0     C46362   5.444   4.342   8.056  0.4596 -0.1434  1.2744
  344MOL0     O46363   5.370   4.237   8.092  0.1146 -0.1144 -0.1831
  344MOL0     C46364   5.332   4.141   7.994 -0.2596 -0.2774 -0.5116
  344MOL0     C46365   5.293   4.004   8.056  0.2402  0.2654 -0.0512
  344MOL0     C46366   5.420   3.924   8.093 -0.8161 -0.4068  0.7858
  344MOL0     C46367   5.392   3.814   8.204  0.3268  0.2771  0.3190
  344MOL0     C46368   5.262   3.754   8.176  0.5206 -0.2213 -0.2004
  344MOL0     C46369   5.152   3.701   8.127 -0.9284  0.1256 -0.0948
  344MOL0     C46370   5.510   4.399   8.158  0.2464  0.1160 -0.7113
  344MOL0     C46371   5.572   4.518   8.154 -0.4654 -0.3054  0.2964
  344MOL0     C46372   5.636   4.577   8.282 -0.0283  0.7745 -1.2153
  344MOL0     H46373   5.589   4.902   7.720  0.8866 -0.9468  0.5374
  344MOL0     H46374   5.674   5.127   7.662  0.8218  1.2874  0.2177
  344MOL0     H46375   5.883   5.203   7.707 -3.1495 -0.2985 -1.4796
  344MOL0     H46376   5.883   5.374   7.694 -3.2703  0.9312  1.3054
  344MOL0     H46377   6.087   5.329   7.815 -1.3276  1.3516 -1.4984
  344MOL0     H46378   6.003   5.215   7.924 -1.5325  1.9581  4.0183
  344MOL0     H46379   6.071   5.413   8.032  0.5257 -3.6419  0.1872
  344MOL0     H46380   5.893   5.392   8.044 -1.0370 -0.1165 -0.4049
  344MOL0     H46381   6.027   5.593   7.848  1.5565  3.7508  3.1718
  344MOL0     H46382   5.851   5.555   7.860 -0.6452 -1.7342  2.3120
  344MOL0     H46383   6.013   5.659   8.096 -1.4457 -0.0659  1.3141
  344MOL0     H46384   5.938   5.760   7.967 -2.7689  0.3903 -1.0428
  344MOL0     H46385   5.737   5.750   8.103  0.2268  0.6123 -5.0421
  344MOL0     H46386   5.741   5.581   8.054 -1.2463 -1.2740  0.5683
  344MOL0     H46387   5.882   5.671   8.310  1.5930 -0.3579 -0.9964
  344MOL0     H46388   5.877   5.511   8.242 -0.0418 -0.4981 -0.0846
  344MOL0     H46389   5.612   5.661   8.288  0.3130 -0.9433 -3.4448
  344MOL0     H46390   5.639   5.493   8.252 -0.9109 -0.1179 -0.1028
  344MOL0     H46391   5.692   5.323   8.433  1.8087  0.0993  0.5656
  344MOL0     H46392   5.748   5.257   8.732 -1.6730 -2.2608  3.0019
  344MOL0     H46393   5.667   5.389   8.823 -1.5151 -0.1944  1.0430
  344MOL0     H46394   5.504   5.210   8.652  2.7936  0.5463 -1.4086
  344MOL0     H46395   5.584   5.144   8.797  0.2520  1.2846  2.5304
  344MOL0     H46396   5.391   5.368   8.820 -0.4532 -0.8236 -0.5183
  344MOL0     H46397   5.490   5.295   8.953 -2.8968  0.6333  2.5155
  344MOL0     H46398   5.284   5.156   8.764  0.7555  4.3780 -0.6975
  344MOL0     H46399   5.252   5.204   8.931 -1.6319  1.8658 -1.8792
  344MOL0     H46400   5.499   4.810   8.988  0.2810 -3.6236  0.4411
  344MOL0     H46401   5.388   4.617   9.052  2.3209  0.0342  1.5767
  344MOL0     H46402   4.992   4.306   9.066  1.2492 -1.4176 -1.7999
  344MOL0     H46403   4.954   4.078   9.147 -1.1505  1.3524 -1.7954
  344MOL0     H46404   5.121   3.787   9.386  2.0253 -1.1005 -1.4619
  344MOL0     H46405   5.254   3.895   9.434  0.9162 -1.1400 -1.0578
  344MOL0     H46406   5.074   3.903   9.610 -2.1232  1.4016  1.4478
  344MOL0     H46407   5.064   4.051   9.531  1.6350 -1.7529  4.0184
  344MOL0     H46408   4.872   3.980   9.382 -2.0773  1.3197  0.4053
  344MOL0     H46409   4.865   3.849   9.512 -0.5338  0.3683  2.4024
  344MOL0     H46410   4.863   4.133   9.585  4.4221 -0.4419  3.2528
  344MOL0     H46411   4.865   3.982   9.680 -1.5018 -1.0993 -0.3037
  344MOL0     H46412   4.660   3.899   9.575  0.0399  0.5359  0.6808
  344MOL0     H46413   4.625   4.058   9.497 -1.9850 -2.2697 -0.8825
  344MOL0     H46414   4.583   3.990   9.772  1.6929 -0.0242 -0.2552
  344MOL0     H46415   4.680   4.125   9.770 -1.4072  0.3196  1.1541
  344MOL0     H46416   4.430   4.184   9.764 -1.5416  0.3162 -0.6579
  344MOL0     H46417   4.419   4.131   9.609 -0.7870 -0.7559  2.0381
  344MOL0     H46418   4.615   4.289   9.539  0.1047  0.2027  0.9610
  344MOL0     H46419   4.450   4.350   9.587 -0.7077 -0.7583  0.4103
  344MOL0     H46420   5.325   4.083   9.354  1.6947  1.4915 -2.6616
  344MOL0     H46421   5.362   4.315   9.275  0.2331  1.2153 -2.6268
  344MOL0     H46422   5.013   4.800   9.013  0.2664  0.4423  0.8181
  344MOL0     H46423   5.116   5.002   8.910  1.3633 -1.3744 -1.5329
  344MOL0     H46424   5.740   5.191   8.087 -0.4144 -0.0756  0.5899
  344MOL0     H46425   5.649   4.983   8.140  0.3835  2.4226  0.7635
  344MOL0     H46426   5.518   4.569   7.818  2.6667 -2.7775 -0.7063
  344MOL0     H46427   5.380   4.369   7.850 -0.9489 -1.6907  1.4377
  344MOL0     H46428   5.420   4.127   7.930 -1.9812 -0.0989 -3.0552
  344MOL0     H46429   5.241   4.179   7.949 -0.6807 -2.0944 -1.2892
  344MOL0     H46430   5.229   3.954   7.983 -2.7259  0.0874  2.4481
  344MOL0     H46431   5.245   4.019   8.154  1.6848  0.9791  0.5759
  344MOL0     H46432   5.496   3.987   8.139  1.4467 -2.2960 -0.1533
  344MOL0     H46433   5.474   3.887   8.005  0.7972  1.9906  0.6781
  344MOL0     H46434   5.476   3.745   8.213  0.1656  0.0716  0.2375
  344MOL0     H46435   5.376   3.865   8.300 -0.6825  2.1933 -0.7931
  344MOL0     H46436   5.056   3.668   8.093 -1.1952 -1.8750  2.3521
  344MOL0     H46437   5.494   4.355   8.256 -2.0959 -0.8111 -1.4260
  344MOL0     H46438   5.621   4.685   8.292 -0.2941  1.2050 -5.0799
  344MOL0     H46439   5.597   4.536   8.376  0.1469  2.9457 -0.1267
  344MOL0     H46440   5.740   4.545   8.290 -0.4404 -1.0314 -2.4512
  345MOL0     O46441   4.172   2.871   9.112  1.0004 -0.4797 -0.2150
  345MOL0     C46442   4.250   2.788   9.164  0.3320  0.7796  0.1911
  345MOL0     O46443   4.379   2.822   9.200  0.8137 -0.1555  0.1577
  345MOL0     C46444   4.465   2.719   9.233 -0.5635  0.2946  0.1636
  345MOL0     C46445   4.550   2.665   9.138  0.0965  0.0662 -0.2593
  345MOL0     C46446   4.643   2.568   9.172 -0.8458  0.5777 -1.2806
  345MOL0     C46447   4.642   2.501   9.296 -0.2051  0.4050  0.3403
  345MOL0     O46448   4.729   2.398   9.341  0.0556  0.3924  0.2588
  345MOL0     C46449   4.869   2.432   9.340  0.2892  0.2244  0.7505
  345MOL0     C46450   4.939   2.368   9.222  0.0005 -0.6948  0.7921
  345MOL0     C46451   4.940   2.219   9.228 -0.9213 -0.0311 -0.7391
  345MOL0     C46452   4.984   2.148   9.103 -0.8627 -0.3921  0.2035
  345MOL0     C46453   4.994   2.001   9.133 -0.3562 -0.3719 -0.2153
  345MOL0     C46454   5.049   1.929   9.009  0.8444  0.2508  0.0885
  345MOL0     C46455   4.926   1.904   8.908 -0.5643  0.5415 -0.5791
  345MOL0     C46456   4.939   1.794   8.800 -0.0369  0.0786 -0.0808
  345MOL0     N46457   5.064   1.792   8.716  0.2126  0.2115 -0.6975
  345MOL0     C46458   5.077   1.872   8.615 -0.2107 -1.0116 -0.6017
  345MOL0     C46459   5.196   1.844   8.555 -0.5019  0.2648 -0.7232
  345MOL0     C46460   5.256   1.902   8.427  0.3343 -0.0393 -0.5063
  345MOL0     C46461   5.334   2.033   8.432  0.3911  0.5265  0.1349
  345MOL0     C46462   5.245   2.159   8.451 -0.1051  0.1141  0.3186
  345MOL0     C46463   5.320   2.279   8.482  0.3890 -0.5216 -0.4073
  345MOL0     O46464   5.314   2.291   8.623  0.5547  0.8680  0.0883
  345MOL0     C46465   5.248   2.385   8.684  0.0392 -0.1378  0.2585
  345MOL0     C46466   5.221   2.354   8.818  0.4246 -0.8120 -0.2107
  345MOL0     C46467   5.167   2.439   8.908 -0.3707 -0.3877  0.2112
  345MOL0     C46468   5.159   2.576   8.875  0.0481  0.4610 -0.3588
  345MOL0     C46469   5.126   2.669   8.984 -0.2114 -0.0378  0.1241
  345MOL0     O46470   5.099   2.611   9.106  0.4708  0.0268  0.0395
  345MOL0     C46471   5.069   2.693   9.214 -0.3584  0.5223 -0.3723
  345MOL0     C46472   4.991   2.810   9.200 -0.3890  1.1339  0.1867
  345MOL0     C46473   4.945   2.887   9.313  1.0896  0.0667 -0.0304
  345MOL0     C46474   4.977   2.855   9.443 -0.6768 -0.5324  0.2677
  345MOL0     O46475   4.925   2.910   9.554  1.2570  0.7922  0.2407
  345MOL0     C46476   4.814   3.004   9.558  0.2159  0.4609  0.5558
  345MOL0     C46477   4.685   2.939   9.502  0.3042 -0.8318 -0.4810
  345MOL0     C46478   4.572   3.044   9.513  0.1234 -0.7363  0.6031
  345MOL0     C46479   4.558   3.142   9.395 -0.0359  0.1283  0.0897
  345MOL0     C46480   4.687   3.232   9.380 -0.1288  0.7252  0.1370
  345MOL0     C46481   4.657   3.355   9.298  0.9893  0.3217  0.9424
  345MOL0     C46482   4.783   3.451   9.298 -0.8376  0.3666  1.1434
  345MOL0     C46483   4.760   3.580   9.208 -0.5627 -0.3704 -0.2195
  345MOL0    Cl46484   4.790   3.550   9.043 -0.0390 -0.0016 -0.1759
  345MOL0     C46485   5.062   2.741   9.463 -0.9540 -0.2957  0.2769
  345MOL0     C46486   5.106   2.661   9.346  0.2834 -1.0940  0.0603
  345MOL0     O46487   5.143   2.788   8.961 -0.4787  0.7361 -0.0351
  345MOL0     C46488   5.198   2.613   8.749  0.4044 -0.5720  0.4101
  345MOL0     C46489   5.234   2.522   8.652 -0.3978  0.5104 -0.1611
  345MOL0     N46490   5.249   1.745   8.633  0.0960 -0.1124  0.3692
  345MOL0     N46491   5.169   1.710   8.722  0.6061 -0.0218 -0.8253
  345MOL0     C46492   4.560   2.554   9.393  0.4918  0.7159  0.9470
  345MOL0     C46493   4.474   2.662   9.363 -0.2719 -0.2241 -0.1210
  345MOL0     C46494   4.188   2.652   9.201  0.1134  0.1235  0.5023
  345MOL0     C46495   4.108   2.626   9.318 -0.1348  0.3864 -0.8003
  345MOL0     C46496   4.046   2.500   9.339  0.8453  0.3366  1.3790
  345MOL0     C46497   4.069   2.392   9.246  1.1181 -0.7171 -0.5088
  345MOL0     O46498   3.993   2.280   9.258  0.0195  0.0747 -0.7635
  345MOL0     C46499   4.003   2.176   9.160 -0.6458 -0.4938 -0.3561
  345MOL0     C46500   3.889   2.072   9.169 -0.3045  0.4969  0.0922
  345MOL0     C46501   3.750   2.133   9.180 -0.4412 -0.8901  0.1292
  345MOL0     C46502   3.650   2.036   9.117 -0.3059  1.2963 -0.4930
  345MOL0     C46503   3.512   2.076   9.143  1.2275 -0.0950  0.1549
  345MOL0     C46504   3.394   2.101   9.173  0.4605 -0.6549 -0.2184
  345MOL0     C46505   4.138   2.420   9.128 -1.1688 -1.3167  0.9370
  345MOL0     C46506   4.190   2.547   9.107 -0.6876  0.2131 -0.6063
  345MOL0     C46507   4.258   2.568   8.971  0.4653 -0.0080 -0.6992
  345MOL0     H46508   4.533   2.705   9.038 -0.5462 -0.2515 -0.2853
  345MOL0     H46509   4.708   2.536   9.091  0.9646  1.6956 -0.3318
  345MOL0     H46510   4.881   2.541   9.333 -0.0964  0.1770 -2.2284
  345MOL0     H46511   4.903   2.392   9.435  2.1003  0.0504  0.0868
  345MOL0     H46512   5.043   2.403   9.221  0.1272 -0.8899  3.1971
  345MOL0     H46513   4.872   2.398   9.141  0.2593 -2.5056 -0.1581
  345MOL0     H46514   4.838   2.196   9.261 -2.0983  0.0916 -3.9831
  345MOL0     H46515   5.000   2.179   9.311 -0.6648  0.5333 -0.6473
  345MOL0     H46516   4.919   2.163   9.016 -0.9795 -0.6029  0.2538
  345MOL0     H46517   5.085   2.182   9.081 -0.7333 -1.6155 -1.2201
  345MOL0     H46518   5.065   1.992   9.216 -2.4282  2.1058  2.0068
  345MOL0     H46519   4.896   1.961   9.156 -1.5210  1.2884 -1.9785
  345MOL0     H46520   5.124   1.980   8.948  2.0624 -0.7435  0.7141
  345MOL0     H46521   5.082   1.831   9.044 -1.4461 -2.0349 -3.4706
  345MOL0     H46522   4.907   1.995   8.850 -1.3865  0.4361 -0.4904
  345MOL0     H46523   4.831   1.884   8.958 -1.2146 -0.6128 -2.1629
  345MOL0     H46524   4.929   1.694   8.842 -1.2323 -0.3197 -1.2461
  345MOL0     H46525   4.850   1.797   8.736 -0.6969  1.2559  0.8445
  345MOL0     H46526   5.012   1.949   8.576  1.4869  1.5680  1.3501
  345MOL0     H46527   5.337   1.833   8.401  1.4056  1.0640 -0.1475
  345MOL0     H46528   5.185   1.902   8.343  1.1185 -2.8310 -1.2772
  345MOL0     H46529   5.391   2.015   8.523 -0.6928 -0.5396  0.6195
  345MOL0     H46530   5.399   2.048   8.345  3.0759  0.8331  2.0664
  345MOL0     H46531   5.169   2.136   8.526  0.5390  0.4937  1.1019
  345MOL0     H46532   5.202   2.185   8.354  2.6026  1.3184 -0.6649
  345MOL0     H46533   5.280   2.360   8.420  0.8507  0.3557  0.4144
  345MOL0     H46534   5.425   2.265   8.454 -0.3180 -3.1324 -2.0387
  345MOL0     H46535   5.230   2.247   8.837  2.8646 -0.1053  4.1407
  345MOL0     H46536   5.127   2.406   9.003  0.2153  3.2166  1.8736
  345MOL0     H46537   4.963   2.838   9.099 -3.4307  1.9084  1.1451
  345MOL0     H46538   4.881   2.969   9.284 -2.6354 -2.6409 -0.2454
  345MOL0     H46539   4.798   3.027   9.664  2.3800 -4.1795  2.1955
  345MOL0     H46540   4.839   3.098   9.508  0.2153 -0.1798 -0.6750
  345MOL0     H46541   4.703   2.899   9.402 -2.5230 -1.4828 -0.7968
  345MOL0     H46542   4.669   2.852   9.566 -0.9333 -0.7958 -0.7247
  345MOL0     H46543   4.481   2.984   9.510 -0.6192  0.4094 -1.2324
  345MOL0     H46544   4.571   3.089   9.613  0.5655 -5.5517  3.1037
  345MOL0     H46545   4.486   3.221   9.421  5.0135  5.2014  0.4691
  345MOL0     H46546   4.531   3.095   9.300  0.7801  2.5782 -1.4511
  345MOL0     H46547   4.766   3.172   9.334  0.7516  1.4135  0.7108
  345MOL0     H46548   4.716   3.283   9.473 -0.7663  3.1363 -0.9035
  345MOL0     H46549   4.623   3.323   9.199 -0.9067  0.7249  1.4236
  345MOL0     H46550   4.573   3.405   9.347 -0.2418 -0.0712 -0.6670
  345MOL0     H46551   4.875   3.410   9.257 -1.7241  1.1961 -1.9107
  345MOL0     H46552   4.812   3.476   9.400 -0.1532 -0.7592  1.2381
  345MOL0     H46553   4.654   3.607   9.205 -0.1680  1.1456 -1.1712
  345MOL0     H46554   4.807   3.667   9.255  1.8726 -1.4268 -0.5481
  345MOL0     H46555   5.095   2.703   9.559 -2.4795 -0.8891  0.5975
  345MOL0     H46556   5.167   2.571   9.354  2.2756 -0.6468 -5.4547
  345MOL0     H46557   5.184   2.715   8.712  0.7829 -1.1579 -1.4437
  345MOL0     H46558   5.240   2.554   8.548 -2.0355  2.4293  0.2625
  345MOL0     H46559   4.560   2.515   9.495 -0.0084  2.0718  1.4921
  345MOL0     H46560   4.419   2.705   9.446  1.0008 -2.0776  1.7984
  345MOL0     H46561   4.090   2.701   9.395 -2.2300  0.2989 -1.1376
  345MOL0     H46562   3.958   2.492   9.403  0.3709 -0.4912  0.6534
  345MOL0     H46563   4.101   2.128   9.168  0.2344  0.8257 -2.4515
  345MOL0     H46564   4.003   2.221   9.061 -2.1314  1.5304  0.4965
  345MOL0     H46565   3.913   1.996   9.245  1.1743  1.6177  0.7817
  345MOL0     H46566   3.896   2.023   9.071 -0.1186 -0.4765  0.5816
  345MOL0     H46567   3.744   2.235   9.140  1.8645 -1.3299 -1.5745
  345MOL0     H46568   3.738   2.141   9.289  3.4360  0.3036  0.6525
  345MOL0     H46569   3.667   2.026   9.010 -1.1427  1.1091 -0.6156
  345MOL0     H46570   3.672   1.943   9.171 -0.9689  2.4953  2.0163
  345MOL0     H46571   3.296   2.131   9.202  0.0718 -0.4938 -1.6266
  345MOL0     H46572   4.164   2.346   9.053  1.2460  1.5993 -1.3305
  345MOL0     H46573   4.225   2.665   8.932 -2.0457  0.0651  1.3605
  345MOL0     H46574   4.366   2.558   8.987  0.2463 -1.4378  0.0769
  345MOL0     H46575   4.238   2.494   8.892  2.1893  1.4485 -2.6191
  346MOL0     O46576   3.334   1.059   8.723 -1.1947  0.2264  0.2639
  346MOL0     C46577   3.389   1.121   8.625  0.0383  0.5937 -0.6693
  346MOL0     O46578   3.385   1.076   8.502 -0.1464 -0.3843 -0.0701
  346MOL0     C46579   3.317   0.961   8.469  0.8523  0.2578 -0.7750
  346MOL0     C46580   3.378   0.853   8.401 -0.2091  0.4683 -0.6862
  346MOL0     C46581   3.316   0.731   8.369  0.2792 -0.2617  0.7918
  346MOL0     C46582   3.175   0.725   8.394 -0.6841  0.0818 -0.0613
  346MOL0     O46583   3.109   0.608   8.365  1.2902 -0.0145 -1.0545
  346MOL0     C46584   3.004   0.555   8.454 -0.2285 -1.2992  0.6013
  346MOL0     C46585   2.920   0.474   8.353 -0.1750 -0.1926 -0.3433
  346MOL0     C46586   3.002   0.359   8.302 -0.2058  0.4394 -1.0298
  346MOL0     C46587   2.914   0.264   8.220 -0.7137  0.5558 -0.2715
  346MOL0     C46588   3.002   0.147   8.196 -0.7603  0.3962 -0.0381
  346MOL0     C46589   2.938   0.044   8.105  0.4234 -0.0614 -1.2618
  346MOL0     C46590   3.041  -0.076   8.103  0.7056 -0.0696  0.0377
  346MOL0     C46591   2.995  -0.185   8.198 -0.0117 -0.1776 -0.0251
  346MOL0     N46592   2.861  -0.226   8.178 -0.2131 -0.3339 -0.4681
  346MOL0     C46593   2.807  -0.259   8.057  0.3259  0.1305  0.5219
  346MOL0     C46594   2.687  -0.317   8.092 -0.7423  2.0028 -0.0836
  346MOL0     C46595   2.586  -0.385   8.005 -1.4680 -0.6495  0.4000
  346MOL0     C46596   2.589  -0.535   8.024 -0.1094  0.5071 -1.2229
  346MOL0     C46597   2.506  -0.606   7.915 -0.5107  0.5002 -0.3771
  346MOL0     C46598   2.509  -0.760   7.916  0.7906  0.2382  0.4180
  346MOL0     O46599   2.622  -0.784   7.830 -0.0909 -0.3188 -0.3632
  346MOL0     C46600   2.705  -0.888   7.852  0.1304  0.4822  0.3165
  346MOL0     C46601   2.774  -0.946   7.743 -0.6526 -0.6347  0.6756
  346MOL0     C46602   2.868  -1.049   7.759 -0.7738 -0.1434 -0.5045
  346MOL0     C46603   2.893  -1.115   7.879  0.4465  0.5028 -0.2348
  346MOL0     C46604   2.978  -1.230   7.896 -0.1578 -0.1915  0.7459
  346MOL0     O46605   2.996  -1.280   8.022  0.3373  0.6830 -0.3196
  346MOL0     C46606   3.099  -1.373   8.028  0.1134  0.5029 -0.3777
  346MOL0     C46607   3.077  -1.503   7.987  0.4881 -0.3856  0.2772
  346MOL0     C46608   3.170  -1.608   7.992 -0.6708 -0.2900  0.8701
  346MOL0     C46609   3.299  -1.577   8.041 -0.0292  0.1988 -0.2164
  346MOL0     O46610   3.400  -1.669   8.032  0.1575  0.4402  0.8303
  346MOL0     C46611   3.382  -1.801   7.984  0.8345  1.5048  0.1610
  346MOL0     C46612   3.294  -1.897   8.071  0.0739 -0.0961  0.7913
  346MOL0     C46613   3.319  -1.886   8.220 -0.0344  0.9087 -0.7302
  346MOL0     C46614   3.215  -1.978   8.279 -0.7226 -0.5945 -0.2489
  346MOL0     C46615   3.233  -1.986   8.432  0.0811 -0.0962  0.7538
  346MOL0     C46616   3.155  -2.103   8.497 -0.6593  0.1588  0.2219
  346MOL0     C46617   3.003  -2.110   8.486  0.4043 -1.1882  0.4258
  346MOL0     C46618   2.957  -2.247   8.536  0.1116 -0.1459 -0.5547
  346MOL0    Cl46619   2.779  -2.245   8.565 -0.1506  0.0613  0.4720
  346MOL0     C46620   3.318  -1.450   8.102  0.2622 -0.1375 -0.5757
  346MOL0     C46621   3.222  -1.347   8.095  0.8511 -0.1631  0.7866
  346MOL0     O46622   3.022  -1.275   7.791 -0.7527  0.2911 -0.5992
  346MOL0     C46623   2.826  -1.055   7.986 -0.2987 -0.6445  0.3684
  346MOL0     C46624   2.732  -0.955   7.976  0.0269  0.0697 -0.5913
  346MOL0     N46625   2.676  -0.320   8.231 -0.3811 -0.5030  0.2519
  346MOL0     N46626   2.775  -0.256   8.272  0.0937 -0.0883 -0.4937
  346MOL0     C46627   3.108   0.833   8.458  0.1391 -0.1399 -0.3446
  346MOL0     C46628   3.183   0.943   8.499  0.2071  0.1871  0.5515
  346MOL0     C46629   3.470   1.240   8.663 -0.1407  0.2929 -0.6297
  346MOL0     C46630   3.503   1.324   8.552 -0.0041 -0.0898 -0.0487
  346MOL0     C46631   3.580   1.440   8.555  0.3770  1.6135  0.4520
  346MOL0     C46632   3.639   1.482   8.676 -0.2936 -0.6952  0.0277
  346MOL0     O46633   3.723   1.592   8.672 -0.2715  0.1613 -0.6061
  346MOL0     C46634   3.857   1.551   8.700 -0.1504 -0.4780 -0.0596
  346MOL0     C46635   3.965   1.655   8.696 -1.1625 -0.3486 -0.9146
  346MOL0     C46636   3.977   1.711   8.840 -0.0054  0.0163  0.9767
  346MOL0     C46637   4.093   1.795   8.848 -0.1481  0.1739 -0.1463
  346MOL0     C46638   4.135   1.810   8.986  0.5331  0.4149 -0.5417
  346MOL0     C46639   4.169   1.835   9.103  0.2255  0.6054  0.4128
  346MOL0     C46640   3.607   1.403   8.785 -1.5019 -0.0636 -0.0565
  346MOL0     C46641   3.521   1.288   8.788 -0.1028  0.8605 -0.8941
  346MOL0     C46642   3.517   1.219   8.921  0.4630 -0.5499 -0.0035
  346MOL0     H46643   3.475   0.874   8.357  1.3053 -0.1133  2.1155
  346MOL0     H46644   3.386   0.654   8.338  0.6785  0.0044  1.0187
  346MOL0     H46645   3.035   0.494   8.539  2.2926  1.8930  2.2363
  346MOL0     H46646   2.953   0.638   8.503  2.1764  0.4862  0.2829
  346MOL0     H46647   2.888   0.540   8.272  1.4643  0.3135 -0.6011
  346MOL0     H46648   2.831   0.438   8.405  0.0335  0.5046  0.5077
  346MOL0     H46649   3.059   0.309   8.381  0.4943 -1.3448 -2.6110
  346MOL0     H46650   3.080   0.387   8.231 -0.5752  1.2621 -1.1297
  346MOL0     H46651   2.840   0.208   8.278  1.6862 -2.2585  0.3077
  346MOL0     H46652   2.855   0.308   8.139 -0.2205 -0.7311 -1.3841
  346MOL0     H46653   3.084   0.181   8.132  0.8944  3.4542  3.3697
  346MOL0     H46654   3.046   0.103   8.286 -1.4578  1.7209  0.9871
  346MOL0     H46655   2.847   0.018   8.160  0.1311 -0.2819 -1.8438
  346MOL0     H46656   2.927   0.070   7.999 -0.1884 -1.9223 -1.6901
  346MOL0     H46657   3.140  -0.031   8.118 -0.3404  3.1602 -1.7661
  346MOL0     H46658   3.049  -0.114   8.001  1.7654 -3.8041  1.3695
  346MOL0     H46659   3.062  -0.272   8.197 -1.7591 -1.6299 -3.1380
  346MOL0     H46660   3.004  -0.142   8.298 -0.7299  2.6743 -1.0813
  346MOL0     H46661   2.832  -0.246   7.952  1.4386 -1.0962  0.6098
  346MOL0     H46662   2.488  -0.339   8.020 -0.2119  2.5308 -0.2700
  346MOL0     H46663   2.631  -0.373   7.906  1.8045 -2.1542  1.5544
  346MOL0     H46664   2.693  -0.569   8.030 -0.7548 -1.3579  3.4900
  346MOL0     H46665   2.540  -0.561   8.118 -0.3785 -0.0449 -1.5079
  346MOL0     H46666   2.542  -0.568   7.818  0.0061  0.1529 -0.3202
  346MOL0     H46667   2.403  -0.569   7.925 -0.4934  0.3261  0.4755
  346MOL0     H46668   2.412  -0.782   7.872 -0.3130 -0.0932  2.8732
  346MOL0     H46669   2.518  -0.808   8.013  1.5881 -3.0848 -1.1726
  346MOL0     H46670   2.767  -0.905   7.642 -0.8636 -0.9715  0.5482
  346MOL0     H46671   2.930  -1.076   7.674  3.5309  0.9479  1.9658
  346MOL0     H46672   2.979  -1.527   7.946  0.5748 -0.7217  0.2615
  346MOL0     H46673   3.147  -1.703   7.945  0.4245  0.0297 -0.3649
  346MOL0     H46674   3.346  -1.812   7.881  1.1052 -3.6724  0.3599
  346MOL0     H46675   3.487  -1.833   7.989  0.3835  0.1168  3.4181
  346MOL0     H46676   3.189  -1.869   8.057  0.5230  1.9328  1.2358
  346MOL0     H46677   3.305  -2.002   8.041 -0.2329 -0.7873  2.9284
  346MOL0     H46678   3.418  -1.924   8.248 -0.1564  0.4556 -0.9101
  346MOL0     H46679   3.318  -1.784   8.260  0.6294  0.4767  0.4397
  346MOL0     H46680   3.228  -2.074   8.228 -1.3266 -0.6593 -0.2898
  346MOL0     H46681   3.113  -1.947   8.256  0.6579  3.0547 -2.2882
  346MOL0     H46682   3.196  -1.898   8.486  2.2730  0.0011  2.2219
  346MOL0     H46683   3.337  -1.998   8.461  0.8090  1.4020 -1.0295
  346MOL0     H46684   3.201  -2.195   8.460 -2.1336  0.3556 -2.3198
  346MOL0     H46685   3.182  -2.084   8.601  1.5394  0.4100 -0.3536
  346MOL0     H46686   2.965  -2.098   8.384  2.5565  0.6273 -0.2614
  346MOL0     H46687   2.970  -2.038   8.562  3.5815 -0.2061  1.0586
  346MOL0     H46688   2.991  -2.326   8.469 -0.1946 -2.6168  1.9925
  346MOL0     H46689   3.013  -2.278   8.625  1.4193 -2.7523 -2.1740
  346MOL0     H46690   3.410  -1.434   8.157 -0.0252  1.7380 -0.5982
  346MOL0     H46691   3.238  -1.247   8.135  1.3769  1.3009 -2.7420
  346MOL0     H46692   2.845  -1.099   8.083  2.6357 -0.2816  0.0613
  346MOL0     H46693   2.684  -0.917   8.065  1.7787  1.3172 -0.1293
  346MOL0     H46694   3.002   0.832   8.483  0.0419 -3.9083 -0.4007
  346MOL0     H46695   3.159   1.024   8.567  0.9072 -0.6733  1.8720
  346MOL0     H46696   3.451   1.287   8.464 -0.1016 -0.7829  0.2899
  346MOL0     H46697   3.597   1.504   8.470  4.7827  2.5291  1.7452
  346MOL0     H46698   3.882   1.472   8.629  0.2138 -1.1813  0.8441
  346MOL0     H46699   3.860   1.499   8.796 -1.2615 -3.7137 -1.6437
  346MOL0     H46700   3.951   1.733   8.620 -0.7631  1.3116  0.6647
  346MOL0     H46701   4.059   1.605   8.672 -0.7389 -1.9498  3.3171
  346MOL0     H46702   3.980   1.636   8.920 -0.1013  0.6138  1.5548
  346MOL0     H46703   3.880   1.756   8.858 -2.3894 -2.1422 -4.3141
  346MOL0     H46704   4.180   1.766   8.788  2.5290  4.1264  1.3984
  346MOL0     H46705   4.078   1.902   8.828  0.3004  0.8881  2.8924
  346MOL0     H46706   4.192   1.859   9.205  0.6703  3.8290 -0.3420
  346MOL0     H46707   3.655   1.438   8.876 -0.8205  2.3202 -1.2417
  346MOL0     H46708   3.596   1.143   8.921 -1.0361 -2.2057 -1.8265
  346MOL0     H46709   3.533   1.283   9.009 -1.0544  3.4944 -2.3982
  346MOL0     H46710   3.423   1.169   8.944  1.0345 -0.8380  1.9016
  347MOL0     O46711  10.478   8.846   1.784  0.7661 -0.9351  0.6608
  347MOL0     C46712  10.390   8.856   1.869  0.8589  0.2082  0.4372
  347MOL0     O46713  10.343   8.753   1.937  0.9823  0.5525  0.1448
  347MOL0     C46714  10.351   8.631   1.874 -0.1431 -0.5724  1.1836
  347MOL0     C46715  10.286   8.620   1.746  0.0089 -0.2826  0.3560
  347MOL0     C46716  10.302   8.505   1.672 -1.2383  0.5652  1.0891
  347MOL0     C46717  10.346   8.390   1.739  0.0916 -0.9379  0.4397
  347MOL0     O46718  10.348   8.279   1.670 -0.3692  0.7668 -0.4666
  347MOL0     C46719  10.303   8.162   1.748  0.5569 -0.3043  0.1335
  347MOL0     C46720  10.247   8.066   1.646  0.1862  0.5153  0.3305
  347MOL0     C46721  10.214   7.923   1.702  0.0945  0.3517 -0.5178
  347MOL0     C46722  10.345   7.866   1.772 -0.0789  0.4306 -0.4028
  347MOL0     C46723  10.463   7.868   1.669 -0.2130 -0.5086  0.0259
  347MOL0     C46724  10.584   7.801   1.742  0.0819 -0.8268 -0.2289
  347MOL0     C46725  10.716   7.772   1.655  0.7204 -1.3390 -0.6156
  347MOL0     C46726  10.796   7.895   1.625 -0.4512 -0.1950 -0.0874
  347MOL0     N46727  10.930   7.871   1.580 -0.5806  0.8413 -1.1271
  347MOL0     C46728  10.962   7.803   1.469 -0.3615  0.8538 -0.6292
  347MOL0     C46729  11.095   7.784   1.476 -0.5749  0.4110  0.5630
  347MOL0     C46730  11.184   7.723   1.363 -0.6822  0.0768  0.2936
  347MOL0     C46731  11.152   7.588   1.320 -0.0486  0.4031 -0.1835
  347MOL0     C46732  11.242   7.544   1.202  0.6751 -0.0009 -0.1791
  347MOL0     C46733  11.197   7.414   1.138  0.0048  0.6855 -0.3348
  347MOL0     O46734  11.186   7.310   1.239  0.0935 -0.1674  0.5554
  347MOL0     C46735  11.306   7.255   1.300  0.9215  0.3539 -0.3425
  347MOL0     C46736  11.292   7.193   1.422  0.1865 -0.0287 -0.5686
  347MOL0     C46737  11.408   7.132   1.487 -0.7618 -0.4860  0.5200
  347MOL0     C46738  11.532   7.132   1.424 -0.2277 -0.4723 -0.6850
  347MOL0     C46739  11.641   7.055   1.491 -0.1648  0.6310  0.7519
  347MOL0     O46740  11.755   7.032   1.418  0.0344 -1.2027  0.3272
  347MOL0     C46741  11.851   6.944   1.460  0.0152 -0.8835 -0.3227
  347MOL0     C46742  11.994   6.988   1.468  0.2297  1.2967 -0.1497
  347MOL0     C46743  12.091   6.895   1.494  0.0833 -0.2521 -0.2778
  347MOL0     C46744  12.052   6.758   1.512 -0.4262  0.2131  0.0432
  347MOL0     O46745  12.160   6.680   1.525 -0.1693 -0.8523 -0.0438
  347MOL0     C46746  12.145   6.551   1.590 -0.3096  0.4553 -0.7250
  347MOL0     C46747  12.280   6.472   1.595  0.0080 -0.0139 -1.6165
  347MOL0     C46748  12.286   6.332   1.652 -0.3147 -0.1413  0.4877
  347MOL0     C46749  12.284   6.338   1.808  0.1949  0.7687 -0.0602
  347MOL0     C46750  12.267   6.198   1.854 -0.7910 -0.7394 -0.7682
  347MOL0     C46751  12.300   6.181   2.006  0.4813 -0.9651  0.6182
  347MOL0     C46752  12.179   6.240   2.093 -0.0976  0.1430  0.3922
  347MOL0     C46753  12.147   6.135   2.192  0.1228 -0.6938 -0.1288
  347MOL0    Cl46754  12.079   5.977   2.134 -0.4463  0.1941 -0.0050
  347MOL0     C46755  11.920   6.716   1.501  0.6055  0.0773 -0.7930
  347MOL0     C46756  11.814   6.809   1.485 -0.0131  0.7823 -0.2225
  347MOL0     O46757  11.623   7.007   1.601 -0.4326  0.1959  0.5028
  347MOL0     C46758  11.545   7.196   1.298  0.8286  0.7867  0.0616
  347MOL0     C46759  11.436   7.260   1.234  0.4369 -0.5997  0.0661
  347MOL0     N46760  11.139   7.830   1.598 -0.3836  0.1541  0.1807
  347MOL0     N46761  11.043   7.891   1.651  0.0990 -0.2765 -0.4914
  347MOL0     C46762  10.400   8.402   1.873  0.9285  0.7086 -0.7475
  347MOL0     C46763  10.398   8.524   1.941  0.4842  0.2595  0.1239
  347MOL0     C46764  10.347   8.987   1.913  0.7225 -0.2046  0.5006
  347MOL0     C46765  10.236   8.993   1.998 -0.3553 -0.0334  0.4545
  347MOL0     C46766  10.190   9.110   2.047 -0.0028 -0.2124 -0.3794
  347MOL0     C46767  10.255   9.228   2.024  0.4592 -0.4451 -1.0687
  347MOL0     O46768  10.220   9.346   2.079  0.4943 -0.1669  0.4709
  347MOL0     C46769  10.125   9.351   2.191  0.7401 -1.1742 -0.0561
  347MOL0     C46770  10.178   9.465   2.287  0.0486 -0.4941 -0.1806
  347MOL0     C46771  10.063   9.500   2.379 -0.1319  0.5903  0.2142
  347MOL0     C46772  10.118   9.609   2.470  0.6317  0.5667  0.5036
  347MOL0     C46773  10.015   9.646   2.576 -0.3912 -0.0294  0.7686
  347MOL0     C46774   9.932   9.685   2.654  0.5266  0.0274 -0.1566
  347MOL0     C46775  10.359   9.225   1.936 -0.7255 -0.7852 -0.0468
  347MOL0     C46776  10.407   9.111   1.875  0.0172  0.6072 -0.3870
  347MOL0     C46777  10.537   9.117   1.793 -0.3541 -0.4627 -0.0400
  347MOL0     H46778  10.246   8.712   1.704  0.2408 -0.4731 -0.2905
  347MOL0     H46779  10.277   8.513   1.566  0.1869 -0.2439  0.6742
  347MOL0     H46780  10.398   8.135   1.795  1.4035  2.8688  0.4171
  347MOL0     H46781  10.228   8.182   1.825  0.1920 -1.6698  0.1698
  347MOL0     H46782  10.309   8.045   1.559 -1.3401  1.5979 -1.0575
  347MOL0     H46783  10.156   8.121   1.620  1.1189  1.2118 -1.6250
  347MOL0     H46784  10.208   7.856   1.616  3.6070 -2.3055  1.0212
  347MOL0     H46785  10.127   7.914   1.767 -0.0421  1.6984 -0.4836
  347MOL0     H46786  10.380   7.919   1.861  0.8575 -3.0190  1.4552
  347MOL0     H46787  10.327   7.761   1.797 -1.9016  0.7614 -0.1808
  347MOL0     H46788  10.437   7.822   1.574  2.3025  2.1016 -2.1094
  347MOL0     H46789  10.489   7.971   1.643 -1.0551  0.3776  2.4330
  347MOL0     H46790  10.612   7.855   1.832  0.2082  0.1968 -0.8707
  347MOL0     H46791  10.553   7.701   1.775 -1.6330 -0.0430  0.6291
  347MOL0     H46792  10.685   7.721   1.563  0.1651 -0.8429 -0.7152
  347MOL0     H46793  10.777   7.707   1.718  0.1273  0.3454  1.8505
  347MOL0     H46794  10.738   7.951   1.550 -0.0301 -1.3967 -1.3556
  347MOL0     H46795  10.808   7.956   1.714 -0.2947 -1.2236  0.6069
  347MOL0     H46796  10.888   7.769   1.397 -0.3398  1.2523 -0.8423
  347MOL0     H46797  11.175   7.784   1.272 -0.4007  0.3617  0.4529
  347MOL0     H46798  11.290   7.722   1.393  0.5314 -3.0682 -3.2830
  347MOL0     H46799  11.158   7.519   1.405 -2.2653 -1.2768 -1.2961
  347MOL0     H46800  11.048   7.594   1.288 -0.4331  0.8185  1.0590
  347MOL0     H46801  11.334   7.521   1.256 -0.3195 -3.1747  0.4108
  347MOL0     H46802  11.252   7.621   1.125 -0.0843  1.8538  1.4927
  347MOL0     H46803  11.261   7.380   1.057 -2.5519  0.8228 -2.5797
  347MOL0     H46804  11.111   7.422   1.070  1.0490 -1.4090 -2.0234
  347MOL0     H46805  11.193   7.208   1.466  0.8985  0.4358  0.9595
  347MOL0     H46806  11.394   7.077   1.579  2.7631 -3.2939 -0.4290
  347MOL0     H46807  12.024   7.091   1.454  1.6963  1.0142  0.7278
  347MOL0     H46808  12.198   6.912   1.509  0.4642 -2.2563 -0.4105
  347MOL0     H46809  12.098   6.566   1.688 -1.2477 -0.8143 -0.9614
  347MOL0     H46810  12.079   6.483   1.536  1.9693 -1.8465 -0.7900
  347MOL0     H46811  12.338   6.465   1.503  2.1477 -1.9116 -0.2336
  347MOL0     H46812  12.338   6.539   1.659 -2.6362  0.7032  0.1771
  347MOL0     H46813  12.198   6.279   1.613 -0.4817  1.0425 -0.8504
  347MOL0     H46814  12.373   6.277   1.616 -0.9312  0.1754 -1.6378
  347MOL0     H46815  12.199   6.394   1.849 -1.6768 -1.1686 -1.1004
  347MOL0     H46816  12.376   6.379   1.850  0.6871 -0.9907  0.6602
  347MOL0     H46817  12.339   6.142   1.793  0.4333  0.8283 -0.8478
  347MOL0     H46818  12.171   6.154   1.828 -1.8485 -1.0901  3.1468
  347MOL0     H46819  12.328   6.077   2.026  0.1798 -0.8293  1.8191
  347MOL0     H46820  12.386   6.244   2.027 -0.9931  0.7880  1.6611
  347MOL0     H46821  12.093   6.259   2.028  0.0894 -0.2141  0.0368
  347MOL0     H46822  12.208   6.336   2.137  3.2878  1.4988 -3.9776
  347MOL0     H46823  12.235   6.119   2.256 -0.4512 -0.6552  0.6845
  347MOL0     H46824  12.078   6.191   2.256  3.0813  2.4101  0.6738
  347MOL0     H46825  11.899   6.611   1.518  0.2632 -0.3254 -3.3597
  347MOL0     H46826  11.713   6.768   1.490  1.2218 -2.6211 -0.3700
  347MOL0     H46827  11.644   7.183   1.257 -0.8969 -0.3068 -4.3571
  347MOL0     H46828  11.442   7.299   1.133 -1.4742  2.5103  1.0272
  347MOL0     H46829  10.443   8.316   1.923  1.3684  1.7126  0.6588
  347MOL0     H46830  10.433   8.541   2.043 -1.2492  0.4842  0.7265
  347MOL0     H46831  10.190   8.897   2.018 -0.7827  0.2753  0.9927
  347MOL0     H46832  10.098   9.117   2.103 -0.7902  3.7968 -1.8250
  347MOL0     H46833  10.140   9.263   2.253  2.4814 -0.8492  0.0360
  347MOL0     H46834  10.020   9.375   2.168  1.4451  1.2608 -1.0597
  347MOL0     H46835  10.189   9.561   2.234 -0.4568 -0.3217  0.0209
  347MOL0     H46836  10.277   9.453   2.331  0.4632  2.8860  0.1122
  347MOL0     H46837  10.029   9.412   2.433  2.3241  0.7798  2.2588
  347MOL0     H46838   9.977   9.537   2.322 -0.6303 -1.2969 -0.3031
  347MOL0     H46839  10.198   9.570   2.534  2.1738  3.6557  0.6768
  347MOL0     H46840  10.164   9.694   2.418 -0.7322  1.8262  1.2903
  347MOL0     H46841   9.851   9.713   2.718  1.3160  3.6428 -0.5053
  347MOL0     H46842  10.404   9.323   1.924  0.5879 -1.6736 -5.1726
  347MOL0     H46843  10.532   9.078   1.691 -0.7317 -4.0818  1.2157
  347MOL0     H46844  10.566   9.223   1.789 -0.1100 -0.4571  1.5028
  347MOL0     H46845  10.621   9.063   1.836  0.1205  0.2473 -0.0565
  348MOL0     O46846   6.429   9.787   0.097  0.3307 -0.1917  0.2526
  348MOL0     C46847   6.493   9.869   0.033  0.2634  0.0469  1.0356
  348MOL0     O46848   6.617   9.855  -0.016  0.6800 -0.5338  0.3277
  348MOL0     C46849   6.709   9.765   0.037  0.5126  0.0377 -0.1358
  348MOL0     C46850   6.724   9.748   0.176 -0.3295  1.0423  0.1867
  348MOL0     C46851   6.826   9.655   0.222  0.8153  0.3382  0.0553
  348MOL0     C46852   6.906   9.591   0.130  0.1400 -0.0014 -0.2687
  348MOL0     O46853   7.012   9.524   0.180 -0.7114  0.1219  0.1215
  348MOL0     C46854   7.032   9.384   0.159 -0.2486  1.0038  0.3026
  348MOL0     C46855   7.185   9.346   0.165 -0.2197  0.2389  1.0853
  348MOL0     C46856   7.259   9.432   0.063  0.1965 -0.1646 -0.0701
  348MOL0     C46857   7.407   9.396   0.049  0.2846 -0.8193  0.8293
  348MOL0     C46858   7.436   9.245   0.017 -0.0359 -0.2124 -0.0742
  348MOL0     C46859   7.574   9.224  -0.045 -0.6778 -0.2025 -0.5632
  348MOL0     C46860   7.643   9.088  -0.013  0.5336 -0.0907 -0.4665
  348MOL0     C46861   7.765   9.093   0.083  0.3552 -0.1154  0.2466
  348MOL0     N46862   7.751   9.194   0.194  0.2393 -0.1181  0.3459
  348MOL0     C46863   7.808   9.316   0.216  0.0179  0.0079  0.2174
  348MOL0     C46864   7.789   9.348   0.347  0.6503 -0.0703  0.0225
  348MOL0     C46865   7.841   9.481   0.403 -0.1636  0.8720 -0.8348
  348MOL0     C46866   7.777   9.605   0.346  0.0051  0.3217  0.1461
  348MOL0     C46867   7.632   9.615   0.329  0.5072  0.3719  0.3693
  348MOL0     C46868   7.606   9.750   0.246  0.0720  0.5309 -0.3499
  348MOL0     O46869   7.467   9.767   0.221 -0.4385  0.0177 -0.3750
  348MOL0     C46870   7.379   9.821   0.303  0.1966 -0.0105 -0.1336
  348MOL0     C46871   7.362   9.968   0.312 -0.4250  0.2974  0.0099
  348MOL0     C46872   7.271  10.017   0.408 -0.1157  0.6269  0.0392
  348MOL0     C46873   7.185   9.938   0.483  0.0557  0.1447 -0.3924
  348MOL0     C46874   7.079   9.993   0.571 -0.6053  0.3285 -1.1766
  348MOL0     O46875   7.053   9.934   0.698 -0.4433 -0.2907  0.7654
  348MOL0     C46876   6.924   9.969   0.749 -0.6280  0.5933 -0.2385
  348MOL0     C46877   6.801   9.972   0.664 -0.4553 -0.3210  0.6010
  348MOL0     C46878   6.687  10.013   0.727  0.2405  0.1086 -0.7680
  348MOL0     C46879   6.674  10.056   0.863 -0.4639  0.7047  0.4828
  348MOL0     O46880   6.563  10.104   0.919  0.1848 -0.6770  0.6060
  348MOL0     C46881   6.502  10.010   1.008  0.7357 -0.1882  0.5112
  348MOL0     C46882   6.382  10.060   1.090  0.1889 -0.1561 -0.3785
  348MOL0     C46883   6.291  10.152   1.011 -0.2862 -0.0036  0.8460
  348MOL0     C46884   6.206  10.071   0.910  0.2146 -0.5661 -0.1090
  348MOL0     C46885   6.086  10.175   0.877 -0.0331  0.7982  0.4606
  348MOL0     C46886   5.990  10.102   0.800  0.2913  0.7390 -0.1557
  348MOL0     C46887   5.856  10.177   0.788 -0.5864  0.2288  0.1767
  348MOL0     C46888   5.746  10.094   0.718 -0.5121 -0.0407 -1.2114
  348MOL0    Cl46889   5.722   9.933   0.800 -0.5076  0.1523  0.2578
  348MOL0     C46890   6.792  10.037   0.939  0.7313  0.0794 -0.2291
  348MOL0     C46891   6.917  10.003   0.882 -0.4197 -0.3323 -0.2928
  348MOL0     O46892   7.033  10.104   0.527  0.2486  0.0493  0.1257
  348MOL0     C46893   7.214   9.799   0.480 -0.3065 -0.7579  0.2235
  348MOL0     C46894   7.311   9.743   0.398  0.3171  0.2563 -0.3209
  348MOL0     N46895   7.710   9.246   0.399  0.6261  0.2190 -0.2880
  348MOL0     N46896   7.685   9.164   0.307 -0.4965  0.1087  0.2208
  348MOL0     C46897   6.868   9.605  -0.005  0.1623  0.2337 -0.1871
  348MOL0     C46898   6.772   9.687  -0.051  0.4395 -1.4126 -0.0005
  348MOL0     C46899   6.424   9.978  -0.034 -0.1318 -0.4655  0.4819
  348MOL0     C46900   6.418  10.098   0.030 -0.2003 -0.1652  0.2924
  348MOL0     C46901   6.348  10.205  -0.027  1.0247 -0.8781 -0.0988
  348MOL0     C46902   6.282  10.194  -0.151 -0.8580  0.2408 -0.0775
  348MOL0     O46903   6.189  10.299  -0.187 -0.1177 -0.4743  0.7190
  348MOL0     C46904   6.118  10.291  -0.318 -0.0181  0.0544 -1.1017
  348MOL0     C46905   5.995  10.203  -0.299  0.3735  1.3875  0.7026
  348MOL0     C46906   5.910  10.160  -0.421 -0.8442  0.9070  1.0216
  348MOL0     C46907   5.805  10.044  -0.407  0.8243 -0.8509 -0.3476
  348MOL0     C46908   5.708  10.083  -0.300  0.0098  0.7021 -0.0849
  348MOL0     C46909   5.621  10.088  -0.209  0.4411  0.2217 -0.4638
  348MOL0     C46910   6.298  10.075  -0.225  0.5197  0.1397  0.9510
  348MOL0     C46911   6.377   9.968  -0.168  0.0922 -0.1114  0.4162
  348MOL0     C46912   6.407   9.838  -0.253  0.2407 -0.0785 -0.1705
  348MOL0     H46913   6.666   9.814   0.240 -2.1703 -0.7385  0.4469
  348MOL0     H46914   6.833   9.659   0.330 -3.9415  0.6686  0.5504
  348MOL0     H46915   6.986   9.311   0.227 -0.4808  2.4013  1.6919
  348MOL0     H46916   6.985   9.371   0.061  1.8820  2.1483 -0.9405
  348MOL0     H46917   7.174   9.245   0.124  0.2274  0.5475  0.1935
  348MOL0     H46918   7.220   9.370   0.266 -0.9347 -1.0638  1.6854
  348MOL0     H46919   7.252   9.540   0.079  2.1115  0.0272 -0.2550
  348MOL0     H46920   7.203   9.426  -0.031  1.8875  3.1289 -1.4477
  348MOL0     H46921   7.450   9.475  -0.014 -2.2767 -0.4075 -0.5337
  348MOL0     H46922   7.454   9.418   0.145  1.3764 -3.6097  1.0316
  348MOL0     H46923   7.411   9.196   0.112  5.7438  2.9458  3.7376
  348MOL0     H46924   7.371   9.217  -0.066  1.6059  1.0365 -1.8799
  348MOL0     H46925   7.571   9.245  -0.152 -1.5795  4.3370  0.1441
  348MOL0     H46926   7.638   9.301  -0.000  1.0994 -1.6406 -0.4819
  348MOL0     H46927   7.672   9.050  -0.111  3.1554 -3.2077  1.3138
  348MOL0     H46928   7.569   9.018   0.027  0.5107 -0.6970 -1.5387
  348MOL0     H46929   7.759   8.995   0.131  1.4329 -1.1419 -1.6108
  348MOL0     H46930   7.862   9.076   0.035  0.0297 -1.4196  0.0097
  348MOL0     H46931   7.875   9.380   0.158  0.7170 -1.5202 -0.7122
  348MOL0     H46932   7.812   9.466   0.508  0.7857 -0.9342 -0.7878
  348MOL0     H46933   7.950   9.483   0.396 -0.0609 -2.8752 -2.5473
  348MOL0     H46934   7.802   9.684   0.418  2.3235 -0.7016  0.5552
  348MOL0     H46935   7.826   9.631   0.253  2.8857  0.8736  1.7072
  348MOL0     H46936   7.562   9.627   0.412 -1.3322 -0.2184 -1.0275
  348MOL0     H46937   7.589   9.533   0.270 -1.9625  0.8516  1.3539
  348MOL0     H46938   7.658   9.752   0.150 -3.4758 -2.1347 -2.5943
  348MOL0     H46939   7.653   9.830   0.304 -0.6178  1.4603 -1.0354
  348MOL0     H46940   7.413  10.045   0.255  1.3515 -0.8364 -0.0037
  348MOL0     H46941   7.272  10.125   0.417  0.9234  0.5452  1.0281
  348MOL0     H46942   6.808   9.934   0.562  2.8696 -0.3343  0.7208
  348MOL0     H46943   6.598  10.005   0.667 -0.2270 -1.7210  0.0924
  348MOL0     H46944   6.475   9.929   0.940  0.4705  1.5441 -1.5541
  348MOL0     H46945   6.568   9.965   1.082  1.4579 -0.9105 -0.5418
  348MOL0     H46946   6.328   9.978   1.139  1.1497 -1.2185 -1.0327
  348MOL0     H46947   6.424  10.120   1.171  0.8732 -1.5100  0.3005
  348MOL0     H46948   6.230  10.204   1.086 -1.5217 -0.6009  0.2835
  348MOL0     H46949   6.357  10.223   0.962  2.1801 -1.5140  1.8105
  348MOL0     H46950   6.168   9.972   0.937  0.5580 -1.1607 -1.7013
  348MOL0     H46951   6.275  10.052   0.827 -0.1555  1.6942 -1.0218
  348MOL0     H46952   6.119  10.269   0.832 -1.1085  0.9438 -0.0639
  348MOL0     H46953   6.031  10.179   0.971 -0.1329 -3.5515  0.7804
  348MOL0     H46954   6.023  10.062   0.703  0.2612  1.4136 -0.4471
  348MOL0     H46955   5.973  10.012   0.860 -0.3042 -0.9554 -2.7326
  348MOL0     H46956   5.863  10.277   0.744 -0.4058  0.6143  1.0630
  348MOL0     H46957   5.823  10.197   0.890  3.4331 -1.0454  1.9338
  348MOL0     H46958   5.656  10.156   0.712 -1.4319 -1.3280 -1.1790
  348MOL0     H46959   5.785  10.068   0.619  1.5809 -0.3643 -0.3505
  348MOL0     H46960   6.789  10.066   1.044  1.1226 -1.5548  0.2652
  348MOL0     H46961   7.006   9.996   0.943  0.2220 -1.6685 -1.3292
  348MOL0     H46962   7.164   9.742   0.557  0.9010 -0.8738  0.9286
  348MOL0     H46963   7.310   9.634   0.395 -4.3941 -0.0948  2.8807
  348MOL0     H46964   6.914   9.547  -0.084 -2.3589 -0.5243 -1.1805
  348MOL0     H46965   6.737   9.684  -0.153  0.6729  3.6310 -0.4678
  348MOL0     H46966   6.461  10.098   0.129  6.1343  1.9192 -1.9366
  348MOL0     H46967   6.316  10.295   0.026 -0.3266 -1.5562  0.2798
  348MOL0     H46968   6.180  10.277  -0.407  0.6146  1.6378 -0.9391
  348MOL0     H46969   6.077  10.392  -0.334  0.1634  0.0248 -1.7995
  348MOL0     H46970   5.934  10.246  -0.219  2.9973  0.9115  3.1194
  348MOL0     H46971   6.026  10.111  -0.249  1.0658 -0.2832 -2.5267
  348MOL0     H46972   5.965  10.115  -0.504  0.7848 -2.3435  3.6480
  348MOL0     H46973   5.850  10.249  -0.445 -2.2912 -0.4255 -0.5815
  348MOL0     H46974   5.757  10.017  -0.502  1.1421  0.9927 -1.0688
  348MOL0     H46975   5.850   9.948  -0.379 -0.3987 -1.2979  0.1813
  348MOL0     H46976   5.543  10.086  -0.135 -0.3775 -0.9547 -1.3295
  348MOL0     H46977   6.261  10.054  -0.324  3.2168 -0.5773  0.0089
  348MOL0     H46978   6.514   9.816  -0.259  1.2082  3.4225  1.2009
  348MOL0     H46979   6.343   9.764  -0.205 -1.8189  3.3029  2.7899
  348MOL0     H46980   6.384   9.845  -0.359  4.6104 -0.1960 -1.3366
  349MOL0     O46981   1.711   4.900   8.664 -0.5067  0.6187 -0.7903
  349MOL0     C46982   1.805   4.883   8.585 -0.5500 -0.9596 -0.2619
  349MOL0     O46983   1.933   4.942   8.589  0.6983  0.1777  0.4503
  349MOL0     C46984   1.986   4.970   8.718 -0.6192 -0.4974  0.3142
  349MOL0     C46985   1.935   5.084   8.789  0.2602 -0.2380  0.0844
  349MOL0     C46986   1.974   5.110   8.922 -0.0650 -0.9760 -0.1710
  349MOL0     C46987   2.066   5.030   8.980  0.4791 -1.0390  0.9771
  349MOL0     O46988   2.094   5.041   9.116  0.7372 -0.2917 -0.6505
  349MOL0     C46989   2.044   5.155   9.193 -0.2824  0.5867 -0.6573
  349MOL0     C46990   2.083   5.146   9.344  0.8235 -0.6160 -0.7339
  349MOL0     C46991   2.240   5.157   9.366  0.5724 -0.1319 -0.3214
  349MOL0     C46992   2.262   5.182   9.516 -0.2335 -0.3452  0.1991
  349MOL0     C46993   2.409   5.223   9.535 -0.3260 -1.1202  0.7379
  349MOL0     C46994   2.446   5.366   9.504  0.2489  0.5944 -0.0355
  349MOL0     C46995   2.590   5.402   9.495 -0.2293 -0.3215  0.9553
  349MOL0     C46996   2.669   5.323   9.389  0.2610 -0.1312 -1.0022
  349MOL0     N46997   2.615   5.335   9.260  0.3909  0.1999 -0.1467
  349MOL0     C46998   2.556   5.237   9.191 -0.4439  0.8831 -0.6755
  349MOL0     C46999   2.550   5.282   9.069  0.8106  0.3093 -0.6601
  349MOL0     C47000   2.509   5.210   8.949  0.9699  0.6292  0.2654
  349MOL0     C47001   2.372   5.258   8.897  0.3333  0.6026 -0.3420
  349MOL0     C47002   2.329   5.183   8.764 -0.7183  0.2107  0.3035
  349MOL0     C47003   2.412   5.222   8.644  0.3121 -0.5483 -0.3555
  349MOL0     O47004   2.407   5.374   8.632  0.6658  0.0380  0.7242
  349MOL0     C47005   2.403   5.423   8.498 -0.8464  0.2499  0.3566
  349MOL0     C47006   2.351   5.548   8.485 -0.0402  0.8703 -0.1688
  349MOL0     C47007   2.325   5.609   8.366  0.9918 -0.2148 -0.2900
  349MOL0     C47008   2.355   5.542   8.249 -0.4058 -0.1035  0.6114
  349MOL0     C47009   2.309   5.598   8.116  0.5306 -0.0288  0.5321
  349MOL0     O47010   2.313   5.515   8.008  0.6185 -0.2800 -0.8062
  349MOL0     C47011   2.280   5.554   7.880 -0.1854 -1.4314  0.2586
  349MOL0     C47012   2.192   5.659   7.838  0.2426  0.3476 -1.3029
  349MOL0     C47013   2.161   5.689   7.700 -0.1992  0.2426  0.3410
  349MOL0     C47014   2.242   5.623   7.611 -0.2154 -0.4409 -0.4010
  349MOL0     O47015   2.235   5.660   7.484 -0.0723  0.2580 -0.2830
  349MOL0     C47016   2.360   5.689   7.409  0.0214 -0.1339 -0.0263
  349MOL0     C47017   2.422   5.831   7.413 -0.0239  0.1577  0.1325
  349MOL0     C47018   2.579   5.832   7.392  0.5137  0.2030 -1.7566
  349MOL0     C47019   2.615   5.762   7.265 -0.1009 -0.0686 -0.3130
  349MOL0     C47020   2.739   5.816   7.216  0.0674 -0.4257  0.3266
  349MOL0     C47021   2.821   5.720   7.125 -0.6715 -0.4380 -0.0982
  349MOL0     C47022   2.961   5.781   7.087  0.1043  0.3340  0.3910
  349MOL0     C47023   2.993   5.713   6.955  0.6828  0.5751 -0.1122
  349MOL0    Cl47024   2.983   5.526   6.954  0.5011 -0.0505 -0.2124
  349MOL0     C47025   2.337   5.526   7.647  0.6348  0.9311  0.7722
  349MOL0     C47026   2.340   5.484   7.777 -0.1177  0.0108 -0.1911
  349MOL0     O47027   2.274   5.714   8.116  0.2361  0.0255 -0.5556
  349MOL0     C47028   2.419   5.417   8.255  0.5205  0.9281 -0.8221
  349MOL0     C47029   2.443   5.360   8.379  0.9259 -0.1431  0.1362
  349MOL0     N47030   2.598   5.411   9.073  0.1246 -0.5650  0.6058
  349MOL0     N47031   2.637   5.443   9.189 -0.4461 -0.5323 -0.3423
  349MOL0     C47032   2.133   4.936   8.906 -1.6012  0.5285  0.7975
  349MOL0     C47033   2.095   4.901   8.778 -1.1459 -0.3438  0.0673
  349MOL0     C47034   1.788   4.777   8.476 -0.6404  0.8195  0.3459
  349MOL0     C47035   1.898   4.746   8.392 -0.1017  0.5445  0.3606
  349MOL0     C47036   1.900   4.651   8.297  0.1536  1.4677 -0.5255
  349MOL0     C47037   1.792   4.566   8.271  1.3073 -0.4514 -0.9648
  349MOL0     O47038   1.789   4.453   8.195 -0.7362  0.3752  0.5837
  349MOL0     C47039   1.909   4.409   8.124  0.2463  0.0664  0.7500
  349MOL0     C47040   1.881   4.291   8.038 -0.1791  1.1808  0.2872
  349MOL0     C47041   2.007   4.211   8.014 -0.4504  0.2644  0.2803
  349MOL0     C47042   2.007   4.140   7.881 -0.1061 -0.4139  0.5248
  349MOL0     C47043   1.898   4.049   7.869  0.3408  0.0183 -0.5313
  349MOL0     C47044   1.799   3.975   7.865 -0.2935  0.5867 -0.4653
  349MOL0     C47045   1.681   4.585   8.363 -0.4452  0.0434  0.3391
  349MOL0     C47046   1.671   4.693   8.454 -0.5376  0.5116  0.4219
  349MOL0     C47047   1.542   4.702   8.536  0.1700 -0.1309 -0.2719
  349MOL0     H47048   1.857   5.130   8.728 -3.0315 -2.9376  1.9250
  349MOL0     H47049   1.923   5.187   8.979 -0.5803 -1.9438  0.6867
  349MOL0     H47050   2.095   5.243   9.151 -0.9271  0.2745 -2.1411
  349MOL0     H47051   1.936   5.170   9.196 -0.4762 -0.2269 -2.2164
  349MOL0     H47052   2.047   5.053   9.388  4.0813 -1.8978 -0.4546
  349MOL0     H47053   2.040   5.229   9.400  0.8009 -1.1520  0.0639
  349MOL0     H47054   2.273   5.240   9.302 -0.5421 -0.3059 -1.1389
  349MOL0     H47055   2.282   5.069   9.317  0.2176  0.3827 -1.6180
  349MOL0     H47056   2.205   5.269   9.548 -0.4467 -0.5186  0.2965
  349MOL0     H47057   2.224   5.097   9.574  2.6754  1.0556  4.7466
  349MOL0     H47058   2.435   5.201   9.639  2.1585  2.3295  1.0683
  349MOL0     H47059   2.476   5.159   9.478  1.9495 -0.6291  2.6752
  349MOL0     H47060   2.408   5.389   9.404 -0.4231 -1.1659 -0.2163
  349MOL0     H47061   2.399   5.432   9.577  0.8696  2.4843 -1.2753
  349MOL0     H47062   2.642   5.385   9.589  1.5764 -0.1418  0.0340
  349MOL0     H47063   2.592   5.508   9.471  6.2167 -0.2402  0.0984
  349MOL0     H47064   2.776   5.344   9.399  0.5720 -2.0981  0.3181
  349MOL0     H47065   2.676   5.218   9.417  1.4120 -0.7160 -3.2439
  349MOL0     H47066   2.551   5.134   9.223 -1.1434 -0.5448 -4.8378
  349MOL0     H47067   2.580   5.217   8.866  1.7518 -4.4051  0.1956
  349MOL0     H47068   2.485   5.109   8.983 -3.6368  1.3295 -0.1862
  349MOL0     H47069   2.296   5.227   8.970  2.0403 -0.4198  1.0774
  349MOL0     H47070   2.378   5.367   8.888 -0.6299  0.6558 -0.4919
  349MOL0     H47071   2.228   5.218   8.741 -0.6129  1.1236  1.1702
  349MOL0     H47072   2.341   5.076   8.782  1.2310  0.3847  0.3545
  349MOL0     H47073   2.363   5.178   8.558 -0.3658 -0.5981  0.0524
  349MOL0     H47074   2.514   5.185   8.660 -0.2475 -1.7356  0.6038
  349MOL0     H47075   2.337   5.612   8.572  3.3332  3.9165 -1.6033
  349MOL0     H47076   2.272   5.704   8.360 -3.8745 -2.6995 -1.0923
  349MOL0     H47077   2.138   5.727   7.903 -1.2116 -0.0313 -2.0517
  349MOL0     H47078   2.095   5.769   7.668 -2.0929 -1.4897 -0.3131
  349MOL0     H47079   2.440   5.618   7.433 -0.2522 -0.1656  0.8382
  349MOL0     H47080   2.349   5.674   7.301 -0.2809 -2.7089  0.2936
  349MOL0     H47081   2.376   5.882   7.328 -0.5281 -1.0966 -0.3782
  349MOL0     H47082   2.392   5.888   7.501  0.6607  1.3999 -0.4179
  349MOL0     H47083   2.595   5.941   7.389  0.7684  0.2116 -0.4753
  349MOL0     H47084   2.619   5.788   7.483 -3.0686  0.0939 -0.0714
  349MOL0     H47085   2.552   5.783   7.178  2.3483  4.5091 -1.2696
  349MOL0     H47086   2.621   5.654   7.281  1.7823  0.1582  0.8586
  349MOL0     H47087   2.802   5.856   7.296  0.3722 -0.8486  0.3006
  349MOL0     H47088   2.724   5.914   7.169 -0.8363 -0.4583  0.5339
  349MOL0     H47089   2.839   5.631   7.186 -3.2159  0.1755  1.7202
  349MOL0     H47090   2.765   5.700   7.033  0.2080  2.4891 -1.3923
  349MOL0     H47091   3.034   5.755   7.164  0.4703  0.6521  0.1541
  349MOL0     H47092   2.943   5.889   7.081  0.0125  0.2580 -1.1628
  349MOL0     H47093   2.913   5.740   6.885  0.6903  0.6981 -0.0736
  349MOL0     H47094   3.090   5.743   6.914  0.6268 -1.2965 -1.7390
  349MOL0     H47095   2.384   5.464   7.572 -1.7504  0.2851 -0.2962
  349MOL0     H47096   2.405   5.401   7.807  1.6289  1.8602  1.4330
  349MOL0     H47097   2.441   5.363   8.164 -2.6958 -3.6862  0.8228
  349MOL0     H47098   2.468   5.254   8.375  0.1827 -0.3099 -2.5248
  349MOL0     H47099   2.208   4.883   8.965 -2.1313 -1.0848  0.0925
  349MOL0     H47100   2.147   4.825   8.721  0.9329 -0.1460  1.5509
  349MOL0     H47101   1.987   4.807   8.405 -1.1899  1.8582  2.1351
  349MOL0     H47102   1.989   4.642   8.234 -0.4902 -0.2355 -1.2479
  349MOL0     H47103   1.983   4.382   8.200  0.5919 -2.5470 -0.4024
  349MOL0     H47104   1.944   4.487   8.056 -4.3592  0.2382 -1.7876
  349MOL0     H47105   1.843   4.333   7.945  1.4348  1.5418 -0.2257
  349MOL0     H47106   1.804   4.229   8.086  1.6243  1.2284  3.5500
  349MOL0     H47107   2.047   4.143   8.090 -0.3550 -0.7868 -0.6907
  349MOL0     H47108   2.090   4.282   8.008  1.0724 -0.6926  5.0934
  349MOL0     H47109   1.999   4.221   7.807  3.1595 -0.5231 -0.1343
  349MOL0     H47110   2.105   4.097   7.858 -0.2452  1.0946 -3.9459
  349MOL0     H47111   1.715   3.909   7.869  0.2102  0.0026  0.7678
  349MOL0     H47112   1.604   4.509   8.375  0.0341 -0.9397 -2.2105
  349MOL0     H47113   1.495   4.800   8.536 -0.1582 -0.2863 -0.2690
  349MOL0     H47114   1.471   4.638   8.483  0.8884 -0.0649 -1.3378
  349MOL0     H47115   1.549   4.657   8.636  0.0573 -1.2876 -0.7597
  350MOL0     O47116   7.329  10.342   1.336  0.1568  0.0525  0.2085
  350MOL0     C47117   7.263  10.445   1.315  0.1147  0.0693 -0.4459
  350MOL0     O47118   7.297  10.576   1.326  0.0776 -1.0132 -0.1021
  350MOL0     C47119   7.413  10.584   1.385 -0.1942 -0.3113  0.0236
  350MOL0     C47120   7.521  10.612   1.297  0.0332 -0.0590 -0.2395
  350MOL0     C47121   7.658  10.609   1.336  0.3329 -0.2843 -0.3364
  350MOL0     C47122   7.677  10.569   1.469  0.4984 -0.8684  0.8150
  350MOL0     O47123   7.789  10.574   1.539 -0.2001 -0.0251  0.5828
  350MOL0     C47124   7.863  10.698   1.513 -0.4045  0.3669 -0.0231
  350MOL0     C47125   7.951  10.718   1.628 -0.6330  0.0051 -1.2505
  350MOL0     C47126   8.064  10.818   1.600 -0.2833  0.6948 -0.0909
  350MOL0     C47127   8.184  10.744   1.534  0.1862 -0.3233 -0.3964
  350MOL0     C47128   8.300  10.848   1.518 -0.0602 -0.3058 -0.2284
  350MOL0     C47129   8.427  10.762   1.506 -0.4882  0.1584 -0.1130
  350MOL0     C47130   8.541  10.863   1.472  0.3990  0.0504  0.9094
  350MOL0     C47131   8.678  10.787   1.475 -0.6890  0.3957  0.8995
  350MOL0     N47132   8.799  10.874   1.455  0.0446 -0.0908  0.3603
  350MOL0     C47133   8.881  10.885   1.349  0.1103 -0.0535 -0.1630
  350MOL0     C47134   8.963  10.984   1.367 -0.7313 -0.4100 -0.3418
  350MOL0     C47135   9.076  11.007   1.274  0.3337  0.3026  0.4652
  350MOL0     C47136   9.183  10.888   1.287  0.0811 -0.1161  0.5661
  350MOL0     C47137   9.293  10.902   1.177 -0.1783  0.8535  0.4763
  350MOL0     C47138   9.368  10.769   1.121 -1.2017  0.3888 -0.0653
  350MOL0     O47139   9.266  10.674   1.086  0.1390 -0.1438 -0.0156
  350MOL0     C47140   9.271  10.541   1.130  0.0076 -0.2404 -0.1826
  350MOL0     C47141   9.350  10.500   1.242  0.2842  1.3026  0.5962
  350MOL0     C47142   9.350  10.363   1.282  0.2786  0.0058 -0.4111
  350MOL0     C47143   9.262  10.270   1.220 -0.0737 -0.4319 -0.0036
  350MOL0     C47144   9.246  10.133   1.272 -0.1560  0.1217  0.4277
  350MOL0     O47145   9.137  10.063   1.224 -0.0332  0.2998 -0.0764
  350MOL0     C47146   9.147   9.924   1.255  0.2986 -0.0453 -0.4658
  350MOL0     C47147   9.106   9.873   1.381 -0.2630 -0.3760  0.0506
  350MOL0     C47148   9.105   9.740   1.403  1.7157 -0.2043 -0.6001
  350MOL0     C47149   9.123   9.645   1.305  0.0357  0.0896  1.0785
  350MOL0     O47150   9.109   9.508   1.324 -0.8685 -0.1472 -0.2227
  350MOL0     C47151   9.208   9.415   1.281  0.0584 -0.1409 -1.2236
  350MOL0     C47152   9.297   9.358   1.393  0.1548 -0.5346 -0.4342
  350MOL0     C47153   9.220   9.268   1.486  0.4762 -0.5966 -0.4100
  350MOL0     C47154   9.319   9.214   1.594  0.2477  0.4119  0.9516
  350MOL0     C47155   9.252   9.113   1.683 -0.0654  0.5256  0.7065
  350MOL0     C47156   9.358   9.047   1.775 -0.3285 -0.8628  0.5982
  350MOL0     C47157   9.305   8.931   1.862 -0.0854  0.7743  0.3870
  350MOL0     C47158   9.405   8.810   1.856  0.4910  1.3193  0.2068
  350MOL0    Cl47159   9.378   8.699   1.714 -0.6068 -0.7488 -0.2153
  350MOL0     C47160   9.150   9.698   1.179 -0.2353  0.5341 -0.0333
  350MOL0     C47161   9.160   9.835   1.150  0.1170 -0.2709 -0.2051
  350MOL0     O47162   9.317  10.093   1.366  0.6818  1.1324  0.3530
  350MOL0     C47163   9.189  10.313   1.105 -1.9229 -0.0372  0.1287
  350MOL0     C47164   9.202  10.444   1.059  0.7413  0.3548 -0.3071
  350MOL0     N47165   8.928  11.043   1.483 -0.0426  0.0068  0.7949
  350MOL0     N47166   8.835  10.980   1.540 -0.5218  0.5898 -0.4867
  350MOL0     C47167   7.572  10.538   1.554 -0.7517  0.8763 -0.3301
  350MOL0     C47168   7.437  10.543   1.515  0.2121  0.2361 -0.4555
  350MOL0     C47169   7.119  10.423   1.296  0.4008  1.3991  0.1840
  350MOL0     C47170   7.028  10.500   1.371 -0.0220  0.8874  0.3038
  350MOL0     C47171   6.893  10.504   1.347  0.6022 -0.2634 -0.2529
  350MOL0     C47172   6.834  10.416   1.256 -0.5899  0.2323  0.8722
  350MOL0     O47173   6.692  10.416   1.248  0.1446  0.0276 -0.0890
  350MOL0     C47174   6.622  10.383   1.125  0.6617  0.3626 -1.2387
  350MOL0     C47175   6.500  10.485   1.111  0.0098 -0.1296 -1.2253
  350MOL0     C47176   6.529  10.635   1.065 -0.6893 -0.5302 -0.6333
  350MOL0     C47177   6.571  10.744   1.172  1.4728  0.9238 -0.1046
  350MOL0     C47178   6.453  10.793   1.245 -0.8079  0.4498  0.5424
  350MOL0     C47179   6.360  10.832   1.314 -0.3105 -0.2092 -0.1905
  350MOL0     C47180   6.919  10.314   1.197 -0.5040  0.1367  0.7583
  350MOL0     C47181   7.061  10.320   1.210  0.8832 -0.1309 -0.5861
  350MOL0     C47182   7.144  10.232   1.129  1.1133 -0.0940  1.4149
  350MOL0     H47183   7.491  10.639   1.196 -4.2514 -0.3036  0.7560
  350MOL0     H47184   7.735  10.630   1.263 -0.2058  1.6630 -0.3919
  350MOL0     H47185   7.917  10.681   1.419  1.5387  2.0228  0.7220
  350MOL0     H47186   7.797  10.784   1.506 -4.3370 -2.4195 -0.1518
  350MOL0     H47187   7.989  10.620   1.657 -0.6444 -1.0701 -4.5043
  350MOL0     H47188   7.902  10.758   1.717  1.7647 -3.8260  2.1307
  350MOL0     H47189   8.097  10.866   1.693  1.4848 -1.6531  0.5765
  350MOL0     H47190   8.010  10.893   1.541 -0.9979  0.5916  0.4245
  350MOL0     H47191   8.214  10.664   1.602 -1.0624 -1.6428 -1.3244
  350MOL0     H47192   8.149  10.697   1.441 -0.4460 -0.6352 -0.0085
  350MOL0     H47193   8.291  10.912   1.430 -0.0031 -0.9547 -0.7155
  350MOL0     H47194   8.307  10.924   1.597  2.2717  0.5638 -1.1877
  350MOL0     H47195   8.449  10.713   1.601 -3.4698 -0.7322  0.2253
  350MOL0     H47196   8.409  10.691   1.425 -0.5520 -0.1638  0.1819
  350MOL0     H47197   8.541  10.947   1.542 -2.9973 -2.2616  3.9996
  350MOL0     H47198   8.525  10.892   1.367 -2.4635 -2.0867  0.6380
  350MOL0     H47199   8.684  10.728   1.567  1.8158  1.1146  1.2731
  350MOL0     H47200   8.673  10.713   1.395 -0.8651  1.1189  0.2286
  350MOL0     H47201   8.881  10.820   1.262  0.1776 -1.1429  0.6399
  350MOL0     H47202   9.033  11.015   1.174 -1.7228 -1.3453  1.1300
  350MOL0     H47203   9.124  11.100   1.304  0.1097  0.4546  0.3514
  350MOL0     H47204   9.235  10.895   1.383 -0.9958  1.2037  1.0873
  350MOL0     H47205   9.131  10.792   1.278  2.3505 -1.4448  0.7685
  350MOL0     H47206   9.379  10.935   1.236  4.0125 -2.4189 -3.0924
  350MOL0     H47207   9.271  10.971   1.096  1.0723  0.4598 -0.2267
  350MOL0     H47208   9.438  10.738   1.200 -0.2852  3.0397  0.2634
  350MOL0     H47209   9.433  10.782   1.034 -0.0070 -5.8848 -0.5659
  350MOL0     H47210   9.402  10.576   1.300 -0.0396  2.4040 -0.5132
  350MOL0     H47211   9.402  10.333   1.372 -2.3037  1.2341  1.6308
  350MOL0     H47212   9.095   9.955   1.450  3.8982  1.9116 -1.6026
  350MOL0     H47213   9.092   9.691   1.499 -2.6602  0.9595 -0.3810
  350MOL0     H47214   9.158   9.328   1.240  2.9363 -2.9910  0.8060
  350MOL0     H47215   9.279   9.457   1.209  2.4207  0.5911  1.3201
  350MOL0     H47216   9.380   9.310   1.339 -0.7127 -1.4626 -0.9831
  350MOL0     H47217   9.360   9.431   1.444 -0.1731  0.2718 -1.1653
  350MOL0     H47218   9.129   9.310   1.531 -0.3350  0.6629 -3.0506
  350MOL0     H47219   9.186   9.189   1.419 -1.6976  0.1349 -0.2486
  350MOL0     H47220   9.348   9.292   1.666  0.1486  0.8441  0.5309
  350MOL0     H47221   9.409   9.163   1.559 -1.4322 -2.9745  1.1947
  350MOL0     H47222   9.209   9.031   1.624  0.3815  2.2356 -2.1851
  350MOL0     H47223   9.173   9.161   1.742 -0.9138  0.8794 -0.6598
  350MOL0     H47224   9.455   9.025   1.729 -0.0047  0.8185  0.3967
  350MOL0     H47225   9.374   9.135   1.839  1.9903 -0.9493  0.2201
  350MOL0     H47226   9.209   8.905   1.816  1.4329  1.1480 -3.3859
  350MOL0     H47227   9.300   8.962   1.967  0.8913  3.0149 -0.1796
  350MOL0     H47228   9.512   8.834   1.850  1.4780 -2.5637 -0.3081
  350MOL0     H47229   9.396   8.754   1.949  2.3804 -0.4764 -0.6132
  350MOL0     H47230   9.155   9.622   1.102  1.8261  1.5720 -1.0143
  350MOL0     H47231   9.184   9.866   1.049  0.3041 -1.5674 -0.5682
  350MOL0     H47232   9.122  10.245   1.054  1.7143 -3.4301 -0.5297
  350MOL0     H47233   9.141  10.475   0.975 -1.2021 -1.0345  0.5074
  350MOL0     H47234   7.600  10.507   1.654 -1.5185  2.0181  0.2549
  350MOL0     H47235   7.361  10.508   1.584 -0.8888  3.6493  0.2095
  350MOL0     H47236   7.057  10.579   1.440  0.5441  0.3714  0.6620
  350MOL0     H47237   6.835  10.571   1.408  1.4543 -3.1004  4.1627
  350MOL0     H47238   6.587  10.279   1.125 -0.9143  0.8742 -0.9842
  350MOL0     H47239   6.695  10.395   1.044 -1.7681  1.3349 -3.4353
  350MOL0     H47240   6.447  10.481   1.207  3.4121  0.5410  0.8607
  350MOL0     H47241   6.423  10.455   1.039 -1.2551 -0.1668  0.0832
  350MOL0     H47242   6.437  10.673   1.018 -1.3832  1.8802  2.3455
  350MOL0     H47243   6.603  10.624   0.985  0.3919 -2.9494  0.6137
  350MOL0     H47244   6.635  10.711   1.254 -0.8810  0.6130  1.7361
  350MOL0     H47245   6.620  10.827   1.120  3.3688  1.4406  2.3421
  350MOL0     H47246   6.269  10.862   1.361 -1.2790  0.8408 -2.5926
  350MOL0     H47247   6.867  10.245   1.131 -0.6086 -1.3531  2.3070
  350MOL0     H47248   7.232  10.288   1.095 -0.2927 -0.8336 -4.6352
  350MOL0     H47249   7.170  10.145   1.190  0.2321  0.0044  1.9456
  350MOL0     H47250   7.105  10.197   1.033  0.8752  0.8890  1.1430
  351MOL0     O47251   6.022   1.954   0.301 -0.4512  0.7762  0.2986
  351MOL0     C47252   5.992   1.850   0.360  0.1687 -0.0951  0.3822
  351MOL0     O47253   5.877   1.776   0.340  0.4643 -0.0827 -0.4872
  351MOL0     C47254   5.785   1.810   0.248  0.2495  0.3752 -0.7900
  351MOL0     C47255   5.730   1.709   0.178  0.4723  0.9375  0.1402
  351MOL0     C47256   5.624   1.728   0.093  0.1178 -0.0782 -0.1153
  351MOL0     C47257   5.565   1.856   0.076 -0.0840 -0.0233 -0.3385
  351MOL0     O47258   5.484   1.878  -0.033 -0.2997 -0.3970 -0.1859
  351MOL0     C47259   5.530   1.815  -0.158 -0.1606  0.1609 -0.5624
  351MOL0     C47260   5.399   1.817  -0.240 -0.2918 -0.7713  0.1091
  351MOL0     C47261   5.318   1.704  -0.182  1.7880  0.2994  0.5007
  351MOL0     C47262   5.197   1.650  -0.268 -0.0971 -0.9799  0.6254
  351MOL0     C47263   5.108   1.750  -0.343 -0.3224  0.6372 -0.3114
  351MOL0     C47264   5.058   1.722  -0.484  1.1413 -0.0095 -0.0926
  351MOL0     C47265   4.963   1.602  -0.487 -1.0347 -0.9123  0.3131
  351MOL0     C47266   4.821   1.635  -0.429  0.5038 -0.7346 -0.5272
  351MOL0     N47267   4.768   1.518  -0.364 -0.5183  0.0470 -0.5946
  351MOL0     C47268   4.646   1.469  -0.383  0.4774 -0.0709  0.4652
  351MOL0     C47269   4.640   1.353  -0.320  0.6695 -0.2889  0.0851
  351MOL0     C47270   4.521   1.266  -0.318  1.1031 -0.2075 -0.0175
  351MOL0     C47271   4.427   1.313  -0.209  0.1309 -1.1741 -0.5588
  351MOL0     C47272   4.302   1.216  -0.196  0.8329  0.4575  0.2216
  351MOL0     C47273   4.235   1.170  -0.320  0.7955  0.3672  0.5059
  351MOL0     O47274   4.149   1.058  -0.293  0.1643  0.6251 -0.4669
  351MOL0     C47275   4.191   0.933  -0.331  0.8055 -1.3484 -0.7327
  351MOL0     C47276   4.100   0.845  -0.385  0.0753 -0.0334 -0.4316
  351MOL0     C47277   4.148   0.717  -0.410  0.6473  0.6600 -0.3994
  351MOL0     C47278   4.276   0.661  -0.387 -0.0585 -0.5723  0.1672
  351MOL0     C47279   4.310   0.514  -0.401  0.8137  0.3676 -0.0491
  351MOL0     O47280   4.430   0.468  -0.358  0.6096 -0.0686 -0.4945
  351MOL0     C47281   4.438   0.335  -0.375 -0.3290  0.0046  0.9343
  351MOL0     C47282   4.454   0.275  -0.509  0.1558  0.0937 -0.8621
  351MOL0     C47283   4.448   0.137  -0.520  0.0213 -0.3434  0.7881
  351MOL0     C47284   4.455   0.054  -0.406  0.4491  0.2502 -0.8778
  351MOL0     O47285   4.449  -0.082  -0.431 -0.4101 -0.0164 -0.2036
  351MOL0     C47286   4.448  -0.170  -0.318  0.7792  0.3306  0.5665
  351MOL0     C47287   4.445  -0.307  -0.372 -0.3288 -0.0058 -0.1950
  351MOL0     C47288   4.318  -0.336  -0.454 -0.1382 -0.6112 -0.0524
  351MOL0     C47289   4.289  -0.492  -0.464  0.1022  0.4625  1.0049
  351MOL0     C47290   4.230  -0.516  -0.608  0.6362 -1.2844 -0.1305
  351MOL0     C47291   4.238  -0.665  -0.641 -0.3185  0.4090  0.1102
  351MOL0     C47292   4.190  -0.704  -0.782 -0.9004 -0.5541  0.1456
  351MOL0     C47293   4.287  -0.704  -0.890  0.0895 -0.1308 -0.1455
  351MOL0    Cl47294   4.214  -0.771  -1.041 -0.5055 -0.2862 -0.3461
  351MOL0     C47295   4.437   0.118  -0.274 -0.3165  0.4912  0.3819
  351MOL0     C47296   4.417   0.254  -0.265  0.3819  0.4168 -0.0798
  351MOL0     O47297   4.213   0.452  -0.446 -0.3135  0.3387 -0.3793
  351MOL0     C47298   4.369   0.757  -0.342 -0.6446  0.0020 -0.1861
  351MOL0     C47299   4.324   0.892  -0.318 -0.1357  0.4608  0.9114
  351MOL0     N47300   4.754   1.332  -0.241 -0.4880 -0.0468 -0.5047
  351MOL0     N47301   4.825   1.438  -0.269  0.2123  0.1664 -0.3841
  351MOL0     C47302   5.607   1.959   0.155  0.5948  1.0368  0.7454
  351MOL0     C47303   5.711   1.927   0.247  0.5611 -1.0572  0.1097
  351MOL0     C47304   6.102   1.783   0.432 -0.9803 -0.5891  0.5557
  351MOL0     C47305   6.100   1.648   0.438  0.1630  0.8884  0.1929
  351MOL0     C47306   6.205   1.577   0.489  0.5136  0.7453  0.2283
  351MOL0     C47307   6.308   1.636   0.541  0.3186  0.4211  0.5839
  351MOL0     O47308   6.411   1.555   0.589 -0.0863 -0.0227  0.3608
  351MOL0     C47309   6.543   1.594   0.616 -0.2025  0.5872 -0.6750
  351MOL0     C47310   6.627   1.486   0.696  0.4555  0.1756  0.2944
  351MOL0     C47311   6.777   1.522   0.701  0.1990  0.6114  0.4578
  351MOL0     C47312   6.828   1.634   0.792 -0.1855 -0.5886 -0.1676
  351MOL0     C47313   6.871   1.574   0.913 -0.7239 -0.4437 -0.5157
  351MOL0     C47314   6.911   1.554   1.021 -0.6229 -0.3711  0.4472
  351MOL0     C47315   6.319   1.778   0.542  0.2481  0.1123 -0.4500
  351MOL0     C47316   6.212   1.848   0.489 -0.9236  0.5436 -0.1224
  351MOL0     C47317   6.209   1.996   0.498  0.5158 -0.0114 -0.2719
  351MOL0     H47318   5.775   1.611   0.170 -2.0867 -0.3119  0.2259
  351MOL0     H47319   5.598   1.640   0.034  2.6331 -0.7647 -0.3058
  351MOL0     H47320   5.599   1.888  -0.202  2.5597 -2.2292 -0.5250
  351MOL0     H47321   5.569   1.714  -0.147 -0.1784  0.3281  1.3804
  351MOL0     H47322   5.429   1.795  -0.343 -0.0049 -0.8395  0.2066
  351MOL0     H47323   5.344   1.911  -0.236 -3.3659 -2.3141 -1.8093
  351MOL0     H47324   5.273   1.741  -0.089  2.6779  0.3856  0.9091
  351MOL0     H47325   5.373   1.612  -0.158  3.0776  1.2007  1.0620
  351MOL0     H47326   5.243   1.601  -0.354  0.3026  1.7011 -0.8142
  351MOL0     H47327   5.133   1.578  -0.216 -1.5244 -1.8446 -2.1401
  351MOL0     H47328   5.027   1.767  -0.272 -0.2062  0.5933 -0.1678
  351MOL0     H47329   5.153   1.850  -0.350 -5.4394  3.1555 -2.1039
  351MOL0     H47330   5.004   1.804  -0.532  1.4871  0.0426 -0.3906
  351MOL0     H47331   5.140   1.704  -0.554  2.2526 -0.1733  1.1939
  351MOL0     H47332   5.008   1.516  -0.436  0.3559 -0.6738 -0.4572
  351MOL0     H47333   4.954   1.564  -0.589  0.8527  1.5869 -0.8866
  351MOL0     H47334   4.823   1.708  -0.347 -2.2373 -0.8370 -0.3022
  351MOL0     H47335   4.753   1.667  -0.508 -0.7183 -1.2391  0.2861
  351MOL0     H47336   4.567   1.518  -0.440  0.6797  1.4189  1.4035
  351MOL0     H47337   4.461   1.273  -0.410 -1.9447 -3.8137  1.4288
  351MOL0     H47338   4.540   1.159  -0.307 -0.3236 -0.4341  0.4607
  351MOL0     H47339   4.468   1.301  -0.108 -2.6268 -2.6569  0.5087
  351MOL0     H47340   4.395   1.417  -0.224  1.4341 -0.1845  2.5549
  351MOL0     H47341   4.224   1.253  -0.129 -0.1362 -1.2885  0.1263
  351MOL0     H47342   4.328   1.126  -0.139 -0.3386 -0.6164 -0.8808
  351MOL0     H47343   4.305   1.149  -0.402 -0.6140 -1.6047 -0.3013
  351MOL0     H47344   4.180   1.254  -0.362  1.1068  0.2311 -0.1998
  351MOL0     H47345   3.995   0.869  -0.390 -0.2762 -0.3350  2.9522
  351MOL0     H47346   4.069   0.652  -0.446  0.4685  1.4027 -1.3830
  351MOL0     H47347   4.449   0.345  -0.592  1.8386  1.4486  0.0960
  351MOL0     H47348   4.439   0.095  -0.620  1.4721  0.4546  0.2869
  351MOL0     H47349   4.537  -0.152  -0.257  1.3790  1.3437 -0.5561
  351MOL0     H47350   4.355  -0.160  -0.261  1.4973  0.3573  1.7596
  351MOL0     H47351   4.536  -0.320  -0.431  1.6490  1.5937  2.3268
  351MOL0     H47352   4.437  -0.382  -0.293 -5.4072 -2.1713 -2.2555
  351MOL0     H47353   4.243  -0.262  -0.425  2.5508  2.4437 -0.3668
  351MOL0     H47354   4.345  -0.303  -0.555 -0.2285  1.9570  0.7018
  351MOL0     H47355   4.234  -0.537  -0.381  0.4171  1.2978  1.6829
  351MOL0     H47356   4.376  -0.559  -0.472 -0.1496  0.2565 -0.2017
  351MOL0     H47357   4.259  -0.443  -0.684  0.8541 -0.2473  0.9208
  351MOL0     H47358   4.123  -0.493  -0.606  0.8743 -0.1263  1.1371
  351MOL0     H47359   4.331  -0.717  -0.617 -1.5444 -0.8910  2.3357
  351MOL0     H47360   4.177  -0.711  -0.562  4.1979 -2.3058  2.4328
  351MOL0     H47361   4.118  -0.625  -0.807  3.5192  3.3797 -1.5951
  351MOL0     H47362   4.150  -0.805  -0.767  2.3064 -1.8772  0.4864
  351MOL0     H47363   4.342  -0.610  -0.905  0.8315 -0.4252  0.7035
  351MOL0     H47364   4.364  -0.777  -0.866  0.3863  0.2375  0.0220
  351MOL0     H47365   4.449   0.065  -0.181 -1.4374  2.6573  1.8325
  351MOL0     H47366   4.409   0.298  -0.166  0.2572  1.4415 -0.5357
  351MOL0     H47367   4.476   0.741  -0.332 -0.3422  1.5329 -0.6892
  351MOL0     H47368   4.405   0.961  -0.298  2.4202 -1.9137 -0.5124
  351MOL0     H47369   5.556   2.053   0.135 -0.4170 -0.4564 -5.7363
  351MOL0     H47370   5.736   2.009   0.314 -3.5641  2.4702 -2.0850
  351MOL0     H47371   6.012   1.594   0.405  0.9163 -0.3339  0.1156
  351MOL0     H47372   6.207   1.468   0.480  0.2863  0.7167  0.4790
  351MOL0     H47373   6.550   1.681   0.682 -1.0409  1.0454 -1.1761
  351MOL0     H47374   6.584   1.606   0.516 -2.1667 -2.6625 -2.0367
  351MOL0     H47375   6.605   1.384   0.662  1.4890 -0.2607  0.9190
  351MOL0     H47376   6.593   1.490   0.800  1.0737  1.1408  0.4700
  351MOL0     H47377   6.810   1.542   0.598 -1.0235 -0.1325 -0.0975
  351MOL0     H47378   6.847   1.440   0.719 -1.5213 -1.3494 -1.3996
  351MOL0     H47379   6.909   1.687   0.741 -0.7450  0.7517  0.2884
  351MOL0     H47380   6.749   1.705   0.820  0.7512  1.0273 -1.4241
  351MOL0     H47381   6.953   1.540   1.119 -0.1561  0.3080  0.3506
  351MOL0     H47382   6.410   1.816   0.588 -0.0258 -0.9674  1.0518
  351MOL0     H47383   6.293   2.033   0.557  0.1710  1.4682 -0.6660
  351MOL0     H47384   6.220   2.032   0.396  0.3315 -2.5670 -1.2732
  351MOL0     H47385   6.113   2.025   0.543  1.2852  2.1786  0.0779
  352MOL0     O47386   9.498   0.906  10.763 -0.1690  0.8315 -0.4052
  352MOL0     C47387   9.518   0.841  10.660  0.2013 -0.0298 -0.6192
  352MOL0     O47388   9.630   0.777  10.622  0.0376  0.4839 -0.0374
  352MOL0     C47389   9.749   0.788  10.696  0.4292  1.4407  0.7440
  352MOL0     C47390   9.863   0.820  10.622  0.3762  1.0052 -0.5735
  352MOL0     C47391   9.991   0.821  10.680  0.4458 -0.5344 -0.3137
  352MOL0     C47392  10.010   0.790  10.814  0.5534  0.4950  0.7610
  352MOL0     O47393  10.126   0.781  10.877 -0.8683  0.6199 -0.2828
  352MOL0     C47394  10.249   0.839  10.826  0.1441  0.0551  0.6309
  352MOL0     C47395  10.350   0.863  10.940  0.2034  0.1951 -0.1828
  352MOL0     C47396  10.336   0.978  11.035  0.6797 -0.7369 -0.5209
  352MOL0     C47397  10.453   0.984  11.143  0.6794  0.5740  0.3354
  352MOL0     C47398  10.432   1.103  11.233  0.0593 -0.1233  0.0526
  352MOL0     C47399  10.561   1.111  11.302 -0.2863 -0.9991 -0.2588
  352MOL0     C47400  10.574   1.247  11.374  0.7143 -0.0680  0.0946
  352MOL0     C47401  10.724   1.280  11.404 -0.3131  0.6307  0.3831
  352MOL0     N47402  10.743   1.407  11.471  0.9574  0.2576 -0.1768
  352MOL0     C47403  10.743   1.423  11.602  0.2639 -0.8397 -0.8905
  352MOL0     C47404  10.750   1.555  11.620  0.2187  0.1537 -0.3677
  352MOL0     C47405  10.738   1.624  11.756  0.1133  1.5997  0.8159
  352MOL0     C47406  10.871   1.676  11.813 -0.9848  0.0280  0.9913
  352MOL0     C47407  10.957   1.556  11.833  0.4186 -0.5223 -0.1511
  352MOL0     C47408  11.078   1.597  11.919 -0.1140 -0.7448  0.0675
  352MOL0     O47409  11.148   1.475  11.950 -0.8134  0.6084 -0.0831
  352MOL0     C47410  11.274   1.464  11.999 -0.6303  1.1174 -0.5247
  352MOL0     C47411  11.304   1.342  12.060 -0.2643  0.5473  0.0383
  352MOL0     C47412  11.430   1.322  12.117 -0.2492  0.4254  0.3293
  352MOL0     C47413  11.526   1.421  12.120 -0.1491 -0.0641  0.3895
  352MOL0     C47414  11.662   1.407  12.181  0.4897 -0.2506  0.6325
  352MOL0     O47415  11.676   1.292  12.248  0.0162  0.8729  0.1131
  352MOL0     C47416  11.796   1.258  12.302 -0.7547  0.4746  0.0339
  352MOL0     C47417  11.822   1.293  12.433 -0.3811  0.2130  0.6535
  352MOL0     C47418  11.945   1.267  12.501 -0.7067  0.3842  0.3685
  352MOL0     C47419  12.045   1.219  12.418  0.3768  1.1741  0.7626
  352MOL0     O47420  12.168   1.188  12.468 -0.2825  0.3000 -0.4773
  352MOL0     C47421  12.282   1.233  12.394 -1.1316 -0.4217  0.7607
  352MOL0     C47422  12.404   1.231  12.475 -0.6006  0.4509 -0.4100
  352MOL0     C47423  12.436   1.093  12.534 -1.5180  0.2647  0.0261
  352MOL0     C47424  12.456   0.976  12.437  0.1323  0.5033  0.7044
  352MOL0     C47425  12.537   0.864  12.498 -0.4094 -0.3403  0.9812
  352MOL0     C47426  12.622   0.787  12.391  0.1141  1.2212 -0.2345
  352MOL0     C47427  12.537   0.712  12.290 -0.0658 -1.0750 -1.1147
  352MOL0     C47428  12.630   0.607  12.218 -0.9147 -0.1912  0.0428
  352MOL0    Cl47429  12.778   0.693  12.157  0.2290  0.1468 -0.0502
  352MOL0     C47430  12.022   1.182  12.284  0.3041  0.1240 -0.3644
  352MOL0     C47431  11.898   1.193  12.226  0.4297 -0.2849 -0.0810
  352MOL0     O47432  11.744   1.501  12.175  0.1279  0.1562 -0.1590
  352MOL0     C47433  11.489   1.547  12.061 -0.0019 -0.0841  0.1404
  352MOL0     C47434  11.361   1.569  12.010 -0.6850 -0.4201  0.7498
  352MOL0     N47435  10.758   1.616  11.499  0.7123 -0.2655 -0.1079
  352MOL0     N47436  10.752   1.523  11.412 -0.3786 -0.1187  0.3301
  352MOL0     C47437   9.891   0.782  10.890  0.0415 -0.0277  0.3081
  352MOL0     C47438   9.761   0.776  10.833  0.6561  0.7123  0.4699
  352MOL0     C47439   9.412   0.865  10.559 -0.4455 -0.0137 -1.0598
  352MOL0     C47440   9.344   0.984  10.546  0.2570 -0.0811  0.4289
  352MOL0     C47441   9.246   1.003  10.442  0.2036 -0.0508  0.0372
  352MOL0     C47442   9.216   0.902  10.357 -1.0356  0.8618 -0.3290
  352MOL0     O47443   9.120   0.920  10.259 -0.0210  0.7730 -0.7397
  352MOL0     C47444   9.055   1.039  10.225 -0.3676  0.2999  0.5202
  352MOL0     C47445   8.925   1.070  10.293  0.5156 -0.6211  0.0060
  352MOL0     C47446   8.920   1.012  10.439 -0.1880 -0.9296  0.2389
  352MOL0     C47447   8.774   1.020  10.496 -0.2708 -0.6939  0.5488
  352MOL0     C47448   8.761   1.010  10.643  0.0018 -0.6247 -0.5009
  352MOL0     C47449   8.737   0.991  10.765 -0.4081 -0.1802  0.3692
  352MOL0     C47450   9.287   0.783  10.371 -0.0482 -0.2991  0.1943
  352MOL0     C47451   9.380   0.759  10.475  1.0158 -0.3218  0.0052
  352MOL0     C47452   9.451   0.624  10.464  0.8502 -0.6155  0.5245
  352MOL0     H47453   9.863   0.816  10.513 -0.7587 -0.6938 -0.5352
  352MOL0     H47454  10.083   0.836  10.625  2.7650 -1.3772  3.0401
  352MOL0     H47455  10.292   0.781  10.744 -3.3831  0.9400 -2.1335
  352MOL0     H47456  10.221   0.938  10.787  2.2093  0.9419  1.2871
  352MOL0     H47457  10.442   0.889  10.888 -0.2758 -1.2378 -1.8386
  352MOL0     H47458  10.342   0.777  11.007 -2.3927 -0.4571 -1.1804
  352MOL0     H47459  10.240   0.971  11.087  1.1280 -2.6881  0.1496
  352MOL0     H47460  10.338   1.074  10.983 -1.8259 -0.5465 -0.3879
  352MOL0     H47461  10.457   0.891  11.200  1.2008 -0.1071 -0.7764
  352MOL0     H47462  10.544   0.971  11.083 -1.4288 -1.3929 -2.6738
  352MOL0     H47463  10.408   1.195  11.178 -1.0994 -0.3838  0.0850
  352MOL0     H47464  10.350   1.113  11.305  0.9349  2.4177  0.8368
  352MOL0     H47465  10.574   1.022  11.364 -1.4257 -0.8972  0.1457
  352MOL0     H47466  10.645   1.110  11.232 -0.3060 -0.0203 -0.3094
  352MOL0     H47467  10.526   1.247  11.473  2.8915  2.2305  1.2922
  352MOL0     H47468  10.528   1.320  11.306  0.8365 -0.8042 -0.7920
  352MOL0     H47469  10.769   1.202  11.466 -1.8431 -0.7334 -0.1399
  352MOL0     H47470  10.779   1.276  11.310 -0.7693  4.2110 -0.2001
  352MOL0     H47471  10.735   1.351  11.683  1.5422  0.9300  0.9114
  352MOL0     H47472  10.652   1.691  11.762 -0.3037  0.9680  3.1825
  352MOL0     H47473  10.691   1.551  11.823 -0.6271  0.5109 -0.8463
  352MOL0     H47474  10.913   1.747  11.741  0.3289  0.0112  1.7102
  352MOL0     H47475  10.864   1.732  11.907  2.2106  2.8211 -0.2219
  352MOL0     H47476  10.994   1.526  11.734 -0.4889  0.2333 -0.7265
  352MOL0     H47477  10.902   1.479  11.887 -0.2609  1.8669  2.8332
  352MOL0     H47478  11.029   1.638  12.008  1.3024  1.2588 -0.0354
  352MOL0     H47479  11.149   1.663  11.868 -1.1652  1.1490  0.9569
  352MOL0     H47480  11.229   1.266  12.075 -0.3081  1.0293  2.6211
  352MOL0     H47481  11.453   1.225  12.160  2.0764  1.1903  0.9519
  352MOL0     H47482  11.745   1.341  12.493 -1.9775 -1.0862 -0.2631
  352MOL0     H47483  11.968   1.292  12.604 -2.8319  3.9478  0.1702
  352MOL0     H47484  12.303   1.177  12.303 -0.0193 -0.6713  1.1600
  352MOL0     H47485  12.270   1.337  12.363 -7.1132 -1.2309 -0.8600
  352MOL0     H47486  12.487   1.250  12.406 -0.8034  1.2226 -0.4492
  352MOL0     H47487  12.403   1.316  12.544  0.7140  0.4414 -0.3508
  352MOL0     H47488  12.535   1.109  12.577 -1.6336  0.6491  0.1514
  352MOL0     H47489  12.358   1.069  12.607  1.5363 -2.8839  2.5929
  352MOL0     H47490  12.492   1.014  12.342 -4.2937 -1.3924 -2.0744
  352MOL0     H47491  12.357   0.939  12.408  0.7438 -0.9731  0.4150
  352MOL0     H47492  12.477   0.799  12.562 -1.1057  0.7143  1.4186
  352MOL0     H47493  12.616   0.903  12.563 -1.6140  1.9194  1.1906
  352MOL0     H47494  12.679   0.866  12.342  3.8263 -1.0973  0.0131
  352MOL0     H47495  12.677   0.707  12.442 -2.3356 -0.2425  0.3000
  352MOL0     H47496  12.491   0.789  12.227 -2.0913  0.5390  2.0827
  352MOL0     H47497  12.455   0.656  12.336 -0.0347  0.8330  1.4554
  352MOL0     H47498  12.656   0.526  12.287 -0.4715  2.3896  3.1737
  352MOL0     H47499  12.567   0.563  12.140 -1.1732 -2.0742  1.2447
  352MOL0     H47500  12.096   1.120  12.235 -2.7453 -4.4063  0.1178
  352MOL0     H47501  11.887   1.159  12.124  1.7207  0.0791 -0.3703
  352MOL0     H47502  11.562   1.626  12.063 -1.1009  0.9434  1.1833
  352MOL0     H47503  11.337   1.663  11.962  0.5222 -0.2756  0.3878
  352MOL0     H47504   9.892   0.770  10.997 -2.3458 -0.0105  0.3861
  352MOL0     H47505   9.673   0.747  10.890  1.4988 -2.7861  0.2247
  352MOL0     H47506   9.365   1.068  10.611 -0.7894 -0.2179  0.9650
  352MOL0     H47507   9.183   1.091  10.445 -2.2154 -1.7164  2.3695
  352MOL0     H47508   9.038   1.030  10.118  1.9137  0.2208  0.1235
  352MOL0     H47509   9.126   1.122  10.227  0.1019 -0.0466 -0.9098
  352MOL0     H47510   8.847   1.019  10.237 -0.9982  2.4555 -0.8525
  352MOL0     H47511   8.915   1.178  10.283  6.1084  0.1784 -0.5979
  352MOL0     H47512   8.974   1.087  10.498  1.1901 -0.2298 -1.7913
  352MOL0     H47513   8.970   0.915  10.441 -1.4282 -1.5867  0.3080
  352MOL0     H47514   8.727   1.116  10.473 -0.5747 -0.7429  0.9678
  352MOL0     H47515   8.714   0.944  10.447 -1.2661 -0.8304  1.9452
  352MOL0     H47516   8.712   0.975  10.868 -0.7313  1.3244  0.5363
  352MOL0     H47517   9.254   0.699  10.311  0.1639 -1.0062  1.0468
  352MOL0     H47518   9.468   0.576  10.561 -0.7766 -1.9839  0.1637
  352MOL0     H47519   9.401   0.553  10.398  2.3382 -0.5460 -0.7316
  352MOL0     H47520   9.549   0.636  10.415 -0.6802 -2.5349 -3.4656
  353MOL0     O47521   3.314   6.319   3.679  0.0337  0.0036 -0.4812
  353MOL0     C47522   3.195   6.348   3.695 -0.2839  0.9498  0.2268
  353MOL0     O47523   3.127   6.347   3.812 -0.6749 -0.2881  0.2946
  353MOL0     C47524   3.196   6.355   3.931  0.4520 -0.2467 -0.2606
  353MOL0     C47525   3.170   6.475   4.012 -0.0391 -0.4127 -0.3953
  353MOL0     C47526   3.238   6.489   4.130 -0.0692  0.4854 -0.5741
  353MOL0     C47527   3.325   6.389   4.179  0.0938 -0.0800  1.1314
  353MOL0     O47528   3.400   6.391   4.292  0.0559 -0.2780  0.2643
  353MOL0     C47529   3.407   6.500   4.377 -0.1469 -0.0652  0.8574
  353MOL0     C47530   3.292   6.523   4.466 -0.5390  0.3656 -0.1289
  353MOL0     C47531   3.272   6.674   4.484  0.2203  0.7670 -0.4542
  353MOL0     C47532   3.160   6.692   4.595 -0.6388 -1.0720  0.3957
  353MOL0     C47533   3.129   6.843   4.618  0.1323 -0.3213 -0.2149
  353MOL0     C47534   3.080   6.874   4.763 -0.4093 -0.3465 -0.2528
  353MOL0     C47535   3.111   7.020   4.794 -0.7659 -1.1467  0.5782
  353MOL0     C47536   3.069   7.119   4.687 -1.4434 -0.3464  0.3338
  353MOL0     N47537   3.080   7.253   4.736 -1.1558 -0.2293  0.6303
  353MOL0     C47538   3.189   7.310   4.790 -0.6705  0.1568 -0.0113
  353MOL0     C47539   3.159   7.446   4.790  0.1828  0.4262 -0.1690
  353MOL0     C47540   3.258   7.561   4.800  0.8444  1.0165 -0.4652
  353MOL0     C47541   3.249   7.670   4.697 -0.5261  0.1686  0.1245
  353MOL0     C47542   3.357   7.785   4.725 -0.1160  0.1133  0.1908
  353MOL0     C47543   3.379   7.901   4.622 -0.3601  0.2414 -0.4197
  353MOL0     O47544   3.247   7.957   4.612 -1.3293  0.1788 -0.6121
  353MOL0     C47545   3.219   8.051   4.518  0.0298  0.5923  0.2242
  353MOL0     C47546   3.094   8.114   4.526  0.0773  0.4478 -0.7854
  353MOL0     C47547   3.060   8.224   4.442 -0.1338 -0.6454 -0.4972
  353MOL0     C47548   3.152   8.263   4.339 -0.3181  0.6484  0.1127
  353MOL0     C47549   3.114   8.371   4.251 -0.3020  0.5986 -0.0097
  353MOL0     O47550   3.215   8.436   4.195  0.3258 -0.1698  0.1342
  353MOL0     C47551   3.194   8.563   4.148  0.6295 -0.3511 -0.1252
  353MOL0     C47552   3.178   8.665   4.247  0.6256 -0.5926 -0.3309
  353MOL0     C47553   3.167   8.802   4.207 -0.3298  0.7636 -0.8904
  353MOL0     C47554   3.163   8.833   4.071  0.5280 -0.2844 -0.5340
  353MOL0     O47555   3.132   8.955   4.033  0.3032  1.0608  0.2855
  353MOL0     C47556   3.241   9.019   3.962  0.5259  0.2452  0.4512
  353MOL0     C47557   3.181   9.154   3.921  0.4853  0.1794 -0.1815
  353MOL0     C47558   3.096   9.228   4.032 -0.0559 -0.6690 -0.4650
  353MOL0     C47559   3.184   9.272   4.146  0.4527 -1.0622 -0.4707
  353MOL0     C47560   3.105   9.375   4.244  0.5324  0.7265  0.7148
  353MOL0     C47561   3.038   9.294   4.363 -0.1106  0.2113  1.0360
  353MOL0     C47562   2.907   9.227   4.319 -0.3294  0.0950  0.2356
  353MOL0     C47563   2.826   9.176   4.433 -0.0448 -1.3715 -0.5194
  353MOL0    Cl47564   2.925   9.037   4.494  0.0910 -0.3649 -0.0877
  353MOL0     C47565   3.159   8.730   3.970  0.8256  1.0065 -0.0746
  353MOL0     C47566   3.178   8.593   4.013  0.6348  0.5346 -0.1238
  353MOL0     O47567   2.997   8.395   4.225  0.3530 -0.2447  0.7010
  353MOL0     C47568   3.278   8.201   4.335 -0.8420  1.3655  0.4504
  353MOL0     C47569   3.308   8.088   4.416 -0.1214  0.4716 -0.1014
  353MOL0     N47570   3.025   7.469   4.741 -0.1808 -0.3749  0.4996
  353MOL0     N47571   2.993   7.356   4.711  0.3855 -0.3535 -0.2422
  353MOL0     C47572   3.340   6.269   4.104 -0.8773 -0.4215  0.2450
  353MOL0     C47573   3.279   6.258   3.976 -0.1321  0.1022  0.5540
  353MOL0     C47574   3.108   6.390   3.572 -0.2571  0.5611 -0.5355
  353MOL0     C47575   3.009   6.491   3.605 -0.0046  0.3757  1.5288
  353MOL0     C47576   2.926   6.537   3.507  0.2480 -0.0750 -0.7539
  353MOL0     C47577   2.945   6.491   3.370  0.2019  0.2755  0.3431
  353MOL0     O47578   2.850   6.520   3.271  0.3528 -0.3284 -0.1425
  353MOL0     C47579   2.721   6.469   3.294  0.7239  0.1957 -0.2692
  353MOL0     C47580   2.637   6.504   3.170  0.6867 -1.0849 -1.9271
  353MOL0     C47581   2.483   6.470   3.200 -0.2873  1.1546 -0.2202
  353MOL0     C47582   2.437   6.367   3.098  0.2870  0.0774  0.2218
  353MOL0     C47583   2.447   6.413   2.962 -0.2549  0.5825 -0.5186
  353MOL0     C47584   2.450   6.463   2.851 -0.6873 -0.5041  0.0119
  353MOL0     C47585   3.047   6.394   3.339 -0.2009  0.2079  0.9199
  353MOL0     C47586   3.129   6.341   3.440  0.5621  0.2124 -1.1609
  353MOL0     C47587   3.235   6.235   3.397  1.1986  0.5765 -0.6465
  353MOL0     H47588   3.111   6.557   3.973  2.3686  1.3782 -0.5491
  353MOL0     H47589   3.221   6.581   4.184 -5.1602  2.1335 -4.2194
  353MOL0     H47590   3.502   6.509   4.431 -1.9363 -0.1380  4.2244
  353MOL0     H47591   3.397   6.591   4.318 -4.5738 -1.0477 -0.3040
  353MOL0     H47592   3.320   6.468   4.556 -1.9703 -1.4045 -0.7073
  353MOL0     H47593   3.198   6.481   4.431 -1.1035  1.5372 -0.0795
  353MOL0     H47594   3.252   6.717   4.385 -1.9734  0.0532 -0.3744
  353MOL0     H47595   3.359   6.718   4.533  0.2646 -0.3515  0.4902
  353MOL0     H47596   3.078   6.623   4.570  0.6058 -1.5950 -2.6495
  353MOL0     H47597   3.196   6.651   4.690  1.9646 -0.8107 -0.4089
  353MOL0     H47598   3.224   6.894   4.597 -0.1355  1.0816  1.6601
  353MOL0     H47599   3.055   6.873   4.544  1.9571  0.9408 -1.6182
  353MOL0     H47600   2.972   6.856   4.760 -0.4511 -0.0833 -2.9239
  353MOL0     H47601   3.132   6.804   4.830 -1.6639 -2.9977 -1.8911
  353MOL0     H47602   3.212   7.040   4.832 -1.0220 -1.0354  1.2076
  353MOL0     H47603   3.049   7.044   4.880  1.7956  1.9222  1.7609
  353MOL0     H47604   3.131   7.106   4.598 -0.4510  0.6778  0.8569
  353MOL0     H47605   2.961   7.122   4.669 -1.4101 -0.3686  0.1257
  353MOL0     H47606   3.288   7.269   4.773 -1.9245 -2.2012 -2.4565
  353MOL0     H47607   3.239   7.603   4.899  2.0900 -1.8426  1.1196
  353MOL0     H47608   3.355   7.512   4.805  0.3539  0.1550  2.8569
  353MOL0     H47609   3.284   7.625   4.604  1.5996  0.1747  0.8738
  353MOL0     H47610   3.148   7.710   4.685  0.5340  3.0913  0.1904
  353MOL0     H47611   3.459   7.747   4.719  0.7289  1.5049  3.3384
  353MOL0     H47612   3.328   7.833   4.820 -0.7586  1.7000 -0.7678
  353MOL0     H47613   3.427   7.860   4.532  1.2521 -1.0972  0.9695
  353MOL0     H47614   3.443   7.979   4.665 -2.3549  0.0203  3.3274
  353MOL0     H47615   3.021   8.084   4.601  0.7388  0.2799 -0.2089
  353MOL0     H47616   2.970   8.285   4.453 -0.4650 -0.7320 -2.4982
  353MOL0     H47617   3.193   8.642   4.352 -4.4406  0.3274  0.8490
  353MOL0     H47618   3.179   8.880   4.281  2.7067  2.4085 -2.9125
  353MOL0     H47619   3.329   9.032   4.025 -0.4103  2.0552  1.4717
  353MOL0     H47620   3.262   8.957   3.875 -0.5208  0.0055  0.3569
  353MOL0     H47621   3.255   9.226   3.883  0.0397  1.0895  0.6179
  353MOL0     H47622   3.117   9.137   3.834  1.6041  3.5419 -1.8520
  353MOL0     H47623   3.048   9.313   3.982  0.4687 -0.4350 -0.5732
  353MOL0     H47624   3.012   9.171   4.073 -0.5733  0.1710 -0.3243
  353MOL0     H47625   3.272   9.319   4.103 -0.7703  0.5889 -1.2884
  353MOL0     H47626   3.209   9.187   4.211 -1.4471 -0.3072  1.3845
  353MOL0     H47627   3.032   9.444   4.200 -0.4304  0.9367  2.5643
  353MOL0     H47628   3.190   9.429   4.287  0.5919  1.8176 -0.7040
  353MOL0     H47629   3.112   9.223   4.402  1.4177 -1.0381 -3.5131
  353MOL0     H47630   3.009   9.359   4.446 -2.0499 -0.6966  1.1303
  353MOL0     H47631   2.923   9.139   4.256  1.9082 -1.1057  2.2788
  353MOL0     H47632   2.844   9.302   4.272  0.3872  0.6891  0.2181
  353MOL0     H47633   2.814   9.253   4.509 -1.7140  1.4431 -3.3836
  353MOL0     H47634   2.727   9.156   4.392 -0.5921  0.7621 -0.3354
  353MOL0     H47635   3.140   8.768   3.870  0.3499  3.4333  0.8610
  353MOL0     H47636   3.162   8.508   3.947  0.3798 -0.9781  1.8003
  353MOL0     H47637   3.343   8.217   4.249  2.3372 -2.4577  1.8287
  353MOL0     H47638   3.398   8.029   4.402 -0.6961 -0.0093 -2.1224
  353MOL0     H47639   3.410   6.192   4.133  1.6030  1.7351  0.3606
  353MOL0     H47640   3.311   6.183   3.904 -0.1857  1.9943 -1.5259
  353MOL0     H47641   2.995   6.527   3.706 -1.7497  0.7500  1.1878
  353MOL0     H47642   2.846   6.603   3.539 -0.2065 -2.1640  3.0758
  353MOL0     H47643   2.678   6.523   3.378  2.9381  1.1749  0.3187
  353MOL0     H47644   2.723   6.364   3.323 -4.4819 -0.0854  0.0365
  353MOL0     H47645   2.667   6.459   3.076 -0.8773  1.5160 -3.8079
  353MOL0     H47646   2.644   6.613   3.176 -1.7802 -0.9335  0.1647
  353MOL0     H47647   2.410   6.551   3.187 -1.9313 -0.4286 -1.3963
  353MOL0     H47648   2.467   6.422   3.297 -0.3750 -2.1190 -1.7124
  353MOL0     H47649   2.506   6.282   3.095  2.3333  1.6146  0.8779
  353MOL0     H47650   2.335   6.342   3.127  0.2710  0.6358  0.6721
  353MOL0     H47651   2.449   6.508   2.753 -1.6496 -0.7675 -0.1078
  353MOL0     H47652   3.066   6.353   3.240 -0.2917  2.5863 -0.1479
  353MOL0     H47653   3.269   6.166   3.475 -2.1308 -0.5626 -0.0131
  353MOL0     H47654   3.179   6.169   3.330 -1.6621  1.6632  0.5160
  353MOL0     H47655   3.324   6.279   3.352  0.8708  0.4436 -1.4417
  354MOL0     O47656   4.969   1.944   2.525 -0.1668  0.1783 -0.3601
  354MOL0     C47657   4.895   1.849   2.535 -0.8712  0.7052  0.3940
  354MOL0     O47658   4.933   1.725   2.586 -0.0708  0.4966  0.8736
  354MOL0     C47659   5.067   1.709   2.610 -0.2010  0.0091  0.5651
  354MOL0     C47660   5.134   1.774   2.710 -0.6659  0.3657 -0.7571
  354MOL0     C47661   5.273   1.762   2.710  0.4470  0.5985 -1.6922
  354MOL0     C47662   5.350   1.692   2.616  1.0498  0.9820  0.1485
  354MOL0     O47663   5.481   1.672   2.611 -0.3961  0.5227  0.1750
  354MOL0     C47664   5.566   1.763   2.677 -0.3665 -0.1669  0.8734
  354MOL0     C47665   5.578   1.893   2.595 -0.7643 -0.5651  0.3249
  354MOL0     C47666   5.698   1.908   2.503 -0.7117  0.7023 -0.2705
  354MOL0     C47667   5.682   2.041   2.450  0.7480 -0.8185  0.3578
  354MOL0     C47668   5.795   2.070   2.343  0.8498  0.0809 -0.2230
  354MOL0     C47669   5.806   2.211   2.287 -0.4610  0.2307 -0.2580
  354MOL0     C47670   5.674   2.269   2.219 -0.5140 -0.5788  0.4437
  354MOL0     C47671   5.694   2.377   2.111  0.3099 -0.7399 -0.7838
  354MOL0     N47672   5.568   2.458   2.095  0.8191 -0.2789 -0.0468
  354MOL0     C47673   5.519   2.575   2.158 -0.0592 -0.3838 -0.6200
  354MOL0     C47674   5.387   2.598   2.109 -0.0427 -0.3177  0.3893
  354MOL0     C47675   5.280   2.709   2.138 -0.5924  0.8090  0.2610
  354MOL0     C47676   5.176   2.665   2.240 -0.6348  0.0766 -0.6076
  354MOL0     C47677   5.083   2.551   2.190 -0.7756  1.4126 -0.0479
  354MOL0     C47678   4.988   2.494   2.303  0.8110  0.1706 -0.8979
  354MOL0     O47679   4.913   2.589   2.372 -0.2792 -0.5502 -0.0302
  354MOL0     C47680   4.791   2.537   2.408  0.1727 -0.2894  0.4844
  354MOL0     C47681   4.682   2.574   2.327  0.5343  1.5643 -0.3888
  354MOL0     C47682   4.556   2.523   2.362  0.3645  0.5271  0.8056
  354MOL0     C47683   4.541   2.443   2.475 -0.5319  0.4241  0.7603
  354MOL0     C47684   4.410   2.389   2.517 -0.1480  0.4401  0.8491
  354MOL0     O47685   4.306   2.427   2.436 -0.1179 -0.2205  0.3276
  354MOL0     C47686   4.181   2.366   2.472 -0.3958 -0.5405  0.3439
  354MOL0     C47687   4.146   2.231   2.486  0.4871  0.9038  0.6048
  354MOL0     C47688   4.012   2.186   2.486 -0.1671 -0.5677  0.4998
  354MOL0     C47689   3.909   2.273   2.479  0.6036  0.1253  0.1675
  354MOL0     O47690   3.778   2.237   2.474 -0.5951 -0.0350 -0.9412
  354MOL0     C47691   3.733   2.104   2.506  0.0697 -0.2584  1.0166
  354MOL0     C47692   3.760   2.075   2.658  0.5524  1.6096 -0.7541
  354MOL0     C47693   3.657   1.958   2.696  0.7590 -0.3273  1.0318
  354MOL0     C47694   3.686   1.914   2.836 -0.2452  1.2789 -0.8447
  354MOL0     C47695   3.565   1.824   2.891  0.8806  0.3647  0.5961
  354MOL0     C47696   3.605   1.762   3.019 -0.6784 -0.1611  0.9158
  354MOL0     C47697   3.485   1.693   3.079 -0.0502 -0.0848  0.4150
  354MOL0     C47698   3.505   1.633   3.214  0.3007 -1.0281 -0.6093
  354MOL0    Cl47699   3.355   1.621   3.298  0.1587  0.5120  0.2585
  354MOL0     C47700   3.934   2.409   2.482 -0.3841  0.1017  1.0884
  354MOL0     C47701   4.071   2.453   2.473 -0.2084  0.3381  0.0989
  354MOL0     O47702   4.410   2.307   2.604 -0.2203  0.2404 -0.1741
  354MOL0     C47703   4.652   2.409   2.554  0.1420 -0.7663 -0.6623
  354MOL0     C47704   4.776   2.450   2.512 -0.2598  0.1299  0.9124
  354MOL0     N47705   5.362   2.497   2.025 -0.2307 -0.1246  0.0536
  354MOL0     N47706   5.461   2.412   2.023 -0.1505 -0.4482 -0.0100
  354MOL0     C47707   5.278   1.632   2.510 -0.2694  0.2928  0.3292
  354MOL0     C47708   5.137   1.638   2.505 -0.6419  0.4198 -0.1342
  354MOL0     C47709   4.753   1.864   2.484  0.1979  0.6868 -0.0677
  354MOL0     C47710   4.659   1.757   2.504  0.2496 -0.2746 -0.6443
  354MOL0     C47711   4.527   1.771   2.450 -0.1522  0.0812 -0.3246
  354MOL0     C47712   4.486   1.896   2.402 -0.6420 -0.0247  0.3360
  354MOL0     O47713   4.356   1.918   2.358 -0.4658  0.0314 -0.8858
  354MOL0     C47714   4.345   1.961   2.220  1.0255  0.7436 -0.2873
  354MOL0     C47715   4.247   1.880   2.131  0.1546 -0.2805 -0.7968
  354MOL0     C47716   4.099   1.893   2.177  0.3619  0.6071 -0.3375
  354MOL0     C47717   4.004   1.788   2.121  0.5153 -0.3877 -0.6226
  354MOL0     C47718   3.995   1.816   1.979  0.3914 -0.8003  0.4647
  354MOL0     C47719   3.982   1.810   1.856 -0.2725  0.2314  0.9741
  354MOL0     C47720   4.574   2.005   2.411 -0.2862  0.7009  0.1552
  354MOL0     C47721   4.705   1.990   2.441  0.1333  0.8610  0.3979
  354MOL0     C47722   4.795   2.119   2.435  0.4765  0.2258 -0.1938
  354MOL0     H47723   5.085   1.827   2.791 -3.4852 -2.3993 -0.4555
  354MOL0     H47724   5.324   1.816   2.789 -0.3275 -0.1868 -0.6282
  354MOL0     H47725   5.528   1.772   2.780 -0.0155  4.1953  0.8041
  354MOL0     H47726   5.668   1.726   2.684  0.3756  1.5302 -0.3428
  354MOL0     H47727   5.616   1.961   2.672  0.7286 -0.8685 -0.1071
  354MOL0     H47728   5.485   1.930   2.551  0.1552  1.8520  0.2099
  354MOL0     H47729   5.676   1.834   2.425 -1.2086  1.4305 -0.8451
  354MOL0     H47730   5.793   1.891   2.554 -0.4002 -0.8981 -1.3004
  354MOL0     H47731   5.585   2.053   2.402  0.4222  1.6251  1.4936
  354MOL0     H47732   5.704   2.111   2.531 -1.5033  2.9815 -2.0183
  354MOL0     H47733   5.890   2.041   2.389  1.0163 -0.0509 -0.6390
  354MOL0     H47734   5.775   2.009   2.254 -1.3926  0.0722  0.2443
  354MOL0     H47735   5.815   2.290   2.362 -1.8588  2.0711 -1.9153
  354MOL0     H47736   5.886   2.211   2.213  0.5036  0.9262  0.7594
  354MOL0     H47737   5.609   2.311   2.296 -1.8249  2.2778 -2.0049
  354MOL0     H47738   5.622   2.189   2.165  0.9186 -0.5106 -1.1232
  354MOL0     H47739   5.774   2.445   2.140  1.1544 -2.5838  1.6124
  354MOL0     H47740   5.717   2.336   2.012  0.6658 -0.1807 -0.9337
  354MOL0     H47741   5.579   2.619   2.237 -1.1119 -1.6107  0.9234
  354MOL0     H47742   5.331   2.800   2.174  1.1409 -0.5618  1.4446
  354MOL0     H47743   5.234   2.740   2.044 -0.4119  1.6958  0.4550
  354MOL0     H47744   5.229   2.623   2.325  1.4463  2.9167 -0.3655
  354MOL0     H47745   5.111   2.748   2.267 -0.0968  1.2639 -2.7399
  354MOL0     H47746   5.149   2.469   2.158 -2.2937 -0.4397  1.2857
  354MOL0     H47747   5.033   2.591   2.101  3.7719  0.2568 -3.5347
  354MOL0     H47748   5.042   2.447   2.386 -0.2957 -1.5356 -1.0959
  354MOL0     H47749   4.928   2.410   2.267  0.6532 -0.4325  0.7065
  354MOL0     H47750   4.695   2.638   2.240 -0.8022  1.3864 -0.7360
  354MOL0     H47751   4.471   2.560   2.306 -1.1956 -2.3604  1.0570
  354MOL0     H47752   4.231   2.163   2.489  0.0352  0.3402  4.1841
  354MOL0     H47753   3.998   2.080   2.466 -1.2478 -0.1202 -1.4108
  354MOL0     H47754   3.626   2.096   2.485  0.5019  0.5970 -1.9373
  354MOL0     H47755   3.782   2.026   2.447  4.4055  3.4864 -1.0297
  354MOL0     H47756   3.859   2.032   2.680  0.2801  0.4195 -1.7524
  354MOL0     H47757   3.755   2.159   2.728 -1.5684  0.7708  0.1794
  354MOL0     H47758   3.564   2.014   2.703  2.6725  2.9867  2.7953
  354MOL0     H47759   3.658   1.871   2.630  0.3302  0.6137 -0.2361
  354MOL0     H47760   3.712   1.992   2.909 -1.8790  1.7644 -0.7245
  354MOL0     H47761   3.769   1.844   2.829  2.4311  4.2853 -1.8411
  354MOL0     H47762   3.551   1.746   2.815 -1.8764  2.6238 -1.4122
  354MOL0     H47763   3.472   1.880   2.897  1.3378  1.3747 -0.9497
  354MOL0     H47764   3.690   1.695   3.004 -1.2019 -0.6057 -0.2286
  354MOL0     H47765   3.630   1.843   3.088  0.0421 -0.8585  1.4822
  354MOL0     H47766   3.459   1.610   3.012  1.8304 -2.3767  2.3225
  354MOL0     H47767   3.403   1.766   3.083  0.3763  0.3584  1.1998
  354MOL0     H47768   3.557   1.537   3.205 -1.1287 -1.9157  0.1753
  354MOL0     H47769   3.573   1.695   3.271  0.4408 -2.9056  1.4050
  354MOL0     H47770   3.872   2.496   2.467 -1.5070  0.1719  5.0690
  354MOL0     H47771   4.091   2.559   2.475  1.4402  0.1139 -1.7539
  354MOL0     H47772   4.653   2.357   2.649 -0.0436  0.5353  0.0799
  354MOL0     H47773   4.864   2.455   2.576  1.8609  1.5605 -1.9182
  354MOL0     H47774   5.341   1.573   2.444  2.1227  0.2026  2.5334
  354MOL0     H47775   5.077   1.590   2.428 -0.1185 -1.7705  0.7328
  354MOL0     H47776   4.702   1.667   2.546  1.7183  0.2872 -0.9077
  354MOL0     H47777   4.452   1.693   2.441 -0.3726  0.4288 -1.8238
  354MOL0     H47778   4.442   1.944   2.173  0.1033 -1.4153 -1.5630
  354MOL0     H47779   4.324   2.068   2.222  4.2659  1.4725  1.2056
  354MOL0     H47780   4.282   1.777   2.145 -1.1588 -0.3683  2.9059
  354MOL0     H47781   4.257   1.918   2.029  2.4377  2.1019  0.1914
  354MOL0     H47782   4.072   1.999   2.171  0.3906  0.7383  1.3549
  354MOL0     H47783   4.117   1.884   2.285  0.5269  0.3852 -0.3839
  354MOL0     H47784   4.038   1.685   2.129 -0.7150 -0.6929  1.3770
  354MOL0     H47785   3.908   1.781   2.174  0.7602 -2.3343 -0.3619
  354MOL0     H47786   3.972   1.799   1.750  2.3030 -5.0159  0.9221
  354MOL0     H47787   4.544   2.100   2.367 -0.9773  0.9359  1.0953
  354MOL0     H47788   4.733   2.202   2.399 -2.5806 -0.3186  3.2738
  354MOL0     H47789   4.831   2.139   2.536  1.9088 -1.4950 -0.3086
  354MOL0     H47790   4.870   2.097   2.359  1.3922  0.9775  0.4722
  355MOL0     O47791   3.410   4.657   6.345 -0.3874  0.1164 -0.1446
  355MOL0     C47792   3.525   4.616   6.362  0.2706  0.1583 -0.1119
  355MOL0     O47793   3.590   4.614   6.478 -0.3341 -0.7758 -0.2511
  355MOL0     C47794   3.514   4.623   6.595  0.5918  0.3486 -0.4144
  355MOL0     C47795   3.446   4.738   6.632 -0.0984  0.4074  0.0639
  355MOL0     C47796   3.375   4.738   6.753  1.5460  0.6041 -0.6333
  355MOL0     C47797   3.379   4.624   6.834  0.0984  0.8756 -0.4427
  355MOL0     O47798   3.313   4.630   6.955  0.0944 -0.8273  0.5384
  355MOL0     C47799   3.187   4.707   6.958  0.2260 -1.2013  0.9167
  355MOL0     C47800   3.095   4.685   7.083 -0.7196  0.7938  0.0695
  355MOL0     C47801   3.086   4.530   7.106  0.7040  0.4873  0.1612
  355MOL0     C47802   3.003   4.497   7.224 -0.0900  0.0270 -0.5561
  355MOL0     C47803   2.995   4.342   7.252  0.1940 -0.7098 -1.2614
  355MOL0     C47804   2.854   4.278   7.285  0.0144  0.8010  0.0690
  355MOL0     C47805   2.765   4.227   7.169  0.3280 -0.0296 -0.1232
  355MOL0     C47806   2.803   4.081   7.120 -0.0194  0.5040  0.6468
  355MOL0     N47807   2.686   4.033   7.044  0.2050 -0.0812 -0.5537
  355MOL0     C47808   2.657   4.071   6.914  0.3624 -0.6165  0.6930
  355MOL0     C47809   2.533   4.036   6.897 -0.4807  0.2535 -0.6961
  355MOL0     C47810   2.448   4.069   6.770  0.0448  0.8723  0.0735
  355MOL0     C47811   2.334   3.972   6.730 -0.7220 -0.6505 -0.9312
  355MOL0     C47812   2.390   3.856   6.639  0.3527 -0.0783 -0.2574
  355MOL0     C47813   2.488   3.773   6.698 -1.2745 -0.7346  0.1264
  355MOL0     O47814   2.522   3.661   6.615  0.2326 -0.0678 -0.5680
  355MOL0     C47815   2.615   3.575   6.679  0.0777 -0.2957  0.2221
  355MOL0     C47816   2.575   3.492   6.786 -0.3437  0.1810  0.1775
  355MOL0     C47817   2.659   3.391   6.840 -0.8836  1.0419  0.3869
  355MOL0     C47818   2.787   3.365   6.783 -0.6248  0.5572  0.7136
  355MOL0     C47819   2.883   3.266   6.821 -0.6887  0.6699  0.6871
  355MOL0     O47820   2.997   3.252   6.744 -0.4687 -0.4512 -0.7749
  355MOL0     C47821   3.085   3.149   6.777 -2.0819  0.6558  0.3937
  355MOL0     C47822   3.159   3.138   6.902 -0.3670 -0.1016  0.3699
  355MOL0     C47823   3.267   3.048   6.908 -0.2343 -0.2676 -0.4835
  355MOL0     C47824   3.289   2.952   6.810 -0.2485  0.8327  0.3124
  355MOL0     O47825   3.385   2.861   6.845 -0.1120  0.3036 -0.1401
  355MOL0     C47826   3.415   2.756   6.748 -1.2329 -1.0295 -0.7173
  355MOL0     C47827   3.541   2.684   6.782 -0.3407  0.5447 -0.0303
  355MOL0     C47828   3.567   2.576   6.680 -0.2446 -0.2363  0.0011
  355MOL0     C47829   3.710   2.503   6.703 -0.9654 -0.9483 -0.4226
  355MOL0     C47830   3.735   2.392   6.590 -0.2612 -0.7462 -0.1479
  355MOL0     C47831   3.852   2.424   6.492  0.7930  0.1276 -0.2927
  355MOL0     C47832   3.982   2.429   6.566 -0.0374 -0.5457 -0.2011
  355MOL0     C47833   4.088   2.473   6.463  1.5089  0.6805  0.1575
  355MOL0    Cl47834   4.048   2.634   6.398  0.2748  0.2966 -0.2225
  355MOL0     C47835   3.218   2.963   6.692 -0.0104  0.2053  1.2664
  355MOL0     C47836   3.125   3.066   6.676 -0.3639  0.4719  0.7384
  355MOL0     O47837   2.850   3.180   6.906 -0.0186  0.3857 -0.4682
  355MOL0     C47838   2.816   3.437   6.668  0.5765 -0.1328  1.0940
  355MOL0     C47839   2.734   3.535   6.609  0.7222  0.2343 -0.5294
  355MOL0     N47840   2.479   3.987   7.021 -0.3376 -0.5687 -0.4874
  355MOL0     N47841   2.580   3.975   7.101  1.3572 -0.3228 -0.6226
  355MOL0     C47842   3.442   4.508   6.793 -1.3610  0.3583 -0.1740
  355MOL0     C47843   3.517   4.509   6.680  0.8141  0.3224 -0.2144
  355MOL0     C47844   3.600   4.560   6.238 -0.4652  0.8978 -0.9719
  355MOL0     C47845   3.516   4.509   6.139  0.7717 -0.3767  1.3172
  355MOL0     C47846   3.579   4.445   6.032 -0.9994 -0.9633 -0.3323
  355MOL0     C47847   3.718   4.442   6.003  1.1080 -0.4821 -0.7842
  355MOL0     O47848   3.764   4.392   5.888 -0.3009 -0.1724  0.1959
  355MOL0     C47849   3.895   4.427   5.829 -0.0928  0.4725  0.8937
  355MOL0     C47850   3.914   4.577   5.812  0.0175  0.1606  0.5269
  355MOL0     C47851   4.051   4.615   5.765 -0.2769  0.2366 -0.3707
  355MOL0     C47852   4.168   4.570   5.860  0.3730 -0.4854 -0.2101
  355MOL0     C47853   4.158   4.614   5.994  0.3288  0.1272 -1.3407
  355MOL0     C47854   4.158   4.671   6.097  0.6352  0.2585  1.0535
  355MOL0     C47855   3.798   4.486   6.113 -1.5421  0.1083  0.6158
  355MOL0     C47856   3.749   4.545   6.223  0.4924 -0.1880 -0.6176
  355MOL0     C47857   3.830   4.635   6.316 -1.0784 -0.8348  0.3422
  355MOL0     H47858   3.455   4.827   6.571 -0.4275  0.2338 -0.2439
  355MOL0     H47859   3.311   4.819   6.785 -2.9513 -2.9419  0.3892
  355MOL0     H47860   3.211   4.814   6.951  3.0239 -1.4505  4.2640
  355MOL0     H47861   3.132   4.675   6.869  1.5048  1.1711 -0.8356
  355MOL0     H47862   3.004   4.744   7.073 -0.8554  0.3085 -1.8803
  355MOL0     H47863   3.139   4.730   7.172 -4.2378  3.8331  0.5064
  355MOL0     H47864   3.185   4.487   7.118  0.3042 -2.1486 -3.8900
  355MOL0     H47865   3.061   4.470   7.018  2.9624 -0.8683  0.3703
  355MOL0     H47866   3.028   4.565   7.306  1.1670  2.1553 -2.5572
  355MOL0     H47867   2.903   4.535   7.199 -0.3778  0.1621  0.7524
  355MOL0     H47868   3.050   4.285   7.177  1.7356 -0.8085 -0.1217
  355MOL0     H47869   3.057   4.333   7.342  0.8226  3.4699 -1.0804
  355MOL0     H47870   2.876   4.190   7.346 -1.6725  0.6838  0.5516
  355MOL0     H47871   2.801   4.334   7.363  2.8626 -1.2531  3.8115
  355MOL0     H47872   2.777   4.292   7.082  2.6598 -1.0843 -0.6407
  355MOL0     H47873   2.660   4.238   7.201  0.0765  0.2221 -0.9913
  355MOL0     H47874   2.891   4.088   7.056  1.1870 -0.5024  2.1198
  355MOL0     H47875   2.821   4.003   7.195 -1.1029 -0.4466 -0.0401
  355MOL0     H47876   2.719   4.137   6.852 -1.8669  1.2812  0.3367
  355MOL0     H47877   2.397   4.165   6.781 -0.6582  0.4382  0.7576
  355MOL0     H47878   2.521   4.070   6.689 -1.7432 -1.4643 -1.7272
  355MOL0     H47879   2.284   3.944   6.823  1.7697  0.5911  0.9021
  355MOL0     H47880   2.259   4.022   6.668 -3.3278 -3.1006 -0.0197
  355MOL0     H47881   2.420   3.910   6.549 -0.4198 -0.5513 -0.8156
  355MOL0     H47882   2.304   3.793   6.615  2.1092 -3.0301  0.6632
  355MOL0     H47883   2.448   3.744   6.796 -1.4306 -0.4637  0.1427
  355MOL0     H47884   2.577   3.835   6.714  0.2244 -2.8010  0.2706
  355MOL0     H47885   2.470   3.494   6.815 -1.3705 -1.2281 -3.0263
  355MOL0     H47886   2.628   3.317   6.914  2.2120 -0.3875  0.4297
  355MOL0     H47887   3.137   3.202   6.987 -0.1164 -0.9387  1.0725
  355MOL0     H47888   3.329   3.041   6.997  1.7660  0.3027 -1.7518
  355MOL0     H47889   3.337   2.680   6.741 -1.0928 -1.1433 -1.0752
  355MOL0     H47890   3.419   2.809   6.652  0.7901  0.4326  0.0910
  355MOL0     H47891   3.625   2.754   6.782  0.7162 -0.5801  2.5638
  355MOL0     H47892   3.521   2.647   6.884 -2.8588 -1.4213 -1.1281
  355MOL0     H47893   3.482   2.509   6.695 -1.8735  1.8816  0.7341
  355MOL0     H47894   3.550   2.627   6.584 -2.0934 -0.0550  0.3985
  355MOL0     H47895   3.712   2.448   6.798 -0.3008 -0.6216 -0.2424
  355MOL0     H47896   3.787   2.580   6.702 -3.1534  1.3503 -1.6564
  355MOL0     H47897   3.638   2.365   6.548 -0.1905 -1.2835  0.0305
  355MOL0     H47898   3.764   2.300   6.642 -3.2420  0.4828  4.2166
  355MOL0     H47899   3.853   2.339   6.423  0.3218  0.8102 -1.1581
  355MOL0     H47900   3.824   2.515   6.439  1.2538  1.1169  1.1235
  355MOL0     H47901   4.008   2.327   6.598  1.7150 -1.5860 -4.2790
  355MOL0     H47902   3.969   2.504   6.644 -2.9735 -0.3537 -0.7716
  355MOL0     H47903   4.181   2.470   6.521  0.0068  2.2204  2.8763
  355MOL0     H47904   4.096   2.389   6.393  0.6744 -0.1854  1.0674
  355MOL0     H47905   3.227   2.887   6.614  0.6375 -0.6122  2.1196
  355MOL0     H47906   3.074   3.097   6.585 -1.9761  5.5312  2.9818
  355MOL0     H47907   2.902   3.422   6.603 -0.1853 -0.8556  0.2414
  355MOL0     H47908   2.747   3.583   6.512  0.7678  0.0087 -0.6352
  355MOL0     H47909   3.444   4.418   6.854  0.3657  1.6846  1.8873
  355MOL0     H47910   3.571   4.417   6.660 -0.9923 -1.1365  1.3712
  355MOL0     H47911   3.408   4.505   6.146  0.0680 -1.4031 -4.7424
  355MOL0     H47912   3.513   4.417   5.950 -1.1365  0.7546 -0.8438
  355MOL0     H47913   3.902   4.381   5.730 -1.5145 -0.4614  1.1961
  355MOL0     H47914   3.971   4.389   5.898 -0.1305 -0.3461  0.5046
  355MOL0     H47915   3.883   4.636   5.899  0.2333 -1.0142  1.4238
  355MOL0     H47916   3.845   4.625   5.742  1.0634 -0.7331 -1.1635
  355MOL0     H47917   4.063   4.723   5.750  1.2801  0.0507 -0.6043
  355MOL0     H47918   4.063   4.560   5.671  0.1096  0.0700 -0.2226
  355MOL0     H47919   4.184   4.462   5.873  3.3265 -0.0865  0.2101
  355MOL0     H47920   4.264   4.607   5.821  3.1128 -3.6879  2.7716
  355MOL0     H47921   4.158   4.726   6.188 -3.9898 -0.3963  1.6614
  355MOL0     H47922   3.902   4.464   6.090 -1.6963 -1.4915  1.2796
  355MOL0     H47923   3.904   4.702   6.270  1.3429 -3.3024  0.3908
  355MOL0     H47924   3.777   4.696   6.390 -0.0356  0.5270  0.0130
  355MOL0     H47925   3.893   4.564   6.370  1.8068  1.1453 -0.1485
  356MOL0     O47926   4.169   8.351   4.606  0.8092 -0.5493 -0.4942
  356MOL0     C47927   4.088   8.440   4.642  0.9059  0.3751  0.2759
  356MOL0     O47928   4.101   8.528   4.749 -0.2666  0.3499 -0.1641
  356MOL0     C47929   4.211   8.501   4.827  0.1185  0.0007 -0.6314
  356MOL0     C47930   4.229   8.387   4.908 -0.0754 -0.3678  1.1680
  356MOL0     C47931   4.352   8.343   4.979  0.1645  0.3312 -0.2366
  356MOL0     C47932   4.452   8.436   4.981 -0.4056 -0.4170 -0.8866
  356MOL0     O47933   4.549   8.451   5.073  0.2717 -0.3390 -0.2937
  356MOL0     C47934   4.587   8.338   5.154 -1.1655  0.1852  1.0543
  356MOL0     C47935   4.698   8.370   5.254  0.0675 -0.2795  0.1108
  356MOL0     C47936   4.707   8.288   5.382 -0.1473 -0.1826  0.0658
  356MOL0     C47937   4.652   8.361   5.503 -0.4696 -0.8699  0.3628
  356MOL0     C47938   4.575   8.254   5.580 -0.1689  0.9770 -0.1865
  356MOL0     C47939   4.473   8.329   5.668  0.3329  0.3964 -0.0189
  356MOL0     C47940   4.355   8.255   5.719 -0.3318 -0.4784  0.2006
  356MOL0     C47941   4.281   8.187   5.609 -0.3792 -0.7007  0.4319
  356MOL0     N47942   4.231   8.275   5.496  0.0546  0.4570  0.0402
  356MOL0     C47943   4.163   8.396   5.493  0.7598 -0.9290 -1.0569
  356MOL0     C47944   4.202   8.453   5.381  0.2696 -0.3267  0.1393
  356MOL0     C47945   4.152   8.581   5.321  0.0315 -0.0627  0.8840
  356MOL0     C47946   3.999   8.584   5.293  0.0402  0.4127 -0.6393
  356MOL0     C47947   3.943   8.711   5.220  0.3597  0.7890  1.0011
  356MOL0     C47948   3.787   8.714   5.188 -0.8772  0.6914 -0.3569
  356MOL0     O47949   3.744   8.583   5.145 -0.5556 -0.9141  0.0165
  356MOL0     C47950   3.615   8.557   5.122  0.0313  0.0033  0.0364
  356MOL0     C47951   3.517   8.657   5.100  0.2750 -0.3285  0.4934
  356MOL0     C47952   3.383   8.628   5.064  0.1461  0.5492 -0.1263
  356MOL0     C47953   3.341   8.492   5.076 -0.4094 -0.2026 -0.2482
  356MOL0     C47954   3.192   8.456   5.088  0.8651  0.1282  0.0562
  356MOL0     O47955   3.149   8.322   5.108 -0.2423  0.2820  0.2028
  356MOL0     C47956   3.019   8.297   5.105 -0.0837  0.1685 -0.4326
  356MOL0     C47957   2.951   8.285   5.226 -0.1058 -0.2267 -0.1251
  356MOL0     C47958   2.820   8.253   5.226  0.7804 -0.0418 -0.8177
  356MOL0     C47959   2.752   8.222   5.111 -0.0151 -0.3584 -0.4159
  356MOL0     O47960   2.620   8.178   5.131 -0.1928 -0.2238  0.3970
  356MOL0     C47961   2.544   8.151   5.015  1.3941 -0.0007 -0.2476
  356MOL0     C47962   2.487   8.284   4.972 -0.5346 -0.1943  0.2912
  356MOL0     C47963   2.389   8.296   4.862  0.3830  0.3744 -0.1236
  356MOL0     C47964   2.276   8.191   4.874 -0.1618 -0.8958  0.2654
  356MOL0     C47965   2.163   8.203   4.765 -1.0348  0.0508 -0.3290
  356MOL0     C47966   2.070   8.326   4.775  0.3095  0.0531  0.1536
  356MOL0     C47967   1.959   8.324   4.666  0.3362  0.2307  0.2408
  356MOL0     C47968   1.860   8.441   4.675 -0.8836 -0.1265  0.1983
  356MOL0    Cl47969   1.761   8.457   4.829  0.4639 -0.4421  0.1852
  356MOL0     C47970   2.820   8.244   4.991  0.6716 -0.2815  0.4968
  356MOL0     C47971   2.948   8.286   4.984  0.9310 -0.1070 -0.4731
  356MOL0     O47972   3.119   8.549   5.091 -0.3287 -0.2868 -0.3738
  356MOL0     C47973   3.435   8.392   5.103 -0.0994 -0.8389  0.8250
  356MOL0     C47974   3.573   8.429   5.119 -0.7044 -0.3581  0.5044
  356MOL0     N47975   4.251   8.353   5.305  0.7767 -0.0736  0.2001
  356MOL0     N47976   4.285   8.257   5.369  0.2913 -0.2790 -1.0084
  356MOL0     C47977   4.428   8.556   4.914  0.7174 -0.3055  1.1322
  356MOL0     C47978   4.312   8.585   4.834 -0.1868  0.4916  0.2539
  356MOL0     C47979   3.961   8.451   4.558 -0.0632  0.7787 -0.6913
  356MOL0     C47980   3.863   8.527   4.615  0.5535 -0.2731  0.3950
  356MOL0     C47981   3.742   8.540   4.552  0.0203 -0.2163 -0.0211
  356MOL0     C47982   3.720   8.499   4.418 -0.1331  0.0495 -0.2628
  356MOL0     O47983   3.605   8.539   4.358 -0.0559  0.1882 -0.8185
  356MOL0     C47984   3.558   8.484   4.240 -0.3667 -0.3910 -0.7506
  356MOL0     C47985   3.545   8.597   4.133  0.0039 -0.4043 -0.2160
  356MOL0     C47986   3.674   8.630   4.049  0.0915 -0.6853 -0.3881
  356MOL0     C47987   3.647   8.715   3.925  0.1401 -1.7218 -0.4791
  356MOL0     C47988   3.592   8.636   3.817 -0.2485 -0.0139 -0.0134
  356MOL0     C47989   3.544   8.559   3.738  0.0620  0.6125  0.0454
  356MOL0     C47990   3.831   8.431   4.356  0.5502 -0.1950 -0.1938
  356MOL0     C47991   3.948   8.397   4.430  0.3613 -0.0643  0.5750
  356MOL0     C47992   4.043   8.304   4.364 -0.6798  0.3518  0.6133
  356MOL0     H47993   4.137   8.332   4.928 -1.1970  1.7030  2.0412
  356MOL0     H47994   4.357   8.249   5.033 -2.0502 -1.2446 -2.5652
  356MOL0     H47995   4.501   8.292   5.202 -0.0591 -0.2796  2.6681
  356MOL0     H47996   4.632   8.261   5.089 -1.0156  1.8109 -0.8482
  356MOL0     H47997   4.691   8.476   5.283  0.9485 -0.2600  0.2793
  356MOL0     H47998   4.798   8.369   5.208  0.6598  3.7243  0.8677
  356MOL0     H47999   4.813   8.262   5.385 -0.1693 -0.9388 -2.9877
  356MOL0     H48000   4.652   8.196   5.364  1.4413 -1.0461 -0.6141
  356MOL0     H48001   4.725   8.407   5.569  1.4842 -0.3932 -1.9942
  356MOL0     H48002   4.587   8.443   5.470  2.0909  0.9410 -0.4707
  356MOL0     H48003   4.522   8.188   5.512  2.6799 -1.9298  0.1679
  356MOL0     H48004   4.646   8.211   5.652 -1.2533  1.8878  1.5053
  356MOL0     H48005   4.527   8.385   5.744 -2.0010 -0.0959  2.1256
  356MOL0     H48006   4.421   8.405   5.609  0.8950  2.7999  2.4034
  356MOL0     H48007   4.299   8.336   5.766 -0.2839  0.4503 -1.2680
  356MOL0     H48008   4.377   8.171   5.786 -0.8721  0.0102  1.0043
  356MOL0     H48009   4.339   8.101   5.574  3.8815  1.9000  0.4890
  356MOL0     H48010   4.188   8.148   5.652 -0.0897 -1.2674  0.5502
  356MOL0     H48011   4.113   8.440   5.578  1.8864  1.0199 -1.3565
  356MOL0     H48012   4.169   8.667   5.385 -0.2968 -0.0028  0.8908
  356MOL0     H48013   4.203   8.607   5.228  0.8050 -0.7519  1.0973
  356MOL0     H48014   3.971   8.489   5.246 -0.2421 -0.6010  1.4941
  356MOL0     H48015   3.963   8.583   5.396  0.4523  2.7244 -0.4013
  356MOL0     H48016   3.990   8.708   5.121 -2.1949  0.5790 -0.2836
  356MOL0     H48017   3.965   8.802   5.277  0.5811 -0.2617  2.6798
  356MOL0     H48018   3.749   8.797   5.127 -0.5186  0.8978 -0.3021
  356MOL0     H48019   3.749   8.731   5.290  0.4760  1.7092  0.0069
  356MOL0     H48020   3.553   8.759   5.098 -2.2181  0.6644 -2.5341
  356MOL0     H48021   3.325   8.717   5.043  1.8923  1.2941 -2.1479
  356MOL0     H48022   2.993   8.285   5.326 -1.9105  0.2258  0.6631
  356MOL0     H48023   2.759   8.235   5.314 -1.6974  1.8259 -2.0245
  356MOL0     H48024   2.602   8.105   4.935 -0.2255 -0.9246 -0.9391
  356MOL0     H48025   2.459   8.085   5.037  2.1568 -0.9426 -0.0723
  356MOL0     H48026   2.442   8.322   5.064  0.3638  0.9366  0.2812
  356MOL0     H48027   2.571   8.346   4.939 -0.1201 -1.2134 -0.6681
  356MOL0     H48028   2.353   8.399   4.862 -0.2252  0.2650 -2.9223
  356MOL0     H48029   2.435   8.267   4.767  0.8453  0.8733 -0.0531
  356MOL0     H48030   2.232   8.199   4.974  2.2203 -1.2964  1.4176
  356MOL0     H48031   2.309   8.088   4.865  0.6784 -0.7535  1.5485
  356MOL0     H48032   2.102   8.112   4.764 -1.1241  0.1111 -0.6648
  356MOL0     H48033   2.220   8.206   4.671  0.0444 -0.8925  0.2650
  356MOL0     H48034   2.029   8.318   4.876 -2.7206  0.0605 -0.9792
  356MOL0     H48035   2.126   8.419   4.767  0.4946  0.0066  0.8914
  356MOL0     H48036   1.905   8.230   4.653 -0.8496  1.1702 -2.3892
  356MOL0     H48037   2.005   8.341   4.568  0.4875 -0.0801  0.2557
  356MOL0     H48038   1.930   8.525   4.670 -0.0081 -0.7756  1.1560
  356MOL0     H48039   1.800   8.438   4.583 -1.6245 -1.5201  0.7067
  356MOL0     H48040   2.763   8.239   4.898  0.4719 -1.7401  0.6842
  356MOL0     H48041   2.991   8.304   4.886 -0.3085  1.6125 -0.7310
  356MOL0     H48042   3.392   8.292   5.112 -2.9918  0.1311 -0.8557
  356MOL0     H48043   3.641   8.351   5.151 -1.4076 -0.3224  2.1896
  356MOL0     H48044   4.505   8.631   4.924  0.4661  0.7479 -3.0036
  356MOL0     H48045   4.304   8.673   4.771  2.1352 -0.5883 -1.7303
  356MOL0     H48046   3.873   8.571   4.713  2.0645 -3.1139  1.6445
  356MOL0     H48047   3.663   8.598   4.600 -0.1185 -0.9184  0.6280
  356MOL0     H48048   3.458   8.445   4.258 -0.6644 -0.3127 -2.1414
  356MOL0     H48049   3.630   8.408   4.209  1.3538  1.3923 -1.3848
  356MOL0     H48050   3.506   8.692   4.169 -0.6067 -0.7338  0.0072
  356MOL0     H48051   3.472   8.564   4.059 -1.2896  3.6146 -0.9900
  356MOL0     H48052   3.703   8.531   4.011  1.4267 -0.8083  0.8858
  356MOL0     H48053   3.752   8.668   4.116  0.8436  0.5770 -1.9181
  356MOL0     H48054   3.576   8.794   3.953  0.5069 -1.6782  0.3682
  356MOL0     H48055   3.742   8.757   3.893 -0.2554  0.3031  0.8036
  356MOL0     H48056   3.507   8.487   3.667 -0.0932  2.6766 -2.0787
  356MOL0     H48057   3.839   8.409   4.250  2.1965 -2.0246  0.2530
  356MOL0     H48058   4.146   8.339   4.378 -1.0204  2.6242 -1.7419
  356MOL0     H48059   4.036   8.210   4.419 -2.3823  0.7761  1.1780
  356MOL0     H48060   4.041   8.306   4.255  3.0097  2.0470  0.4034
  357MOL0     O48061   4.794   4.242   3.166 -0.3471 -0.3911 -0.0357
  357MOL0     C48062   4.672   4.231   3.150  0.1807 -0.3463  0.2344
  357MOL0     O48063   4.598   4.335   3.107 -0.6116  0.1179  0.3759
  357MOL0     C48064   4.667   4.453   3.084 -0.0438 -0.0061 -0.2488
  357MOL0     C48065   4.693   4.502   2.957  0.1625  0.2674  0.1304
  357MOL0     C48066   4.759   4.624   2.938 -0.4534 -0.9097  1.0341
  357MOL0     C48067   4.789   4.702   3.045 -0.3933  0.1794 -0.3286
  357MOL0     O48068   4.870   4.814   3.042 -0.3095  0.0629  0.6884
  357MOL0     C48069   4.955   4.832   2.928 -0.1937 -0.2434  0.5011
  357MOL0     C48070   5.050   4.949   2.951  0.1637 -0.5883  0.3434
  357MOL0     C48071   5.171   4.951   2.861  0.0941 -0.5413  0.6938
  357MOL0     C48072   5.238   5.083   2.863  0.1460  0.0303  0.0629
  357MOL0     C48073   5.386   5.062   2.812 -0.7692  0.4497 -0.5661
  357MOL0     C48074   5.447   5.200   2.783 -0.5327  1.0287 -0.7798
  357MOL0     C48075   5.450   5.303   2.899 -0.5576  0.1651  0.1118
  357MOL0     C48076   5.531   5.264   3.021 -0.3428 -0.0300 -0.5061
  357MOL0     N48077   5.674   5.246   2.991  0.1557 -0.2426  0.1281
  357MOL0     C48078   5.753   5.358   2.960 -0.8221  0.2870  0.3051
  357MOL0     C48079   5.871   5.306   2.916  0.5617  0.8561  0.8743
  357MOL0     C48080   5.989   5.391   2.874  0.1697 -0.2255  0.1332
  357MOL0     C48081   6.117   5.349   2.940 -0.5876  0.7455  0.3919
  357MOL0     C48082   6.235   5.434   2.902 -0.9089 -0.4278  0.2378
  357MOL0     C48083   6.367   5.378   2.965 -0.1661 -0.8718  0.5142
  357MOL0     O48084   6.455   5.491   2.959 -0.8048  0.1966  0.6323
  357MOL0     C48085   6.460   5.577   3.068  0.0781 -0.3918 -0.2879
  357MOL0     C48086   6.412   5.551   3.196 -0.7045 -0.2588 -1.0735
  357MOL0     C48087   6.440   5.642   3.298  0.5728 -0.7705  0.1994
  357MOL0     C48088   6.488   5.776   3.268  0.2809  0.1694  0.1965
  357MOL0     C48089   6.508   5.882   3.376 -0.0605 -0.2976  0.0510
  357MOL0     O48090   6.546   6.006   3.355  0.3672  0.0019  0.1069
  357MOL0     C48091   6.551   6.090   3.460 -0.1844  0.3120 -0.5075
  357MOL0     C48092   6.450   6.189   3.476 -0.4424  0.4834 -0.4256
  357MOL0     C48093   6.470   6.287   3.573  0.1672  0.3259 -0.5969
  357MOL0     C48094   6.579   6.280   3.658  0.0715  0.8417 -0.4692
  357MOL0     O48095   6.608   6.378   3.742 -0.6295  0.7082 -0.0811
  357MOL0     C48096   6.537   6.378   3.863 -0.3336 -0.2917  0.6631
  357MOL0     C48097   6.573   6.485   3.960  0.1670  0.1276 -0.2424
  357MOL0     C48098   6.518   6.473   4.106 -0.2841 -0.0351 -0.3585
  357MOL0     C48099   6.598   6.541   4.223  0.8478 -0.1091 -0.8985
  357MOL0     C48100   6.576   6.693   4.212  0.1166 -0.1970 -0.5060
  357MOL0     C48101   6.661   6.760   4.313  0.0690  0.2992 -0.0537
  357MOL0     C48102   6.657   6.914   4.291 -0.5246  0.2143  0.2245
  357MOL0     C48103   6.747   6.983   4.391  0.0156  0.1293  0.9363
  357MOL0    Cl48104   6.757   7.163   4.360 -0.1969 -0.3418  0.5210
  357MOL0     C48105   6.672   6.176   3.645  0.3898 -0.0992 -1.1534
  357MOL0     C48106   6.660   6.078   3.550 -0.5373 -0.7330 -0.2084
  357MOL0     O48107   6.495   5.840   3.486 -0.0650 -0.5318  0.3277
  357MOL0     C48108   6.545   5.800   3.143  0.8590  0.0996  0.2152
  357MOL0     C48109   6.530   5.703   3.048  0.2126 -0.4943  0.7984
  357MOL0     N48110   5.861   5.173   2.938  0.1657  0.0458  0.1712
  357MOL0     N48111   5.751   5.136   2.975  0.7821  0.1124 -0.4905
  357MOL0     C48112   4.750   4.656   3.165 -0.1803 -0.5788 -0.3142
  357MOL0     C48113   4.700   4.531   3.186  0.0398  0.3496  0.5671
  357MOL0     C48114   4.614   4.105   3.191  0.4617 -0.1729  0.7955
  357MOL0     C48115   4.698   4.008   3.254  0.2653 -0.6414 -0.1802
  357MOL0     C48116   4.650   3.881   3.289  0.7593  0.1325 -0.0291
  357MOL0     C48117   4.520   3.850   3.260  0.1538  0.0153  0.4797
  357MOL0     O48118   4.483   3.717   3.275 -0.0581 -0.4508  0.5128
  357MOL0     C48119   4.530   3.633   3.377  0.3489  0.0499  0.3984
  357MOL0     C48120   4.421   3.532   3.409  0.7718 -1.0427  0.5665
  357MOL0     C48121   4.462   3.486   3.556 -0.4131 -0.3570  0.3601
  357MOL0     C48122   4.393   3.353   3.582  0.0403 -0.2574  0.9676
  357MOL0     C48123   4.243   3.354   3.586  0.5666 -0.3425  0.3778
  357MOL0     C48124   4.121   3.346   3.588 -0.1338 -0.3062  0.7387
  357MOL0     C48125   4.447   3.944   3.181  0.2817 -0.1892 -0.6663
  357MOL0     C48126   4.487   4.068   3.149  0.1397  0.6018  0.5363
  357MOL0     C48127   4.386   4.158   3.078  0.4151  0.1761 -0.1054
  357MOL0     H48128   4.679   4.421   2.886  1.5822 -0.2165  0.3825
  357MOL0     H48129   4.783   4.646   2.835 -1.5429 -0.6801  0.8181
  357MOL0     H48130   5.015   4.741   2.918  1.7771  0.9874  0.5985
  357MOL0     H48131   4.897   4.854   2.838 -0.3363  1.5637  1.0115
  357MOL0     H48132   5.087   4.954   3.054 -1.0997 -0.0457  0.7892
  357MOL0     H48133   4.989   5.036   2.923  4.5480  2.6403 -0.1994
  357MOL0     H48134   5.145   4.919   2.760 -1.1622  2.0172  0.1312
  357MOL0     H48135   5.250   4.884   2.894  2.2334 -0.6913 -3.9982
  357MOL0     H48136   5.188   5.160   2.803  0.0877 -0.0930 -0.0483
  357MOL0     H48137   5.239   5.114   2.968  0.3475 -1.0414  0.3916
  357MOL0     H48138   5.454   5.015   2.884 -1.1012  0.8042 -0.0090
  357MOL0     H48139   5.372   4.997   2.725 -2.1014 -2.3608  1.5538
  357MOL0     H48140   5.542   5.178   2.734 -0.5528 -1.8318  0.3184
  357MOL0     H48141   5.383   5.243   2.705  1.5735 -1.5550 -4.1823
  357MOL0     H48142   5.347   5.317   2.931 -1.2453 -0.7743 -1.5651
  357MOL0     H48143   5.491   5.394   2.853  1.2121 -0.5047  0.2861
  357MOL0     H48144   5.509   5.333   3.104  0.3285 -1.4890  0.9374
  357MOL0     H48145   5.493   5.164   3.043  2.1930 -0.8811  0.3717
  357MOL0     H48146   5.738   5.464   2.979  1.3422  1.0427 -1.8516
  357MOL0     H48147   5.997   5.378   2.766 -1.8310 -3.4155  0.2335
  357MOL0     H48148   5.978   5.498   2.893 -0.5215 -0.7122  2.9929
  357MOL0     H48149   6.108   5.351   3.049 -0.3144  2.5392  0.4084
  357MOL0     H48150   6.140   5.249   2.903  0.7675  0.6183  1.5159
  357MOL0     H48151   6.215   5.529   2.952  1.4929 -0.6386  1.7218
  357MOL0     H48152   6.246   5.445   2.794  5.2072 -2.6761  0.2692
  357MOL0     H48153   6.413   5.289   2.922 -4.2806 -3.0801  0.2292
  357MOL0     H48154   6.357   5.336   3.066  2.4479 -1.0541  0.7877
  357MOL0     H48155   6.364   5.458   3.225  1.4888 -0.6629  1.6943
  357MOL0     H48156   6.409   5.612   3.397  2.1116 -2.3004  0.2812
  357MOL0     H48157   6.356   6.199   3.422 -2.7609 -3.3805  2.4024
  357MOL0     H48158   6.402   6.372   3.579  0.8062  0.7569  1.4016
  357MOL0     H48159   6.434   6.404   3.835  1.0047  2.1060 -2.8165
  357MOL0     H48160   6.550   6.283   3.915 -2.2411 -0.6295  0.6011
  357MOL0     H48161   6.679   6.511   3.958  0.3158 -0.1870  1.6367
  357MOL0     H48162   6.546   6.576   3.906 -0.4630 -1.2795 -2.4251
  357MOL0     H48163   6.413   6.502   4.097 -1.2133 -3.0696 -0.4093
  357MOL0     H48164   6.503   6.369   4.135 -2.7471  0.6369  1.1722
  357MOL0     H48165   6.705   6.520   4.216  0.6190 -1.4694 -0.5109
  357MOL0     H48166   6.565   6.508   4.322  0.3904  0.1248 -0.9704
  357MOL0     H48167   6.474   6.728   4.229  0.4306 -0.0992  1.3330
  357MOL0     H48168   6.611   6.718   4.111 -1.9678 -2.6005 -1.9608
  357MOL0     H48169   6.645   6.729   4.417  3.5151  0.4942  0.6554
  357MOL0     H48170   6.763   6.730   4.288  1.0954  0.1919  3.6687
  357MOL0     H48171   6.558   6.960   4.295  0.3957  2.7061 -2.5588
  357MOL0     H48172   6.698   6.931   4.191 -0.4182 -3.1301 -0.4361
  357MOL0     H48173   6.699   6.969   4.488 -0.8414 -1.5806  0.2937
  357MOL0     H48174   6.847   6.940   4.398 -0.0333 -0.3613 -0.8977
  357MOL0     H48175   6.760   6.175   3.708 -0.9695 -0.2309  0.8233
  357MOL0     H48176   6.731   6.000   3.524 -0.7916 -0.7731 -0.8012
  357MOL0     H48177   6.588   5.899   3.131 -0.5643  0.8122  0.8064
  357MOL0     H48178   6.581   5.705   2.952  1.9608 -2.7014  1.5702
  357MOL0     H48179   4.764   4.723   3.249  0.0399 -0.0853 -0.7450
  357MOL0     H48180   4.672   4.499   3.285  1.5236  1.6315  1.4411
  357MOL0     H48181   4.806   4.020   3.258  0.6791 -2.0104 -3.5313
  357MOL0     H48182   4.716   3.809   3.336 -1.7318 -2.0382  0.3863
  357MOL0     H48183   4.557   3.694   3.464  1.0534 -0.0423  0.2525
  357MOL0     H48184   4.615   3.579   3.337 -0.2973  0.0700 -1.0699
  357MOL0     H48185   4.404   3.451   3.338 -1.0674  1.8318 -2.5823
  357MOL0     H48186   4.326   3.586   3.414  1.7501  0.9770 -0.9857
  357MOL0     H48187   4.433   3.560   3.631 -3.7657 -0.1930 -0.9420
  357MOL0     H48188   4.571   3.475   3.552  0.0020  1.2595  3.6037
  357MOL0     H48189   4.420   3.275   3.511  1.1404 -1.6675  2.8567
  357MOL0     H48190   4.440   3.306   3.668  3.1944 -3.2069 -2.0644
  357MOL0     H48191   4.015   3.350   3.603 -0.0242 -1.8322  2.2703
  357MOL0     H48192   4.355   3.898   3.145  0.6218  0.9760 -3.2640
  357MOL0     H48193   4.294   4.103   3.054 -0.4912  2.1868 -1.6783
  357MOL0     H48194   4.376   4.243   3.146  2.4250  0.0188  0.4405
  357MOL0     H48195   4.426   4.189   2.980  2.3915  1.8989  1.1614
  358MOL0     O48196   6.340   5.419   0.397 -0.2237 -0.6758  0.1682
  358MOL0     C48197   6.448   5.398   0.342 -0.0541  0.5819 -0.5954
  358MOL0     O48198   6.533   5.289   0.375 -0.1571 -0.3271 -0.8518
  358MOL0     C48199   6.490   5.202   0.468 -0.2614  0.0439  0.1100
  358MOL0     C48200   6.460   5.060   0.435 -0.6979 -1.6428 -0.4858
  358MOL0     C48201   6.416   4.979   0.534  0.4410 -0.6823  0.5489
  358MOL0     C48202   6.412   5.022   0.675  0.3108  0.4742 -0.1613
  358MOL0     O48203   6.373   4.921   0.766  0.7700 -0.6058 -0.0819
  358MOL0     C48204   6.242   4.931   0.831  0.0249  0.3099  0.1148
  358MOL0     C48205   6.125   4.893   0.731  0.0967  0.8753 -0.1478
  358MOL0     C48206   5.987   4.879   0.799  0.3832  0.2331  0.5587
  358MOL0     C48207   5.872   4.840   0.700 -0.4533  0.6616  0.5565
  358MOL0     C48208   5.744   4.812   0.775 -0.1988 -0.0230  0.4473
  358MOL0     C48209   5.648   4.744   0.677  0.2920 -0.3102  0.7280
  358MOL0     C48210   5.511   4.705   0.746 -0.4881 -2.0752  0.5126
  358MOL0     C48211   5.535   4.616   0.869 -0.4508 -0.3804 -0.1149
  358MOL0     N48212   5.418   4.604   0.949 -0.5530 -0.2251  0.1465
  358MOL0     C48213   5.354   4.480   0.988 -0.4304 -0.1579  0.1023
  358MOL0     C48214   5.248   4.527   1.065 -1.8136 -0.6804 -0.9316
  358MOL0     C48215   5.137   4.443   1.129 -0.3551  0.2278 -0.1036
  358MOL0     C48216   5.150   4.440   1.287  0.2171  0.9025 -0.3181
  358MOL0     C48217   5.152   4.302   1.349  0.2428 -0.7211  0.8850
  358MOL0     C48218   5.286   4.231   1.319 -0.0871  0.0311 -1.0051
  358MOL0     O48219   5.284   4.095   1.363 -0.3618  0.1277 -1.0974
  358MOL0     C48220   5.401   4.037   1.410  0.9260  0.0169 -0.7481
  358MOL0     C48221   5.453   3.922   1.359  0.7564  0.7031 -0.5991
  358MOL0     C48222   5.572   3.863   1.419 -0.1869  0.2529  0.6775
  358MOL0     C48223   5.631   3.923   1.527 -0.2848 -0.5143 -0.0889
  358MOL0     C48224   5.749   3.855   1.590  0.4911 -0.3812 -0.0628
  358MOL0     O48225   5.787   3.734   1.535 -0.3474  0.2439 -0.4592
  358MOL0     C48226   5.914   3.681   1.567  1.2961  0.1500  0.0539
  358MOL0     C48227   6.041   3.745   1.541  0.2916  0.2825  0.1318
  358MOL0     C48228   6.165   3.679   1.567 -0.7423  0.0587  0.3591
  358MOL0     C48229   6.169   3.559   1.610 -0.0887  0.0347 -0.3437
  358MOL0     O48230   6.292   3.500   1.620 -0.2376  0.5033  0.1383
  358MOL0     C48231   6.311   3.372   1.680  0.1178 -0.2190 -0.1483
  358MOL0     C48232   6.395   3.395   1.807 -0.4443 -0.0037  0.1477
  358MOL0     C48233   6.524   3.486   1.778  0.8741 -1.0021 -0.8599
  358MOL0     C48234   6.573   3.537   1.914 -0.0014  0.5000  0.3443
  358MOL0     C48235   6.668   3.647   1.882 -0.2693 -0.4077  0.3839
  358MOL0     C48236   6.778   3.683   1.991 -0.4573 -0.1539 -0.4163
  358MOL0     C48237   6.905   3.610   1.979 -0.1792  0.3711 -0.2151
  358MOL0     C48238   6.999   3.657   2.089  0.2969 -0.1040 -0.8472
  358MOL0    Cl48239   7.073   3.832   2.081 -0.0783  0.2665 -0.0687
  358MOL0     C48240   6.049   3.495   1.664  0.7142  0.5110 -0.0805
  358MOL0     C48241   5.923   3.561   1.634 -0.2179  0.3172  0.8008
  358MOL0     O48242   5.813   3.910   1.675  0.2629 -0.5724 -0.4208
  358MOL0     C48243   5.576   4.042   1.580  0.9008 -0.2083 -0.1069
  358MOL0     C48244   5.463   4.099   1.522  0.5815  0.1725 -0.0464
  358MOL0     N48245   5.248   4.668   1.058  0.0270  0.7100  0.4302
  358MOL0     N48246   5.351   4.715   0.996 -0.3702 -0.1413  0.1346
  358MOL0     C48247   6.441   5.159   0.701 -0.3660  0.7762  0.8574
  358MOL0     C48248   6.478   5.249   0.599 -0.5718  0.3901 -0.2190
  358MOL0     C48249   6.506   5.476   0.220 -0.4714 -0.1774 -1.3467
  358MOL0     C48250   6.641   5.466   0.197  1.2901  0.1770  0.3560
  358MOL0     C48251   6.703   5.550   0.104  0.6490 -0.2872  1.1858
  358MOL0     C48252   6.624   5.620   0.006 -0.0417 -0.0061 -0.0016
  358MOL0     O48253   6.678   5.706  -0.083 -0.1188  0.2215  0.4927
  358MOL0     C48254   6.782   5.651  -0.167 -0.6779 -0.3556 -0.3878
  358MOL0     C48255   6.728   5.536  -0.252  0.0869 -0.7705  0.6653
  358MOL0     C48256   6.624   5.596  -0.365  0.9253  0.0328  0.1483
  358MOL0     C48257   6.588   5.495  -0.480 -0.2314  0.9443 -0.6501
  358MOL0     C48258   6.553   5.365  -0.418 -0.0743 -0.9815  0.2049
  358MOL0     C48259   6.531   5.275  -0.345  1.3055 -0.1861 -0.5420
  358MOL0     C48260   6.487   5.625   0.025  0.2361 -0.9458 -0.4452
  358MOL0     C48261   6.427   5.548   0.125 -0.1581 -1.2686 -0.0024
  358MOL0     C48262   6.280   5.575   0.146 -0.0413 -0.1306 -1.0844
  358MOL0     H48263   6.483   5.027   0.335  0.8021  1.5611 -1.3365
  358MOL0     H48264   6.394   4.880   0.496  2.7920  0.3596 -4.2083
  358MOL0     H48265   6.238   4.857   0.911  1.8698 -0.3389 -0.3228
  358MOL0     H48266   6.242   5.036   0.862 -2.6081  1.3262 -2.7411
  358MOL0     H48267   6.162   4.796   0.696  1.1742  0.0142  2.9945
  358MOL0     H48268   6.135   4.965   0.649 -0.2141  1.8942  0.6911
  358MOL0     H48269   5.980   4.979   0.843  0.7889  0.4146  0.2259
  358MOL0     H48270   6.000   4.803   0.876  0.7987 -1.3040 -0.9491
  358MOL0     H48271   5.861   4.920   0.625  0.7257 -1.8115 -2.4860
  358MOL0     H48272   5.886   4.755   0.633 -1.2577 -0.5112  1.8422
  358MOL0     H48273   5.771   4.759   0.866 -1.6667 -0.7540  0.4738
  358MOL0     H48274   5.713   4.913   0.803  0.4398  0.1531  0.5391
  358MOL0     H48275   5.633   4.807   0.589 -0.0808 -0.4594  0.6835
  358MOL0     H48276   5.706   4.658   0.642  0.6277 -0.9577  2.7522
  358MOL0     H48277   5.444   4.658   0.673  2.3553 -1.1885 -3.0124
  358MOL0     H48278   5.478   4.806   0.773  2.3004 -0.9267 -0.0268
  358MOL0     H48279   5.571   4.519   0.835 -1.7404 -0.0089 -2.8508
  358MOL0     H48280   5.613   4.658   0.934  1.2365 -0.2198 -2.1430
  358MOL0     H48281   5.393   4.384   0.957  0.7404  0.0322  0.8849
  358MOL0     H48282   5.045   4.493   1.097 -0.0745 -1.3420 -3.8451
  358MOL0     H48283   5.136   4.348   1.076 -1.7393  1.1017 -1.7172
  358MOL0     H48284   5.223   4.514   1.319  0.8065 -0.1659  0.9010
  358MOL0     H48285   5.053   4.472   1.326  0.1282 -0.1486  0.3701
  358MOL0     H48286   5.065   4.249   1.310  0.1403 -2.6965  3.5624
  358MOL0     H48287   5.132   4.313   1.456  3.5041  2.3361  1.3949
  358MOL0     H48288   5.368   4.279   1.373 -0.9416 -0.8378  1.1338
  358MOL0     H48289   5.309   4.241   1.212 -2.2585  5.4207 -1.2811
  358MOL0     H48290   5.391   3.867   1.290 -1.7404 -0.2031  2.1495
  358MOL0     H48291   5.605   3.768   1.378  0.4412  1.2370 -1.2274
  358MOL0     H48292   6.055   3.844   1.499 -2.1209  0.0400 -1.4839
  358MOL0     H48293   6.257   3.725   1.535 -1.0572 -0.6774 -1.8373
  358MOL0     H48294   6.222   3.315   1.708 -0.4626  0.4690 -0.5678
  358MOL0     H48295   6.382   3.318   1.617  2.5497  2.0319  0.4707
  358MOL0     H48296   6.329   3.437   1.883 -0.4083 -0.9983  0.7534
  358MOL0     H48297   6.439   3.304   1.850  1.7591  2.8151  4.6825
  358MOL0     H48298   6.605   3.425   1.736  3.1986 -0.3457  2.3118
  358MOL0     H48299   6.491   3.570   1.717 -5.5954 -1.4067  1.2749
  358MOL0     H48300   6.609   3.446   1.963  1.1499 -1.3507 -3.5360
  358MOL0     H48301   6.489   3.579   1.970 -0.2839  2.7240 -1.6083
  358MOL0     H48302   6.605   3.734   1.859 -0.9108 -0.3004  2.3882
  358MOL0     H48303   6.721   3.626   1.788  0.5263 -1.9588  1.1559
  358MOL0     H48304   6.796   3.791   1.992 -0.5678 -0.1243 -1.0503
  358MOL0     H48305   6.730   3.654   2.085  0.5651 -3.1280 -0.6988
  358MOL0     H48306   6.937   3.630   1.876 -0.0723 -0.2605 -0.3072
  358MOL0     H48307   6.900   3.501   1.988  0.0068  0.1667 -2.0870
  358MOL0     H48308   6.955   3.647   2.188  2.7677 -1.0835  0.2141
  358MOL0     H48309   7.092   3.599   2.086 -0.0513 -0.6356 -2.5135
  358MOL0     H48310   6.048   3.400   1.715  2.0070  1.4339  1.7424
  358MOL0     H48311   5.828   3.515   1.658  0.5295 -0.7551  1.8409
  358MOL0     H48312   5.614   4.084   1.672 -1.3942 -0.4872  1.0448
  358MOL0     H48313   5.406   4.188   1.550  0.6023  0.5100 -1.0568
  358MOL0     H48314   6.461   5.184   0.805  1.8662 -3.4457  1.6949
  358MOL0     H48315   6.501   5.351   0.628 -1.2065  1.6333 -3.6304
  358MOL0     H48316   6.710   5.405   0.255 -0.0757 -1.0602  0.7357
  358MOL0     H48317   6.812   5.548   0.110  0.7415  2.7533  2.6097
  358MOL0     H48318   6.854   5.607  -0.097 -3.1431 -3.9423  0.1624
  358MOL0     H48319   6.829   5.724  -0.233  0.9355  0.2042  1.2773
  358MOL0     H48320   6.669   5.468  -0.190 -0.5230  0.7657  1.8525
  358MOL0     H48321   6.809   5.481  -0.301  0.6654 -1.0441  1.8860
  358MOL0     H48322   6.659   5.696  -0.391 -0.4710  0.2554 -1.0249
  358MOL0     H48323   6.525   5.612  -0.322  0.5826 -1.6550  0.0667
  358MOL0     H48324   6.504   5.518  -0.546  0.3940 -0.7474 -2.1226
  358MOL0     H48325   6.670   5.473  -0.549 -0.8277 -1.4844 -0.6578
  358MOL0     H48326   6.521   5.188  -0.282  3.0489 -0.7377 -0.9786
  358MOL0     H48327   6.430   5.695  -0.037 -2.1638 -1.1934  1.3523
  358MOL0     H48328   6.214   5.488   0.133 -2.6185  1.4313  0.5838
  358MOL0     H48329   6.251   5.612   0.245 -0.0402 -3.2191  0.1985
  358MOL0     H48330   6.254   5.648   0.069  1.2081 -1.6483 -3.0534
  359MOL0     O48331   4.838   7.590   0.905 -0.0698 -0.2896  1.1206
  359MOL0     C48332   4.823   7.709   0.923  0.4513  0.0172  0.4822
  359MOL0     O48333   4.731   7.795   0.867 -0.5003 -0.3228  0.6372
  359MOL0     C48334   4.631   7.754   0.782  0.0492 -0.4471 -0.0132
  359MOL0     C48335   4.490   7.785   0.808 -0.6765  0.1762  0.7426
  359MOL0     C48336   4.390   7.759   0.716 -0.2939  0.2062 -0.2626
  359MOL0     C48337   4.425   7.694   0.598 -0.4563 -0.3644 -0.8326
  359MOL0     O48338   4.338   7.661   0.498 -0.7002 -0.0398  0.5912
  359MOL0     C48339   4.209   7.721   0.498  0.0873 -0.1042 -0.4681
  359MOL0     C48340   4.137   7.715   0.359  0.0223 -0.4571 -0.8109
  359MOL0     C48341   4.213   7.793   0.263 -0.3759 -0.2127 -0.6701
  359MOL0     C48342   4.157   7.800   0.121  0.4922  0.1776 -0.5834
  359MOL0     C48343   4.221   7.693   0.032 -0.0169 -0.9513 -0.8532
  359MOL0     C48344   4.145   7.646  -0.096 -0.5376  0.4510 -0.2196
  359MOL0     C48345   4.006   7.591  -0.073 -0.4358  0.0557 -0.4396
  359MOL0     C48346   4.018   7.450  -0.008 -0.2372  0.4874 -0.1838
  359MOL0     N48347   4.111   7.360  -0.070 -0.3225  0.0660 -0.2331
  359MOL0     C48348   4.078   7.309  -0.191 -0.0795  0.1938  0.3717
  359MOL0     C48349   4.191   7.241  -0.226  0.6174 -0.1378  0.4996
  359MOL0     C48350   4.218   7.174  -0.359 -0.5465 -0.1372  1.3459
  359MOL0     C48351   4.150   7.035  -0.373 -0.5731  0.6029  0.8262
  359MOL0     C48352   4.093   7.021  -0.517 -0.5694  0.4546  0.5683
  359MOL0     C48353   4.008   6.891  -0.520 -0.2382  0.7951 -0.1755
  359MOL0     O48354   4.005   6.849  -0.652 -0.1837  0.1647 -0.2955
  359MOL0     C48355   3.936   6.920  -0.744 -0.7284 -1.0871  0.7719
  359MOL0     C48356   3.958   6.898  -0.881 -0.3091  0.9485  0.7693
  359MOL0     C48357   3.923   6.987  -0.980  0.1758 -0.0625 -0.1109
  359MOL0     C48358   3.847   7.100  -0.953  0.3810  0.6261 -0.3840
  359MOL0     C48359   3.819   7.202  -1.067 -0.9901  0.8433 -0.8074
  359MOL0     O48360   3.828   7.167  -1.192 -0.8593 -0.8498  0.6972
  359MOL0     C48361   3.808   7.261  -1.297 -0.6315  0.0205 -0.0483
  359MOL0     C48362   3.898   7.264  -1.400 -0.4434 -0.1408  0.0791
  359MOL0     C48363   3.879   7.338  -1.512 -0.0894 -1.1279 -0.1873
  359MOL0     C48364   3.760   7.419  -1.526  0.4815  0.4031 -0.0527
  359MOL0     O48365   3.730   7.491  -1.633 -0.4785 -0.0493 -0.4870
  359MOL0     C48366   3.776   7.439  -1.765 -0.4791  0.5832 -1.1941
  359MOL0     C48367   3.729   7.528  -1.863 -0.3493 -0.3691  0.0712
  359MOL0     C48368   3.815   7.522  -1.992 -0.6026 -0.5008 -0.4881
  359MOL0     C48369   3.727   7.590  -2.100 -0.1522 -0.0662 -0.1717
  359MOL0     C48370   3.780   7.587  -2.234  0.9901  0.5206  0.2701
  359MOL0     C48371   3.709   7.695  -2.317  0.4930 -0.4625  0.7062
  359MOL0     C48372   3.783   7.742  -2.437  0.7006  0.1237 -0.0482
  359MOL0     C48373   3.916   7.808  -2.400  0.2546  0.3362  0.0605
  359MOL0    Cl48374   3.947   7.958  -2.488  0.0214  0.1086  0.0593
  359MOL0     C48375   3.666   7.413  -1.426 -0.8115 -0.1085 -0.9595
  359MOL0     C48376   3.692   7.344  -1.303  0.5178 -0.0103  0.4502
  359MOL0     O48377   3.812   7.315  -1.020 -0.8222  0.2091  0.5110
  359MOL0     C48378   3.799   7.111  -0.823  1.7850  0.2670 -0.0457
  359MOL0     C48379   3.852   7.032  -0.718 -0.2459 -0.2046 -0.6054
  359MOL0     N48380   4.290   7.266  -0.146 -0.6465 -0.5987 -0.3491
  359MOL0     N48381   4.239   7.320  -0.040 -0.3077 -0.1443 -0.1471
  359MOL0     C48382   4.564   7.661   0.567  0.6509  0.1171  0.4652
  359MOL0     C48383   4.668   7.697   0.655  0.8414 -0.8622  0.0543
  359MOL0     C48384   4.904   7.778   1.029  0.3803  0.0189 -0.7857
  359MOL0     C48385   4.964   7.899   0.993 -0.4137  0.4570 -0.3643
  359MOL0     C48386   5.036   7.974   1.089  0.6534  0.1643 -0.5633
  359MOL0     C48387   5.049   7.930   1.220 -0.6301 -0.7391 -0.3461
  359MOL0     O48388   5.137   8.004   1.298  0.7547 -0.6187 -0.4282
  359MOL0     C48389   5.121   8.002   1.442  0.0503 -0.1539  0.4172
  359MOL0     C48390   5.001   8.083   1.460 -0.7731  0.0060 -0.1366
  359MOL0     C48391   5.005   8.142   1.607 -0.9230 -0.4031  0.0745
  359MOL0     C48392   4.870   8.193   1.641  0.2529 -0.5473 -0.4923
  359MOL0     C48393   4.871   8.236   1.787 -0.3246  0.2892 -0.2572
  359MOL0     C48394   4.869   8.276   1.903 -0.4568  0.3700 -0.5835
  359MOL0     C48395   4.969   7.817   1.258  0.0648  0.4246 -0.1475
  359MOL0     C48396   4.900   7.740   1.162  0.0937 -0.0171 -0.9397
  359MOL0     C48397   4.834   7.624   1.218  0.0923  1.2460  0.7537
  359MOL0     H48398   4.489   7.836   0.903  2.0755 -1.6192  1.8625
  359MOL0     H48399   4.290   7.790   0.748  0.7194  2.0696  1.3656
  359MOL0     H48400   4.146   7.679   0.577  1.2654  0.6554  0.9056
  359MOL0     H48401   4.211   7.828   0.522 -2.9275 -0.5458  2.4870
  359MOL0     H48402   4.032   7.743   0.372  0.1878 -0.6420  1.1823
  359MOL0     H48403   4.136   7.612   0.322 -1.5535 -1.3179  1.4045
  359MOL0     H48404   4.318   7.760   0.264  0.0434  1.0756  0.8118
  359MOL0     H48405   4.215   7.896   0.299 -2.0688  0.3456 -2.0344
  359MOL0     H48406   4.049   7.786   0.120  0.6080 -1.5002  1.7294
  359MOL0     H48407   4.183   7.899   0.082  3.0506  0.3018  1.1717
  359MOL0     H48408   4.317   7.731  -0.003 -0.1049  1.1098  0.9783
  359MOL0     H48409   4.247   7.607   0.095  0.6474 -0.5330 -0.5476
  359MOL0     H48410   4.132   7.733  -0.161 -0.9715 -0.3198 -1.1783
  359MOL0     H48411   4.217   7.586  -0.152 -0.0570  0.3381  0.5103
  359MOL0     H48412   3.944   7.578  -0.162  0.2721 -0.7075 -0.8284
  359MOL0     H48413   3.941   7.658  -0.015 -0.3073 -0.2868  0.1008
  359MOL0     H48414   4.054   7.457   0.095  2.0143 -1.4736 -0.7374
  359MOL0     H48415   3.918   7.406  -0.014  0.0245  0.0887 -2.5588
  359MOL0     H48416   3.982   7.304  -0.242  0.8335  0.8630 -1.4816
  359MOL0     H48417   4.186   7.240  -0.440  2.3363  0.6474  0.7270
  359MOL0     H48418   4.324   7.152  -0.373 -0.3343  1.8892 -0.9743
  359MOL0     H48419   4.210   6.949  -0.340 -1.4053 -0.3633 -0.0970
  359MOL0     H48420   4.070   7.037  -0.298  0.1259  1.1964  1.5671
  359MOL0     H48421   4.175   7.008  -0.588 -0.8440  1.4765  0.0501
  359MOL0     H48422   4.023   7.104  -0.523 -2.1032 -0.5137  3.1401
  359MOL0     H48423   3.908   6.912  -0.482 -0.8700  1.1563 -1.9589
  359MOL0     H48424   4.059   6.817  -0.458 -0.8954 -1.1773 -1.8859
  359MOL0     H48425   4.026   6.817  -0.906  1.7175  2.9027 -0.4192
  359MOL0     H48426   3.964   6.974  -1.080  0.7505  2.6084 -0.2985
  359MOL0     H48427   3.985   7.199  -1.410 -0.2180 -0.0940  1.5427
  359MOL0     H48428   3.947   7.313  -1.594  0.1899 -1.2491  0.0777
  359MOL0     H48429   3.885   7.434  -1.753 -0.5640 -0.8029 -0.7794
  359MOL0     H48430   3.752   7.335  -1.787  2.2391 -0.5209  0.4542
  359MOL0     H48431   3.623   7.517  -1.886  0.2656 -3.1423 -2.0376
  359MOL0     H48432   3.745   7.625  -1.815  0.6492 -2.1021  3.5835
  359MOL0     H48433   3.913   7.565  -1.969 -0.8350  0.3032 -0.9478
  359MOL0     H48434   3.833   7.415  -2.001  0.9433 -0.4708  1.5431
  359MOL0     H48435   3.710   7.694  -2.069 -0.9743  0.0839 -1.1042
  359MOL0     H48436   3.629   7.542  -2.096  0.5233 -1.3977  1.2084
  359MOL0     H48437   3.755   7.492  -2.281  0.8696  1.6326 -2.0172
  359MOL0     H48438   3.888   7.605  -2.240  1.4104 -1.3442  1.3397
  359MOL0     H48439   3.613   7.652  -2.347  2.2219 -4.4774  0.3452
  359MOL0     H48440   3.694   7.788  -2.261  0.8880  0.8018 -1.1813
  359MOL0     H48441   3.717   7.805  -2.498 -1.4938 -1.3952  0.6383
  359MOL0     H48442   3.796   7.647  -2.490 -1.1006  0.7499 -1.7664
  359MOL0     H48443   3.927   7.826  -2.293  3.8879 -2.4041  0.3466
  359MOL0     H48444   3.991   7.736  -2.433  0.6998  0.9206 -0.2327
  359MOL0     H48445   3.570   7.462  -1.434 -0.9141 -0.3124 -0.9518
  359MOL0     H48446   3.620   7.355  -1.223 -2.3397 -2.5532 -1.5492
  359MOL0     H48447   3.719   7.183  -0.808  0.6187 -0.6377 -1.5531
  359MOL0     H48448   3.811   7.059  -0.621 -0.8720  2.5355 -1.5511
  359MOL0     H48449   4.595   7.623   0.470 -0.9291  0.1359 -0.0670
  359MOL0     H48450   4.772   7.684   0.625  1.3052 -1.6461  1.8749
  359MOL0     H48451   4.963   7.939   0.892  0.2081 -1.9917 -1.4038
  359MOL0     H48452   5.089   8.065   1.061 -1.2214  1.3283 -0.4524
  359MOL0     H48453   5.207   8.050   1.492  1.0064 -0.4406 -0.8946
  359MOL0     H48454   5.100   7.904   1.485 -2.0409 -0.7350 -1.7676
  359MOL0     H48455   4.914   8.018   1.449 -0.3061 -0.9808  1.6677
  359MOL0     H48456   4.980   8.166   1.392  0.0542 -0.4893 -1.0309
  359MOL0     H48457   5.080   8.221   1.618 -0.8340 -0.4945  0.1154
  359MOL0     H48458   5.017   8.060   1.678 -0.4218 -1.7318 -1.4790
  359MOL0     H48459   4.840   8.272   1.572 -0.8739 -3.1122 -3.1689
  359MOL0     H48460   4.794   8.115   1.630  0.1272 -0.2140 -2.2006
  359MOL0     H48461   4.882   8.309   2.004  5.2483 -1.5115 -0.3401
  359MOL0     H48462   4.965   7.776   1.358 -1.6270 -2.3310 -1.2407
  359MOL0     H48463   4.748   7.590   1.159  1.2118 -0.6920  0.1813
  359MOL0     H48464   4.905   7.542   1.227  0.3847  1.1599 -1.6898
  359MOL0     H48465   4.778   7.652   1.309 -1.6283  1.5250 -0.3467
  360MOL0     O48466   1.519   1.906  11.361  0.6343 -0.9597 -0.0562
  360MOL0     C48467   1.580   1.964  11.267  0.3454 -0.7313 -0.1157
  360MOL0     O48468   1.719   1.984  11.262 -0.3500 -0.2689  0.5434
  360MOL0     C48469   1.800   2.036  11.361 -0.2404  0.2876 -0.4133
  360MOL0     C48470   1.743   2.078  11.484  0.0990  0.4610  0.4423
  360MOL0     C48471   1.822   2.133  11.585  0.2136  0.9235  0.6107
  360MOL0     C48472   1.960   2.158  11.562 -0.0746 -0.5196 -0.4215
  360MOL0     O48473   2.039   2.228  11.662  0.2989  0.6876  0.1548
  360MOL0     C48474   2.123   2.336  11.616  0.1734  0.3713 -0.4327
  360MOL0     C48475   2.140   2.441  11.729 -0.5662  0.2639 -0.0980
  360MOL0     C48476   2.200   2.568  11.678 -0.2747  0.6268  0.2233
  360MOL0     C48477   2.160   2.679  11.765 -0.0896 -0.3183 -0.6766
  360MOL0     C48478   2.272   2.711  11.868  0.0181  0.3833  0.7857
  360MOL0     C48479   2.240   2.800  11.981  0.5937 -0.7320 -0.6487
  360MOL0     C48480   2.145   2.927  11.952 -1.0092 -0.1156  0.9184
  360MOL0     C48481   2.228   3.054  11.899  0.3259  0.1406  0.0809
  360MOL0     N48482   2.157   3.175  11.873 -0.1074 -1.4660  0.0825
  360MOL0     C48483   2.033   3.187  11.850 -0.3806 -1.4219 -0.3351
  360MOL0     C48484   2.008   3.320  11.846 -0.3345  0.9350 -0.2152
  360MOL0     C48485   1.869   3.372  11.824 -0.5077 -0.5481  0.1336
  360MOL0     C48486   1.840   3.489  11.934 -0.2972  0.6451  0.8417
  360MOL0     C48487   1.721   3.566  11.892 -0.5006 -0.1016 -0.8909
  360MOL0     C48488   1.720   3.712  11.954  0.6148  0.3877  0.2623
  360MOL0     O48489   1.612   3.789  11.911  0.1058 -0.3855  0.1500
  360MOL0     C48490   1.516   3.818  12.003 -0.8420  0.0154 -0.0734
  360MOL0     C48491   1.430   3.922  11.957 -0.8348  0.1239 -0.5532
  360MOL0     C48492   1.319   3.961  12.034  0.6989 -0.0165 -0.3788
  360MOL0     C48493   1.302   3.906  12.165  0.3857 -0.4126  0.9757
  360MOL0     C48494   1.180   3.960  12.250 -0.8475  0.7546  1.0063
  360MOL0     O48495   1.192   3.928  12.381 -0.3772 -0.0060 -1.0242
  360MOL0     C48496   1.122   3.997  12.479 -0.8852  0.1309 -1.0731
  360MOL0     C48497   0.983   4.012  12.489  0.3138  0.6391 -0.6071
  360MOL0     C48498   0.917   4.089  12.587  0.9899  0.4087 -0.6740
  360MOL0     C48499   0.995   4.162  12.676  0.2011 -0.2107 -0.4506
  360MOL0     O48500   0.940   4.244  12.765  0.3284  0.6919 -0.7786
  360MOL0     C48501   1.010   4.288  12.874 -0.4717  0.4304  0.1495
  360MOL0     C48502   0.905   4.330  12.980  0.5210  0.7300  0.4783
  360MOL0     C48503   0.858   4.466  12.943  0.2475 -0.0960 -0.7468
  360MOL0     C48504   0.752   4.511  13.042 -0.3181  0.7907  0.2118
  360MOL0     C48505   0.716   4.672  13.029  0.2516  0.6718  0.6952
  360MOL0     C48506   0.797   4.786  13.107 -0.1989  0.6660  0.3162
  360MOL0     C48507   0.746   4.927  13.113 -0.1579 -0.4679  0.4441
  360MOL0     C48508   0.685   4.974  12.981 -0.8108 -0.8801  0.9508
  360MOL0    Cl48509   0.822   4.959  12.860  0.0031 -0.2803 -0.1011
  360MOL0     C48510   1.136   4.158  12.668 -0.0162 -0.5040  0.4080
  360MOL0     C48511   1.194   4.074  12.571 -0.2659 -0.0770 -0.5697
  360MOL0     O48512   1.091   4.034  12.214 -0.5096 -0.5666  0.3259
  360MOL0     C48513   1.377   3.792  12.200 -0.3226  0.6020  0.3572
  360MOL0     C48514   1.476   3.740  12.118 -1.2057 -0.3331 -0.3498
  360MOL0     N48515   2.121   3.392  11.858 -0.2220 -0.3905 -0.1299
  360MOL0     N48516   2.215   3.309  11.889  0.1627  0.8401  0.2402
  360MOL0     C48517   2.009   2.118  11.435 -0.3844 -1.0759  0.8818
  360MOL0     C48518   1.929   2.068  11.338  0.7022  0.4828  1.8961
  360MOL0     C48519   1.507   2.008  11.149  0.1927  0.1714  0.0217
  360MOL0     C48520   1.417   1.919  11.091 -0.3313  0.1921  0.1222
  360MOL0     C48521   1.355   1.945  10.973 -0.5713  0.8277  0.1750
  360MOL0     C48522   1.395   2.051  10.896 -0.7360 -0.7232  0.3560
  360MOL0     O48523   1.345   2.057  10.770 -0.3395 -0.3745 -0.5528
  360MOL0     C48524   1.366   2.173  10.689 -0.3479  0.2177  1.3115
  360MOL0     C48525   1.281   2.143  10.558 -0.4939 -0.1917  0.2805
  360MOL0     C48526   1.133   2.161  10.582 -0.4123  0.7146 -0.2192
  360MOL0     C48527   1.059   2.076  10.690  0.5295  1.2858 -0.0940
  360MOL0     C48528   1.045   1.932  10.661  0.2590 -0.8124  0.9243
  360MOL0     C48529   1.015   1.821  10.613 -0.0248 -1.1478  0.7675
  360MOL0     C48530   1.469   2.160  10.955  0.1871 -1.2805  0.1329
  360MOL0     C48531   1.519   2.137  11.080  0.9390 -0.0416 -0.4109
  360MOL0     C48532   1.599   2.260  11.125  0.7487  0.8557  0.0446
  360MOL0     H48533   1.640   2.057  11.510  0.3834  2.2876  3.5245
  360MOL0     H48534   1.766   2.160  11.674  0.2848  1.9663  0.3547
  360MOL0     H48535   2.216   2.286  11.585 -1.0560 -1.0358 -2.0098
  360MOL0     H48536   2.073   2.382  11.531 -0.6853  0.2742  0.0128
  360MOL0     H48537   2.209   2.393  11.799 -0.5780 -2.6138 -1.8675
  360MOL0     H48538   2.042   2.474  11.766  0.5287  3.8717 -0.0423
  360MOL0     H48539   2.164   2.590  11.577  2.2459 -0.7779 -1.0578
  360MOL0     H48540   2.309   2.559  11.672 -0.4042 -1.8443  0.5158
  360MOL0     H48541   2.158   2.769  11.704  5.8998 -0.1145 -1.1739
  360MOL0     H48542   2.067   2.656  11.819  1.2402 -2.2258  0.9520
  360MOL0     H48543   2.305   2.614  11.906 -2.1954 -0.0036  1.8752
  360MOL0     H48544   2.351   2.758  11.808 -1.6052  1.9913 -0.2118
  360MOL0     H48545   2.208   2.746  12.070  4.5817 -0.0164  1.4804
  360MOL0     H48546   2.333   2.846  12.018 -2.0633  3.5734  1.5332
  360MOL0     H48547   2.110   2.964  12.050  4.2341  2.2369  2.2452
  360MOL0     H48548   2.068   2.901  11.878 -0.6993 -0.5021  0.7316
  360MOL0     H48549   2.315   3.065  11.964 -1.6630 -0.6719  3.1227
  360MOL0     H48550   2.284   3.037  11.806  1.8110 -2.6517  1.3464
  360MOL0     H48551   1.959   3.108  11.846 -2.1049  0.1307 -0.9651
  360MOL0     H48552   1.856   3.416  11.724 -1.4242  0.8825  0.8429
  360MOL0     H48553   1.799   3.289  11.837 -0.0393 -1.4087 -2.2515
  360MOL0     H48554   1.831   3.442  12.032  0.6823 -2.7461 -0.5496
  360MOL0     H48555   1.922   3.562  11.932  1.8168 -1.5457  2.3488
  360MOL0     H48556   1.628   3.520  11.928 -1.0421  1.7079  0.1476
  360MOL0     H48557   1.712   3.576  11.783  0.7103  0.2045 -0.9685
  360MOL0     H48558   1.813   3.762  11.924 -0.2323  1.3680 -0.8374
  360MOL0     H48559   1.722   3.691  12.061  3.6024 -0.1465  0.1984
  360MOL0     H48560   1.440   3.965  11.858  0.2070  2.2773  0.4207
  360MOL0     H48561   1.245   4.035  12.007 -1.3721 -1.1825  1.7755
  360MOL0     H48562   0.913   3.962  12.423  0.3551 -0.3169  0.0517
  360MOL0     H48563   0.809   4.101  12.584  0.6138 -2.5310 -2.1746
  360MOL0     H48564   1.064   4.201  12.913  0.1437  0.1705 -1.2260
  360MOL0     H48565   1.071   4.370  12.834  0.9889 -0.8908 -0.4010
  360MOL0     H48566   0.829   4.254  13.002  2.0129 -1.2752 -1.0113
  360MOL0     H48567   0.960   4.345  13.073 -2.3800  3.7139  1.9408
  360MOL0     H48568   0.939   4.538  12.957 -0.3266  0.7334 -1.5338
  360MOL0     H48569   0.812   4.453  12.844 -1.1658 -0.7855 -0.0352
  360MOL0     H48570   0.782   4.479  13.142 -0.0543 -0.5904 -0.2943
  360MOL0     H48571   0.662   4.450  13.038 -1.4342  1.5084  5.8024
  360MOL0     H48572   0.611   4.668  13.060 -0.7886 -1.4836 -2.5861
  360MOL0     H48573   0.710   4.698  12.923  0.5365 -2.3455 -0.1429
  360MOL0     H48574   0.803   4.761  13.214 -3.1773  1.7929  0.8524
  360MOL0     H48575   0.895   4.795  13.060 -0.6395 -3.4971 -1.8800
  360MOL0     H48576   0.815   5.001  13.154 -1.2623  0.2848  0.9740
  360MOL0     H48577   0.659   4.927  13.179  1.0012  0.8991  2.0466
  360MOL0     H48578   0.597   4.916  12.950 -0.1557 -0.4958 -1.9807
  360MOL0     H48579   0.654   5.079  12.985  1.1271 -0.1065 -1.7169
  360MOL0     H48580   1.203   4.222  12.724  2.0257 -0.4616 -1.9244
  360MOL0     H48581   1.302   4.070  12.569 -0.1706 -2.6016  1.9604
  360MOL0     H48582   1.350   3.747  12.295  0.7330 -1.6816 -0.3572
  360MOL0     H48583   1.530   3.648  12.139 -0.3695  0.1443 -0.3446
  360MOL0     H48584   2.112   2.146  11.418 -1.2353  1.5526 -0.5179
  360MOL0     H48585   1.960   2.047  11.236 -2.6044 -1.5531  1.1230
  360MOL0     H48586   1.395   1.820  11.129  3.1910 -0.9157 -0.3377
  360MOL0     H48587   1.283   1.878  10.926 -0.5622  2.0849 -1.7705
  360MOL0     H48588   1.470   2.189  10.657 -0.3757 -0.7443  0.6988
  360MOL0     H48589   1.327   2.258  10.745  0.3691  1.6726 -0.2927
  360MOL0     H48590   1.309   2.041  10.532 -1.4339 -0.0944 -1.2112
  360MOL0     H48591   1.302   2.203  10.470  2.5880  2.0707  2.3383
  360MOL0     H48592   1.080   2.138  10.489 -1.8118 -3.0586  1.3435
  360MOL0     H48593   1.125   2.269  10.601  1.3758  0.6553  1.0750
  360MOL0     H48594   1.109   2.092  10.786 -2.4258 -0.9456  2.0083
  360MOL0     H48595   0.953   2.099  10.704 -0.1915 -2.4675  2.2010
  360MOL0     H48596   0.986   1.735  10.555 -1.7583  0.7043 -1.3061
  360MOL0     H48597   1.473   2.245  10.888  0.0141  1.1385  2.9297
  360MOL0     H48598   1.695   2.265  11.073  0.2114  0.0653 -1.0536
  360MOL0     H48599   1.552   2.358  11.117 -0.0356  0.6756  1.9305
  360MOL0     H48600   1.618   2.244  11.232 -2.6656 -0.0797  0.6309
  361MOL0     O48601   0.737   0.333   3.559  0.4087 -0.2908  0.6032
  361MOL0     C48602   0.760   0.416   3.477 -0.6823  0.0037  0.9646
  361MOL0     O48603   0.792   0.388   3.352  0.3029  0.7733  0.8654
  361MOL0     C48604   0.796   0.254   3.319  1.2217  0.4505  0.5263
  361MOL0     C48605   0.915   0.191   3.343  0.5748 -0.4236 -0.0281
  361MOL0     C48606   0.924   0.061   3.303  0.0179 -0.1278  0.2488
  361MOL0     C48607   0.817  -0.016   3.250 -0.5634  0.1815  0.0427
  361MOL0     O48608   0.826  -0.154   3.230  0.0175  0.9143 -0.5590
  361MOL0     C48609   0.789  -0.199   3.103  0.3989  0.7544  0.1481
  361MOL0     C48610   0.863  -0.327   3.066  0.3792 -0.0221 -0.0858
  361MOL0     C48611   0.821  -0.453   3.135  0.4782  0.4342 -0.4578
  361MOL0     C48612   0.670  -0.463   3.171  0.5697  0.4406 -0.9323
  361MOL0     C48613   0.642  -0.603   3.249  0.2599  0.8706  0.5725
  361MOL0     C48614   0.611  -0.728   3.158 -0.6754 -0.6935  0.6512
  361MOL0     C48615   0.569  -0.853   3.223  0.5414 -0.3977 -0.5621
  361MOL0     C48616   0.549  -0.971   3.127  0.2651 -1.1116  0.1434
  361MOL0     N48617   0.434  -1.056   3.156  0.5610 -0.6961  0.7560
  361MOL0     C48618   0.306  -1.010   3.148 -0.8297  0.7249  0.3417
  361MOL0     C48619   0.232  -1.117   3.180 -0.3858 -0.5444 -0.4743
  361MOL0     C48620   0.085  -1.121   3.203 -0.2840  0.0678 -0.4279
  361MOL0     C48621   0.032  -1.094   3.345 -0.0449  0.1113 -0.0907
  361MOL0     C48622  -0.124  -1.098   3.360 -0.5856  0.5215 -0.2177
  361MOL0     C48623  -0.192  -1.226   3.336  0.1165 -0.4973  0.5753
  361MOL0     O48624  -0.175  -1.327   3.435  0.5189  0.0192  0.1434
  361MOL0     C48625  -0.226  -1.448   3.432 -0.2424 -0.5622  0.7458
  361MOL0     C48626  -0.182  -1.527   3.537 -0.9111 -0.3578 -0.5785
  361MOL0     C48627  -0.230  -1.661   3.557 -1.0628 -0.0803 -1.2600
  361MOL0     C48628  -0.302  -1.717   3.457  0.5328  0.3840 -0.6043
  361MOL0     C48629  -0.358  -1.854   3.475  0.2815 -0.3422 -0.5539
  361MOL0     O48630  -0.428  -1.911   3.373 -0.5044  0.2520  0.6176
  361MOL0     C48631  -0.505  -2.020   3.397 -0.5212 -0.6245  0.2207
  361MOL0     C48632  -0.625  -2.000   3.469  0.6516  1.2010  0.4322
  361MOL0     C48633  -0.699  -2.111   3.497  0.3260  0.2861 -0.5435
  361MOL0     C48634  -0.673  -2.241   3.449 -0.7378 -0.2837  0.4526
  361MOL0     O48635  -0.761  -2.341   3.473 -0.1744 -0.4721 -0.5063
  361MOL0     C48636  -0.740  -2.475   3.436 -0.0315  0.2438  0.3687
  361MOL0     C48637  -0.823  -2.558   3.534  1.1358  1.1980  0.5355
  361MOL0     C48638  -0.794  -2.706   3.529 -0.5542 -0.6699  0.0586
  361MOL0     C48639  -0.869  -2.797   3.636 -0.3989  0.1388  0.7199
  361MOL0     C48640  -0.780  -2.927   3.671 -0.4201 -0.4274 -0.2220
  361MOL0     C48641  -0.650  -2.906   3.756  0.4350 -0.0879  0.4737
  361MOL0     C48642  -0.587  -3.043   3.791  0.3585 -0.1041 -0.1482
  361MOL0     C48643  -0.453  -3.036   3.855  0.0427  0.0224 -0.2268
  361MOL0    Cl48644  -0.387  -3.194   3.877  0.1271  0.7255  0.1103
  361MOL0     C48645  -0.553  -2.257   3.380 -0.0141  0.6614  0.8960
  361MOL0     C48646  -0.463  -2.150   3.364 -0.0638  0.0016 -0.5630
  361MOL0     O48647  -0.337  -1.906   3.583 -0.2691  0.6619  0.0924
  361MOL0     C48648  -0.348  -1.639   3.348 -1.3746 -0.1143 -0.3421
  361MOL0     C48649  -0.318  -1.500   3.341 -0.5756 -0.5049  0.5355
  361MOL0     N48650   0.309  -1.223   3.207  0.5237  0.4093 -0.2137
  361MOL0     N48651   0.430  -1.186   3.198 -0.4193  0.4473  0.0707
  361MOL0     C48652   0.693   0.049   3.225 -0.3770  0.3408 -0.0184
  361MOL0     C48653   0.689   0.186   3.264  0.0103  0.7403  0.3500
  361MOL0     C48654   0.767   0.560   3.519 -0.2616 -0.2566 -0.2220
  361MOL0     C48655   0.817   0.662   3.438 -0.7298 -0.5868  0.0282
  361MOL0     C48656   0.826   0.798   3.482  0.1604 -0.6445  0.8849
  361MOL0     C48657   0.769   0.833   3.606  0.2775 -0.3448 -0.2587
  361MOL0     O48658   0.749   0.964   3.651  0.1534 -0.3768 -0.6508
  361MOL0     C48659   0.732   1.064   3.547  0.5983 -1.2445 -0.5033
  361MOL0     C48660   0.733   1.203   3.616  0.2675 -0.0406  0.8147
  361MOL0     C48661   0.617   1.246   3.696  0.7553 -0.4263  0.2574
  361MOL0     C48662   0.630   1.398   3.716  0.2426  0.3394 -0.4320
  361MOL0     C48663   0.563   1.454   3.836  0.1670  0.3512 -0.0575
  361MOL0     C48664   0.504   1.470   3.938  0.8007 -0.4892 -0.2474
  361MOL0     C48665   0.717   0.733   3.691  0.2361 -0.0729 -0.4177
  361MOL0     C48666   0.704   0.604   3.644  0.0821 -0.0942  0.1906
  361MOL0     C48667   0.623   0.517   3.740 -0.3798 -0.3063 -0.5448
  361MOL0     H48668   1.002   0.240   3.384 -1.2745  3.1872  0.0033
  361MOL0     H48669   1.011   0.004   3.334 -0.5769 -1.3565 -0.2407
  361MOL0     H48670   0.680  -0.206   3.097  0.1964  0.9046  2.5491
  361MOL0     H48671   0.815  -0.122   3.030  0.4316  0.5363 -0.0720
  361MOL0     H48672   0.969  -0.303   3.063  0.6812 -0.5939  3.0641
  361MOL0     H48673   0.840  -0.338   2.959  1.2156  0.2932 -0.3089
  361MOL0     H48674   0.867  -0.461   3.234 -1.5463 -0.1091  0.4727
  361MOL0     H48675   0.852  -0.534   3.068  0.7204  1.1381 -1.2109
  361MOL0     H48676   0.652  -0.385   3.245  0.5525 -0.9812  0.6208
  361MOL0     H48677   0.609  -0.469   3.080 -0.1788 -1.8105 -0.3603
  361MOL0     H48678   0.715  -0.621   3.328 -0.2886  0.4585  0.9862
  361MOL0     H48679   0.545  -0.590   3.298 -0.2237  0.4926 -0.2508
  361MOL0     H48680   0.534  -0.693   3.089  0.5079  0.0406 -0.3334
  361MOL0     H48681   0.694  -0.748   3.089 -0.4902  1.4118  0.1869
  361MOL0     H48682   0.484  -0.845   3.291  0.2342 -0.0601 -0.9814
  361MOL0     H48683   0.661  -0.872   3.279 -0.7951 -0.3611  1.7733
  361MOL0     H48684   0.524  -0.930   3.029  1.2019  0.4314  0.5082
  361MOL0     H48685   0.639  -1.034   3.127 -1.4354 -3.6892  0.4748
  361MOL0     H48686   0.273  -0.913   3.113  1.5986  0.7636 -2.0923
  361MOL0     H48687   0.034  -1.045   3.143  0.4946 -0.4490 -1.8021
  361MOL0     H48688   0.056  -1.223   3.175  0.8598  0.1690 -2.0999
  361MOL0     H48689   0.077  -1.163   3.416 -0.5258 -3.1886 -2.7131
  361MOL0     H48690   0.082  -1.000   3.369  1.9963 -1.6860  3.5119
  361MOL0     H48691  -0.161  -1.018   3.296  0.8925  0.5072 -1.1306
  361MOL0     H48692  -0.152  -1.073   3.463  1.5975  1.0639  0.3119
  361MOL0     H48693  -0.178  -1.262   3.233  0.7520  0.6424  0.2412
  361MOL0     H48694  -0.297  -1.196   3.337 -0.2223 -1.2306 -2.3155
  361MOL0     H48695  -0.106  -1.484   3.602  1.5207  0.3751 -3.6685
  361MOL0     H48696  -0.205  -1.712   3.649 -2.2622  1.1057 -0.2462
  361MOL0     H48697  -0.653  -1.906   3.516 -0.8638  1.4748 -0.9095
  361MOL0     H48698  -0.790  -2.104   3.556 -0.2132 -2.6611 -0.9022
  361MOL0     H48699  -0.786  -2.491   3.338  3.2126  2.4513 -1.7248
  361MOL0     H48700  -0.638  -2.516   3.429  1.3019  3.3469 -0.1563
  361MOL0     H48701  -0.811  -2.512   3.632 -6.7281  2.6494  1.4691
  361MOL0     H48702  -0.930  -2.539   3.529  0.9564  0.0791 -0.2199
  361MOL0     H48703  -0.833  -2.741   3.433 -2.1816  1.5957 -0.1760
  361MOL0     H48704  -0.686  -2.725   3.535 -0.6535 -2.9083 -2.8546
  361MOL0     H48705  -0.967  -2.816   3.591  0.1606  1.5721 -1.2796
  361MOL0     H48706  -0.893  -2.731   3.720  0.7351  1.7412 -0.1557
  361MOL0     H48707  -0.742  -2.971   3.577  2.1557 -1.2908  1.1142
  361MOL0     H48708  -0.839  -3.010   3.711 -1.8850  0.4526 -0.5270
  361MOL0     H48709  -0.579  -2.845   3.700  0.4129 -0.9714 -0.5459
  361MOL0     H48710  -0.672  -2.856   3.851 -0.7359 -0.3167  0.3488
  361MOL0     H48711  -0.577  -3.098   3.696 -0.9315 -1.1716  0.3116
  361MOL0     H48712  -0.654  -3.107   3.848  0.2679 -0.6604 -0.8488
  361MOL0     H48713  -0.381  -2.985   3.790  1.0335 -3.0552 -1.7322
  361MOL0     H48714  -0.441  -2.988   3.953  3.4951 -0.5174 -0.2391
  361MOL0     H48715  -0.524  -2.354   3.341 -0.4413  0.6655  0.5598
  361MOL0     H48716  -0.369  -2.148   3.308 -0.8678 -0.0263 -1.9624
  361MOL0     H48717  -0.408  -1.690   3.273 -2.1020 -1.8082  1.2834
  361MOL0     H48718  -0.369  -1.452   3.258  1.6181 -0.4521 -0.8403
  361MOL0     H48719   0.608  -0.011   3.195  2.6503 -3.2899 -2.1248
  361MOL0     H48720   0.594   0.238   3.254 -0.5985 -0.4161 -0.0581
  361MOL0     H48721   0.850   0.631   3.339  0.7756 -0.6082  0.5121
  361MOL0     H48722   0.866   0.878   3.422 -2.1418 -0.4958 -0.5325
  361MOL0     H48723   0.637   1.050   3.495  0.7730  0.2043 -1.2612
  361MOL0     H48724   0.815   1.063   3.475  1.5671 -1.0262  0.5702
  361MOL0     H48725   0.746   1.277   3.535 -0.2219 -0.7285  0.0923
  361MOL0     H48726   0.826   1.205   3.674  1.1489 -0.6987 -0.5181
  361MOL0     H48727   0.629   1.201   3.795  0.7270 -0.1786  0.3756
  361MOL0     H48728   0.520   1.213   3.657  0.9464 -1.6364  0.7712
  361MOL0     H48729   0.736   1.422   3.730  0.1469 -0.4212  2.1868
  361MOL0     H48730   0.586   1.455   3.634  0.5472 -0.1514 -0.9442
  361MOL0     H48731   0.457   1.483   4.034 -0.2494  0.6631 -0.8812
  361MOL0     H48732   0.670   0.754   3.787 -0.9302 -0.7490 -0.8267
  361MOL0     H48733   0.692   0.449   3.792 -0.3663 -0.0628 -0.2454
  361MOL0     H48734   0.573   0.572   3.820 -1.6162 -1.2213 -0.6559
  361MOL0     H48735   0.545   0.464   3.683 -2.0795  0.6672  0.7911
  362MOL0     O48736   3.554   5.499  11.303 -0.5967 -0.4828  0.1538
  362MOL0     C48737   3.633   5.412  11.286  0.8273  0.0249  0.0029
  362MOL0     O48738   3.764   5.419  11.310  0.5290  0.6840  0.2964
  362MOL0     C48739   3.818   5.514  11.398 -0.2514  0.1233  0.0521
  362MOL0     C48740   3.791   5.649  11.408  0.6182 -0.2748 -0.1515
  362MOL0     C48741   3.866   5.731  11.502 -0.1224 -0.0395 -0.7638
  362MOL0     C48742   3.974   5.684  11.580  0.4315 -0.0536  0.0799
  362MOL0     O48743   4.050   5.757  11.660  0.4855 -0.1948 -0.9301
  362MOL0     C48744   4.050   5.896  11.664  0.0514 -0.1141 -0.0040
  362MOL0     C48745   4.104   5.948  11.795 -0.8175 -0.5276 -0.3144
  362MOL0     C48746   4.053   6.083  11.854  0.5051  0.2002  0.6315
  362MOL0     C48747   3.922   6.078  11.934 -0.5833 -0.2434 -0.2955
  362MOL0     C48748   3.879   6.217  11.981 -0.1143  0.5054  0.4087
  362MOL0     C48749   3.733   6.209  12.011 -1.3323 -0.1026 -1.0915
  362MOL0     C48750   3.680   6.357  12.026 -0.3529  0.1156  0.1228
  362MOL0     C48751   3.720   6.428  12.156 -0.1710  0.6153  0.5773
  362MOL0     N48752   3.628   6.544  12.168 -0.3058  0.6463 -0.3909
  362MOL0     C48753   3.501   6.525  12.203 -0.3114 -1.0525 -0.1322
  362MOL0     C48754   3.439   6.652  12.187 -0.2898 -0.1158  0.4034
  362MOL0     C48755   3.301   6.687  12.209  0.1805  0.8177  0.4272
  362MOL0     C48756   3.217   6.629  12.091  0.0172 -1.2932  0.1723
  362MOL0     C48757   3.251   6.690  11.957  0.2039  0.9617 -0.7997
  362MOL0     C48758   3.243   6.839  11.920 -0.6407 -0.9492 -0.6546
  362MOL0     O48759   3.241   6.855  11.778  0.5014 -0.7173  0.1904
  362MOL0     C48760   3.368   6.867  11.729  0.3174  1.4327 -0.0260
  362MOL0     C48761   3.448   6.766  11.688 -0.3803 -0.7440 -0.5757
  362MOL0     C48762   3.585   6.797  11.659 -0.5004 -0.6874 -0.0395
  362MOL0     C48763   3.627   6.924  11.645  0.3415 -0.3457 -0.0601
  362MOL0     C48764   3.773   6.951  11.607 -0.3951 -1.3240 -0.2440
  362MOL0     O48765   3.854   6.843  11.603 -0.4983  0.3093 -0.4084
  362MOL0     C48766   3.985   6.835  11.566 -0.3905 -0.3909 -0.6213
  362MOL0     C48767   4.075   6.948  11.590 -0.0939  0.5473 -0.3002
  362MOL0     C48768   4.208   6.935  11.544 -0.2363  0.0096  0.5937
  362MOL0     C48769   4.255   6.822  11.478  0.8300 -0.5813  0.6491
  362MOL0     O48770   4.381   6.802  11.448 -0.2903 -0.2984  0.8986
  362MOL0     C48771   4.460   6.922  11.412 -0.0814 -0.1890 -0.7260
  362MOL0     C48772   4.528   6.976  11.538 -0.3141 -0.5372  0.2781
  362MOL0     C48773   4.669   6.927  11.556 -0.0912  0.7964 -0.5328
  362MOL0     C48774   4.714   6.966  11.697  0.6974  0.3148 -0.0618
  362MOL0     C48775   4.807   7.086  11.694 -0.8619 -0.4904  0.0829
  362MOL0     C48776   4.951   7.066  11.656  0.5328  0.3900  0.1321
  362MOL0     C48777   5.048   7.167  11.723  0.5953 -0.4834  0.0725
  362MOL0     C48778   5.047   7.172  11.876 -0.0235  0.5200  0.2338
  362MOL0    Cl48779   5.049   7.011  11.948  0.1775 -0.1907 -0.5239
  362MOL0     C48780   4.178   6.707  11.478 -0.1964  0.0215  0.8510
  362MOL0     C48781   4.040   6.715  11.517 -0.1186 -0.3409 -0.7304
  362MOL0     O48782   3.801   7.066  11.577 -0.7330 -0.6690 -0.2115
  362MOL0     C48783   3.536   7.017  11.673  1.0178 -1.4984 -0.7322
  362MOL0     C48784   3.407   6.993  11.721 -0.4252 -0.9779  0.5154
  362MOL0     N48785   3.537   6.735  12.135 -0.7091 -0.2793  0.1630
  362MOL0     N48786   3.645   6.668  12.119 -0.7482  0.8274  0.3549
  362MOL0     C48787   4.007   5.555  11.553  0.7552 -0.5867 -0.3770
  362MOL0     C48788   3.937   5.472  11.468 -0.7068 -0.7681  0.7291
  362MOL0     C48789   3.598   5.284  11.226  0.0765 -0.3518  1.0913
  362MOL0     C48790   3.497   5.206  11.277  0.8941 -0.1480  0.0330
  362MOL0     C48791   3.481   5.075  11.241 -0.6077 -0.0077 -0.0317
  362MOL0     C48792   3.563   5.020  11.144 -1.0121  0.3188  0.2097
  362MOL0     O48793   3.537   4.890  11.112  0.9872  0.1690 -0.9014
  362MOL0     C48794   3.594   4.820  11.005  0.1702 -0.6238 -0.3360
  362MOL0     C48795   3.521   4.845  10.868  0.0203  0.4019  0.8677
  362MOL0     C48796   3.432   4.722  10.824 -1.1987 -0.1787  0.5649
  362MOL0     C48797   3.305   4.680  10.913 -0.3040 -1.1392  0.5729
  362MOL0     C48798   3.220   4.782  10.966 -0.0304 -0.6139  0.4009
  362MOL0     C48799   3.150   4.871  11.000 -0.4528 -0.4285  0.0503
  362MOL0     C48800   3.662   5.098  11.083  0.6830  0.8310 -0.2754
  362MOL0     C48801   3.682   5.228  11.123  0.2894 -0.2608  0.5780
  362MOL0     C48802   3.791   5.296  11.054 -0.4031 -0.8169 -0.5360
  362MOL0     H48803   3.719   5.693  11.340  1.6640 -1.2114 -1.9327
  362MOL0     H48804   3.825   5.830  11.516 -0.0094 -0.2909  1.8063
  362MOL0     H48805   4.105   5.944  11.582 -0.5997  1.8299  0.6321
  362MOL0     H48806   3.948   5.935  11.652 -1.0952 -2.9845 -0.1733
  362MOL0     H48807   4.212   5.949  11.774 -0.6411  0.1790  0.5288
  362MOL0     H48808   4.106   5.879  11.881 -0.9767  2.3105  2.1311
  362MOL0     H48809   4.036   6.141  11.763  2.7327 -1.0618 -0.6908
  362MOL0     H48810   4.128   6.126  11.921  0.2879  0.3528  0.7766
  362MOL0     H48811   3.842   6.033  11.873 -2.7230  2.1551  0.6005
  362MOL0     H48812   3.946   6.007  12.014  2.6531  2.1848  1.0974
  362MOL0     H48813   3.940   6.249  12.066  0.1313 -0.7999  0.7424
  362MOL0     H48814   3.882   6.287  11.896  0.6147 -1.2505 -1.0928
  362MOL0     H48815   3.671   6.157  11.938 -3.4131  1.5224 -0.5848
  362MOL0     H48816   3.730   6.165  12.111  1.8372 -2.0034 -1.7005
  362MOL0     H48817   3.571   6.364  12.034 -0.1877  0.6483  3.2378
  362MOL0     H48818   3.708   6.413  11.936  1.9195 -2.2909 -0.7868
  362MOL0     H48819   3.714   6.363  12.244  4.3792  0.2709  0.8463
  362MOL0     H48820   3.817   6.477  12.155 -0.4190  1.3080 -2.7808
  362MOL0     H48821   3.455   6.436  12.245 -0.5400 -0.0596  1.8287
  362MOL0     H48822   3.263   6.654  12.306 -0.1902  0.0347  0.0228
  362MOL0     H48823   3.281   6.794  12.218 -0.5321  0.9557 -2.0540
  362MOL0     H48824   3.207   6.521  12.085 -1.4678 -1.5281  3.8861
  362MOL0     H48825   3.117   6.668  12.114 -0.2885  0.4729 -3.4150
  362MOL0     H48826   3.176   6.644  11.892 -1.7984 -0.2863  2.1944
  362MOL0     H48827   3.353   6.657  11.934  0.1363 -0.5817  0.9321
  362MOL0     H48828   3.325   6.898  11.963 -1.0949 -0.5210 -0.3600
  362MOL0     H48829   3.155   6.883  11.967  1.8614  6.2507 -1.4322
  362MOL0     H48830   3.416   6.663  11.698 -0.7341 -0.6993 -1.2158
  362MOL0     H48831   3.654   6.718  11.634 -0.4275 -2.0533  3.8154
  362MOL0     H48832   4.033   7.039  11.632 -2.2580 -0.2464 -0.6380
  362MOL0     H48833   4.278   7.015  11.567 -0.7412  0.8908 -0.7657
  362MOL0     H48834   4.543   6.894  11.347 -0.6725 -3.8634 -0.1175
  362MOL0     H48835   4.404   6.995  11.353 -3.2671 -3.1312 -1.6942
  362MOL0     H48836   4.521   7.085  11.533 -0.2504 -0.4775  1.3331
  362MOL0     H48837   4.471   6.937  11.623 -0.2553 -1.5629 -0.1291
  362MOL0     H48838   4.658   6.822  11.525 -2.5369  1.0159 -0.6229
  362MOL0     H48839   4.743   6.979  11.495  1.0338 -1.7583 -1.4795
  362MOL0     H48840   4.761   6.881  11.746  1.2031  0.1945 -0.7555
  362MOL0     H48841   4.631   6.991  11.764  0.9364 -1.6266  1.0261
  362MOL0     H48842   4.817   7.127  11.795 -0.2073  1.0791 -0.5914
  362MOL0     H48843   4.779   7.173  11.634  2.3473  1.4078  1.1030
  362MOL0     H48844   4.973   6.967  11.698  3.8319  1.8204  2.1570
  362MOL0     H48845   4.956   7.070  11.547 -2.6114 -2.1498 -0.2621
  362MOL0     H48846   5.031   7.271  11.694  1.4764  0.2511  1.9916
  362MOL0     H48847   5.153   7.149  11.695  0.8089  1.0376 -0.2325
  362MOL0     H48848   5.140   7.212  11.919 -0.7155 -1.1997  3.7033
  362MOL0     H48849   4.957   7.216  11.921 -0.1102  0.9665 -0.3743
  362MOL0     H48850   4.223   6.612  11.454 -0.5286 -0.9223  3.6084
  362MOL0     H48851   3.970   6.635  11.496 -1.6941 -0.3896  3.6894
  362MOL0     H48852   3.578   7.115  11.652 -2.4985 -0.0464 -1.7022
  362MOL0     H48853   3.344   7.077  11.748  0.9822 -1.1711  5.1358
  362MOL0     H48854   4.094   5.524  11.610 -0.9782 -0.4019  2.5772
  362MOL0     H48855   3.963   5.368  11.454 -0.6768 -0.5510 -1.0664
  362MOL0     H48856   3.439   5.247  11.359 -1.8147 -1.9795 -0.8220
  362MOL0     H48857   3.409   5.004  11.281 -2.6276  1.7709 -0.3235
  362MOL0     H48858   3.608   4.715  11.031  2.5255 -0.3442 -0.2371
  362MOL0     H48859   3.695   4.861  11.000 -1.1164  3.0905  0.6927
  362MOL0     H48860   3.597   4.854  10.790 -0.5112  4.4046  0.5728
  362MOL0     H48861   3.458   4.934  10.876 -0.1966  0.2669  0.6735
  362MOL0     H48862   3.498   4.635  10.829 -0.0320  0.5711 -0.9938
  362MOL0     H48863   3.395   4.736  10.722 -1.4216  1.0370  0.7950
  362MOL0     H48864   3.246   4.601  10.866 -0.0981 -1.6385  1.1407
  362MOL0     H48865   3.343   4.623  10.998  0.4726 -1.4465  0.0291
  362MOL0     H48866   3.109   4.964  11.033  0.4762  0.4085 -1.1130
  362MOL0     H48867   3.730   5.048  11.015  1.9877  2.1356  0.0403
  362MOL0     H48868   3.879   5.298  11.120  1.0285 -2.2473 -2.2642
  362MOL0     H48869   3.815   5.250  10.957 -1.9937 -1.2537 -0.7529
  362MOL0     H48870   3.766   5.401  11.040  0.1561 -0.9099 -2.6771
  363MOL0     O48871   2.223   1.091   9.477 -0.3382 -0.4049 -0.1485
  363MOL0     C48872   2.132   1.101   9.394 -0.8700 -0.4296 -0.6728
  363MOL0     O48873   2.003   1.077   9.422  0.4417 -0.2975  0.5221
  363MOL0     C48874   1.990   1.018   9.537  0.5723 -0.4707 -0.5467
  363MOL0     C48875   1.984   0.872   9.538 -0.6822 -0.1285 -1.0169
  363MOL0     C48876   1.959   0.801   9.657 -0.2576 -0.7066 -0.5253
  363MOL0     C48877   1.926   0.866   9.775  0.0722  0.0470  0.5076
  363MOL0     O48878   1.889   0.797   9.888 -0.4844  0.2404  0.2352
  363MOL0     C48879   1.917   0.658   9.907 -0.7326  0.8514  0.3354
  363MOL0     C48880   1.911   0.620  10.054 -0.4555 -0.5224 -0.2699
  363MOL0     C48881   2.024   0.682  10.142  0.2817 -0.5206  0.4491
  363MOL0     C48882   1.996   0.643  10.289  0.5901  0.4681  0.0720
  363MOL0     C48883   2.108   0.679  10.384  1.2590 -0.0412  0.1125
  363MOL0     C48884   2.106   0.824  10.426 -0.1380 -0.7964  0.2060
  363MOL0     C48885   2.197   0.872  10.539 -0.0414  1.3260 -1.0765
  363MOL0     C48886   2.334   0.798  10.537 -0.5788 -0.5611  0.7597
  363MOL0     N48887   2.441   0.876  10.598  0.6435 -0.0811  0.1145
  363MOL0     C48888   2.561   0.871  10.528  0.1869 -0.3125 -0.7160
  363MOL0     C48889   2.633   0.961  10.608  0.0931 -0.0859  1.1356
  363MOL0     C48890   2.773   1.004  10.580  0.1109  0.2939 -1.2191
  363MOL0     C48891   2.873   0.981  10.697 -0.0416  0.2766  0.2509
  363MOL0     C48892   2.890   0.829  10.710 -0.1433 -0.1589 -0.3468
  363MOL0     C48893   3.031   0.792  10.745 -0.3692  0.6549 -0.2619
  363MOL0     O48894   3.086   0.890  10.841  0.0215  0.0907  0.6217
  363MOL0     C48895   3.224   0.909  10.858  0.3879  0.4094 -0.1766
  363MOL0     C48896   3.264   0.989  10.967 -0.3318  0.4808  0.2542
  363MOL0     C48897   3.394   1.010  10.986  0.2639 -0.8707  1.1402
  363MOL0     C48898   3.498   0.970  10.894  1.0200  0.0645 -0.5324
  363MOL0     C48899   3.632   1.024  10.923 -0.4440  0.2848 -0.5983
  363MOL0     O48900   3.655   1.115  11.031  0.9445 -0.8234  0.5298
  363MOL0     C48901   3.768   1.193  11.036 -0.5136 -0.9951 -0.0123
  363MOL0     C48902   3.845   1.225  10.917  1.3966 -0.5633 -0.0581
  363MOL0     C48903   3.955   1.312  10.915 -0.1593  0.0410  0.2290
  363MOL0     C48904   3.989   1.386  11.034 -0.2948 -1.4125  0.2968
  363MOL0     O48905   4.084   1.489  11.035 -0.0921 -0.1011  0.5933
  363MOL0     C48906   4.090   1.584  11.145  1.2503  0.6064 -0.1151
  363MOL0     C48907   4.119   1.728  11.096  0.4690 -0.5879  0.7878
  363MOL0     C48908   4.032   1.846  11.151 -1.1910 -0.0003  0.3148
  363MOL0     C48909   4.057   1.856  11.307  0.5878  0.5344 -0.8417
  363MOL0     C48910   4.011   1.990  11.369 -0.0164  1.0695  0.3552
  363MOL0     C48911   4.045   1.995  11.514  1.0935  0.3348 -2.2642
  363MOL0     C48912   4.201   1.991  11.538  0.7997 -1.4198  0.5462
  363MOL0     C48913   4.240   2.100  11.647  0.4861 -0.4966  0.3731
  363MOL0    Cl48914   4.419   2.103  11.673 -0.0636 -0.1595 -0.4893
  363MOL0     C48915   3.926   1.342  11.157 -0.3969  0.3967 -0.4149
  363MOL0     C48916   3.820   1.244  11.162  0.6095  0.0805  1.0594
  363MOL0     O48917   3.722   0.989  10.855 -0.1053  0.5298  0.4096
  363MOL0     C48918   3.463   0.894  10.789  0.0016 -0.7629 -0.1053
  363MOL0     C48919   3.317   0.869  10.769 -1.1114  0.0418  0.6440
  363MOL0     N48920   2.557   0.991  10.719 -0.4741  0.0394 -0.3706
  363MOL0     N48921   2.437   0.960  10.705  0.1197  0.4498  0.1640
  363MOL0     C48922   1.916   1.012   9.769  0.1852  0.0728 -0.6400
  363MOL0     C48923   1.943   1.083   9.655 -0.3963 -0.9005  0.7751
  363MOL0     C48924   2.175   1.177   9.258 -0.4970  0.2459 -0.2582
  363MOL0     C48925   2.086   1.261   9.191 -0.3639 -0.3888 -0.3080
  363MOL0     C48926   2.133   1.331   9.079  0.5169 -0.2231 -0.2091
  363MOL0     C48927   2.261   1.307   9.020 -0.0666  0.0530 -0.3792
  363MOL0     O48928   2.302   1.368   8.906  0.0307 -0.1818  1.0776
  363MOL0     C48929   2.435   1.370   8.849 -0.1485 -0.0427 -0.5682
  363MOL0     C48930   2.463   1.245   8.764  0.1782  0.1311 -0.6921
  363MOL0     C48931   2.591   1.242   8.685 -0.0242  0.2287 -0.4353
  363MOL0     C48932   2.723   1.220   8.772 -0.5858  0.0794 -0.2065
  363MOL0     C48933   2.737   1.075   8.805 -0.3599  0.3162 -0.0318
  363MOL0     C48934   2.766   0.967   8.843 -1.2091  0.4184 -1.0536
  363MOL0     C48935   2.352   1.225   9.092 -0.0440  0.4563  0.3424
  363MOL0     C48936   2.308   1.159   9.210 -0.9168  0.3698 -0.6398
  363MOL0     C48937   2.403   1.063   9.269 -0.1890 -0.2167 -0.1826
  363MOL0     H48938   2.013   0.833   9.441  1.6039 -1.0663 -0.0317
  363MOL0     H48939   1.956   0.693   9.663 -0.6351 -0.6900 -0.3961
  363MOL0     H48940   1.841   0.606   9.847 -1.5026 -2.6176  3.8929
  363MOL0     H48941   2.011   0.625   9.862 -1.4451  0.0507 -0.6097
  363MOL0     H48942   1.930   0.514  10.072  1.3665 -0.3064 -0.7899
  363MOL0     H48943   1.807   0.621  10.088 -1.1751 -3.3696 -2.1048
  363MOL0     H48944   2.027   0.791  10.131  2.3223 -0.8027 -3.7161
  363MOL0     H48945   2.127   0.661  10.109  2.1063  4.2134  2.2273
  363MOL0     H48946   1.908   0.681  10.340  1.4186  2.0343  0.3693
  363MOL0     H48947   1.996   0.533  10.289  1.3494  0.4486 -0.8439
  363MOL0     H48948   2.092   0.627  10.479 -0.4997 -3.0496 -1.6688
  363MOL0     H48949   2.206   0.642  10.352  2.4410  1.0851  2.1746
  363MOL0     H48950   2.138   0.884  10.340  0.5792 -0.7045  0.5370
  363MOL0     H48951   2.011   0.866  10.461  0.7758  5.2342 -3.1297
  363MOL0     H48952   2.152   0.846  10.636  1.5103 -0.6593 -0.8109
  363MOL0     H48953   2.200   0.980  10.520 -1.5275  1.2135 -2.0834
  363MOL0     H48954   2.308   0.715  10.603 -3.1549  0.7252  1.4900
  363MOL0     H48955   2.353   0.775  10.432 -1.7107 -1.5749  0.7491
  363MOL0     H48956   2.599   0.812  10.445 -0.8949 -6.1528  2.3844
  363MOL0     H48957   2.801   0.939  10.497  1.9607 -0.1909 -0.2635
  363MOL0     H48958   2.768   1.111  10.556  3.8369  1.3375  1.7288
  363MOL0     H48959   2.969   1.029  10.673 -0.0484 -0.1796 -0.7443
  363MOL0     H48960   2.846   1.035  10.788 -3.7938 -0.5277 -0.2393
  363MOL0     H48961   2.854   0.770  10.625  0.2597 -2.7987  1.1992
  363MOL0     H48962   2.835   0.787  10.795 -1.2272  0.5325 -0.6904
  363MOL0     H48963   3.089   0.791  10.652 -1.2626 -0.2070 -0.8306
  363MOL0     H48964   3.032   0.687  10.777 -0.7982  0.5636 -0.5481
  363MOL0     H48965   3.180   1.023  11.028 -0.6289 -0.4386  0.3665
  363MOL0     H48966   3.429   1.072  11.068  1.1664  0.2675 -0.0707
  363MOL0     H48967   3.820   1.191  10.817  0.3908 -0.7456  0.2405
  363MOL0     H48968   4.005   1.335  10.821  0.1310 -1.3860  0.0139
  363MOL0     H48969   3.988   1.586  11.183  1.1046 -3.4268  0.1292
  363MOL0     H48970   4.162   1.563  11.224  0.3508  0.3982  0.6663
  363MOL0     H48971   4.227   1.743  11.110  0.2150  1.8365  0.5530
  363MOL0     H48972   4.101   1.714  10.989  0.5690 -1.0205  0.8270
  363MOL0     H48973   4.075   1.940  11.116  1.1257 -1.5969 -1.4496
  363MOL0     H48974   3.928   1.839  11.116 -1.0298 -1.9110  0.1248
  363MOL0     H48975   4.158   1.838  11.344  0.7839  1.5108 -0.8654
  363MOL0     H48976   3.992   1.775  11.343 -0.0491  1.6196  0.5685
  363MOL0     H48977   3.904   2.002  11.350  0.3343  0.6438 -2.1501
  363MOL0     H48978   4.069   2.073  11.327  0.6301  0.2896 -0.3200
  363MOL0     H48979   4.012   2.093  11.551  0.9717 -1.2936  2.7901
  363MOL0     H48980   3.999   1.916  11.574 -0.1241  2.2456 -0.5402
  363MOL0     H48981   4.250   2.016  11.444 -4.1448 -1.3631 -2.3239
  363MOL0     H48982   4.224   1.889  11.573 -2.5269 -0.9099  5.1813
  363MOL0     H48983   4.221   2.203  11.615 -0.5268 -0.5552  0.7555
  363MOL0     H48984   4.184   2.091  11.740 -0.6754 -0.5999 -0.3182
  363MOL0     H48985   3.956   1.394  11.247 -4.9581 -1.2096  2.4010
  363MOL0     H48986   3.768   1.236  11.257  1.1032  2.8735  1.6609
  363MOL0     H48987   3.538   0.844  10.729  0.7710  3.4492 -3.1202
  363MOL0     H48988   3.297   0.806  10.683  3.3136 -1.4508  0.4916
  363MOL0     H48989   1.878   1.060   9.858  0.0782  0.3003 -0.8074
  363MOL0     H48990   1.925   1.190   9.658 -0.5805 -0.9247  0.5464
  363MOL0     H48991   1.987   1.272   9.235 -0.9373 -3.6368 -0.5123
  363MOL0     H48992   2.071   1.404   9.029  1.2436 -0.2271 -1.1365
  363MOL0     H48993   2.502   1.376   8.935 -2.6718  0.7295  1.4784
  363MOL0     H48994   2.445   1.455   8.781 -0.2641  0.9941  0.6727
  363MOL0     H48995   2.381   1.229   8.694  1.0069 -4.7183 -0.9187
  363MOL0     H48996   2.452   1.152   8.822  0.3381 -0.9949 -2.3913
  363MOL0     H48997   2.605   1.333   8.627 -1.1500 -0.5168 -1.9657
  363MOL0     H48998   2.583   1.156   8.617  1.0125 -1.8060  1.8495
  363MOL0     H48999   2.808   1.246   8.708  0.2930  2.5553  1.7809
  363MOL0     H49000   2.718   1.288   8.857 -3.0409 -1.8013  1.2891
  363MOL0     H49001   2.800   0.874   8.883 -2.1494 -0.2175 -1.6858
  363MOL0     H49002   2.454   1.203   9.064 -0.0286 -0.6880  1.2307
  363MOL0     H49003   2.348   0.973   9.299  0.2212 -1.8264 -3.7290
  363MOL0     H49004   2.483   1.032   9.201  0.3142 -2.2933  1.2515
  363MOL0     H49005   2.445   1.114   9.356  0.3293 -0.8994 -0.0229
  364MOL0     O49006   0.628   8.323  10.730 -0.2779  0.2779  0.5556
  364MOL0     C49007   0.537   8.258  10.682  0.5132  0.5081 -0.1575
  364MOL0     O49008   0.512   8.250  10.549  0.2575 -0.7143 -0.4371
  364MOL0     C49009   0.569   8.345  10.455  0.1705  0.3884 -0.6966
  364MOL0     C49010   0.700   8.367  10.438  0.6552 -0.1376  0.5689
  364MOL0     C49011   0.752   8.457  10.344 -0.2099  1.1973  0.8664
  364MOL0     C49012   0.659   8.542  10.271 -0.0276 -0.0443  0.4705
  364MOL0     O49013   0.684   8.661  10.202  0.2518 -0.3961  1.3296
  364MOL0     C49014   0.816   8.681  10.145 -0.4548  0.4124 -0.3287
  364MOL0     C49015   0.820   8.827  10.085 -0.3774  0.1950  0.0976
  364MOL0     C49016   0.852   8.936  10.190  0.0003 -0.4107 -0.3496
  364MOL0     C49017   0.909   9.063  10.119  0.3995  0.3207 -1.2766
  364MOL0     C49018   0.886   9.194  10.199 -0.0495  0.2957 -0.6598
  364MOL0     C49019   0.965   9.315  10.139  0.5721  0.2595  0.5934
  364MOL0     C49020   0.947   9.439  10.223  0.0803  0.1369 -0.9710
  364MOL0     C49021   1.018   9.559  10.149  0.6495  0.4978 -0.1919
  364MOL0     N49022   0.966   9.680  10.213 -0.0576 -1.1642 -0.7733
  364MOL0     C49023   1.000   9.734  10.342  0.4968 -0.3767  0.8123
  364MOL0     C49024   0.938   9.856  10.340  0.1331 -0.2169 -0.8029
  364MOL0     C49025   0.952   9.958  10.451  0.9780 -0.8774  0.2575
  364MOL0     C49026   0.829   9.970  10.533  0.2964 -0.0216  0.2039
  364MOL0     C49027   0.847  10.070  10.644  0.0611 -0.0877 -0.3424
  364MOL0     C49028   0.697  10.087  10.693 -0.5899  1.1647 -0.4507
  364MOL0     O49029   0.714  10.104  10.837 -0.0169  0.3555  1.2320
  364MOL0     C49030   0.691  10.233  10.878 -0.0215 -0.5300 -0.4480
  364MOL0     C49031   0.659  10.253  11.011  0.7836 -0.5125  0.4087
  364MOL0     C49032   0.628  10.381  11.057  0.5509  0.1855  0.6921
  364MOL0     C49033   0.610  10.494  10.973 -1.0393 -0.7680  0.6411
  364MOL0     C49034   0.579  10.638  11.014  0.4425  0.7098  0.6796
  364MOL0     O49035   0.624  10.740  10.932 -0.0116  0.9473  0.9229
  364MOL0     C49036   0.590  10.870  10.950  0.5639 -0.0685  1.0604
  364MOL0     C49037   0.687  10.967  10.921 -0.5795  0.9283 -0.2349
  364MOL0     C49038   0.661  11.105  10.924 -0.0776  0.3677  0.6206
  364MOL0     C49039   0.535  11.153  10.973  0.0611 -0.4081 -0.4192
  364MOL0     O49040   0.497  11.286  10.989 -0.3143 -0.8122  0.1644
  364MOL0     C49041   0.563  11.372  10.897 -0.7827  0.0669  0.6385
  364MOL0     C49042   0.513  11.509  10.912  0.3624 -0.9511 -0.0630
  364MOL0     C49043   0.363  11.527  10.881  0.6486  0.6628 -0.4545
  364MOL0     C49044   0.289  11.655  10.922 -0.7603  0.1104 -0.0470
  364MOL0     C49045   0.369  11.775  10.869 -0.0138  0.1849  0.4213
  364MOL0     C49046   0.293  11.913  10.879 -0.1282  0.7821  0.4101
  364MOL0     C49047   0.211  11.951  10.761 -0.2473 -0.2064  0.4768
  364MOL0     C49048   0.106  11.854  10.702 -0.9917  0.3358 -0.6611
  364MOL0    Cl49049   0.168  11.692  10.630  0.4893  0.3181  0.2251
  364MOL0     C49050   0.440  11.058  10.996  0.4821  1.0366  0.4152
  364MOL0     C49051   0.462  10.921  10.985  0.0751  0.3278 -0.4224
  364MOL0     O49052   0.540  10.648  11.129 -0.0907 -0.4778  0.7220
  364MOL0     C49053   0.644  10.467  10.841  0.1167 -0.3063  0.6372
  364MOL0     C49054   0.688  10.353  10.799  0.9291  1.0227  0.1377
  364MOL0     N49055   0.871   9.880  10.213 -0.9105  0.7715 -0.0245
  364MOL0     N49056   0.878   9.769  10.147 -0.1741  0.2579 -0.2272
  364MOL0     C49057   0.521   8.512  10.290  0.5662 -0.0547 -0.3808
  364MOL0     C49058   0.480   8.419  10.380  0.0234  0.0960  0.3606
  364MOL0     C49059   0.447   8.177  10.775  0.2923  0.4730 -0.2437
  364MOL0     C49060   0.326   8.123  10.727  0.2046  0.3957 -0.8235
  364MOL0     C49061   0.240   8.056  10.821 -0.2761 -1.5558 -0.1432
  364MOL0     C49062   0.281   8.034  10.958  0.0795  0.3070  0.2665
  364MOL0     O49063   0.195   7.964  11.038  0.1777  0.8300 -0.2713
  364MOL0     C49064   0.237   7.898  11.153 -0.3352 -0.1630 -1.1395
  364MOL0     C49065   0.213   7.992  11.271  0.8189  0.0593  0.0106
  364MOL0     C49066   0.246   7.910  11.398  0.8844  0.2385  0.2068
  364MOL0     C49067   0.232   7.982  11.529  2.1465 -0.4697 -0.1979
  364MOL0     C49068   0.267   7.902  11.644  0.4014  0.1516  0.2662
  364MOL0     C49069   0.303   7.840  11.735 -0.9477  1.3301  0.1778
  364MOL0     C49070   0.403   8.079  10.996 -1.0674  0.1290 -0.8528
  364MOL0     C49071   0.485   8.150  10.914  0.3365 -0.5979  0.9283
  364MOL0     C49072   0.625   8.157  10.969  1.1973  0.0434 -0.3461
  364MOL0     H49073   0.764   8.305  10.500  0.9431 -2.1788 -1.6339
  364MOL0     H49074   0.856   8.485  10.337 -0.1153  0.9043  1.0478
  364MOL0     H49075   0.900   8.680  10.214 -1.2996  1.0911  0.7531
  364MOL0     H49076   0.827   8.605  10.067 -3.0428 -0.8446  0.4277
  364MOL0     H49077   0.720   8.852  10.048 -0.8868 -3.9219 -1.9410
  364MOL0     H49078   0.892   8.829  10.003 -0.6359 -1.6276 -0.2098
  364MOL0     H49079   0.916   8.900  10.270  2.9796  2.0441 -1.4235
  364MOL0     H49080   0.760   8.953  10.247  1.2001 -5.3631  3.8715
  364MOL0     H49081   1.016   9.044  10.105  0.2506 -2.4537  0.6120
  364MOL0     H49082   0.852   9.067  10.026  0.5189  0.0113 -1.3645
  364MOL0     H49083   0.780   9.223  10.196  0.4366  2.2425 -0.2924
  364MOL0     H49084   0.922   9.175  10.301 -1.7700 -3.5593 -0.6012
  364MOL0     H49085   1.068   9.284  10.122  0.2913 -1.9191  2.4628
  364MOL0     H49086   0.908   9.340  10.049 -3.4352  2.8217  3.4812
  364MOL0     H49087   0.992   9.421  10.321 -1.0046 -1.7568 -0.7875
  364MOL0     H49088   0.841   9.463  10.238 -0.4800 -2.0576 -1.0535
  364MOL0     H49089   1.124   9.534  10.166  0.2804 -1.8350 -1.0091
  364MOL0     H49090   1.011   9.557  10.040  1.2476 -0.1085 -0.2278
  364MOL0     H49091   1.053   9.694  10.429  1.0035  1.1962  1.2550
  364MOL0     H49092   1.037   9.922  10.510 -0.9533 -2.3121  2.3370
  364MOL0     H49093   0.979  10.049  10.396  0.9047  0.2778  2.0609
  364MOL0     H49094   0.743   9.995  10.471  0.1078  0.1856  0.5462
  364MOL0     H49095   0.803   9.875  10.581  0.2040 -0.4107 -0.5962
  364MOL0     H49096   0.877  10.170  10.613 -2.2082  0.8962  0.4380
  364MOL0     H49097   0.900  10.027  10.730  0.7256  1.8267  0.2505
  364MOL0     H49098   0.624  10.005  10.685 -0.5363  0.8498  1.6109
  364MOL0     H49099   0.640  10.165  10.642 -2.6359 -0.4661 -0.8242
  364MOL0     H49100   0.639  10.165  11.072 -1.3280 -1.0605 -0.9547
  364MOL0     H49101   0.618  10.383  11.165  1.3163 -1.7134  0.8306
  364MOL0     H49102   0.790  10.937  10.905 -0.1652  0.5126  2.7077
  364MOL0     H49103   0.740  11.174  10.897 -0.8756  0.5898 -1.3741
  364MOL0     H49104   0.671  11.379  10.913 -0.4835  1.9028 -1.6426
  364MOL0     H49105   0.545  11.333  10.796  1.4306 -1.8496  0.8964
  364MOL0     H49106   0.532  11.553  11.010  0.7193 -2.1736  0.4396
  364MOL0     H49107   0.568  11.564  10.835 -1.6167 -0.6916 -1.3320
  364MOL0     H49108   0.346  11.502  10.775 -1.6894 -1.8364  0.3930
  364MOL0     H49109   0.309  11.461  10.950 -2.7050 -0.1342 -3.5292
  364MOL0     H49110   0.290  11.657  11.031 -2.4409 -1.2298  0.0436
  364MOL0     H49111   0.187  11.648  10.885  0.1697 -2.2790 -2.5239
  364MOL0     H49112   0.404  11.749  10.768  2.0559 -3.2755  1.8726
  364MOL0     H49113   0.469  11.784  10.914  0.6775 -3.5297 -0.0818
  364MOL0     H49114   0.236  11.902  10.971  1.8008 -1.0864  1.4760
  364MOL0     H49115   0.369  11.989  10.896  2.8992 -1.4908 -1.8275
  364MOL0     H49116   0.279  11.980  10.680 -0.6597  6.1013  1.8931
  364MOL0     H49117   0.155  12.042  10.781 -3.3194 -1.0748 -3.0370
  364MOL0     H49118   0.026  11.836  10.775  0.5638 -0.6611  0.8799
  364MOL0     H49119   0.077  11.916  10.617 -1.4260 -1.2617 -1.7138
  364MOL0     H49120   0.338  11.088  11.017  0.0506  1.8685 -2.4123
  364MOL0     H49121   0.380  10.855  11.009  0.2266  0.2253 -0.1857
  364MOL0     H49122   0.633  10.555  10.778 -0.0001  0.7739  2.1163
  364MOL0     H49123   0.714  10.352  10.694  0.2184  1.8043 -0.0600
  364MOL0     H49124   0.447   8.565  10.231  1.6960  0.4548 -1.3864
  364MOL0     H49125   0.374   8.394  10.372 -0.4913  1.9593  0.8245
  364MOL0     H49126   0.298   8.138  10.623 -2.0865  0.8342 -0.2015
  364MOL0     H49127   0.147   8.024  10.775 -0.4645  3.8218 -4.5037
  364MOL0     H49128   0.341   7.863  11.152 -0.3947 -0.3857 -0.1902
  364MOL0     H49129   0.167   7.815  11.164  0.9008 -1.1582 -0.5010
  364MOL0     H49130   0.109   8.025  11.265  0.3146 -1.3656  0.4601
  364MOL0     H49131   0.271   8.084  11.256 -0.9513  1.0651 -0.9806
  364MOL0     H49132   0.353   7.894  11.390  0.5594 -2.7065  0.4806
  364MOL0     H49133   0.186   7.818  11.396 -1.0933  1.4422 -2.7782
  364MOL0     H49134   0.295   8.069  11.549  0.6232  0.0861  2.6873
  364MOL0     H49135   0.130   8.017  11.551  2.1004 -0.8688  0.2433
  364MOL0     H49136   0.324   7.777  11.818  0.1881 -3.1344 -3.1003
  364MOL0     H49137   0.436   8.066  11.098  0.7801  0.6923 -1.3423
  364MOL0     H49138   0.636   8.259  11.007 -1.2872 -0.9297  3.4996
  364MOL0     H49139   0.644   8.088  11.052  1.3737  0.3583 -0.1243
  364MOL0     H49140   0.700   8.135  10.892  0.9561  1.2421 -0.9475
  365MOL0     O49141   4.798  10.770   8.798  0.2840  0.0725  0.0810
  365MOL0     C49142   4.729  10.706   8.881  0.8613 -0.9902  0.7056
  365MOL0     O49143   4.636  10.601   8.862 -0.3985  0.2296  0.0666
  365MOL0     C49144   4.618  10.576   8.729 -0.3413  0.4174 -0.3374
  365MOL0     C49145   4.691  10.481   8.660 -0.6057 -0.8282 -0.4261
  365MOL0     C49146   4.665  10.455   8.525  0.8351 -0.2578  0.1751
  365MOL0     C49147   4.561  10.540   8.467  0.8895 -0.3442 -0.0031
  365MOL0     O49148   4.541  10.551   8.337  0.3081 -0.1196 -0.3804
  365MOL0     C49149   4.615  10.482   8.233  0.5533  0.0288  0.9245
  365MOL0     C49150   4.622  10.573   8.110  1.4414  0.5147  0.3505
  365MOL0     C49151   4.764  10.634   8.109 -0.2050  0.3331 -0.6602
  365MOL0     C49152   4.811  10.716   8.228 -0.0824 -0.7235 -0.2388
  365MOL0     C49153   4.705  10.819   8.282 -0.4129 -0.6575  0.9243
  365MOL0     C49154   4.774  10.933   8.370  0.0512  0.2298  0.3576
  365MOL0     C49155   4.674  11.032   8.420  0.4081 -0.0099 -0.4085
  365MOL0     C49156   4.618  10.979   8.554 -0.3201  0.3192 -0.2288
  365MOL0     N49157   4.473  10.995   8.566  0.3648 -0.4614 -0.2777
  365MOL0     C49158   4.403  11.026   8.675 -0.2421  0.3876  0.1223
  365MOL0     C49159   4.275  11.017   8.642  0.3194 -0.0478 -0.2005
  365MOL0     C49160   4.149  11.055   8.710 -1.2613  0.0448 -0.3499
  365MOL0     C49161   4.096  10.926   8.793  0.0630 -0.2915 -0.6155
  365MOL0     C49162   3.965  10.950   8.870 -0.2631  0.6617 -1.1173
  365MOL0     C49163   3.857  10.854   8.856  0.2746  0.9082  0.1177
  365MOL0     O49164   3.811  10.867   8.716  0.0404 -0.9779 -0.0860
  365MOL0     C49165   3.739  10.762   8.678  0.0443 -0.2241 -0.8519
  365MOL0     C49166   3.801  10.643   8.644  0.8725  0.0998  0.6516
  365MOL0     C49167   3.716  10.535   8.618 -0.7817  0.2312  0.1495
  365MOL0     C49168   3.582  10.537   8.611 -0.9589  0.3360 -0.2108
  365MOL0     C49169   3.498  10.429   8.570  0.2155  0.9671  0.4179
  365MOL0     O49170   3.365  10.429   8.610  0.0443  0.7623  0.4908
  365MOL0     C49171   3.287  10.314   8.578  0.3322 -0.4179 -0.0528
  365MOL0     C49172   3.274  10.250   8.449  0.2343 -0.5812 -0.8894
  365MOL0     C49173   3.181  10.142   8.429  0.8944  0.0280  0.5597
  365MOL0     C49174   3.116  10.094   8.540  0.6432  1.3691  0.2618
  365MOL0     O49175   3.039   9.978   8.540 -0.1289  0.6356 -0.1080
  365MOL0     C49176   3.022   9.903   8.423  1.1757  0.1968  0.7431
  365MOL0     C49177   2.883   9.938   8.354 -0.7698  0.3978  0.0820
  365MOL0     C49178   2.859   9.862   8.228  1.0762  0.0424 -0.5805
  365MOL0     C49179   2.835   9.708   8.251  0.3553  0.2498  0.8575
  365MOL0     C49180   2.700   9.669   8.297 -0.3691 -0.3523  0.5902
  365MOL0     C49181   2.692   9.638   8.443 -0.3731 -0.4390 -0.8155
  365MOL0     C49182   2.552   9.624   8.497  0.1335 -0.6880 -0.2637
  365MOL0     C49183   2.574   9.604   8.644  0.6418  0.7551 -0.8483
  365MOL0    Cl49184   2.592   9.763   8.721 -0.2026  0.0242 -0.2479
  365MOL0     C49185   3.135  10.147   8.667  0.4066 -0.3546  0.0880
  365MOL0     C49186   3.215  10.263   8.685 -0.0232  0.1231 -0.6963
  365MOL0     O49187   3.546  10.337   8.498 -0.0244 -0.6053 -0.0461
  365MOL0     C49188   3.527  10.663   8.636  0.4149  0.1970 -0.6940
  365MOL0     C49189   3.601  10.774   8.681  0.3345 -1.0804 -0.4643
  365MOL0     N49190   4.263  10.971   8.508  0.5442 -1.8077  0.8424
  365MOL0     N49191   4.393  10.961   8.469  0.8000 -0.3258  0.4083
  365MOL0     C49192   4.484  10.629   8.543  0.7997  0.0912  0.0146
  365MOL0     C49193   4.514  10.658   8.675 -0.2692  0.3908 -0.2813
  365MOL0     C49194   4.724  10.761   9.019  0.0831  0.2676  0.1175
  365MOL0     C49195   4.647  10.879   9.056 -0.3621 -0.0238 -0.8439
  365MOL0     C49196   4.659  10.937   9.190 -0.8788 -0.1836 -0.0598
  365MOL0     C49197   4.746  10.879   9.282  0.3033 -0.1096  0.4963
  365MOL0     O49198   4.743  10.930   9.410 -0.3305  0.6821  0.8525
  365MOL0     C49199   4.818  10.867   9.524  0.5655 -0.3233  0.1952
  365MOL0     C49200   4.767  10.922   9.658 -0.4785 -0.3902  0.1873
  365MOL0     C49201   4.844  10.862   9.770 -0.1853 -0.2141 -0.1575
  365MOL0     C49202   4.815  10.929   9.906 -0.2037  0.9199  0.6942
  365MOL0     C49203   4.857  10.840  10.016  0.7324 -0.5002 -0.2116
  365MOL0     C49204   4.887  10.755  10.103  0.6657  0.1311  0.1278
  365MOL0     C49205   4.822  10.764   9.250 -0.3258 -0.3455  0.0631
  365MOL0     C49206   4.819  10.723   9.112 -0.6369 -0.1242 -0.9350
  365MOL0     C49207   4.928  10.632   9.083 -1.0049  1.4989  0.5227
  365MOL0     H49208   4.776  10.439   8.712  0.8686 -0.6853 -2.5763
  365MOL0     H49209   4.722  10.384   8.466 -1.4052 -2.4060  0.3886
  365MOL0     H49210   4.717  10.460   8.266  0.1462 -2.5526  0.6662
  365MOL0     H49211   4.554  10.393   8.218  0.5486  0.0104  1.0461
  365MOL0     H49212   4.537  10.641   8.094  3.0715  1.9817 -3.0659
  365MOL0     H49213   4.625  10.514   8.018 -0.4909  2.3653 -1.0260
  365MOL0     H49214   4.773  10.696   8.020 -2.2185 -0.2400 -1.3002
  365MOL0     H49215   4.834  10.549   8.106 -0.1080  0.4288 -1.2296
  365MOL0     H49216   4.841  10.654   8.313  0.4202  0.9192  0.8116
  365MOL0     H49217   4.889  10.788   8.203 -0.2618  0.9576  3.4037
  365MOL0     H49218   4.662  10.865   8.193 -0.3434  0.6923  1.5644
  365MOL0     H49219   4.627  10.769   8.340 -0.7666 -0.8959  0.2464
  365MOL0     H49220   4.831  10.892   8.454 -2.4360 -1.7639  1.2065
  365MOL0     H49221   4.844  10.990   8.309  2.6012  0.2308  3.0376
  365MOL0     H49222   4.593  11.032   8.346 -0.2078 -5.2769 -0.1212
  365MOL0     H49223   4.720  11.131   8.422  2.2264 -0.7949 -1.2793
  365MOL0     H49224   4.659  10.878   8.559  1.0965  0.7471 -2.0717
  365MOL0     H49225   4.665  11.044   8.628 -0.7051  0.8210 -0.4169
  365MOL0     H49226   4.436  11.064   8.772 -2.4096  2.5579  0.0844
  365MOL0     H49227   4.173  11.148   8.763 -0.6088 -0.9337  1.1363
  365MOL0     H49228   4.069  11.070   8.636 -1.1885  0.0949 -0.4185
  365MOL0     H49229   4.062  10.840   8.734 -2.7775  0.3245 -0.0478
  365MOL0     H49230   4.168  10.880   8.862 -0.8716  1.1206  1.3975
  365MOL0     H49231   3.915  11.047   8.857  0.1009  1.0561  0.2270
  365MOL0     H49232   3.997  10.948   8.975  0.1301  0.7502 -1.2369
  365MOL0     H49233   3.777  10.886   8.923  1.9508  1.0309  2.1790
  365MOL0     H49234   3.901  10.757   8.882 -0.2447 -0.0191 -2.2202
  365MOL0     H49235   3.909  10.647   8.649  1.2145 -1.7805 -2.4480
  365MOL0     H49236   3.750  10.433   8.610 -1.0786  0.0395  1.1977
  365MOL0     H49237   3.322  10.292   8.361 -1.2947  0.9815 -1.0247
  365MOL0     H49238   3.160  10.104   8.329 -1.1473 -0.2448  1.0368
  365MOL0     H49239   3.116   9.904   8.368  0.2707  0.4109 -0.8759
  365MOL0     H49240   3.011   9.800   8.461  0.6921  0.2334  0.7152
  365MOL0     H49241   2.811   9.911   8.432 -0.2007 -0.1491  0.4214
  365MOL0     H49242   2.873  10.041   8.320  0.1066  0.0434 -1.3472
  365MOL0     H49243   2.772   9.912   8.184  0.9819  1.7176  1.3821
  365MOL0     H49244   2.943   9.878   8.159  1.2033 -2.0396 -0.9902
  365MOL0     H49245   2.913   9.678   8.322  1.8689  1.2494 -0.3172
  365MOL0     H49246   2.863   9.677   8.150  2.2116  0.2091  1.3309
  365MOL0     H49247   2.659   9.585   8.240 -0.5484  1.4090 -2.1011
  365MOL0     H49248   2.635   9.751   8.264 -0.5342 -0.4407  0.6983
  365MOL0     H49249   2.755   9.552   8.466  1.3122  1.1924  1.1898
  365MOL0     H49250   2.733   9.717   8.508 -0.6451  1.1910 -2.5324
  365MOL0     H49251   2.507   9.530   8.463 -2.3265  0.2191  0.2794
  365MOL0     H49252   2.478   9.704   8.496  0.4175 -0.2201  3.4100
  365MOL0     H49253   2.481   9.558   8.678  1.5616 -0.4251  0.1454
  365MOL0     H49254   2.666   9.551   8.670  0.8948  1.7476  0.3826
  365MOL0     H49255   3.097  10.106   8.760  0.8116  1.1794  0.9621
  365MOL0     H49256   3.230  10.306   8.783  0.9517  1.9106 -1.5802
  365MOL0     H49257   3.419  10.674   8.637  0.5515  1.6854 -0.4476
  365MOL0     H49258   3.551  10.864   8.716  4.1659  0.7362  0.9333
  365MOL0     H49259   4.406  10.697   8.510  0.2925  0.4962  1.8893
  365MOL0     H49260   4.452  10.730   8.728 -1.2280 -0.7094  0.1350
  365MOL0     H49261   4.583  10.920   8.979  2.3476  0.9993 -2.7226
  365MOL0     H49262   4.595  11.020   9.220 -0.8542 -0.5981  1.2294
  365MOL0     H49263   4.923  10.893   9.506  0.1174  2.4892  1.1266
  365MOL0     H49264   4.805  10.759   9.530  0.5569 -0.2665  1.3003
  365MOL0     H49265   4.660  10.897   9.668 -0.8368 -0.0370 -2.1867
  365MOL0     H49266   4.776  11.030   9.645 -0.0999 -0.7510 -3.8790
  365MOL0     H49267   4.951  10.875   9.755 -0.0636 -0.0531  0.8132
  365MOL0     H49268   4.813  10.757   9.775  1.0695 -0.5453  2.3430
  365MOL0     H49269   4.866  11.026   9.913  0.6851  1.1658 -4.6158
  365MOL0     H49270   4.708  10.951   9.911 -0.9718 -1.0918 -3.0180
  365MOL0     H49271   4.921  10.688  10.179  2.0841 -2.5515 -2.6660
  365MOL0     H49272   4.902  10.727   9.314  0.7808  2.7011  0.5947
  365MOL0     H49273   5.009  10.618   9.156 -1.0442  0.0155  0.3279
  365MOL0     H49274   4.886  10.532   9.064  2.2194 -0.0660  0.8623
  365MOL0     H49275   4.974  10.679   8.996  2.1458 -4.1142 -1.3781
  366MOL0     O49276   2.662   0.316   8.562  0.2164 -0.4677  0.1676
  366MOL0     C49277   2.629   0.289   8.680  0.1462  0.5196  0.0251
  366MOL0     O49278   2.664   0.168   8.755  1.0305 -0.4816 -0.5848
  366MOL0     C49279   2.738   0.058   8.713  1.1104 -0.8145 -0.0128
  366MOL0     C49280   2.747  -0.034   8.819  0.2927  0.7658 -0.4878
  366MOL0     C49281   2.816  -0.152   8.801 -0.0456  0.7153  0.1465
  366MOL0     C49282   2.871  -0.189   8.680  0.3444  0.6180  0.8113
  366MOL0     O49283   2.939  -0.306   8.657  0.5923 -0.2146 -0.3324
  366MOL0     C49284   2.953  -0.410   8.756 -0.9679 -0.7763  0.0814
  366MOL0     C49285   2.845  -0.513   8.746 -1.0393  0.3038  0.1553
  366MOL0     C49286   2.826  -0.586   8.611 -0.3680  0.9892  0.6179
  366MOL0     C49287   2.949  -0.653   8.574  0.2642  0.0244 -0.9782
  366MOL0     C49288   2.939  -0.710   8.430  0.9630  0.0279  1.1451
  366MOL0     C49289   3.079  -0.701   8.354 -0.2798 -0.5045 -0.9659
  366MOL0     C49290   3.085  -0.762   8.218 -0.1338  0.5676  0.1939
  366MOL0     C49291   3.049  -0.670   8.105  0.3969  0.6367 -0.2755
  366MOL0     N49292   3.167  -0.589   8.071 -0.6410 -0.8529  0.3737
  366MOL0     C49293   3.285  -0.637   8.011  0.6660  0.9062  0.1746
  366MOL0     C49294   3.367  -0.533   7.994  0.4122 -0.6733 -0.7823
  366MOL0     C49295   3.504  -0.536   7.936  0.3893 -0.1624  0.4749
  366MOL0     C49296   3.520  -0.613   7.805 -0.0744  0.2837  0.4649
  366MOL0     C49297   3.665  -0.632   7.762  0.6876  0.4196  0.6263
  366MOL0     C49298   3.768  -0.694   7.862 -0.1660  0.5011 -0.3089
  366MOL0     O49299   3.820  -0.586   7.949 -0.1297 -0.8660  0.1631
  366MOL0     C49300   3.919  -0.496   7.907 -1.5577 -0.7102  0.1047
  366MOL0     C49301   4.026  -0.533   7.808  0.3931 -0.3534 -0.4265
  366MOL0     C49302   4.123  -0.438   7.775  0.7847  0.0245  0.9088
  366MOL0     C49303   4.142  -0.323   7.843 -0.0366 -0.2462  0.1605
  366MOL0     C49304   4.247  -0.224   7.814  0.2159 -0.4559 -0.5164
  366MOL0     O49305   4.241  -0.112   7.891  0.5284 -0.7730  0.1224
  366MOL0     C49306   4.308   0.002   7.856 -0.5364  0.1223 -0.2252
  366MOL0     C49307   4.280   0.068   7.744 -0.1138 -0.5882 -0.1694
  366MOL0     C49308   4.345   0.190   7.693 -0.1357 -0.0578  0.1316
  366MOL0     C49309   4.437   0.246   7.788 -0.2448 -0.1823 -0.1527
  366MOL0     O49310   4.508   0.363   7.758 -0.0180 -0.2498 -0.6980
  366MOL0     C49311   4.556   0.451   7.856 -0.2818  0.5997 -0.6105
  366MOL0     C49312   4.567   0.592   7.798 -0.2430 -0.1202  0.1245
  366MOL0     C49313   4.649   0.595   7.669  0.7053  0.4885 -0.4437
  366MOL0     C49314   4.689   0.743   7.640 -0.2956  0.3718 -0.0294
  366MOL0     C49315   4.799   0.813   7.720  0.5466 -0.5035  0.8205
  366MOL0     C49316   4.800   0.969   7.702 -0.1519  1.0445 -0.2348
  366MOL0     C49317   4.831   1.023   7.840 -0.3179 -0.3392 -0.7811
  366MOL0     C49318   4.830   1.173   7.834 -0.3156  0.8552  0.1564
  366MOL0    Cl49319   4.863   1.236   7.993  0.8176  0.5232 -0.0155
  366MOL0     C49320   4.467   0.182   7.909 -0.4462 -0.0162 -0.5672
  366MOL0     C49321   4.412   0.061   7.941  0.6036  0.4754  0.1824
  366MOL0     O49322   4.328  -0.244   7.724  0.3697  0.2762 -0.1664
  366MOL0     C49323   4.055  -0.298   7.949 -0.0532 -0.4830 -0.7854
  366MOL0     C49324   3.939  -0.376   7.977 -0.0320  0.4124 -0.3800
  366MOL0     N49325   3.307  -0.417   8.050 -0.0743  0.1215  0.2630
  366MOL0     N49326   3.193  -0.453   8.088  0.1655 -0.5167 -0.3190
  366MOL0     C49327   2.851  -0.101   8.570  0.5562  0.8733 -0.3642
  366MOL0     C49328   2.782   0.022   8.583  0.3845 -0.2184  0.2483
  366MOL0     C49329   2.549   0.390   8.763 -0.3824  0.7993 -0.2074
  366MOL0     C49330   2.425   0.357   8.833 -0.7200 -0.2700  0.4124
  366MOL0     C49331   2.351   0.449   8.897  0.1374  1.2088 -0.2273
  366MOL0     C49332   2.385   0.583   8.895  1.0188  0.4427 -0.3292
  366MOL0     O49333   2.308   0.679   8.953  0.3477  0.0741  0.1484
  366MOL0     C49334   2.189   0.638   9.028 -0.6034  0.1778 -0.0790
  366MOL0     C49335   2.170   0.727   9.140 -0.0110 -1.2643 -0.1951
  366MOL0     C49336   2.106   0.866   9.101  0.1123  0.9225  0.4739
  366MOL0     C49337   1.957   0.858   9.052  0.0725 -0.1787 -1.5450
  366MOL0     C49338   1.882   0.952   9.129  0.1459 -0.1209  0.2780
  366MOL0     C49339   1.814   1.028   9.201 -1.0626 -0.1743  0.4580
  366MOL0     C49340   2.506   0.611   8.832  0.3502  0.3505  0.2639
  366MOL0     C49341   2.590   0.520   8.766  0.1719  0.5705 -0.2971
  366MOL0     C49342   2.722   0.570   8.720 -0.0928  0.1138  0.3419
  366MOL0     H49343   2.694  -0.020   8.912 -1.1142  1.9704 -1.4165
  366MOL0     H49344   2.843  -0.211   8.888  1.7885 -2.5198 -2.4254
  366MOL0     H49345   3.053  -0.454   8.748  1.0557  3.4807 -1.1718
  366MOL0     H49346   2.952  -0.363   8.855 -5.9331  3.4130 -1.4785
  366MOL0     H49347   2.748  -0.475   8.778 -0.5347  2.0755 -0.2897
  366MOL0     H49348   2.880  -0.585   8.820  1.8868 -1.0466 -2.3128
  366MOL0     H49349   2.790  -0.522   8.530  0.7030  0.5753 -0.1919
  366MOL0     H49350   2.755  -0.668   8.625  1.0804 -0.7620 -1.6804
  366MOL0     H49351   3.039  -0.593   8.583 -0.4799  0.8741  1.4136
  366MOL0     H49352   2.970  -0.739   8.639  5.5376  0.4182 -1.7433
  366MOL0     H49353   2.898  -0.811   8.434  0.4768  0.2019  0.7535
  366MOL0     H49354   2.864  -0.646   8.382  0.7587  0.8113  2.4698
  366MOL0     H49355   3.120  -0.600   8.350 -0.2087 -0.3137  1.9628
  366MOL0     H49356   3.143  -0.757   8.423 -3.0871 -1.1556  1.3172
  366MOL0     H49357   3.022  -0.851   8.207 -0.0599  0.7846 -2.3517
  366MOL0     H49358   3.187  -0.799   8.209  0.7624  2.2258  2.5316
  366MOL0     H49359   3.020  -0.729   8.017  1.3064  0.6398 -0.5844
  366MOL0     H49360   2.963  -0.614   8.145  0.3351  0.2083  0.1928
  366MOL0     H49361   3.315  -0.741   8.009  0.9934  0.9552 -3.3906
  366MOL0     H49362   3.521  -0.431   7.909 -0.4264 -0.3840 -0.9925
  366MOL0     H49363   3.578  -0.569   8.010  0.7191 -4.4974 -1.4679
  366MOL0     H49364   3.476  -0.709   7.834 -1.7710  0.5836 -0.9472
  366MOL0     H49365   3.471  -0.579   7.714  2.3112  0.3135 -0.8737
  366MOL0     H49366   3.706  -0.542   7.716 -0.6640  0.7124 -0.0764
  366MOL0     H49367   3.661  -0.703   7.679  1.8628 -0.6363  1.4398
  366MOL0     H49368   3.846  -0.751   7.810  0.2694  1.3187 -0.5830
  366MOL0     H49369   3.714  -0.759   7.931  0.4736 -1.4378 -1.5760
  366MOL0     H49370   4.026  -0.626   7.752  2.3563 -0.5395 -0.1624
  366MOL0     H49371   4.196  -0.468   7.700 -0.8148 -0.7255 -0.4224
  366MOL0     H49372   4.197   0.028   7.687 -0.5389 -0.2446  0.2011
  366MOL0     H49373   4.313   0.229   7.597 -0.3661  0.2674  0.3403
  366MOL0     H49374   4.494   0.460   7.946 -1.3621 -0.8431 -1.1846
  366MOL0     H49375   4.657   0.431   7.893 -0.7479  1.1899  1.0775
  366MOL0     H49376   4.469   0.640   7.787 -0.0859  0.2574  0.3665
  366MOL0     H49377   4.627   0.645   7.873 -0.6582  1.6141 -0.7105
  366MOL0     H49378   4.743   0.541   7.678  3.5049  5.0806  1.7594
  366MOL0     H49379   4.586   0.554   7.590 -1.7987  2.2145  0.5103
  366MOL0     H49380   4.603   0.811   7.636  2.1581  3.8745  1.7634
  366MOL0     H49381   4.714   0.743   7.533 -1.4055 -1.2455 -0.3406
  366MOL0     H49382   4.896   0.778   7.684  0.2810 -1.3762  0.9323
  366MOL0     H49383   4.784   0.780   7.824  1.5030 -2.0591  0.4863
  366MOL0     H49384   4.886   0.989   7.638 -0.5675  2.6034 -0.3556
  366MOL0     H49385   4.707   1.012   7.661 -0.1375  0.4358 -0.9216
  366MOL0     H49386   4.934   1.012   7.873  0.8090  1.9706 -3.0987
  366MOL0     H49387   4.754   0.984   7.907 -1.0530  3.1600  0.6742
  366MOL0     H49388   4.915   1.200   7.771 -0.4969 -1.8783 -1.3911
  366MOL0     H49389   4.732   1.212   7.804 -2.8711 -4.2117  0.8662
  366MOL0     H49390   4.543   0.214   7.980  0.0866  1.5820 -1.8053
  366MOL0     H49391   4.440  -0.010   8.018  0.7895 -0.5189 -0.7741
  366MOL0     H49392   4.074  -0.217   8.018  1.3596 -1.8625  0.5312
  366MOL0     H49393   3.868  -0.351   8.055  1.3046  1.3882  0.5789
  366MOL0     H49394   2.864  -0.149   8.474 -5.0561 -0.7247 -0.6448
  366MOL0     H49395   2.746   0.096   8.512 -3.0946  0.4976  2.5037
  366MOL0     H49396   2.392   0.256   8.816 -0.7972 -0.0637 -0.7915
  366MOL0     H49397   2.263   0.406   8.944  0.6569 -2.0102 -1.9538
  366MOL0     H49398   2.204   0.538   9.071  2.2243  1.1894  1.5567
  366MOL0     H49399   2.091   0.642   8.980 -0.4760 -0.1889 -0.3817
  366MOL0     H49400   2.263   0.750   9.194 -0.3143  3.9675 -1.3920
  366MOL0     H49401   2.100   0.696   9.219 -0.9196  0.9472 -0.0536
  366MOL0     H49402   2.162   0.918   9.023 -0.6826 -1.2989 -1.7206
  366MOL0     H49403   2.121   0.922   9.194  4.2761 -0.5242  0.8790
  366MOL0     H49404   1.952   0.887   8.947 -1.0798  3.8246 -0.5485
  366MOL0     H49405   1.922   0.755   9.065  3.0141 -1.5185 -3.1799
  366MOL0     H49406   1.749   1.094   9.253  0.5798 -0.7950  3.5490
  366MOL0     H49407   2.541   0.712   8.849 -0.4256  0.6516  0.1345
  366MOL0     H49408   2.799   0.493   8.727 -0.8149 -0.8816 -1.8110
  366MOL0     H49409   2.710   0.607   8.617  2.2555  3.1401  1.0059
  366MOL0     H49410   2.760   0.660   8.769  1.4870  0.1017 -0.8086
  367MOL0     O49411   9.916   8.118   3.367  0.3308 -0.1275 -0.0452
  367MOL0     C49412   9.999   8.193   3.306  0.9779 -0.3706  0.9346
  367MOL0     O49413  10.125   8.204   3.340 -0.0200 -0.7137  0.2781
  367MOL0     C49414  10.181   8.097   3.403 -0.3125  0.8627  1.1779
  367MOL0     C49415  10.222   7.989   3.320 -0.5524 -0.1687  0.1409
  367MOL0     C49416  10.262   7.858   3.363  0.8365  0.1859  0.2007
  367MOL0     C49417  10.277   7.837   3.497 -0.6742 -0.7174 -0.0558
  367MOL0     O49418  10.345   7.720   3.523  0.7522  0.1468 -0.5825
  367MOL0     C49419  10.421   7.717   3.651 -0.0079 -0.3512 -0.3241
  367MOL0     C49420  10.506   7.578   3.673 -1.0308 -0.8289  0.3867
  367MOL0     C49421  10.608   7.565   3.559  0.3377  0.7729  0.1879
  367MOL0     C49422  10.667   7.424   3.546 -0.8989  1.0436 -0.0139
  367MOL0     C49423  10.805   7.420   3.483 -0.2705  0.5376 -0.1532
  367MOL0     C49424  10.928   7.491   3.546 -0.1691 -1.1354 -0.4191
  367MOL0     C49425  11.066   7.460   3.476  0.2620  0.3825 -0.0745
  367MOL0     C49426  11.054   7.471   3.320 -0.5126 -0.9899  0.2353
  367MOL0     N49427  11.023   7.611   3.265  0.0739  0.2104  0.4912
  367MOL0     C49428  11.083   7.669   3.153 -0.6388 -0.2016  0.4621
  367MOL0     C49429  11.016   7.789   3.129  0.1433 -0.7753 -0.0195
  367MOL0     C49430  11.056   7.889   3.019  0.4341  0.2565 -0.2451
  367MOL0     C49431  10.977   8.022   3.028  0.0259  0.7069 -0.4208
  367MOL0     C49432  11.029   8.129   2.933 -0.2998 -0.9677  0.1741
  367MOL0     C49433  10.942   8.246   2.934  1.9496 -0.0440 -1.0027
  367MOL0     O49434  10.911   8.284   3.074  0.0875 -0.0241  0.6815
  367MOL0     C49435  10.989   8.377   3.140  0.0933 -0.0263  0.0751
  367MOL0     C49436  10.948   8.421   3.268 -0.6714  0.2800 -0.4355
  367MOL0     C49437  11.019   8.529   3.335  0.1829  0.2091  0.5168
  367MOL0     C49438  11.124   8.604   3.276  0.7326  0.4810 -1.2711
  367MOL0     C49439  11.195   8.708   3.344  0.7017 -0.0316  0.7818
  367MOL0     O49440  11.281   8.785   3.259  0.3503 -0.1460 -0.4855
  367MOL0     C49441  11.350   8.895   3.309 -0.8014  0.0102 -0.1267
  367MOL0     C49442  11.472   8.934   3.264 -0.7226 -0.0639  0.6256
  367MOL0     C49443  11.542   9.050   3.303 -0.4796  0.0766 -0.4983
  367MOL0     C49444  11.487   9.140   3.393 -0.4635  0.3418  0.7220
  367MOL0     O49445  11.570   9.244   3.415 -0.5236  0.3936  0.3833
  367MOL0     C49446  11.559   9.341   3.530 -0.9996 -0.1975 -0.0486
  367MOL0     C49447  11.611   9.262   3.655  0.1192  0.0455  0.5548
  367MOL0     C49448  11.615   9.341   3.782  0.8285 -0.2522  0.1311
  367MOL0     C49449  11.720   9.281   3.882 -0.3165  0.0952 -0.2835
  367MOL0     C49450  11.727   9.355   4.022 -0.5934 -0.8029 -0.5326
  367MOL0     C49451  11.629   9.302   4.123  0.5587  0.2178 -0.2082
  367MOL0     C49452  11.657   9.363   4.259  0.0796 -1.0166  0.0175
  367MOL0     C49453  11.595   9.280   4.372 -0.1487  0.1718  0.0631
  367MOL0    Cl49454  11.413   9.284   4.362  0.0289 -0.2426 -0.1112
  367MOL0     C49455  11.359   9.113   3.450 -0.3556 -0.5023  0.5724
  367MOL0     C49456  11.308   8.982   3.413  0.7358  0.4288  1.2230
  367MOL0     O49457  11.174   8.720   3.464 -0.1505 -1.2067  0.6738
  367MOL0     C49458  11.162   8.560   3.146  0.7835 -0.1961  1.0738
  367MOL0     C49459  11.095   8.462   3.076  0.0910  1.0384 -0.1614
  367MOL0     N49460  10.930   7.803   3.237 -0.2326 -0.3087  0.2666
  367MOL0     N49461  10.940   7.704   3.320 -0.3275  0.4797  1.1478
  367MOL0     C49462  10.237   7.942   3.585 -0.4455  0.7218 -0.4982
  367MOL0     C49463  10.184   8.068   3.540  0.4651 -0.8337  0.1269
  367MOL0     C49464   9.938   8.278   3.202 -0.4633  1.0654  0.2423
  367MOL0     C49465  10.022   8.307   3.091  0.4070 -0.5885  0.7426
  367MOL0     C49466   9.976   8.391   2.989  0.3481 -0.1293  0.0525
  367MOL0     C49467   9.843   8.438   2.987  0.0484  0.4374 -0.3777
  367MOL0     O49468   9.804   8.522   2.886  0.4118 -0.5312  0.1641
  367MOL0     C49469   9.682   8.600   2.913  0.5320 -0.3151  1.0747
  367MOL0     C49470   9.568   8.526   2.841 -0.0834 -0.2384  0.5014
  367MOL0     C49471   9.438   8.606   2.821 -0.0056 -0.4517  0.9041
  367MOL0     C49472   9.335   8.598   2.930  0.7654  0.0242  0.1268
  367MOL0     C49473   9.400   8.583   3.056 -1.6261 -0.3979  0.2149
  367MOL0     C49474   9.453   8.595   3.169  0.1354  0.4475  0.8339
  367MOL0     C49475   9.759   8.393   3.086  0.4829 -0.3069  0.1963
  367MOL0     C49476   9.800   8.312   3.192 -0.1969  0.0911 -0.4146
  367MOL0     C49477   9.707   8.299   3.310 -0.3128 -0.1122 -0.1449
  367MOL0     H49478  10.217   8.001   3.212  1.1858  0.8844  0.1276
  367MOL0     H49479  10.296   7.778   3.297  3.0587 -0.9153  2.4974
  367MOL0     H49480  10.492   7.800   3.641  0.7513 -1.2531 -3.2257
  367MOL0     H49481  10.353   7.717   3.737 -3.1691  0.1176 -2.6924
  367MOL0     H49482  10.438   7.493   3.666 -2.1693  0.2060 -2.6733
  367MOL0     H49483  10.556   7.575   3.770  3.1241 -0.2163 -1.5274
  367MOL0     H49484  10.680   7.639   3.594 -0.0206  0.0824  2.5295
  367MOL0     H49485  10.570   7.585   3.458 -0.6587  0.3974  0.4757
  367MOL0     H49486  10.676   7.405   3.654  1.3262 -2.2460 -0.6285
  367MOL0     H49487  10.593   7.368   3.489 -0.0319  1.5185 -1.6436
  367MOL0     H49488  10.831   7.315   3.463 -1.2743  0.2507 -0.0272
  367MOL0     H49489  10.786   7.454   3.381  1.8200 -0.3566 -0.9044
  367MOL0     H49490  10.907   7.597   3.529 -0.5282 -0.6530  2.4827
  367MOL0     H49491  10.938   7.493   3.655  2.3020 -0.7888 -0.6030
  367MOL0     H49492  11.088   7.357   3.504 -2.6663 -0.3539 -0.2216
  367MOL0     H49493  11.138   7.533   3.516  1.6473 -2.0713  2.2381
  367MOL0     H49494  11.155   7.453   3.283 -1.4586 -2.9562 -1.5498
  367MOL0     H49495  10.977   7.405   3.278 -1.4628 -0.1305  0.5749
  367MOL0     H49496  11.166   7.622   3.101 -1.9534  0.5339 -2.5076
  367MOL0     H49497  11.160   7.919   3.011  0.7936  0.2008  2.8472
  367MOL0     H49498  11.025   7.832   2.931 -3.5029  1.4005  0.1872
  367MOL0     H49499  10.870   8.006   3.007  0.0780  1.8671 -1.7392
  367MOL0     H49500  10.987   8.052   3.132 -3.0754 -0.7832  0.4499
  367MOL0     H49501  11.042   8.085   2.834  1.8612 -1.2514  0.5193
  367MOL0     H49502  11.126   8.163   2.972 -0.9876  3.5950 -1.5093
  367MOL0     H49503  10.845   8.219   2.889  1.3504  1.7798 -0.8887
  367MOL0     H49504  10.972   8.323   2.862 -2.4386  0.0567 -3.0684
  367MOL0     H49505  10.864   8.377   3.323 -0.7991 -0.1581 -0.9750
  367MOL0     H49506  10.983   8.562   3.432  1.2341 -1.9637  1.7120
  367MOL0     H49507  11.520   8.867   3.193 -1.9725 -2.0088  1.5288
  367MOL0     H49508  11.638   9.081   3.262  0.4055 -0.4164  1.1140
  367MOL0     H49509  11.630   9.421   3.509 -0.6397 -0.8801 -1.6576
  367MOL0     H49510  11.458   9.382   3.527 -1.4295 -1.1749  0.4663
  367MOL0     H49511  11.560   9.168   3.681  2.3099 -1.5514 -0.5503
  367MOL0     H49512  11.713   9.233   3.627  0.4373  0.0250  1.6858
  367MOL0     H49513  11.633   9.447   3.761  2.1848  0.1296  2.7774
  367MOL0     H49514  11.514   9.337   3.822 -0.2450  2.5041 -2.0311
  367MOL0     H49515  11.819   9.286   3.835  0.4568  0.1720  1.3002
  367MOL0     H49516  11.719   9.173   3.898  0.3967  0.2916  1.2471
  367MOL0     H49517  11.718   9.463   4.013  0.2705 -0.5483  1.2463
  367MOL0     H49518  11.826   9.345   4.067 -0.2902  1.8819 -0.4435
  367MOL0     H49519  11.528   9.331   4.091  0.9858  1.7748 -0.2113
  367MOL0     H49520  11.625   9.193   4.120 -0.2638  0.2530 -1.8461
  367MOL0     H49521  11.642   9.472   4.267 -0.0200 -1.1512  2.3859
  367MOL0     H49522  11.765   9.358   4.272  0.2369  1.7587  0.3930
  367MOL0     H49523  11.632   9.178   4.353 -0.5640  0.4803 -2.8793
  367MOL0     H49524  11.640   9.314   4.465 -1.1265  0.6358  0.3829
  367MOL0     H49525  11.326   9.180   3.528 -1.0664 -0.6551  0.4144
  367MOL0     H49526  11.214   8.966   3.464 -0.0945  0.3592 -0.2705
  367MOL0     H49527  11.235   8.624   3.099 -1.3669  0.2702 -1.9308
  367MOL0     H49528  11.145   8.450   2.980 -1.7661 -0.4501 -1.0126
  367MOL0     H49529  10.264   7.939   3.690  0.9826 -0.1168 -0.8583
  367MOL0     H49530  10.144   8.144   3.606 -4.0159 -1.7677 -1.1912
  367MOL0     H49531  10.123   8.269   3.081  0.1670 -1.1323  0.3330
  367MOL0     H49532  10.030   8.417   2.899 -1.3056  2.1396 -0.3771
  367MOL0     H49533   9.689   8.699   2.867  0.1795 -0.9224 -0.3803
  367MOL0     H49534   9.650   8.620   3.015 -1.8486 -3.8782  1.2235
  367MOL0     H49535   9.545   8.434   2.896 -0.3309  0.9102  2.3782
  367MOL0     H49536   9.595   8.494   2.740 -1.4423  0.8583 -0.2482
  367MOL0     H49537   9.387   8.577   2.729 -2.5638  0.4474  1.9643
  367MOL0     H49538   9.465   8.712   2.814  1.5800 -0.8208  1.0269
  367MOL0     H49539   9.297   8.701   2.931  0.9977  0.1090  0.8424
  367MOL0     H49540   9.260   8.523   2.903 -2.2896  3.3474 -1.4899
  367MOL0     H49541   9.499   8.600   3.266  1.4574  1.5043  0.1772
  367MOL0     H49542   9.654   8.416   3.072  1.0044  1.3337 -1.3744
  367MOL0     H49543   9.695   8.191   3.321 -0.6151 -0.0422  0.2109
  367MOL0     H49544   9.755   8.342   3.399 -3.0890  1.3579  0.7533
  367MOL0     H49545   9.605   8.335   3.299 -1.9999 -4.3380 -0.1544
  368MOL0     O49546   5.386   2.892   7.844 -0.1706  0.4474 -0.9861
  368MOL0     C49547   5.470   2.960   7.898  0.1061 -0.1910 -0.3743
  368MOL0     O49548   5.491   2.966   8.033 -0.5767 -0.3784 -0.0029
  368MOL0     C49549   5.400   2.901   8.112 -0.3705 -0.0316  0.5625
  368MOL0     C49550   5.405   2.762   8.128 -0.7061 -0.2268  0.5238
  368MOL0     C49551   5.317   2.704   8.219  0.8146  0.3865 -0.0368
  368MOL0     C49552   5.215   2.779   8.289  0.6121 -0.1404  1.3068
  368MOL0     O49553   5.122   2.698   8.349  0.4476  0.1906 -0.4000
  368MOL0     C49554   4.989   2.716   8.287 -0.0572  0.0233  1.0034
  368MOL0     C49555   4.988   2.660   8.135  0.4799  1.0207 -0.5719
  368MOL0     C49556   4.850   2.626   8.087  0.7891  0.0181 -0.8406
  368MOL0     C49557   4.841   2.509   7.993 -0.5775 -0.6440 -0.8966
  368MOL0     C49558   4.697   2.456   7.973  0.0946  0.5934  0.8434
  368MOL0     C49559   4.670   2.334   7.876  0.0913  0.4516  0.1124
  368MOL0     C49560   4.769   2.319   7.759 -0.2143  0.5254  0.5211
  368MOL0     C49561   4.725   2.201   7.675 -0.5209 -1.2349  0.9578
  368MOL0     N49562   4.744   2.073   7.746  0.0645  0.2154  0.2850
  368MOL0     C49563   4.860   2.004   7.763  0.5739 -0.0724  0.4978
  368MOL0     C49564   4.820   1.879   7.806  0.8562  0.0046 -0.2949
  368MOL0     C49565   4.911   1.772   7.855  0.2686 -0.1450  0.6116
  368MOL0     C49566   4.900   1.641   7.779  0.3315  0.5636 -0.4494
  368MOL0     C49567   4.999   1.528   7.818 -0.2082  0.2448  0.6865
  368MOL0     C49568   5.146   1.562   7.788  0.1058  0.4516  0.0914
  368MOL0     O49569   5.227   1.462   7.849  0.2987  0.1208 -0.7541
  368MOL0     C49570   5.246   1.338   7.782 -0.2437  1.1698 -0.6618
  368MOL0     C49571   5.212   1.289   7.654 -0.2280 -0.2866 -0.4067
  368MOL0     C49572   5.248   1.161   7.610 -0.0445 -0.3843  0.2510
  368MOL0     C49573   5.329   1.081   7.690  0.7851  0.2709 -0.4026
  368MOL0     C49574   5.350   0.940   7.644 -0.7784 -0.4844  0.5031
  368MOL0     O49575   5.371   0.852   7.749 -0.4580  0.3286 -0.2335
  368MOL0     C49576   5.343   0.720   7.750  0.3279 -0.5183  0.0302
  368MOL0     C49577   5.291   0.645   7.649 -0.3005  0.4816  1.3791
  368MOL0     C49578   5.254   0.511   7.662 -0.1483 -0.1925 -0.7546
  368MOL0     C49579   5.276   0.453   7.792 -0.2632  0.3864  0.0138
  368MOL0     O49580   5.272   0.328   7.819  1.0991 -0.4150  0.3803
  368MOL0     C49581   5.338   0.235   7.732 -1.5219 -0.1497 -0.4926
  368MOL0     C49582   5.333   0.103   7.798 -0.3189 -0.2396 -1.5743
  368MOL0     C49583   5.425   0.090   7.926  0.0360 -0.3129  0.7951
  368MOL0     C49584   5.438  -0.049   7.978 -0.0662  0.7391 -0.1940
  368MOL0     C49585   5.348  -0.085   8.094  0.6900  0.2771 -0.5260
  368MOL0     C49586   5.209  -0.121   8.035 -0.5089  0.0520 -0.5592
  368MOL0     C49587   5.107  -0.182   8.140  0.2012  0.7577 -1.0350
  368MOL0     C49588   5.167  -0.267   8.266 -0.6148 -1.2018  0.1956
  368MOL0    Cl49589   5.038  -0.331   8.369  0.2716  0.0675  0.7039
  368MOL0     C49590   5.320   0.531   7.891 -0.4401 -0.5527  0.3517
  368MOL0     C49591   5.367   0.656   7.870  0.3536  0.9277  0.2082
  368MOL0     O49592   5.376   0.916   7.523  0.4124  0.0099 -0.2257
  368MOL0     C49593   5.367   1.117   7.824  0.0487  0.3486 -0.8158
  368MOL0     C49594   5.327   1.248   7.868  0.7371 -0.9607  0.3232
  368MOL0     N49595   4.683   1.873   7.786  0.6628  0.4679  1.1607
  368MOL0     N49596   4.639   1.987   7.766  0.1850 -0.0628  0.3772
  368MOL0     C49597   5.212   2.912   8.273 -0.0696 -0.6061  0.7532
  368MOL0     C49598   5.314   2.973   8.197  0.0423  0.5012 -0.7082
  368MOL0     C49599   5.557   3.043   7.812  0.6648 -0.0185  0.5694
  368MOL0     C49600   5.673   3.097   7.878  0.2459 -0.2562 -0.2465
  368MOL0     C49601   5.767   3.173   7.805 -0.3602  0.2316 -0.5524
  368MOL0     C49602   5.749   3.192   7.663  0.5426 -0.4856 -0.5166
  368MOL0     O49603   5.845   3.267   7.597  0.1327  0.4673  0.0331
  368MOL0     C49604   5.822   3.399   7.617 -0.3542  0.7379  0.1867
  368MOL0     C49605   5.946   3.459   7.677 -0.6587 -0.8010  0.2682
  368MOL0     C49606   6.059   3.461   7.556 -0.1995  0.3841 -0.1209
  368MOL0     C49607   6.174   3.557   7.558 -0.4217 -0.6417 -0.5944
  368MOL0     C49608   6.138   3.709   7.550 -0.2647  0.4338 -0.7117
  368MOL0     C49609   6.101   3.823   7.541  0.3425  0.2859 -0.0625
  368MOL0     C49610   5.640   3.142   7.597  0.3361  1.3414 -0.4637
  368MOL0     C49611   5.549   3.061   7.674  0.4207 -0.2782  0.4619
  368MOL0     C49612   5.444   2.993   7.590 -0.2831 -0.1183 -0.6939
  368MOL0     H49613   5.474   2.700   8.072 -0.4685  0.5979 -0.1144
  368MOL0     H49614   5.321   2.595   8.223  2.5062  0.1936 -3.4907
  368MOL0     H49615   4.913   2.667   8.348 -3.1377  1.6513 -1.2785
  368MOL0     H49616   4.947   2.814   8.308 -1.6035 -1.1981  4.5522
  368MOL0     H49617   5.031   2.559   8.136  0.3046  0.7364 -5.0121
  368MOL0     H49618   5.046   2.715   8.062  0.3607 -0.8020 -2.1134
  368MOL0     H49619   4.802   2.710   8.034 -1.1041  0.2437  1.0988
  368MOL0     H49620   4.792   2.601   8.176  1.3398  2.7132  0.3801
  368MOL0     H49621   4.897   2.530   7.901  3.5019  0.2129  1.5445
  368MOL0     H49622   4.891   2.428   8.047 -0.1179  0.7837  0.8880
  368MOL0     H49623   4.654   2.428   8.069 -2.3529  1.7463  0.1640
  368MOL0     H49624   4.638   2.543   7.941  0.1802 -0.5841 -2.9416
  368MOL0     H49625   4.662   2.239   7.930 -0.2032  0.5174  0.1885
  368MOL0     H49626   4.567   2.353   7.844  1.2033  2.8722 -2.3603
  368MOL0     H49627   4.872   2.311   7.794  0.7485 -1.3204 -2.4332
  368MOL0     H49628   4.765   2.408   7.696  2.6513 -0.6311 -1.4869
  368MOL0     H49629   4.618   2.211   7.657 -0.2853 -0.8019 -0.3288
  368MOL0     H49630   4.772   2.206   7.577 -0.0432  1.5141  1.2320
  368MOL0     H49631   4.958   2.047   7.750  0.5049 -0.1990 -0.5122
  368MOL0     H49632   5.012   1.805   7.829 -0.3833 -0.1477 -2.2486
  368MOL0     H49633   4.896   1.759   7.962  1.8096  1.4019  1.0572
  368MOL0     H49634   4.795   1.610   7.776 -0.2855  2.4696 -4.3068
  368MOL0     H49635   4.914   1.674   7.676 -1.9102  0.0161 -0.9900
  368MOL0     H49636   4.972   1.433   7.771 -0.5646  0.8540 -0.3574
  368MOL0     H49637   4.993   1.517   7.927  2.5672  0.4129  0.9242
  368MOL0     H49638   5.160   1.658   7.838 -0.4325 -1.2825  3.9551
  368MOL0     H49639   5.178   1.575   7.684  4.0541  0.9100  1.1879
  368MOL0     H49640   5.159   1.363   7.594 -0.0492 -0.1431 -0.3896
  368MOL0     H49641   5.228   1.132   7.507  0.0483 -1.3524  0.5009
  368MOL0     H49642   5.261   0.691   7.555  0.1029 -1.0240  0.4739
  368MOL0     H49643   5.210   0.443   7.589 -1.8879 -1.8885  1.7095
  368MOL0     H49644   5.292   0.249   7.634  1.5349  1.8568 -1.7930
  368MOL0     H49645   5.444   0.254   7.715 -1.1099 -0.1081  1.8217
  368MOL0     H49646   5.232   0.065   7.811 -0.3997  0.6008  0.5453
  368MOL0     H49647   5.384   0.046   7.719  2.9988 -0.4496  0.5071
  368MOL0     H49648   5.524   0.117   7.890 -0.4699 -1.2535 -1.4049
  368MOL0     H49649   5.408   0.162   8.007  2.3994  1.7506 -0.4125
  368MOL0     H49650   5.545  -0.053   7.999  0.2305  2.7482 -1.1353
  368MOL0     H49651   5.429  -0.120   7.895  0.1506  0.4936 -0.0107
  368MOL0     H49652   5.330  -0.007   8.169 -3.6082 -1.1799  0.2877
  368MOL0     H49653   5.395  -0.172   8.139  0.4539  1.0524  1.3105
  368MOL0     H49654   5.172  -0.022   8.007  1.9649  1.0017 -0.7239
  368MOL0     H49655   5.221  -0.181   7.945 -0.0969  0.8888 -1.0699
  368MOL0     H49656   5.062  -0.263   8.082 -1.0985  0.5496  0.1849
  368MOL0     H49657   5.043  -0.104   8.183  0.2448 -0.1321  0.7650
  368MOL0     H49658   5.237  -0.346   8.235  1.7554  0.8611 -0.0300
  368MOL0     H49659   5.221  -0.194   8.326  0.2313 -1.5303 -0.1355
  368MOL0     H49660   5.332   0.484   7.988  0.4411 -1.4142 -0.1652
  368MOL0     H49661   5.404   0.718   7.951 -0.4549 -0.5151  1.7132
  368MOL0     H49662   5.427   1.056   7.891 -1.1243  0.1528  0.0971
  368MOL0     H49663   5.357   1.296   7.960  2.4219  2.8141 -1.9544
  368MOL0     H49664   5.130   2.972   8.312 -0.5675 -1.0086  0.3477
  368MOL0     H49665   5.319   3.081   8.188  1.4430  0.4064 -1.3750
  368MOL0     H49666   5.688   3.090   7.985 -1.8926  1.7026  0.2562
  368MOL0     H49667   5.844   3.225   7.861 -1.0523  2.6935 -1.7535
  368MOL0     H49668   5.739   3.414   7.687 -0.8778 -1.4802  0.0905
  368MOL0     H49669   5.793   3.447   7.523  0.0743  0.7336  0.0523
  368MOL0     H49670   5.979   3.408   7.767  0.3119  4.1319  3.0849
  368MOL0     H49671   5.924   3.564   7.699  3.1910  0.2889 -0.3569
  368MOL0     H49672   6.005   3.465   7.461 -2.6264 -2.2298  1.0153
  368MOL0     H49673   6.100   3.360   7.552 -2.6563 -0.7523  0.8288
  368MOL0     H49674   6.221   3.540   7.656 -0.8295 -1.8115 -0.5829
  368MOL0     H49675   6.247   3.532   7.480 -0.5187  2.3606 -1.7750
  368MOL0     H49676   6.078   3.928   7.534  0.7835  0.2455 -4.2657
  368MOL0     H49677   5.643   3.155   7.490  1.3915 -0.3032 -0.6639
  368MOL0     H49678   5.490   2.894   7.579 -1.8592 -1.1502  1.3567
  368MOL0     H49679   5.346   2.988   7.639 -0.2182 -0.6918 -0.6106
  368MOL0     H49680   5.414   3.029   7.491 -0.6213  0.6046 -0.3376
  369MOL0     O49681   2.310   9.248   6.593 -0.5497 -0.3367  0.2524
  369MOL0     C49682   2.434   9.269   6.568  0.4697  0.2980  0.8628
  369MOL0     O49683   2.531   9.287   6.667 -0.2218 -0.4465 -0.0933
  369MOL0     C49684   2.506   9.266   6.794 -0.5361  0.5922  0.1590
  369MOL0     C49685   2.471   9.150   6.856 -0.6404 -0.3802 -0.6359
  369MOL0     C49686   2.411   9.153   6.989  0.0412  0.2479  0.2493
  369MOL0     C49687   2.397   9.276   7.054 -0.8737 -0.1149 -0.4730
  369MOL0     O49688   2.348   9.282   7.180 -0.7353 -0.7789 -0.7548
  369MOL0     C49689   2.205   9.265   7.181  0.4927 -0.2010 -0.2580
  369MOL0     C49690   2.163   9.317   7.312 -0.0906  0.0413  0.8849
  369MOL0     C49691   2.005   9.306   7.335 -0.0514 -0.1182 -0.3340
  369MOL0     C49692   1.921   9.417   7.265 -0.4382 -0.5938 -0.7107
  369MOL0     C49693   1.788   9.464   7.340 -0.8195 -0.1821  0.1586
  369MOL0     C49694   1.701   9.361   7.406  0.0928  0.4189  0.2705
  369MOL0     C49695   1.579   9.325   7.317  0.3847 -0.2246 -0.3249
  369MOL0     C49696   1.612   9.293   7.162 -0.1143 -0.2584 -1.3288
  369MOL0     N49697   1.492   9.318   7.075 -0.5792 -0.2264 -0.4260
  369MOL0     C49698   1.491   9.413   6.976 -0.1602 -0.6129  2.0661
  369MOL0     C49699   1.370   9.382   6.914  0.3720  0.0723 -1.0347
  369MOL0     C49700   1.312   9.468   6.804  0.5024  0.6389  0.5942
  369MOL0     C49701   1.166   9.429   6.778  0.7326  0.9541 -0.9267
  369MOL0     C49702   1.075   9.460   6.900 -0.0065 -0.4342 -0.0334
  369MOL0     C49703   0.932   9.471   6.871 -0.1236  0.2787 -0.4957
  369MOL0     O49704   0.859   9.492   7.000 -0.6624 -0.3126  0.6861
  369MOL0     C49705   0.768   9.394   7.027 -0.3303  0.0960  0.3446
  369MOL0     C49706   0.690   9.321   6.936  0.1210 -0.1158  0.0771
  369MOL0     C49707   0.601   9.229   6.980 -0.3191  0.1724 -1.0156
  369MOL0     C49708   0.586   9.205   7.123  0.1042  0.1720 -1.0020
  369MOL0     C49709   0.504   9.084   7.166  0.5439  0.6953  0.7584
  369MOL0     O49710   0.503   8.978   7.080 -0.8184 -0.3094  0.6241
  369MOL0     C49711   0.422   8.872   7.096  0.0752 -0.1000 -0.2197
  369MOL0     C49712   0.316   8.839   7.005 -0.0146  0.3148  0.3646
  369MOL0     C49713   0.229   8.725   7.030  1.1513  1.0343  0.6562
  369MOL0     C49714   0.248   8.638   7.133 -0.6225  0.2138 -1.5213
  369MOL0     O49715   0.176   8.520   7.148  0.2348 -0.3157 -0.2288
  369MOL0     C49716   0.243   8.408   7.210  0.6916 -0.4174  0.3096
  369MOL0     C49717   0.169   8.289   7.150 -0.2860  0.8224 -0.3539
  369MOL0     C49718   0.254   8.164   7.170  0.4888  0.5092  0.2484
  369MOL0     C49719   0.188   8.028   7.142 -0.2942 -0.3562 -0.2487
  369MOL0     C49720   0.058   8.003   7.230 -0.5609  0.0060  0.5545
  369MOL0     C49721   0.102   8.007   7.384 -0.1263 -0.5633 -0.5152
  369MOL0     C49722   0.023   7.902   7.472  0.5169 -0.0113 -0.3584
  369MOL0     C49723   0.051   7.890   7.618 -0.2087  0.4769 -0.2885
  369MOL0    Cl49724   0.078   8.045   7.695 -0.0558  0.2321 -0.0272
  369MOL0     C49725   0.342   8.675   7.231 -0.2339  0.4735  0.2910
  369MOL0     C49726   0.435   8.791   7.213 -0.0017 -0.3434  0.8423
  369MOL0     O49727   0.426   9.103   7.253  0.0717  0.2254 -0.3150
  369MOL0     C49728   0.651   9.279   7.221 -1.1306 -0.8715 -0.0411
  369MOL0     C49729   0.736   9.377   7.163 -0.1706  0.7948 -0.9669
  369MOL0     N49730   1.333   9.264   6.965  0.5475 -0.6909  1.0280
  369MOL0     N49731   1.390   9.228   7.066  0.1948 -0.0943  0.4513
  369MOL0     C49732   2.447   9.386   6.998  0.0811 -0.1900  0.7276
  369MOL0     C49733   2.496   9.381   6.865  0.7371 -0.2503 -0.3057
  369MOL0     C49734   2.475   9.278   6.434  0.7019  0.5393  0.4577
  369MOL0     C49735   2.560   9.385   6.394  0.8451 -0.2442 -0.5049
  369MOL0     C49736   2.599   9.408   6.264 -0.7128 -0.0698 -0.0577
  369MOL0     C49737   2.531   9.337   6.163 -0.7107  0.7843 -0.7658
  369MOL0     O49738   2.561   9.368   6.031  0.6405  0.2859  0.2086
  369MOL0     C49739   2.465   9.360   5.923 -0.3267 -0.5347  0.5847
  369MOL0     C49740   2.393   9.495   5.903 -0.2370  0.3098  0.6667
  369MOL0     C49741   2.361   9.513   5.752 -0.0336 -0.9696  0.4695
  369MOL0     C49742   2.294   9.649   5.747  0.1439 -0.8628 -0.7876
  369MOL0     C49743   2.398   9.746   5.761  0.1223 -0.0009  0.3844
  369MOL0     C49744   2.471   9.845   5.745 -0.0680  0.5133  0.2079
  369MOL0     C49745   2.462   9.221   6.202  1.7169  0.4034 -0.2974
  369MOL0     C49746   2.425   9.188   6.337 -0.2737 -0.1071  0.3486
  369MOL0     C49747   2.350   9.058   6.359  0.0000  0.9853  0.5174
  369MOL0     H49748   2.481   9.054   6.806  1.0628 -1.5004  1.6305
  369MOL0     H49749   2.358   9.070   7.035 -3.4348  1.9632 -0.3410
  369MOL0     H49750   2.165   9.323   7.097  0.8334  1.1960  0.5113
  369MOL0     H49751   2.176   9.161   7.166  0.2434 -0.2793  0.7524
  369MOL0     H49752   2.201   9.419   7.318  0.1723  0.0624 -0.8590
  369MOL0     H49753   2.220   9.261   7.386 -0.8434 -0.3110  1.2094
  369MOL0     H49754   1.997   9.320   7.443  1.8394 -3.0708  0.3110
  369MOL0     H49755   1.970   9.205   7.311 -2.4264 -0.6677  4.2223
  369MOL0     H49756   1.966   9.514   7.241 -2.0710  0.0653 -1.2642
  369MOL0     H49757   1.889   9.376   7.169  1.2998  0.1741 -1.6619
  369MOL0     H49758   1.815   9.547   7.406  3.2881  0.7372 -2.2816
  369MOL0     H49759   1.738   9.522   7.261  2.1804  1.2653 -0.8400
  369MOL0     H49760   1.766   9.278   7.434  0.0839  1.5910  4.3812
  369MOL0     H49761   1.668   9.396   7.504 -2.6147 -4.9495  1.6310
  369MOL0     H49762   1.518   9.415   7.307 -1.1070 -1.4498 -5.1810
  369MOL0     H49763   1.515   9.252   7.366 -0.5801  0.8461  0.0682
  369MOL0     H49764   1.688   9.358   7.119  0.2689 -0.9070 -1.6474
  369MOL0     H49765   1.637   9.187   7.167  2.0538  0.2419 -0.9100
  369MOL0     H49766   1.557   9.498   6.963  0.1499 -1.2723 -2.6432
  369MOL0     H49767   1.299   9.575   6.827 -2.0286  0.0568  2.3070
  369MOL0     H49768   1.375   9.462   6.715  0.4445  2.9163  0.3263
  369MOL0     H49769   1.121   9.488   6.697  1.9295  2.8697 -0.2514
  369MOL0     H49770   1.145   9.328   6.741 -3.1739  1.3967 -0.4220
  369MOL0     H49771   1.114   9.550   6.947 -0.9672  0.2116 -0.4427
  369MOL0     H49772   1.073   9.370   6.962  0.6736 -1.7516 -1.8326
  369MOL0     H49773   0.896   9.377   6.828 -0.8452  0.5714 -0.5415
  369MOL0     H49774   0.905   9.539   6.790  2.2537  1.8332 -0.0924
  369MOL0     H49775   0.689   9.328   6.828 -1.3502  0.7346  0.1067
  369MOL0     H49776   0.552   9.161   6.911 -4.9913  0.9113  1.1365
  369MOL0     H49777   0.309   8.902   6.917  2.2819  0.5180  0.2789
  369MOL0     H49778   0.156   8.683   6.962  1.0966 -0.9055  1.8273
  369MOL0     H49779   0.349   8.396   7.188  0.6245 -3.0928  1.1031
  369MOL0     H49780   0.236   8.409   7.319 -0.6951  0.4762  0.2398
  369MOL0     H49781   0.070   8.286   7.197 -1.1444  3.1024 -1.8778
  369MOL0     H49782   0.154   8.303   7.043  4.5490 -2.4271 -1.7988
  369MOL0     H49783   0.345   8.182   7.111 -1.4973  0.6060 -3.0300
  369MOL0     H49784   0.282   8.149   7.275 -1.9728 -6.0720  0.4547
  369MOL0     H49785   0.254   7.943   7.158  1.1746  1.1321  2.4857
  369MOL0     H49786   0.162   8.014   7.037  1.8096 -1.3961 -0.6761
  369MOL0     H49787   0.018   7.903   7.211  0.7276 -1.1862  3.4031
  369MOL0     H49788  -0.009   8.079   7.190 -0.2710 -0.3519 -0.6268
  369MOL0     H49789   0.203   7.966   7.392 -1.2046 -3.5728 -0.9208
  369MOL0     H49790   0.096   8.111   7.419 -3.7667 -1.4290  2.0429
  369MOL0     H49791   0.038   7.805   7.424  0.0159  1.9233 -4.9299
  369MOL0     H49792  -0.084   7.924   7.463  0.4612 -0.5615 -1.1508
  369MOL0     H49793  -0.031   7.828   7.656 -0.3502 -0.7677 -2.4156
  369MOL0     H49794   0.142   7.830   7.625 -0.6276 -0.1394  0.0101
  369MOL0     H49795   0.364   8.615   7.319  2.6081 -0.0358 -0.6686
  369MOL0     H49796   0.525   8.821   7.266  0.6508 -1.6083  0.4815
  369MOL0     H49797   0.623   9.265   7.325 -2.0106 -4.3338 -0.6348
  369MOL0     H49798   0.776   9.456   7.226 -0.9560 -1.1769  2.2235
  369MOL0     H49799   2.423   9.485   7.035 -0.7631  1.1454 -2.9844
  369MOL0     H49800   2.517   9.474   6.813 -0.6961 -0.5900 -1.5674
  369MOL0     H49801   2.586   9.436   6.487 -0.5510 -2.3494  1.1572
  369MOL0     H49802   2.688   9.467   6.242  1.2391 -1.7153  2.7960
  369MOL0     H49803   2.399   9.275   5.944 -1.7087  0.0057 -1.2835
  369MOL0     H49804   2.523   9.328   5.836 -2.5190 -2.6439 -0.2281
  369MOL0     H49805   2.447   9.582   5.941  0.2768  0.7706 -1.0582
  369MOL0     H49806   2.302   9.486   5.964 -0.1951 -3.1137  0.4272
  369MOL0     H49807   2.295   9.435   5.713 -0.2728 -0.1638 -0.8362
  369MOL0     H49808   2.446   9.513   5.683  0.4658  1.2389  0.9941
  369MOL0     H49809   2.237   9.664   5.654  0.9416 -4.3217 -1.9805
  369MOL0     H49810   2.219   9.662   5.826  1.4786 -0.6567  0.4848
  369MOL0     H49811   2.535   9.931   5.753 -1.1102  1.2157  1.4638
  369MOL0     H49812   2.421   9.162   6.121  1.0484 -0.5989  0.7343
  369MOL0     H49813   2.391   8.998   6.441  2.5988  1.2689 -0.4946
  369MOL0     H49814   2.243   9.068   6.380  0.1737 -0.9072  2.6834
  369MOL0     H49815   2.353   8.996   6.268  0.0433 -1.1903  1.9381
  370MOL0     O49816   7.298   8.465   3.935  0.6170 -0.0285 -0.4045
  370MOL0     C49817   7.276   8.557   4.011  0.0410 -0.4461  0.2343
  370MOL0     O49818   7.369   8.625   4.091  0.4744 -0.2117  0.1297
  370MOL0     C49819   7.505   8.619   4.087  0.3086  0.3588 -0.8427
  370MOL0     C49820   7.582   8.552   3.999  0.1756 -0.3102  0.1122
  370MOL0     C49821   7.726   8.565   3.991  0.5404  0.0605 -0.0683
  370MOL0     C49822   7.785   8.658   4.068  0.4499 -0.0463 -0.4691
  370MOL0     O49823   7.914   8.692   4.035 -1.1042  0.7064  0.0308
  370MOL0     C49824   7.978   8.787   4.117  0.0637  0.0633  0.1202
  370MOL0     C49825   8.124   8.749   4.117 -0.4512 -0.2659  0.4611
  370MOL0     C49826   8.213   8.857   4.169  0.2401  0.1471 -0.5496
  370MOL0     C49827   8.252   8.850   4.320 -0.3835  0.2233  0.3852
  370MOL0     C49828   8.337   8.725   4.355  0.2529  0.3411  0.1211
  370MOL0     C49829   8.341   8.667   4.501  0.2902  0.4186  0.1919
  370MOL0     C49830   8.453   8.559   4.503  0.1377 -0.2924 -1.2510
  370MOL0     C49831   8.484   8.511   4.642 -0.7843  0.1444  0.2957
  370MOL0     N49832   8.608   8.423   4.639 -0.0324 -0.9191 -0.3801
  370MOL0     C49833   8.734   8.471   4.596  0.4286  0.3770  0.1660
  370MOL0     C49834   8.815   8.361   4.593 -0.0772  0.2601  0.5144
  370MOL0     C49835   8.952   8.337   4.540  0.1358 -0.7328 -0.2511
  370MOL0     C49836   8.992   8.423   4.418  0.6547 -0.3532  0.7884
  370MOL0     C49837   8.880   8.430   4.311  0.5774 -0.3021  0.0267
  370MOL0     C49838   8.935   8.486   4.181  0.2037 -1.0264 -0.0116
  370MOL0     O49839   8.974   8.622   4.184 -0.1702 -0.6415  0.4158
  370MOL0     C49840   8.891   8.728   4.182  0.1087  0.1943  0.0180
  370MOL0     C49841   8.946   8.852   4.177 -0.8070 -0.0678 -1.0541
  370MOL0     C49842   8.871   8.972   4.192 -0.0737  0.0666 -0.0020
  370MOL0     C49843   8.736   8.966   4.211  0.0256 -0.7405  0.6769
  370MOL0     C49844   8.652   9.086   4.231 -0.6855  0.9197 -0.0958
  370MOL0     O49845   8.726   9.193   4.253  0.2573  0.5342  1.5158
  370MOL0     C49846   8.658   9.295   4.308  0.1315  0.5038  0.1350
  370MOL0     C49847   8.645   9.302   4.446  0.4055  0.1807 -0.2629
  370MOL0     C49848   8.590   9.418   4.508 -0.2326 -0.1696 -0.7168
  370MOL0     C49849   8.529   9.513   4.421  0.2825  0.6786  0.3163
  370MOL0     O49850   8.477   9.622   4.488 -0.0833  0.3938 -0.2592
  370MOL0     C49851   8.377   9.693   4.428 -1.0890  0.1233 -0.5925
  370MOL0     C49852   8.247   9.615   4.437  0.2551  0.2560  0.5769
  370MOL0     C49853   8.119   9.690   4.387  0.3601 -0.5900 -0.2691
  370MOL0     C49854   7.989   9.614   4.390 -0.4067  1.3687  0.5330
  370MOL0     C49855   7.865   9.696   4.411 -0.0775 -0.6853  0.2924
  370MOL0     C49856   7.727   9.619   4.409 -0.6641 -0.4259 -1.0699
  370MOL0     C49857   7.695   9.502   4.495 -0.3946 -0.3895 -0.0805
  370MOL0     C49858   7.677   9.534   4.651  0.0317  0.1806  0.2719
  370MOL0    Cl49859   7.669   9.367   4.750 -0.1216 -0.2931  0.0915
  370MOL0     C49860   8.533   9.490   4.286  0.5636 -0.8623  0.5264
  370MOL0     C49861   8.602   9.388   4.223 -0.8256 -0.4040 -0.0233
  370MOL0     O49862   8.528   9.085   4.230 -0.7537 -0.1739 -0.5819
  370MOL0     C49863   8.677   8.839   4.207 -1.1629 -0.7342 -0.3887
  370MOL0     C49864   8.753   8.724   4.195  1.1310 -0.2619  0.2025
  370MOL0     N49865   8.747   8.254   4.651  0.0287  0.4612  0.1504
  370MOL0     N49866   8.632   8.296   4.688  0.4356  0.8291  0.2967
  370MOL0     C49867   7.702   8.727   4.168 -0.2522 -0.1727  0.6445
  370MOL0     C49868   7.563   8.708   4.177  0.0232 -0.8528 -0.5394
  370MOL0     C49869   7.124   8.598   4.022  0.3975  0.1346 -0.0069
  370MOL0     C49870   7.047   8.648   3.916 -0.1974 -0.1281 -0.0388
  370MOL0     C49871   6.914   8.695   3.935  0.5241 -0.0607  0.0881
  370MOL0     C49872   6.846   8.689   4.062  0.2079 -0.4141 -0.0883
  370MOL0     O49873   6.717   8.743   4.063  1.3458 -0.5512  0.0779
  370MOL0     C49874   6.662   8.782   4.183  0.0291 -0.7871  0.9214
  370MOL0     C49875   6.569   8.896   4.143 -0.6416 -1.1777  0.5132
  370MOL0     C49876   6.637   9.026   4.105 -0.3557  0.9762 -0.3270
  370MOL0     C49877   6.545   9.142   4.070 -0.2134  0.9640  0.7205
  370MOL0     C49878   6.459   9.116   3.954  0.1534  0.4691 -0.1481
  370MOL0     C49879   6.383   9.094   3.860  0.6147 -0.0947 -0.1252
  370MOL0     C49880   6.924   8.646   4.174  0.0809 -0.7492 -1.5110
  370MOL0     C49881   7.055   8.600   4.150  0.4701 -0.2374  0.2032
  370MOL0     C49882   7.122   8.522   4.259  0.1201  0.0257  0.7262
  370MOL0     H49883   7.546   8.485   3.922  1.1602 -0.9111  0.1655
  370MOL0     H49884   7.774   8.521   3.904 -0.5901 -1.7105  0.1503
  370MOL0     H49885   7.963   8.889   4.082  1.4695  0.9538  1.8829
  370MOL0     H49886   7.942   8.779   4.220  0.6369  0.3747  0.3546
  370MOL0     H49887   8.154   8.736   4.013 -1.6045  1.1552 -0.0916
  370MOL0     H49888   8.137   8.654   4.169 -3.1161  0.0728  1.8952
  370MOL0     H49889   8.160   8.948   4.141 -0.0564 -0.4862 -2.1337
  370MOL0     H49890   8.304   8.855   4.108 -0.5168  1.3317 -1.7842
  370MOL0     H49891   8.315   8.938   4.333 -0.7189  0.7173 -1.1103
  370MOL0     H49892   8.163   8.867   4.381 -1.4040 -0.4998 -0.8387
  370MOL0     H49893   8.298   8.644   4.292  0.6780  1.3196 -1.4761
  370MOL0     H49894   8.440   8.741   4.321  0.0848 -0.7500 -0.9813
  370MOL0     H49895   8.350   8.745   4.577 -0.3793 -1.4730  2.2909
  370MOL0     H49896   8.252   8.609   4.526  0.8901 -0.8982 -0.6199
  370MOL0     H49897   8.545   8.594   4.456  1.6895 -0.0399  1.7506
  370MOL0     H49898   8.423   8.467   4.452  1.0552 -0.4866 -1.4485
  370MOL0     H49899   8.515   8.595   4.705 -0.5967  0.1835  0.1499
  370MOL0     H49900   8.405   8.457   4.696 -0.8597  1.9159  2.0528
  370MOL0     H49901   8.759   8.568   4.555  0.1419  0.3716 -0.0197
  370MOL0     H49902   9.031   8.351   4.614 -1.1913 -1.3970  1.3460
  370MOL0     H49903   8.971   8.230   4.527  2.9197 -0.3249 -0.1465
  370MOL0     H49904   9.020   8.529   4.425  0.1071  0.3612 -4.0792
  370MOL0     H49905   9.081   8.375   4.377  0.0721  1.4552 -3.0936
  370MOL0     H49906   8.786   8.479   4.340  1.5641  2.6609 -1.3145
  370MOL0     H49907   8.845   8.333   4.276 -0.7143  0.2841 -0.3921
  370MOL0     H49908   8.858   8.458   4.109  0.8901 -0.0736 -1.1465
  370MOL0     H49909   9.021   8.422   4.162  0.9898 -0.4686  1.4684
  370MOL0     H49910   9.054   8.859   4.162 -0.8424  0.5722 -1.0261
  370MOL0     H49911   8.926   9.065   4.187 -0.1942  0.3161  2.3025
  370MOL0     H49912   8.707   9.242   4.511  2.1202 -0.5583 -2.4267
  370MOL0     H49913   8.578   9.419   4.616  0.9705 -3.8186 -0.4352
  370MOL0     H49914   8.364   9.776   4.499 -0.2917  0.2186 -0.5385
  370MOL0     H49915   8.412   9.717   4.327  1.0704 -1.8798 -0.4065
  370MOL0     H49916   8.264   9.528   4.374 -1.4594  0.6727 -0.5355
  370MOL0     H49917   8.237   9.582   4.541 -0.3379 -1.1414  0.1020
  370MOL0     H49918   8.117   9.778   4.452  0.7186  0.4676 -1.6388
  370MOL0     H49919   8.147   9.731   4.289  5.6246  0.8707  1.5309
  370MOL0     H49920   7.983   9.540   4.470 -0.3650 -0.1971 -0.8627
  370MOL0     H49921   7.998   9.546   4.305  4.4146 -0.9229  2.5055
  370MOL0     H49922   7.868   9.765   4.326  3.8998 -0.5409  0.3946
  370MOL0     H49923   7.892   9.753   4.500  3.1808  1.0030 -1.5833
  370MOL0     H49924   7.645   9.689   4.424  1.1441  1.2796  1.8920
  370MOL0     H49925   7.724   9.586   4.305  1.0345 -1.8739 -0.7216
  370MOL0     H49926   7.760   9.415   4.478 -2.0024 -1.6993  0.2374
  370MOL0     H49927   7.596   9.463   4.472  0.2751 -1.3255 -1.4814
  370MOL0     H49928   7.758   9.599   4.685 -0.0564  0.3422  0.1743
  370MOL0     H49929   7.581   9.586   4.664  0.7144  0.9755  2.7979
  370MOL0     H49930   8.488   9.562   4.218  0.0310  2.2617  3.8997
  370MOL0     H49931   8.615   9.357   4.119 -0.5081 -2.6762  0.6386
  370MOL0     H49932   8.568   8.840   4.207 -1.1681 -0.1390 -1.2659
  370MOL0     H49933   8.705   8.627   4.206 -1.6235  0.9370 -0.6336
  370MOL0     H49934   7.734   8.817   4.218 -1.1477 -0.2093  1.3192
  370MOL0     H49935   7.496   8.765   4.242 -0.9492 -0.5487 -1.7637
  370MOL0     H49936   7.076   8.643   3.812  2.1087 -0.5207  0.5755
  370MOL0     H49937   6.856   8.745   3.858 -3.7034 -3.5190  0.6723
  370MOL0     H49938   6.733   8.822   4.255 -0.6110  1.5043  0.3616
  370MOL0     H49939   6.601   8.702   4.227  1.0198  0.1801  4.3353
  370MOL0     H49940   6.506   8.900   4.233  0.3709 -1.8300  1.2808
  370MOL0     H49941   6.502   8.864   4.063 -1.8361 -1.7872  1.7128
  370MOL0     H49942   6.717   9.015   4.031  1.6279  2.9033  1.3740
  370MOL0     H49943   6.696   9.049   4.195 -1.2241  0.5137  0.3826
  370MOL0     H49944   6.485   9.168   4.158  0.7852 -1.0782  2.1143
  370MOL0     H49945   6.613   9.223   4.043  3.2026 -1.9860 -0.2697
  370MOL0     H49946   6.330   9.061   3.772  3.6290 -0.1070 -2.0886
  370MOL0     H49947   6.862   8.630   4.261 -1.8758  0.8566 -2.5453
  370MOL0     H49948   7.048   8.508   4.339 -0.9660  0.6740 -0.1391
  370MOL0     H49949   7.165   8.429   4.222  1.3902  1.5459 -1.8623
  370MOL0     H49950   7.200   8.593   4.289  0.3329 -0.0891  0.4430
  371MOL0     O49951   8.573   6.606   0.091  0.6940 -0.5552 -0.8000
  371MOL0     C49952   8.587   6.708   0.023 -0.8271  0.5663 -0.0720
  371MOL0     O49953   8.669   6.719  -0.093  0.7131  0.4006 -0.6226
  371MOL0     C49954   8.730   6.602  -0.135  0.2270  0.1430  0.2169
  371MOL0     C49955   8.666   6.479  -0.159  0.1734 -0.4673  0.5948
  371MOL0     C49956   8.726   6.376  -0.238  0.0911 -0.3769  0.0210
  371MOL0     C49957   8.856   6.404  -0.283  0.3332  0.0627 -0.0031
  371MOL0     O49958   8.923   6.305  -0.351  0.1265 -0.1452  0.3435
  371MOL0     C49959   8.923   6.331  -0.492 -0.5820 -0.3079  0.0648
  371MOL0     C49960   8.958   6.198  -0.573  0.2735 -0.3590 -0.5254
  371MOL0     C49961   9.086   6.124  -0.530 -0.1379  0.5556 -0.0196
  371MOL0     C49962   9.215   6.209  -0.519  0.4400 -1.0183  0.2983
  371MOL0     C49963   9.344   6.144  -0.561 -0.5625 -0.3419 -0.2796
  371MOL0     C49964   9.423   6.064  -0.453 -0.3035  0.4391 -0.6997
  371MOL0     C49965   9.332   5.981  -0.363  0.3698  0.5641 -0.1613
  371MOL0     C49966   9.390   5.909  -0.238  0.9133  0.8271  0.4902
  371MOL0     N49967   9.526   5.853  -0.267  0.6577  0.5247 -0.7000
  371MOL0     C49968   9.546   5.751  -0.351  0.4498  0.3273  0.7096
  371MOL0     C49969   9.673   5.745  -0.371 -1.4944 -0.4929  0.4262
  371MOL0     C49970   9.744   5.648  -0.468  0.0513 -0.7929 -0.1624
  371MOL0     C49971   9.858   5.697  -0.550  0.6178  0.2800  0.0059
  371MOL0     C49972   9.989   5.709  -0.462 -0.5052  0.1637  0.6373
  371MOL0     C49973  10.127   5.718  -0.531  0.0507  0.1056  0.2202
  371MOL0     O49974  10.160   5.587  -0.587 -0.4282  1.3967 -0.0746
  371MOL0     C49975  10.260   5.588  -0.679 -0.1183  0.0365  0.7818
  371MOL0     C49976  10.388   5.637  -0.651  0.5606 -1.0351 -0.0105
  371MOL0     C49977  10.492   5.634  -0.741  0.1729 -0.1930  0.6386
  371MOL0     C49978  10.457   5.600  -0.876 -0.7085  0.3271  0.1688
  371MOL0     C49979  10.556   5.619  -0.976 -0.0398  0.2325  0.6637
  371MOL0     O49980  10.517   5.654  -1.100 -0.8529 -0.1659  0.2171
  371MOL0     C49981  10.607   5.677  -1.206 -0.6769  0.0917 -0.1372
  371MOL0     C49982  10.721   5.599  -1.228 -0.4300 -0.0131 -0.8363
  371MOL0     C49983  10.808   5.644  -1.330  0.3692 -0.4063  0.9169
  371MOL0     C49984  10.759   5.721  -1.437 -0.3496  0.5576 -0.3468
  371MOL0     O49985  10.826   5.717  -1.562  0.0429  0.2961 -0.2944
  371MOL0     C49986  10.813   5.835  -1.643 -0.1903  0.0954 -0.3203
  371MOL0     C49987  10.916   5.815  -1.760  0.6856  0.0582 -0.5575
  371MOL0     C49988  10.931   5.954  -1.846 -0.1917  0.6002 -0.7547
  371MOL0     C49989  10.790   5.978  -1.914  0.4923 -0.2921  0.3105
  371MOL0     C49990  10.792   6.108  -1.996 -0.8261  0.2367 -0.6216
  371MOL0     C49991  10.657   6.162  -2.046  1.2360  0.3884  0.0424
  371MOL0     C49992  10.683   6.298  -2.104 -0.3317  0.0766  0.6510
  371MOL0     C49993  10.554   6.373  -2.110 -0.2568 -0.0440 -0.3735
  371MOL0    Cl49994  10.497   6.415  -1.936 -0.2461  0.1349 -0.3819
  371MOL0     C49995  10.643   5.791  -1.415 -0.0551  0.6191  0.2712
  371MOL0     C49996  10.573   5.776  -1.298  0.0979  0.3753 -0.2923
  371MOL0     O49997  10.672   5.592  -0.953 -0.1907  0.3319  0.0694
  371MOL0     C49998  10.323   5.559  -0.904  1.3214  0.2686 -0.0382
  371MOL0     C49999  10.231   5.562  -0.810  0.4920  0.6643 -0.6352
  371MOL0     N50000   9.728   5.821  -0.278 -0.1447  0.3375 -1.1092
  371MOL0     N50001   9.641   5.890  -0.211  0.4891  0.4375  0.1544
  371MOL0     C50002   8.928   6.528  -0.253  0.3828  0.1248  0.6145
  371MOL0     C50003   8.858   6.628  -0.178  0.1053  0.1916 -0.0112
  371MOL0     C50004   8.517   6.833   0.066 -0.0615 -0.1658  0.6356
  371MOL0     C50005   8.402   6.819   0.146 -0.4519  0.5172 -0.0625
  371MOL0     C50006   8.320   6.929   0.178  1.2100  0.1440  0.6120
  371MOL0     C50007   8.337   7.058   0.125  0.4842  0.3623 -0.1990
  371MOL0     O50008   8.245   7.153   0.158 -0.2477  0.4773  0.1337
  371MOL0     C50009   8.103   7.149   0.111 -0.1894  0.1870  0.1828
  371MOL0     C50010   8.068   7.300   0.073 -0.0471  0.1951  0.6106
  371MOL0     C50011   8.121   7.325  -0.069 -0.9059 -1.6932 -0.7642
  371MOL0     C50012   8.053   7.257  -0.183 -0.0617 -0.2500  1.3999
  371MOL0     C50013   8.081   7.338  -0.302 -0.7565 -0.6842  0.4899
  371MOL0     C50014   8.094   7.399  -0.407 -0.0319 -0.3745 -1.0801
  371MOL0     C50015   8.462   7.068   0.053 -0.5554 -0.1206  0.0962
  371MOL0     C50016   8.551   6.968   0.027  0.5288 -0.6689  0.3760
  371MOL0     C50017   8.684   7.001  -0.032 -0.0552 -1.0303 -0.8282
  371MOL0     H50018   8.562   6.465  -0.131 -1.1943  1.6588 -2.7738
  371MOL0     H50019   8.677   6.281  -0.258  0.4444 -0.6204  0.2951
  371MOL0     H50020   8.824   6.358  -0.531 -0.5134 -1.5461 -1.0382
  371MOL0     H50021   8.991   6.415  -0.507  0.7860 -1.3051  0.4522
  371MOL0     H50022   8.964   6.217  -0.681 -1.9981  0.8233 -0.5096
  371MOL0     H50023   8.871   6.132  -0.576  2.6752 -3.8637  0.7662
  371MOL0     H50024   9.108   6.047  -0.604  1.8061  1.2983 -0.2587
  371MOL0     H50025   9.061   6.088  -0.429 -1.5850  1.7167  0.0643
  371MOL0     H50026   9.181   6.288  -0.586 -1.4250 -1.1345  1.0475
  371MOL0     H50027   9.220   6.240  -0.414  1.6822  0.9425 -0.2832
  371MOL0     H50028   9.321   6.076  -0.644 -2.5329  2.6344 -2.3949
  371MOL0     H50029   9.412   6.213  -0.613  0.1574  0.0617  1.1599
  371MOL0     H50030   9.485   5.991  -0.505 -0.4272  0.4009 -0.7917
  371MOL0     H50031   9.484   6.133  -0.394  2.6004 -3.6202  1.5071
  371MOL0     H50032   9.298   5.904  -0.433  2.0216  1.8660 -2.5643
  371MOL0     H50033   9.246   6.040  -0.330 -0.2133 -0.2246 -0.2386
  371MOL0     H50034   9.401   5.981  -0.156  1.6300  2.2869 -0.8186
  371MOL0     H50035   9.319   5.834  -0.204  0.8182 -0.5006 -2.3360
  371MOL0     H50036   9.473   5.688  -0.401 -1.6119  0.6532  3.0783
  371MOL0     H50037   9.778   5.570  -0.399  1.6066  0.4659  0.5663
  371MOL0     H50038   9.667   5.604  -0.533 -0.0987 -4.6287  2.3113
  371MOL0     H50039   9.883   5.631  -0.634 -0.2830  0.5129 -0.4557
  371MOL0     H50040   9.839   5.798  -0.588  2.5926  0.8657  0.4344
  371MOL0     H50041   9.995   5.621  -0.398  0.9439  0.5594  1.0710
  371MOL0     H50042   9.984   5.799  -0.399  0.3970  1.4012 -0.9945
  371MOL0     H50043  10.204   5.768  -0.472 -0.0785  1.7823 -0.9461
  371MOL0     H50044  10.121   5.796  -0.608  1.8158  0.9156  0.8453
  371MOL0     H50045  10.414   5.666  -0.550 -4.3670 -0.4997  1.3486
  371MOL0     H50046  10.594   5.665  -0.719  0.5188  0.6636 -1.8078
  371MOL0     H50047  10.740   5.523  -1.153 -1.1960  0.1523 -0.4600
  371MOL0     H50048  10.906   5.600  -1.345 -0.7803 -2.3825 -1.4967
  371MOL0     H50049  10.707   5.835  -1.671 -0.5490 -1.8664  0.8911
  371MOL0     H50050  10.834   5.929  -1.592 -2.3699 -0.0795  1.0570
  371MOL0     H50051  11.012   5.782  -1.721  1.1642  1.3197 -0.6275
  371MOL0     H50052  10.879   5.733  -1.823  2.6348 -2.7320  1.6995
  371MOL0     H50053  10.953   6.043  -1.785 -1.0361 -0.0359  0.5303
  371MOL0     H50054  11.012   5.936  -1.917  0.2427  0.0064 -0.1267
  371MOL0     H50055  10.711   5.986  -1.839  1.5600  0.4060  1.3848
  371MOL0     H50056  10.768   5.893  -1.979 -1.0917  0.1226  0.2640
  371MOL0     H50057  10.855   6.093  -2.084 -2.9827  3.2225 -2.8904
  371MOL0     H50058  10.837   6.184  -1.932 -1.2182 -0.5125  0.5800
  371MOL0     H50059  10.624   6.093  -2.124 -0.4419  0.1179  0.9306
  371MOL0     H50060  10.580   6.158  -1.968  0.9404 -2.0559 -0.3059
  371MOL0     H50061  10.730   6.294  -2.202 -0.3697 -1.3923  0.6684
  371MOL0     H50062  10.747   6.344  -2.028 -1.0678 -1.2284  2.1090
  371MOL0     H50063  10.565   6.469  -2.161  0.2641  1.0480  1.6635
  371MOL0     H50064  10.487   6.313  -2.172  3.0685 -3.3924 -1.0718
  371MOL0     H50065  10.590   5.852  -1.487 -2.7986 -2.6014 -0.7131
  371MOL0     H50066  10.476   5.822  -1.286  0.6951  1.3034  1.3416
  371MOL0     H50067  10.294   5.558  -1.008 -3.7202  0.6073  1.0874
  371MOL0     H50068  10.127   5.541  -0.833  0.0131  0.3227  1.5768
  371MOL0     H50069   9.032   6.542  -0.279  0.6123 -2.3178 -0.0777
  371MOL0     H50070   8.917   6.712  -0.143  1.8480  0.1513 -2.5612
  371MOL0     H50071   8.369   6.724   0.186 -0.7815  1.4136  1.9016
  371MOL0     H50072   8.238   6.906   0.245 -0.0406 -1.1623 -1.2632
  371MOL0     H50073   8.049   7.114   0.200  2.4150 -3.3978  0.5918
  371MOL0     H50074   8.094   7.071   0.035  0.9905  0.2677 -0.0603
  371MOL0     H50075   8.101   7.379   0.141 -0.1075  2.1220 -1.4933
  371MOL0     H50076   7.962   7.318   0.089  0.3307  2.7320  0.6372
  371MOL0     H50077   8.225   7.293  -0.066 -0.7473 -1.1263  0.6364
  371MOL0     H50078   8.135   7.432  -0.088 -2.1961 -1.0543  1.4543
  371MOL0     H50079   8.087   7.154  -0.197 -0.4541 -0.6024  2.8420
  371MOL0     H50080   7.944   7.264  -0.176 -0.3237 -1.1058 -0.9900
  371MOL0     H50081   8.090   7.464  -0.492 -1.0770  0.6555 -0.2783
  371MOL0     H50082   8.490   7.169   0.025 -3.5238  0.2403 -1.9556
  371MOL0     H50083   8.760   6.966   0.039  0.1662  0.5048 -0.2806
  371MOL0     H50084   8.694   6.955  -0.131 -2.4243 -0.0177 -1.6105
  371MOL0     H50085   8.697   7.109  -0.035 -2.4885 -0.4578  2.7557
  372MOL0     O50086   3.384   8.118   7.606 -0.3631 -0.8340  0.0871
  372MOL0     C50087   3.437   8.124   7.716 -0.2509  0.0913 -0.3182
  372MOL0     O50088   3.518   8.024   7.763  0.4137  0.3337 -0.2709
  372MOL0     C50089   3.598   7.946   7.674 -0.3134  0.1026  0.7924
  372MOL0     C50090   3.690   8.001   7.583  0.3101  0.4158 -0.1965
  372MOL0     C50091   3.746   7.924   7.481 -0.4172 -1.1509 -0.2755
  372MOL0     C50092   3.714   7.789   7.466  0.5996 -0.3895 -1.8012
  372MOL0     O50093   3.758   7.731   7.346 -0.0893  0.7358 -0.9642
  372MOL0     C50094   3.893   7.694   7.361 -0.1438  0.3088  0.0589
  372MOL0     C50095   3.945   7.617   7.229  0.3002  1.6685  0.1442
  372MOL0     C50096   3.835   7.524   7.192  0.0082 -0.2145 -0.4814
  372MOL0     C50097   3.859   7.449   7.060 -1.0574 -1.3645  0.1581
  372MOL0     C50098   3.761   7.345   7.040  0.5526 -0.3807 -0.5091
  372MOL0     C50099   3.783   7.288   6.899  0.4262  0.1612 -0.3581
  372MOL0     C50100   3.662   7.206   6.870 -0.7992  0.0442 -0.0335
  372MOL0     C50101   3.647   7.147   6.733 -0.3693 -0.1316  0.3414
  372MOL0     N50102   3.529   7.060   6.728  0.7028  0.4140 -0.2559
  372MOL0     C50103   3.417   7.081   6.650 -1.5630 -0.2539  0.7863
  372MOL0     C50104   3.329   6.980   6.675  0.2999  0.5640  0.4442
  372MOL0     C50105   3.200   6.951   6.604  0.2066 -0.6333  0.3603
  372MOL0     C50106   3.079   7.051   6.638  0.0022  0.2563 -0.2911
  372MOL0     C50107   2.978   6.998   6.742 -0.1544 -0.1124 -0.3315
  372MOL0     C50108   2.839   7.045   6.704  0.2757  0.3446 -0.1831
  372MOL0     O50109   2.790   7.017   6.571  0.4220 -0.1483  0.1248
  372MOL0     C50110   2.652   7.005   6.567  0.0784  0.6211 -0.9473
  372MOL0     C50111   2.559   7.063   6.652 -0.1686  0.2760  0.4140
  372MOL0     C50112   2.423   7.044   6.626 -0.5221 -0.2780 -0.9475
  372MOL0     C50113   2.378   6.971   6.524 -0.3351 -0.0735 -0.3062
  372MOL0     C50114   2.234   6.963   6.499  0.0915  0.1572 -0.0036
  372MOL0     O50115   2.157   7.027   6.595 -0.4617  0.4124  0.0010
  372MOL0     C50116   2.028   7.023   6.582  0.6729 -0.2165  0.1578
  372MOL0     C50117   1.958   7.146   6.537  0.5132  0.8704 -0.0195
  372MOL0     C50118   1.816   7.148   6.525  0.4622 -0.1521  0.3838
  372MOL0     C50119   1.741   7.031   6.565 -0.6826  0.3456 -0.0522
  372MOL0     O50120   1.605   7.004   6.559 -0.7133  0.6619 -0.4486
  372MOL0     C50121   1.526   7.073   6.462  0.0475 -0.2460 -0.0528
  372MOL0     C50122   1.391   7.010   6.448  0.3772  0.7717  0.2039
  372MOL0     C50123   1.297   7.098   6.362 -0.0087  0.3269 -0.3782
  372MOL0     C50124   1.154   7.082   6.402  0.9701 -0.4258 -0.5483
  372MOL0     C50125   1.070   7.199   6.338  0.6075  0.1801  0.5665
  372MOL0     C50126   0.934   7.208   6.419 -1.1276  0.0587  0.3448
  372MOL0     C50127   0.837   7.100   6.430  0.3530  0.9541  0.8594
  372MOL0     C50128   0.819   7.013   6.311 -0.1850 -0.1141 -0.1815
  372MOL0    Cl50129   0.787   7.114   6.170  0.2024 -0.3278  0.2179
  372MOL0     C50130   1.815   6.916   6.618 -0.5137  0.1390 -0.4941
  372MOL0     C50131   1.952   6.913   6.626 -0.8666  0.4123  0.0542
  372MOL0     O50132   2.201   6.883   6.409  0.8308 -0.4230  0.0190
  372MOL0     C50133   2.467   6.911   6.434  1.5917 -0.5081  0.1429
  372MOL0     C50134   2.598   6.923   6.462 -1.2792 -0.5078 -0.6682
  372MOL0     N50135   3.390   6.901   6.772  0.4707 -0.5890  0.3398
  372MOL0     N50136   3.499   6.953   6.813 -0.0562  0.6929 -1.1033
  372MOL0     C50137   3.631   7.736   7.559 -0.2802 -0.2180  0.0293
  372MOL0     C50138   3.579   7.813   7.667  0.2382 -0.3108 -0.1671
  372MOL0     C50139   3.393   8.218   7.812 -0.1547  0.9263 -0.1196
  372MOL0     C50140   3.372   8.160   7.946 -0.4861 -0.6416  0.8670
  372MOL0     C50141   3.331   8.237   8.050 -0.3860  0.3796  0.1290
  372MOL0     C50142   3.314   8.374   8.041 -0.7576  0.9354 -0.5063
  372MOL0     O50143   3.281   8.459   8.135 -0.5334 -0.0320 -0.6015
  372MOL0     C50144   3.244   8.414   8.271 -0.1783 -0.2496  0.6399
  372MOL0     C50145   3.314   8.500   8.370 -0.2561  0.1121 -0.3936
  372MOL0     C50146   3.469   8.478   8.373  0.2250  0.4855 -0.3966
  372MOL0     C50147   3.549   8.555   8.268  0.0624 -0.0308 -0.7530
  372MOL0     C50148   3.523   8.699   8.270  1.1033  0.0306 -0.2321
  372MOL0     C50149   3.491   8.814   8.279 -0.7119 -0.5105  0.3566
  372MOL0     C50150   3.332   8.430   7.915 -0.9522 -1.0239  0.3664
  372MOL0     C50151   3.373   8.357   7.795 -0.1107  0.2503 -0.6087
  372MOL0     C50152   3.394   8.443   7.672  0.6958  0.1619 -0.4747
  372MOL0     H50153   3.698   8.109   7.573 -0.7878  0.4098 -1.5233
  372MOL0     H50154   3.814   7.964   7.406 -1.2874 -0.4684 -0.7246
  372MOL0     H50155   3.969   7.772   7.369  2.4632 -1.4546 -3.8893
  372MOL0     H50156   3.902   7.621   7.442  0.0894 -1.0185 -1.1184
  372MOL0     H50157   4.033   7.558   7.257 -1.1880 -1.2048 -0.8807
  372MOL0     H50158   3.968   7.690   7.151  0.6799 -0.2659 -1.6547
  372MOL0     H50159   3.734   7.566   7.185  0.9229  1.8114 -2.1910
  372MOL0     H50160   3.833   7.456   7.278  0.6118  1.4598  0.9052
  372MOL0     H50161   3.863   7.513   6.971  1.4198 -0.2014  1.0186
  372MOL0     H50162   3.958   7.403   7.058  0.3179  1.3424  0.4297
  372MOL0     H50163   3.777   7.264   7.112 -2.3773 -2.3953 -1.9142
  372MOL0     H50164   3.661   7.390   7.041  2.0248  3.2076 -0.4200
  372MOL0     H50165   3.795   7.372   6.830 -2.0768  0.3188 -0.6724
  372MOL0     H50166   3.876   7.230   6.899 -0.1671 -0.8187 -0.6900
  372MOL0     H50167   3.578   7.275   6.886  0.6303  2.1492 -1.0961
  372MOL0     H50168   3.654   7.127   6.945 -0.6954  0.6460  0.6163
  372MOL0     H50169   3.627   7.218   6.653 -1.5399 -1.3575 -0.4936
  372MOL0     H50170   3.737   7.086   6.721 -1.9857 -2.6556  0.2702
  372MOL0     H50171   3.421   7.151   6.567  1.8234 -1.3172 -0.0747
  372MOL0     H50172   3.214   6.955   6.496 -1.7532 -1.0902  0.0476
  372MOL0     H50173   3.174   6.848   6.628 -3.8610 -0.0793 -0.8946
  372MOL0     H50174   3.121   7.140   6.686  1.1283 -1.2295  1.6196
  372MOL0     H50175   3.025   7.084   6.549 -0.6695  0.9403  0.3537
  372MOL0     H50176   2.989   7.052   6.836 -3.4591 -1.5041  1.0444
  372MOL0     H50177   2.986   6.891   6.763  0.7466 -0.1631 -0.9117
  372MOL0     H50178   2.847   7.154   6.709  1.7127  0.3688 -1.9719
  372MOL0     H50179   2.774   7.003   6.782  1.5547 -0.4168  0.5042
  372MOL0     H50180   2.587   7.128   6.734 -0.0206  0.5899  0.1147
  372MOL0     H50181   2.364   7.105   6.695  1.4148  2.6217 -1.6506
  372MOL0     H50182   2.008   7.239   6.510  0.2779  1.3976  1.2972
  372MOL0     H50183   1.761   7.237   6.496 -1.4230 -1.5256 -0.4997
  372MOL0     H50184   1.528   7.176   6.497  3.2254 -0.1090 -0.3435
  372MOL0     H50185   1.577   7.063   6.365 -1.6526 -5.9172 -0.7265
  372MOL0     H50186   1.397   6.910   6.405  1.2061  1.6752 -1.8962
  372MOL0     H50187   1.364   7.014   6.554  1.6351  4.0978  0.4944
  372MOL0     H50188   1.324   7.203   6.373 -0.3109  0.8015 -3.4427
  372MOL0     H50189   1.313   7.066   6.259  1.4657 -2.1237  0.5279
  372MOL0     H50190   1.134   7.082   6.509 -4.0313 -0.5027 -1.2104
  372MOL0     H50191   1.120   6.982   6.373  0.9569  0.3540 -3.6705
  372MOL0     H50192   1.061   7.187   6.230  2.3388 -2.3617  0.6352
  372MOL0     H50193   1.126   7.293   6.336 -1.0026  1.2087  1.1989
  372MOL0     H50194   0.960   7.232   6.523 -1.0802 -0.1247  0.3750
  372MOL0     H50195   0.883   7.298   6.382 -0.5997  1.5864  3.0244
  372MOL0     H50196   0.741   7.145   6.455  0.1547  1.1690 -0.2409
  372MOL0     H50197   0.865   7.039   6.516 -0.3829 -0.8833 -0.1637
  372MOL0     H50198   0.897   6.938   6.295  0.7163  0.5571  0.8909
  372MOL0     H50199   0.727   6.955   6.321 -0.5335  0.0453 -2.1604
  372MOL0     H50200   1.755   6.830   6.646  0.8056 -1.0700 -1.2426
  372MOL0     H50201   1.990   6.819   6.665 -3.2511  0.1195  1.8617
  372MOL0     H50202   2.421   6.858   6.352 -1.0942  1.3582  0.3032
  372MOL0     H50203   2.668   6.874   6.395  1.0750  2.5706 -0.6670
  372MOL0     H50204   3.601   7.634   7.536  0.8617 -0.4337 -0.5816
  372MOL0     H50205   3.502   7.754   7.717 -3.4568  0.3389 -4.4069
  372MOL0     H50206   3.403   8.060   7.974  0.7370  0.5148  4.0674
  372MOL0     H50207   3.321   8.180   8.141  0.2307  0.2656  0.1306
  372MOL0     H50208   3.282   8.312   8.283  2.5105  0.4227 -1.2087
  372MOL0     H50209   3.135   8.413   8.281 -0.2939  0.0277 -0.4820
  372MOL0     H50210   3.274   8.480   8.470 -0.2436  0.7175 -0.2598
  372MOL0     H50211   3.286   8.601   8.338  0.8472  0.5294 -0.0925
  372MOL0     H50212   3.479   8.371   8.352 -3.4150 -0.1408  0.3272
  372MOL0     H50213   3.499   8.498   8.476 -1.2679  0.8570 -0.0055
  372MOL0     H50214   3.654   8.543   8.298 -0.6439 -0.0529  2.0556
  372MOL0     H50215   3.541   8.524   8.164  3.0673 -1.4651 -0.6844
  372MOL0     H50216   3.476   8.916   8.310  1.0505 -0.0061 -0.3240
  372MOL0     H50217   3.334   8.538   7.906  2.8010 -0.7316  2.4004
  372MOL0     H50218   3.494   8.487   7.684  0.6974 -0.3520  1.9727
  372MOL0     H50219   3.393   8.380   7.583 -1.6762 -1.2648  0.4461
  372MOL0     H50220   3.312   8.514   7.658  0.1703 -0.1570  0.8075
  373MOL0     O50221   7.720   1.379  10.404 -0.6091  0.5461 -0.0407
  373MOL0     C50222   7.810   1.448  10.442  0.8192  0.0746 -1.2613
  373MOL0     O50223   7.809   1.585  10.451 -0.7655  0.2828  0.0370
  373MOL0     C50224   7.713   1.670  10.398 -0.7973 -0.6661  0.2703
  373MOL0     C50225   7.680   1.781  10.478 -0.1940 -0.2613  1.4478
  373MOL0     C50226   7.592   1.880  10.430 -0.1106  0.1428 -0.2538
  373MOL0     C50227   7.516   1.853  10.310  0.0225  1.1504 -0.3334
  373MOL0     O50228   7.412   1.935  10.268  0.2254 -0.1883  0.1358
  373MOL0     C50229   7.443   2.075  10.260  0.2531 -0.1432 -0.2701
  373MOL0     C50230   7.401   2.150  10.386  0.3527  0.1264  0.3308
  373MOL0     C50231   7.519   2.236  10.436 -0.3161 -0.0937 -0.1205
  373MOL0     C50232   7.498   2.288  10.578  0.5926  0.6722  0.3172
  373MOL0     C50233   7.391   2.401  10.578 -0.1211 -0.0616 -0.2132
  373MOL0     C50234   7.389   2.468  10.713 -0.8513 -0.5660  0.9376
  373MOL0     C50235   7.271   2.565  10.716  0.7662  0.0101 -0.1509
  373MOL0     C50236   7.275   2.635  10.852 -0.5710  0.7574 -0.0194
  373MOL0     N50237   7.264   2.537  10.966  0.8999 -0.0914 -0.2611
  373MOL0     C50238   7.371   2.486  11.041  0.0559  0.2633  0.1642
  373MOL0     C50239   7.312   2.390  11.114  0.1276  0.0688  0.7344
  373MOL0     C50240   7.386   2.296  11.202 -0.4605 -1.1556  0.3559
  373MOL0     C50241   7.406   2.362  11.334 -0.6266  0.0774 -0.9014
  373MOL0     C50242   7.487   2.282  11.443  0.0428  0.2660  1.2457
  373MOL0     C50243   7.569   2.372  11.533  0.0440 -0.5128 -0.9176
  373MOL0     O50244   7.630   2.281  11.621  0.3642  0.2065 -0.8986
  373MOL0     C50245   7.715   2.317  11.722 -0.4783  0.1463 -0.9332
  373MOL0     C50246   7.771   2.218  11.795 -0.8210  0.1480  0.0450
  373MOL0     C50247   7.860   2.242  11.899 -0.2321  0.3800 -0.1160
  373MOL0     C50248   7.877   2.375  11.935  0.2684  0.9443 -0.1974
  373MOL0     C50249   7.947   2.406  12.064  0.0865 -0.2854 -0.0117
  373MOL0     O50250   8.074   2.451  12.053 -0.5641  0.5067 -0.8951
  373MOL0     C50251   8.150   2.498  12.161  0.5622  0.8398 -0.3857
  373MOL0     C50252   8.188   2.633  12.151 -0.7382 -0.7724  0.0255
  373MOL0     C50253   8.263   2.688  12.260 -0.7277  0.7578 -0.2318
  373MOL0     C50254   8.287   2.611  12.380  1.1795 -0.3478  0.2773
  373MOL0     O50255   8.343   2.681  12.485 -0.2710  0.6400  0.5318
  373MOL0     C50256   8.451   2.604  12.545  0.0605  0.9431  0.3282
  373MOL0     C50257   8.412   2.555  12.678  1.2860 -0.4988 -0.8693
  373MOL0     C50258   8.490   2.428  12.722  0.0526  0.0105 -0.7527
  373MOL0     C50259   8.442   2.377  12.863 -1.0379  1.2397  0.5373
  373MOL0     C50260   8.520   2.439  12.979 -0.0744 -0.0773  0.2803
  373MOL0     C50261   8.470   2.371  13.103 -0.5784 -0.7090  0.2587
  373MOL0     C50262   8.543   2.414  13.235 -0.5188  0.8411  0.9237
  373MOL0     C50263   8.520   2.561  13.279 -0.5894 -0.6641  0.3744
  373MOL0    Cl50264   8.602   2.595  13.447  0.1159 -0.1243  0.0735
  373MOL0     C50265   8.248   2.479  12.386  0.2515 -0.0099 -0.0107
  373MOL0     C50266   8.177   2.422  12.276  0.5099 -1.2846  0.1444
  373MOL0     O50267   7.880   2.395  12.168  1.1534 -0.6775 -0.2234
  373MOL0     C50268   7.821   2.479  11.861 -0.0390  1.0831 -0.5727
  373MOL0     C50269   7.742   2.455  11.754 -0.4931 -0.3267 -0.1503
  373MOL0     N50270   7.174   2.387  11.090  0.3680  0.8455  0.5474
  373MOL0     N50271   7.143   2.479  11.007 -0.1729 -0.4213 -0.8402
  373MOL0     C50272   7.531   1.735  10.244 -0.0677  0.8989  1.0636
  373MOL0     C50273   7.643   1.651  10.283  0.7933  0.1548  0.6678
  373MOL0     C50274   7.933   1.383  10.502  1.0966 -0.4267  1.2832
  373MOL0     C50275   8.045   1.460  10.538 -0.7164  0.0496 -0.1161
  373MOL0     C50276   8.148   1.396  10.608 -1.3453 -0.2445  1.4397
  373MOL0     C50277   8.152   1.261  10.646 -0.0279 -0.0791  0.2946
  373MOL0     O50278   8.245   1.208  10.724 -0.3665  0.8375 -0.7437
  373MOL0     C50279   8.377   1.182  10.653 -0.1788 -0.1498  0.0113
  373MOL0     C50280   8.363   1.049  10.574 -0.0602  0.6024 -0.1871
  373MOL0     C50281   8.306   0.932  10.652 -0.0716 -0.1179  0.9379
  373MOL0     C50282   8.261   0.811  10.567  0.4789  0.4565 -0.0189
  373MOL0     C50283   8.382   0.726  10.549  0.5954  0.2025 -0.1057
  373MOL0     C50284   8.484   0.657  10.546  0.5030  1.0277  0.1106
  373MOL0     C50285   8.048   1.187  10.597  0.1421 -0.3894 -0.6348
  373MOL0     C50286   7.943   1.242  10.522  0.4492 -0.0901 -0.4042
  373MOL0     C50287   7.840   1.139  10.461 -0.0747  0.7147  0.0537
  373MOL0     H50288   7.730   1.789  10.574  0.7073  0.0964  0.9632
  373MOL0     H50289   7.575   1.961  10.500 -1.2468  0.4096 -0.8184
  373MOL0     H50290   7.549   2.084  10.235  0.0072  0.3513 -1.1766
  373MOL0     H50291   7.392   2.133  10.183 -0.2343  1.3508  1.1196
  373MOL0     H50292   7.378   2.073  10.461  0.2527  1.4036  1.6512
  373MOL0     H50293   7.305   2.198  10.369  0.1605 -0.3765 -0.0187
  373MOL0     H50294   7.541   2.319  10.368  1.3878 -2.4395 -2.7071
  373MOL0     H50295   7.611   2.176  10.436 -0.6056 -0.7008 -2.9047
  373MOL0     H50296   7.472   2.204  10.642 -0.5874 -1.8441 -3.1286
  373MOL0     H50297   7.592   2.329  10.616  1.1997  1.0620 -1.4804
  373MOL0     H50298   7.412   2.476  10.501 -1.6810 -0.4525 -1.0725
  373MOL0     H50299   7.292   2.359  10.556 -0.1112  0.2564 -0.8840
  373MOL0     H50300   7.374   2.389  10.787 -5.7771 -1.4600 -0.6039
  373MOL0     H50301   7.478   2.530  10.724 -1.5231  0.0323  3.8447
  373MOL0     H50302   7.178   2.508  10.711 -0.3053  1.6534  0.2366
  373MOL0     H50303   7.281   2.638  10.636  1.4665 -0.0482 -0.1172
  373MOL0     H50304   7.371   2.687  10.863 -0.7578  0.7728  2.1737
  373MOL0     H50305   7.198   2.712  10.865  0.9202  2.0370  1.9355
  373MOL0     H50306   7.477   2.507  11.034 -0.2431  2.4704  1.3657
  373MOL0     H50307   7.321   2.208  11.211 -0.4189 -1.2474 -0.1804
  373MOL0     H50308   7.482   2.268  11.157 -0.4493 -2.0831  0.9399
  373MOL0     H50309   7.448   2.461  11.315  2.0646 -1.5798 -5.0401
  373MOL0     H50310   7.303   2.369  11.371 -0.1826  2.6984  0.0356
  373MOL0     H50311   7.553   2.207  11.398  2.2118  0.6726  3.5344
  373MOL0     H50312   7.418   2.225  11.506 -0.6567  1.6942  1.8126
  373MOL0     H50313   7.499   2.424  11.598  1.8741 -1.4886  2.0515
  373MOL0     H50314   7.630   2.443  11.475 -3.2822  1.9550 -1.6937
  373MOL0     H50315   7.772   2.114  11.762  1.8499  0.7925 -2.2213
  373MOL0     H50316   7.923   2.171  11.952 -1.1835 -1.7558 -1.7193
  373MOL0     H50317   8.186   2.693  12.061  1.3789 -0.9527 -0.1787
  373MOL0     H50318   8.293   2.791  12.240 -0.5180  1.2210  2.1881
  373MOL0     H50319   8.467   2.523  12.474  0.4159  2.5565 -1.5122
  373MOL0     H50320   8.550   2.650  12.558  1.0686 -0.1967 -2.5255
  373MOL0     H50321   8.410   2.642  12.744 -0.0085  0.7137 -2.4283
  373MOL0     H50322   8.306   2.536  12.662  1.1275  0.2895 -0.8187
  373MOL0     H50323   8.477   2.348  12.649  1.1111 -2.6030  1.7680
  373MOL0     H50324   8.598   2.448  12.724  0.3451 -1.2896 -2.0295
  373MOL0     H50325   8.467   2.271  12.870  1.0757  1.6347 -0.2106
  373MOL0     H50326   8.335   2.397  12.873 -1.7439 -0.5495 -2.2730
  373MOL0     H50327   8.522   2.548  12.985  1.5270 -0.1420  5.0741
  373MOL0     H50328   8.624   2.408  12.963 -0.2865  0.0536 -1.5536
  373MOL0     H50329   8.362   2.392  13.105 -0.1223  2.0255 -0.9115
  373MOL0     H50330   8.487   2.264  13.089  0.8140 -0.2963 -1.3551
  373MOL0     H50331   8.649   2.390  13.230 -0.9828 -1.5821  1.3652
  373MOL0     H50332   8.499   2.351  13.313  2.6916 -0.4966  1.8187
  373MOL0     H50333   8.578   2.615  13.203 -0.8119 -1.5294 -0.4282
  373MOL0     H50334   8.414   2.587  13.284 -0.4989 -0.4417  1.4852
  373MOL0     H50335   8.273   2.431  12.480 -1.4555  2.8109  2.0281
  373MOL0     H50336   8.147   2.318  12.282 -0.5654 -1.0491 -0.8856
  373MOL0     H50337   7.848   2.582  11.885  2.1550  0.7127 -1.2547
  373MOL0     H50338   7.710   2.541  11.697  1.6975 -0.5950 -1.9278
  373MOL0     H50339   7.466   1.715  10.160  1.0060 -0.0246  0.4117
  373MOL0     H50340   7.663   1.564  10.223  0.6637 -1.3696  2.7021
  373MOL0     H50341   8.055   1.566  10.516 -0.8746 -0.0621 -0.7444
  373MOL0     H50342   8.241   1.441  10.639  2.5367 -6.3107  0.4336
  373MOL0     H50343   8.447   1.156  10.733  0.3460 -1.3231 -0.8086
  373MOL0     H50344   8.415   1.264  10.592  0.5462  1.6390  2.7006
  373MOL0     H50345   8.453   1.024  10.518 -1.5272  2.3525 -3.6155
  373MOL0     H50346   8.288   1.073  10.498 -1.3278 -0.5690  0.6429
  373MOL0     H50347   8.219   0.961  10.712 -1.5911 -0.4416 -1.0172
  373MOL0     H50348   8.380   0.903  10.726  1.6210  1.9425  0.1590
  373MOL0     H50349   8.193   0.759  10.633  2.3379 -0.1402  1.5238
  373MOL0     H50350   8.211   0.831  10.472 -0.9548 -2.9158 -0.0972
  373MOL0     H50351   8.569   0.593  10.550  0.2766  0.6302 -1.0794
  373MOL0     H50352   8.039   1.082  10.624  1.3692  0.1960  2.4699
  373MOL0     H50353   7.766   1.100  10.532 -1.1412 -0.7613 -1.7435
  373MOL0     H50354   7.788   1.174  10.371 -0.6137  0.9717  0.4544
  373MOL0     H50355   7.898   1.054  10.424 -3.7251 -2.3756  0.7763
  374MOL0     O50356   1.815   8.482   7.597  0.4530 -0.0451  1.6394
  374MOL0     C50357   1.881   8.405   7.670 -0.0337  0.1162 -0.3445
  374MOL0     O50358   1.831   8.309   7.754 -0.0586  0.7583 -1.1835
  374MOL0     C50359   1.696   8.273   7.749 -0.0209 -0.3036  0.3079
  374MOL0     C50360   1.596   8.357   7.802  0.6840 -0.4818  0.1547
  374MOL0     C50361   1.464   8.329   7.799 -0.4766  0.8026 -0.1736
  374MOL0     C50362   1.421   8.208   7.731  0.2908 -0.5041 -0.2759
  374MOL0     O50363   1.283   8.184   7.720  0.2471  0.1482 -0.1123
  374MOL0     C50364   1.233   8.071   7.645  0.0551  0.7856 -0.7781
  374MOL0     C50365   1.086   8.043   7.696  0.6445  0.1051  0.5810
  374MOL0     C50366   1.083   7.978   7.836  0.1164 -0.3276  0.5675
  374MOL0     C50367   1.140   7.840   7.847 -0.3894  0.1576  1.0444
  374MOL0     C50368   1.122   7.776   7.982  0.2441 -0.6115 -0.2714
  374MOL0     C50369   1.161   7.627   7.993 -0.6752 -0.3148 -0.3186
  374MOL0     C50370   1.160   7.589   8.139 -0.7658  0.5084 -0.0685
  374MOL0     C50371   1.207   7.443   8.169 -0.2762  0.6229 -0.4106
  374MOL0     N50372   1.129   7.345   8.101  0.6392  1.4261  0.2550
  374MOL0     C50373   1.017   7.296   8.154  0.6257 -0.5664 -0.1954
  374MOL0     C50374   0.956   7.227   8.060  0.4259  0.5200 -0.1520
  374MOL0     C50375   0.818   7.164   8.050 -0.6015 -1.8711  0.0865
  374MOL0     C50376   0.831   7.019   8.069  0.2234  0.2676 -0.1466
  374MOL0     C50377   0.694   6.966   8.102  0.8554 -0.1014  1.0908
  374MOL0     C50378   0.686   6.820   8.091 -0.4143  0.2754 -0.0389
  374MOL0     O50379   0.594   6.761   8.188  0.0368  1.0336 -0.3214
  374MOL0     C50380   0.452   6.762   8.167  0.0037 -0.1865 -0.1110
  374MOL0     C50381   0.379   6.784   8.049  0.3547 -0.1273  0.3742
  374MOL0     C50382   0.238   6.784   8.047  0.2306  0.6818 -0.7827
  374MOL0     C50383   0.158   6.752   8.163  0.4361  0.1969  0.9114
  374MOL0     C50384   0.013   6.738   8.153  0.6498  1.2313  0.2892
  374MOL0     O50385  -0.053   6.726   8.280  0.4199 -0.1146  0.5097
  374MOL0     C50386  -0.191   6.703   8.263  0.1991  0.2132 -0.5623
  374MOL0     C50387  -0.248   6.586   8.210 -0.1725  0.4320 -0.8812
  374MOL0     C50388  -0.382   6.573   8.203 -0.5071  0.6585  0.5672
  374MOL0     C50389  -0.469   6.655   8.273  0.1813  0.3487 -0.2146
  374MOL0     O50390  -0.604   6.631   8.253 -0.0073  0.1245  0.2280
  374MOL0     C50391  -0.708   6.693   8.331  0.6664 -0.1434 -0.1191
  374MOL0     C50392  -0.838   6.675   8.256  0.4765  0.2062  0.2525
  374MOL0     C50393  -0.857   6.534   8.204  0.1799 -0.8019 -0.0417
  374MOL0     C50394  -1.004   6.515   8.150 -0.2706  0.3212 -0.2079
  374MOL0     C50395  -1.026   6.394   8.065 -0.1962 -0.0039  0.5139
  374MOL0     C50396  -1.153   6.392   7.992 -0.6169 -1.0397  0.0532
  374MOL0     C50397  -1.147   6.303   7.861  0.3842 -0.5470  0.3776
  374MOL0     C50398  -1.184   6.156   7.885 -0.2956 -0.4249 -0.0943
  374MOL0    Cl50399  -1.050   6.059   7.928  0.5427  0.2658  0.2044
  374MOL0     C50400  -0.414   6.756   8.354  0.2121 -0.4440  0.1179
  374MOL0     C50401  -0.274   6.779   8.345 -0.1883  0.6058  0.0609
  374MOL0     O50402  -0.038   6.728   8.044  0.3694 -0.1385  0.0514
  374MOL0     C50403   0.235   6.749   8.280  0.7724 -0.0470 -0.9058
  374MOL0     C50404   0.373   6.757   8.287  0.1153 -0.0409  0.2141
  374MOL0     N50405   1.028   7.229   7.945  0.3086 -0.8706  0.0592
  374MOL0     N50406   1.132   7.299   7.971 -0.7811  0.1602 -0.0354
  374MOL0     C50407   1.521   8.126   7.676  1.1422 -0.4479  0.1520
  374MOL0     C50408   1.661   8.155   7.684 -0.9542 -0.2454  1.1132
  374MOL0     C50409   2.032   8.425   7.715  0.2727  0.1803 -0.3857
  374MOL0     C50410   2.059   8.410   7.857  0.4657  0.2649 -0.4970
  374MOL0     C50411   2.194   8.411   7.896 -0.0659  0.1756 -0.0711
  374MOL0     C50412   2.299   8.415   7.808 -0.0458 -1.0591  0.4813
  374MOL0     O50413   2.420   8.403   7.872  0.1231 -0.2072  0.1441
  374MOL0     C50414   2.533   8.383   7.793  0.3043  0.2141  0.3016
  374MOL0     C50415   2.624   8.288   7.867  0.2676 -0.0760  1.0919
  374MOL0     C50416   2.772   8.308   7.832  0.2471  0.1272 -0.0279
  374MOL0     C50417   2.814   8.239   7.708 -0.2820  0.2691  0.4389
  374MOL0     C50418   2.944   8.272   7.654 -0.1901  0.0848  0.7960
  374MOL0     C50419   3.058   8.304   7.613 -0.1765  1.8514 -0.1391
  374MOL0     C50420   2.263   8.433   7.671  0.3990  0.6127  1.4152
  374MOL0     C50421   2.136   8.459   7.628 -0.1856  1.3258  0.8064
  374MOL0     C50422   2.121   8.486   7.484  1.1920 -1.3075  0.7127
  374MOL0     H50423   1.624   8.444   7.861 -1.7748 -0.7329  1.8487
  374MOL0     H50424   1.398   8.400   7.849  0.4890  1.7869 -0.2433
  374MOL0     H50425   1.238   8.102   7.540  3.0632 -1.9717 -1.6329
  374MOL0     H50426   1.288   7.977   7.660 -0.1524  0.8898  0.7661
  374MOL0     H50427   1.051   7.981   7.613 -0.6308 -0.3590  1.4286
  374MOL0     H50428   1.032   8.138   7.697  0.7890  0.2176 -0.8680
  374MOL0     H50429   0.979   7.981   7.869 -0.4397  0.1759 -1.1311
  374MOL0     H50430   1.133   8.043   7.909  2.3122 -1.0183 -0.2270
  374MOL0     H50431   1.100   7.774   7.769  0.5773  0.5058  0.2245
  374MOL0     H50432   1.245   7.866   7.835 -0.5825  0.9234  0.9447
  374MOL0     H50433   1.171   7.833   8.062  0.5633 -1.4297  0.1240
  374MOL0     H50434   1.019   7.794   8.014  0.3858  0.4127 -0.3625
  374MOL0     H50435   1.094   7.566   7.933 -1.6865  1.3302 -0.9377
  374MOL0     H50436   1.253   7.599   7.941 -2.5798 -2.8675 -2.5375
  374MOL0     H50437   1.057   7.593   8.176 -1.0806 -1.7954 -0.4948
  374MOL0     H50438   1.232   7.654   8.189  0.9063  2.7627 -4.8055
  374MOL0     H50439   1.308   7.422   8.132 -1.4274 -0.3741 -3.3291
  374MOL0     H50440   1.192   7.440   8.277  2.1494  5.1573  0.2818
  374MOL0     H50441   0.965   7.317   8.246 -0.4079  0.8091 -1.0689
  374MOL0     H50442   0.739   7.216   8.106  0.7798  0.0552  0.3381
  374MOL0     H50443   0.774   7.191   7.953  0.5594  1.6985  0.4093
  374MOL0     H50444   0.866   6.967   7.979 -1.8693  0.9198 -1.4078
  374MOL0     H50445   0.892   7.002   8.158 -0.5277  0.3343  0.3862
  374MOL0     H50446   0.621   7.021   8.042  4.1348  4.7098  0.8662
  374MOL0     H50447   0.675   6.985   8.208  0.0908 -1.4814  1.2156
  374MOL0     H50448   0.784   6.771   8.094 -0.9740 -0.8474  0.9406
  374MOL0     H50449   0.653   6.788   7.992 -3.5040 -1.7549  1.4909
  374MOL0     H50450   0.439   6.821   7.967 -0.2802  1.6226  0.6615
  374MOL0     H50451   0.193   6.824   7.957 -0.1907  0.4090 -0.6969
  374MOL0     H50452  -0.183   6.511   8.165 -1.6890 -1.1796 -0.5062
  374MOL0     H50453  -0.423   6.501   8.133  0.8293  2.0743 -1.8510
  374MOL0     H50454  -0.702   6.642   8.428  1.6250  1.2766  0.6016
  374MOL0     H50455  -0.687   6.799   8.347  0.7344 -0.2640  0.6284
  374MOL0     H50456  -0.912   6.714   8.327 -1.5142 -1.2641 -0.9274
  374MOL0     H50457  -0.834   6.738   8.167 -1.5687 -2.6525 -2.0210
  374MOL0     H50458  -0.788   6.512   8.122 -0.0459  1.2463 -0.8470
  374MOL0     H50459  -0.842   6.475   8.294 -0.3273 -1.5947 -0.4665
  374MOL0     H50460  -1.037   6.604   8.096 -0.6811  0.7276  0.6875
  374MOL0     H50461  -1.081   6.499   8.226 -3.5225  2.2763 -2.8000
  374MOL0     H50462  -1.030   6.298   8.118 -2.6864  0.3944  1.1609
  374MOL0     H50463  -0.945   6.386   7.991 -1.2529 -0.9933 -0.5904
  374MOL0     H50464  -1.242   6.372   8.052 -0.9169 -0.0823 -0.0547
  374MOL0     H50465  -1.158   6.493   7.949  0.7791  1.7103  5.4940
  374MOL0     H50466  -1.053   6.303   7.805  0.0160 -0.4250 -0.2415
  374MOL0     H50467  -1.206   6.333   7.775  1.5439 -1.2282 -0.6945
  374MOL0     H50468  -1.246   6.149   7.974  0.4820  0.2841  0.5159
  374MOL0     H50469  -1.219   6.123   7.786  3.2171  2.4176 -2.5289
  374MOL0     H50470  -0.484   6.826   8.399  0.6340  0.3446 -0.4075
  374MOL0     H50471  -0.228   6.862   8.399 -0.6055 -0.6483  2.5104
  374MOL0     H50472   0.182   6.742   8.374 -2.6495 -0.1178 -2.6962
  374MOL0     H50473   0.421   6.736   8.382 -1.0441  0.4173  0.9201
  374MOL0     H50474   1.496   8.029   7.634  0.8469 -0.8088  1.1204
  374MOL0     H50475   1.730   8.084   7.640  2.0408  2.1477  1.5798
  374MOL0     H50476   1.987   8.393   7.936 -2.1883  3.3113 -2.0724
  374MOL0     H50477   2.218   8.396   8.000  2.4387  0.7007 -0.5243
  374MOL0     H50478   2.574   8.483   7.778 -0.8600  0.5799 -0.6978
  374MOL0     H50479   2.518   8.341   7.693  5.5222  0.4173 -0.8444
  374MOL0     H50480   2.596   8.184   7.849  1.4920  0.1301 -3.0900
  374MOL0     H50481   2.633   8.291   7.976  1.6004 -0.3383  1.0125
  374MOL0     H50482   2.830   8.269   7.916  0.7715  0.7137 -0.1072
  374MOL0     H50483   2.805   8.411   7.817 -1.0550  0.5783  0.1129
  374MOL0     H50484   2.790   8.133   7.723 -0.3494  0.0766 -0.8507
  374MOL0     H50485   2.758   8.283   7.625  0.8275  2.1362  0.6234
  374MOL0     H50486   3.156   8.336   7.583  0.3463 -0.7094 -1.4187
  374MOL0     H50487   2.338   8.437   7.592 -1.2450  0.4909 -0.2158
  374MOL0     H50488   2.200   8.556   7.452 -1.8992  1.1919 -2.2620
  374MOL0     H50489   2.121   8.395   7.423 -1.2522  1.9013 -4.9401
  374MOL0     H50490   2.033   8.547   7.461  0.9185 -0.7053  3.1544
  375MOL0     O50491  11.182   5.794  10.621  0.1589  0.1046 -0.0574
  375MOL0     C50492  11.090   5.876  10.599 -0.8480 -0.7584 -0.7961
  375MOL0     O50493  11.063   5.940  10.480  0.3484 -0.0088  0.1531
  375MOL0     C50494  11.131   5.894  10.369 -0.0490 -0.9336  0.5699
  375MOL0     C50495  11.273   5.874  10.352  0.1020  0.2977  0.6626
  375MOL0     C50496  11.333   5.838  10.227  1.0226 -0.7614 -0.1905
  375MOL0     C50497  11.247   5.806  10.119 -0.3141  0.3740  1.0030
  375MOL0     O50498  11.286   5.758   9.995 -0.2846 -0.9459 -0.4960
  375MOL0     C50499  11.421   5.780   9.963  0.1219  0.1873  0.6698
  375MOL0     C50500  11.457   5.733   9.819 -0.0927  0.6423  0.2174
  375MOL0     C50501  11.413   5.589   9.799 -0.5496  0.0700  0.6869
  375MOL0     C50502  11.445   5.533   9.655  0.3649  0.9862  0.9846
  375MOL0     C50503  11.366   5.618   9.552  0.1225  0.7803  0.0544
  375MOL0     C50504  11.339   5.540   9.420  0.8951  0.0257  0.2143
  375MOL0     C50505  11.304   5.644   9.311 -0.1023  0.7650 -0.5476
  375MOL0     C50506  11.218   5.572   9.205  0.1355  0.2862  0.4147
  375MOL0     N50507  11.212   5.653   9.088  0.4468  0.0055 -0.1508
  375MOL0     C50508  11.227   5.787   9.066 -0.5780 -0.2848  0.8052
  375MOL0     C50509  11.216   5.804   8.930 -0.6567  0.2103 -1.1503
  375MOL0     C50510  11.246   5.937   8.865 -0.3887  0.4954  0.3415
  375MOL0     C50511  11.320   5.914   8.728  0.0855  0.1777  0.3321
  375MOL0     C50512  11.472   5.889   8.745  0.2239 -0.2793  0.7708
  375MOL0     C50513  11.514   5.824   8.608 -0.3765 -0.2876 -0.4879
  375MOL0     O50514  11.650   5.791   8.627 -0.5574 -0.3353 -0.0986
  375MOL0     C50515  11.724   5.707   8.545 -1.2253 -0.4790  0.5403
  375MOL0     C50516  11.864   5.691   8.566  0.0752 -0.2929  0.5209
  375MOL0     C50517  11.949   5.623   8.487  0.3117  0.1071  0.6222
  375MOL0     C50518  11.902   5.540   8.388  0.3830 -0.3881 -0.7087
  375MOL0     C50519  11.985   5.430   8.334  0.4128  0.2160 -0.0782
  375MOL0     O50520  11.914   5.329   8.269  0.2164  0.1041 -0.6829
  375MOL0     C50521  11.979   5.243   8.188  0.2091  0.5274  0.2284
  375MOL0     C50522  12.090   5.267   8.104  0.5217 -0.1260  0.5184
  375MOL0     C50523  12.142   5.152   8.041 -0.4984  0.5981 -0.4028
  375MOL0     C50524  12.093   5.023   8.057 -1.2476  1.0424 -1.2795
  375MOL0     O50525  12.139   4.909   7.989 -0.4283 -0.2229 -0.0509
  375MOL0     C50526  12.270   4.908   7.930  0.4585 -1.2457 -0.3005
  375MOL0     C50527  12.317   4.768   7.880  0.3278  0.5053  0.3444
  375MOL0     C50528  12.401   4.776   7.761  1.0302  0.5827  0.5677
  375MOL0     C50529  12.535   4.843   7.792  0.1283  0.9883  0.2535
  375MOL0     C50530  12.624   4.851   7.672 -0.0438 -0.8457  0.1890
  375MOL0     C50531  12.674   4.705   7.625 -0.3975 -0.0737 -0.1220
  375MOL0     C50532  12.815   4.713   7.559  0.8554 -0.6752  0.2380
  375MOL0     C50533  12.840   4.585   7.478  1.0191 -0.6410  0.2644
  375MOL0    Cl50534  12.995   4.614   7.390 -0.3553 -0.0076  0.2587
  375MOL0     C50535  11.986   5.012   8.136 -1.2892  1.3740 -0.3738
  375MOL0     C50536  11.930   5.113   8.199 -0.3532 -0.2948  0.8525
  375MOL0     O50537  12.103   5.428   8.364 -0.3761 -0.1507  0.4582
  375MOL0     C50538  11.766   5.550   8.364  0.1182  0.3374  0.8605
  375MOL0     C50539  11.675   5.630   8.436  0.5604 -0.2891 -0.3130
  375MOL0     N50540  11.176   5.682   8.875 -0.1695 -0.3982  0.0217
  375MOL0     N50541  11.167   5.599   8.976  0.7458 -0.4914  0.2875
  375MOL0     C50542  11.110   5.829  10.133 -0.8513 -0.8870  0.1215
  375MOL0     C50543  11.061   5.881  10.250  0.7826  0.4342 -0.2126
  375MOL0     C50544  11.000   5.916  10.719  0.0002 -0.0908 -0.7046
  375MOL0     C50545  11.068   5.924  10.849  0.5544 -0.7521 -0.3737
  375MOL0     C50546  10.991   5.968  10.957  0.0295  1.3727  0.0063
  375MOL0     C50547  10.853   5.990  10.945 -0.0343  0.4905  0.4153
  375MOL0     O50548  10.788   6.025  11.057  0.5574  0.1556  0.3126
  375MOL0     C50549  10.834   6.147  11.124  0.7762 -0.6292 -0.3707
  375MOL0     C50550  10.742   6.262  11.078  0.3098  0.4808  0.5040
  375MOL0     C50551  10.592   6.239  11.063  0.7267 -0.0734 -0.9146
  375MOL0     C50552  10.524   6.367  11.022  0.3161  0.1491 -0.7590
  375MOL0     C50553  10.382   6.358  10.988 -0.1455 -0.6803 -0.1400
  375MOL0     C50554  10.262   6.364  10.973  0.1416  0.2843  0.0977
  375MOL0     C50555  10.788   5.980  10.820  0.5953 -0.4312  0.4303
  375MOL0     C50556  10.858   5.946  10.711 -0.9007 -0.3399  0.4331
  375MOL0     C50557  10.791   5.909  10.580  0.1658 -0.7356 -0.4172
  375MOL0     H50558  11.352   5.886  10.425  2.6526  1.5762 -2.1137
  375MOL0     H50559  11.441   5.835  10.226  1.0134 -1.6321 -1.9875
  375MOL0     H50560  11.455   5.884   9.957 -0.9439  0.4765 -2.6957
  375MOL0     H50561  11.483   5.721  10.032 -2.4873 -1.0122  2.1420
  375MOL0     H50562  11.564   5.747   9.803 -0.2438 -0.3699 -2.0256
  375MOL0     H50563  11.414   5.793   9.738 -1.9969 -1.4356 -0.4281
  375MOL0     H50564  11.310   5.576   9.832  0.1349  0.2841  3.1152
  375MOL0     H50565  11.471   5.521   9.863  2.3463  0.9097 -0.8479
  375MOL0     H50566  11.550   5.545   9.629 -0.2047  3.0189 -0.7073
  375MOL0     H50567  11.421   5.426   9.651 -0.7203  1.2452 -1.7111
  375MOL0     H50568  11.267   5.635   9.597  1.5282 -0.3136  3.9520
  375MOL0     H50569  11.413   5.717   9.547  0.0442  0.8342  0.3570
  375MOL0     H50570  11.410   5.462   9.393 -1.6456 -2.1751 -0.4632
  375MOL0     H50571  11.248   5.485   9.446 -0.9032  3.2901  1.4782
  375MOL0     H50572  11.404   5.664   9.272  0.2028 -0.6069 -0.5119
  375MOL0     H50573  11.264   5.738   9.350  4.4754  2.2969  1.0518
  375MOL0     H50574  11.260   5.472   9.190  1.6258  0.4862  2.7508
  375MOL0     H50575  11.121   5.545   9.248 -0.0427 -1.8569 -1.1476
  375MOL0     H50576  11.251   5.863   9.140  0.8582 -2.8382  3.1785
  375MOL0     H50577  11.149   5.980   8.837  0.5066  0.9859 -2.3413
  375MOL0     H50578  11.305   6.002   8.930  2.2373  0.7869 -2.1291
  375MOL0     H50579  11.275   5.831   8.672  1.6617 -0.2738 -0.3171
  375MOL0     H50580  11.297   5.994   8.657 -1.9665 -0.7042 -0.0822
  375MOL0     H50581  11.493   5.815   8.822  0.3872 -1.0590 -0.0131
  375MOL0     H50582  11.527   5.983   8.762  0.8840 -0.6671  0.8208
  375MOL0     H50583  11.507   5.895   8.525  0.3386 -0.6028 -0.8296
  375MOL0     H50584  11.453   5.738   8.578 -2.7883  1.2412 -0.2119
  375MOL0     H50585  11.909   5.733   8.655  1.4657 -0.9257  0.1382
  375MOL0     H50586  12.053   5.621   8.517  0.9123 -1.4478 -1.3830
  375MOL0     H50587  12.137   5.365   8.099  0.8775 -0.1876  2.0700
  375MOL0     H50588  12.236   5.157   7.986 -0.0520  1.3926  0.3886
  375MOL0     H50589  12.269   4.968   7.838  0.1835  0.2522  0.6437
  375MOL0     H50590  12.349   4.953   7.991 -0.1880 -0.7763  0.2048
  375MOL0     H50591  12.377   4.718   7.956 -0.3217  0.8482  1.1020
  375MOL0     H50592  12.222   4.715   7.867  0.2674 -0.0820  2.6888
  375MOL0     H50593  12.409   4.672   7.728 -0.5531  0.8930 -0.9590
  375MOL0     H50594  12.350   4.824   7.677 -0.5357 -5.6535 -2.6185
  375MOL0     H50595  12.578   4.792   7.878 -0.0875 -2.2643 -1.4254
  375MOL0     H50596  12.530   4.948   7.824  1.2563  1.2080 -0.2270
  375MOL0     H50597  12.712   4.912   7.690 -1.2146  1.2888 -0.8931
  375MOL0     H50598  12.569   4.902   7.593 -0.3915  2.1547  2.1957
  375MOL0     H50599  12.671   4.630   7.705 -1.0765  0.9770  0.8582
  375MOL0     H50600  12.605   4.682   7.543 -1.5836  0.0684  0.8079
  375MOL0     H50601  12.888   4.714   7.640  2.7701 -2.4798 -1.3439
  375MOL0     H50602  12.818   4.803   7.497 -0.2954 -1.5340 -1.1390
  375MOL0     H50603  12.851   4.495   7.540  3.0988  0.4690  1.6105
  375MOL0     H50604  12.764   4.572   7.400 -0.0613  2.4959  0.6739
  375MOL0     H50605  11.946   4.912   8.149 -0.8290  1.1875 -0.3751
  375MOL0     H50606  11.841   5.092   8.257 -0.5160 -3.7769 -0.4740
  375MOL0     H50607  11.712   5.477   8.304  0.3666 -1.2565  2.4808
  375MOL0     H50608  11.567   5.638   8.432  0.5390  0.4390  0.9624
  375MOL0     H50609  11.059   5.808  10.040 -1.7664 -2.2752  0.8980
  375MOL0     H50610  10.957   5.909  10.254  0.7173  0.3115 -0.9760
  375MOL0     H50611  11.175   5.910  10.852  0.5994 -0.7893 -1.5656
  375MOL0     H50612  11.032   5.986  11.056 -1.9136  0.1886  1.1111
  375MOL0     H50613  10.937   6.172  11.096  0.6705  1.5216  0.9039
  375MOL0     H50614  10.819   6.129  11.231  0.0989 -0.3387 -0.4118
  375MOL0     H50615  10.785   6.282  10.980 -1.1857  0.8460 -0.1156
  375MOL0     H50616  10.762   6.347  11.143  1.1102  0.7117 -0.0260
  375MOL0     H50617  10.545   6.207  11.156  2.1481  0.2172 -0.0639
  375MOL0     H50618  10.560   6.160  10.994 -1.3208 -0.3367  0.2326
  375MOL0     H50619  10.554   6.426  11.110 -2.5632  2.9464 -1.4675
  375MOL0     H50620  10.582   6.409  10.939  0.9312 -1.3183 -1.0873
  375MOL0     H50621  10.156   6.361  10.955  0.3825  1.8231 -1.9638
  375MOL0     H50622  10.680   5.994  10.820  0.5178 -0.9748  0.9966
  375MOL0     H50623  10.684   5.906  10.602 -0.0129 -0.7998 -1.2748
  375MOL0     H50624  10.797   5.983  10.499  0.8141  0.5987  0.8084
  375MOL0     H50625  10.812   5.806  10.550  4.1492 -0.3913  0.6594
  376MOL0     O50626   8.640  10.127   3.107  0.4884  0.2533 -0.3804
  376MOL0     C50627   8.577  10.056   3.184  0.4393 -0.7895 -0.7538
  376MOL0     O50628   8.508   9.940   3.145 -0.0480 -0.3695 -0.0992
  376MOL0     C50629   8.491   9.883   3.020  0.1263 -0.7385  0.3506
  376MOL0     C50630   8.420   9.955   2.925 -0.1772  0.4948  0.5939
  376MOL0     C50631   8.408   9.905   2.799  1.2660  0.4344  0.6734
  376MOL0     C50632   8.463   9.782   2.761 -0.0121  0.0486 -0.3278
  376MOL0     O50633   8.430   9.719   2.644  0.2724 -0.1014 -0.1092
  376MOL0     C50634   8.324   9.766   2.567  0.3008  0.1514 -0.3428
  376MOL0     C50635   8.298   9.664   2.453 -0.5383  0.2581  0.2385
  376MOL0     C50636   8.421   9.630   2.376 -0.2742  0.5735  1.0434
  376MOL0     C50637   8.388   9.524   2.265 -0.2820  0.6201 -0.4082
  376MOL0     C50638   8.497   9.521   2.154 -0.3441 -0.6123  0.6985
  376MOL0     C50639   8.488   9.656   2.080 -1.1339  0.9036  0.2749
  376MOL0     C50640   8.564   9.643   1.952 -0.4898  1.0221 -0.6059
  376MOL0     C50641   8.604   9.776   1.905  0.3481 -0.1143  0.7843
  376MOL0     N50642   8.684   9.763   1.781 -0.9387 -0.0698  0.5988
  376MOL0     C50643   8.638   9.800   1.657 -0.7969 -0.1201 -0.2030
  376MOL0     C50644   8.743   9.819   1.584 -0.7013  0.5244 -0.5830
  376MOL0     C50645   8.730   9.870   1.440  0.9612  0.7247 -1.7376
  376MOL0     C50646   8.771   9.757   1.340 -0.3018 -0.3873  0.0400
  376MOL0     C50647   8.643   9.667   1.317  0.2274  0.3090 -0.3034
  376MOL0     C50648   8.665   9.589   1.193 -0.7258  0.1912 -0.3877
  376MOL0     O50649   8.544   9.535   1.145  0.4554 -0.1577  1.0122
  376MOL0     C50650   8.549   9.466   1.026 -0.4028 -0.5497 -0.2504
  376MOL0     C50651   8.439   9.376   1.001 -0.0986  0.2882  0.3747
  376MOL0     C50652   8.439   9.297   0.881  0.1500  0.3724 -0.9052
  376MOL0     C50653   8.550   9.301   0.785 -0.4014  0.1417 -0.2500
  376MOL0     C50654   8.561   9.214   0.664 -0.2846 -0.8806 -0.6692
  376MOL0     O50655   8.680   9.226   0.594 -0.1269 -0.3874 -0.7205
  376MOL0     C50656   8.680   9.148   0.475  0.6436 -1.0153  0.6134
  376MOL0     C50657   8.618   9.019   0.445  0.3416  1.2245  0.6908
  376MOL0     C50658   8.644   8.970   0.319  0.4391 -0.1362  0.4057
  376MOL0     C50659   8.730   9.022   0.221  0.3257  0.5616  1.2304
  376MOL0     O50660   8.741   8.936   0.114  0.9531  0.5565 -0.3636
  376MOL0     C50661   8.811   8.992  -0.002 -0.2010 -0.9243 -0.2154
  376MOL0     C50662   8.824   8.863  -0.092  1.0860  0.6174  0.3118
  376MOL0     C50663   8.679   8.802  -0.126 -0.3558  0.7099  0.6108
  376MOL0     C50664   8.674   8.672  -0.217  0.0685 -0.1782 -0.2011
  376MOL0     C50665   8.529   8.630  -0.245  0.6401  0.0909 -0.1607
  376MOL0     C50666   8.518   8.496  -0.329  0.2834  0.1152  0.7906
  376MOL0     C50667   8.584   8.365  -0.281 -0.3115 -1.1836 -1.3272
  376MOL0     C50668   8.506   8.300  -0.157 -0.0541 -0.1372  0.0983
  376MOL0    Cl50669   8.516   8.370  -0.003  0.6263  0.2861 -0.4537
  376MOL0     C50670   8.772   9.160   0.242 -0.2426  1.0449  0.0671
  376MOL0     C50671   8.748   9.213   0.366  0.3068  1.6159  0.0625
  376MOL0     O50672   8.457   9.154   0.627  0.3584 -0.2729  1.1121
  376MOL0     C50673   8.656   9.392   0.819 -0.7859  0.2391 -0.1385
  376MOL0     C50674   8.658   9.471   0.934  0.4658  0.8453  0.3556
  376MOL0     N50675   8.859   9.798   1.645 -0.6149 -0.4407  0.5088
  376MOL0     N50676   8.823   9.774   1.766 -0.1379 -0.6136 -0.0969
  376MOL0     C50677   8.545   9.713   2.849 -0.1673 -1.1650  0.2196
  376MOL0     C50678   8.557   9.763   2.980 -0.1435  0.1961  0.2945
  376MOL0     C50679   8.568  10.079   3.335 -0.0760  0.1630  1.1101
  376MOL0     C50680   8.683  10.112   3.410 -0.6627  0.0269  0.7337
  376MOL0     C50681   8.681  10.118   3.544  0.0186  0.8350  0.1867
  376MOL0     C50682   8.560  10.101   3.611 -0.1124 -0.4534 -0.3131
  376MOL0     O50683   8.559  10.112   3.750  0.1859 -0.6295  0.3695
  376MOL0     C50684   8.468  10.208   3.803  0.2180 -0.2700  1.1982
  376MOL0     C50685   8.407  10.157   3.933 -0.8885 -0.0640  0.2598
  376MOL0     C50686   8.407  10.001   3.932 -0.0550  0.1673 -0.0652
  376MOL0     C50687   8.323   9.923   4.039 -0.3394  0.3335 -0.1433
  376MOL0     C50688   8.354   9.775   4.022 -0.0831  0.4065  0.1049
  376MOL0     C50689   8.371   9.654   4.005  1.1185 -0.8455 -1.0487
  376MOL0     C50690   8.453  10.071   3.537 -0.1637  0.0944 -0.6364
  376MOL0     C50691   8.443  10.064   3.402  0.3096 -0.1628  0.7441
  376MOL0     C50692   8.314  10.044   3.328 -0.4421  0.1145 -1.1252
  376MOL0     H50693   8.396  10.059   2.944 -0.4041  0.5564  0.0063
  376MOL0     H50694   8.354   9.970   2.731  0.1011  2.1232  3.0443
  376MOL0     H50695   8.233   9.778   2.625 -0.8878 -1.4734 -1.7643
  376MOL0     H50696   8.360   9.864   2.533  1.4498  0.7287  2.2820
  376MOL0     H50697   8.229   9.704   2.378  2.2287  0.9238 -2.1733
  376MOL0     H50698   8.257   9.571   2.492  0.7544 -1.5956 -2.5123
  376MOL0     H50699   8.504   9.600   2.441  0.6326  0.1913 -0.2421
  376MOL0     H50700   8.456   9.723   2.329  1.6786 -0.0697  1.1348
  376MOL0     H50701   8.378   9.425   2.312  1.0417 -0.2804 -1.9156
  376MOL0     H50702   8.288   9.533   2.221  0.5427 -0.9332 -2.7497
  376MOL0     H50703   8.598   9.497   2.189 -1.0434 -4.6684  0.3972
  376MOL0     H50704   8.471   9.446   2.079 -1.1003  1.4744 -1.2172
  376MOL0     H50705   8.385   9.694   2.077 -0.4801  2.6939 -1.7527
  376MOL0     H50706   8.535   9.733   2.142 -3.8725  1.5195  1.7596
  376MOL0     H50707   8.492   9.597   1.884  1.8310 -3.3014 -0.4705
  376MOL0     H50708   8.652   9.580   1.965 -0.7033  0.7557 -0.4440
  376MOL0     H50709   8.514   9.834   1.885  1.3287  0.9281 -0.7378
  376MOL0     H50710   8.661   9.831   1.981 -2.0684  2.5026  0.9043
  376MOL0     H50711   8.530   9.810   1.647 -0.8682  0.2986  0.9090
  376MOL0     H50712   8.630   9.906   1.415 -0.0432 -0.0835  0.8017
  376MOL0     H50713   8.788   9.962   1.428 -2.8927  3.1724 -3.4178
  376MOL0     H50714   8.800   9.799   1.244 -4.1582  2.3591 -0.1560
  376MOL0     H50715   8.856   9.703   1.382  0.2290  0.5400  0.1852
  376MOL0     H50716   8.552   9.727   1.308  0.2120  0.1417 -1.4686
  376MOL0     H50717   8.619   9.604   1.403 -0.5240  1.4225  0.3294
  376MOL0     H50718   8.734   9.506   1.213  0.0251 -0.3530 -4.4664
  376MOL0     H50719   8.700   9.664   1.122  1.2028  0.3136  0.6197
  376MOL0     H50720   8.354   9.377   1.068  1.2343 -0.0191  2.1599
  376MOL0     H50721   8.356   9.231   0.857 -0.3646  0.4039  0.6945
  376MOL0     H50722   8.555   8.952   0.502 -0.8899  1.6402 -0.1514
  376MOL0     H50723   8.614   8.866   0.306  1.3562 -0.2164 -1.5970
  376MOL0     H50724   8.751   9.077  -0.037 -2.8819 -1.1076  3.3963
  376MOL0     H50725   8.913   9.022   0.024  1.3331 -3.4700 -2.7098
  376MOL0     H50726   8.867   8.894  -0.188  2.1339  2.8276  1.4163
  376MOL0     H50727   8.893   8.789  -0.051  2.7484  0.6302 -2.2146
  376MOL0     H50728   8.631   8.779  -0.030  0.3613 -0.8617  0.6162
  376MOL0     H50729   8.605   8.875  -0.159 -0.7993 -0.7150 -1.7348
  376MOL0     H50730   8.735   8.594  -0.170  2.4696  0.4490 -2.0630
  376MOL0     H50731   8.728   8.691  -0.310  3.4033  2.7327  2.1027
  376MOL0     H50732   8.471   8.706  -0.297  2.1230  1.4894  0.1480
  376MOL0     H50733   8.463   8.624  -0.158  1.5849  4.2010  1.0924
  376MOL0     H50734   8.418   8.481  -0.369  0.2135 -0.7874  1.2643
  376MOL0     H50735   8.563   8.513  -0.427  1.3527  0.1969  1.2741
  376MOL0     H50736   8.687   8.396  -0.261 -0.8035  0.4288 -1.1362
  376MOL0     H50737   8.589   8.294  -0.364  0.0862 -0.6845 -1.7383
  376MOL0     H50738   8.405   8.271  -0.189  1.2235  0.5213 -5.8208
  376MOL0     H50739   8.561   8.207  -0.144  0.1105 -0.3159 -1.6483
  376MOL0     H50740   8.837   9.213   0.174  4.6467 -2.6373  1.3096
  376MOL0     H50741   8.792   9.309   0.391  3.5029  0.4501 -0.6390
  376MOL0     H50742   8.745   9.382   0.757 -1.6066  0.2447 -1.3493
  376MOL0     H50743   8.740   9.541   0.923  0.5259  0.3927 -3.2067
  376MOL0     H50744   8.591   9.622   2.812 -0.0530 -0.8243 -0.4891
  376MOL0     H50745   8.628   9.714   3.047 -1.4729 -2.8272 -0.3060
  376MOL0     H50746   8.770  10.144   3.354 -1.7142  2.4812  0.3527
  376MOL0     H50747   8.770  10.148   3.600  2.9782 -0.3350 -3.4680
  376MOL0     H50748   8.394  10.242   3.730  0.6645  0.3088  1.0135
  376MOL0     H50749   8.519  10.300   3.831 -1.4314  0.6488  1.3079
  376MOL0     H50750   8.300  10.178   3.929 -1.1942 -1.6137 -2.3257
  376MOL0     H50751   8.466  10.191   4.019 -0.2843 -0.4272 -0.0056
  376MOL0     H50752   8.502   9.948   3.944 -1.0178 -1.5065  0.5578
  376MOL0     H50753   8.385   9.971   3.829  4.0415  0.6030 -1.2214
  376MOL0     H50754   8.350   9.954   4.140 -2.3141  1.8916 -0.0259
  376MOL0     H50755   8.215   9.933   4.024 -0.6579 -2.1013  0.0778
  376MOL0     H50756   8.410   9.555   3.991  4.7883  0.3330 -0.4637
  376MOL0     H50757   8.363  10.085   3.596  0.5788 -0.9229  0.8006
  376MOL0     H50758   8.312  10.097   3.233 -0.6569 -0.8502 -1.6727
  376MOL0     H50759   8.291   9.938   3.313  0.3525 -0.1732 -0.4136
  376MOL0     H50760   8.234  10.093   3.384  0.3559 -0.6934  0.8042
  377MOL0     O50761  10.853   6.105   3.413  0.0411  0.1934 -0.9511
  377MOL0     C50762  10.889   6.064   3.303  0.1606 -0.4344 -0.5752
  377MOL0     O50763  11.009   6.091   3.245  0.4281 -0.2559  0.0206
  377MOL0     C50764  11.098   6.172   3.308 -0.0818  0.3285  0.0673
  377MOL0     C50765  11.228   6.131   3.278 -0.6820  0.2265 -0.2579
  377MOL0     C50766  11.339   6.205   3.330 -0.0773  0.1003 -0.6290
  377MOL0     C50767  11.314   6.314   3.413 -0.2212 -0.0537  0.1903
  377MOL0     O50768  11.414   6.376   3.475  0.8315 -0.2072 -0.5262
  377MOL0     C50769  11.421   6.518   3.448  0.0587 -0.8810 -0.9784
  377MOL0     C50770  11.446   6.589   3.582  0.3166  0.7737  1.5252
  377MOL0     C50771  11.313   6.615   3.655 -0.0573  0.3250 -0.6858
  377MOL0     C50772  11.328   6.669   3.796 -0.3395  0.2927 -0.6596
  377MOL0     C50773  11.213   6.635   3.893 -0.3921 -0.1114  0.5992
  377MOL0     C50774  11.192   6.757   3.979  0.0403 -0.1910 -0.8679
  377MOL0     C50775  11.087   6.714   4.093  0.0067  0.4782  0.1691
  377MOL0     C50776  11.100   6.821   4.202  0.9774 -0.4974 -1.3513
  377MOL0     N50777  11.029   6.778   4.323  0.1745  0.6694 -0.3730
  377MOL0     C50778  10.891   6.793   4.347 -0.2182 -0.4340 -0.2930
  377MOL0     C50779  10.877   6.742   4.472  0.2761 -0.1587  0.5224
  377MOL0     C50780  10.743   6.713   4.548 -1.1338  0.4719  0.9677
  377MOL0     C50781  10.719   6.801   4.668 -0.0532 -0.6429 -0.7189
  377MOL0     C50782  10.662   6.938   4.630 -0.3087 -0.1491  1.0093
  377MOL0     C50783  10.699   7.046   4.730 -0.8631  0.3244 -0.0862
  377MOL0     O50784  10.659   7.019   4.865 -0.0343 -0.1639 -1.0792
  377MOL0     C50785  10.525   7.018   4.898  0.8801 -0.5657 -0.0615
  377MOL0     C50786  10.415   7.052   4.818 -0.4913 -0.2851 -0.2224
  377MOL0     C50787  10.291   7.067   4.878  0.4175  0.3538 -0.2208
  377MOL0     C50788  10.261   7.024   5.004  0.9695 -0.0764  0.1659
  377MOL0     C50789  10.119   7.012   5.043  0.3292 -0.6335  0.0811
  377MOL0     O50790  10.097   6.925   5.147 -0.3863  0.0937 -0.1780
  377MOL0     C50791   9.971   6.881   5.183 -0.4056 -0.3811 -0.2233
  377MOL0     C50792   9.945   6.743   5.179 -0.7317  0.0404 -0.3902
  377MOL0     C50793   9.815   6.697   5.224 -0.0574 -0.2492 -0.3724
  377MOL0     C50794   9.719   6.795   5.249  0.4444  0.1813  0.0005
  377MOL0     O50795   9.591   6.762   5.290 -0.8955  0.6477 -0.3423
  377MOL0     C50796   9.517   6.677   5.194 -0.2525  0.2398 -0.7230
  377MOL0     C50797   9.367   6.684   5.221  0.5907  0.3838  0.3182
  377MOL0     C50798   9.294   6.551   5.168 -0.0821 -0.6250  0.8730
  377MOL0     C50799   9.252   6.569   5.021  0.2022 -0.0999 -0.0195
  377MOL0     C50800   9.168   6.461   4.958  0.4378 -0.5839 -0.3406
  377MOL0     C50801   9.221   6.323   4.971 -0.0402 -0.3292  0.2024
  377MOL0     C50802   9.331   6.285   4.871 -0.7321 -0.0162 -0.4096
  377MOL0     C50803   9.265   6.237   4.746 -0.0425  0.7551  0.2604
  377MOL0    Cl50804   9.170   6.084   4.756 -0.1476 -0.2763 -0.1866
  377MOL0     C50805   9.745   6.933   5.254 -0.1012 -0.1029 -0.2905
  377MOL0     C50806   9.868   6.979   5.217 -0.7544  0.5785 -0.0175
  377MOL0     O50807  10.031   7.052   4.968 -0.1028  0.5083  0.8072
  377MOL0     C50808  10.354   6.963   5.078 -0.6283  0.6840  0.0307
  377MOL0     C50809  10.494   6.967   5.030  1.0645 -0.0873 -1.3466
  377MOL0     N50810  10.999   6.711   4.526 -1.3488  0.2894  0.2255
  377MOL0     N50811  11.087   6.737   4.440  0.0787  0.1392 -0.1334
  377MOL0     C50812  11.184   6.353   3.439  0.3180 -0.4183  0.5912
  377MOL0     C50813  11.077   6.285   3.391 -0.5768 -0.0261  1.1254
  377MOL0     C50814  10.801   5.976   3.225  0.1884 -1.0708 -0.1083
  377MOL0     C50815  10.850   5.918   3.102  0.4722  0.2136  0.0141
  377MOL0     C50816  10.767   5.829   3.025 -0.8388 -0.1595  0.0743
  377MOL0     C50817  10.641   5.785   3.073 -1.5178 -0.1601  0.3766
  377MOL0     O50818  10.576   5.688   3.011  0.1316 -0.3686  0.0916
  377MOL0     C50819  10.617   5.633   2.882 -0.6110  0.8006 -0.8892
  377MOL0     C50820  10.577   5.724   2.763  0.5514  1.2737  0.3153
  377MOL0     C50821  10.417   5.714   2.745  0.2396  0.1369  1.0459
  377MOL0     C50822  10.355   5.775   2.620  0.0761  0.6436 -0.8838
  377MOL0     C50823  10.402   5.906   2.574 -0.1482  0.5084 -0.1614
  377MOL0     C50824  10.432   6.011   2.531 -0.7470 -0.1778  0.2441
  377MOL0     C50825  10.585   5.842   3.189 -0.5111  0.7671 -0.2362
  377MOL0     C50826  10.662   5.945   3.259 -1.2009 -0.2645  0.0669
  377MOL0     C50827  10.583   6.002   3.370 -0.3514  1.0328 -0.1065
  377MOL0     H50828  11.235   6.055   3.201 -1.7190 -2.0411  1.7484
  377MOL0     H50829  11.438   6.166   3.306  0.2587  1.8346 -2.3187
  377MOL0     H50830  11.505   6.541   3.383  2.0475 -2.2230  0.9847
  377MOL0     H50831  11.334   6.567   3.403  0.0557 -0.0816 -0.1388
  377MOL0     H50832  11.504   6.680   3.568  1.6094 -0.1820  0.3096
  377MOL0     H50833  11.510   6.518   3.636 -0.3723 -1.2801 -0.1840
  377MOL0     H50834  11.250   6.526   3.663 -1.9050  1.7145  1.6288
  377MOL0     H50835  11.261   6.693   3.598  1.5100  1.4846 -0.6156
  377MOL0     H50836  11.423   6.633   3.837 -0.8696 -2.4207 -1.6181
  377MOL0     H50837  11.342   6.778   3.796 -0.2809  0.3340  1.2847
  377MOL0     H50838  11.117   6.606   3.850 -0.3671  0.4964  0.1156
  377MOL0     H50839  11.250   6.548   3.949 -0.4092 -1.2928 -1.1546
  377MOL0     H50840  11.286   6.791   4.023 -0.5834  0.1304  0.2430
  377MOL0     H50841  11.168   6.848   3.923  1.5343  0.3738 -0.6424
  377MOL0     H50842  11.109   6.612   4.126 -0.9660 -1.5028 -4.4559
  377MOL0     H50843  10.987   6.713   4.048  0.7163 -1.4657 -1.5082
  377MOL0     H50844  11.203   6.852   4.224  1.4724  0.7564 -4.7795
  377MOL0     H50845  11.051   6.914   4.169 -0.9250 -1.1339 -0.4383
  377MOL0     H50846  10.805   6.817   4.285 -0.5215 -1.7670 -0.4285
  377MOL0     H50847  10.656   6.720   4.481 -0.9934 -0.6638  0.6403
  377MOL0     H50848  10.762   6.613   4.586  2.9083  1.4467  1.9409
  377MOL0     H50849  10.651   6.762   4.744 -3.9410  6.1477  0.1256
  377MOL0     H50850  10.817   6.815   4.715  0.3685  1.0259 -1.9855
  377MOL0     H50851  10.557   6.925   4.602  0.1107  1.6189 -1.6618
  377MOL0     H50852  10.702   6.978   4.536  0.0986  0.8193  1.5777
  377MOL0     H50853  10.659   7.146   4.709 -1.8555  0.6670  2.9320
  377MOL0     H50854  10.807   7.063   4.736 -1.0218  1.3819 -0.0311
  377MOL0     H50855  10.434   7.088   4.717 -1.0795 -3.5406 -1.6237
  377MOL0     H50856  10.211   7.110   4.818  1.4658 -2.4285 -3.9888
  377MOL0     H50857  10.025   6.677   5.149 -0.4387  1.0882 -2.0223
  377MOL0     H50858   9.798   6.590   5.221  1.0316 -0.4813 -4.0642
  377MOL0     H50859   9.548   6.700   5.092 -0.2153 -0.4889 -0.8810
  377MOL0     H50860   9.550   6.577   5.222  1.5016  1.4845  2.2272
  377MOL0     H50861   9.351   6.680   5.329 -1.5124 -4.0833  0.0435
  377MOL0     H50862   9.319   6.773   5.179 -2.9532 -1.4497  0.1958
  377MOL0     H50863   9.358   6.462   5.166 -2.0054 -2.0886 -0.7732
  377MOL0     H50864   9.199   6.522   5.215 -0.8676 -1.6828 -1.1983
  377MOL0     H50865   9.348   6.567   4.969  0.4208 -0.2115  0.3846
  377MOL0     H50866   9.215   6.672   5.009  0.6764 -0.0468 -1.1827
  377MOL0     H50867   9.159   6.472   4.850  0.9740 -1.1779 -0.4531
  377MOL0     H50868   9.071   6.459   5.008  0.3156 -3.4240 -0.5349
  377MOL0     H50869   9.258   6.305   5.073 -2.0835  1.9920  1.4474
  377MOL0     H50870   9.138   6.251   4.966  0.0973 -0.4885  0.1781
  377MOL0     H50871   9.394   6.214   4.925 -0.7417  0.9390  0.9240
  377MOL0     H50872   9.387   6.377   4.856 -0.5694  0.1634  1.1156
  377MOL0     H50873   9.194   6.305   4.698 -1.1974 -0.4053  0.2879
  377MOL0     H50874   9.347   6.218   4.677 -0.1000  0.5289  0.2541
  377MOL0     H50875   9.671   7.008   5.279  0.3989  0.1039  0.6082
  377MOL0     H50876   9.895   7.082   5.238 -1.3495  0.8912 -0.7362
  377MOL0     H50877  10.324   6.917   5.172  0.2279 -1.8948 -0.8636
  377MOL0     H50878  10.571   6.935   5.100  1.0966  3.1616  0.2822
  377MOL0     H50879  11.157   6.413   3.525 -2.7401 -2.8599  1.5072
  377MOL0     H50880  10.981   6.305   3.438 -0.8982 -0.3652  0.6184
  377MOL0     H50881  10.952   5.934   3.067  1.8729 -1.8548  2.7175
  377MOL0     H50882  10.817   5.789   2.937 -2.9768 -1.0157 -0.8092
  377MOL0     H50883  10.574   5.534   2.865 -2.0101  1.7371 -3.2586
  377MOL0     H50884  10.725   5.617   2.876 -0.1015  3.8304 -1.6405
  377MOL0     H50885  10.627   5.696   2.671  0.9471 -1.4053  1.2623
  377MOL0     H50886  10.609   5.828   2.771 -1.0174  1.9616 -1.6451
  377MOL0     H50887  10.361   5.753   2.830  0.5290  1.7411  0.5249
  377MOL0     H50888  10.401   5.606   2.735  2.3048  0.0501 -3.7502
  377MOL0     H50889  10.368   5.702   2.540 -1.8720 -0.0330 -0.6264
  377MOL0     H50890  10.248   5.775   2.642 -0.4112  1.3513 -3.0016
  377MOL0     H50891  10.448   6.109   2.490 -1.9711  0.0240  0.2169
  377MOL0     H50892  10.487   5.801   3.213 -0.0553  0.5718  1.3913
  377MOL0     H50893  10.477   5.981   3.351 -0.6025  2.3407 -0.2317
  377MOL0     H50894  10.630   5.967   3.462  1.6328 -1.2618 -1.8598
  377MOL0     H50895  10.610   6.108   3.377  1.9688  0.5170 -0.4340
  378MOL0     O50896  10.701   8.314   4.782 -0.0470  0.6569  0.1162
  378MOL0     C50897  10.662   8.199   4.810  0.7528 -0.2061 -0.2366
  378MOL0     O50898  10.736   8.094   4.859  0.3861  0.1959  0.1528
  378MOL0     C50899  10.873   8.109   4.877  0.2928 -0.2448 -0.1981
  378MOL0     C50900  10.939   8.182   4.978  0.2981 -0.1500  0.0683
  378MOL0     C50901  11.073   8.200   4.975  0.7592  0.2647 -1.1748
  378MOL0     C50902  11.147   8.127   4.884 -0.6676  0.3997  0.1855
  378MOL0     O50903  11.288   8.146   4.905  0.4335 -0.2542 -0.1591
  378MOL0     C50904  11.363   8.025   4.877  0.6849  0.0071 -0.0824
  378MOL0     C50905  11.483   8.004   4.962  0.7177 -0.7849 -0.6445
  378MOL0     C50906  11.577   8.128   4.995  1.0516 -1.1104  0.0903
  378MOL0     C50907  11.645   8.114   5.141  0.4561  0.6674  0.0111
  378MOL0     C50908  11.669   8.250   5.206  0.0344  0.5485  0.1203
  378MOL0     C50909  11.545   8.323   5.252  0.2605  0.6558  0.5145
  378MOL0     C50910  11.435   8.238   5.304  0.4293 -0.5523 -0.4463
  378MOL0     C50911  11.328   8.331   5.374 -0.6049 -0.1147  0.4416
  378MOL0     N50912  11.209   8.253   5.421 -0.5367 -0.2796  0.6235
  378MOL0     C50913  11.198   8.213   5.551  0.4221  1.1931 -1.0171
  378MOL0     C50914  11.068   8.160   5.561 -0.2473 -0.2394 -0.2685
  378MOL0     C50915  10.988   8.110   5.684 -0.7048  0.0269  0.7130
  378MOL0     C50916  10.930   7.960   5.676 -0.8197  0.9261  0.4518
  378MOL0     C50917  10.844   7.916   5.794  0.5694  0.6736 -0.5194
  378MOL0     C50918  10.923   7.870   5.912  0.0629 -0.1949 -0.7665
  378MOL0     O50919  10.999   7.757   5.874 -0.1019  0.0195  0.0493
  378MOL0     C50920  11.068   7.689   5.975 -0.1084  0.7972 -0.2668
  378MOL0     C50921  11.152   7.583   5.926  0.0190  0.7490  0.1315
  378MOL0     C50922  11.220   7.499   6.017  0.4609 -0.5493  0.6170
  378MOL0     C50923  11.211   7.517   6.146  0.3505  0.1267 -0.3987
  378MOL0     C50924  11.271   7.422   6.246 -0.6359 -0.4413  0.0477
  378MOL0     O50925  11.338   7.319   6.183  0.1085  0.2041 -0.5790
  378MOL0     C50926  11.410   7.244   6.274  0.2566 -1.0748  0.5577
  378MOL0     C50927  11.534   7.285   6.324  0.0906 -0.9736 -0.1675
  378MOL0     C50928  11.615   7.201   6.400 -0.0429  0.0205  0.0760
  378MOL0     C50929  11.566   7.078   6.428 -0.1183 -0.2014  0.1459
  378MOL0     O50930  11.651   7.003   6.514 -0.4245  0.0968 -0.1903
  378MOL0     C50931  11.670   6.861   6.485  0.2175  0.6210 -0.6010
  378MOL0     C50932  11.824   6.835   6.504 -0.1731 -0.8799  0.4407
  378MOL0     C50933  11.915   6.878   6.383  0.1922  0.2335  0.2101
  378MOL0     C50934  11.889   7.018   6.325  0.7577  0.1201  1.1524
  378MOL0     C50935  12.004   7.050   6.239 -0.1964  0.2941  0.2424
  378MOL0     C50936  11.968   7.175   6.161  0.7380 -0.2408 -0.0071
  378MOL0     C50937  11.884   7.164   6.038 -0.2420  0.2638  0.5564
  378MOL0     C50938  11.957   7.149   5.897 -0.1587  0.0342 -0.4192
  378MOL0    Cl50939  12.059   7.004   5.911  0.3626  0.0598  0.3088
  378MOL0     C50940  11.450   7.033   6.364  0.7152  0.3871  0.4371
  378MOL0     C50941  11.372   7.118   6.293 -0.3620 -0.4256 -0.8964
  378MOL0     O50942  11.273   7.453   6.368 -0.3347 -0.1952  0.2306
  378MOL0     C50943  11.155   7.631   6.196  0.8512 -0.0137 -0.0864
  378MOL0     C50944  11.086   7.721   6.111  0.2491 -0.1909  0.4193
  378MOL0     N50945  11.007   8.181   5.445  0.7948  0.5965  0.4243
  378MOL0     N50946  11.092   8.236   5.367  0.3562  0.1911  0.9203
  378MOL0     C50947  11.086   8.040   4.788 -0.1092  1.2267 -0.9499
  378MOL0     C50948  10.947   8.034   4.783 -0.6060  0.1321  0.1672
  378MOL0     C50949  10.511   8.169   4.801 -0.8114 -0.8515  0.2757
  378MOL0     C50950  10.473   8.033   4.790 -0.6628  0.1312  0.0317
  378MOL0     C50951  10.344   7.993   4.752  0.6876 -0.1204 -0.5671
  378MOL0     C50952  10.256   8.091   4.706 -0.5636 -0.9749 -0.0608
  378MOL0     O50953  10.129   8.068   4.666 -0.5563 -0.0790  0.6894
  378MOL0     C50954  10.125   7.979   4.554  0.0478  0.3269  0.3289
  378MOL0     C50955   9.981   7.948   4.520  0.2749 -0.5317 -0.1717
  378MOL0     C50956   9.916   8.069   4.454  0.6456 -0.4432  0.4966
  378MOL0     C50957   9.806   8.131   4.546  0.8033  0.0371  0.0207
  378MOL0     C50958   9.702   8.201   4.463 -0.6189  0.1706 -0.0477
  378MOL0     C50959   9.599   8.233   4.408  0.2717  0.1059 -0.4082
  378MOL0     C50960  10.290   8.223   4.727  1.6981  1.0979 -0.1070
  378MOL0     C50961  10.417   8.269   4.769  0.0345  0.9942  0.5570
  378MOL0     C50962  10.440   8.419   4.770 -0.4693 -0.1232  0.9581
  378MOL0     H50963  10.867   8.220   5.050  1.1047 -0.1697  0.8953
  378MOL0     H50964  11.114   8.263   5.053 -2.7674  1.5270 -0.1680
  378MOL0     H50965  11.308   7.931   4.880  2.6279 -1.1658  1.8824
  378MOL0     H50966  11.390   8.019   4.771 -0.1393 -0.9283 -0.2578
  378MOL0     H50967  11.549   7.937   4.906  0.1620  1.1775 -3.9078
  378MOL0     H50968  11.440   7.963   5.054  0.0124 -0.5545 -0.8642
  378MOL0     H50969  11.523   8.224   4.996  0.7420 -1.2827  0.2925
  378MOL0     H50970  11.650   8.146   4.916  1.0216  0.7026  0.4286
  378MOL0     H50971  11.579   8.046   5.196 -1.2247 -1.4095 -4.1236
  378MOL0     H50972  11.737   8.062   5.116 -0.6626 -0.1545 -2.8035
  378MOL0     H50973  11.746   8.228   5.280 -0.8568 -0.9398  0.6466
  378MOL0     H50974  11.723   8.318   5.139 -1.0497  0.4380 -0.9054
  378MOL0     H50975  11.580   8.402   5.320  3.7873 -1.1321  1.0144
  378MOL0     H50976  11.505   8.370   5.162  1.5059 -1.1822 -1.0817
  378MOL0     H50977  11.499   8.180   5.370  0.1711  0.2702  0.5670
  378MOL0     H50978  11.389   8.178   5.225  2.5769 -0.5182 -1.7905
  378MOL0     H50979  11.376   8.384   5.456  2.7742 -0.3745 -1.1885
  378MOL0     H50980  11.302   8.406   5.298  0.5323  0.6678  0.8001
  378MOL0     H50981  11.277   8.220   5.624  0.0162  4.6622 -0.7432
  378MOL0     H50982  11.051   8.117   5.773  1.9864 -1.2003 -0.9615
  378MOL0     H50983  10.906   8.181   5.698  0.1627  1.7155 -2.0012
  378MOL0     H50984  10.886   7.938   5.578  0.2450 -0.5758  0.2722
  378MOL0     H50985  11.023   7.905   5.660 -1.9890 -1.2799  0.8622
  378MOL0     H50986  10.791   7.824   5.766  2.1304 -0.6217  0.5785
  378MOL0     H50987  10.788   7.998   5.839 -0.2361 -0.5951  0.8738
  378MOL0     H50988  10.862   7.846   5.999  0.2590 -2.1978 -1.1288
  378MOL0     H50989  10.986   7.953   5.946 -0.7098  2.0253 -4.2441
  378MOL0     H50990  11.148   7.564   5.819 -1.4103  1.8514 -0.0402
  378MOL0     H50991  11.255   7.405   5.976 -3.6772 -1.9352 -0.1126
  378MOL0     H50992  11.571   7.386   6.310 -1.0877 -0.5613 -0.4320
  378MOL0     H50993  11.712   7.223   6.443  0.6410  0.8835 -1.7880
  378MOL0     H50994  11.612   6.800   6.555 -2.4156  1.4164 -1.9325
  378MOL0     H50995  11.634   6.823   6.388 -2.0676 -4.2373  1.8190
  378MOL0     H50996  11.867   6.884   6.591  2.5324 -1.9796 -0.1836
  378MOL0     H50997  11.825   6.726   6.518 -1.9157 -0.9370  0.4323
  378MOL0     H50998  12.020   6.873   6.413  0.0236  2.5882  1.5143
  378MOL0     H50999  11.908   6.809   6.299  2.0911 -0.9094  0.9384
  378MOL0     H51000  11.892   7.097   6.401  0.9948  2.2829 -0.9717
  378MOL0     H51001  11.795   7.011   6.269  0.1629 -0.4820  2.2035
  378MOL0     H51002  12.021   6.969   6.166 -0.8412 -0.8199  1.2885
  378MOL0     H51003  12.094   7.065   6.299  0.6039  0.0042 -0.8451
  378MOL0     H51004  11.920   7.245   6.230 -0.8167 -1.3209  0.0616
  378MOL0     H51005  12.055   7.232   6.127 -0.3046  0.9261 -0.7984
  378MOL0     H51006  11.825   7.256   6.033 -0.0262  0.3816  0.0605
  378MOL0     H51007  11.830   7.069   6.040 -1.7906  1.1158  0.8857
  378MOL0     H51008  11.888   7.153   5.813  0.8493 -1.2950 -1.3535
  378MOL0     H51009  12.032   7.226   5.880  2.2370 -2.1652 -0.4969
  378MOL0     H51010  11.425   6.928   6.359  0.1228  0.5679 -0.8754
  378MOL0     H51011  11.277   7.079   6.258  0.1312 -2.8865  0.3087
  378MOL0     H51012  11.152   7.661   6.301 -3.3861 -0.0160 -0.0431
  378MOL0     H51013  11.034   7.811   6.142 -1.9456 -1.3742  0.3891
  378MOL0     H51014  11.150   7.980   4.724  0.3737 -1.2021  1.6372
  378MOL0     H51015  10.908   7.963   4.710 -1.3671  0.8704 -0.1550
  378MOL0     H51016  10.554   7.963   4.804 -2.0739 -1.5273  0.1881
  378MOL0     H51017  10.320   7.888   4.763  1.7565 -0.4972 -1.6298
  378MOL0     H51018  10.183   7.887   4.568  3.4163  1.8103 -2.2040
  378MOL0     H51019  10.175   8.030   4.471  0.3126 -0.0244  0.2687
  378MOL0     H51020   9.927   7.916   4.610 -0.2654  0.3663 -0.1654
  378MOL0     H51021   9.978   7.862   4.453  0.1676  1.1478 -2.4301
  378MOL0     H51022   9.864   8.023   4.369  0.7985  1.2686 -0.5716
  378MOL0     H51023   9.983   8.150   4.423 -1.2980  0.3756 -1.8806
  378MOL0     H51024   9.741   8.061   4.600  1.7041  0.6671  1.9955
  378MOL0     H51025   9.851   8.201   4.617 -1.1917  1.3282  0.0866
  378MOL0     H51026   9.506   8.261   4.362  0.4188  1.7400  0.2138
  378MOL0     H51027  10.212   8.298   4.715  0.3338 -0.2737 -0.1340
  378MOL0     H51028  10.469   8.448   4.668 -2.3970 -1.8982 -0.1656
  378MOL0     H51029  10.344   8.462   4.802 -1.3561 -3.1088  2.6918
  378MOL0     H51030  10.516   8.454   4.841  0.3236  1.9075 -0.7779
  379MOL0     O51031   6.101  10.910   4.268 -0.2807  0.5414  0.6601
  379MOL0     C51032   6.034  10.812   4.295 -0.4055  0.4213 -1.1040
  379MOL0     O51033   6.041  10.697   4.223  0.5001 -0.5137 -0.1236
  379MOL0     C51034   6.148  10.666   4.147  0.2938 -0.9923  0.2566
  379MOL0     C51035   6.263  10.615   4.213 -0.2264  0.5189 -0.3877
  379MOL0     C51036   6.378  10.606   4.145  0.0083  0.2070  0.2098
  379MOL0     C51037   6.387  10.667   4.015 -0.4665 -1.1161 -0.1041
  379MOL0     O51038   6.504  10.688   3.944 -0.9327  0.1278 -0.3733
  379MOL0     C51039   6.636  10.647   3.991  0.4164  0.0406 -0.1307
  379MOL0     C51040   6.717  10.640   3.858 -0.6779  0.5421 -1.0963
  379MOL0     C51041   6.693  10.513   3.785  0.5778  0.5701 -0.4398
  379MOL0     C51042   6.777  10.506   3.663  1.0084  1.3509 -0.1066
  379MOL0     C51043   6.763  10.363   3.603 -0.8483  0.6488 -1.0743
  379MOL0     C51044   6.792  10.355   3.457 -0.2935  0.3874 -0.6465
  379MOL0     C51045   6.758  10.208   3.414  0.3993  0.0092  0.1019
  379MOL0     C51046   6.819  10.165   3.283 -0.3173 -0.4418 -1.1580
  379MOL0     N51047   6.750  10.054   3.211  0.7371 -0.0047  0.3901
  379MOL0     C51048   6.749   9.911   3.227  0.5775 -0.1592  0.3869
  379MOL0     C51049   6.664   9.863   3.129 -0.2458 -0.4236 -0.0760
  379MOL0     C51050   6.620   9.724   3.087 -0.0356 -0.2961  0.0944
  379MOL0     C51051   6.513   9.653   3.178 -0.5082 -0.4854  0.7217
  379MOL0     C51052   6.417   9.756   3.239  0.6425 -0.4414  0.8657
  379MOL0     C51053   6.326   9.713   3.356  0.0752 -0.1791  0.0465
  379MOL0     O51054   6.222   9.638   3.283 -0.4056 -1.0849 -1.0783
  379MOL0     C51055   6.105   9.621   3.352 -0.0689 -0.9941 -0.4959
  379MOL0     C51056   6.008   9.535   3.299  0.1671 -0.4330  0.3077
  379MOL0     C51057   5.900   9.500   3.376 -0.1732 -0.6426 -0.6380
  379MOL0     C51058   5.880   9.540   3.505 -0.1278 -0.3364 -0.9126
  379MOL0     C51059   5.754   9.494   3.573 -0.6672 -0.0949 -0.0749
  379MOL0     O51060   5.669   9.419   3.497 -0.2769 -0.5145  0.1291
  379MOL0     C51061   5.540   9.393   3.546 -0.3086  0.2674  0.2545
  379MOL0     C51062   5.443   9.420   3.448 -0.0397  1.4241  0.1013
  379MOL0     C51063   5.310   9.389   3.479  0.1922 -0.6837  0.5174
  379MOL0     C51064   5.271   9.343   3.607 -1.0086 -0.6315 -0.3542
  379MOL0     O51065   5.136   9.333   3.642 -0.4599  0.5859  0.0658
  379MOL0     C51066   5.042   9.284   3.551  0.1015  0.5865 -0.3983
  379MOL0     C51067   5.070   9.140   3.508  0.6241 -0.0822 -0.3879
  379MOL0     C51068   4.954   9.096   3.405  0.4393  0.3745 -0.6440
  379MOL0     C51069   4.976   9.133   3.261 -0.2325 -0.5982 -0.8859
  379MOL0     C51070   5.026   9.016   3.167  0.1429  0.4011 -0.6667
  379MOL0     C51071   5.027   9.071   3.027 -0.0981  0.4332  0.7880
  379MOL0     C51072   5.071   8.972   2.917  0.9250 -1.0843 -1.0029
  379MOL0     C51073   4.972   8.853   2.891 -0.2348  0.1650 -0.2703
  379MOL0    Cl51074   4.828   8.913   2.789 -0.0125  0.3301  0.0241
  379MOL0     C51075   5.369   9.335   3.705  0.8288 -0.1729 -0.3210
  379MOL0     C51076   5.508   9.349   3.674  0.6074 -0.5005  0.5328
  379MOL0     O51077   5.743   9.532   3.690  0.5935  0.3031  0.4846
  379MOL0     C51078   5.974   9.624   3.564 -0.6169 -0.1099  0.1395
  379MOL0     C51079   6.079   9.676   3.483  0.4517  0.9027 -0.0928
  379MOL0     N51080   6.628   9.973   3.049 -0.0568  0.3745  0.0138
  379MOL0     N51081   6.676  10.080   3.090  0.1156 -0.2112 -0.1550
  379MOL0     C51082   6.279  10.715   3.955  0.7735  0.1355  0.3472
  379MOL0     C51083   6.156  10.720   4.018  0.3775  0.6874 -0.6797
  379MOL0     C51084   5.946  10.820   4.413  0.5219  0.6119  0.3057
  379MOL0     C51085   5.966  10.743   4.532  0.5618 -0.5956 -0.1773
  379MOL0     C51086   5.898  10.766   4.653 -0.0737  0.0494  0.3419
  379MOL0     C51087   5.797  10.862   4.664  0.3959  0.2354  0.2598
  379MOL0     O51088   5.743  10.871   4.793 -0.4071 -0.2552  0.6329
  379MOL0     C51089   5.624  10.937   4.821  0.0673  0.4692 -0.4379
  379MOL0     C51090   5.584  10.906   4.965  0.3910 -0.0542 -0.5726
  379MOL0     C51091   5.669  10.979   5.074 -1.2827 -0.0745  0.1038
  379MOL0     C51092   5.623  10.965   5.224  0.0532  0.3323  0.3556
  379MOL0     C51093   5.731  10.998   5.317 -0.3319 -0.1226  0.2198
  379MOL0     C51094   5.827  11.024   5.396 -0.6645 -0.1207  0.9246
  379MOL0     C51095   5.772  10.933   4.548  0.6721 -0.2789  0.6388
  379MOL0     C51096   5.844  10.920   4.422 -0.7339 -0.1244 -1.3908
  379MOL0     C51097   5.812  11.024   4.322 -0.2475  0.1192  0.1277
  379MOL0     H51098   6.249  10.587   4.317 -0.9693  0.8805 -0.3815
  379MOL0     H51099   6.460  10.554   4.193 -1.3835 -2.4091 -0.0777
  379MOL0     H51100   6.675  10.727   4.055  4.2214 -1.0008 -0.9479
  379MOL0     H51101   6.633  10.557   4.053  0.5199  0.7970  1.0050
  379MOL0     H51102   6.824  10.645   3.881 -0.9563  0.7195  0.1964
  379MOL0     H51103   6.688  10.729   3.802  0.7625  2.6079  1.2139
  379MOL0     H51104   6.585  10.511   3.768  0.6044  0.2746 -0.5861
  379MOL0     H51105   6.729  10.426   3.841  0.8432 -1.9184 -4.1317
  379MOL0     H51106   6.754  10.578   3.584 -0.5124 -0.2080 -1.1453
  379MOL0     H51107   6.882  10.522   3.688  1.6654 -3.1294  0.8210
  379MOL0     H51108   6.842  10.309   3.656 -0.2665  1.3363 -1.2227
  379MOL0     H51109   6.662  10.329   3.627 -0.5293  1.2607  1.3843
  379MOL0     H51110   6.729  10.424   3.400 -4.5106 -1.7513  0.9918
  379MOL0     H51111   6.896  10.383   3.439  0.0830  0.8755  1.8856
  379MOL0     H51112   6.650  10.206   3.402 -0.1536 -2.4650  3.8627
  379MOL0     H51113   6.774  10.136   3.494 -2.1053  0.1525  0.8219
  379MOL0     H51114   6.831  10.247   3.212 -0.6502  2.2338  1.6726
  379MOL0     H51115   6.925  10.143   3.299  1.0296  4.7997 -1.0681
  379MOL0     H51116   6.799   9.860   3.308 -2.5361 -0.3009  2.3685
  379MOL0     H51117   6.589   9.734   2.982  0.0891  0.6106  0.1389
  379MOL0     H51118   6.707   9.659   3.076 -0.0378  0.1402 -3.8733
  379MOL0     H51119   6.452   9.583   3.120 -0.2394  0.8258 -1.2500
  379MOL0     H51120   6.565   9.593   3.253  0.4999 -1.8580 -0.9930
  379MOL0     H51121   6.354   9.791   3.156 -1.9131 -0.4933  2.6706
  379MOL0     H51122   6.470   9.842   3.282 -0.6646  0.3975  0.8539
  379MOL0     H51123   6.292   9.811   3.391 -0.1293  1.1482 -3.4116
  379MOL0     H51124   6.373   9.640   3.422  2.9811  2.1786  0.7788
  379MOL0     H51125   6.010   9.496   3.198  0.0856  2.6610 -0.9670
  379MOL0     H51126   5.836   9.428   3.328 -4.0647  2.5505 -0.7624
  379MOL0     H51127   5.479   9.466   3.357 -0.4392 -0.5976 -1.1505
  379MOL0     H51128   5.229   9.409   3.409 -1.2302 -0.2114  2.2383
  379MOL0     H51129   4.946   9.300   3.601  1.4394  2.1089  1.9102
  379MOL0     H51130   5.027   9.357   3.471  2.7982  0.3292 -1.2279
  379MOL0     H51131   5.162   9.142   3.448  2.2532  2.2955  1.9840
  379MOL0     H51132   5.072   9.071   3.593 -0.5531 -0.8002 -0.9111
  379MOL0     H51133   4.954   8.987   3.404  0.0715  0.3427  0.7337
  379MOL0     H51134   4.853   9.126   3.435  0.6079 -0.8555  1.3992
  379MOL0     H51135   5.042   9.220   3.268  0.5364 -1.3236  1.3937
  379MOL0     H51136   4.880   9.161   3.215 -1.6284 -3.0151  0.3654
  379MOL0     H51137   4.950   8.937   3.173 -1.2109  1.7299  0.2828
  379MOL0     H51138   5.124   8.972   3.187 -0.8656 -3.3318 -2.8386
  379MOL0     H51139   4.923   9.101   3.011  0.6003  1.0999 -3.7361
  379MOL0     H51140   5.083   9.165   3.026 -3.4721  2.6399  0.6029
  379MOL0     H51141   5.165   8.935   2.959  1.8432  1.5250 -0.6124
  379MOL0     H51142   5.094   9.015   2.819 -1.8302 -0.6642 -1.5433
  379MOL0     H51143   5.017   8.760   2.853 -0.3729 -2.2184  4.5928
  379MOL0     H51144   4.924   8.814   2.981  1.7071 -2.5359 -0.2580
  379MOL0     H51145   5.335   9.310   3.806  0.2942 -2.8329 -1.0765
  379MOL0     H51146   5.590   9.332   3.744 -1.5023  2.3654  4.0602
  379MOL0     H51147   5.960   9.660   3.665  0.5386  0.3251  0.1661
  379MOL0     H51148   6.156   9.738   3.529 -0.8917  2.8289 -0.3265
  379MOL0     H51149   6.264  10.759   3.857 -1.1369 -2.1374 -0.4690
  379MOL0     H51150   6.071  10.761   3.965  0.9127  0.3890 -1.7768
  379MOL0     H51151   6.042  10.666   4.523  0.2349 -0.9562  0.1211
  379MOL0     H51152   5.916  10.701   4.738  2.0185 -0.3726 -0.3682
  379MOL0     H51153   5.557  10.880   4.756  0.1310 -2.9370  2.2220
  379MOL0     H51154   5.609  11.045   4.810 -0.3563  0.6559  1.6464
  379MOL0     H51155   5.574  10.798   4.973 -1.6917  0.0524 -1.2079
  379MOL0     H51156   5.482  10.944   4.971  1.1101  1.8743  0.5292
  379MOL0     H51157   5.676  11.079   5.032 -1.4125 -0.1970 -0.2164
  379MOL0     H51158   5.768  10.934   5.064 -0.7944  0.6033  1.6207
  379MOL0     H51159   5.537  11.025   5.256 -1.6084 -0.5064 -2.1929
  379MOL0     H51160   5.586  10.864   5.239 -2.0870  1.2153  1.3558
  379MOL0     H51161   5.901  11.062   5.465  2.3674  2.1453 -3.1094
  379MOL0     H51162   5.689  11.003   4.551 -2.0402 -3.2602  0.5979
  379MOL0     H51163   5.786  10.970   4.230  3.0586 -0.2075 -0.7492
  379MOL0     H51164   5.725  11.083   4.349 -0.4212 -0.4091  0.7561
  379MOL0     H51165   5.896  11.089   4.296 -2.1601  1.6148 -2.7825
  380MOL0     O51166   9.441   2.312   2.501  0.0680 -0.0887  0.4753
  380MOL0     C51167   9.396   2.287   2.390 -0.0149  0.2456  0.3392
  380MOL0     O51168   9.390   2.170   2.323  0.0177 -0.3518 -0.6357
  380MOL0     C51169   9.440   2.057   2.392  0.0923  0.1853  0.9442
  380MOL0     C51170   9.370   1.940   2.376  1.1119 -0.2387  0.1264
  380MOL0     C51171   9.411   1.811   2.422 -1.0121 -0.0448  0.1144
  380MOL0     C51172   9.535   1.813   2.490  0.0844 -0.0435 -0.0223
  380MOL0     O51173   9.579   1.696   2.544 -0.7855  0.3496 -0.1763
  380MOL0     C51174   9.628   1.610   2.438 -1.5593 -0.4527 -0.0324
  380MOL0     C51175   9.776   1.634   2.406 -0.4483 -0.5950  0.0057
  380MOL0     C51176   9.866   1.600   2.534 -1.3357  0.0228 -0.2152
  380MOL0     C51177  10.018   1.619   2.492 -1.0508  0.3121 -0.0119
  380MOL0     C51178  10.116   1.619   2.608 -0.2285  0.6224 -1.2622
  380MOL0     C51179  10.250   1.642   2.556  0.3271 -0.3674 -0.3479
  380MOL0     C51180  10.339   1.674   2.676  0.1539 -1.3178 -0.5161
  380MOL0     C51181  10.432   1.787   2.647  0.2894 -0.6642 -0.9871
  380MOL0     N51182  10.536   1.811   2.742 -0.1356  0.6916  0.0519
  380MOL0     C51183  10.516   1.814   2.874 -1.0522 -0.9958 -0.7947
  380MOL0     C51184  10.641   1.799   2.930 -0.1223  0.0459 -1.2372
  380MOL0     C51185  10.679   1.808   3.080 -0.0612  0.2515 -0.5921
  380MOL0     C51186  10.771   1.697   3.122  0.5039 -0.9987  0.6568
  380MOL0     C51187  10.768   1.663   3.269  0.6999  0.5994 -0.4345
  380MOL0     C51188  10.841   1.761   3.362  0.3730  0.2107  0.3838
  380MOL0     O51189  10.845   1.703   3.494 -1.2209 -0.2594  0.5134
  380MOL0     C51190  10.944   1.753   3.575  0.4341 -0.2199 -0.1471
  380MOL0     C51191  11.012   1.879   3.575 -0.8464  1.4225  0.1774
  380MOL0     C51192  11.091   1.930   3.678 -0.6019 -0.9296  0.3089
  380MOL0     C51193  11.109   1.853   3.797 -0.8744  0.7462  0.7383
  380MOL0     C51194  11.191   1.898   3.907 -0.4979 -0.2623  0.2657
  380MOL0     O51195  11.231   2.034   3.898  0.2835 -1.0616 -0.4420
  380MOL0     C51196  11.304   2.088   4.004  0.0577 -0.1900 -1.2496
  380MOL0     C51197  11.303   2.055   4.149  1.0484 -0.2871 -0.3171
  380MOL0     C51198  11.407   2.097   4.231 -0.5396 -0.2583  0.5447
  380MOL0     C51199  11.520   2.173   4.188  0.4738 -0.4212 -0.0963
  380MOL0     O51200  11.627   2.203   4.275 -0.2302 -0.4834 -0.5411
  380MOL0     C51201  11.657   2.342   4.277 -0.0568  0.1533  0.0534
  380MOL0     C51202  11.736   2.361   4.400  0.7442 -0.3382  0.2258
  380MOL0     C51203  11.868   2.284   4.404  0.2351 -0.2931 -0.1730
  380MOL0     C51204  11.943   2.297   4.536  0.9698 -0.6671 -0.5991
  380MOL0     C51205  12.082   2.227   4.513 -0.5645 -0.5372 -0.4276
  380MOL0     C51206  12.196   2.284   4.598 -0.0531  0.5182 -0.4929
  380MOL0     C51207  12.200   2.229   4.740 -0.4402 -0.1666  0.3754
  380MOL0     C51208  12.251   2.082   4.755  0.1054 -0.4731 -1.0677
  380MOL0    Cl51209  12.430   2.077   4.706 -0.1845 -0.0042  0.3195
  380MOL0     C51210  11.522   2.200   4.046  0.2030  1.0299 -0.1474
  380MOL0     C51211  11.412   2.163   3.966 -0.0863 -0.3251  0.1927
  380MOL0     O51212  11.223   1.816   3.993  0.5379  1.0543  0.1149
  380MOL0     C51213  11.047   1.723   3.799  0.7560 -1.2010  0.4223
  380MOL0     C51214  10.970   1.675   3.684 -0.1732 -0.8867  0.6610
  380MOL0     N51215  10.725   1.804   2.823  0.3383  0.3155 -0.6545
  380MOL0     N51216  10.664   1.805   2.713  0.0809 -0.4868 -0.7842
  380MOL0     C51217   9.615   1.930   2.502  0.2795  0.8113 -0.1057
  380MOL0     C51218   9.567   2.050   2.456  0.2771 -0.6081  0.3928
  380MOL0     C51219   9.351   2.403   2.310  0.4917  0.2932  0.3202
  380MOL0     C51220   9.358   2.395   2.176 -0.3935 -1.0948 -0.0535
  380MOL0     C51221   9.330   2.504   2.095 -0.1417 -0.1440 -0.3711
  380MOL0     C51222   9.314   2.629   2.148  0.3393 -1.1572 -1.0136
  380MOL0     O51223   9.309   2.731   2.056  0.6347 -0.2137  0.0916
  380MOL0     C51224   9.187   2.806   2.077  0.2187 -0.6526  0.5630
  380MOL0     C51225   9.110   2.830   1.947 -0.2953  0.0413  0.3752
  380MOL0     C51226   8.967   2.889   1.978  0.9535  0.3384  0.1578
  380MOL0     C51227   8.888   2.925   1.858  0.3191  0.9326 -1.6663
  380MOL0     C51228   8.892   2.822   1.748 -0.3993 -1.4058 -0.1208
  380MOL0     C51229   8.891   2.742   1.660 -0.7115 -1.1471  0.5013
  380MOL0     C51230   9.311   2.645   2.289 -0.4367  0.5724  0.6765
  380MOL0     C51231   9.317   2.530   2.369  0.0859 -0.0212 -0.2651
  380MOL0     C51232   9.281   2.549   2.506 -0.0421 -0.8057 -0.2321
  380MOL0     H51233   9.268   1.951   2.342  0.6410  2.8365  2.1828
  380MOL0     H51234   9.359   1.716   2.423  0.6562 -1.0147  1.8949
  380MOL0     H51235   9.627   1.508   2.478  2.4346 -0.9847 -0.8884
  380MOL0     H51236   9.567   1.623   2.349  0.9958  0.6710 -1.7173
  380MOL0     H51237   9.797   1.739   2.382  2.0537 -0.6529  1.5336
  380MOL0     H51238   9.802   1.573   2.319 -0.6532  2.0051 -1.9738
  380MOL0     H51239   9.848   1.493   2.544 -1.0511 -0.0026  0.0259
  380MOL0     H51240   9.822   1.652   2.619 -1.1050  0.8850 -0.6153
  380MOL0     H51241  10.046   1.539   2.423  0.2833 -1.0305  1.9906
  380MOL0     H51242  10.033   1.714   2.440  1.1162  1.2292  2.0727
  380MOL0     H51243  10.084   1.707   2.665 -0.2599  1.7493 -2.9540
  380MOL0     H51244  10.106   1.529   2.670 -1.5039  1.2723 -0.4760
  380MOL0     H51245  10.285   1.553   2.503 -1.2414 -0.8404 -0.6229
  380MOL0     H51246  10.253   1.731   2.493 -0.1652  2.0460  2.7770
  380MOL0     H51247  10.396   1.582   2.685  1.2944 -0.5580  0.2075
  380MOL0     H51248  10.283   1.704   2.765  3.0528  0.4452  0.8467
  380MOL0     H51249  10.481   1.764   2.552 -0.9288  1.3631 -2.1958
  380MOL0     H51250  10.367   1.871   2.619 -0.0086 -0.9003 -1.0133
  380MOL0     H51251  10.428   1.832   2.935 -0.7305  0.1413 -0.6402
  380MOL0     H51252  10.731   1.902   3.101  1.5982 -0.3696 -1.6937
  380MOL0     H51253  10.587   1.801   3.139 -0.8941  0.5174 -1.8325
  380MOL0     H51254  10.768   1.609   3.057  1.0058 -1.0406  0.6833
  380MOL0     H51255  10.872   1.735   3.103 -0.5469  2.2987  1.0289
  380MOL0     H51256  10.803   1.561   3.286 -1.2506 -0.2148 -1.0551
  380MOL0     H51257  10.662   1.664   3.295  0.1738  0.9349 -2.4227
  380MOL0     H51258  10.801   1.863   3.365 -3.0430 -0.7087 -3.5455
  380MOL0     H51259  10.935   1.767   3.306 -2.4049  0.3142 -4.9280
  380MOL0     H51260  10.981   1.954   3.503 -2.1977  1.7114  1.0344
  380MOL0     H51261  11.096   2.038   3.694 -3.2857 -0.9629  1.8186
  380MOL0     H51262  11.213   2.002   4.182 -2.5433  2.7763 -4.0862
  380MOL0     H51263  11.401   2.069   4.336  0.9016 -0.1181  0.6807
  380MOL0     H51264  11.711   2.373   4.187  1.8107  2.3017  1.7664
  380MOL0     H51265  11.568   2.405   4.278 -0.7353 -0.7891  1.3871
  380MOL0     H51266  11.754   2.467   4.417 -0.8166 -0.0261  0.0299
  380MOL0     H51267  11.677   2.323   4.484  1.4029  0.0548  0.8868
  380MOL0     H51268  11.861   2.177   4.384  2.9416 -0.6281  0.2993
  380MOL0     H51269  11.926   2.335   4.326 -1.9300  4.8176  1.1212
  380MOL0     H51270  11.885   2.257   4.620  0.3765  0.1172 -0.6239
  380MOL0     H51271  11.946   2.405   4.554 -1.6115 -0.5646 -0.4177
  380MOL0     H51272  12.111   2.255   4.411  2.6536 -0.6151  0.3487
  380MOL0     H51273  12.079   2.117   4.513  1.6602 -0.7050  2.4078
  380MOL0     H51274  12.296   2.282   4.555 -0.1522  1.3355 -0.7815
  380MOL0     H51275  12.184   2.393   4.598  0.1087  0.5360 -0.4486
  380MOL0     H51276  12.102   2.238   4.788  0.4422  1.2840  2.0113
  380MOL0     H51277  12.267   2.303   4.785  0.4565  1.1935 -2.8342
  380MOL0     H51278  12.252   2.056   4.861  4.0976 -1.4280 -1.1966
  380MOL0     H51279  12.190   2.012   4.697 -0.5076 -0.8866  0.0395
  380MOL0     H51280  11.599   2.255   3.991  1.7561 -0.4365  0.4718
  380MOL0     H51281  11.412   2.198   3.863 -3.9578  0.7253  0.3762
  380MOL0     H51282  11.064   1.660   3.886  3.9259 -0.1510  0.6873
  380MOL0     H51283  10.914   1.582   3.695 -0.2549 -1.1583 -1.5970
  380MOL0     H51284   9.712   1.914   2.548 -1.5149 -3.6420  2.8235
  380MOL0     H51285   9.624   2.142   2.461 -3.2583  1.8528 -0.3727
  380MOL0     H51286   9.378   2.297   2.134 -0.2707 -0.5204 -1.3847
  380MOL0     H51287   9.337   2.483   1.989 -2.3168 -3.1811 -0.0413
  380MOL0     H51288   9.192   2.903   2.126 -1.9181 -0.6498  0.8754
  380MOL0     H51289   9.120   2.741   2.135  0.0768 -1.2544 -0.2608
  380MOL0     H51290   9.107   2.740   1.884  1.4911  1.3999 -1.7986
  380MOL0     H51291   9.162   2.903   1.885  0.2207 -0.1364  0.5900
  380MOL0     H51292   8.995   2.973   2.042 -0.0470 -0.4253  1.6543
  380MOL0     H51293   8.914   2.811   2.034 -0.3795  1.6759  0.8449
  380MOL0     H51294   8.783   2.940   1.883 -0.7178 -2.8798 -3.0849
  380MOL0     H51295   8.932   3.022   1.833  0.3290  1.7018  1.0095
  380MOL0     H51296   8.876   2.667   1.585  3.3741 -0.6260 -1.1165
  380MOL0     H51297   9.290   2.742   2.333 -1.6175  1.3552 -1.4608
  380MOL0     H51298   9.371   2.575   2.564 -0.9007 -2.9719  2.2721
  380MOL0     H51299   9.222   2.640   2.520 -1.5439 -1.9174  1.0726
  380MOL0     H51300   9.222   2.469   2.552 -0.1390 -0.5250  0.1404
  381MOL0     O51301   8.821   0.499   8.664  0.3936 -0.0290  0.0274
  381MOL0     C51302   8.761   0.572   8.586  0.6528 -0.2224 -0.0542
  381MOL0     O51303   8.667   0.676   8.624 -0.1188  0.1944 -0.7981
  381MOL0     C51304   8.624   0.694   8.755 -0.5712  0.5823  0.1124
  381MOL0     C51305   8.568   0.596   8.830  0.7527 -1.0786 -0.6062
  381MOL0     C51306   8.510   0.631   8.952  0.6731 -0.2719  0.6744
  381MOL0     C51307   8.530   0.753   9.001 -0.1435  0.4613 -0.5103
  381MOL0     O51308   8.472   0.769   9.127 -0.8577  0.0289 -0.3263
  381MOL0     C51309   8.439   0.898   9.174  0.2956 -0.8681 -0.0479
  381MOL0     C51310   8.329   0.963   9.094 -0.0347  0.2638 -0.6046
  381MOL0     C51311   8.303   1.097   9.150 -0.1503  0.2314 -0.2671
  381MOL0     C51312   8.179   1.165   9.084 -0.4263  0.5792  0.1304
  381MOL0     C51313   8.172   1.303   9.147  0.1201 -0.3678 -0.9283
  381MOL0     C51314   8.089   1.409   9.069 -0.2874  0.9030  0.2368
  381MOL0     C51315   8.106   1.554   9.116 -0.0155 -0.4952 -0.4021
  381MOL0     C51316   8.029   1.652   9.023  0.3676  1.0890  0.7694
  381MOL0     N51317   8.040   1.785   9.082  0.2586 -0.1228 -0.0413
  381MOL0     C51318   7.987   1.824   9.200  0.0412 -0.7239 -0.1700
  381MOL0     C51319   8.047   1.936   9.221 -1.1530 -0.8190 -1.7230
  381MOL0     C51320   8.045   2.018   9.347 -0.2651 -0.2230 -0.7405
  381MOL0     C51321   7.914   2.088   9.363 -0.4843 -0.1384  0.2849
  381MOL0     C51322   7.863   2.172   9.251  0.1771 -0.4336 -0.1321
  381MOL0     C51323   7.961   2.282   9.210  0.0669  0.3584  1.0656
  381MOL0     O51324   8.000   2.362   9.326 -0.0040  0.2104  0.4779
  381MOL0     C51325   7.900   2.435   9.395  0.7257  1.0885  1.2559
  381MOL0     C51326   7.941   2.481   9.524 -0.0682  0.3332 -0.1926
  381MOL0     C51327   7.856   2.558   9.608  0.3985  0.1542  0.1317
  381MOL0     C51328   7.736   2.598   9.552  1.0932 -1.1294 -0.9778
  381MOL0     C51329   7.642   2.679   9.636  0.4696 -0.0238 -0.9617
  381MOL0     O51330   7.511   2.701   9.608 -0.1772 -0.0502  0.2737
  381MOL0     C51331   7.428   2.777   9.692  0.7107  0.3588 -0.4543
  381MOL0     C51332   7.463   2.890   9.752  0.6655  0.0694 -0.1076
  381MOL0     C51333   7.389   2.958   9.847 -0.4331  0.1793 -0.0756
  381MOL0     C51334   7.273   2.903   9.893 -0.1630 -0.4810  0.1309
  381MOL0     O51335   7.180   2.965   9.973  0.1742 -0.1441  0.1118
  381MOL0     C51336   7.224   3.077  10.069  0.6658  0.2709  0.3844
  381MOL0     C51337   7.121   3.165  10.133  0.4256 -0.2380  0.7858
  381MOL0     C51338   7.071   3.117  10.265  0.7499 -1.0336 -0.8193
  381MOL0     C51339   6.996   3.220  10.338  0.0689 -0.3881 -0.1849
  381MOL0     C51340   6.863   3.251  10.279 -0.6092  0.2839  0.0113
  381MOL0     C51341   6.774   3.351  10.360 -0.9816 -0.5199  0.5209
  381MOL0     C51342   6.827   3.491  10.377 -0.8676 -0.0294 -0.1023
  381MOL0     C51343   6.784   3.556  10.510 -1.4177  0.2845  0.6557
  381MOL0    Cl51344   6.600   3.578  10.524  0.1871 -0.0311 -0.2151
  381MOL0     C51345   7.231   2.784   9.836 -0.2021 -1.2477 -0.2310
  381MOL0     C51346   7.304   2.720   9.737 -0.3199  0.0465  0.1830
  381MOL0     O51347   7.688   2.711   9.746  0.5111 -0.0153 -0.3177
  381MOL0     C51348   7.696   2.556   9.427 -0.8519 -0.0035 -0.4432
  381MOL0     C51349   7.775   2.473   9.340  0.2020  0.0724 -0.1912
  381MOL0     N51350   8.132   1.980   9.115 -0.0914  0.5386  0.6339
  381MOL0     N51351   8.130   1.878   9.036 -0.5593  0.0346  0.5610
  381MOL0     C51352   8.610   0.845   8.941 -0.3611  0.1133 -1.7001
  381MOL0     C51353   8.653   0.817   8.815  0.1829  0.2256 -0.5487
  381MOL0     C51354   8.782   0.554   8.435 -0.1481 -0.1503  0.2114
  381MOL0     C51355   8.835   0.433   8.397  0.9044 -0.3066  0.2448
  381MOL0     C51356   8.861   0.403   8.265  0.5924  0.1607  0.2630
  381MOL0     C51357   8.808   0.487   8.171  0.1381 -0.1885 -0.5044
  381MOL0     O51358   8.828   0.476   8.035 -0.3960 -0.0266 -0.0053
  381MOL0     C51359   8.939   0.397   7.978  0.0942  0.4349  0.3281
  381MOL0     C51360   8.953   0.413   7.826 -0.4900 -0.4144  0.0884
  381MOL0     C51361   9.072   0.329   7.776  0.1191  1.5729 -0.2655
  381MOL0     C51362   9.081   0.342   7.622 -0.7342 -0.5626 -0.4963
  381MOL0     C51363   8.987   0.242   7.566 -0.2271 -0.2489  0.6492
  381MOL0     C51364   8.918   0.167   7.503 -0.2636  0.2402  0.2029
  381MOL0     C51365   8.744   0.603   8.203 -0.1349  0.3386 -0.5997
  381MOL0     C51366   8.732   0.642   8.337  0.0672  0.4430  0.6220
  381MOL0     C51367   8.665   0.778   8.353 -0.6818  0.1086 -0.9120
  381MOL0     H51368   8.560   0.498   8.784 -0.0732 -0.3440 -2.1050
  381MOL0     H51369   8.452   0.554   9.002 -2.3699  0.6847 -1.1467
  381MOL0     H51370   8.408   0.883   9.278 -2.7104  3.6210 -0.0340
  381MOL0     H51371   8.525   0.965   9.178 -0.4524  0.1603 -0.7185
  381MOL0     H51372   8.237   0.910   9.118 -1.4706  3.0112  0.3967
  381MOL0     H51373   8.347   0.965   8.986  2.7258 -1.9409 -0.3137
  381MOL0     H51374   8.384   1.170   9.145 -0.0556  0.0542 -2.0654
  381MOL0     H51375   8.273   1.091   9.255  0.7747  2.0102  0.1364
  381MOL0     H51376   8.187   1.166   8.974  1.4461  3.3302  0.1698
  381MOL0     H51377   8.083   1.117   9.102 -0.1341  0.9087  3.0299
  381MOL0     H51378   8.140   1.292   9.251  2.0401  1.2711 -0.1002
  381MOL0     H51379   8.273   1.344   9.156 -0.8119  1.8507  0.3873
  381MOL0     H51380   8.125   1.395   8.967 -0.7030 -1.3871  0.3543
  381MOL0     H51381   7.983   1.380   9.068  0.2050 -1.0773  0.6951
  381MOL0     H51382   8.213   1.578   9.118  0.5262 -2.5929  2.4524
  381MOL0     H51383   8.079   1.558   9.222  0.6818  1.0198 -0.2587
  381MOL0     H51384   8.073   1.650   8.923 -1.0939  1.9369  0.0803
  381MOL0     H51385   7.928   1.617   9.000  1.0173  0.0127 -0.6469
  381MOL0     H51386   7.907   1.785   9.261  2.5534 -2.1891  2.4476
  381MOL0     H51387   8.068   1.952   9.431 -1.9543 -1.0473 -0.8834
  381MOL0     H51388   8.121   2.095   9.335 -1.3084  1.4650  2.3960
  381MOL0     H51389   7.843   2.014   9.402 -0.5879 -0.6504 -0.8183
  381MOL0     H51390   7.917   2.154   9.450 -2.7263  0.0639  0.2649
  381MOL0     H51391   7.775   2.228   9.284  1.2474  2.9382 -2.4905
  381MOL0     H51392   7.834   2.120   9.159 -1.6595  1.7694 -0.8913
  381MOL0     H51393   7.925   2.355   9.138  1.2046  1.4052  1.5137
  381MOL0     H51394   8.047   2.238   9.159 -2.2673  1.2113 -4.2968
  381MOL0     H51395   8.042   2.454   9.552 -0.7807 -0.2980  1.9631
  381MOL0     H51396   7.890   2.577   9.710  2.2332  1.6759 -0.6981
  381MOL0     H51397   7.557   2.936   9.725  2.3194 -1.6609  2.3667
  381MOL0     H51398   7.439   3.045   9.888  1.5724 -0.3940 -1.1575
  381MOL0     H51399   7.267   3.028  10.157  1.0197  0.8255  0.5216
  381MOL0     H51400   7.298   3.136  10.015  1.5230 -1.0269  0.0732
  381MOL0     H51401   7.173   3.260  10.146  1.2631 -0.8597  2.2345
  381MOL0     H51402   7.044   3.178  10.056  2.1243 -0.0836 -0.9369
  381MOL0     H51403   7.003   3.036  10.240 -0.9870  0.5796 -1.5600
  381MOL0     H51404   7.153   3.081  10.328  0.6537 -0.0504 -0.0908
  381MOL0     H51405   7.055   3.310  10.322  1.4345 -1.6384 -2.7597
  381MOL0     H51406   6.986   3.191  10.443  1.1422 -0.3007 -0.0472
  381MOL0     H51407   6.808   3.161  10.250 -0.1682  1.4348 -5.2963
  381MOL0     H51408   6.893   3.286  10.180  4.0950  0.0286  1.0947
  381MOL0     H51409   6.676   3.363  10.312 -1.3600 -0.6456  1.2436
  381MOL0     H51410   6.754   3.318  10.463 -0.8106  1.0607  1.0864
  381MOL0     H51411   6.799   3.552  10.290  0.1288 -0.9679 -1.1211
  381MOL0     H51412   6.936   3.503  10.376 -0.9779  1.4674 -2.3880
  381MOL0     H51413   6.837   3.499  10.587 -2.2782 -1.0172  0.3210
  381MOL0     H51414   6.833   3.654  10.509  2.0253 -1.2837  0.5928
  381MOL0     H51415   7.148   2.726   9.874 -0.7604 -1.2321 -1.3896
  381MOL0     H51416   7.277   2.624   9.694  0.1401  0.5448 -1.2965
  381MOL0     H51417   7.599   2.565   9.380 -2.6109 -2.7821  2.2774
  381MOL0     H51418   7.752   2.458   9.235 -1.5617 -1.8070  0.3933
  381MOL0     H51419   8.636   0.942   8.983 -1.8769 -0.8924  1.9898
  381MOL0     H51420   8.705   0.892   8.756  2.8888  0.0900  1.4194
  381MOL0     H51421   8.865   0.362   8.473 -0.1156  0.5476  1.4900
  381MOL0     H51422   8.913   0.311   8.240 -1.5762 -0.3407 -3.0768
  381MOL0     H51423   8.916   0.290   7.981 -2.5545  0.7670 -2.7492
  381MOL0     H51424   9.036   0.406   8.029  0.6942 -1.3809 -0.4269
  381MOL0     H51425   8.963   0.515   7.790 -3.0770 -1.4228 -4.2639
  381MOL0     H51426   8.852   0.383   7.795 -2.5408  0.6092  4.8534
  381MOL0     H51427   9.060   0.225   7.806  0.7405  1.8911  1.1915
  381MOL0     H51428   9.155   0.364   7.838  0.4196 -1.7939  1.4532
  381MOL0     H51429   9.056   0.443   7.587  0.6956 -0.1800 -0.5054
  381MOL0     H51430   9.188   0.328   7.604 -0.6538 -0.0698 -0.4198
  381MOL0     H51431   8.861   0.098   7.445  1.0409 -1.9820  1.4224
  381MOL0     H51432   8.708   0.657   8.115 -1.0251 -3.1818 -2.5629
  381MOL0     H51433   8.725   0.840   8.420 -0.5007  0.0891 -1.0543
  381MOL0     H51434   8.668   0.840   8.263  0.5367  0.7785 -0.4225
  381MOL0     H51435   8.562   0.758   8.386 -0.3260 -1.2427 -0.5531
  382MOL0     O51436   1.630  10.778   7.257  0.3050 -1.1575 -0.0724
  382MOL0     C51437   1.516  10.740   7.253  0.3630 -0.9135 -0.3564
  382MOL0     O51438   1.427  10.758   7.140  0.1335 -0.3833 -0.2451
  382MOL0     C51439   1.487  10.826   7.038  1.0430 -0.7262 -0.4019
  382MOL0     C51440   1.483  10.742   6.926 -0.3354 -0.8452 -0.0275
  382MOL0     C51441   1.518  10.805   6.808 -0.3491 -0.7636  0.9550
  382MOL0     C51442   1.565  10.934   6.793 -0.0313 -0.6356 -0.4825
  382MOL0     O51443   1.612  10.986   6.676  0.1035 -0.2729 -1.0944
  382MOL0     C51444   1.628  10.906   6.560 -0.4897  0.3960 -0.7649
  382MOL0     C51445   1.696  10.987   6.445 -0.0902 -0.2562  0.0250
  382MOL0     C51446   1.799  11.098   6.487  0.0946 -0.1403 -0.5643
  382MOL0     C51447   1.782  11.231   6.413  0.1066  0.7430  0.5511
  382MOL0     C51448   1.895  11.330   6.431  0.4113 -0.1888 -0.4500
  382MOL0     C51449   1.915  11.357   6.580 -0.2174  0.0137  0.3314
  382MOL0     C51450   2.007  11.471   6.619 -0.2088  0.2571  0.1297
  382MOL0     C51451   2.145  11.461   6.553  0.6443  0.3216  0.5923
  382MOL0     N51452   2.234  11.360   6.599 -0.6687 -0.0831 -0.9601
  382MOL0     C51453   2.270  11.336   6.736 -0.3449 -0.1769  0.5999
  382MOL0     C51454   2.356  11.237   6.735 -0.8277  0.9327 -0.5548
  382MOL0     C51455   2.439  11.169   6.837  0.8182 -0.1453  0.6726
  382MOL0     C51456   2.429  11.013   6.815  0.7816  0.5804 -0.5006
  382MOL0     C51457   2.536  10.947   6.910 -0.1904 -0.5428  0.2532
  382MOL0     C51458   2.523  10.797   6.925  0.7352  0.4839 -0.0876
  382MOL0     O51459   2.388  10.749   6.938  0.3515  0.1596 -0.2793
  382MOL0     C51460   2.345  10.703   7.058  0.7563 -0.4318  0.0057
  382MOL0     C51461   2.255  10.597   7.054 -0.8358 -0.2779  0.7438
  382MOL0     C51462   2.241  10.515   7.162 -0.2057  0.0193 -0.0578
  382MOL0     C51463   2.299  10.542   7.287 -1.2559 -0.3123  0.2048
  382MOL0     C51464   2.280  10.453   7.402 -0.2019 -0.3157  0.7162
  382MOL0     O51465   2.355  10.478   7.511 -0.4194  0.5538  0.2770
  382MOL0     C51466   2.355  10.387   7.617  1.3146  0.4232  0.1257
  382MOL0     C51467   2.397  10.444   7.729  0.2565 -0.9076 -0.9685
  382MOL0     C51468   2.424  10.378   7.850  0.0786  0.9951 -0.9515
  382MOL0     C51469   2.399  10.232   7.854  0.7957 -0.5290  0.4663
  382MOL0     O51470   2.407  10.158   7.961 -0.6217  0.7479  0.1883
  382MOL0     C51471   2.468  10.203   8.082 -0.3732  0.3308 -0.2335
  382MOL0     C51472   2.492  10.088   8.176 -0.7406  0.6984  0.3396
  382MOL0     C51473   2.544  10.136   8.317 -0.2158  0.4248  0.4818
  382MOL0     C51474   2.489  10.045   8.417 -0.3133 -1.0915 -1.4775
  382MOL0     C51475   2.488  10.104   8.560  0.0356  0.1867 -0.7156
  382MOL0     C51476   2.617  10.172   8.618  0.0822  0.2995  0.4313
  382MOL0     C51477   2.572  10.234   8.753  0.1157 -0.2294  0.3142
  382MOL0     C51478   2.681  10.256   8.859 -0.7771 -0.5234  0.0846
  382MOL0    Cl51479   2.623  10.365   8.992 -0.0698  0.0622 -0.3103
  382MOL0     C51480   2.339  10.176   7.739 -0.2229  0.1626 -0.2204
  382MOL0     C51481   2.319  10.252   7.623 -0.3915  0.7468 -0.3123
  382MOL0     O51482   2.193  10.363   7.394  0.7513  0.0873  0.2331
  382MOL0     C51483   2.378  10.655   7.297 -1.4607  0.1260 -0.1180
  382MOL0     C51484   2.397  10.736   7.185 -0.2830 -0.4019  0.1574
  382MOL0     N51485   2.376  11.206   6.606 -0.4670 -0.0488  0.1910
  382MOL0     N51486   2.305  11.277   6.523 -0.9751 -0.4101  0.4187
  382MOL0     C51487   1.553  11.017   6.906 -0.0493 -0.7161 -0.5730
  382MOL0     C51488   1.509  10.959   7.026 -0.9953  0.0601  0.5543
  382MOL0     C51489   1.482  10.647   7.365  0.9656 -0.8206  0.1767
  382MOL0     C51490   1.586  10.592   7.436  0.3582 -0.5735 -1.2164
  382MOL0     C51491   1.560  10.507   7.538  0.5430  0.1589 -0.4161
  382MOL0     C51492   1.427  10.496   7.581  1.6597 -0.3578  0.1676
  382MOL0     O51493   1.385  10.425   7.686 -0.1923  0.3786 -0.1603
  382MOL0     C51494   1.472  10.390   7.795  0.2688  0.2067  0.5443
  382MOL0     C51495   1.464  10.482   7.918 -0.6440 -0.6326 -1.2843
  382MOL0     C51496   1.529  10.405   8.038 -0.3429 -0.5268  0.5779
  382MOL0     C51497   1.442  10.309   8.096  0.9884 -1.0426 -0.3465
  382MOL0     C51498   1.472  10.275   8.237 -0.0226 -0.0553 -0.2142
  382MOL0     C51499   1.533  10.255   8.337  0.7322  0.3297 -0.9496
  382MOL0     C51500   1.322  10.556   7.514 -0.1114 -0.1601  0.7834
  382MOL0     C51501   1.348  10.632   7.401 -0.3330  0.3879  0.9659
  382MOL0     C51502   1.239  10.694   7.329  0.9122  0.0614 -0.2859
  382MOL0     H51503   1.445  10.641   6.929  0.2999 -1.2043 -2.4853
  382MOL0     H51504   1.515  10.749   6.714  1.3645 -1.2610  1.1543
  382MOL0     H51505   1.675  10.809   6.579 -0.6466  0.4025 -0.3240
  382MOL0     H51506   1.527  10.888   6.522 -0.5741  0.4760 -0.5839
  382MOL0     H51507   1.619  11.035   6.385  0.0212 -1.1371 -0.8455
  382MOL0     H51508   1.740  10.905   6.387  3.3942  2.0483 -0.9162
  382MOL0     H51509   1.901  11.067   6.463 -0.3703 -1.8775 -0.4500
  382MOL0     H51510   1.787  11.131   6.591  0.5757  2.4045 -1.2412
  382MOL0     H51511   1.769  11.209   6.306 -4.3644 -0.5098  1.1451
  382MOL0     H51512   1.687  11.272   6.447 -2.3567 -3.8422  0.0270
  382MOL0     H51513   1.982  11.284   6.382 -1.0481  0.4334 -3.9440
  382MOL0     H51514   1.866  11.420   6.375  3.6107 -0.3050 -2.6172
  382MOL0     H51515   1.819  11.383   6.627  0.0864 -0.6552  1.3601
  382MOL0     H51516   1.949  11.265   6.629  1.9738  0.3924 -0.3664
  382MOL0     H51517   2.015  11.458   6.727 -1.9552 -2.4720  0.0219
  382MOL0     H51518   1.955  11.566   6.607  1.6561  1.5036  1.4364
  382MOL0     H51519   2.127  11.446   6.446 -3.2548  1.5024  0.9244
  382MOL0     H51520   2.196  11.557   6.566 -1.1438  1.5433 -0.8914
  382MOL0     H51521   2.239  11.385   6.828  2.9821 -1.9459  2.8398
  382MOL0     H51522   2.545  11.191   6.823  1.1304 -3.0335 -3.1374
  382MOL0     H51523   2.413  11.202   6.938 -0.8183 -1.5226  0.7511
  382MOL0     H51524   2.330  10.987   6.852  1.8185  0.4667  2.4838
  382MOL0     H51525   2.447  10.968   6.717 -0.1644  0.1020 -0.4683
  382MOL0     H51526   2.518  10.990   7.010 -1.2513 -1.9033  0.6810
  382MOL0     H51527   2.637  10.973   6.876 -1.6580  2.6870 -2.1405
  382MOL0     H51528   2.576  10.762   7.014 -0.0720 -0.5986 -0.0127
  382MOL0     H51529   2.566  10.755   6.833  3.2362  1.4544  0.5613
  382MOL0     H51530   2.211  10.575   6.957 -1.4312 -0.1379  0.9845
  382MOL0     H51531   2.195  10.419   7.138  1.6912 -1.2183  0.9737
  382MOL0     H51532   2.414  10.551   7.725  4.3669 -1.1903  1.9693
  382MOL0     H51533   2.454  10.448   7.927  2.1998 -2.8472  2.0744
  382MOL0     H51534   2.563  10.254   8.060  0.6544 -2.0316 -1.7645
  382MOL0     H51535   2.410  10.282   8.130  1.3856  1.5437 -0.0095
  382MOL0     H51536   2.400  10.031   8.188 -0.1212 -0.3582  0.1588
  382MOL0     H51537   2.572  10.024   8.137 -0.2972 -0.0368  2.3393
  382MOL0     H51538   2.653  10.141   8.323 -0.1882 -0.8945  1.7969
  382MOL0     H51539   2.510  10.239   8.335  1.1105  1.0417 -0.4109
  382MOL0     H51540   2.554   9.957   8.418  1.3028  0.0167  0.7490
  382MOL0     H51541   2.382  10.029   8.398 -1.6354  3.4276  0.6180
  382MOL0     H51542   2.450  10.029   8.631  0.2364  1.3743  0.6964
  382MOL0     H51543   2.415  10.185   8.571 -2.9828 -2.3815 -0.3011
  382MOL0     H51544   2.682  10.084   8.625  0.6824  0.6929 -0.0746
  382MOL0     H51545   2.657  10.253   8.556  1.7720  0.6821  1.9252
  382MOL0     H51546   2.495  10.184   8.812  1.1644  1.1100  2.9770
  382MOL0     H51547   2.517  10.320   8.713  2.0269  0.0998 -1.8469
  382MOL0     H51548   2.698  10.153   8.894 -1.1429 -0.9680 -0.9871
  382MOL0     H51549   2.767  10.306   8.815  0.4173  0.7497  3.5343
  382MOL0     H51550   2.315  10.070   7.734 -0.7177  0.3397 -2.6355
  382MOL0     H51551   2.292  10.209   7.527 -2.1668  0.2854  0.3568
  382MOL0     H51552   2.427  10.678   7.391 -0.1700 -2.1995 -0.1517
  382MOL0     H51553   2.450  10.831   7.193  0.7974 -0.6726 -2.6238
  382MOL0     H51554   1.572  11.123   6.906  0.4101 -0.6937  2.7752
  382MOL0     H51555   1.503  11.026   7.111  3.9151  2.8067 -0.8846
  382MOL0     H51556   1.691  10.592   7.410  0.1676 -1.5390 -2.0847
  382MOL0     H51557   1.643  10.444   7.569  2.9886  2.7471 -1.2305
  382MOL0     H51558   1.579  10.377   7.775  0.1702  0.6479 -0.3248
  382MOL0     H51559   1.453  10.285   7.820  1.9295 -0.1783  0.2793
  382MOL0     H51560   1.365  10.524   7.938  0.0113  0.6285 -0.5670
  382MOL0     H51561   1.535  10.563   7.901  0.0510 -0.3679  2.1433
  382MOL0     H51562   1.557  10.484   8.108  3.7320 -0.1353 -1.1918
  382MOL0     H51563   1.634  10.380   8.022  0.4290  2.9609 -0.7644
  382MOL0     H51564   1.339  10.344   8.086  0.7675 -1.8707 -1.0946
  382MOL0     H51565   1.432  10.224   8.027 -1.4428  0.9335 -2.6220
  382MOL0     H51566   1.578  10.239   8.433 -2.7662  0.6441  0.9210
  382MOL0     H51567   1.219  10.539   7.545 -0.3950 -1.6295 -0.7937
  382MOL0     H51568   1.218  10.641   7.236 -1.2858  0.6445 -0.1856
  382MOL0     H51569   1.149  10.684   7.391  1.7611  0.4373  1.0548
  382MOL0     H51570   1.250  10.801   7.311 -0.0210  0.5551  1.7383
  383MOL0     O51571   5.839   7.643   5.391  0.1185  0.2624 -0.3762
  383MOL0     C51572   5.799   7.756   5.378 -0.3405 -0.4037 -0.0806
  383MOL0     O51573   5.835   7.839   5.273  0.6993 -0.2292  0.3097
  383MOL0     C51574   5.870   7.768   5.161 -0.7671  0.5763 -0.2483
  383MOL0     C51575   5.771   7.726   5.064  0.6942 -0.4142 -0.0609
  383MOL0     C51576   5.802   7.642   4.964  0.2191 -0.0033 -0.0894
  383MOL0     C51577   5.932   7.609   4.940  0.7960  1.1041  0.4854
  383MOL0     O51578   5.935   7.520   4.841  0.1293  0.2269 -0.7492
  383MOL0     C51579   6.015   7.403   4.869  0.0585 -0.6336  0.8434
  383MOL0     C51580   6.011   7.316   4.745 -0.1246  0.2634  1.6426
  383MOL0     C51581   6.063   7.378   4.614 -0.0171  0.3455 -0.1840
  383MOL0     C51582   5.943   7.435   4.528 -0.1107  0.0935 -1.2525
  383MOL0     C51583   5.845   7.332   4.472 -0.2316  0.5276  0.4004
  383MOL0     C51584   5.904   7.205   4.415 -0.4047 -0.4891  1.2729
  383MOL0     C51585   5.790   7.115   4.350 -0.7516  0.7543 -0.0212
  383MOL0     C51586   5.768   7.138   4.201 -0.4766 -0.0624  0.4353
  383MOL0     N51587   5.684   7.031   4.145 -0.0623 -1.1321  0.6553
  383MOL0     C51588   5.548   7.037   4.147 -0.2704 -0.2793 -0.1185
  383MOL0     C51589   5.504   6.926   4.090  0.1125 -0.0435 -0.9645
  383MOL0     C51590   5.370   6.865   4.038 -0.7613  0.0711 -0.5329
  383MOL0     C51591   5.342   6.961   3.917  0.2684 -0.4289 -0.1607
  383MOL0     C51592   5.210   6.923   3.844  0.5591  0.3056  0.1823
  383MOL0     C51593   5.097   6.967   3.938  0.2499 -0.3424 -0.5886
  383MOL0     O51594   4.974   6.986   3.870 -0.4758  0.2686 -0.7053
  383MOL0     C51595   4.873   7.037   3.947  0.2391  0.1576 -0.7666
  383MOL0     C51596   4.747   7.045   3.887 -0.3014 -0.1089  0.5829
  383MOL0     C51597   4.636   7.102   3.945  0.2804 -0.2880  0.3641
  383MOL0     C51598   4.642   7.142   4.081  0.6169  0.6570  0.7842
  383MOL0     C51599   4.522   7.185   4.141  0.5225  0.1959  0.4133
  383MOL0     O51600   4.412   7.215   4.060  0.1666  0.3224  0.2832
  383MOL0     C51601   4.315   7.286   4.123 -0.0239  0.5506 -0.6893
  383MOL0     C51602   4.239   7.236   4.225  0.0618 -0.0654  0.1343
  383MOL0     C51603   4.150   7.322   4.294 -0.4091 -0.4189 -0.1456
  383MOL0     C51604   4.126   7.456   4.260 -0.6932 -0.3436  0.2091
  383MOL0     O51605   4.034   7.538   4.324 -0.0369  0.1687  0.8516
  383MOL0     C51606   3.980   7.499   4.456 -0.8698  0.4519 -0.3700
  383MOL0     C51607   3.885   7.609   4.480  0.0989 -0.1764 -1.5883
  383MOL0     C51608   3.773   7.597   4.368  0.2547 -0.4053 -0.3375
  383MOL0     C51609   3.638   7.620   4.448  0.0064 -0.8527 -0.3430
  383MOL0     C51610   3.592   7.483   4.515 -0.1973  0.7543 -0.1600
  383MOL0     C51611   3.534   7.393   4.412  0.6730  0.0628  0.2572
  383MOL0     C51612   3.479   7.257   4.466 -0.3945  0.2283  0.4816
  383MOL0     C51613   3.407   7.194   4.353 -0.0997  0.4637 -0.3747
  383MOL0    Cl51614   3.340   7.029   4.377  0.4138  0.5035  0.0080
  383MOL0     C51615   4.202   7.497   4.146 -0.2194  0.8743  1.0113
  383MOL0     C51616   4.292   7.415   4.085  0.6554  0.0641  0.4987
  383MOL0     O51617   4.528   7.192   4.263 -0.4415 -0.2418 -0.5742
  383MOL0     C51618   4.769   7.155   4.133 -0.3302 -0.3547 -0.6852
  383MOL0     C51619   4.883   7.105   4.070  0.5622  0.3629 -1.0090
  383MOL0     N51620   5.616   6.851   4.057  0.5885 -0.6464 -0.5072
  383MOL0     N51621   5.721   6.914   4.101 -0.0198 -0.3555 -0.1236
  383MOL0     C51622   6.031   7.658   5.025 -0.5305 -0.9535 -0.1532
  383MOL0     C51623   6.005   7.744   5.132 -0.3675 -0.6029 -0.7835
  383MOL0     C51624   5.724   7.814   5.485 -0.4875  0.4531 -0.7833
  383MOL0     C51625   5.614   7.738   5.536 -0.2600 -0.2401 -0.4265
  383MOL0     C51626   5.521   7.796   5.636 -0.1816 -0.0195  0.4721
  383MOL0     C51627   5.546   7.927   5.686 -0.2649 -0.8153 -0.2859
  383MOL0     O51628   5.454   7.976   5.770 -0.0858  0.3902 -0.4881
  383MOL0     C51629   5.437   7.890   5.888 -0.0022  0.2162  0.1883
  383MOL0     C51630   5.391   7.977   5.997  0.4244  1.2039  0.6227
  383MOL0     C51631   5.502   8.058   6.053  0.1899 -0.3381 -0.0624
  383MOL0     C51632   5.448   8.160   6.157 -0.2001  0.5869  0.1762
  383MOL0     C51633   5.540   8.265   6.190 -0.4240 -0.1279  0.3249
  383MOL0     C51634   5.620   8.351   6.222  0.5210  0.0292  0.3387
  383MOL0     C51635   5.658   7.991   5.636  0.2967  0.4452  1.0513
  383MOL0     C51636   5.748   7.934   5.541 -0.5077  0.5697  0.2840
  383MOL0     C51637   5.869   8.028   5.498 -0.8172  1.2953 -0.2302
  383MOL0     H51638   5.671   7.764   5.075  1.0841  0.7035 -0.2824
  383MOL0     H51639   5.731   7.593   4.897 -0.0797 -1.5261  1.3071
  383MOL0     H51640   6.117   7.426   4.901 -0.2524  3.5650 -0.4767
  383MOL0     H51641   5.965   7.335   4.939  1.0969 -0.9248  1.3114
  383MOL0     H51642   5.912   7.270   4.735  0.5726 -0.8976 -0.6712
  383MOL0     H51643   6.071   7.228   4.773  1.2908  0.6352 -0.0760
  383MOL0     H51644   6.119   7.297   4.566 -2.0848 -0.5185 -1.2818
  383MOL0     H51645   6.128   7.461   4.644  2.8895 -2.1726  0.9787
  383MOL0     H51646   5.885   7.509   4.584 -0.2001 -0.7012 -0.2854
  383MOL0     H51647   5.997   7.486   4.447  1.0657 -0.6074 -0.9278
  383MOL0     H51648   5.771   7.303   4.548 -0.3584  3.2580  1.4253
  383MOL0     H51649   5.790   7.374   4.387 -4.4145  0.3934  2.7344
  383MOL0     H51650   5.982   7.231   4.342 -2.0543  1.4793  0.1125
  383MOL0     H51651   5.940   7.145   4.499 -1.8126 -1.4861  1.1889
  383MOL0     H51652   5.704   7.128   4.416 -0.2098 -2.4315  1.5529
  383MOL0     H51653   5.818   7.010   4.363 -0.7257  0.7400 -0.1893
  383MOL0     H51654   5.724   7.238   4.193  1.1822  0.9445  2.7273
  383MOL0     H51655   5.867   7.150   4.154  0.5869 -1.2928  2.2378
  383MOL0     H51656   5.488   7.122   4.178 -1.1189  0.2009 -2.8141
  383MOL0     H51657   5.382   6.758   4.018 -1.3900 -0.2658  0.7828
  383MOL0     H51658   5.298   6.872   4.120  0.7395 -0.5878  0.9089
  383MOL0     H51659   5.347   7.066   3.947 -1.0488  0.3657 -2.4424
  383MOL0     H51660   5.411   6.954   3.833 -1.0817 -1.5378 -1.2446
  383MOL0     H51661   5.203   6.815   3.829  1.2761  0.1774  0.7031
  383MOL0     H51662   5.210   6.979   3.750  0.0775  0.7664  0.4526
  383MOL0     H51663   5.122   7.064   3.981 -1.1789  0.0939 -0.6799
  383MOL0     H51664   5.091   6.897   4.022  2.4974 -0.2785 -0.3017
  383MOL0     H51665   4.739   7.008   3.785 -0.2227 -0.8074  0.8249
  383MOL0     H51666   4.550   7.104   3.880  0.8227  1.0996 -0.3643
  383MOL0     H51667   4.236   7.132   4.256 -3.8059 -0.5161 -1.2251
  383MOL0     H51668   4.095   7.278   4.376 -1.0919  1.6828  0.5877
  383MOL0     H51669   3.932   7.401   4.455 -1.6351  0.7636  1.3606
  383MOL0     H51670   4.057   7.501   4.534  0.5460 -0.5159 -1.6974
  383MOL0     H51671   3.838   7.581   4.575 -0.5798 -0.7398 -2.0784
  383MOL0     H51672   3.931   7.708   4.493  0.1264 -0.3959  0.2020
  383MOL0     H51673   3.782   7.677   4.293 -3.5110 -1.3155 -1.9716
  383MOL0     H51674   3.778   7.500   4.319 -1.0711 -1.0957  0.8337
  383MOL0     H51675   3.557   7.660   4.386  1.3299  1.7915 -0.5349
  383MOL0     H51676   3.640   7.696   4.527 -2.9640 -2.0660  1.0186
  383MOL0     H51677   3.515   7.501   4.590  0.0540 -0.5855  0.4377
  383MOL0     H51678   3.683   7.434   4.552 -1.3549 -3.4266 -2.1834
  383MOL0     H51679   3.455   7.444   4.357  3.5522  2.0837 -2.3955
  383MOL0     H51680   3.607   7.368   4.334  2.8009 -2.7680  2.8650
  383MOL0     H51681   3.416   7.274   4.554 -2.3678  1.3687 -1.0742
  383MOL0     H51682   3.569   7.199   4.487  0.9626  1.4090 -1.7613
  383MOL0     H51683   3.323   7.254   4.315  1.9137  3.0248 -1.0330
  383MOL0     H51684   3.483   7.195   4.275  0.1092  0.2236 -0.1754
  383MOL0     H51685   4.175   7.591   4.099 -1.0500  1.2756  2.2278
  383MOL0     H51686   4.348   7.460   4.003 -2.0862  0.5989 -1.1995
  383MOL0     H51687   4.768   7.206   4.229 -3.4403  1.8520 -1.7248
  383MOL0     H51688   4.977   7.114   4.124  0.4841  1.1382 -0.9812
  383MOL0     H51689   6.135   7.633   5.008  0.1792  1.7019 -0.1224
  383MOL0     H51690   6.082   7.765   5.205  1.3287 -0.9325 -2.4246
  383MOL0     H51691   5.593   7.640   5.495 -1.5673 -0.0310 -0.2836
  383MOL0     H51692   5.435   7.742   5.674 -0.0041 -1.4438 -1.0162
  383MOL0     H51693   5.519   7.824   5.918 -0.3513 -0.1592  0.3124
  383MOL0     H51694   5.356   7.823   5.860  1.2726 -0.5330 -1.9979
  383MOL0     H51695   5.351   7.912   6.076  1.4204 -0.3269 -0.0789
  383MOL0     H51696   5.306   8.035   5.959  0.4270 -1.4732 -4.2903
  383MOL0     H51697   5.552   8.115   5.974  2.9146  1.0360  2.4544
  383MOL0     H51698   5.574   7.988   6.096  1.1794  0.3253 -0.5939
  383MOL0     H51699   5.358   8.210   6.118 -0.2469  1.7871  1.7023
  383MOL0     H51700   5.419   8.122   6.255  0.8882  2.7312  1.4089
  383MOL0     H51701   5.686   8.430   6.250  2.3826 -1.1370 -0.5335
  383MOL0     H51702   5.676   8.096   5.657  0.1043  0.5535  0.6980
  383MOL0     H51703   5.936   7.964   5.440  1.1554  1.3601  1.8216
  383MOL0     H51704   5.824   8.112   5.444  0.8615  2.1042 -0.4462
  383MOL0     H51705   5.929   8.063   5.583  1.6487  2.1709 -2.2037
  384MOL0     O51706   0.588   2.256   7.996 -0.2728  0.0489 -0.2535
  384MOL0     C51707   0.678   2.336   8.010 -0.3979 -0.1843 -0.5203
  384MOL0     O51708   0.807   2.320   7.974 -0.4720 -0.4056  0.5041
  384MOL0     C51709   0.869   2.190   7.955  0.4755  0.6547  1.3072
  384MOL0     C51710   0.813   2.061   7.993 -0.4750  0.0453  0.9286
  384MOL0     C51711   0.884   1.940   7.953  0.0950  0.5659  0.5746
  384MOL0     C51712   1.012   1.946   7.903  0.5985 -0.3163 -0.1975
  384MOL0     O51713   1.079   1.831   7.878  0.3246 -0.1182 -0.6478
  384MOL0     C51714   1.197   1.821   7.959 -0.0185 -0.3251 -0.5887
  384MOL0     C51715   1.189   1.719   8.076 -0.1429 -0.3214  0.1699
  384MOL0     C51716   1.107   1.761   8.198  0.2647 -1.2206  0.8899
  384MOL0     C51717   1.091   1.640   8.293 -1.2486 -0.0716  0.1553
  384MOL0     C51718   0.999   1.666   8.407 -0.9551  0.5265 -0.8498
  384MOL0     C51719   1.045   1.763   8.514 -0.3184 -0.5324 -0.4712
  384MOL0     C51720   0.945   1.754   8.626  0.3912 -0.1479  0.5824
  384MOL0     C51721   0.997   1.766   8.765 -0.3421 -0.5809 -0.0868
  384MOL0     N51722   1.048   1.903   8.799  0.3323  0.6471 -0.4238
  384MOL0     C51723   1.138   1.978   8.727  0.2627 -0.5566 -0.0468
  384MOL0     C51724   1.149   2.104   8.781  0.8294  0.4785  0.0121
  384MOL0     C51725   1.234   2.220   8.755 -0.5418 -0.1086 -0.6248
  384MOL0     C51726   1.380   2.169   8.766 -0.1454  0.5285 -0.7260
  384MOL0     C51727   1.414   2.110   8.908 -0.5350 -0.6525  1.4627
  384MOL0     C51728   1.558   2.072   8.908  0.2957 -0.3690  0.5146
  384MOL0     O51729   1.559   1.961   9.001 -0.4484 -0.1728  0.4096
  384MOL0     C51730   1.672   1.909   9.047 -0.1790  0.2715  0.6511
  384MOL0     C51731   1.798   1.971   9.027 -1.3503 -0.4971  0.2446
  384MOL0     C51732   1.915   1.916   9.088  0.3094 -0.7246 -0.0113
  384MOL0     C51733   1.909   1.803   9.161  0.3841  0.0730 -0.7134
  384MOL0     C51734   2.030   1.762   9.228  0.5689 -0.0386 -0.6959
  384MOL0     O51735   2.027   1.755   9.361  0.1644 -0.2136 -0.8719
  384MOL0     C51736   2.119   1.682   9.433  0.3872 -0.4141 -0.2376
  384MOL0     C51737   2.210   1.748   9.510 -0.5327 -0.6579 -0.1650
  384MOL0     C51738   2.296   1.674   9.593  0.3014  0.4766 -0.5493
  384MOL0     C51739   2.310   1.531   9.570 -0.3059 -0.3148  0.3460
  384MOL0     O51740   2.408   1.466   9.634 -0.2015 -0.3321  0.0331
  384MOL0     C51741   2.451   1.337   9.585 -0.1850 -0.6237 -1.0417
  384MOL0     C51742   2.565   1.295   9.662 -0.5631  0.4792  0.3782
  384MOL0     C51743   2.620   1.150   9.631 -1.1521  0.3623  0.0941
  384MOL0     C51744   2.769   1.133   9.644  0.0022 -0.7855  0.0565
  384MOL0     C51745   2.811   0.994   9.679 -0.7866 -1.3039 -0.4454
  384MOL0     C51746   2.759   0.897   9.588 -1.0692  0.4400  0.7444
  384MOL0     C51747   2.842   0.909   9.447 -0.1531  0.5286  0.2604
  384MOL0     C51748   2.816   0.782   9.353  0.1529  0.0145 -1.4760
  384MOL0    Cl51749   2.877   0.819   9.188 -0.6081 -0.2599  0.1679
  384MOL0     C51750   2.231   1.470   9.486  0.4196 -0.3510  0.5508
  384MOL0     C51751   2.124   1.544   9.418 -0.6196 -0.0008 -0.7306
  384MOL0     O51752   2.129   1.740   9.162 -0.3215  0.1881  0.4754
  384MOL0     C51753   1.782   1.752   9.199 -0.7357 -0.0791 -0.4162
  384MOL0     C51754   1.664   1.807   9.138  0.0277 -0.4814  0.7242
  384MOL0     N51755   1.060   2.102   8.887  1.0552  0.4034  0.1174
  384MOL0     N51756   0.999   1.987   8.894 -0.7382 -0.1635 -0.1570
  384MOL0     C51757   1.066   2.071   7.865 -0.1156 -0.7040 -0.1058
  384MOL0     C51758   0.993   2.197   7.885  0.5317  0.5011  0.1267
  384MOL0     C51759   0.646   2.460   8.079 -1.1700  0.3751 -0.2458
  384MOL0     C51760   0.746   2.508   8.168 -0.2461 -0.5991  0.1975
  384MOL0     C51761   0.728   2.622   8.250 -0.8627  0.1662  0.4810
  384MOL0     C51762   0.612   2.697   8.248  0.8238  0.0504 -0.3664
  384MOL0     O51763   0.598   2.810   8.325  0.0209  0.6299 -0.6617
  384MOL0     C51764   0.539   2.781   8.449 -0.3543  1.0661 -0.6075
  384MOL0     C51765   0.391   2.744   8.453  0.2245 -0.4933 -0.1551
  384MOL0     C51766   0.289   2.860   8.434  0.9988  0.5471  0.9925
  384MOL0     C51767   0.142   2.802   8.426  0.1084 -1.4286  0.4656
  384MOL0     C51768   0.082   2.724   8.548 -0.9095  0.5265 -0.7911
  384MOL0     C51769   0.056   2.659   8.643 -1.1380 -0.8249 -0.3438
  384MOL0     C51770   0.508   2.652   8.167 -0.0086  0.1481 -0.2262
  384MOL0     C51771   0.527   2.542   8.072  0.7808 -0.1230  0.0011
  384MOL0     C51772   0.408   2.505   7.993  0.1947 -0.0703  0.2112
  384MOL0     H51773   0.719   2.054   8.047 -0.8789 -1.1647  0.1138
  384MOL0     H51774   0.839   1.845   7.980 -1.0035  0.6305 -0.8829
  384MOL0     H51775   1.278   1.782   7.896 -1.4236  0.0203 -2.6905
  384MOL0     H51776   1.230   1.916   8.003  0.9166  1.0497 -3.9282
  384MOL0     H51777   1.294   1.723   8.106  0.7281 -1.5885 -2.3823
  384MOL0     H51778   1.161   1.621   8.037 -1.2044 -1.2022  2.9264
  384MOL0     H51779   1.010   1.797   8.161 -0.8040 -2.1884  2.5937
  384MOL0     H51780   1.151   1.851   8.242  0.1293 -1.5037  1.6265
  384MOL0     H51781   1.056   1.553   8.236 -0.3119  0.8461 -1.9207
  384MOL0     H51782   1.192   1.612   8.324 -0.4717  0.2685 -1.9130
  384MOL0     H51783   0.899   1.686   8.367 -1.4805 -1.2625 -0.4978
  384MOL0     H51784   0.988   1.570   8.458 -3.9573  2.8030  3.4787
  384MOL0     H51785   1.145   1.739   8.553  0.2649  2.3296  0.0216
  384MOL0     H51786   1.070   1.864   8.482  1.8884 -1.0112 -0.4652
  384MOL0     H51787   0.895   1.657   8.626 -2.5556  1.2587 -0.1826
  384MOL0     H51788   0.870   1.829   8.599 -1.6716 -1.9085  1.1292
  384MOL0     H51789   0.912   1.747   8.831 -1.1346 -1.2304 -1.2591
  384MOL0     H51790   1.076   1.694   8.789  1.0353  1.4440  1.8764
  384MOL0     H51791   1.191   1.929   8.645 -0.8614 -2.0863  0.1090
  384MOL0     H51792   1.212   2.267   8.659 -1.0823  0.3633 -0.2829
  384MOL0     H51793   1.208   2.302   8.823 -0.8196 -0.8654  0.2028
  384MOL0     H51794   1.388   2.085   8.697  0.7987 -0.6474  0.7590
  384MOL0     H51795   1.442   2.250   8.726  3.8364 -1.5382  0.7466
  384MOL0     H51796   1.361   2.017   8.932  1.0101 -1.2135  2.8925
  384MOL0     H51797   1.380   2.181   8.984  0.9130  3.2509 -1.2147
  384MOL0     H51798   1.638   2.144   8.930  1.1454 -1.4914  1.2316
  384MOL0     H51799   1.592   2.027   8.814 -2.3557 -2.8619  0.6204
  384MOL0     H51800   1.818   2.051   8.956  0.2785 -0.7690  0.3431
  384MOL0     H51801   2.006   1.959   9.048 -0.8855  1.4050 -0.6787
  384MOL0     H51802   2.201   1.856   9.519 -1.8332 -0.7594 -0.0646
  384MOL0     H51803   2.368   1.710   9.666 -0.8889 -2.8260  2.5564
  384MOL0     H51804   2.370   1.264   9.595 -2.4760  1.8932  0.4102
  384MOL0     H51805   2.473   1.343   9.478  2.5700  5.3519 -0.5398
  384MOL0     H51806   2.649   1.365   9.653  1.0711 -1.0974  2.2458
  384MOL0     H51807   2.533   1.293   9.767 -0.6551 -2.1512  0.3615
  384MOL0     H51808   2.562   1.074   9.684  1.4622  1.0453  4.3950
  384MOL0     H51809   2.601   1.137   9.524  0.0853  0.5280 -0.1617
  384MOL0     H51810   2.814   1.201   9.717 -1.5699  2.2800 -1.6458
  384MOL0     H51811   2.804   1.172   9.548 -0.9521  1.0390  0.4157
  384MOL0     H51812   2.777   0.982   9.782 -0.8084  0.8648 -0.1614
  384MOL0     H51813   2.920   0.991   9.685 -0.5005  2.1076 -1.8639
  384MOL0     H51814   2.786   0.801   9.633 -0.6465  0.1336 -0.1358
  384MOL0     H51815   2.650   0.898   9.583 -1.0494  2.8293 -1.0105
  384MOL0     H51816   2.947   0.935   9.458  0.3094 -0.7751 -0.8760
  384MOL0     H51817   2.794   0.991   9.392  0.9862  1.4553  0.6163
  384MOL0     H51818   2.883   0.704   9.392 -0.7668 -0.2129 -0.2875
  384MOL0     H51819   2.711   0.754   9.358  0.2720 -0.3470 -0.7942
  384MOL0     H51820   2.236   1.364   9.462  0.5992  0.0797 -1.4724
  384MOL0     H51821   2.055   1.484   9.360 -1.4864 -0.0684  0.3456
  384MOL0     H51822   1.770   1.689   9.286  1.3469  0.4817  0.3424
  384MOL0     H51823   1.559   1.784   9.158 -1.1510  2.4381 -1.3451
  384MOL0     H51824   1.162   2.077   7.816  1.0880  0.7419  2.2326
  384MOL0     H51825   1.041   2.278   7.832 -0.3218 -1.0462 -3.2978
  384MOL0     H51826   0.845   2.464   8.175  0.3282  0.7597  0.7739
  384MOL0     H51827   0.816   2.646   8.309 -0.2605 -1.8240  0.4704
  384MOL0     H51828   0.559   2.864   8.517 -2.0975 -3.1519  5.9229
  384MOL0     H51829   0.596   2.696   8.488  0.7915  1.5804 -1.0982
  384MOL0     H51830   0.368   2.702   8.552 -3.4299  0.1949 -0.5695
  384MOL0     H51831   0.375   2.657   8.388  0.1822  0.8357 -1.9788
  384MOL0     H51832   0.313   2.920   8.345 -2.8571 -0.3791 -0.8783
  384MOL0     H51833   0.309   2.927   8.518  1.6766  1.5097  0.1003
  384MOL0     H51834   0.069   2.881   8.404  1.9742  0.3072  0.1564
  384MOL0     H51835   0.137   2.727   8.347  0.9785 -3.5693  2.3603
  384MOL0     H51836   0.029   2.601   8.728 -0.3826 -1.0833 -0.2662
  384MOL0     H51837   0.408   2.694   8.166 -0.6739 -1.3526  0.6158
  384MOL0     H51838   0.332   2.584   7.989 -0.0439 -0.2601  0.8646
  384MOL0     H51839   0.432   2.492   7.887  0.9174 -1.4282  0.5228
  384MOL0     H51840   0.371   2.418   8.048  3.6074 -1.8566 -0.0515
  385MOL0     O51841   1.369   2.012   9.453 -0.1127  0.4555 -0.3873
  385MOL0     C51842   1.441   2.061   9.368 -0.0780 -0.8123  0.3750
  385MOL0     O51843   1.388   2.134   9.261  0.0995 -0.2478  0.1008
  385MOL0     C51844   1.258   2.160   9.267  0.2940 -0.5050 -0.6306
  385MOL0     C51845   1.225   2.269   9.352 -0.7644 -0.4047  0.3779
  385MOL0     C51846   1.101   2.317   9.349  0.8672  0.0606 -0.9212
  385MOL0     C51847   0.999   2.242   9.272  0.2291  0.1609 -0.6450
  385MOL0     O51848   0.866   2.285   9.286 -0.3016  0.4661 -0.1839
  385MOL0     C51849   0.761   2.203   9.235 -0.8355 -0.1026 -0.0771
  385MOL0     C51850   0.619   2.258   9.239 -1.0581 -0.2376 -0.3727
  385MOL0     C51851   0.504   2.185   9.155 -0.7025  0.1686  0.1970
  385MOL0     C51852   0.500   2.033   9.177  0.2462 -0.8003 -0.5993
  385MOL0     C51853   0.369   1.965   9.144  0.7928  1.2175 -0.0589
  385MOL0     C51854   0.375   1.823   9.185 -0.8954 -0.3870  0.7671
  385MOL0     C51855   0.250   1.741   9.190 -0.4299 -0.1204 -0.0322
  385MOL0     C51856   0.190   1.710   9.060 -0.3147 -1.2390  0.5913
  385MOL0     N51857   0.086   1.613   9.080  0.9841 -0.2498 -0.7492
  385MOL0     C51858  -0.047   1.640   9.108 -0.5961  0.5884 -0.2823
  385MOL0     C51859  -0.091   1.520   9.152  0.5550 -0.5149  0.6759
  385MOL0     C51860  -0.236   1.488   9.208  0.1056  0.5075  0.5826
  385MOL0     C51861  -0.276   1.618   9.283  0.3703  0.0276  0.5251
  385MOL0     C51862  -0.411   1.595   9.351  0.6786 -0.3500  0.5102
  385MOL0     C51863  -0.399   1.511   9.477 -1.5266 -0.8267  0.0686
  385MOL0     O51864  -0.318   1.571   9.578 -0.7602  0.4137  0.1781
  385MOL0     C51865  -0.293   1.484   9.680  1.2644  0.2957 -0.0651
  385MOL0     C51866  -0.340   1.349   9.689 -0.1961  0.4685  0.0816
  385MOL0     C51867  -0.323   1.270   9.798  0.3708 -0.4296 -0.7831
  385MOL0     C51868  -0.234   1.319   9.899  0.1729 -0.3117  0.2929
  385MOL0     C51869  -0.205   1.233  10.012  0.0699 -0.4876 -0.2965
  385MOL0     O51870  -0.294   1.132  10.042 -0.4011  0.0983  0.4204
  385MOL0     C51871  -0.254   1.020  10.119  0.3973  0.0727  0.2643
  385MOL0     C51872  -0.321   0.901  10.106  1.6097 -0.4543 -0.0287
  385MOL0     C51873  -0.276   0.782  10.169 -0.2665 -0.0865  0.7102
  385MOL0     C51874  -0.166   0.786  10.246 -0.9715  0.8246 -0.9535
  385MOL0     O51875  -0.125   0.665  10.311 -0.1713 -0.0147  0.5321
  385MOL0     C51876  -0.174   0.673  10.442  0.7188  0.3022 -0.2756
  385MOL0     C51877  -0.181   0.541  10.515 -0.3308  0.0365 -0.3310
  385MOL0     C51878  -0.261   0.440  10.428  0.0489 -0.0914  0.1455
  385MOL0     C51879  -0.227   0.296  10.467  0.6235  0.5716  0.6576
  385MOL0     C51880  -0.133   0.226  10.376  0.6698 -0.3462 -0.0801
  385MOL0     C51881  -0.094   0.085  10.432  0.0128  0.2924  1.1389
  385MOL0     C51882   0.020   0.025  10.344  0.2365 -0.0592 -0.0517
  385MOL0     C51883   0.075  -0.110  10.392 -0.6280  0.6702 -0.1865
  385MOL0    Cl51884  -0.050  -0.239  10.367 -0.0418 -0.3524  0.3078
  385MOL0     C51885  -0.100   0.907  10.278 -0.1615  0.1266  0.0196
  385MOL0     C51886  -0.150   1.030  10.218 -0.6272  0.2758  0.2620
  385MOL0     O51887  -0.095   1.253  10.056 -0.4600  1.4290 -0.6730
  385MOL0     C51888  -0.182   1.448   9.888 -0.3555 -1.1015  1.0562
  385MOL0     C51889  -0.214   1.531   9.782  0.4743 -0.6212  0.1616
  385MOL0     N51890   0.009   1.424   9.159 -0.0352  0.4413  0.3148
  385MOL0     N51891   0.119   1.487   9.108 -0.4595  0.2679 -0.4827
  385MOL0     C51892   1.032   2.128   9.193  0.3475  0.3302  0.4976
  385MOL0     C51893   1.171   2.084   9.196 -0.4332 -0.1984  0.4305
  385MOL0     C51894   1.597   2.064   9.382  0.0673  0.3979  0.2321
  385MOL0     C51895   1.664   2.164   9.321 -1.0549 -0.0742 -0.2905
  385MOL0     C51896   1.807   2.172   9.323 -0.0607  0.2546 -0.6894
  385MOL0     C51897   1.889   2.085   9.402  0.5018 -0.2344 -0.7429
  385MOL0     O51898   2.025   2.093   9.411  0.8954  0.2402  0.0247
  385MOL0     C51899   2.077   2.212   9.350 -0.9001 -0.0016  0.2219
  385MOL0     C51900   2.226   2.198   9.367 -0.8474 -0.4210  0.0816
  385MOL0     C51901   2.267   2.230   9.510  0.0913  0.0008  0.8261
  385MOL0     C51902   2.417   2.247   9.524  0.0172  0.1023  0.1458
  385MOL0     C51903   2.473   2.109   9.517  0.4184 -0.0109  0.2391
  385MOL0     C51904   2.504   1.991   9.506 -0.2107  0.0149  0.7234
  385MOL0     C51905   1.816   1.979   9.470  0.1149 -0.5790  0.3127
  385MOL0     C51906   1.679   1.970   9.452  0.9080  0.1104  0.0622
  385MOL0     C51907   1.617   1.856   9.525 -0.5221 -0.1038  0.3382
  385MOL0     H51908   1.307   2.313   9.408 -0.0155 -2.3997  0.9368
  385MOL0     H51909   1.073   2.397   9.417  0.4490  0.5953 -1.7028
  385MOL0     H51910   0.783   2.191   9.128  3.3986 -0.2066  0.6637
  385MOL0     H51911   0.769   2.104   9.280 -0.1043  0.6494  1.5048
  385MOL0     H51912   0.630   2.359   9.198  0.3612  0.3615  1.3341
  385MOL0     H51913   0.577   2.288   9.335 -0.3900  2.4378 -0.8523
  385MOL0     H51914   0.518   2.206   9.049  5.0364 -0.4944  0.5462
  385MOL0     H51915   0.406   2.227   9.182 -0.4168  1.5044 -0.7277
  385MOL0     H51916   0.583   1.979   9.131 -1.1749 -1.0972 -3.0115
  385MOL0     H51917   0.508   2.034   9.286  1.0436  0.0346 -0.6561
  385MOL0     H51918   0.281   2.013   9.186  0.2694  0.8385 -0.7029
  385MOL0     H51919   0.349   1.970   9.036  0.2027  0.0021 -0.0206
  385MOL0     H51920   0.447   1.781   9.115 -1.7586 -0.6622  0.0206
  385MOL0     H51921   0.422   1.813   9.284  0.5588 -2.1119 -0.0523
  385MOL0     H51922   0.174   1.796   9.244 -0.7779 -0.1461 -0.4890
  385MOL0     H51923   0.267   1.654   9.254  1.0454  1.1040  1.3343
  385MOL0     H51924   0.150   1.802   9.017 -0.6818 -1.8329 -0.3902
  385MOL0     H51925   0.258   1.659   8.991  0.3413  0.3896 -0.0038
  385MOL0     H51926  -0.100   1.735   9.111  0.9065  1.4513 -0.1361
  385MOL0     H51927  -0.307   1.464   9.129 -0.5815  0.5694  1.1685
  385MOL0     H51928  -0.240   1.399   9.271 -0.5800 -1.9224 -2.6706
  385MOL0     H51929  -0.201   1.663   9.349 -0.2844 -0.4206  1.5914
  385MOL0     H51930  -0.292   1.689   9.202  0.5178  1.0119  1.3470
  385MOL0     H51931  -0.471   1.543   9.275  0.9993 -1.5980  1.0877
  385MOL0     H51932  -0.457   1.693   9.366 -2.4005 -1.7690  0.9180
  385MOL0     H51933  -0.362   1.411   9.452  0.2675 -0.2475  0.2431
  385MOL0     H51934  -0.502   1.499   9.510 -1.2312 -0.5431  1.1133
  385MOL0     H51935  -0.401   1.305   9.611 -0.4341  1.7504 -0.4687
  385MOL0     H51936  -0.355   1.166   9.801  1.5218 -0.7882 -0.1927
  385MOL0     H51937  -0.414   0.907  10.052  2.0913  1.0956 -0.7562
  385MOL0     H51938  -0.335   0.690  10.164  0.3757 -0.4666 -0.0160
  385MOL0     H51939  -0.114   0.738  10.506 -2.5349  3.0709  0.2814
  385MOL0     H51940  -0.273   0.719  10.444  1.3332  1.6239  0.7125
  385MOL0     H51941  -0.080   0.508  10.541  0.1507  2.1517  0.7139
  385MOL0     H51942  -0.224   0.558  10.613  1.1423 -1.8256  0.7106
  385MOL0     H51943  -0.369   0.454  10.436 -0.0196  0.5090 -1.4609
  385MOL0     H51944  -0.234   0.445  10.322  4.0039  0.0536  0.9924
  385MOL0     H51945  -0.319   0.240  10.486  0.5788  0.7803  1.0683
  385MOL0     H51946  -0.188   0.289  10.569  2.0955 -0.4221  0.0651
  385MOL0     H51947  -0.045   0.291  10.368  1.1978 -1.0149  0.2290
  385MOL0     H51948  -0.192   0.214  10.284  1.5025 -0.1193 -0.6557
  385MOL0     H51949  -0.079   0.073  10.540 -2.3612  0.6742  1.5795
  385MOL0     H51950  -0.188   0.034  10.407 -0.5244  2.0299 -0.5509
  385MOL0     H51951   0.102   0.097  10.339 -0.0544  0.2981  0.2690
  385MOL0     H51952  -0.027   0.015  10.245  1.7796 -0.2703 -0.7909
  385MOL0     H51953   0.157  -0.145  10.329 -1.4905 -0.4756 -0.7100
  385MOL0     H51954   0.118  -0.098  10.493  3.6801  1.8996 -1.9363
  385MOL0     H51955  -0.014   0.891  10.343  0.0766 -3.1084 -0.9104
  385MOL0     H51956  -0.100   1.120  10.251  1.3404 -1.0260  1.0257
  385MOL0     H51957  -0.117   1.478   9.969 -0.3478  0.9438  0.3561
  385MOL0     H51958  -0.168   1.628   9.769 -0.7294 -0.0409  0.1475
  385MOL0     H51959   0.960   2.074   9.132 -0.5137 -0.3671  2.0818
  385MOL0     H51960   1.202   1.994   9.143 -3.5600 -1.2405  0.1539
  385MOL0     H51961   1.616   2.235   9.256  0.7016  0.4734 -1.0503
  385MOL0     H51962   1.850   2.250   9.262  0.5859  2.3995  2.2865
  385MOL0     H51963   2.038   2.303   9.395 -2.4476 -1.8221  2.8321
  385MOL0     H51964   2.069   2.215   9.241  5.3134  0.2740 -0.5911
  385MOL0     H51965   2.282   2.259   9.296  0.0582  0.6901  1.6875
  385MOL0     H51966   2.249   2.094   9.343 -0.9062 -0.4719  0.2461
  385MOL0     H51967   2.218   2.163   9.581 -1.9426  0.6397  0.0781
  385MOL0     H51968   2.225   2.330   9.523  0.4612  0.3963 -0.8130
  385MOL0     H51969   2.465   2.311   9.449 -0.1578  1.7284  1.3740
  385MOL0     H51970   2.456   2.288   9.618 -0.0948 -2.0113  1.1671
  385MOL0     H51971   2.524   1.887   9.490 -1.2798  0.2693 -3.3053
  385MOL0     H51972   1.878   1.911   9.527  3.3277  0.7449 -1.3178
  385MOL0     H51973   1.525   1.821   9.476 -0.5008 -0.1481  0.3296
  385MOL0     H51974   1.694   1.782   9.547  2.1173  2.1182 -0.9122
  385MOL0     H51975   1.573   1.891   9.619 -0.5654  0.9205 -0.0565
  386MOL0     O51976   8.238   0.725   4.912 -0.4648  0.2789 -0.5656
  386MOL0     C51977   8.342   0.678   4.863  0.7593 -0.5668  0.8999
  386MOL0     O51978   8.354   0.626   4.739 -0.6730  0.3128 -0.3334
  386MOL0     C51979   8.255   0.641   4.635  0.2373  0.1981 -0.8180
  386MOL0     C51980   8.143   0.728   4.632 -0.6501  0.8406 -0.9416
  386MOL0     C51981   8.053   0.718   4.530  0.1141 -0.5880  0.2195
  386MOL0     C51982   8.071   0.629   4.423  0.1330 -1.1830  1.1873
  386MOL0     O51983   8.000   0.635   4.307  0.0784  0.6585 -1.0670
  386MOL0     C51984   8.055   0.719   4.214  0.2873  0.1160  0.2092
  386MOL0     C51985   7.948   0.739   4.108 -0.1570 -1.5164  0.4672
  386MOL0     C51986   7.814   0.819   4.149  0.4040 -0.1111 -0.3281
  386MOL0     C51987   7.707   0.755   4.244 -0.9281 -0.0214 -0.6396
  386MOL0     C51988   7.643   0.631   4.174  0.0177  0.7659 -0.1526
  386MOL0     C51989   7.504   0.607   4.244 -0.6976  0.1988 -0.3156
  386MOL0     C51990   7.390   0.559   4.150 -0.1482 -0.2766 -0.3098
  386MOL0     C51991   7.253   0.579   4.202 -0.8976 -0.9094 -0.6619
  386MOL0     N51992   7.231   0.484   4.303 -0.3460 -0.2552 -0.2989
  386MOL0     C51993   7.272   0.502   4.432  0.1790 -0.2708 -0.4950
  386MOL0     C51994   7.228   0.379   4.481 -0.6977 -0.3262 -1.0677
  386MOL0     C51995   7.231   0.324   4.624  0.1723  0.5190  0.0196
  386MOL0     C51996   7.371   0.323   4.685 -1.0925  0.0897 -0.3513
  386MOL0     C51997   7.376   0.249   4.818  0.1171  0.1509 -0.3214
  386MOL0     C51998   7.329   0.342   4.937  1.0383  0.2546  0.3467
  386MOL0     O51999   7.387   0.290   5.054 -0.2366 -0.1491 -0.0608
  386MOL0     C52000   7.323   0.323   5.176 -1.2559  0.0019  0.3024
  386MOL0     C52001   7.228   0.433   5.189 -1.3583 -0.0779 -0.4213
  386MOL0     C52002   7.154   0.465   5.305  0.3358  1.0864  0.7226
  386MOL0     C52003   7.169   0.384   5.411 -0.1499 -0.5866 -0.8067
  386MOL0     C52004   7.102   0.413   5.542  0.2133  0.1092 -0.7097
  386MOL0     O52005   7.165   0.362   5.655  0.0656  0.1244 -0.3806
  386MOL0     C52006   7.105   0.336   5.780  0.8917 -0.5867  0.2853
  386MOL0     C52007   7.193   0.340   5.897  0.8306  0.4114  0.0254
  386MOL0     C52008   7.134   0.311   6.021 -0.4122 -0.1064  0.4655
  386MOL0     C52009   7.001   0.287   6.039  0.7650 -1.0969  0.8708
  386MOL0     O52010   6.949   0.248   6.157 -0.3363  0.3475 -0.4107
  386MOL0     C52011   6.965   0.341   6.267  0.0069  0.7390  0.2681
  386MOL0     C52012   6.890   0.476   6.223  0.0300  0.0819  0.1485
  386MOL0     C52013   6.877   0.585   6.326  0.8782 -0.0007  0.0413
  386MOL0     C52014   7.004   0.647   6.369  0.5956 -0.4885  0.2138
  386MOL0     C52015   6.975   0.731   6.497 -0.3840  0.4802  0.2631
  386MOL0     C52016   6.914   0.638   6.607  0.5019  0.6339 -0.5519
  386MOL0     C52017   6.923   0.694   6.745 -0.5379  0.2257  0.1176
  386MOL0     C52018   6.903   0.574   6.845 -0.3044  0.3387  0.0295
  386MOL0    Cl52019   6.744   0.491   6.823 -0.2683  0.0230  0.0992
  386MOL0     C52020   6.913   0.283   5.929 -0.1509  0.0029 -0.5542
  386MOL0     C52021   6.959   0.315   5.804 -0.5991 -0.9008 -1.2450
  386MOL0     O52022   6.985   0.462   5.541  0.5964  0.4755  0.4361
  386MOL0     C52023   7.263   0.275   5.404  0.4844  0.6748 -0.5216
  386MOL0     C52024   7.333   0.242   5.287  0.0077  0.3361  0.0445
  386MOL0     N52025   7.170   0.302   4.386 -0.2269 -0.4661 -0.8564
  386MOL0     N52026   7.170   0.365   4.281  0.7609  0.4278  0.3516
  386MOL0     C52027   8.176   0.538   4.430  0.1079  0.0900 -0.3263
  386MOL0     C52028   8.265   0.553   4.533 -0.5039  0.2643  0.1773
  386MOL0     C52029   8.452   0.659   4.957  0.6700  0.4823  0.2829
  386MOL0     C52030   8.506   0.528   4.978  0.3311 -0.1352 -0.7613
  386MOL0     C52031   8.615   0.501   5.056 -0.8194 -0.6435 -1.0512
  386MOL0     C52032   8.684   0.615   5.115  1.4438  0.8908  0.2575
  386MOL0     O52033   8.811   0.601   5.187 -0.5628 -0.0436  0.3690
  386MOL0     C52034   8.875   0.481   5.239  0.4965  0.1708  0.9816
  386MOL0     C52035   8.973   0.415   5.150  0.1914  0.6610  0.3552
  386MOL0     C52036   9.096   0.501   5.112 -0.2451 -0.0728  0.1382
  386MOL0     C52037   9.187   0.563   5.212  1.4847 -0.6783  0.5527
  386MOL0     C52038   9.246   0.481   5.316 -0.4955  0.5458  0.7048
  386MOL0     C52039   9.311   0.426   5.404 -0.6745  0.4035  0.4934
  386MOL0     C52040   8.629   0.743   5.096 -0.2269 -0.3687 -0.6096
  386MOL0     C52041   8.514   0.765   5.028  0.7334 -0.1040  0.8145
  386MOL0     C52042   8.485   0.916   5.004 -0.3636  0.2744  0.0367
  386MOL0     H52043   8.128   0.805   4.707 -3.3172  0.7442 -1.2705
  386MOL0     H52044   7.966   0.778   4.506 -0.8971 -2.0979 -0.0606
  386MOL0     H52045   8.075   0.812   4.268 -0.1319 -0.7329  1.9033
  386MOL0     H52046   8.140   0.670   4.164  0.1111 -3.1555  2.7330
  386MOL0     H52047   7.929   0.640   4.065  0.6533 -1.1264 -0.8213
  386MOL0     H52048   7.996   0.796   4.028 -1.5716 -0.3407  0.4214
  386MOL0     H52049   7.757   0.830   4.057 -1.6731 -1.8604  0.6620
  386MOL0     H52050   7.840   0.914   4.196 -2.2897  0.1728  0.7978
  386MOL0     H52051   7.761   0.718   4.331 -0.2193 -1.0949 -1.5161
  386MOL0     H52052   7.647   0.835   4.289  0.2208  0.2081  0.5543
  386MOL0     H52053   7.626   0.642   4.066 -3.1589  3.0182  0.4512
  386MOL0     H52054   7.697   0.537   4.189 -0.7605  0.3949  0.3288
  386MOL0     H52055   7.532   0.542   4.328 -0.9022 -0.2384 -0.5829
  386MOL0     H52056   7.468   0.702   4.285  1.6244  0.9214  0.2421
  386MOL0     H52057   7.415   0.460   4.112  0.0690 -0.1941 -0.3855
  386MOL0     H52058   7.398   0.631   4.067 -0.4141  1.0379  0.7733
  386MOL0     H52059   7.246   0.679   4.245  0.7398 -0.9023 -0.3604
  386MOL0     H52060   7.173   0.563   4.128 -0.8022 -2.2034 -0.5107
  386MOL0     H52061   7.324   0.585   4.478 -0.2461  1.7885 -3.4852
  386MOL0     H52062   7.168   0.375   4.697  0.0348  1.2565 -0.5990
  386MOL0     H52063   7.201   0.220   4.638  2.3007  0.0328  1.3666
  386MOL0     H52064   7.440   0.282   4.612 -1.2182  0.2829 -0.5813
  386MOL0     H52065   7.406   0.426   4.698 -0.8633 -0.0291  0.0075
  386MOL0     H52066   7.475   0.212   4.844 -1.0409 -3.0637  0.0636
  386MOL0     H52067   7.306   0.164   4.810 -0.8003  0.5478  2.5805
  386MOL0     H52068   7.221   0.331   4.954  1.4065  1.3708  4.4067
  386MOL0     H52069   7.355   0.446   4.916 -0.4899  0.8055  1.0475
  386MOL0     H52070   7.221   0.497   5.101  4.6872  2.7370  0.6325
  386MOL0     H52071   7.096   0.557   5.298 -1.2287  0.0413 -1.4250
  386MOL0     H52072   7.300   0.354   5.896  1.0626 -1.1807  0.4835
  386MOL0     H52073   7.195   0.314   6.110 -0.8627 -2.8160  0.9527
  386MOL0     H52074   6.918   0.290   6.351 -1.0006 -1.9469 -1.7511
  386MOL0     H52075   7.071   0.351   6.293  0.2543 -4.1487  2.3086
  386MOL0     H52076   6.936   0.532   6.141  5.1141  0.5398  2.9351
  386MOL0     H52077   6.788   0.460   6.186 -0.1186  2.6487 -0.7851
  386MOL0     H52078   6.803   0.661   6.302 -0.3251 -1.3096 -0.5341
  386MOL0     H52079   6.821   0.531   6.402  0.3683  0.6152  0.1067
  386MOL0     H52080   7.045   0.700   6.283 -1.7726  0.9132 -0.1307
  386MOL0     H52081   7.074   0.566   6.393  1.0793  0.3035  1.5797
  386MOL0     H52082   6.915   0.819   6.470  0.6804  1.6408  1.5437
  386MOL0     H52083   7.069   0.768   6.538 -0.6515  0.2944  1.0557
  386MOL0     H52084   6.806   0.643   6.587  1.1202  3.8900 -4.3425
  386MOL0     H52085   6.947   0.533   6.608 -0.0441  0.4371  1.5785
  386MOL0     H52086   6.843   0.766   6.770 -0.8191 -0.5256  1.4863
  386MOL0     H52087   7.013   0.752   6.767 -0.1903 -0.1391 -0.3396
  386MOL0     H52088   6.980   0.502   6.821 -1.2366 -0.3286 -1.0369
  386MOL0     H52089   6.911   0.602   6.951 -1.2350 -2.1832  0.8403
  386MOL0     H52090   6.807   0.265   5.943 -0.2860 -1.3720 -2.8971
  386MOL0     H52091   6.897   0.317   5.715  1.1539  2.4343 -2.5623
  386MOL0     H52092   7.287   0.220   5.495  5.0286  0.4564 -1.6266
  386MOL0     H52093   7.414   0.172   5.272  1.8752  2.8221 -2.6261
  386MOL0     H52094   8.192   0.457   4.359 -1.1459 -0.1499 -0.3488
  386MOL0     H52095   8.347   0.482   4.530 -1.4653 -0.8726  0.0280
  386MOL0     H52096   8.477   0.428   4.947  1.4402 -1.4024  1.9139
  386MOL0     H52097   8.648   0.398   5.065  0.3768 -0.1488  1.0213
  386MOL0     H52098   8.793   0.416   5.270  0.4134 -1.0932 -1.5887
  386MOL0     H52099   8.945   0.513   5.317  2.9571 -2.7808  0.1627
  386MOL0     H52100   8.923   0.386   5.058 -3.3246  3.4719  1.1979
  386MOL0     H52101   9.008   0.317   5.186 -1.9530 -0.2879 -0.0313
  386MOL0     H52102   9.054   0.576   5.045  0.8885  0.9607  0.5548
  386MOL0     H52103   9.154   0.432   5.051  0.3110  1.8982 -1.6728
  386MOL0     H52104   9.267   0.599   5.147 -0.2656 -1.8766 -2.4612
  386MOL0     H52105   9.137   0.651   5.253 -0.7463 -2.7180  2.4902
  386MOL0     H52106   9.391   0.391   5.466  0.4674  2.1777  0.1009
  386MOL0     H52107   8.676   0.829   5.141 -0.9038  1.8142 -3.7289
  386MOL0     H52108   8.548   0.960   4.925  0.5844 -1.7221 -0.3760
  386MOL0     H52109   8.383   0.932   4.970 -0.3675  0.5712  0.1827
  386MOL0     H52110   8.493   0.972   5.098  1.8513  2.2971 -1.2337
  387MOL0     O52111   2.735   7.876   5.806 -0.0865  0.8503  0.2945
  387MOL0     C52112   2.666   7.940   5.884  0.3045  0.1029 -1.3561
  387MOL0     O52113   2.535   7.931   5.901 -0.1788 -0.8637  0.7948
  387MOL0     C52114   2.462   7.839   5.832 -0.8964  0.7534  0.1801
  387MOL0     C52115   2.463   7.800   5.694 -0.3867  1.0981  0.3902
  387MOL0     C52116   2.381   7.701   5.639  0.2479 -0.5023  0.4794
  387MOL0     C52117   2.282   7.633   5.720 -0.6152  0.0967 -0.5222
  387MOL0     O52118   2.202   7.534   5.659 -0.0819 -0.7693 -0.3863
  387MOL0     C52119   2.086   7.502   5.736  0.0027  0.3863 -0.7546
  387MOL0     C52120   1.990   7.428   5.650 -0.1920  0.6931  0.3192
  387MOL0     C52121   2.019   7.282   5.609  0.1044 -0.2971 -0.2217
  387MOL0     C52122   1.918   7.236   5.510  1.1677 -0.5310  0.0206
  387MOL0     C52123   1.943   7.090   5.468  0.5453  0.2946  0.4367
  387MOL0     C52124   1.951   6.972   5.569  0.1038  1.0444  0.1967
  387MOL0     C52125   1.841   6.985   5.673 -0.4887 -0.6465 -0.3449
  387MOL0     C52126   1.832   6.872   5.765 -0.3136  0.3763 -0.5171
  387MOL0     N52127   1.714   6.891   5.852 -0.6250  0.2466  0.5212
  387MOL0     C52128   1.577   6.878   5.824 -0.5359  0.3326  0.3681
  387MOL0     C52129   1.517   6.909   5.937  0.5871  1.2035  0.5588
  387MOL0     C52130   1.374   6.906   5.974  0.3944  0.8244  0.9173
  387MOL0     C52131   1.308   6.763   5.966 -0.8394 -0.0745 -0.2494
  387MOL0     C52132   1.157   6.760   6.008 -0.5879  0.3185  0.2279
  387MOL0     C52133   1.123   6.776   6.157  0.3619  0.4303  0.6700
  387MOL0     O52134   1.154   6.656   6.226  0.5361 -1.0755  0.0695
  387MOL0     C52135   1.052   6.633   6.320  1.8599 -0.6732  0.4346
  387MOL0     C52136   0.921   6.590   6.285  0.7541 -0.1507 -0.4653
  387MOL0     C52137   0.818   6.582   6.380 -0.6498 -0.0436  0.9148
  387MOL0     C52138   0.836   6.640   6.504 -1.7178  0.0570  0.8883
  387MOL0     C52139   0.714   6.669   6.592 -0.7135 -0.2795  0.4779
  387MOL0     O52140   0.705   6.787   6.658 -0.4948  0.1992  0.3446
  387MOL0     C52141   0.603   6.831   6.736  0.4416 -0.1673  0.2465
  387MOL0     C52142   0.613   6.955   6.789 -0.1521  0.1804 -0.3415
  387MOL0     C52143   0.521   6.997   6.895  0.2844 -0.2321  0.8820
  387MOL0     C52144   0.412   6.925   6.930 -0.2123  0.6812  0.0914
  387MOL0     O52145   0.332   6.972   7.023  0.4442 -0.1342 -0.0971
  387MOL0     C52146   0.242   7.066   6.966  0.7534  0.1679 -1.3327
  387MOL0     C52147   0.150   7.117   7.075 -0.0457  0.3172  0.4795
  387MOL0     C52148   0.077   7.245   7.041 -0.1531 -0.6411  0.1282
  387MOL0     C52149   0.045   7.262   6.891 -0.6754  0.9023  0.1940
  387MOL0     C52150  -0.036   7.383   6.878  0.5440  0.4298 -0.0350
  387MOL0     C52151  -0.107   7.384   6.743 -1.2789  0.1018 -1.0070
  387MOL0     C52152  -0.147   7.517   6.700  0.1338 -0.2704  0.1550
  387MOL0     C52153  -0.279   7.545   6.772  1.2574  0.0505  0.0854
  387MOL0    Cl52154  -0.325   7.723   6.771  0.5603  0.2935  0.5874
  387MOL0     C52155   0.396   6.805   6.861 -0.6996  0.6441  0.5189
  387MOL0     C52156   0.486   6.756   6.766 -0.9842  0.2860 -0.0840
  387MOL0     O52157   0.620   6.597   6.572  0.1308 -0.3083 -0.4851
  387MOL0     C52158   0.967   6.671   6.538 -0.5712 -0.4517 -1.0049
  387MOL0     C52159   1.076   6.672   6.449 -0.6859 -0.0424  0.0321
  387MOL0     N52160   1.612   6.940   6.031 -0.6333 -0.1986  1.0966
  387MOL0     N52161   1.728   6.922   5.986  0.2753  0.6070  0.3049
  387MOL0     C52162   2.280   7.670   5.850  0.7188  0.2496 -0.5643
  387MOL0     C52163   2.373   7.770   5.903 -1.1556 -1.0827  0.0076
  387MOL0     C52164   2.727   8.048   5.962 -0.6293 -0.3494 -0.8137
  387MOL0     C52165   2.643   8.147   6.023  0.6448 -0.7356 -0.2235
  387MOL0     C52166   2.700   8.234   6.115  0.2013  0.6125  0.1959
  387MOL0     C52167   2.841   8.235   6.144  0.0961  0.3359  0.1501
  387MOL0     O52168   2.886   8.335   6.229  0.1373 -0.8162 -0.6060
  387MOL0     C52169   2.997   8.304   6.319 -0.4881 -0.4885 -0.1297
  387MOL0     C52170   3.123   8.340   6.246 -1.1905  0.2653  0.1023
  387MOL0     C52171   3.229   8.225   6.249  0.4313  0.6915  0.1553
  387MOL0     C52172   3.306   8.206   6.114 -0.6567  1.0388  0.5396
  387MOL0     C52173   3.438   8.146   6.128 -0.8613 -0.0322 -0.1350
  387MOL0     C52174   3.551   8.101   6.140  0.1294  1.0823 -1.2630
  387MOL0     C52175   2.909   8.139   6.081 -0.5242 -0.2589  0.0546
  387MOL0     C52176   2.859   8.044   5.994 -0.1785 -1.0902 -0.1642
  387MOL0     C52177   2.958   7.936   5.947  0.5410  0.3576  0.6343
  387MOL0     H52178   2.539   7.845   5.631 -0.1749  2.3011  1.4590
  387MOL0     H52179   2.388   7.671   5.535  0.4180  1.0109  0.0223
  387MOL0     H52180   2.125   7.423   5.801  1.5743  0.2217 -1.8511
  387MOL0     H52181   2.031   7.578   5.793 -0.6111  0.0621 -0.8951
  387MOL0     H52182   1.982   7.467   5.549 -4.6537 -1.0003 -0.1873
  387MOL0     H52183   1.889   7.438   5.690 -0.7774 -0.6980 -0.7578
  387MOL0     H52184   2.013   7.227   5.703  0.0227  2.2021  1.3311
  387MOL0     H52185   2.118   7.281   5.562  0.8319  0.8888  1.2123
  387MOL0     H52186   1.821   7.242   5.560  0.5632 -2.3765 -0.8250
  387MOL0     H52187   1.927   7.296   5.420  2.1224  2.1554  1.8052
  387MOL0     H52188   1.857   7.065   5.406  0.4552  1.7901 -0.0729
  387MOL0     H52189   2.041   7.100   5.421 -0.8155  0.7623 -2.5005
  387MOL0     H52190   1.931   6.882   5.510  0.8650  0.2229  1.1592
  387MOL0     H52191   2.048   6.961   5.619 -0.9990 -0.3118  2.2126
  387MOL0     H52192   1.749   7.017   5.623  0.0442 -0.6941 -1.3939
  387MOL0     H52193   1.874   7.069   5.735 -0.6037  1.5964 -3.0975
  387MOL0     H52194   1.825   6.778   5.709  1.0668  0.3897 -0.7439
  387MOL0     H52195   1.927   6.870   5.818  0.1785 -0.2750 -1.3947
  387MOL0     H52196   1.521   6.840   5.739 -2.9412  3.5950  0.3239
  387MOL0     H52197   1.364   6.950   6.073  0.0206  2.6892  0.1019
  387MOL0     H52198   1.318   6.973   5.907 -1.7654  0.1786  1.9744
  387MOL0     H52199   1.305   6.727   5.863 -2.6851 -1.1324  0.1372
  387MOL0     H52200   1.355   6.685   6.027 -4.8835 -0.7741  2.3071
  387MOL0     H52201   1.122   6.662   5.978  0.7677  0.0226 -0.4976
  387MOL0     H52202   1.106   6.834   5.946  1.2773  1.8135  0.3702
  387MOL0     H52203   1.015   6.791   6.163  0.3979  0.6213  0.8365
  387MOL0     H52204   1.168   6.864   6.204  0.9243  1.0501 -0.9528
  387MOL0     H52205   0.903   6.555   6.184  0.3298 -1.0281 -0.0951
  387MOL0     H52206   0.715   6.553   6.359 -1.3381 -0.8155  4.6446
  387MOL0     H52207   0.693   7.026   6.771 -2.0381  3.0874  1.7932
  387MOL0     H52208   0.541   7.080   6.962  0.3049 -1.5482  2.5768
  387MOL0     H52209   0.306   7.149   6.935 -0.9512  1.0666 -2.5900
  387MOL0     H52210   0.181   7.037   6.880  1.5635 -1.7950 -1.3024
  387MOL0     H52211   0.075   7.041   7.099 -1.6529 -0.1554 -4.6943
  387MOL0     H52212   0.211   7.137   7.163  1.6658  2.9918 -1.1700
  387MOL0     H52213  -0.021   7.247   7.089 -1.2037  0.9219 -1.9221
  387MOL0     H52214   0.127   7.332   7.085  1.8598 -2.1187  0.9222
  387MOL0     H52215  -0.011   7.178   6.850 -1.5480  3.1128 -3.6544
  387MOL0     H52216   0.134   7.253   6.828 -0.7202 -0.7010  0.3238
  387MOL0     H52217   0.029   7.471   6.886 -1.1656  1.6762  1.0001
  387MOL0     H52218  -0.112   7.402   6.955 -1.8713  2.7091 -2.7295
  387MOL0     H52219  -0.029   7.355   6.672  1.4241  0.2968  1.6763
  387MOL0     H52220  -0.184   7.307   6.741 -0.5838 -0.6438 -0.0519
  387MOL0     H52221  -0.174   7.528   6.595 -0.7306  1.2695  0.4940
  387MOL0     H52222  -0.072   7.589   6.734  0.1452 -1.0656  1.9139
  387MOL0     H52223  -0.352   7.491   6.711  0.6796  0.3151  0.5280
  387MOL0     H52224  -0.297   7.510   6.874 -1.8335 -0.1352 -0.4126
  387MOL0     H52225   0.305   6.757   6.894 -1.3960  2.0335  0.7188
  387MOL0     H52226   0.473   6.657   6.723  1.3875  0.7868 -2.1986
  387MOL0     H52227   0.991   6.697   6.641 -3.5274 -3.2728  0.5799
  387MOL0     H52228   1.181   6.696   6.466  0.0998 -1.1437 -2.6767
  387MOL0     H52229   2.217   7.621   5.923  3.7553 -0.6807  1.5735
  387MOL0     H52230   2.360   7.804   6.005 -2.0961  0.4723 -0.6064
  387MOL0     H52231   2.538   8.156   5.994  0.9621 -0.4067 -1.3101
  387MOL0     H52232   2.635   8.310   6.157 -3.6466 -1.5130 -1.3757
  387MOL0     H52233   2.995   8.197   6.345 -0.8913 -0.5354 -0.3500
  387MOL0     H52234   2.992   8.360   6.413 -0.2210 -0.9527  0.1654
  387MOL0     H52235   3.167   8.435   6.280  0.5039 -0.6344  0.5470
  387MOL0     H52236   3.108   8.348   6.138 -0.4888 -4.1524 -0.5079
  387MOL0     H52237   3.186   8.130   6.280  3.3391 -0.1519  1.9260
  387MOL0     H52238   3.298   8.231   6.333 -1.4343 -1.7865  2.0172
  387MOL0     H52239   3.246   8.149   6.044  1.6497  0.2986 -0.9613
  387MOL0     H52240   3.334   8.295   6.056 -2.3878 -0.9963 -3.7657
  387MOL0     H52241   3.653   8.068   6.149 -0.9313 -2.8010 -1.7574
  387MOL0     H52242   3.017   8.143   6.088 -0.4302 -0.6775 -0.9213
  387MOL0     H52243   2.922   7.841   5.988 -0.7741  0.2461 -0.7330
  387MOL0     H52244   2.954   7.919   5.839 -0.6598  2.7812  0.2368
  387MOL0     H52245   3.065   7.950   5.969  1.2852 -3.3724  0.0307
  388MOL0     O52246   3.997   2.100   7.129  0.0823  0.0134 -0.5466
  388MOL0     C52247   4.071   2.073   7.032 -0.7836 -0.3841 -0.2585
  388MOL0     O52248   4.209   2.076   7.041  0.7527 -0.5950  0.9576
  388MOL0     C52249   4.270   2.120   7.148  0.0726 -1.1392 -0.2577
  388MOL0     C52250   4.353   2.234   7.135  0.3778  0.4924 -0.0880
  388MOL0     C52251   4.408   2.296   7.259  0.1060 -0.1362 -0.0602
  388MOL0     C52252   4.370   2.244   7.388  0.1579 -0.4076 -0.2230
  388MOL0     O52253   4.408   2.333   7.488  0.2530  0.8813  0.1543
  388MOL0     C52254   4.306   2.358   7.579  1.1022 -0.0415  0.1128
  388MOL0     C52255   4.339   2.482   7.656 -1.0820  0.0120 -0.8764
  388MOL0     C52256   4.269   2.599   7.589 -0.4846  0.1576 -0.1368
  388MOL0     C52257   4.315   2.744   7.638  0.1483 -0.6243 -0.2686
  388MOL0     C52258   4.206   2.838   7.639 -0.3409  0.3654 -0.4497
  388MOL0     C52259   4.154   2.862   7.497  0.4092  0.0048  0.2145
  388MOL0     C52260   4.045   2.978   7.508 -0.3752 -0.4030 -0.0850
  388MOL0     C52261   3.918   2.922   7.558  0.0545 -0.0703 -0.5186
  388MOL0     N52262   3.827   3.027   7.591  1.0301 -0.4785  0.2447
  388MOL0     C52263   3.825   3.081   7.721  0.4666 -0.0767  0.6696
  388MOL0     C52264   3.741   3.188   7.705 -0.3096 -0.1357  0.1424
  388MOL0     C52265   3.696   3.288   7.808  0.2855  0.5760  1.3459
  388MOL0     C52266   3.540   3.293   7.820 -0.1405  0.4222  0.1185
  388MOL0     C52267   3.479   3.163   7.871  0.5035 -0.4071 -0.4228
  388MOL0     C52268   3.330   3.200   7.906  0.4210  0.2813 -0.7183
  388MOL0     O52269   3.265   3.199   7.790  0.0024  1.0715  1.4140
  388MOL0     C52270   3.133   3.231   7.792 -0.0831  0.4387 -0.8799
  388MOL0     C52271   3.067   3.192   7.684 -0.4450  0.5347 -0.0584
  388MOL0     C52272   2.926   3.211   7.678  0.6281 -0.3390  0.4698
  388MOL0     C52273   2.860   3.267   7.791 -0.1608 -0.2702 -0.8732
  388MOL0     C52274   2.722   3.303   7.797 -0.7467 -1.0563  0.9360
  388MOL0     O52275   2.685   3.401   7.877 -0.5190  0.2094  0.3236
  388MOL0     C52276   2.552   3.430   7.906 -0.0080 -0.4082  0.2013
  388MOL0     C52277   2.514   3.424   8.041  0.1412  0.3921 -0.1463
  388MOL0     C52278   2.380   3.453   8.086 -0.0720  0.0749  0.3772
  388MOL0     C52279   2.291   3.485   7.984  0.5280 -0.1383 -0.3269
  388MOL0     O52280   2.163   3.503   8.023 -0.0822 -0.7363 -0.5316
  388MOL0     C52281   2.076   3.576   7.934 -0.7880 -0.3572 -0.4343
  388MOL0     C52282   1.958   3.651   8.002 -0.1177 -0.5648 -0.4421
  388MOL0     C52283   1.995   3.743   8.114  0.5109 -0.5272  0.0143
  388MOL0     C52284   1.863   3.792   8.175 -0.1157 -0.1801 -0.9610
  388MOL0     C52285   1.857   3.947   8.211 -0.3246  0.6873  0.1938
  388MOL0     C52286   1.937   3.967   8.343 -0.0421  0.4262  0.2263
  388MOL0     C52287   1.933   4.106   8.394 -1.4870 -0.1618 -0.7338
  388MOL0     C52288   1.786   4.145   8.431 -0.3551  0.0615 -0.5540
  388MOL0    Cl52289   1.804   4.302   8.503 -0.1328  0.4330  0.2597
  388MOL0     C52290   2.325   3.486   7.852 -0.8269 -0.7742 -0.2919
  388MOL0     C52291   2.454   3.444   7.808 -0.0577 -0.8516  0.1934
  388MOL0     O52292   2.643   3.236   7.733 -0.4815 -1.2036  0.0117
  388MOL0     C52293   2.930   3.305   7.907  0.7060  0.0209 -0.8625
  388MOL0     C52294   3.068   3.281   7.909 -0.6471  0.5844  1.1135
  388MOL0     N52295   3.706   3.204   7.569 -0.7167 -1.2756  0.4417
  388MOL0     N52296   3.760   3.110   7.505  0.2322 -0.0432 -0.4343
  388MOL0     C52297   4.283   2.133   7.400  0.3512  0.0747 -0.5029
  388MOL0     C52298   4.239   2.073   7.280 -0.0146  0.4264 -0.1829
  388MOL0     C52299   4.008   2.046   6.906  0.5617  0.2648 -0.5263
  388MOL0     C52300   3.864   2.065   6.901  0.1550 -0.3866  0.3608
  388MOL0     C52301   3.796   2.052   6.783  0.5590  0.3624  0.5854
  388MOL0     C52302   3.856   2.018   6.662 -0.2512  0.5333  0.2001
  388MOL0     O52303   3.783   2.002   6.548 -0.5352 -0.5587  0.0795
  388MOL0     C52304   3.837   1.953   6.432  0.4671 -0.1289  0.0445
  388MOL0     C52305   3.739   1.968   6.315 -0.3396 -0.2840  0.4619
  388MOL0     C52306   3.701   2.123   6.300 -0.6418  0.3903 -0.7576
  388MOL0     C52307   3.610   2.122   6.187 -0.1768  0.1217 -0.8673
  388MOL0     C52308   3.569   2.258   6.160  1.0778  0.0565 -0.7984
  388MOL0     C52309   3.526   2.375   6.133  0.3938  0.4392  0.6122
  388MOL0     C52310   3.996   1.984   6.669 -0.3497  1.1077  0.6214
  388MOL0     C52311   4.069   1.986   6.792  0.1098  0.4788  0.6709
  388MOL0     C52312   4.203   1.919   6.793 -0.6040 -0.5978 -0.5577
  388MOL0     H52313   4.379   2.278   7.040  1.1417  0.8732  0.2946
  388MOL0     H52314   4.462   2.389   7.250  1.2705 -0.7368  0.4132
  388MOL0     H52315   4.207   2.366   7.534  1.9793  0.7925 -1.7982
  388MOL0     H52316   4.297   2.273   7.646  0.0066  1.2984  1.7407
  388MOL0     H52317   4.449   2.483   7.659 -1.0066 -2.1539 -1.1149
  388MOL0     H52318   4.300   2.465   7.757 -1.0414 -2.6267 -1.2150
  388MOL0     H52319   4.163   2.575   7.598 -0.2097 -1.7990 -1.4686
  388MOL0     H52320   4.281   2.592   7.481 -0.2795 -0.6146 -0.0669
  388MOL0     H52321   4.343   2.726   7.743 -0.7858 -4.9777 -0.5476
  388MOL0     H52322   4.396   2.777   7.573 -1.7936 -1.1480 -3.1156
  388MOL0     H52323   4.130   2.803   7.710  0.6335  0.8257  0.8632
  388MOL0     H52324   4.259   2.926   7.676  1.4716 -0.6955 -0.3908
  388MOL0     H52325   4.242   2.898   7.443  0.9921 -0.5727  0.7609
  388MOL0     H52326   4.111   2.774   7.446 -0.7465  0.3608  0.5393
  388MOL0     H52327   4.016   3.015   7.410 -1.5166  2.8994  1.3732
  388MOL0     H52328   4.085   3.059   7.570 -0.3736  0.1418 -0.7950
  388MOL0     H52329   3.879   2.866   7.472 -0.7633  3.3545 -2.5842
  388MOL0     H52330   3.930   2.860   7.647 -0.4215  0.7900  0.1618
  388MOL0     H52331   3.842   3.031   7.816 -1.3601  0.8730  1.5656
  388MOL0     H52332   3.747   3.274   7.904  1.4668 -1.1362  0.5235
  388MOL0     H52333   3.735   3.384   7.771  1.2165  0.3639  1.7519
  388MOL0     H52334   3.528   3.381   7.884 -0.4862  1.8666 -1.8207
  388MOL0     H52335   3.516   3.318   7.716  2.9683  1.4588 -0.4585
  388MOL0     H52336   3.529   3.119   7.958 -1.5677  0.1165  1.1065
  388MOL0     H52337   3.487   3.099   7.782  0.9736  2.0360 -2.2347
  388MOL0     H52338   3.337   3.303   7.943  0.1696 -0.1880  0.6824
  388MOL0     H52339   3.277   3.135   7.975  0.5901 -0.4550 -1.2751
  388MOL0     H52340   3.118   3.147   7.600 -0.5270 -0.2037  0.2743
  388MOL0     H52341   2.875   3.188   7.586 -1.8301 -1.7047  2.0675
  388MOL0     H52342   2.594   3.410   8.113  0.3498 -0.6279 -0.5434
  388MOL0     H52343   2.368   3.437   8.192  0.4029 -0.2088  0.3924
  388MOL0     H52344   2.128   3.655   7.879 -3.4786  1.3861 -0.6749
  388MOL0     H52345   2.028   3.523   7.851 -1.8074  2.2436 -1.6219
  388MOL0     H52346   1.908   3.707   7.923  2.3230  1.3093 -0.7592
  388MOL0     H52347   1.889   3.571   8.033  1.2940 -1.4196  0.6397
  388MOL0     H52348   2.062   3.702   8.191 -2.3201 -0.3428  2.7886
  388MOL0     H52349   2.042   3.831   8.070  1.7165 -0.5634  1.1564
  388MOL0     H52350   1.843   3.735   8.266  0.1080  0.6184 -0.3993
  388MOL0     H52351   1.782   3.775   8.103  0.4994  2.4876 -2.4057
  388MOL0     H52352   1.752   3.974   8.222 -1.6363 -4.0470  1.5186
  388MOL0     H52353   1.911   4.003   8.134 -0.3978  1.9221  1.0264
  388MOL0     H52354   1.895   3.905   8.423 -1.8054  0.7140 -0.4258
  388MOL0     H52355   2.043   3.950   8.324  0.4632  0.6971  2.4448
  388MOL0     H52356   1.982   4.180   8.330 -1.8117  1.4490  0.7954
  388MOL0     H52357   1.992   4.111   8.486 -2.0938  3.5604 -0.4014
  388MOL0     H52358   1.713   4.159   8.350 -0.7150  2.3656  0.0785
  388MOL0     H52359   1.735   4.078   8.500 -0.2775  1.3664  0.8133
  388MOL0     H52360   2.252   3.505   7.774 -1.6758 -1.4747  0.3188
  388MOL0     H52361   2.474   3.434   7.702 -2.8834 -4.4614 -0.2021
  388MOL0     H52362   2.888   3.344   7.999  3.6072  1.0823  0.1414
  388MOL0     H52363   3.121   3.299   8.002  2.4574 -0.0547 -0.3783
  388MOL0     H52364   4.250   2.103   7.499 -1.9552  0.2040 -1.1835
  388MOL0     H52365   4.171   1.989   7.287 -2.0432  1.5113 -4.1676
  388MOL0     H52366   3.816   2.123   6.979  1.5413  2.6770 -0.9199
  388MOL0     H52367   3.687   2.055   6.778  0.6304  1.2593 -0.7853
  388MOL0     H52368   3.850   1.845   6.438 -1.3464 -0.3045  4.3003
  388MOL0     H52369   3.923   2.016   6.407  0.1902  1.0985  1.9767
  388MOL0     H52370   3.649   1.911   6.339 -0.7293 -0.3450 -1.0462
  388MOL0     H52371   3.774   1.912   6.229 -3.4682 -0.7995 -0.5929
  388MOL0     H52372   3.791   2.183   6.281  1.3821 -2.7967 -2.0408
  388MOL0     H52373   3.663   2.168   6.392  1.4209  1.1228 -0.2174
  388MOL0     H52374   3.650   2.076   6.096  0.5336 -5.2551  1.7568
  388MOL0     H52375   3.516   2.067   6.203 -0.3737 -0.5744 -3.8314
  388MOL0     H52376   3.484   2.467   6.100 -1.6888 -1.4759 -2.6065
  388MOL0     H52377   4.038   1.929   6.586  1.4502 -0.4235  2.4393
  388MOL0     H52378   4.234   1.882   6.695 -0.8195  1.6649 -1.5374
  388MOL0     H52379   4.290   1.985   6.801 -1.2604  0.3999 -1.5140
  388MOL0     H52380   4.220   1.861   6.884  3.8424  2.6642  1.0493
  389MOL0     O52381   0.081   0.427   5.746  0.5582 -0.8827 -0.3713
  389MOL0     C52382   0.164   0.492   5.814  0.4613  0.2884  0.5430
  389MOL0     O52383   0.289   0.529   5.774 -0.0637  0.1563  0.2659
  389MOL0     C52384   0.318   0.503   5.643  0.4007  1.4500 -0.0414
  389MOL0     C52385   0.412   0.406   5.602 -0.1829 -0.5019  0.3028
  389MOL0     C52386   0.432   0.397   5.463 -0.1942  0.2849 -0.1444
  389MOL0     C52387   0.380   0.480   5.366 -0.0711 -1.0262 -0.3580
  389MOL0     O52388   0.414   0.456   5.236 -0.5095 -0.7693  0.8283
  389MOL0     C52389   0.327   0.510   5.127  0.1307  0.0739 -0.2011
  389MOL0     C52390   0.348   0.409   5.013  0.1193  0.1136 -0.9748
  389MOL0     C52391   0.276   0.431   4.875 -0.6401  0.1126 -0.6185
  389MOL0     C52392   0.380   0.491   4.782 -0.1333 -0.3391 -0.5015
  389MOL0     C52393   0.325   0.500   4.638  0.2409  0.5900  0.3204
  389MOL0     C52394   0.435   0.524   4.533 -0.5361  0.5840 -0.1167
  389MOL0     C52395   0.390   0.610   4.412  0.5330  0.5017  0.5235
  389MOL0     C52396   0.312   0.531   4.295  0.3318 -0.2940  0.0782
  389MOL0     N52397   0.287   0.628   4.188  0.4645  0.2314 -1.1056
  389MOL0     C52398   0.370   0.668   4.092  0.4090  1.5118  0.3524
  389MOL0     C52399   0.319   0.784   4.054 -0.7670 -0.2710  0.6571
  389MOL0     C52400   0.387   0.877   3.964 -0.4145  0.3128  0.0014
  389MOL0     C52401   0.371   0.850   3.808  0.3080  0.2677 -0.0228
  389MOL0     C52402   0.396   0.971   3.725 -0.4903 -1.0402  0.4241
  389MOL0     C52403   0.320   0.974   3.593  0.8648 -0.0209  0.3636
  389MOL0     O52404   0.396   1.037   3.486 -0.0798 -0.1283 -0.6966
  389MOL0     C52405   0.326   1.056   3.363  0.0344 -0.7619  0.6294
  389MOL0     C52406   0.195   1.010   3.341 -0.8891 -0.4923 -0.2042
  389MOL0     C52407   0.124   1.038   3.227  0.0678  1.6109 -0.4295
  389MOL0     C52408   0.185   1.095   3.118  0.8382 -0.0450 -0.1523
  389MOL0     C52409   0.096   1.122   2.996  0.9586  0.1928 -0.0259
  389MOL0     O52410  -0.024   1.054   2.994  0.1007 -0.5088  0.1726
  389MOL0     C52411  -0.083   1.034   2.870 -0.4468  0.1502  0.5950
  389MOL0     C52412  -0.221   1.006   2.873 -0.0125 -0.1849 -1.1428
  389MOL0     C52413  -0.289   0.972   2.754 -0.0711  0.0684 -0.2779
  389MOL0     C52414  -0.224   0.959   2.631  0.0833  1.0553 -0.0134
  389MOL0     O52415  -0.285   0.952   2.509  0.3135  0.0771 -1.0301
  389MOL0     C52416  -0.284   0.816   2.455 -0.7333  0.5864 -0.2625
  389MOL0     C52417  -0.262   0.821   2.299  0.0752 -0.1780  1.3152
  389MOL0     C52418  -0.368   0.910   2.217  0.1796  0.1619 -0.9957
  389MOL0     C52419  -0.341   0.926   2.069 -0.5533  0.5407 -0.2830
  389MOL0     C52420  -0.460   1.007   2.000 -0.1723  0.4252  0.0463
  389MOL0     C52421  -0.479   1.137   2.067  0.3941 -0.3100 -1.0763
  389MOL0     C52422  -0.563   1.231   1.976  0.1550 -0.5559 -0.1999
  389MOL0     C52423  -0.702   1.175   1.961 -0.1706 -0.2738  0.0459
  389MOL0    Cl52424  -0.713   1.077   1.805 -0.4557  0.2164 -0.2885
  389MOL0     C52425  -0.091   0.988   2.628 -0.3027  0.7141  0.1756
  389MOL0     C52426  -0.014   1.020   2.745  0.3501 -0.8910 -0.1407
  389MOL0     O52427   0.119   1.213   2.923  0.0048 -0.0204 -0.0060
  389MOL0     C52428   0.307   1.155   3.137 -0.9036  1.1349  0.3433
  389MOL0     C52429   0.377   1.130   3.257  0.4395  0.2143  0.7628
  389MOL0     N52430   0.196   0.805   4.109  0.1074  0.0711 -0.1175
  389MOL0     N52431   0.180   0.709   4.202  0.3746 -0.2805  0.7759
  389MOL0     C52432   0.292   0.589   5.411 -0.2217 -0.6016 -0.7880
  389MOL0     C52433   0.259   0.596   5.550  0.0814 -0.1701 -0.3632
  389MOL0     C52434   0.119   0.527   5.956  0.2079 -0.1174  0.4902
  389MOL0     C52435   0.171   0.642   6.014 -0.0668  0.1495 -0.3829
  389MOL0     C52436   0.118   0.676   6.142  0.5964  0.4670  0.1420
  389MOL0     C52437   0.037   0.579   6.217 -1.7006 -0.9607  1.2185
  389MOL0     O52438  -0.004   0.624   6.340  0.7013 -0.6286 -0.1939
  389MOL0     C52439  -0.073   0.533   6.425  0.2938 -0.2364  0.3391
  389MOL0     C52440  -0.132   0.638   6.523  0.0408  1.1097  0.0624
  389MOL0     C52441  -0.212   0.550   6.622 -0.1685  0.3830  1.6132
  389MOL0     C52442  -0.351   0.524   6.560 -0.2086 -0.0476  0.6687
  389MOL0     C52443  -0.437   0.460   6.648 -0.0547  1.1976 -0.2410
  389MOL0     C52444  -0.473   0.403   6.750  0.2988  0.8208  0.3144
  389MOL0     C52445   0.011   0.457   6.160  0.5726  0.5920 -0.9789
  389MOL0     C52446   0.044   0.428   6.030  0.1748  0.9321  0.0849
  389MOL0     C52447   0.013   0.289   5.979 -0.5973  1.1985  0.2807
  389MOL0     H52448   0.463   0.350   5.680 -0.7524 -1.8856 -0.2862
  389MOL0     H52449   0.501   0.323   5.424  0.8965 -0.2342  2.5808
  389MOL0     H52450   0.220   0.503   5.145 -0.4662  0.3926 -3.1621
  389MOL0     H52451   0.358   0.608   5.090 -1.6409 -0.4898 -3.5751
  389MOL0     H52452   0.304   0.320   5.059 -2.0229  0.5189 -2.1078
  389MOL0     H52453   0.452   0.391   4.981 -1.1767 -4.0027 -3.6834
  389MOL0     H52454   0.181   0.485   4.886  0.7783  3.1153 -1.9693
  389MOL0     H52455   0.235   0.337   4.837  0.5394 -1.4487  1.7232
  389MOL0     H52456   0.424   0.583   4.820  0.9397  0.1120 -2.7182
  389MOL0     H52457   0.462   0.421   4.764 -0.5550 -0.4324 -2.2280
  389MOL0     H52458   0.282   0.403   4.616 -0.5723  0.0380  3.7886
  389MOL0     H52459   0.242   0.572   4.637 -0.0966  0.1978 -0.4939
  389MOL0     H52460   0.514   0.579   4.585 -1.5497  2.2854 -0.3241
  389MOL0     H52461   0.476   0.427   4.501  0.8784  0.8788  0.6963
  389MOL0     H52462   0.474   0.669   4.376 -0.9731  3.9870  2.2726
  389MOL0     H52463   0.316   0.681   4.450 -1.0736 -1.8626  2.0945
  389MOL0     H52464   0.370   0.444   4.262  1.4656  0.6466 -0.4597
  389MOL0     H52465   0.215   0.492   4.327  0.4952 -0.3956  0.4615
  389MOL0     H52466   0.470   0.639   4.062  0.0293  2.3654 -1.8399
  389MOL0     H52467   0.355   0.978   3.992 -0.4888  0.0479  0.8907
  389MOL0     H52468   0.489   0.878   4.004 -0.1286  1.3681 -0.7007
  389MOL0     H52469   0.433   0.763   3.785 -2.1634 -1.9043  0.9356
  389MOL0     H52470   0.266   0.823   3.796  0.4225 -1.0418  1.6269
  389MOL0     H52471   0.501   0.996   3.713 -0.3819 -1.1171  1.1821
  389MOL0     H52472   0.365   1.061   3.780  0.2071 -0.0212 -0.7724
  389MOL0     H52473   0.222   1.014   3.623  0.0140 -1.5440 -0.2395
  389MOL0     H52474   0.294   0.873   3.558 -0.3146  0.8741 -1.4946
  389MOL0     H52475   0.155   0.958   3.427  0.2387  0.1200  0.7338
  389MOL0     H52476   0.023   0.999   3.218  0.4209  0.6943 -0.5484
  389MOL0     H52477  -0.284   0.996   2.961  1.2157 -2.4582 -0.4446
  389MOL0     H52478  -0.391   0.934   2.759 -0.5462  1.4443  3.2655
  389MOL0     H52479  -0.201   0.757   2.496 -1.1141  1.0880  1.2858
  389MOL0     H52480  -0.384   0.772   2.459 -1.0304  1.0006 -2.1336
  389MOL0     H52481  -0.160   0.852   2.273  0.0024 -0.1672  1.0385
  389MOL0     H52482  -0.274   0.717   2.269  0.1715  0.6874 -2.1373
  389MOL0     H52483  -0.463   0.866   2.249  1.3477 -0.1049  2.5421
  389MOL0     H52484  -0.360   1.005   2.272  4.7475 -1.0854  0.9086
  389MOL0     H52485  -0.338   0.825   2.027  1.6714  0.1502  0.6675
  389MOL0     H52486  -0.251   0.983   2.046  0.6130 -1.1006 -0.0163
  389MOL0     H52487  -0.550   0.947   2.017  0.2403  0.2196  1.7179
  389MOL0     H52488  -0.443   1.023   1.894 -1.3282 -2.0260 -0.5984
  389MOL0     H52489  -0.526   1.123   2.165  2.3780  0.1197 -0.0121
  389MOL0     H52490  -0.381   1.186   2.070 -0.6449  1.9245 -1.1470
  389MOL0     H52491  -0.506   1.252   1.885  1.4697 -2.4841  0.1236
  389MOL0     H52492  -0.573   1.322   2.037  2.2586 -0.7221  0.4710
  389MOL0     H52493  -0.742   1.106   2.035 -1.7793 -2.1321 -2.4065
  389MOL0     H52494  -0.768   1.259   1.940 -1.4898 -2.0020 -3.5239
  389MOL0     H52495  -0.036   0.983   2.535 -0.8593  2.8263 -0.3065
  389MOL0     H52496   0.093   1.027   2.730  0.5263 -3.1050 -0.2123
  389MOL0     H52497   0.358   1.219   3.065 -1.2719  0.3401 -0.6399
  389MOL0     H52498   0.474   1.175   3.276 -0.2577  1.5477  1.3111
  389MOL0     H52499   0.266   0.665   5.337 -2.8047  1.4069  1.9667
  389MOL0     H52500   0.182   0.660   5.593 -0.4815 -0.7993 -0.4267
  389MOL0     H52501   0.231   0.711   5.955  1.9851 -1.4736 -0.3119
  389MOL0     H52502   0.151   0.774   6.175 -0.2239  0.7138  0.2464
  389MOL0     H52503   0.003   0.485   6.487  1.2782  5.2087  4.0152
  389MOL0     H52504  -0.153   0.473   6.379 -1.0487  3.1612 -2.1958
  389MOL0     H52505  -0.195   0.715   6.479 -1.7718 -0.5103 -0.3103
  389MOL0     H52506  -0.055   0.688   6.584  2.0658  0.8279 -2.1238
  389MOL0     H52507  -0.223   0.597   6.720 -1.3268  0.8694  1.2602
  389MOL0     H52508  -0.161   0.455   6.637  2.0301  1.1790 -0.2143
  389MOL0     H52509  -0.392   0.616   6.517 -2.5350 -2.1150 -1.9391
  389MOL0     H52510  -0.339   0.448   6.482 -1.0891 -2.7326  2.9881
  389MOL0     H52511  -0.513   0.344   6.830 -1.8520 -0.1772 -1.4181
  389MOL0     H52512  -0.039   0.377   6.213 -2.1040  0.1563 -3.8637
  389MOL0     H52513   0.096   0.237   5.930 -2.2570  0.7688 -2.2306
  389MOL0     H52514  -0.030   0.221   6.053 -2.4514  2.7366  0.6953
  389MOL0     H52515  -0.061   0.316   5.904 -0.3500 -0.1016 -0.4508
  390MOL0     O52516   8.223   2.522   2.810 -0.5688  0.2138  0.0411
  390MOL0     C52517   8.240   2.492   2.691  0.6447  0.8214 -1.1331
  390MOL0     O52518   8.139   2.476   2.593 -0.4756 -1.0464 -0.6742
  390MOL0     C52519   8.012   2.486   2.643 -1.0709 -0.1771  0.7368
  390MOL0     C52520   7.962   2.607   2.685 -0.5709  0.1519  0.1305
  390MOL0     C52521   7.839   2.623   2.744 -0.6590  0.0649 -0.2689
  390MOL0     C52522   7.755   2.513   2.755  0.4591  0.2676  0.4130
  390MOL0     O52523   7.637   2.533   2.817 -0.4046  0.8325  0.0789
  390MOL0     C52524   7.522   2.445   2.807 -0.9091  0.0273  0.1005
  390MOL0     C52525   7.472   2.425   2.659  0.4635 -0.3218 -0.1404
  390MOL0     C52526   7.323   2.361   2.666 -0.4938  0.5125 -0.2268
  390MOL0     C52527   7.337   2.243   2.566  0.2439  0.0556 -0.1011
  390MOL0     C52528   7.210   2.158   2.579 -0.5710  0.4272 -0.5449
  390MOL0     C52529   7.218   2.025   2.493 -0.1864  0.2417 -0.0296
  390MOL0     C52530   7.082   1.949   2.496  0.8464 -0.3447 -0.7364
  390MOL0     C52531   7.064   1.846   2.387 -0.0592 -0.2372  0.2561
  390MOL0     N52532   6.940   1.775   2.396 -0.2655 -0.3632  0.3346
  390MOL0     C52533   6.849   1.764   2.498  0.1454 -0.1799 -0.1606
  390MOL0     C52534   6.754   1.690   2.451  0.6821 -0.5430 -0.7640
  390MOL0     C52535   6.626   1.648   2.510 -0.3142  0.4526 -0.4347
  390MOL0     C52536   6.584   1.739   2.635 -0.3898  0.5265  0.8062
  390MOL0     C52537   6.484   1.668   2.717  0.0279  0.3390  0.0361
  390MOL0     C52538   6.443   1.747   2.845  1.1504 -0.4269 -0.0250
  390MOL0     O52539   6.364   1.868   2.799 -0.4795 -0.1521 -0.1124
  390MOL0     C52540   6.239   1.875   2.863 -0.9529 -0.9955 -0.5761
  390MOL0     C52541   6.222   1.872   3.001 -0.5464 -0.8025  0.0113
  390MOL0     C52542   6.095   1.870   3.057  1.0136 -0.7828  0.5441
  390MOL0     C52543   5.981   1.887   2.976 -0.4535 -0.2258  0.1832
  390MOL0     C52544   5.843   1.906   3.032  0.6446  0.0687  0.4593
  390MOL0     O52545   5.739   1.925   2.948 -0.8956 -0.4381  0.3042
  390MOL0     C52546   5.621   1.956   2.997  0.0350  0.4118 -0.3659
  390MOL0     C52547   5.542   1.853   3.028 -0.0894  0.7639 -0.4964
  390MOL0     C52548   5.408   1.874   3.064  0.2739 -0.6806  1.1353
  390MOL0     C52549   5.368   2.008   3.067 -0.6116  0.5424 -0.0239
  390MOL0     O52550   5.235   2.026   3.082 -0.5304 -1.0706 -0.2434
  390MOL0     C52551   5.156   2.141   3.043 -0.0278 -0.1330  0.5362
  390MOL0     C52552   5.009   2.109   3.034 -1.3386 -0.1384 -0.0798
  390MOL0     C52553   4.936   2.230   2.989  1.3199  0.6834 -0.9997
  390MOL0     C52554   4.787   2.183   2.969 -0.5799  0.2416  0.6431
  390MOL0     C52555   4.684   2.303   2.960  0.5103  0.7405  0.6878
  390MOL0     C52556   4.560   2.237   2.910  0.3306  0.0247 -0.1956
  390MOL0     C52557   4.437   2.339   2.915 -0.0572 -0.3875  0.7077
  390MOL0     C52558   4.393   2.370   3.055  0.7501 -0.2239  0.9278
  390MOL0    Cl52559   4.304   2.533   3.058 -0.2992 -0.4781  0.0143
  390MOL0     C52560   5.460   2.113   3.039  0.4268 -0.6853 -2.2581
  390MOL0     C52561   5.593   2.082   3.007 -0.2011 -1.2445  1.3570
  390MOL0     O52562   5.834   1.897   3.154 -0.9293 -0.8849  0.8282
  390MOL0     C52563   6.000   1.892   2.833  1.5349  0.6555  0.6473
  390MOL0     C52564   6.124   1.889   2.782 -0.4599 -0.3392  0.9345
  390MOL0     N52565   6.789   1.639   2.323 -0.0101  0.5762  1.2660
  390MOL0     N52566   6.899   1.705   2.291 -0.0381  0.3760 -0.6716
  390MOL0     C52567   7.790   2.392   2.693 -0.1916  0.2274 -0.6908
  390MOL0     C52568   7.920   2.379   2.642 -0.7026 -0.6969  0.1945
  390MOL0     C52569   8.374   2.452   2.644 -0.1301 -0.3805  0.0590
  390MOL0     C52570   8.398   2.455   2.509 -1.4159  0.1754  0.1051
  390MOL0     C52571   8.525   2.427   2.454  0.1742 -0.3458 -0.4174
  390MOL0     C52572   8.630   2.397   2.534  0.5174 -0.4698  0.2720
  390MOL0     O52573   8.757   2.356   2.465  0.9153  0.3636 -0.0939
  390MOL0     C52574   8.853   2.293   2.540 -0.0502  0.1403 -0.1742
  390MOL0     C52575   8.968   2.247   2.449  0.9043  0.4114 -0.2699
  390MOL0     C52576   9.062   2.162   2.539 -0.6520  0.0238  0.0167
  390MOL0     C52577   9.019   2.024   2.577 -0.2798  0.1041 -0.3083
  390MOL0     C52578   8.991   1.934   2.463  0.1331  1.1353  0.7367
  390MOL0     C52579   8.985   1.837   2.388  0.4997 -0.3689  0.3190
  390MOL0     C52580   8.621   2.401   2.672 -0.2626 -0.7932 -0.4196
  390MOL0     C52581   8.492   2.426   2.727 -0.2362  0.4613 -0.5220
  390MOL0     C52582   8.468   2.412   2.876 -0.2876  0.1836  0.1145
  390MOL0     H52583   8.028   2.693   2.672  1.7323 -1.7955 -2.3584
  390MOL0     H52584   7.806   2.714   2.793  0.4394  0.0303  0.5621
  390MOL0     H52585   7.543   2.354   2.863 -1.2182 -0.1955 -0.1402
  390MOL0     H52586   7.437   2.487   2.862 -0.3259  0.0387  1.0197
  390MOL0     H52587   7.540   2.364   2.599 -0.2830 -0.1742 -1.1660
  390MOL0     H52588   7.460   2.523   2.612 -0.3839 -0.4191 -0.1496
  390MOL0     H52589   7.247   2.429   2.626 -1.5881 -0.6348 -0.1733
  390MOL0     H52590   7.296   2.323   2.765 -1.0872 -0.3626 -0.7079
  390MOL0     H52591   7.337   2.284   2.465 -0.8477  2.1855  0.6931
  390MOL0     H52592   7.425   2.179   2.578  0.4547  0.5676  1.3246
  390MOL0     H52593   7.200   2.128   2.684  2.4481 -1.0597 -0.5507
  390MOL0     H52594   7.120   2.211   2.550 -1.1421  0.3861  1.0646
  390MOL0     H52595   7.243   2.057   2.391 -1.9915  1.3183 -0.1855
  390MOL0     H52596   7.290   1.949   2.523  2.4367  2.0584 -1.3616
  390MOL0     H52597   7.002   2.023   2.484  0.6529 -0.7200 -1.8282
  390MOL0     H52598   7.061   1.898   2.591 -3.0856  0.1729 -1.1587
  390MOL0     H52599   7.057   1.902   2.293  0.8817 -0.4525  0.0457
  390MOL0     H52600   7.151   1.780   2.374 -0.8725 -1.4271  0.7434
  390MOL0     H52601   6.856   1.813   2.594  3.6450  0.2894 -0.5122
  390MOL0     H52602   6.556   1.671   2.429 -0.2917 -1.5175 -1.0688
  390MOL0     H52603   6.625   1.547   2.551 -1.0179  1.0091  0.9911
  390MOL0     H52604   6.667   1.763   2.702  0.8374  1.7699 -1.0619
  390MOL0     H52605   6.554   1.835   2.592  2.3587  1.3132  0.4002
  390MOL0     H52606   6.508   1.565   2.745 -1.7044  0.7281  3.4309
  390MOL0     H52607   6.390   1.667   2.661 -0.5711  1.3378  0.9959
  390MOL0     H52608   6.533   1.774   2.900  1.0502  0.7440 -0.4118
  390MOL0     H52609   6.381   1.678   2.902 -1.1194  0.0800 -1.7384
  390MOL0     H52610   6.313   1.860   3.059 -0.8629 -0.8855  0.4925
  390MOL0     H52611   6.085   1.839   3.161  4.6444 -4.3746  0.0550
  390MOL0     H52612   5.562   1.749   3.004 -2.2465 -0.3728  2.0250
  390MOL0     H52613   5.336   1.797   3.091  2.3056 -2.4846  1.7102
  390MOL0     H52614   5.170   2.221   3.117 -0.2047 -0.6293  1.1160
  390MOL0     H52615   5.192   2.176   2.946 -3.9229 -1.2647 -1.5450
  390MOL0     H52616   4.989   2.031   2.961 -2.3843  1.7700 -1.9562
  390MOL0     H52617   4.986   2.075   3.135  1.7374 -0.2375  0.6911
  390MOL0     H52618   4.941   2.308   3.066  0.8182 -1.8436  1.7966
  390MOL0     H52619   4.967   2.271   2.892  2.1207  3.6143  0.3726
  390MOL0     H52620   4.754   2.131   3.059 -1.7190  3.5034  2.2436
  390MOL0     H52621   4.787   2.118   2.880 -1.4701 -2.7993  2.7116
  390MOL0     H52622   4.723   2.370   2.883 -4.2299 -2.7562 -5.7732
  390MOL0     H52623   4.667   2.360   3.052 -0.3421  1.3636  0.1615
  390MOL0     H52624   4.578   2.197   2.809  2.7663  2.2868 -0.7716
  390MOL0     H52625   4.536   2.151   2.973  5.0715 -2.2691 -1.0586
  390MOL0     H52626   4.351   2.278   2.886 -0.3259 -2.0250  4.3613
  390MOL0     H52627   4.462   2.429   2.859  0.2312 -0.9099 -0.0120
  390MOL0     H52628   4.328   2.292   3.096  1.8457 -1.0279  1.2121
  390MOL0     H52629   4.476   2.396   3.121  1.5599  3.8088 -1.3627
  390MOL0     H52630   5.429   2.217   3.040  0.2224 -0.7211  0.4669
  390MOL0     H52631   5.660   2.164   2.981 -3.2140  0.5601 -1.6181
  390MOL0     H52632   5.916   1.928   2.775 -0.7426  0.4888  3.6126
  390MOL0     H52633   6.154   1.897   2.677 -2.2201  5.0388  0.5060
  390MOL0     H52634   7.723   2.309   2.714 -0.1876 -0.1778 -2.2036
  390MOL0     H52635   7.963   2.282   2.620 -1.7458 -0.3180 -4.6664
  390MOL0     H52636   8.312   2.472   2.446 -0.5248 -1.5809 -1.6720
  390MOL0     H52637   8.542   2.421   2.347  1.2654 -0.9433 -0.2232
  390MOL0     H52638   8.805   2.201   2.575  1.7416 -0.9477 -0.4918
  390MOL0     H52639   8.894   2.349   2.625 -2.0483  0.6648  0.5174
  390MOL0     H52640   9.025   2.334   2.414  1.2062  0.6597  0.8022
  390MOL0     H52641   8.927   2.189   2.366 -2.9846  0.5240  1.3780
  390MOL0     H52642   9.092   2.223   2.625  1.3452  0.8362 -1.1932
  390MOL0     H52643   9.150   2.149   2.477 -1.7345 -0.8531 -1.4000
  390MOL0     H52644   9.101   1.965   2.620 -0.0185  0.4855 -0.2895
  390MOL0     H52645   8.945   2.017   2.658 -0.7020  3.0548 -0.3597
  390MOL0     H52646   8.973   1.740   2.344  1.5769 -0.3420 -0.0545
  390MOL0     H52647   8.713   2.381   2.725  0.2993 -2.5158 -1.9598
  390MOL0     H52648   8.381   2.346   2.887  1.3049 -1.8257  1.3562
  390MOL0     H52649   8.558   2.372   2.924  1.2566  0.0279 -2.6870
  390MOL0     H52650   8.445   2.510   2.920 -2.3385 -0.1084 -0.1871
  391MOL0     O52651   9.278   9.647   9.453  0.0909 -0.4373 -0.4875
  391MOL0     C52652   9.271   9.621   9.572 -0.1716  0.4476 -0.3564
  391MOL0     O52653   9.369   9.617   9.668 -0.3228 -0.2645 -0.5480
  391MOL0     C52654   9.500   9.589   9.621 -1.3323  0.6581  0.1358
  391MOL0     C52655   9.610   9.669   9.639  1.8103 -0.9804  0.4258
  391MOL0     C52656   9.726   9.652   9.569  0.1569  0.8485 -0.6082
  391MOL0     C52657   9.748   9.533   9.506 -0.1839  0.8089  0.4981
  391MOL0     O52658   9.876   9.508   9.454 -0.0870  0.0295 -0.0486
  391MOL0     C52659   9.943   9.382   9.475 -0.0807 -0.7638  0.7870
  391MOL0     C52660  10.074   9.366   9.399 -0.1363  0.0689  0.2017
  391MOL0     C52661  10.062   9.408   9.260  0.5431 -0.7319 -0.4914
  391MOL0     C52662  10.194   9.362   9.187 -0.8343  0.1552 -0.0232
  391MOL0     C52663  10.226   9.435   9.058 -0.8032 -1.1521  0.5407
  391MOL0     C52664  10.122   9.417   8.947 -0.6597 -0.4241 -0.0287
  391MOL0     C52665  10.107   9.274   8.906 -0.1832 -0.7039  0.1474
  391MOL0     C52666  10.223   9.224   8.817 -0.6109  0.2239 -0.0310
  391MOL0     N52667  10.198   9.095   8.760 -1.2675  0.9259  0.6794
  391MOL0     C52668  10.217   8.971   8.811 -0.1721  0.3414  0.0043
  391MOL0     C52669  10.170   8.890   8.715 -0.4101  0.7662 -0.3643
  391MOL0     C52670  10.182   8.742   8.699 -0.1690  0.7680 -0.0457
  391MOL0     C52671  10.143   8.669   8.820 -0.5779  0.3939  0.2851
  391MOL0     C52672  10.174   8.519   8.794  0.8273 -0.5699 -0.0885
  391MOL0     C52673  10.131   8.421   8.902 -0.2073  0.4901 -0.0177
  391MOL0     O52674  10.169   8.481   9.027  0.2426  0.5090  0.6316
  391MOL0     C52675  10.088   8.444   9.142  0.2062  0.8328 -0.2129
  391MOL0     C52676   9.993   8.339   9.144 -0.6697 -0.0407 -0.1908
  391MOL0     C52677   9.903   8.319   9.246 -0.2734 -0.5621  0.1511
  391MOL0     C52678   9.899   8.407   9.359 -0.4699  0.7960  0.8262
  391MOL0     C52679   9.806   8.396   9.474 -0.4730  0.6407 -0.4884
  391MOL0     O52680   9.813   8.481   9.581 -0.4237  0.6601 -0.1813
  391MOL0     C52681   9.705   8.478   9.666 -0.0993  0.4335 -0.1109
  391MOL0     C52682   9.662   8.360   9.727 -0.6415 -0.7631 -0.2953
  391MOL0     C52683   9.564   8.363   9.820  0.5843  1.1930 -0.5370
  391MOL0     C52684   9.495   8.480   9.866  0.4966  0.2856  0.0785
  391MOL0     O52685   9.408   8.475   9.975 -0.2824 -0.2152  0.3377
  391MOL0     C52686   9.464   8.522  10.098  0.7797  0.8660  0.3143
  391MOL0     C52687   9.484   8.413  10.207  0.3199  0.4749 -0.1209
  391MOL0     C52688   9.359   8.367  10.279  0.1219 -0.2321  0.8712
  391MOL0     C52689   9.387   8.269  10.389 -0.7561 -0.2095  0.0845
  391MOL0     C52690   9.474   8.332  10.501  0.6000  0.3244 -0.4004
  391MOL0     C52691   9.529   8.238  10.607 -0.4340  0.5470  0.9087
  391MOL0     C52692   9.421   8.162  10.687  0.7712  0.6605  1.0061
  391MOL0     C52693   9.336   8.268  10.772 -0.0019 -0.2482  0.0450
  391MOL0    Cl52694   9.440   8.390  10.873  0.0686 -0.2292 -0.0651
  391MOL0     C52695   9.536   8.592   9.802  0.6457 -0.2571  0.5655
  391MOL0     C52696   9.634   8.593   9.701  0.3343 -0.0354 -1.1317
  391MOL0     O52697   9.723   8.304   9.459  0.1774  0.8519  0.4285
  391MOL0     C52698   9.983   8.514   9.353 -0.7975  1.0261 -0.2997
  391MOL0     C52699  10.078   8.535   9.256 -0.0790 -0.3042 -0.4817
  391MOL0     N52700  10.138   8.965   8.608 -0.6438 -0.4785  0.0744
  391MOL0     N52701  10.168   9.079   8.627  0.7333  0.5680  0.0421
  391MOL0     C52702   9.651   9.432   9.513 -0.8113  0.7165 -0.5861
  391MOL0     C52703   9.528   9.467   9.562 -0.7780  0.8547  0.1037
  391MOL0     C52704   9.133   9.593   9.610 -0.4319 -1.0810 -0.0873
  391MOL0     C52705   9.089   9.668   9.729  0.4832 -0.2340  0.1302
  391MOL0     C52706   8.961   9.648   9.770 -0.0205  0.9088  0.0413
  391MOL0     C52707   8.880   9.547   9.726 -0.4549 -0.2108  0.9909
  391MOL0     O52708   8.766   9.506   9.775 -1.1129  1.2009 -0.2554
  391MOL0     C52709   8.653   9.595   9.755  0.2940  0.7161 -0.4481
  391MOL0     C52710   8.527   9.514   9.789 -0.1713 -0.8460 -0.2076
  391MOL0     C52711   8.523   9.370   9.720  0.2507 -0.6577  0.4699
  391MOL0     C52712   8.385   9.314   9.690  0.1902 -0.7476 -0.5272
  391MOL0     C52713   8.332   9.381   9.575 -0.5943  0.3532  0.7489
  391MOL0     C52714   8.306   9.432   9.468  0.5781  0.3285  1.3317
  391MOL0     C52715   8.915   9.487   9.604  0.0554  0.2584 -0.3717
  391MOL0     C52716   9.041   9.500   9.550  1.3778  1.2520  0.3479
  391MOL0     C52717   9.073   9.418   9.425  0.5791 -0.2322  0.3341
  391MOL0     H52718   9.610   9.759   9.699 -1.4137 -1.7683  1.8614
  391MOL0     H52719   9.806   9.725   9.571  0.6567  0.2905  0.3867
  391MOL0     H52720   9.947   9.385   9.585  1.9574  0.4111  0.7158
  391MOL0     H52721   9.874   9.303   9.445 -1.9482  0.6603  1.1099
  391MOL0     H52722  10.098   9.259   9.400 -2.9980 -0.6848  0.1126
  391MOL0     H52723  10.157   9.418   9.447  2.6260 -2.1630 -1.7843
  391MOL0     H52724  10.054   9.517   9.248 -0.2750 -0.9203 -1.8994
  391MOL0     H52725   9.985   9.354   9.204  0.5922  1.2549 -2.6696
  391MOL0     H52726  10.276   9.387   9.255 -1.7435 -0.6253  1.4165
  391MOL0     H52727  10.203   9.254   9.177  2.1602  0.4409 -1.7730
  391MOL0     H52728  10.239   9.540   9.086 -2.7516 -1.0668  1.2790
  391MOL0     H52729  10.328   9.400   9.038  0.1188  1.9750 -0.8026
  391MOL0     H52730  10.025   9.462   8.969 -2.2098 -3.5891  0.2277
  391MOL0     H52731  10.164   9.472   8.862  2.2301  0.0376  1.5497
  391MOL0     H52732  10.014   9.275   8.847 -0.0314 -3.0780 -0.2185
  391MOL0     H52733  10.091   9.209   8.993  4.3364 -0.8890  1.0597
  391MOL0     H52734  10.228   9.285   8.726 -1.0768 -2.1150 -1.7174
  391MOL0     H52735  10.314   9.233   8.877 -0.4108  3.3136 -0.6237
  391MOL0     H52736  10.268   8.936   8.900  0.8053  1.4441 -0.0919
  391MOL0     H52737  10.100   8.714   8.633  0.1307 -0.8012  0.2028
  391MOL0     H52738  10.280   8.712   8.662 -0.1707  0.2599  0.3491
  391MOL0     H52739  10.195   8.709   8.908  0.7023 -0.6835  0.0439
  391MOL0     H52740  10.035   8.673   8.838 -0.9924 -1.1611 -1.5435
  391MOL0     H52741  10.284   8.515   8.794  0.9833  1.9738  0.9477
  391MOL0     H52742  10.129   8.483   8.701 -1.0258 -2.6257  1.5048
  391MOL0     H52743  10.183   8.327   8.885  0.5632  0.6286  1.4016
  391MOL0     H52744  10.024   8.402   8.891 -0.2735  1.5402 -1.5212
  391MOL0     H52745   9.986   8.265   9.065  1.3702  0.8922 -1.3529
  391MOL0     H52746   9.833   8.237   9.250 -0.0579 -0.7871 -0.5717
  391MOL0     H52747   9.719   8.269   9.709  1.8474  0.9002 -1.4862
  391MOL0     H52748   9.541   8.263   9.858 -1.7795  1.2399 -1.6742
  391MOL0     H52749   9.557   8.576  10.080  0.8050  1.0080  0.8490
  391MOL0     H52750   9.388   8.592  10.134 -2.8455  0.0387 -4.5443
  391MOL0     H52751   9.548   8.330  10.177  1.7234  2.3026 -2.5937
  391MOL0     H52752   9.550   8.460  10.280 -1.1780 -0.3648  1.8577
  391MOL0     H52753   9.315   8.454  10.328 -0.6467  0.2250 -0.5460
  391MOL0     H52754   9.288   8.312  10.215  0.4832 -0.4628  0.6636
  391MOL0     H52755   9.428   8.175  10.349 -0.8053  0.4294 -1.5406
  391MOL0     H52756   9.295   8.236  10.438  0.2507 -2.0744  0.8217
  391MOL0     H52757   9.425   8.404  10.567  0.8061  1.2711 -1.2622
  391MOL0     H52758   9.559   8.385  10.459  0.4523 -1.2601 -2.9364
  391MOL0     H52759   9.595   8.166  10.558 -0.5898  0.7019  0.4660
  391MOL0     H52760   9.592   8.299  10.672 -0.8970  3.5364 -1.2124
  391MOL0     H52761   9.465   8.091  10.758 -0.4522  0.0634  1.1899
  391MOL0     H52762   9.358   8.100  10.622 -1.0117 -0.1071  3.3171
  391MOL0     H52763   9.268   8.328  10.710  0.2383  0.3894  0.3897
  391MOL0     H52764   9.287   8.213  10.853 -1.1873 -2.2505 -1.9310
  391MOL0     H52765   9.480   8.684   9.812  0.4950 -0.3844  0.9040
  391MOL0     H52766   9.652   8.684   9.644 -3.2179  2.1778  0.9089
  391MOL0     H52767   9.978   8.578   9.441 -0.6836  0.5693  0.0421
  391MOL0     H52768  10.151   8.615   9.249 -0.6062  0.4486  1.7591
  391MOL0     H52769   9.662   9.333   9.470  0.3454 -0.6145  2.5470
  391MOL0     H52770   9.444   9.399   9.558 -0.6944  0.7852 -2.3808
  391MOL0     H52771   9.159   9.743   9.766 -0.4837  0.8735 -0.2136
  391MOL0     H52772   8.930   9.714   9.849 -0.5747 -0.1557  0.7342
  391MOL0     H52773   8.641   9.622   9.649 -0.8630  2.9931  0.1988
  391MOL0     H52774   8.666   9.689   9.809 -3.9719  1.2010  0.0841
  391MOL0     H52775   8.433   9.565   9.770  0.4912  1.2712  1.8312
  391MOL0     H52776   8.522   9.509   9.898  2.0018  4.3053  0.4012
  391MOL0     H52777   8.572   9.299   9.789  1.0064 -0.7949 -0.1886
  391MOL0     H52778   8.585   9.365   9.630  2.7632  2.2029  1.8650
  391MOL0     H52779   8.394   9.205   9.684 -0.5487 -0.7755 -1.1679
  391MOL0     H52780   8.318   9.338   9.773  1.2751  1.3204 -0.1646
  391MOL0     H52781   8.288   9.463   9.367 -2.7558  2.7273  2.4623
  391MOL0     H52782   8.847   9.420   9.553 -0.9798  1.1276 -0.1636
  391MOL0     H52783   9.130   9.325   9.438 -0.6910 -0.9939  0.6080
  391MOL0     H52784   8.982   9.391   9.372 -1.5845  3.0816  2.0328
  391MOL0     H52785   9.125   9.486   9.357 -2.4916  1.3496 -0.6246
  392MOL0     O52786   1.531   6.444   2.035  0.2510  0.2005  1.1649
  392MOL0     C52787   1.533   6.342   1.964  0.1761 -0.2337 -0.4714
  392MOL0     O52788   1.431   6.307   1.878 -0.5274  0.4920  0.3958
  392MOL0     C52789   1.333   6.398   1.860 -1.0347  1.0935 -0.4767
  392MOL0     C52790   1.314   6.467   1.743  0.2849  0.2373 -0.3788
  392MOL0     C52791   1.191   6.545   1.719  1.0118 -0.4947  0.1346
  392MOL0     C52792   1.094   6.566   1.822  0.2160 -0.4341  0.1396
  392MOL0     O52793   0.981   6.641   1.804 -0.5753 -0.1314 -0.4931
  392MOL0     C52794   0.992   6.772   1.856  0.2513  0.8286  0.1968
  392MOL0     C52795   0.868   6.858   1.815 -0.3395 -1.0937 -0.3207
  392MOL0     C52796   0.748   6.796   1.883 -0.3783  0.4720 -0.1178
  392MOL0     C52797   0.629   6.872   1.860 -0.5658  0.7956 -0.2438
  392MOL0     C52798   0.512   6.811   1.945  0.3150 -0.6416  0.0835
  392MOL0     C52799   0.373   6.797   1.868 -0.1065 -0.9898 -0.7274
  392MOL0     C52800   0.325   6.939   1.818 -0.6309  0.0350 -0.0050
  392MOL0     C52801   0.281   7.037   1.925 -0.0082  0.2668  1.0436
  392MOL0     N52802   0.183   6.973   2.011 -0.3297 -0.8432 -0.4805
  392MOL0     C52803   0.049   6.937   1.982 -0.1197  0.8150 -0.5028
  392MOL0     C52804   0.003   6.880   2.094 -0.3578 -0.1583  1.0766
  392MOL0     C52805  -0.132   6.807   2.083 -0.0413 -1.1833  0.5431
  392MOL0     C52806  -0.133   6.662   2.052  0.7215  0.0201 -0.0833
  392MOL0     C52807  -0.180   6.578   2.175 -0.0653 -0.7335 -0.2531
  392MOL0     C52808  -0.189   6.430   2.140 -0.3850 -0.7968 -0.5719
  392MOL0     O52809  -0.216   6.372   2.267 -0.3311  0.1265 -0.1146
  392MOL0     C52810  -0.217   6.234   2.275  0.3785  0.2772 -0.3089
  392MOL0     C52811  -0.199   6.152   2.160 -0.1346  0.4714  0.5150
  392MOL0     C52812  -0.234   6.018   2.154 -0.1812  0.3414  0.4818
  392MOL0     C52813  -0.280   5.960   2.273  0.2549 -0.1103 -0.1965
  392MOL0     C52814  -0.310   5.813   2.273 -0.6416 -0.7514 -0.3577
  392MOL0     O52815  -0.341   5.746   2.158  0.0469  0.4405 -0.5609
  392MOL0     C52816  -0.396   5.617   2.156  0.4313 -0.4682 -0.1967
  392MOL0     C52817  -0.447   5.537   2.260  0.4896  0.4109 -0.0896
  392MOL0     C52818  -0.496   5.407   2.234  0.3408  0.3009  0.0573
  392MOL0     C52819  -0.481   5.349   2.109  0.2001 -0.4541  0.3999
  392MOL0     O52820  -0.521   5.223   2.076 -0.2087  0.4392  0.4149
  392MOL0     C52821  -0.597   5.152   2.179 -0.6995  0.6650  0.0839
  392MOL0     C52822  -0.620   5.010   2.120 -0.4977  1.0705  0.6214
  392MOL0     C52823  -0.641   4.899   2.224  0.9278 -0.9077  0.5623
  392MOL0     C52824  -0.537   4.791   2.213  0.0448  0.7266  0.0336
  392MOL0     C52825  -0.574   4.657   2.287 -0.6989 -0.1262  1.1876
  392MOL0     C52826  -0.655   4.671   2.407 -0.3310 -0.3274 -0.4143
  392MOL0     C52827  -0.642   4.549   2.502 -0.1966 -0.7380  0.5181
  392MOL0     C52828  -0.649   4.408   2.429 -0.2950 -1.4070 -0.4533
  392MOL0    Cl52829  -0.689   4.271   2.539 -0.0523  0.1155  0.3473
  392MOL0     C52830  -0.418   5.423   2.007  1.1221 -0.6667 -0.2953
  392MOL0     C52831  -0.387   5.558   2.036 -0.6127  0.2342  0.7759
  392MOL0     O52832  -0.307   5.770   2.387  0.4273  0.3837  0.8805
  392MOL0     C52833  -0.290   6.033   2.396  0.0817  0.3030  0.0256
  392MOL0     C52834  -0.244   6.168   2.393 -0.6393  0.9962 -0.8085
  392MOL0     N52835   0.098   6.889   2.191  0.7050  0.4809 -0.1639
  392MOL0     N52836   0.206   6.934   2.141 -0.4048 -0.3473 -0.2844
  392MOL0     C52837   1.113   6.485   1.934  0.3769  0.3054 -0.8016
  392MOL0     C52838   1.217   6.391   1.950 -0.4276  0.7907  0.6430
  392MOL0     C52839   1.642   6.248   1.973 -0.2656  1.4744  0.2444
  392MOL0     C52840   1.621   6.122   1.926  0.1130 -0.1294  0.4814
  392MOL0     C52841   1.715   6.023   1.909  0.1316  0.6564  0.0938
  392MOL0     C52842   1.835   6.030   1.984  0.0098 -0.8329 -0.0738
  392MOL0     O52843   1.905   5.917   1.994  0.2224  0.4928 -0.0230
  392MOL0     C52844   2.012   5.919   2.083 -0.2830  0.3084 -0.6834
  392MOL0     C52845   2.106   5.783   2.089  0.2345  0.3095  0.2094
  392MOL0     C52846   2.251   5.804   2.134 -0.4300  0.0399 -0.3131
  392MOL0     C52847   2.268   5.778   2.280  0.8194 -0.7712  0.7351
  392MOL0     C52848   2.199   5.881   2.354 -0.0456  0.3669 -0.0320
  392MOL0     C52849   2.147   5.981   2.404 -1.1888  0.4384  0.1580
  392MOL0     C52850   1.856   6.148   2.053 -1.0458 -0.0141 -0.2912
  392MOL0     C52851   1.770   6.256   2.043 -0.0996 -0.6245 -0.4770
  392MOL0     C52852   1.807   6.374   2.123  0.2390 -0.6213  0.1746
  392MOL0     H52853   1.388   6.466   1.664  2.3634  0.2371  1.4644
  392MOL0     H52854   1.175   6.600   1.627  1.3593 -0.1718  0.2618
  392MOL0     H52855   1.010   6.769   1.963  2.3231  1.9746 -0.0714
  392MOL0     H52856   1.072   6.823   1.801 -1.0993  0.6780 -2.0718
  392MOL0     H52857   0.854   6.852   1.707  0.0053 -1.5259 -0.3482
  392MOL0     H52858   0.887   6.958   1.855  1.8458 -0.9068 -1.6230
  392MOL0     H52859   0.757   6.796   1.992 -1.5442  1.4648  0.0075
  392MOL0     H52860   0.735   6.692   1.853  1.4219 -0.4149  1.9366
  392MOL0     H52861   0.638   6.981   1.866  0.1749  0.6929  0.8062
  392MOL0     H52862   0.611   6.859   1.753  3.8146 -0.2508 -1.0557
  392MOL0     H52863   0.541   6.708   1.968  5.4864  0.1247 -1.7219
  392MOL0     H52864   0.498   6.861   2.041 -0.0241  1.9402 -1.2216
  392MOL0     H52865   0.392   6.744   1.775 -3.2804 -0.3082 -1.8955
  392MOL0     H52866   0.290   6.740   1.910 -1.7493  2.1468  0.6549
  392MOL0     H52867   0.249   6.910   1.744 -0.9911 -2.9546  1.3609
  392MOL0     H52868   0.407   6.989   1.766 -0.5839 -0.7382 -0.6861
  392MOL0     H52869   0.357   7.084   1.988 -1.7960  2.6460  1.5646
  392MOL0     H52870   0.225   7.121   1.883 -0.0867 -0.6619 -0.8292
  392MOL0     H52871   0.011   6.940   1.881  0.0163 -1.1701 -0.6441
  392MOL0     H52872  -0.187   6.827   2.176 -3.1607  0.5347 -1.5180
  392MOL0     H52873  -0.188   6.861   2.007  0.1445  1.0963  1.9437
  392MOL0     H52874  -0.208   6.644   1.974  3.6070 -0.8822 -2.8765
  392MOL0     H52875  -0.033   6.623   2.030  0.9854  1.2345 -1.1173
  392MOL0     H52876  -0.281   6.614   2.193 -1.3216 -2.8582 -2.4834
  392MOL0     H52877  -0.120   6.597   2.264 -3.6351 -1.2710  2.4639
  392MOL0     H52878  -0.101   6.391   2.088  0.0754 -0.1977 -0.2604
  392MOL0     H52879  -0.274   6.425   2.071 -1.0301  0.3930  0.0894
  392MOL0     H52880  -0.183   6.208   2.068  2.1013  4.2946  2.9809
  392MOL0     H52881  -0.240   5.949   2.071  0.9382  1.8237 -0.8763
  392MOL0     H52882  -0.434   5.567   2.364  1.5245  0.1970 -0.1443
  392MOL0     H52883  -0.535   5.367   2.326 -0.3163 -0.2194 -0.4376
  392MOL0     H52884  -0.536   5.152   2.270  0.5495  0.7496 -0.7209
  392MOL0     H52885  -0.696   5.194   2.199 -0.8956 -0.9056  2.8844
  392MOL0     H52886  -0.709   5.012   2.056  0.1279 -3.4171 -0.7741
  392MOL0     H52887  -0.528   4.984   2.067 -1.5302  0.0683 -0.7557
  392MOL0     H52888  -0.629   4.940   2.325  1.2865 -0.3785  0.3071
  392MOL0     H52889  -0.741   4.865   2.196  1.3579  0.2458 -2.8874
  392MOL0     H52890  -0.432   4.822   2.222  0.0387  0.9843 -0.7135
  392MOL0     H52891  -0.556   4.762   2.109 -0.2887  1.9270 -0.2478
  392MOL0     H52892  -0.481   4.603   2.308  1.0595  0.9512 -2.7980
  392MOL0     H52893  -0.634   4.592   2.223  1.7198 -1.0565 -0.2983
  392MOL0     H52894  -0.632   4.765   2.457  2.9865 -1.4168  0.3589
  392MOL0     H52895  -0.762   4.672   2.380 -0.6078  0.6663  0.6679
  392MOL0     H52896  -0.716   4.567   2.581 -2.2277  0.7810 -1.5975
  392MOL0     H52897  -0.541   4.549   2.544 -0.4383  0.5054  1.1620
  392MOL0     H52898  -0.722   4.415   2.348 -1.8456  2.7368  1.0579
  392MOL0     H52899  -0.552   4.386   2.383 -1.3697 -0.8628 -3.1576
  392MOL0     H52900  -0.399   5.370   1.914  1.5848  0.3106 -0.7734
  392MOL0     H52901  -0.337   5.605   1.952 -1.7733 -0.7479 -0.5048
  392MOL0     H52902  -0.335   5.998   2.489 -0.2275 -1.0400 -0.6040
  392MOL0     H52903  -0.251   6.228   2.484  1.4540  1.8149 -1.1273
  392MOL0     H52904   1.039   6.496   2.012  1.8752  1.8863  0.4961
  392MOL0     H52905   1.220   6.313   2.025  1.1436 -0.6191 -0.7914
  392MOL0     H52906   1.525   6.108   1.876  0.6354  1.2590 -1.0284
  392MOL0     H52907   1.673   5.940   1.853  0.7463 -0.3039  1.0158
  392MOL0     H52908   1.979   5.932   2.187 -1.4000 -0.1297 -0.9649
  392MOL0     H52909   2.077   6.003   2.055 -2.8595  3.3454  1.6496
  392MOL0     H52910   2.105   5.728   1.994  1.5315 -3.0436  1.9724
  392MOL0     H52911   2.055   5.712   2.154 -2.5145 -1.6737 -3.7203
  392MOL0     H52912   2.288   5.905   2.111 -0.6123  0.5567  1.4586
  392MOL0     H52913   2.314   5.739   2.073 -0.6995 -1.1554  0.6405
  392MOL0     H52914   2.216   5.683   2.296 -4.7121  1.5019 -1.5210
  392MOL0     H52915   2.375   5.770   2.305  0.9975  1.5988  0.9425
  392MOL0     H52916   2.095   6.052   2.465 -0.7264  2.2055 -1.4091
  392MOL0     H52917   1.943   6.152   2.119 -1.4031  1.7384  0.1078
  392MOL0     H52918   1.786   6.474   2.084  0.5458  0.2181  2.0576
  392MOL0     H52919   1.751   6.367   2.217  0.0732  0.4237  0.1703
  392MOL0     H52920   1.913   6.362   2.147  0.4153  1.3242  0.5271
  393MOL0     O52921   2.394  11.083  11.006  0.2915 -0.4495  0.8084
  393MOL0     C52922   2.296  11.107  10.932 -0.0054 -0.4597 -0.5234
  393MOL0     O52923   2.177  11.159  10.983 -0.1219 -0.2121  0.1803
  393MOL0     C52924   2.172  11.195  11.111 -0.3665  0.1849 -0.3048
  393MOL0     C52925   2.182  11.104  11.216  0.8366  0.2447 -0.5219
  393MOL0     C52926   2.154  11.143  11.349 -0.1160 -0.6042  0.3694
  393MOL0     C52927   2.121  11.278  11.377  0.1384 -0.1751  0.7380
  393MOL0     O52928   2.078  11.322  11.497 -0.8104 -0.5298 -0.4731
  393MOL0     C52929   2.168  11.291  11.609  0.7420  0.3230  0.2631
  393MOL0     C52930   2.150  11.378  11.737 -0.0528  0.0692 -0.7536
  393MOL0     C52931   2.025  11.331  11.810 -0.6077  0.1420  0.1496
  393MOL0     C52932   2.047  11.339  11.950 -1.6226  0.0836 -0.2529
  393MOL0     C52933   1.925  11.302  12.037  1.0234 -0.2627  0.0121
  393MOL0     C52934   1.927  11.358  12.173  0.3024 -0.2729 -0.5893
  393MOL0     C52935   1.832  11.290  12.283 -1.2659 -1.1269  0.3625
  393MOL0     C52936   1.693  11.285  12.221 -0.9495  0.7383  0.3060
  393MOL0     N52937   1.593  11.260  12.321 -0.3039 -0.1959 -0.4081
  393MOL0     C52938   1.531  11.140  12.339 -0.3575 -0.1392 -0.3373
  393MOL0     C52939   1.437  11.169  12.440 -0.4475  0.6123  0.6302
  393MOL0     C52940   1.331  11.070  12.486 -0.0941 -0.0771  0.2954
  393MOL0     C52941   1.196  11.135  12.507  0.3520 -0.6738  0.5191
  393MOL0     C52942   1.092  11.031  12.509  0.3715  0.1100  0.4494
  393MOL0     C52943   0.950  11.094  12.528  0.6863 -0.0808  0.0058
  393MOL0     O52944   0.917  11.201  12.443 -0.5013 -0.8633 -0.0795
  393MOL0     C52945   0.789  11.244  12.441  0.5552 -0.7556  0.0151
  393MOL0     C52946   0.679  11.198  12.513 -0.7191 -0.7699 -0.4446
  393MOL0     C52947   0.553  11.246  12.498 -0.0210  0.1850 -0.7418
  393MOL0     C52948   0.526  11.347  12.413 -0.4614 -0.4132 -0.4393
  393MOL0     C52949   0.375  11.383  12.381  1.3529  0.5847  0.3612
  393MOL0     O52950   0.337  11.499  12.317 -0.2296 -0.0857 -0.3903
  393MOL0     C52951   0.207  11.533  12.292  0.2674 -0.4020  0.3585
  393MOL0     C52952   0.098  11.542  12.387  0.1841 -0.1179  0.0023
  393MOL0     C52953  -0.025  11.594  12.358  0.0408  1.3623  0.0246
  393MOL0     C52954  -0.044  11.635  12.230 -0.4234 -0.2956  0.5183
  393MOL0     O52955  -0.156  11.707  12.213  0.4326 -0.1147 -0.2115
  393MOL0     C52956  -0.210  11.715  12.084  0.2855  1.0470  0.3829
  393MOL0     C52957  -0.368  11.739  12.090 -0.5297  0.5154 -0.6842
  393MOL0     C52958  -0.403  11.881  12.116  0.8195  0.6779 -0.0774
  393MOL0     C52959  -0.555  11.911  12.098  0.0601 -0.1734 -0.7612
  393MOL0     C52960  -0.635  11.813  12.190  0.0283  0.2150  0.6889
  393MOL0     C52961  -0.774  11.864  12.183  0.8915 -0.3063  0.3797
  393MOL0     C52962  -0.871  11.749  12.241 -0.0690  0.1502 -0.7570
  393MOL0     C52963  -1.015  11.800  12.227 -0.6066  0.4283  0.4054
  393MOL0    Cl52964  -1.136  11.695  12.307 -0.0979  0.2350 -0.6882
  393MOL0     C52965   0.060  11.628  12.127 -0.6116 -0.2178 -0.1348
  393MOL0     C52966   0.183  11.573  12.166  0.5062  0.3355  0.9550
  393MOL0     O52967   0.305  11.292  12.422 -0.0332  0.2169 -0.2792
  393MOL0     C52968   0.632  11.403  12.356  0.2558 -0.3326  0.6360
  393MOL0     C52969   0.756  11.351  12.361  0.1494 -0.0887  0.8559
  393MOL0     N52970   1.459  11.296  12.492 -0.5768 -0.6258 -0.3046
  393MOL0     N52971   1.555  11.351  12.423 -0.5323 -0.2102 -0.3343
  393MOL0     C52972   2.114  11.367  11.279  0.6504  0.1649  0.5947
  393MOL0     C52973   2.129  11.325  11.151 -0.7098 -0.7197 -0.7881
  393MOL0     C52974   2.301  11.076  10.782 -0.2489  0.1985  0.7505
  393MOL0     C52975   2.431  11.049  10.730 -0.5107  0.4517 -0.1085
  393MOL0     C52976   2.446  11.011  10.592 -0.1020  1.2243  0.2491
  393MOL0     C52977   2.329  10.985  10.513 -0.1514  0.0731  0.6737
  393MOL0     O52978   2.335  10.960  10.379  0.4469 -0.1475  0.0946
  393MOL0     C52979   2.387  11.069  10.299  0.0046 -0.2096  0.0755
  393MOL0     C52980   2.370  11.048  10.142  1.2865  0.6899  0.4177
  393MOL0     C52981   2.233  11.021  10.096  0.5113 -0.5190  0.3263
  393MOL0     C52982   2.123  11.112  10.150 -0.2234  0.3664  0.3558
  393MOL0     C52983   2.153  11.251  10.126  1.0304 -0.3703 -0.1091
  393MOL0     C52984   2.182  11.365  10.101  0.2106  0.3424  0.3969
  393MOL0     C52985   2.204  10.989  10.572  0.0989 -0.3754  0.2580
  393MOL0     C52986   2.188  11.045  10.700  0.3262  0.2969 -0.9385
  393MOL0     C52987   2.040  11.062  10.748 -0.6207 -0.5524  0.0531
  393MOL0     H52988   2.200  10.999  11.191 -0.7757  0.5308 -3.2423
  393MOL0     H52989   2.144  11.065  11.423 -0.4133 -2.4680 -1.5373
  393MOL0     H52990   2.155  11.188  11.641 -2.2570  0.6871  0.4919
  393MOL0     H52991   2.273  11.300  11.577  1.1507  1.0507  1.7147
  393MOL0     H52992   2.153  11.483  11.707 -2.1194  0.3599 -0.0589
  393MOL0     H52993   2.241  11.355  11.795  0.2486 -0.4354 -1.4199
  393MOL0     H52994   2.012  11.226  11.781  2.8924 -1.3228  3.1184
  393MOL0     H52995   1.943  11.389  11.766  1.4315  0.8345 -3.1328
  393MOL0     H52996   2.132  11.273  11.970  0.6695  2.4675 -1.5321
  393MOL0     H52997   2.071  11.442  11.979 -1.1356  0.2060 -1.0688
  393MOL0     H52998   1.844  11.354  11.985  0.4942 -2.8912 -2.0368
  393MOL0     H52999   1.899  11.195  12.032 -1.4592  0.3441 -3.3177
  393MOL0     H53000   2.027  11.353  12.216 -0.9723 -3.5189  2.4683
  393MOL0     H53001   1.891  11.461  12.164 -0.4356 -0.3399  1.2156
  393MOL0     H53002   1.832  11.370  12.358 -1.9262  0.7757 -1.5628
  393MOL0     H53003   1.877  11.197  12.319  2.2449  0.7547  1.4128
  393MOL0     H53004   1.674  11.379  12.169 -1.1438 -0.1147 -1.2259
  393MOL0     H53005   1.689  11.205  12.147 -1.2777 -0.0860  1.1889
  393MOL0     H53006   1.538  11.043  12.292 -0.3180  0.0431 -0.7156
  393MOL0     H53007   1.324  10.997  12.405  1.1319  0.6601 -0.5141
  393MOL0     H53008   1.362  11.019  12.577 -0.0991  1.1992  1.0459
  393MOL0     H53009   1.206  11.190  12.601 -3.0275 -0.5594  0.9345
  393MOL0     H53010   1.175  11.203  12.425  1.4481 -1.6194 -0.5736
  393MOL0     H53011   1.110  10.947  12.578 -2.4380 -1.9517 -1.1333
  393MOL0     H53012   1.097  10.968  12.420 -0.9658  1.6299 -0.7562
  393MOL0     H53013   0.971  11.144  12.623  3.7040  2.3346 -1.7372
  393MOL0     H53014   0.868  11.022  12.534 -1.6094  2.1635 -1.9416
  393MOL0     H53015   0.694  11.130  12.597 -1.0750 -2.1277 -1.4412
  393MOL0     H53016   0.470  11.195  12.546  1.5523 -1.1390  0.6912
  393MOL0     H53017   0.121  11.504  12.486  2.2666 -3.5031 -1.5866
  393MOL0     H53018  -0.107  11.603  12.429 -0.5690 -2.7687  0.0912
  393MOL0     H53019  -0.160  11.801  12.038  0.1213  0.1392 -1.5931
  393MOL0     H53020  -0.186  11.623  12.029 -1.2081 -0.3198  1.9062
  393MOL0     H53021  -0.405  11.696  11.996 -4.2959 -3.3141  2.1940
  393MOL0     H53022  -0.413  11.683  12.172  1.9398  0.4622  0.7227
  393MOL0     H53023  -0.360  11.914  12.211  3.7607  0.2748 -1.1745
  393MOL0     H53024  -0.358  11.946  12.041  3.4442 -3.2104 -2.2108
  393MOL0     H53025  -0.588  11.911  11.994 -1.6647  1.7636 -0.2845
  393MOL0     H53026  -0.571  12.013  12.135 -1.8749 -1.1426  1.3408
  393MOL0     H53027  -0.608  11.818  12.296 -0.3056  3.1179  0.7256
  393MOL0     H53028  -0.622  11.712  12.151  2.8246  1.6219 -2.4414
  393MOL0     H53029  -0.780  11.959  12.238  1.3942  1.1765 -1.9679
  393MOL0     H53030  -0.809  11.899  12.086  0.1052 -0.5099  0.5889
  393MOL0     H53031  -0.860  11.724  12.347 -0.5721  1.1597 -0.4555
  393MOL0     H53032  -0.847  11.668  12.172  2.1019 -0.0762  0.1547
  393MOL0     H53033  -1.014  11.902  12.266  1.5273  0.7332 -0.3018
  393MOL0     H53034  -1.042  11.792  12.121 -4.0098 -2.5687  1.3047
  393MOL0     H53035   0.054  11.657  12.023 -0.0684 -1.0266 -0.3960
  393MOL0     H53036   0.268  11.577  12.099  1.7157  0.9967  2.4576
  393MOL0     H53037   0.586  11.483  12.300 -2.0898 -2.1174 -0.1440
  393MOL0     H53038   0.835  11.394  12.300  2.4736 -0.7489  3.1980
  393MOL0     H53039   2.076  11.465  11.304  3.2246  0.5476  3.7343
  393MOL0     H53040   2.120  11.392  11.066 -1.7891 -0.5653 -0.5693
  393MOL0     H53041   2.519  11.057  10.793 -1.5080 -1.5714  1.6775
  393MOL0     H53042   2.549  10.987  10.569 -0.2500 -3.5235  3.1774
  393MOL0     H53043   2.492  11.092  10.319 -0.2669  1.2488 -0.0996
  393MOL0     H53044   2.329  11.157  10.326 -0.4798 -1.5675  4.1060
  393MOL0     H53045   2.436  10.963  10.119  0.6162  1.1220 -3.8220
  393MOL0     H53046   2.403  11.137  10.088  1.2811  1.2605  1.3401
  393MOL0     H53047   2.192  10.923  10.122  1.1789 -1.5091 -2.0925
  393MOL0     H53048   2.233  11.027   9.987 -1.0582  0.1291  0.3287
  393MOL0     H53049   2.026  11.093  10.102 -0.2833  2.1207 -0.2672
  393MOL0     H53050   2.103  11.102  10.257  0.8107 -0.1797  0.5110
  393MOL0     H53051   2.197  11.468  10.077 -1.1631 -0.0450 -2.6304
  393MOL0     H53052   2.121  10.960  10.508 -1.5088  1.4441  1.3932
  393MOL0     H53053   2.032  11.171  10.761  3.2851  0.1143 -1.5331
  393MOL0     H53054   1.967  11.022  10.679 -0.3403 -2.6559  0.9117
  393MOL0     H53055   2.037  11.021  10.849  2.4897  0.5609  0.7355
  394MOL0     O53056   3.685  11.192   9.516  1.2171 -0.7662  1.4004
  394MOL0     C53057   3.671  11.234   9.632  1.1541 -0.9525  0.1001
  394MOL0     O53058   3.733  11.185   9.746 -0.0797  0.7713 -0.4646
  394MOL0     C53059   3.805  11.070   9.728 -1.4193  0.1172 -0.1649
  394MOL0     C53060   3.947  11.075   9.761 -0.6343 -0.5750 -0.3720
  394MOL0     C53061   4.022  10.961   9.757  0.2125  0.5700 -0.7097
  394MOL0     C53062   3.952  10.838   9.733 -0.4117 -0.3092  0.5769
  394MOL0     O53063   4.038  10.730   9.750  0.1006  0.2414  0.1843
  394MOL0     C53064   3.999  10.602   9.696 -0.4403  0.5760 -0.0054
  394MOL0     C53065   4.120  10.512   9.736  0.7088  0.5031 -0.6516
  394MOL0     C53066   4.086  10.367   9.756  0.8974  0.9880 -0.0129
  394MOL0     C53067   4.071  10.297   9.619 -0.6866 -0.0265 -0.3767
  394MOL0     C53068   4.044  10.145   9.647  0.2059  0.4014  0.4984
  394MOL0     C53069   4.159  10.062   9.710  0.4653  0.4393  0.4996
  394MOL0     C53070   4.127   9.910   9.682  0.0152  0.3439  1.1506
  394MOL0     C53071   4.234   9.830   9.757  0.4152  0.0769 -0.4763
  394MOL0     N53072   4.197   9.687   9.740  0.8204  0.2303  0.3742
  394MOL0     C53073   4.151   9.620   9.844  0.6599 -0.0470 -0.1103
  394MOL0     C53074   4.169   9.496   9.802 -0.4957  0.4993 -0.4026
  394MOL0     C53075   4.140   9.367   9.874 -0.4865 -0.8348 -0.3646
  394MOL0     C53076   4.151   9.403  10.027  0.8101 -0.6281 -0.0313
  394MOL0     C53077   4.108   9.278  10.115 -0.6023  0.2667  0.9038
  394MOL0     C53078   4.135   9.307  10.261  0.5854 -0.0441 -0.0038
  394MOL0     O53079   4.090   9.210  10.355  0.3117  0.5655 -0.5317
  394MOL0     C53080   4.154   9.084  10.349  0.2794 -0.1472 -0.0430
  394MOL0     C53081   4.274   9.054  10.286  1.1668  0.2492 -0.9463
  394MOL0     C53082   4.338   8.927  10.294 -0.4331  0.0004 -0.3663
  394MOL0     C53083   4.292   8.829  10.374 -0.2114  0.2241 -0.0156
  394MOL0     C53084   4.372   8.692  10.389  0.2094 -1.0194  0.9148
  394MOL0     O53085   4.471   8.668  10.295  0.3948  0.6705  0.4736
  394MOL0     C53086   4.574   8.574  10.308  1.1278 -0.2902  0.5988
  394MOL0     C53087   4.623   8.486  10.412  0.4273  0.4258  0.1530
  394MOL0     C53088   4.732   8.404  10.401 -0.3454 -0.0401  0.1294
  394MOL0     C53089   4.797   8.396  10.272  0.7633 -0.5139  0.4675
  394MOL0     O53090   4.910   8.321  10.255  0.5694  0.5010  0.4151
  394MOL0     C53091   4.921   8.199  10.336  0.8635  0.2511  0.0326
  394MOL0     C53092   4.857   8.094  10.261 -0.7847  0.8677  0.0271
  394MOL0     C53093   4.850   7.964  10.331  0.8767 -0.2178 -0.3205
  394MOL0     C53094   4.980   7.902  10.364 -0.6677 -0.5422  0.7588
  394MOL0     C53095   4.978   7.765  10.433  0.8338 -0.7821 -0.7875
  394MOL0     C53096   5.116   7.719  10.439 -0.2323 -0.1932  0.6881
  394MOL0     C53097   5.140   7.587  10.516  0.6294 -0.3684  0.5581
  394MOL0     C53098   5.073   7.579  10.648  0.3829 -0.6665 -0.0886
  394MOL0    Cl53099   5.134   7.437  10.742 -0.3142 -0.3414 -0.1739
  394MOL0     C53100   4.753   8.480  10.174 -0.0721  0.6713  0.6903
  394MOL0     C53101   4.642   8.561  10.184  0.3359 -0.2798 -0.2855
  394MOL0     O53102   4.349   8.615  10.482  0.3797  1.0225 -0.3123
  394MOL0     C53103   4.166   8.852  10.434  0.4694 -1.0332 -1.0915
  394MOL0     C53104   4.088   8.977  10.420 -0.4887 -0.0449 -0.0727
  394MOL0     N53105   4.209   9.500   9.670 -0.5277  0.8788  0.3154
  394MOL0     N53106   4.234   9.615   9.637  0.7568  0.0773  0.5637
  394MOL0     C53107   3.830  10.834   9.681  0.9958 -0.5246  0.0055
  394MOL0     C53108   3.749  10.950   9.688  0.4118 -0.5732  1.2118
  394MOL0     C53109   3.590  11.357   9.640 -0.1440 -0.1770 -0.3135
  394MOL0     C53110   3.628  11.464   9.722 -0.2733  0.4007  0.2892
  394MOL0     C53111   3.571  11.591   9.725 -0.1608 -0.2688  0.2876
  394MOL0     C53112   3.482  11.628   9.625 -0.2555  0.6327 -0.0330
  394MOL0     O53113   3.435  11.767   9.608  0.1153 -0.6414 -0.5306
  394MOL0     C53114   3.345  11.813   9.504 -0.2045  0.3902  0.7597
  394MOL0     C53115   3.206  11.764   9.524 -0.6168 -0.1163 -0.9172
  394MOL0     C53116   3.108  11.813   9.416 -0.1770 -0.8968 -0.5311
  394MOL0     C53117   3.058  11.962   9.436 -0.3926 -0.6062  0.5586
  394MOL0     C53118   2.992  11.982   9.558 -0.0698 -0.3810 -0.1389
  394MOL0     C53119   2.949  11.995   9.674  0.2330  0.0585  0.6310
  394MOL0     C53120   3.436  11.518   9.547  0.0400  0.2161 -0.4291
  394MOL0     C53121   3.470  11.384   9.566 -0.2634  0.6231  0.0454
  394MOL0     C53122   3.395  11.284   9.486  0.0986 -0.4616  0.6093
  394MOL0     H53123   3.990  11.170   9.791  1.7295 -0.4369 -3.5966
  394MOL0     H53124   4.126  10.966   9.788  0.9130 -0.4159 -2.7333
  394MOL0     H53125   3.905  10.555   9.725 -0.0811 -0.6259 -0.7194
  394MOL0     H53126   3.991  10.607   9.587 -3.8201 -1.6088 -0.0006
  394MOL0     H53127   4.151  10.546   9.835  2.0965 -0.5550 -0.6940
  394MOL0     H53128   4.202  10.536   9.669  2.4179 -1.1010  0.7701
  394MOL0     H53129   3.994  10.353   9.813  2.0996  1.6269  2.1897
  394MOL0     H53130   4.161  10.322   9.822 -0.6175 -1.0621  0.4084
  394MOL0     H53131   3.982  10.341   9.572 -1.8227 -1.7527  0.0465
  394MOL0     H53132   4.150  10.299   9.544 -2.5062 -1.0948 -2.4261
  394MOL0     H53133   3.956  10.143   9.711  0.0528 -0.8578  0.2753
  394MOL0     H53134   4.021  10.108   9.546  0.1304  0.2858  0.5573
  394MOL0     H53135   4.244  10.092   9.648 -0.1393  3.6154  1.0018
  394MOL0     H53136   4.179  10.082   9.816  1.5709 -1.4749  0.6973
  394MOL0     H53137   4.141   9.887   9.576  2.5997 -0.5587  1.6105
  394MOL0     H53138   4.022   9.897   9.707 -0.6812  0.7062 -1.2677
  394MOL0     H53139   4.327   9.855   9.705  2.5820 -0.3507  2.9083
  394MOL0     H53140   4.246   9.856   9.862  2.7230 -1.1243 -0.3680
  394MOL0     H53141   4.132   9.671   9.938 -0.7999 -2.2927  0.9053
  394MOL0     H53142   4.041   9.330   9.848 -0.9010  1.0904 -1.7165
  394MOL0     H53143   4.222   9.298   9.848 -0.4844  0.3814 -4.1932
  394MOL0     H53144   4.255   9.433  10.042  0.7038 -0.1221 -0.3094
  394MOL0     H53145   4.087   9.487  10.054 -3.3009 -3.8141  1.1737
  394MOL0     H53146   4.166   9.194  10.075  0.9024  2.2484 -1.3257
  394MOL0     H53147   4.004   9.244  10.105  0.0814 -2.6173  2.3542
  394MOL0     H53148   4.079   9.396  10.291  0.7163  0.0706 -0.0992
  394MOL0     H53149   4.234   9.345  10.285  0.6544 -0.9805  1.3100
  394MOL0     H53150   4.314   9.119  10.209 -1.3673  0.8891 -1.8298
  394MOL0     H53151   4.420   8.894  10.231 -0.3888  0.3870 -0.5127
  394MOL0     H53152   4.573   8.495  10.507 -2.2412 -0.3917 -1.0828
  394MOL0     H53153   4.767   8.355  10.492  0.0205 -1.2122 -0.6140
  394MOL0     H53154   5.028   8.180  10.353  1.4769  1.9541 -1.5302
  394MOL0     H53155   4.872   8.204  10.433  2.0261 -1.8090  0.7783
  394MOL0     H53156   4.754   8.131  10.249 -0.9655  1.3230  2.4507
  394MOL0     H53157   4.900   8.081  10.161 -1.7758 -1.8893 -0.1209
  394MOL0     H53158   4.783   7.968  10.418 -0.8682 -1.0445 -1.5522
  394MOL0     H53159   4.791   7.900  10.264  1.1159 -0.0147 -0.7255
  394MOL0     H53160   5.039   7.980  10.415 -0.9339  0.6129 -0.6348
  394MOL0     H53161   5.029   7.897  10.266 -2.5503  2.9155 -0.5594
  394MOL0     H53162   4.919   7.696  10.371  0.6513 -1.2094 -0.1511
  394MOL0     H53163   4.916   7.761  10.524  0.0935  0.7519 -1.1886
  394MOL0     H53164   5.139   7.691  10.336 -0.5735  2.3787 -0.1719
  394MOL0     H53165   5.191   7.789  10.476  1.0112  1.1011 -3.7407
  394MOL0     H53166   5.248   7.575  10.529  0.7199  1.6195  2.1973
  394MOL0     H53167   5.111   7.504  10.452  0.9060 -0.6587  0.8051
  394MOL0     H53168   5.092   7.669  10.708 -2.4203  0.3475 -0.5432
  394MOL0     H53169   4.964   7.574  10.637  0.4267  0.3858 -1.2638
  394MOL0     H53170   4.802   8.480  10.077  0.4159  1.2205  0.9378
  394MOL0     H53171   4.603   8.627  10.107 -2.7975 -1.9663 -0.2986
  394MOL0     H53172   4.116   8.772  10.488 -1.6577 -0.1226 -1.5885
  394MOL0     H53173   3.989   9.007  10.454 -0.2087  0.8536 -0.0366
  394MOL0     H53174   3.779  10.748   9.639 -0.5717  1.9733 -3.7938
  394MOL0     H53175   3.649  10.946   9.648  2.1186 -1.4936 -3.6011
  394MOL0     H53176   3.708  11.444   9.793 -1.0034 -1.0573  0.7466
  394MOL0     H53177   3.622  11.662   9.789  4.1313  0.2683 -3.2353
  394MOL0     H53178   3.376  11.774   9.407  2.2956  0.3564  1.5032
  394MOL0     H53179   3.344  11.922   9.499  1.8187  0.3773 -2.1128
  394MOL0     H53180   3.172  11.793   9.624  1.3121 -0.0613 -0.2297
  394MOL0     H53181   3.194  11.655   9.529 -1.4378 -0.0092 -0.2833
  394MOL0     H53182   3.023  11.744   9.423 -0.7251 -0.3570 -1.6300
  394MOL0     H53183   3.153  11.805   9.316  0.7608  3.3222 -0.6375
  394MOL0     H53184   3.140  12.033   9.423 -1.3706  0.3557 -0.5808
  394MOL0     H53185   2.993  11.985   9.351  0.8704  0.9754 -0.0285
  394MOL0     H53186   2.900  11.976   9.768 -2.5712  0.3124 -0.6961
  394MOL0     H53187   3.361  11.532   9.470 -2.6402 -2.6718  1.4199
  394MOL0     H53188   3.291  11.316   9.478  1.4251  4.0483 -3.2471
  394MOL0     H53189   3.423  11.307   9.383 -1.1720 -1.0674  0.1054
  394MOL0     H53190   3.405  11.182   9.524 -2.5090 -0.4613  1.5077
  395MOL0     O53191   2.094   3.877   3.193  0.1201 -0.4464  0.5323
  395MOL0     C53192   2.110   3.931   3.303 -0.8244  0.4472  0.9788
  395MOL0     O53193   2.219   4.010   3.338 -0.2460 -0.2199  0.9760
  395MOL0     C53194   2.305   4.028   3.233  0.2570 -0.0450  1.6443
  395MOL0     C53195   2.306   4.168   3.193 -0.2664 -0.3808  0.2562
  395MOL0     C53196   2.395   4.209   3.091  0.0936  0.4149 -0.7883
  395MOL0     C53197   2.478   4.112   3.025 -0.1995 -0.9406 -0.5041
  395MOL0     O53198   2.560   4.135   2.915 -0.9605  0.0267 -0.7013
  395MOL0     C53199   2.616   4.270   2.917  0.4274  0.7760  0.1365
  395MOL0     C53200   2.753   4.277   2.841 -0.8591  0.1027  0.5182
  395MOL0     C53201   2.751   4.269   2.685  0.2263 -0.1297  1.1569
  395MOL0     C53202   2.703   4.126   2.649  0.5724 -0.3442  0.8349
  395MOL0     C53203   2.699   4.109   2.496 -0.5725  0.2226 -0.7814
  395MOL0     C53204   2.651   3.973   2.448  0.0782 -0.5980 -1.2269
  395MOL0     C53205   2.677   3.955   2.298 -0.1760  0.6878 -0.4769
  395MOL0     C53206   2.614   3.824   2.239  0.2002  0.1192 -0.1214
  395MOL0     N53207   2.469   3.804   2.260  0.2598 -0.2445  0.1569
  395MOL0     C53208   2.363   3.854   2.179  0.4842  0.5522 -0.6701
  395MOL0     C53209   2.251   3.825   2.248 -0.3059 -0.3576 -0.6094
  395MOL0     C53210   2.111   3.857   2.221  0.2080  0.7179  0.0400
  395MOL0     C53211   2.040   3.792   2.095  0.1003 -0.0455 -1.0516
  395MOL0     C53212   1.893   3.850   2.071  0.3879 -0.4246 -0.1141
  395MOL0     C53213   1.780   3.772   2.152  0.0614 -1.0240  0.4249
  395MOL0     O53214   1.785   3.822   2.286 -0.1454  0.4223 -0.1860
  395MOL0     C53215   1.699   3.771   2.375 -0.7812 -0.3471 -0.1889
  395MOL0     C53216   1.592   3.675   2.355  0.1010 -1.5835  0.7130
  395MOL0     C53217   1.529   3.612   2.461  0.9723  0.4627  0.9327
  395MOL0     C53218   1.570   3.632   2.596 -0.0391 -0.6366  0.1057
  395MOL0     C53219   1.499   3.575   2.710 -0.2748  0.2056  0.2539
  395MOL0     O53220   1.544   3.610   2.831  0.4654 -0.1868 -0.5507
  395MOL0     C53221   1.483   3.562   2.943  0.1555 -0.2382 -0.5448
  395MOL0     C53222   1.350   3.576   2.965 -0.8817 -0.2435  0.1315
  395MOL0     C53223   1.298   3.509   3.074  0.1224 -0.1136  1.3421
  395MOL0     C53224   1.381   3.447   3.165 -0.1389 -0.4769 -1.1765
  395MOL0     O53225   1.309   3.395   3.270  0.2692  0.3081 -0.0717
  395MOL0     C53226   1.394   3.369   3.391  0.3684  0.2755 -0.3148
  395MOL0     C53227   1.407   3.211   3.377  0.1787 -0.6579 -0.1016
  395MOL0     C53228   1.463   3.139   3.490 -0.2037  0.4759  0.6604
  395MOL0     C53229   1.613   3.166   3.504  0.3074 -0.8142 -0.4135
  395MOL0     C53230   1.660   3.144   3.644  0.5281  0.1215 -0.1244
  395MOL0     C53231   1.626   3.009   3.714 -0.7003  0.0773  0.5288
  395MOL0     C53232   1.680   2.999   3.853 -0.4464 -0.3289 -0.2008
  395MOL0     C53233   1.672   2.858   3.915  0.3508  0.0858 -1.0360
  395MOL0    Cl53234   1.688   2.857   4.091 -0.2002 -0.6787  0.2779
  395MOL0     C53235   1.513   3.427   3.138 -0.3846 -0.7294  0.3135
  395MOL0     C53236   1.569   3.491   3.025 -0.1061  0.2182  0.4917
  395MOL0     O53237   1.404   3.498   2.688 -0.2117 -0.0548  0.1751
  395MOL0     C53238   1.670   3.727   2.619 -1.7834  0.3705  0.4932
  395MOL0     C53239   1.740   3.789   2.510 -0.3942  0.6352 -0.5051
  395MOL0     N53240   2.284   3.761   2.359 -0.1765  0.5650  0.2618
  395MOL0     N53241   2.411   3.747   2.367 -0.4759 -0.6698  0.1441
  395MOL0     C53242   2.462   3.976   3.062  0.0266  0.4422  0.9150
  395MOL0     C53243   2.375   3.935   3.159  0.5412 -0.0088  0.7003
  395MOL0     C53244   2.001   3.904   3.397 -0.0504  0.1945 -0.2248
  395MOL0     C53245   1.941   3.770   3.399 -1.0386 -0.5573  0.2151
  395MOL0     C53246   1.831   3.746   3.478 -0.8428 -0.0309 -0.1847
  395MOL0     C53247   1.789   3.842   3.575 -0.2928 -1.1130  0.6231
  395MOL0     O53248   1.689   3.816   3.667 -0.2387 -0.1216 -0.0861
  395MOL0     C53249   1.655   3.676   3.693 -0.6522 -0.3839  0.4279
  395MOL0     C53250   1.599   3.666   3.829 -0.8460  0.0085 -0.1970
  395MOL0     C53251   1.471   3.737   3.840 -0.3880  0.3475  0.5077
  395MOL0     C53252   1.496   3.843   3.958  0.4356 -0.0076  0.0531
  395MOL0     C53253   1.379   3.929   3.958 -0.1860 -0.4870 -0.6730
  395MOL0     C53254   1.269   3.979   3.961 -0.4645 -0.5533 -0.1245
  395MOL0     C53255   1.848   3.975   3.570  0.3395  0.0584 -0.4567
  395MOL0     C53256   1.954   4.009   3.480  0.0353 -0.4864 -0.7308
  395MOL0     C53257   2.004   4.147   3.474  0.6678  0.3459 -0.0347
  395MOL0     H53258   2.243   4.240   3.245  0.1921  1.6540 -1.8604
  395MOL0     H53259   2.385   4.310   3.054 -1.7047  1.3631  1.9881
  395MOL0     H53260   2.537   4.340   2.888 -0.5230  0.0081  0.8397
  395MOL0     H53261   2.643   4.284   3.022 -1.0852  0.4984  0.5908
  395MOL0     H53262   2.825   4.204   2.879  1.5437  0.5128 -2.8041
  395MOL0     H53263   2.797   4.374   2.868  0.0220 -0.3048  0.5873
  395MOL0     H53264   2.852   4.279   2.645 -0.1507 -2.9475 -0.7152
  395MOL0     H53265   2.673   4.337   2.650  0.3813 -0.4095  0.2679
  395MOL0     H53266   2.762   4.043   2.689  1.8274  0.1728  0.1149
  395MOL0     H53267   2.599   4.104   2.675 -0.4033  0.5131 -1.9785
  395MOL0     H53268   2.638   4.191   2.456  1.0967  2.8543  1.7224
  395MOL0     H53269   2.798   4.123   2.450  0.0144  1.6929  0.8247
  395MOL0     H53270   2.707   3.897   2.504 -0.0491 -0.0272 -0.3106
  395MOL0     H53271   2.543   3.959   2.459 -0.1309  2.4630  2.1100
  395MOL0     H53272   2.782   3.977   2.275  0.0322  0.6589  0.4344
  395MOL0     H53273   2.626   4.028   2.234  0.3534 -1.3893 -3.4948
  395MOL0     H53274   2.644   3.814   2.134  3.5918  1.5265  0.5990
  395MOL0     H53275   2.675   3.748   2.288 -0.9542  0.7533  2.4374
  395MOL0     H53276   2.357   3.908   2.085 -1.6757  1.0406 -0.3143
  395MOL0     H53277   2.045   3.823   2.301  3.0159  1.6929  2.9497
  395MOL0     H53278   2.099   3.965   2.232  2.4001  0.7477  4.3412
  395MOL0     H53279   2.095   3.812   2.002  0.3081 -2.4233 -1.4943
  395MOL0     H53280   2.034   3.684   2.108  1.4828 -0.1722 -1.2521
  395MOL0     H53281   1.884   3.836   1.963  2.2924  0.3430 -0.4201
  395MOL0     H53282   1.877   3.955   2.099 -2.2723 -0.8069  0.0498
  395MOL0     H53283   1.799   3.664   2.150  3.2919 -0.5764 -1.8625
  395MOL0     H53284   1.685   3.807   2.111  0.6147 -1.3115 -1.1736
  395MOL0     H53285   1.552   3.658   2.256 -0.1734  1.9697  0.0845
  395MOL0     H53286   1.446   3.545   2.442 -0.1525  1.6606  1.4299
  395MOL0     H53287   1.281   3.630   2.899  1.7319  1.6535 -1.2362
  395MOL0     H53288   1.193   3.532   3.090  0.1080 -1.0122  2.7985
  395MOL0     H53289   1.483   3.433   3.396 -0.8938  2.0486  1.2765
  395MOL0     H53290   1.336   3.392   3.481  0.6009  1.0297 -0.3495
  395MOL0     H53291   1.304   3.179   3.363  1.0439 -3.1987 -1.1929
  395MOL0     H53292   1.456   3.183   3.283 -2.4123 -1.2234 -1.3897
  395MOL0     H53293   1.403   3.146   3.581 -0.2730 -0.4320  0.6946
  395MOL0     H53294   1.452   3.034   3.463  0.0665  0.9263 -1.3169
  395MOL0     H53295   1.655   3.259   3.465 -1.0241 -1.0433 -2.5526
  395MOL0     H53296   1.659   3.089   3.441 -2.5791 -2.7734 -0.3267
  395MOL0     H53297   1.616   3.229   3.697 -0.4262 -0.2173 -0.3613
  395MOL0     H53298   1.766   3.171   3.643 -0.1208  3.0729  0.0856
  395MOL0     H53299   1.518   2.990   3.717 -0.7898  0.6787  1.8441
  395MOL0     H53300   1.687   2.943   3.653  1.8076  1.8097  1.0141
  395MOL0     H53301   1.617   3.061   3.918 -0.0189  2.6834 -2.4508
  395MOL0     H53302   1.786   3.026   3.861  0.2210 -3.1919  2.2726
  395MOL0     H53303   1.581   2.807   3.880  0.3005 -1.1756  0.7901
  395MOL0     H53304   1.760   2.798   3.890  0.3061 -0.6460  0.4423
  395MOL0     H53305   1.588   3.370   3.192 -2.1850 -0.0644  3.8224
  395MOL0     H53306   1.676   3.485   3.009  0.1981 -2.5453  2.7077
  395MOL0     H53307   1.690   3.754   2.722 -2.0709  0.7405  0.4577
  395MOL0     H53308   1.820   3.853   2.546 -1.2655  0.4589  1.9848
  395MOL0     H53309   2.506   3.895   3.004 -0.5224  1.3246 -0.8329
  395MOL0     H53310   2.362   3.828   3.177  0.4791 -0.4222 -1.4704
  395MOL0     H53311   1.970   3.701   3.321  0.7180 -0.8235  1.0443
  395MOL0     H53312   1.785   3.649   3.470 -1.2725  0.3402 -3.9920
  395MOL0     H53313   1.742   3.610   3.694 -2.2023 -2.5349  0.2303
  395MOL0     H53314   1.574   3.633   3.632 -0.4037 -0.4860  0.1668
  395MOL0     H53315   1.672   3.705   3.901 -0.3021 -1.4704  0.0834
  395MOL0     H53316   1.580   3.566   3.869 -2.8989  1.1253  1.9040
  395MOL0     H53317   1.392   3.664   3.859 -1.8219  1.3207 -1.4205
  395MOL0     H53318   1.442   3.777   3.743 -2.3718 -2.8522 -0.3731
  395MOL0     H53319   1.520   3.811   4.060  2.3335  1.3302  0.0891
  395MOL0     H53320   1.578   3.912   3.934 -1.1792  1.9106 -0.1504
  395MOL0     H53321   1.167   4.013   3.955 -0.2696  0.1146  0.2642
  395MOL0     H53322   1.789   4.049   3.623 -2.3399 -2.6145  0.5746
  395MOL0     H53323   2.024   4.191   3.376  2.5059  3.5841  1.6334
  395MOL0     H53324   1.943   4.217   3.533  2.6056  0.4107  1.9908
  395MOL0     H53325   2.093   4.133   3.535 -0.2014 -1.3894  0.9158
  396MOL0     O53326   7.429   3.673  10.673  0.8427  0.2389  0.0823
  396MOL0     C53327   7.428   3.553  10.636  0.4686  0.6579  0.3002
  396MOL0     O53328   7.357   3.446  10.691  0.3552 -0.0071  0.2173
  396MOL0     C53329   7.281   3.491  10.799  0.1255 -0.1096  0.4028
  396MOL0     C53330   7.140   3.461  10.806 -0.1153  0.4413 -0.3543
  396MOL0     C53331   7.054   3.508  10.911 -0.5479  0.2697  0.4537
  396MOL0     C53332   7.119   3.582  11.011  1.3631 -0.0385 -0.3233
  396MOL0     O53333   7.049   3.648  11.109  0.0264  1.1522 -0.5202
  396MOL0     C53334   6.945   3.572  11.186  0.0129  0.1257 -0.6468
  396MOL0     C53335   7.004   3.469  11.282  0.7294 -0.3892  0.5193
  396MOL0     C53336   6.905   3.367  11.347  0.2192 -0.2305  0.4024
  396MOL0     C53337   6.878   3.244  11.261 -0.1327  0.1359 -0.6358
  396MOL0     C53338   6.800   3.134  11.333  0.8628 -0.3828  0.4278
  396MOL0     C53339   6.678   3.172  11.420 -0.6355  0.9353  0.4236
  396MOL0     C53340   6.588   3.053  11.456  0.5710  0.1075  0.3853
  396MOL0     C53341   6.455   3.123  11.511 -0.5473  0.3053  0.9185
  396MOL0     N53342   6.348   3.123  11.407  0.6820 -0.3550 -0.4744
  396MOL0     C53343   6.275   3.012  11.364 -1.0187 -0.5607  0.2218
  396MOL0     C53344   6.174   3.059  11.293 -0.3374 -0.2986  0.2855
  396MOL0     C53345   6.059   2.986  11.226 -0.4710 -1.1962  0.0105
  396MOL0     C53346   6.104   2.936  11.091  0.1563 -0.4394  0.2280
  396MOL0     C53347   6.159   3.031  10.989 -0.4513  0.4321 -0.6254
  396MOL0     C53348   6.225   2.957  10.874 -0.4446 -1.2028 -0.1405
  396MOL0     O53349   6.243   3.042  10.755  0.5075 -0.4317 -0.3852
  396MOL0     C53350   6.320   2.993  10.650 -0.1127 -0.1807 -0.8426
  396MOL0     C53351   6.363   2.864  10.649  0.0709  0.8043  0.6818
  396MOL0     C53352   6.433   2.808  10.542 -0.9722  0.9321  0.4006
  396MOL0     C53353   6.473   2.887  10.431 -0.1671 -0.5335 -0.4833
  396MOL0     C53354   6.550   2.831  10.325  0.4506 -0.1251 -1.2622
  396MOL0     O53355   6.632   2.726  10.342 -1.2632  0.1959  0.1329
  396MOL0     C53356   6.717   2.687  10.242 -0.1758 -0.0466  0.3425
  396MOL0     C53357   6.710   2.549  10.200 -0.3412 -1.3375  0.4526
  396MOL0     C53358   6.791   2.507  10.101 -0.8684  0.7284  0.4001
  396MOL0     C53359   6.898   2.592  10.052  0.2123  0.7262 -0.4219
  396MOL0     O53360   6.989   2.540   9.956  0.2742  0.2108  0.0493
  396MOL0     C53361   6.940   2.425   9.883  0.7557 -0.0904  0.2027
  396MOL0     C53362   7.019   2.396   9.763 -0.1113  0.7830  0.6117
  396MOL0     C53363   6.961   2.287   9.675  0.3104  0.4304  0.3612
  396MOL0     C53364   6.899   2.161   9.759  0.4513  0.0837  1.0835
  396MOL0     C53365   6.896   2.024   9.686 -0.5390 -0.1659 -0.8478
  396MOL0     C53366   7.028   1.964   9.659  0.4648 -0.0418 -0.2907
  396MOL0     C53367   7.132   1.982   9.788 -0.1099 -0.3239  0.4815
  396MOL0     C53368   7.253   1.894   9.796  0.6375 -0.0472 -0.2646
  396MOL0    Cl53369   7.355   1.975   9.923  0.4672 -0.3121  0.4457
  396MOL0     C53370   6.901   2.727  10.100 -0.3657  0.7573  0.2392
  396MOL0     C53371   6.814   2.777  10.197  0.2643  0.0857  0.8473
  396MOL0     O53372   6.532   2.887  10.221  0.2217 -0.3277  0.0313
  396MOL0     C53373   6.431   3.020  10.439 -0.5426 -1.0642 -0.1986
  396MOL0     C53374   6.352   3.071  10.541  0.9777  0.0900 -0.3635
  396MOL0     N53375   6.189   3.198  11.278  0.4995  0.4944  0.3457
  396MOL0     N53376   6.292   3.235  11.338 -0.3951  0.4320  0.1155
  396MOL0     C53377   7.255   3.590  11.021  0.2566 -0.1696  1.2373
  396MOL0     C53378   7.340   3.545  10.919  0.8161  0.5378 -0.2471
  396MOL0     C53379   7.493   3.527  10.516 -0.4574 -0.4995  0.1446
  396MOL0     C53380   7.631   3.534  10.521 -0.9907  0.3992  0.1946
  396MOL0     C53381   7.716   3.520  10.409  0.4401  0.5094 -0.8283
  396MOL0     C53382   7.658   3.488  10.290 -0.1648  0.5414  0.6367
  396MOL0     O53383   7.731   3.443  10.176  0.2523 -0.0951 -0.5006
  396MOL0     C53384   7.867   3.463  10.159  0.3447  1.1354 -0.1559
  396MOL0     C53385   7.899   3.423  10.019  0.3913 -0.2828  0.8023
  396MOL0     C53386   7.819   3.493   9.903  0.3745  0.1448 -0.2941
  396MOL0     C53387   7.860   3.442   9.768 -0.0241 -0.5087 -0.0374
  396MOL0     C53388   8.006   3.451   9.746  0.3548  0.4859  0.4626
  396MOL0     C53389   8.131   3.461   9.735  0.1033  0.6731 -0.4964
  396MOL0     C53390   7.521   3.471  10.285  0.2809 -0.0403  1.0547
  396MOL0     C53391   7.430   3.486  10.401 -0.6814 -0.1228  0.7677
  396MOL0     C53392   7.283   3.455  10.392  0.3443 -0.1547  0.0560
  396MOL0     H53393   7.104   3.389  10.733  3.0331 -2.7480  0.9241
  396MOL0     H53394   6.949   3.485  10.894  0.0440 -0.8896 -1.9746
  396MOL0     H53395   6.887   3.655  11.228 -0.5685  0.1860 -1.5214
  396MOL0     H53396   6.870   3.522  11.124 -1.8953  0.3491  1.3575
  396MOL0     H53397   7.042   3.526  11.368  3.2674 -0.4084 -0.4972
  396MOL0     H53398   7.085   3.420  11.228  3.3278  2.2216  1.7115
  396MOL0     H53399   6.806   3.414  11.347  0.2919  0.0053 -1.7148
  396MOL0     H53400   6.937   3.353  11.451 -0.3568 -0.0831  0.6038
  396MOL0     H53401   6.832   3.285  11.171  1.6539 -1.1958 -2.2599
  396MOL0     H53402   6.966   3.193  11.221  2.0687  2.4432  0.9404
  396MOL0     H53403   6.781   3.055  11.260  3.5899 -0.9686  0.2351
  396MOL0     H53404   6.865   3.077  11.400  0.0997 -1.7163  0.0739
  396MOL0     H53405   6.718   3.223  11.508  1.5512  0.1016 -0.0121
  396MOL0     H53406   6.619   3.239  11.357 -1.4822 -0.8637 -0.7739
  396MOL0     H53407   6.643   3.013  11.541 -0.9972  0.1318  1.4632
  396MOL0     H53408   6.564   2.979  11.379  0.7541  2.3682 -1.9938
  396MOL0     H53409   6.407   3.061  11.587  1.1063 -3.9793 -1.2216
  396MOL0     H53410   6.485   3.216  11.562  2.9296 -0.5018  0.6278
  396MOL0     H53411   6.303   2.909  11.381  3.2639  0.2931 -0.5266
  396MOL0     H53412   6.030   2.897  11.284  1.4166 -1.9510 -0.1400
  396MOL0     H53413   5.979   3.060  11.215  1.5154  1.2787  1.2567
  396MOL0     H53414   6.185   2.866  11.113  1.2049  0.7352  0.2393
  396MOL0     H53415   6.023   2.874  11.050 -0.7781  1.9595 -1.8598
  396MOL0     H53416   6.233   3.096  11.037 -1.4578  1.0950  0.0853
  396MOL0     H53417   6.072   3.089  10.958 -0.2663  0.0955 -1.8132
  396MOL0     H53418   6.180   2.858  10.860 -1.3728 -0.6786 -1.0549
  396MOL0     H53419   6.327   2.941  10.909 -0.8426  1.4604  2.6628
  396MOL0     H53420   6.347   2.800  10.735  0.5496  2.7762  2.3090
  396MOL0     H53421   6.438   2.700  10.546 -1.5106  0.9086  0.5096
  396MOL0     H53422   6.633   2.484  10.241 -0.0032 -2.5287 -0.7309
  396MOL0     H53423   6.772   2.405  10.070 -0.4543 -0.0365  2.5341
  396MOL0     H53424   6.935   2.332   9.940 -3.6240 -1.7232 -2.3358
  396MOL0     H53425   6.836   2.438   9.850  1.1239 -1.0306 -1.4286
  396MOL0     H53426   7.062   2.488   9.722  3.0530 -0.3956  1.0178
  396MOL0     H53427   7.108   2.343   9.796 -1.0941 -3.0130 -2.1595
  396MOL0     H53428   6.877   2.324   9.616  0.7454  0.8768  0.0170
  396MOL0     H53429   7.038   2.260   9.602 -2.5591  0.1714 -2.8240
  396MOL0     H53430   6.799   2.200   9.780  1.2717  1.9398  1.7694
  396MOL0     H53431   6.944   2.152   9.859  2.0984  2.2028  0.6162
  396MOL0     H53432   6.838   2.027   9.593 -1.5163 -3.5253 -0.4827
  396MOL0     H53433   6.845   1.953   9.752  1.0568  0.7625  1.5064
  396MOL0     H53434   7.029   1.856   9.644 -0.1294 -0.1153  0.1616
  396MOL0     H53435   7.080   2.006   9.572  3.0583  1.0504  1.6251
  396MOL0     H53436   7.077   1.985   9.882  0.3457  0.0761  0.7430
  396MOL0     H53437   7.172   2.082   9.771  3.2280 -1.9971 -3.3492
  396MOL0     H53438   7.222   1.791   9.819  0.5636 -0.0873 -0.5377
  396MOL0     H53439   7.301   1.894   9.697  1.5318  0.5556  0.1582
  396MOL0     H53440   6.975   2.799  10.066  0.2348 -0.5152 -1.2841
  396MOL0     H53441   6.818   2.883  10.219 -1.5074 -0.2907  3.3609
  396MOL0     H53442   6.466   3.076  10.352 -1.5668 -0.5422 -0.2956
  396MOL0     H53443   6.334   3.178  10.544 -2.4417 -0.3381 -1.7528
  396MOL0     H53444   7.309   3.624  11.108  2.3049  0.4109 -0.1709
  396MOL0     H53445   7.448   3.534  10.916  0.6651 -1.0816 -1.1165
  396MOL0     H53446   7.684   3.554  10.613 -1.3014 -0.1398  0.4982
  396MOL0     H53447   7.823   3.534  10.419  0.0814  2.4564  0.8282
  396MOL0     H53448   7.915   3.402  10.236 -3.6165 -1.8000  0.2760
  396MOL0     H53449   7.896   3.566  10.181 -0.0936  0.9572  1.3105
  396MOL0     H53450   7.892   3.314  10.009  2.4886 -0.4465  0.7615
  396MOL0     H53451   8.002   3.455  10.005 -1.1454  4.9654 -1.0789
  396MOL0     H53452   7.854   3.597   9.900  0.3049  0.1624 -3.2925
  396MOL0     H53453   7.710   3.496   9.911 -0.3686 -2.6657 -5.5134
  396MOL0     H53454   7.842   3.334   9.766 -0.5456 -0.4239 -0.1035
  396MOL0     H53455   7.804   3.494   9.690 -0.9714 -3.7337 -1.7164
  396MOL0     H53456   8.237   3.459   9.719  0.0532 -1.5687 -0.9085
  396MOL0     H53457   7.479   3.434  10.192 -0.9243 -0.9981  1.9382
  396MOL0     H53458   7.271   3.368  10.457  1.9295  0.7086  1.5818
  396MOL0     H53459   7.218   3.542  10.406  0.9456  0.5496 -1.3364
  396MOL0     H53460   7.252   3.431  10.290  2.1271  1.4415 -0.9230
  397MOL0     O53461   4.878   9.519   6.228  0.7766 -0.2571  0.2210
  397MOL0     C53462   4.809   9.525   6.127 -0.0217  1.0029  0.1028
  397MOL0     O53463   4.675   9.496   6.130  0.2267 -0.2830 -0.2816
  397MOL0     C53464   4.618   9.431   6.232  0.0263 -0.0100 -0.8528
  397MOL0     C53465   4.545   9.505   6.334  0.6817  0.0856 -1.4443
  397MOL0     C53466   4.468   9.439   6.436  0.1275 -0.5301 -0.0811
  397MOL0     C53467   4.469   9.307   6.441  0.3268 -0.0683  0.3968
  397MOL0     O53468   4.402   9.249   6.542  0.5596  0.3283 -0.3337
  397MOL0     C53469   4.426   9.114   6.579  1.1078 -0.7285 -0.4539
  397MOL0     C53470   4.326   9.012   6.516 -0.4305 -0.2856  0.7995
  397MOL0     C53471   4.179   9.030   6.563 -0.7045  0.2936 -0.6128
  397MOL0     C53472   4.074   8.931   6.508  0.9527  0.5947 -0.0240
  397MOL0     C53473   3.937   8.991   6.522 -0.8540 -0.2656 -0.0222
  397MOL0     C53474   3.828   8.903   6.456 -0.6390  0.5467 -0.7384
  397MOL0     C53475   3.681   8.958   6.465 -0.4498 -0.3678 -1.1351
  397MOL0     C53476   3.622   8.958   6.605  0.6238  0.5158 -0.4759
  397MOL0     N53477   3.597   8.820   6.658 -0.8606  0.4908 -0.7686
  397MOL0     C53478   3.505   8.732   6.599 -1.0933 -0.2934  0.1600
  397MOL0     C53479   3.540   8.606   6.636  0.7902  0.1579  0.1093
  397MOL0     C53480   3.475   8.473   6.616 -0.8349 -0.0014 -0.0971
  397MOL0     C53481   3.460   8.401   6.750 -0.4935  1.2065  0.5922
  397MOL0     C53482   3.349   8.295   6.736  0.2670  0.6674 -0.5262
  397MOL0     C53483   3.381   8.163   6.655 -0.7443 -0.3030 -0.1443
  397MOL0     O53484   3.263   8.087   6.645  0.9384  0.2693 -0.5145
  397MOL0     C53485   3.262   7.992   6.544 -0.1369 -0.1794  0.2985
  397MOL0     C53486   3.369   7.953   6.465  0.2299  0.0467  0.2622
  397MOL0     C53487   3.348   7.860   6.351 -0.6103 -0.3207  0.0829
  397MOL0     C53488   3.229   7.796   6.334 -0.7499 -0.6929  0.2132
  397MOL0     C53489   3.209   7.705   6.220 -0.1804 -0.4025 -0.0389
  397MOL0     O53490   3.309   7.662   6.153  0.1852  0.0163  0.9414
  397MOL0     C53491   3.283   7.600   6.033  0.0028  0.1571 -0.0832
  397MOL0     C53492   3.266   7.677   5.921  0.2489  0.3871 -0.2442
  397MOL0     C53493   3.239   7.618   5.793  0.3424  0.2778 -0.0138
  397MOL0     C53494   3.225   7.475   5.783 -0.0381 -0.4966 -0.5326
  397MOL0     O53495   3.184   7.406   5.678 -0.2693 -0.2874  0.1142
  397MOL0     C53496   3.240   7.434   5.554 -0.5741 -0.4596  0.8741
  397MOL0     C53497   3.382   7.374   5.528  0.2401 -0.7274  0.2620
  397MOL0     C53498   3.383   7.225   5.547  0.3828  0.4051 -0.0291
  397MOL0     C53499   3.521   7.169   5.535  1.2354 -0.0888  0.2521
  397MOL0     C53500   3.517   7.021   5.485  0.2993  0.0088 -0.4904
  397MOL0     C53501   3.648   6.954   5.479  0.1006 -0.4073 -0.0268
  397MOL0     C53502   3.624   6.814   5.410  0.7668 -0.2692 -0.2744
  397MOL0     C53503   3.743   6.719   5.425  0.5271  0.0202 -0.6407
  397MOL0    Cl53504   3.883   6.726   5.314  0.1640 -0.0828 -0.1905
  397MOL0     C53505   3.252   7.401   5.902  0.9154  0.5679 -0.0901
  397MOL0     C53506   3.282   7.462   6.025 -0.1426  0.5535 -0.4447
  397MOL0     O53507   3.092   7.686   6.189  0.3682 -0.3929  0.1724
  397MOL0     C53508   3.132   7.825   6.426  0.2949  1.3866 -0.0856
  397MOL0     C53509   3.142   7.924   6.524  0.0105 -0.4675 -0.0770
  397MOL0     N53510   3.644   8.623   6.712  0.0349  0.7976 -0.2968
  397MOL0     N53511   3.691   8.742   6.722  0.1593 -1.0236 -0.7200
  397MOL0     C53512   4.551   9.239   6.351  0.4255  0.2571 -0.4845
  397MOL0     C53513   4.629   9.292   6.247 -0.2792  0.3686 -0.8204
  397MOL0     C53514   4.880   9.571   6.000 -0.0600 -0.4612 -0.6977
  397MOL0     C53515   4.793   9.579   5.888  0.6022  0.3563  0.9528
  397MOL0     C53516   4.853   9.588   5.760  0.3462  0.1864  0.0649
  397MOL0     C53517   4.989   9.591   5.747  0.0846  0.8986  1.0159
  397MOL0     O53518   5.023   9.582   5.613 -0.5262 -0.2166  0.4591
  397MOL0     C53519   5.169   9.534   5.589  0.9505  0.5049 -0.0785
  397MOL0     C53520   5.199   9.525   5.440 -1.2830  0.2432  1.1362
  397MOL0     C53521   5.341   9.469   5.403  0.2502 -0.7844  0.0640
  397MOL0     C53522   5.345   9.421   5.258  1.1866  0.8793  0.3026
  397MOL0     C53523   5.483   9.387   5.213 -0.7392 -0.0070 -0.7673
  397MOL0     C53524   5.590   9.356   5.162 -0.2172  0.3511 -0.4333
  397MOL0     C53525   5.076   9.609   5.854 -0.1831  0.2093 -0.0968
  397MOL0     C53526   5.019   9.603   5.984 -0.5962 -1.3000 -0.7480
  397MOL0     C53527   5.102   9.636   6.106  0.2583  0.2316  0.3111
  397MOL0     H53528   4.512   9.607   6.318  0.4582  0.2430 -0.0968
  397MOL0     H53529   4.408   9.492   6.510 -0.9019 -2.8508  0.8265
  397MOL0     H53530   4.531   9.086   6.566  1.4622 -2.8326  4.6540
  397MOL0     H53531   4.422   9.094   6.687  0.0891 -0.1942 -0.3804
  397MOL0     H53532   4.351   8.909   6.546 -1.2968  0.4100  4.4489
  397MOL0     H53533   4.326   9.026   6.408 -1.7552  1.9729  1.0282
  397MOL0     H53534   4.141   9.132   6.564 -2.2865 -0.2496 -1.3535
  397MOL0     H53535   4.179   9.021   6.672 -1.7792  1.7189 -0.4702
  397MOL0     H53536   4.091   8.917   6.401  0.8699  1.4950 -0.1584
  397MOL0     H53537   4.057   8.832   6.553  0.8459  0.2511 -0.8035
  397MOL0     H53538   3.917   9.004   6.629  0.9550  3.6193  0.0286
  397MOL0     H53539   3.925   9.084   6.466 -0.4905 -0.7674 -0.9522
  397MOL0     H53540   3.856   8.882   6.352 -2.5255 -1.1920 -0.9686
  397MOL0     H53541   3.798   8.807   6.499 -1.7300  0.1801 -2.2428
  397MOL0     H53542   3.628   8.880   6.409 -1.1653 -0.8934  0.2130
  397MOL0     H53543   3.678   9.060   6.425  0.1743  0.9965  1.9869
  397MOL0     H53544   3.694   9.007   6.671  0.7333 -1.6280  1.0961
  397MOL0     H53545   3.526   9.009   6.596  0.1401  0.3149  2.6019
  397MOL0     H53546   3.423   8.754   6.531  0.0631  1.5233 -0.7480
  397MOL0     H53547   3.379   8.479   6.563 -1.4050  1.6943  1.0482
  397MOL0     H53548   3.535   8.416   6.545  0.0962 -0.7386  1.2445
  397MOL0     H53549   3.558   8.356   6.770  0.4497  2.1286 -1.6458
  397MOL0     H53550   3.446   8.484   6.819  2.2306  3.0142 -0.8614
  397MOL0     H53551   3.277   8.355   6.680  0.1163  1.9219  0.9560
  397MOL0     H53552   3.311   8.271   6.836  4.1226  1.5185  1.3011
  397MOL0     H53553   3.466   8.114   6.703  2.0333  2.1319 -2.1993
  397MOL0     H53554   3.420   8.186   6.556  0.0218 -0.9964 -0.0165
  397MOL0     H53555   3.473   7.983   6.455  0.0206  0.1566 -2.2658
  397MOL0     H53556   3.431   7.840   6.283 -1.3228 -0.5523 -0.7270
  397MOL0     H53557   3.275   7.784   5.930 -1.1171  0.4445  0.6820
  397MOL0     H53558   3.237   7.683   5.706  3.2315 -1.9192 -1.8930
  397MOL0     H53559   3.164   7.399   5.483  1.4253  0.6914 -2.0589
  397MOL0     H53560   3.242   7.543   5.542  0.1057 -0.4373  1.1067
  397MOL0     H53561   3.412   7.397   5.426  1.9228  0.0791  0.8996
  397MOL0     H53562   3.452   7.424   5.596 -1.8977  4.5723 -0.9202
  397MOL0     H53563   3.336   7.206   5.644 -2.0843 -1.5340 -1.4892
  397MOL0     H53564   3.318   7.178   5.473  2.0368 -1.8606 -0.1311
  397MOL0     H53565   3.589   7.185   5.620 -1.2138  2.3826  1.9188
  397MOL0     H53566   3.563   7.221   5.449 -2.7696 -0.1424 -1.9522
  397MOL0     H53567   3.463   7.021   5.390  0.1595 -0.0373 -0.4108
  397MOL0     H53568   3.464   6.962   5.561  4.3868 -3.0736  0.3828
  397MOL0     H53569   3.724   7.011   5.424  0.6694 -2.0892 -1.0690
  397MOL0     H53570   3.683   6.943   5.582  2.0013  2.9981 -0.1399
  397MOL0     H53571   3.601   6.823   5.303  0.6177 -0.6542 -0.2777
  397MOL0     H53572   3.536   6.769   5.458  0.3371  0.9486  0.1044
  397MOL0     H53573   3.778   6.738   5.527  2.7681  1.9475 -1.6867
  397MOL0     H53574   3.699   6.622   5.401  1.7185 -0.6466 -0.2320
  397MOL0     H53575   3.219   7.299   5.891 -1.2482  1.3351 -1.4773
  397MOL0     H53576   3.306   7.402   6.112  0.0313  0.3670 -0.6221
  397MOL0     H53577   3.041   7.767   6.416  1.9878 -1.4845  0.0720
  397MOL0     H53578   3.057   7.966   6.578  0.1213  0.6213 -0.7208
  397MOL0     H53579   4.567   9.133   6.362 -3.3323 -0.3989  0.2371
  397MOL0     H53580   4.686   9.240   6.171  0.5120  4.2186 -3.1448
  397MOL0     H53581   4.685   9.570   5.895  0.4003 -1.3823 -2.1628
  397MOL0     H53582   4.795   9.583   5.669  3.3535 -1.5125 -1.9198
  397MOL0     H53583   5.191   9.438   5.638  1.3340  0.5522 -0.1501
  397MOL0     H53584   5.249   9.591   5.638  0.3713 -1.6016  3.7371
  397MOL0     H53585   5.188   9.626   5.401  3.0236  1.4663  2.5952
  397MOL0     H53586   5.123   9.458   5.397  0.1919 -0.5998 -0.2397
  397MOL0     H53587   5.363   9.381   5.464  0.0390  0.1281  1.5047
  397MOL0     H53588   5.420   9.540   5.430 -2.2770  1.5900  1.7048
  397MOL0     H53589   5.284   9.334   5.231  1.5695  1.3285 -2.1799
  397MOL0     H53590   5.332   9.511   5.197  0.9570  0.1257 -0.7803
  397MOL0     H53591   5.666   9.337   5.089 -0.3519  1.6856 -0.9509
  397MOL0     H53592   5.182   9.629   5.848 -0.2716  0.2504 -2.2773
  397MOL0     H53593   5.115   9.546   6.166 -3.7773 -0.2518  0.7735
  397MOL0     H53594   5.202   9.673   6.084  0.4576 -0.1630  0.5408
  397MOL0     H53595   5.059   9.716   6.167  1.4831  1.7780 -0.7661
  398MOL0     O53596  10.290   2.533   6.938 -0.6322  1.0420 -0.3659
  398MOL0     C53597  10.359   2.500   6.841  0.4782  0.8697  0.1674
  398MOL0     O53598  10.497   2.504   6.834  0.6287  0.3262  0.1466
  398MOL0     C53599  10.583   2.542   6.937  0.1683 -0.4200 -1.0337
  398MOL0     C53600  10.707   2.488   6.943  0.0755  0.4169  0.2625
  398MOL0     C53601  10.802   2.523   7.041  1.1816 -0.4927 -1.0509
  398MOL0     C53602  10.763   2.598   7.149  0.0235  0.3214 -0.6124
  398MOL0     O53603  10.864   2.631   7.244  0.0516  0.1795 -1.0198
  398MOL0     C53604  10.870   2.768   7.304  0.8516 -0.1518 -0.3457
  398MOL0     C53605  10.985   2.763   7.410 -0.2513 -0.3111  0.8711
  398MOL0     C53606  10.966   2.666   7.529  0.6168  0.4966  1.0331
  398MOL0     C53607  11.025   2.524   7.498 -0.6742  0.3521  0.5650
  398MOL0     C53608  11.190   2.513   7.478  0.7343  1.9741 -0.3059
  398MOL0     C53609  11.263   2.373   7.489 -0.6243 -0.7756 -0.7009
  398MOL0     C53610  11.205   2.263   7.398  0.3994  0.5371  0.3438
  398MOL0     C53611  11.304   2.149   7.356 -0.5625 -0.6377 -0.2775
  398MOL0     N53612  11.228   2.033   7.308 -0.0312  0.0157  0.7774
  398MOL0     C53613  11.243   1.962   7.189  0.1373 -0.2211 -0.8097
  398MOL0     C53614  11.155   1.856   7.192 -1.4934  0.6884  0.1995
  398MOL0     C53615  11.117   1.765   7.073 -0.3960  0.0209 -0.6730
  398MOL0     C53616  11.175   1.619   7.082  1.3822 -0.5037  0.2145
  398MOL0     C53617  11.325   1.615   7.074  0.0508  0.5890 -0.6970
  398MOL0     C53618  11.384   1.471   7.076 -0.3203 -0.1764  0.2796
  398MOL0     O53619  11.305   1.366   7.012 -0.3448  0.1701 -1.4918
  398MOL0     C53620  11.199   1.309   7.070  0.4236 -0.1508  0.0358
  398MOL0     C53621  11.192   1.309   7.204 -0.1733 -0.1638 -0.4711
  398MOL0     C53622  11.074   1.277   7.274  0.2591 -1.0637  0.6087
  398MOL0     C53623  10.970   1.205   7.207  0.0854 -0.4631  0.8393
  398MOL0     C53624  10.853   1.149   7.276 -0.3719  0.6209  0.1702
  398MOL0     O53625  10.849   1.153   7.412 -0.5648 -0.3706  0.0981
  398MOL0     C53626  10.743   1.178   7.483 -0.0521  0.0143  0.0272
  398MOL0     C53627  10.686   1.306   7.490  0.0604  1.3198 -0.4752
  398MOL0     C53628  10.566   1.332   7.553  0.2821 -0.2262  0.1746
  398MOL0     C53629  10.490   1.233   7.613 -0.4211  0.2531  0.8309
  398MOL0     O53630  10.373   1.264   7.683 -0.4973 -0.2239  0.3623
  398MOL0     C53631  10.285   1.155   7.717  0.3136 -0.4780 -0.2051
  398MOL0     C53632  10.162   1.228   7.759 -0.7652 -0.1901  0.0740
  398MOL0     C53633  10.045   1.126   7.777 -0.2533 -0.3081 -0.4413
  398MOL0     C53634  10.037   1.071   7.924 -0.6860  0.7876 -0.2975
  398MOL0     C53635   9.919   0.988   7.950 -0.3541  0.7522 -0.4637
  398MOL0     C53636   9.878   0.975   8.102 -0.2654  0.1415  0.6140
  398MOL0     C53637   9.759   0.892   8.121  0.5134  0.6808  0.4923
  398MOL0     C53638   9.628   0.934   8.045 -1.1813  0.0415  0.0467
  398MOL0    Cl53639   9.480   0.838   8.070  0.2771  0.0842 -0.4741
  398MOL0     C53640  10.540   1.103   7.596  0.1335  0.3335 -0.5554
  398MOL0     C53641  10.670   1.073   7.543  0.4022 -0.4162  1.6502
  398MOL0     O53642  10.757   1.117   7.208 -0.3073 -0.3198 -0.0459
  398MOL0     C53643  10.982   1.191   7.068  0.8786  0.7313 -0.9518
  398MOL0     C53644  11.091   1.251   7.001 -0.2307 -0.4643 -0.2896
  398MOL0     N53645  11.095   1.860   7.315  0.6353  0.8603  0.6135
  398MOL0     N53646  11.138   1.958   7.383  0.4268 -0.1935 -1.2186
  398MOL0     C53647  10.631   2.646   7.155  0.6192  0.4500  0.6156
  398MOL0     C53648  10.539   2.616   7.051  0.2885  0.3432 -0.1045
  398MOL0     C53649  10.297   2.446   6.716 -0.3832  0.6202 -0.9712
  398MOL0     C53650  10.374   2.359   6.639  0.7575 -0.7537 -0.0007
  398MOL0     C53651  10.328   2.307   6.516 -0.4411  0.0621 -0.8816
  398MOL0     C53652  10.198   2.345   6.478  0.1081 -0.6962  0.8667
  398MOL0     O53653  10.136   2.312   6.364 -0.4587  1.0662 -0.2680
  398MOL0     C53654  10.194   2.210   6.267  0.7847 -0.1373 -0.1808
  398MOL0     C53655  10.166   2.067   6.320  0.2198 -0.3758 -0.0827
  398MOL0     C53656  10.022   2.028   6.357 -0.3952  0.1650  0.3424
  398MOL0     C53657   9.940   1.972   6.248 -0.7048 -1.0491 -0.5268
  398MOL0     C53658   9.821   1.905   6.285  0.1393 -0.0799  0.5838
  398MOL0     C53659   9.712   1.849   6.314  0.0952  0.2730 -0.1367
  398MOL0     C53660  10.120   2.432   6.558  0.3014  0.0991 -0.7064
  398MOL0     C53661  10.165   2.477   6.682 -0.5194  0.2207 -0.2315
  398MOL0     C53662  10.062   2.562   6.757 -0.3642  0.7736  0.3961
  398MOL0     H53663  10.729   2.419   6.862  1.7153  0.4902  0.6012
  398MOL0     H53664  10.900   2.484   7.019  1.5857 -0.9354  1.2357
  398MOL0     H53665  10.899   2.839   7.226  0.4394 -2.3063 -2.6060
  398MOL0     H53666  10.782   2.802   7.359 -0.2420  2.8686 -3.5802
  398MOL0     H53667  10.975   2.861   7.457 -0.3504  1.4133 -2.4429
  398MOL0     H53668  11.088   2.752   7.373  1.1486  2.0065  3.6315
  398MOL0     H53669  10.859   2.651   7.547 -0.0689  1.0231 -2.0365
  398MOL0     H53670  11.023   2.700   7.616  1.8125 -0.8058  0.7927
  398MOL0     H53671  10.996   2.446   7.569 -0.3792 -1.6390 -1.3921
  398MOL0     H53672  10.981   2.499   7.400 -1.6744  1.6793  0.6420
  398MOL0     H53673  11.215   2.544   7.376 -0.7604 -0.2697 -1.4426
  398MOL0     H53674  11.220   2.582   7.557  4.1533 -0.8709  1.1368
  398MOL0     H53675  11.362   2.398   7.451 -1.8232  3.4006 -1.6913
  398MOL0     H53676  11.292   2.352   7.592  1.4161  0.1593 -1.0465
  398MOL0     H53677  11.161   2.314   7.312  1.2754  1.8768  0.6479
  398MOL0     H53678  11.127   2.205   7.448  0.5961 -1.9564 -2.0050
  398MOL0     H53679  11.381   2.158   7.278  0.6320 -6.6728 -0.2665
  398MOL0     H53680  11.363   2.126   7.446  1.0571 -0.4569 -1.2374
  398MOL0     H53681  11.325   1.990   7.123 -1.0357  4.1975 -0.7135
  398MOL0     H53682  11.011   1.741   7.074 -0.1792 -1.3386 -2.7890
  398MOL0     H53683  11.139   1.814   6.977  0.1857 -0.3390 -0.7333
  398MOL0     H53684  11.134   1.574   7.173 -0.5634  1.3438  0.3370
  398MOL0     H53685  11.126   1.573   6.996 -1.1595 -0.4642  1.5213
  398MOL0     H53686  11.365   1.683   7.149  1.2727 -2.6013  1.7799
  398MOL0     H53687  11.361   1.661   6.981 -0.6454 -2.2079 -2.4723
  398MOL0     H53688  11.422   1.448   7.176  1.8897 -0.1296 -0.4941
  398MOL0     H53689  11.478   1.467   7.020 -0.2799 -1.5677  0.3926
  398MOL0     H53690  11.270   1.349   7.268 -2.1506 -0.3636  2.1904
  398MOL0     H53691  11.059   1.287   7.381 -4.7540  0.4717  0.0019
  398MOL0     H53692  10.740   1.373   7.424  4.6004  0.2012  1.7024
  398MOL0     H53693  10.536   1.434   7.575  0.2605 -0.1169 -0.3561
  398MOL0     H53694  10.271   1.094   7.627  1.5149  0.9308 -1.3987
  398MOL0     H53695  10.326   1.102   7.803  0.6881 -2.3140 -1.4664
  398MOL0     H53696  10.161   1.293   7.847  1.3994 -0.8255  0.6409
  398MOL0     H53697  10.144   1.297   7.677  2.3610 -1.1141 -1.5514
  398MOL0     H53698   9.951   1.181   7.767 -0.7379 -0.6949  1.5843
  398MOL0     H53699  10.055   1.041   7.708 -1.8273  0.0094 -1.1092
  398MOL0     H53700  10.044   1.158   7.990  0.8199  1.2846 -1.0750
  398MOL0     H53701  10.125   1.008   7.938 -1.4135 -0.7445 -2.1604
  398MOL0     H53702   9.927   0.889   7.905 -2.6275 -0.2814  1.2079
  398MOL0     H53703   9.835   1.041   7.905  0.5479 -0.2458 -3.5462
  398MOL0     H53704   9.963   0.936   8.158  0.3043  1.0098  0.3800
  398MOL0     H53705   9.858   1.076   8.140  0.9060 -0.5406  3.2335
  398MOL0     H53706   9.740   0.862   8.224  3.3143 -2.6101  0.2161
  398MOL0     H53707   9.793   0.798   8.078 -0.9963 -0.3325  1.4107
  398MOL0     H53708   9.604   1.037   8.071  1.4175  0.9964 -1.1007
  398MOL0     H53709   9.639   0.927   7.936 -0.8063 -2.4642  0.1746
  398MOL0     H53710  10.495   1.018   7.648  4.3493 -0.2556  2.6105
  398MOL0     H53711  10.690   0.967   7.536  0.4276 -0.5835  3.5316
  398MOL0     H53712  10.911   1.134   7.009 -1.0268  2.8061 -0.8109
  398MOL0     H53713  11.080   1.242   6.893 -1.1878 -1.7348 -0.1080
  398MOL0     H53714  10.597   2.704   7.240 -1.0394 -1.0583  1.0560
  398MOL0     H53715  10.445   2.667   7.063  0.3626  0.1669  1.3892
  398MOL0     H53716  10.476   2.327   6.658  0.1813 -2.4356  0.3841
  398MOL0     H53717  10.386   2.237   6.457  1.3311  1.8165 -1.3190
  398MOL0     H53718  10.299   2.222   6.238  1.4231  0.0727  2.0633
  398MOL0     H53719  10.141   2.206   6.171  2.9448 -4.9382 -1.4728
  398MOL0     H53720  10.228   2.071   6.409  0.2481 -1.3523 -0.0500
  398MOL0     H53721  10.206   2.001   6.242  0.6385  0.2733 -0.4333
  398MOL0     H53722   9.987   2.115   6.414  4.6002  2.0336  1.0754
  398MOL0     H53723  10.030   1.953   6.437 -1.0817  2.1417  2.3976
  398MOL0     H53724   9.910   2.058   6.187 -0.3285 -0.1674  0.4866
  398MOL0     H53725  10.011   1.909   6.193  3.6788  1.8387  1.2957
  398MOL0     H53726   9.614   1.811   6.328 -0.0010  1.1050  1.8471
  398MOL0     H53727  10.014   2.446   6.537 -0.5739 -0.6687  2.5111
  398MOL0     H53728  10.102   2.662   6.776 -2.4929  1.3037  2.5100
  398MOL0     H53729   9.973   2.570   6.695  0.6665 -1.7487 -1.5853
  398MOL0     H53730  10.028   2.517   6.850 -0.2344  0.2507  0.1952
  399MOL0     O53731   2.294   5.102   6.616  0.0386  0.7412  1.3090
  399MOL0     C53732   2.393   5.132   6.545  0.1043  0.2708  0.3238
  399MOL0     O53733   2.518   5.086   6.567 -1.0779 -0.3258  0.0002
  399MOL0     C53734   2.560   5.039   6.688 -1.2105 -0.4435  0.0170
  399MOL0     C53735   2.653   4.926   6.692  0.1428 -0.8942  0.4963
  399MOL0     C53736   2.696   4.869   6.812  0.2129 -0.2949 -0.3340
  399MOL0     C53737   2.663   4.939   6.930 -0.3398  0.0581 -0.0973
  399MOL0     O53738   2.721   4.906   7.046  0.5094 -0.1275 -0.0522
  399MOL0     C53739   2.763   5.016   7.128 -0.6676 -0.1447  0.1853
  399MOL0     C53740   2.872   4.973   7.229  0.2557 -0.4552 -0.6895
  399MOL0     C53741   2.804   4.904   7.343 -0.0212 -0.2697 -0.5008
  399MOL0     C53742   2.914   4.869   7.449  0.0780 -0.2841  0.3571
  399MOL0     C53743   2.875   4.750   7.557  0.3352  0.2653 -1.3661
  399MOL0     C53744   2.740   4.797   7.625  0.0291  0.6153  0.3091
  399MOL0     C53745   2.697   4.689   7.725  0.3881 -0.9590  0.2190
  399MOL0     C53746   2.552   4.723   7.777  0.3560  0.1504 -0.1356
  399MOL0     N53747   2.574   4.796   7.908 -0.2614 -0.2408 -1.2250
  399MOL0     C53748   2.631   4.731   8.017 -0.6282  0.5812 -0.2048
  399MOL0     C53749   2.687   4.828   8.088 -0.0454  0.1538 -0.7101
  399MOL0     C53750   2.754   4.801   8.212 -0.0256  0.1573 -1.3680
  399MOL0     C53751   2.671   4.754   8.334 -0.1604  0.6019 -1.5731
  399MOL0     C53752   2.548   4.846   8.363 -0.0192  0.1787 -0.4789
  399MOL0     C53753   2.480   4.840   8.497 -0.4814 -0.3535 -0.2323
  399MOL0     O53754   2.579   4.823   8.598  0.3783 -0.0998  0.0411
  399MOL0     C53755   2.536   4.809   8.728  0.3667 -0.1805 -0.1435
  399MOL0     C53756   2.423   4.737   8.758 -0.2288  0.2724  0.8659
  399MOL0     C53757   2.393   4.713   8.895  0.3952  0.4023 -0.2337
  399MOL0     C53758   2.465   4.768   8.997  0.4032 -0.2708  0.6139
  399MOL0     C53759   2.422   4.741   9.140  0.5974  0.4121  0.5121
  399MOL0     O53760   2.336   4.636   9.166 -0.2359 -0.7297 -0.9585
  399MOL0     C53761   2.306   4.620   9.307 -0.1714 -0.8128  0.0654
  399MOL0     C53762   2.249   4.731   9.385 -0.7309  1.3455 -0.8455
  399MOL0     C53763   2.227   4.715   9.515  0.5877 -0.2967  0.3495
  399MOL0     C53764   2.262   4.589   9.577 -1.7195 -0.0309  0.4171
  399MOL0     O53765   2.269   4.589   9.714  0.6503 -0.2100  0.1691
  399MOL0     C53766   2.253   4.468   9.783  0.7363 -0.6445 -0.0010
  399MOL0     C53767   2.206   4.496   9.920  0.5317  0.1727  0.6088
  399MOL0     C53768   2.155   4.640   9.960 -0.0420  0.4441 -0.8129
  399MOL0     C53769   2.009   4.660   9.914 -0.6755  0.0774 -0.7100
  399MOL0     C53770   1.939   4.774   9.973 -0.1206 -0.1910  0.2994
  399MOL0     C53771   2.011   4.910   9.959 -0.6192  0.2499 -0.4817
  399MOL0     C53772   2.016   4.960   9.808 -1.3817 -0.0771  0.2056
  399MOL0     C53773   2.054   5.103   9.797 -0.7124  0.6878 -0.4954
  399MOL0    Cl53774   1.932   5.203   9.872 -0.3406  0.2120  0.0364
  399MOL0     C53775   2.307   4.479   9.505  0.4653 -0.3346  1.2644
  399MOL0     C53776   2.339   4.503   9.372  0.1744  0.0672  0.0265
  399MOL0     O53777   2.472   4.817   9.223 -0.4666  0.3460 -0.2547
  399MOL0     C53778   2.581   4.845   8.963 -0.4995  0.1084  0.6084
  399MOL0     C53779   2.611   4.870   8.828 -0.1329 -0.1446 -0.9496
  399MOL0     N53780   2.660   4.951   8.031  0.5703  0.1063  0.5485
  399MOL0     N53781   2.593   4.926   7.924 -0.1616 -0.5517  0.2108
  399MOL0     C53782   2.566   5.042   6.923  0.1776 -0.0474  0.2930
  399MOL0     C53783   2.514   5.092   6.806 -0.4335 -0.3025 -0.2476
  399MOL0     C53784   2.372   5.229   6.436 -0.8680 -0.1693 -1.0006
  399MOL0     C53785   2.486   5.246   6.353 -0.6799  0.2807  0.0681
  399MOL0     C53786   2.492   5.337   6.245  0.4949  0.4692  0.8878
  399MOL0     C53787   2.380   5.411   6.214 -0.8621 -0.6768 -0.0335
  399MOL0     O53788   2.401   5.497   6.107  0.4431 -0.9872  0.7813
  399MOL0     C53789   2.313   5.608   6.091  0.9657 -0.6651  0.2920
  399MOL0     C53790   2.175   5.556   6.027 -0.5552 -0.2753 -0.3216
  399MOL0     C53791   2.153   5.602   5.881  0.5263 -0.0469 -0.2288
  399MOL0     C53792   2.068   5.498   5.802 -0.1860  0.7318 -0.0877
  399MOL0     C53793   1.934   5.444   5.858 -0.2369 -0.5729 -0.0505
  399MOL0     C53794   1.825   5.417   5.910  0.2392  0.1421 -0.1477
  399MOL0     C53795   2.264   5.401   6.302 -0.8773 -1.0769  0.1956
  399MOL0     C53796   2.256   5.311   6.409  0.2433 -0.5073 -1.8640
  399MOL0     C53797   2.126   5.307   6.487 -0.1084  0.0060 -0.4236
  399MOL0     H53798   2.700   4.877   6.607  1.2807  0.4740  0.2897
  399MOL0     H53799   2.752   4.776   6.822  2.2386  1.0863  2.1803
  399MOL0     H53800   2.786   5.100   7.062 -1.1070 -1.0083 -1.1116
  399MOL0     H53801   2.677   5.059   7.181 -0.5910  2.1001 -1.3614
  399MOL0     H53802   2.918   5.059   7.279  0.5346 -1.3724  0.6883
  399MOL0     H53803   2.947   4.918   7.170  3.2939  3.6244 -1.0444
  399MOL0     H53804   2.762   4.809   7.309 -0.2258 -0.5085  0.3880
  399MOL0     H53805   2.726   4.970   7.381  0.7195  0.3634 -0.0573
  399MOL0     H53806   3.002   4.829   7.397  0.7783  2.3969 -0.6772
  399MOL0     H53807   2.948   4.955   7.508 -1.5303 -0.1682  1.1510
  399MOL0     H53808   2.873   4.649   7.514  2.4502 -1.1973  1.6134
  399MOL0     H53809   2.942   4.746   7.644 -1.9679  0.3570  0.4901
  399MOL0     H53810   2.742   4.895   7.674 -1.1984  0.6252  0.3755
  399MOL0     H53811   2.665   4.813   7.547  0.6084  3.0889  0.1843
  399MOL0     H53812   2.774   4.697   7.803 -0.2195  2.6188  0.6307
  399MOL0     H53813   2.697   4.588   7.684  2.2077 -1.2582  0.8395
  399MOL0     H53814   2.497   4.782   7.703  1.0361 -0.2880 -1.0134
  399MOL0     H53815   2.494   4.632   7.790  0.5108 -0.9927 -5.1965
  399MOL0     H53816   2.659   4.630   8.044 -0.2498  0.7987  0.2461
  399MOL0     H53817   2.834   4.727   8.200  1.5159  1.8005 -1.6344
  399MOL0     H53818   2.799   4.893   8.251  1.0574 -1.7242  2.3631
  399MOL0     H53819   2.648   4.649   8.314  1.2183 -0.1786  0.6157
  399MOL0     H53820   2.738   4.762   8.420 -0.1284 -0.1336 -1.5206
  399MOL0     H53821   2.464   4.854   8.293  1.1031 -0.5367 -1.9409
  399MOL0     H53822   2.592   4.946   8.360 -0.8736  0.5419 -1.9139
  399MOL0     H53823   2.402   4.764   8.504 -0.3784 -0.7359 -2.4629
  399MOL0     H53824   2.438   4.940   8.516  1.5397  0.0852  2.5398
  399MOL0     H53825   2.352   4.706   8.682 -2.6492  3.1032  1.7723
  399MOL0     H53826   2.308   4.651   8.920 -0.8511  2.6713  1.6005
  399MOL0     H53827   2.258   4.831   9.342  3.2771  0.7762 -1.8170
  399MOL0     H53828   2.197   4.802   9.573 -0.6236 -0.8175  0.5295
  399MOL0     H53829   2.186   4.395   9.737  1.6883 -0.4517 -1.7890
  399MOL0     H53830   2.348   4.414   9.782  0.9396 -0.2785 -1.0765
  399MOL0     H53831   2.137   4.421   9.959  1.4031 -1.8877 -1.5970
  399MOL0     H53832   2.302   4.488   9.973 -0.4238  4.1881  3.4208
  399MOL0     H53833   2.141   4.648  10.068  2.4235  2.3343 -0.5616
  399MOL0     H53834   2.221   4.713   9.913  0.4278  0.8672  0.4664
  399MOL0     H53835   1.964   4.562   9.932  0.8606 -0.5588 -0.1233
  399MOL0     H53836   2.012   4.684   9.807 -0.8721 -0.5946 -0.8695
  399MOL0     H53837   1.926   4.756  10.080  1.0651  2.2028  0.9073
  399MOL0     H53838   1.841   4.787   9.926 -0.0740 -0.9375 -0.0222
  399MOL0     H53839   1.962   4.990  10.017  0.8910  0.6138  0.3372
  399MOL0     H53840   2.105   4.900  10.014 -1.0927 -1.0692  0.1143
  399MOL0     H53841   1.924   4.942   9.752  1.1650 -0.4423 -4.3332
  399MOL0     H53842   2.101   4.905   9.768  0.7865  2.0797  1.5256
  399MOL0     H53843   2.153   5.114   9.843 -1.9991  0.7497  2.4617
  399MOL0     H53844   2.058   5.125   9.690 -2.8402 -0.6000 -0.8850
  399MOL0     H53845   2.344   4.390   9.555  0.2644  0.0943  2.2081
  399MOL0     H53846   2.395   4.427   9.318  1.2962  0.0484  1.1731
  399MOL0     H53847   2.644   4.881   9.044 -1.7419  0.5486  1.3990
  399MOL0     H53848   2.699   4.934   8.822  0.4342 -0.6163  1.3817
  399MOL0     H53849   2.532   5.067   7.022 -3.3838  1.4745 -1.1405
  399MOL0     H53850   2.448   5.177   6.818  0.8178  0.6305  0.3460
  399MOL0     H53851   2.570   5.178   6.345  0.5343  1.3142  2.7133
  399MOL0     H53852   2.569   5.345   6.170  0.9115 -0.5864  1.1891
  399MOL0     H53853   2.347   5.674   6.010 -3.0256  1.8193  0.3235
  399MOL0     H53854   2.310   5.684   6.170  0.3925  3.3564 -3.2275
  399MOL0     H53855   2.084   5.586   6.080  0.6199  0.1859  1.5163
  399MOL0     H53856   2.190   5.448   6.026  3.5471  0.1059 -2.2398
  399MOL0     H53857   2.244   5.608   5.821  0.9807 -1.7792  0.2178
  399MOL0     H53858   2.109   5.702   5.887  2.4137  1.1579 -3.5547
  399MOL0     H53859   2.050   5.551   5.708  3.2022  1.2149 -0.5742
  399MOL0     H53860   2.134   5.413   5.786  0.5648  0.7656  2.3277
  399MOL0     H53861   1.730   5.381   5.945 -0.4605  2.5862  0.7047
  399MOL0     H53862   2.177   5.461   6.276  1.1280  1.7692 -0.3823
  399MOL0     H53863   2.036   5.327   6.429 -1.8305 -3.5358  0.7124
  399MOL0     H53864   2.098   5.205   6.515  0.0529  0.0175 -0.2165
  399MOL0     H53865   2.132   5.368   6.577  4.0361 -3.4870  2.0708
  400MOL0     O53866   8.783   4.424  10.229  0.2621  0.1974 -0.5996
  400MOL0     C53867   8.877   4.494  10.254  0.5866  0.6027 -0.0324
  400MOL0     O53868   8.961   4.482  10.367  0.2707  0.2844 -0.2058
  400MOL0     C53869   8.930   4.379  10.449  0.7125 -0.0915  0.1187
  400MOL0     C53870   9.023   4.280  10.467 -0.2420 -1.1388  0.0844
  400MOL0     C53871   9.018   4.188  10.569  1.1551 -0.7189  0.4293
  400MOL0     C53872   8.901   4.187  10.655  0.7596 -0.6065 -0.0861
  400MOL0     O53873   8.888   4.079  10.747 -0.2522 -0.0054  0.8169
  400MOL0     C53874   8.832   4.117  10.872 -0.4243  0.5416  0.4014
  400MOL0     C53875   8.831   4.002  10.974  0.3686 -1.1778 -0.4748
  400MOL0     C53876   8.970   3.954  11.029  0.2238 -0.8249 -0.7843
  400MOL0     C53877   8.958   3.841  11.134  0.7168  0.0262 -1.6090
  400MOL0     C53878   9.096   3.840  11.212 -0.4618  1.1393 -0.7300
  400MOL0     C53879   9.094   3.707  11.292 -0.3418 -0.5292 -0.2326
  400MOL0     C53880   9.238   3.645  11.301  0.5317  1.2649 -0.0816
  400MOL0     C53881   9.254   3.539  11.411 -0.8012 -0.5943 -1.1100
  400MOL0     N53882   9.170   3.420  11.409 -0.7783 -0.2638  0.6804
  400MOL0     C53883   9.195   3.307  11.333 -0.2287  0.3498  0.6028
  400MOL0     C53884   9.096   3.227  11.359 -0.4396  0.5579 -0.2833
  400MOL0     C53885   9.104   3.084  11.328  0.0958 -0.0762  0.7496
  400MOL0     C53886   8.993   3.048  11.222 -0.1384  0.1566 -0.5869
  400MOL0     C53887   8.999   2.897  11.177  0.9010  0.5653  0.4388
  400MOL0     C53888   8.959   2.875  11.031 -0.6423 -0.3760  1.4912
  400MOL0     O53889   8.998   2.749  10.977  0.4556 -0.1519 -0.4668
  400MOL0     C53890   9.039   2.772  10.855 -0.2263  1.0957  0.4857
  400MOL0     C53891   9.173   2.722  10.834 -1.2195 -1.2650 -0.4208
  400MOL0     C53892   9.233   2.731  10.714  0.2127  0.8647  0.6488
  400MOL0     C53893   9.159   2.781  10.603 -0.7961  0.3705 -0.5710
  400MOL0     C53894   9.228   2.791  10.472  1.0276  0.4123  0.5940
  400MOL0     O53895   9.365   2.813  10.476 -0.4507 -0.0602  0.0319
  400MOL0     C53896   9.443   2.821  10.358  0.0720  0.2986 -0.3407
  400MOL0     C53897   9.563   2.769  10.374 -0.2922  0.2067  0.6882
  400MOL0     C53898   9.654   2.758  10.265  0.5781  0.3195 -0.2101
  400MOL0     C53899   9.633   2.823  10.138  0.4902  0.2359  0.3185
  400MOL0     O53900   9.737   2.826  10.049  0.0175 -0.5182  0.8949
  400MOL0     C53901   9.742   2.924   9.937 -1.1424  0.2551 -0.7934
  400MOL0     C53902   9.821   3.053   9.966  0.0294  0.0453  0.2776
  400MOL0     C53903   9.746   3.164  10.047  0.6923  0.4844 -0.2447
  400MOL0     C53904   9.640   3.235   9.963  0.8110 -0.8729  0.7421
  400MOL0     C53905   9.564   3.349  10.044 -0.9578  0.8760 -0.6442
  400MOL0     C53906   9.450   3.426   9.975 -1.1721 -0.2348 -0.0666
  400MOL0     C53907   9.478   3.510   9.849  0.2904 -0.1275 -0.5182
  400MOL0     C53908   9.606   3.582   9.870  1.2322 -0.6762  0.9773
  400MOL0    Cl53909   9.651   3.677   9.720  0.0027  0.4246  0.1787
  400MOL0     C53910   9.514   2.896  10.139 -0.4804  0.6484 -0.0718
  400MOL0     C53911   9.415   2.885  10.239  0.0425  0.8297 -0.6755
  400MOL0     O53912   9.155   2.791  10.370 -0.6883  0.4384  0.5158
  400MOL0     C53913   9.031   2.815  10.617 -0.2709  0.9723  0.0247
  400MOL0     C53914   8.963   2.811  10.743  0.5369 -0.3236 -0.4252
  400MOL0     N53915   9.000   3.288  11.438  0.4898 -0.3358  0.1712
  400MOL0     N53916   9.042   3.413  11.457 -0.9535 -0.2254 -0.1613
  400MOL0     C53917   8.805   4.285  10.637  0.6142  0.0318  0.8315
  400MOL0     C53918   8.820   4.381  10.532 -0.5926 -0.0831 -0.5819
  400MOL0     C53919   8.898   4.613  10.167 -0.2793  0.5791 -0.0018
  400MOL0     C53920   8.977   4.716  10.220 -0.0123  0.2722 -0.6617
  400MOL0     C53921   8.987   4.836  10.153 -0.3395  0.1583 -0.0452
  400MOL0     C53922   8.928   4.850  10.026  0.8388 -0.4783  0.1479
  400MOL0     O53923   8.956   4.960   9.947  0.4830 -0.2947 -0.7757
  400MOL0     C53924   8.848   5.047   9.913 -0.7197  0.0449 -0.8193
  400MOL0     C53925   8.855   5.105   9.778 -0.3738  0.1109  1.2161
  400MOL0     C53926   9.002   5.170   9.753  0.1029  0.4112  0.4718
  400MOL0     C53927   9.021   5.243   9.616 -0.3414  0.0244  0.1269
  400MOL0     C53928   9.033   5.158   9.500  0.4298  0.6458  0.2551
  400MOL0     C53929   9.044   5.068   9.419 -0.2928 -1.1465  0.4837
  400MOL0     C53930   8.852   4.751   9.970  0.5318  0.3957  0.4375
  400MOL0     C53931   8.846   4.630  10.030  0.3365  0.3877 -0.0412
  400MOL0     C53932   8.776   4.521   9.951  0.8378  0.2842  0.6403
  400MOL0     H53933   9.104   4.284  10.394  0.1260 -0.8247  0.5067
  400MOL0     H53934   9.097   4.115  10.585  0.5024 -1.5035  0.1376
  400MOL0     H53935   8.893   4.202  10.903  0.6801  2.1470 -5.0100
  400MOL0     H53936   8.729   4.153  10.861  0.1294  1.6215 -1.9584
  400MOL0     H53937   8.788   3.915  10.923 -0.4600  0.1953 -2.1907
  400MOL0     H53938   8.763   4.040  11.051  1.0937  0.0983 -0.4453
  400MOL0     H53939   9.026   4.037  11.073 -0.1431 -1.2095  0.4588
  400MOL0     H53940   9.022   3.924  10.937 -0.7400 -0.0108 -1.6066
  400MOL0     H53941   8.888   3.874  11.211  1.5483 -1.7621 -0.0330
  400MOL0     H53942   8.930   3.747  11.088 -4.2015  1.4393 -2.0260
  400MOL0     H53943   9.177   3.834  11.139 -1.6362  2.3226 -2.2162
  400MOL0     H53944   9.119   3.933  11.266  1.9070  0.1050  0.1696
  400MOL0     H53945   9.060   3.736  11.392 -1.0652  3.0163 -1.3589
  400MOL0     H53946   9.031   3.630  11.248 -0.4938 -0.3158 -0.3929
  400MOL0     H53947   9.312   3.725  11.307  1.5227  0.7278 -3.2618
  400MOL0     H53948   9.269   3.602  11.206  1.6073 -0.3043  0.9257
  400MOL0     H53949   9.359   3.509  11.401 -0.6886  0.2138 -2.7698
  400MOL0     H53950   9.235   3.586  11.508 -1.2923 -1.1245 -0.9485
  400MOL0     H53951   9.278   3.274  11.271  0.5228  0.4137  1.5593
  400MOL0     H53952   9.208   3.056  11.308  0.3419  2.0629 -1.2878
  400MOL0     H53953   9.065   3.031  11.415 -0.4496 -2.8100 -1.0231
  400MOL0     H53954   8.902   3.065  11.280 -0.6239 -1.1216 -0.9533
  400MOL0     H53955   8.993   3.119  11.138 -0.8588 -0.6045 -1.2469
  400MOL0     H53956   8.929   2.838  11.238  0.3651  0.2389 -0.4744
  400MOL0     H53957   9.097   2.854  11.199  3.2061  4.0965 -1.8770
  400MOL0     H53958   9.016   2.957  10.986 -0.8423 -1.7046 -1.3918
  400MOL0     H53959   8.851   2.883  11.016 -0.6222 -3.7773 -2.1843
  400MOL0     H53960   9.231   2.683  10.917  1.4468  2.0007 -0.5203
  400MOL0     H53961   9.324   2.686  10.675 -2.4021 -2.8295 -1.8153
  400MOL0     H53962   9.585   2.717  10.468 -2.9532 -2.2530  0.0970
  400MOL0     H53963   9.734   2.688  10.286 -0.6532  0.0862  4.8973
  400MOL0     H53964   9.789   2.868   9.856 -0.1793 -3.1401  1.8757
  400MOL0     H53965   9.638   2.941   9.907 -1.5312 -1.9333 -0.8310
  400MOL0     H53966   9.917   3.028  10.012 -0.4741 -2.1723  0.1926
  400MOL0     H53967   9.835   3.094   9.866 -0.5053 -2.0685 -0.7098
  400MOL0     H53968   9.689   3.118  10.128  3.2181  0.0095  1.3406
  400MOL0     H53969   9.812   3.246  10.075 -1.3746  1.8691  0.8757
  400MOL0     H53970   9.568   3.163   9.924 -0.6889  1.1616 -0.5008
  400MOL0     H53971   9.675   3.278   9.868 -1.8074  0.6919  0.3892
  400MOL0     H53972   9.632   3.417  10.095 -2.3257  0.1828  2.2882
  400MOL0     H53973   9.511   3.293  10.122 -0.0150 -1.2996 -1.4930
  400MOL0     H53974   9.371   3.353   9.957  0.9577 -2.7339  0.1133
  400MOL0     H53975   9.409   3.490  10.053 -2.9682 -2.9632  1.3767
  400MOL0     H53976   9.402   3.588   9.837  2.4335  2.5277  1.6941
  400MOL0     H53977   9.478   3.438   9.767 -1.8552 -1.5780  0.6509
  400MOL0     H53978   9.604   3.639   9.963 -1.2845 -2.8944  2.4433
  400MOL0     H53979   9.677   3.499   9.874 -0.0334 -2.1653 -2.7015
  400MOL0     H53980   9.479   2.955  10.054 -0.3138 -0.2711 -0.7955
  400MOL0     H53981   9.321   2.928  10.209 -0.0077  1.0171 -0.2548
  400MOL0     H53982   8.982   2.861  10.531  0.7908  2.2503  0.0680
  400MOL0     H53983   8.859   2.836  10.761 -0.1699 -1.3120 -2.8135
  400MOL0     H53984   8.712   4.288  10.693 -1.2641 -4.5999 -1.4660
  400MOL0     H53985   8.748   4.460  10.514  2.7030  3.3696  0.1780
  400MOL0     H53986   9.018   4.701  10.320 -0.8032 -0.1083 -0.3876
  400MOL0     H53987   9.046   4.912  10.203 -1.4665 -0.2463  2.0165
  400MOL0     H53988   8.859   5.129   9.985 -0.7601  0.0821 -0.8557
  400MOL0     H53989   8.755   4.991   9.930  0.5337 -2.3966 -1.5262
  400MOL0     H53990   8.776   5.180   9.773 -3.5295 -2.8527  2.4605
  400MOL0     H53991   8.840   5.024   9.706 -3.1107  1.6126 -0.0727
  400MOL0     H53992   9.089   5.105   9.770 -0.2387  0.3209  1.9857
  400MOL0     H53993   9.007   5.238   9.838 -2.1465  1.4686 -0.1695
  400MOL0     H53994   8.942   5.319   9.615 -0.5545 -0.1887 -1.2142
  400MOL0     H53995   9.112   5.300   9.637 -0.2476 -0.9254  2.6217
  400MOL0     H53996   9.056   5.002   9.336 -0.7932  0.8291 -1.2486
  400MOL0     H53997   8.803   4.762   9.874  0.3178  2.4569  0.7447
  400MOL0     H53998   8.809   4.422   9.982 -2.4646 -0.4115  2.3692
  400MOL0     H53999   8.671   4.512   9.980  1.4124 -1.0680  2.4862
  400MOL0     H54000   8.798   4.545   9.847  0.0270  3.1706  1.0406
  401MOL0     O54001   0.753   7.385   1.187  0.2651 -0.9219  0.2822
  401MOL0     C54002   0.726   7.495   1.134  0.2804  0.1540  0.1464
  401MOL0     O54003   0.779   7.605   1.178 -1.1237 -0.2630 -0.1193
  401MOL0     C54004   0.836   7.603   1.300 -0.0624  0.3883 -1.0134
  401MOL0     C54005   0.969   7.567   1.312 -0.1469 -0.0771  0.0909
  401MOL0     C54006   1.028   7.585   1.442 -0.0016 -0.3816 -0.4719
  401MOL0     C54007   0.948   7.613   1.558  0.0101  0.6869 -0.0014
  401MOL0     O54008   0.990   7.632   1.687 -0.5757  0.0550 -0.0733
  401MOL0     C54009   1.113   7.575   1.716 -0.4537 -0.0921 -0.5107
  401MOL0     C54010   1.135   7.589   1.868  0.5665 -0.3292 -0.1907
  401MOL0     C54011   1.258   7.502   1.911  0.2713 -0.6077  0.2707
  401MOL0     C54012   1.235   7.354   1.934 -0.1606  0.9421 -0.4627
  401MOL0     C54013   1.322   7.279   2.042 -0.6243 -0.5927 -1.1624
  401MOL0     C54014   1.311   7.128   2.026  0.2336 -0.2056 -0.2466
  401MOL0     C54015   1.405   7.079   1.910  0.9601 -0.3337 -0.7270
  401MOL0     C54016   1.413   6.930   1.915  0.6614  0.2637 -0.3462
  401MOL0     N54017   1.524   6.881   1.827 -0.2638  0.4420  0.6415
  401MOL0     C54018   1.652   6.913   1.856 -0.0044 -0.1819  0.3983
  401MOL0     C54019   1.726   6.812   1.806 -0.0934  0.7065  0.0601
  401MOL0     C54020   1.880   6.796   1.814 -0.0459 -0.4564  0.6795
  401MOL0     C54021   1.926   6.730   1.938  0.1550  0.3296 -0.1004
  401MOL0     C54022   2.073   6.679   1.937  0.1407  0.6565 -1.2364
  401MOL0     C54023   2.098   6.607   2.071 -0.0616  0.4654 -0.5283
  401MOL0     O54024   2.241   6.564   2.065  0.3655  0.7089  1.1099
  401MOL0     C54025   2.271   6.435   2.018  0.2382  0.2747  0.1836
  401MOL0     C54026   2.179   6.345   1.963 -0.5155 -0.4925 -0.2046
  401MOL0     C54027   2.218   6.219   1.921 -0.6789  0.0624 -0.5804
  401MOL0     C54028   2.354   6.172   1.930  0.7034 -0.7389 -0.8175
  401MOL0     C54029   2.399   6.048   1.870 -0.9800  0.1819 -0.8088
  401MOL0     O54030   2.532   6.035   1.851 -1.3484 -0.7708 -0.0262
  401MOL0     C54031   2.577   5.927   1.786 -0.1325  0.2925  0.6140
  401MOL0     C54032   2.555   5.795   1.810 -0.0231 -0.2486 -0.1955
  401MOL0     C54033   2.621   5.694   1.741 -0.0001  0.2626 -0.7557
  401MOL0     C54034   2.722   5.727   1.651 -0.1647 -0.8902  0.0663
  401MOL0     O54035   2.775   5.626   1.572  0.4289 -0.1377  0.3933
  401MOL0     C54036   2.910   5.629   1.552 -0.1966 -0.7645  0.3711
  401MOL0     C54037   2.947   5.497   1.475 -0.4918 -0.3275  0.1459
  401MOL0     C54038   2.990   5.389   1.570  0.0541  0.2319 -0.9205
  401MOL0     C54039   3.121   5.315   1.523  0.7852 -0.5324 -0.1365
  401MOL0     C54040   3.244   5.380   1.576 -0.5471 -0.4564  0.1736
  401MOL0     C54041   3.371   5.322   1.511 -0.3079 -0.4585  0.1074
  401MOL0     C54042   3.498   5.385   1.576 -0.6854 -0.3603  0.1805
  401MOL0     C54043   3.623   5.316   1.519  0.0587 -0.0037 -1.0191
  401MOL0    Cl54044   3.755   5.391   1.608 -0.2490 -0.0086  0.2955
  401MOL0     C54045   2.744   5.862   1.616 -0.5060  0.6079  1.0862
  401MOL0     C54046   2.668   5.964   1.682 -0.8400  0.0169  0.3282
  401MOL0     O54047   2.318   5.970   1.826 -0.3513 -0.1023 -0.2362
  401MOL0     C54048   2.445   6.263   1.993  0.3837  0.5349 -0.5781
  401MOL0     C54049   2.401   6.389   2.037  0.1277 -0.2310 -0.4865
  401MOL0     N54050   1.640   6.715   1.751 -0.5087  0.2163  0.0317
  401MOL0     N54051   1.519   6.761   1.753  0.2190  0.6894  0.2902
  401MOL0     C54052   0.816   7.635   1.533 -0.3039 -0.8550  0.3118
  401MOL0     C54053   0.762   7.640   1.412  0.3740  0.3672  0.5949
  401MOL0     C54054   0.642   7.506   1.016  0.0425  0.4100 -0.3687
  401MOL0     C54055   0.628   7.397   0.935  0.2092 -0.2177 -0.1460
  401MOL0     C54056   0.561   7.404   0.812 -0.4515  1.0235 -0.6924
  401MOL0     C54057   0.513   7.511   0.764 -0.1530 -0.1342  0.4453
  401MOL0     O54058   0.451   7.530   0.645  0.5211  0.5894  0.1988
  401MOL0     C54059   0.367   7.427   0.581  0.1313  0.6279  0.4138
  401MOL0     C54060   0.266   7.487   0.487  0.8388  0.2645  0.2669
  401MOL0     C54061   0.192   7.371   0.419 -0.9289  0.7040 -0.3656
  401MOL0     C54062   0.132   7.424   0.286  0.0654  0.9032 -0.1861
  401MOL0     C54063   0.052   7.318   0.232  0.4561 -0.9780 -0.3136
  401MOL0     C54064  -0.016   7.226   0.201  1.0055  0.6157 -2.1001
  401MOL0     C54065   0.532   7.631   0.836 -0.4070 -0.2811 -1.1526
  401MOL0     C54066   0.587   7.631   0.968  0.3763  1.2236  0.1336
  401MOL0     C54067   0.580   7.757   1.051 -0.7098 -0.5084  0.5169
  401MOL0     H54068   1.031   7.559   1.223  1.9812 -1.5553  1.5940
  401MOL0     H54069   1.136   7.596   1.440 -0.0170 -0.3139 -1.1672
  401MOL0     H54070   1.110   7.468   1.693  2.7242 -0.8044  1.7720
  401MOL0     H54071   1.196   7.626   1.666 -2.2052  2.2279 -1.2686
  401MOL0     H54072   1.045   7.553   1.920  1.0527 -2.9095 -0.9959
  401MOL0     H54073   1.164   7.691   1.894  0.7554 -0.7399  1.2854
  401MOL0     H54074   1.303   7.547   2.000  0.3416  2.0772 -1.0271
  401MOL0     H54075   1.334   7.511   1.833  1.1116  0.8206  1.2039
  401MOL0     H54076   1.131   7.358   1.968  0.8534  1.5560  2.9816
  401MOL0     H54077   1.244   7.303   1.838 -0.0787  0.5336 -0.2378
  401MOL0     H54078   1.422   7.317   2.022  0.5608 -1.7764  1.8936
  401MOL0     H54079   1.304   7.304   2.147 -1.6872 -2.1270 -0.9315
  401MOL0     H54080   1.367   7.088   2.112  1.7219 -0.4781 -1.3009
  401MOL0     H54081   1.207   7.096   2.020 -0.7001  2.6690 -0.7566
  401MOL0     H54082   1.500   7.129   1.931  1.0500 -0.8449  0.1247
  401MOL0     H54083   1.356   7.094   1.814 -2.1049 -2.1740  0.3873
  401MOL0     H54084   1.434   6.894   2.016  1.1258  0.3900 -0.3930
  401MOL0     H54085   1.327   6.875   1.878  0.8284 -0.7862  0.7668
  401MOL0     H54086   1.683   6.999   1.915 -2.7039  0.6121  0.8332
  401MOL0     H54087   1.929   6.747   1.730  2.8664  0.2131  1.8550
  401MOL0     H54088   1.930   6.893   1.818  0.9179 -0.9626  1.1480
  401MOL0     H54089   1.895   6.798   2.018 -3.0841  2.6025 -2.9926
  401MOL0     H54090   1.858   6.645   1.938 -0.2655  0.6583  0.2963
  401MOL0     H54091   2.128   6.772   1.924 -0.4840  0.6681 -5.1683
  401MOL0     H54092   2.111   6.614   1.857  5.0290  1.9305 -0.2312
  401MOL0     H54093   2.025   6.526   2.079 -1.3348  1.6062 -0.3015
  401MOL0     H54094   2.094   6.660   2.167  3.0853 -1.5348  0.8913
  401MOL0     H54095   2.076   6.371   1.943 -0.0674 -0.1536 -2.3832
  401MOL0     H54096   2.143   6.143   1.904 -1.2620  1.1418 -3.4403
  401MOL0     H54097   2.485   5.768   1.889  0.8433 -3.5845 -0.4039
  401MOL0     H54098   2.603   5.592   1.772  3.4830 -0.1119  0.4799
  401MOL0     H54099   2.933   5.717   1.492  1.6192 -2.1537 -1.1162
  401MOL0     H54100   2.956   5.636   1.651  2.2288  2.7302 -0.8074
  401MOL0     H54101   2.864   5.455   1.418  1.5024 -2.7094 -1.1952
  401MOL0     H54102   3.023   5.525   1.400 -0.3859 -0.4169  0.2196
  401MOL0     H54103   3.008   5.423   1.673  0.2299 -2.3140 -0.0336
  401MOL0     H54104   2.916   5.308   1.575  0.1931  0.1234 -0.6094
  401MOL0     H54105   3.117   5.305   1.414  2.7289  0.1941 -0.3152
  401MOL0     H54106   3.129   5.214   1.565  0.6191 -2.3174 -3.9789
  401MOL0     H54107   3.251   5.370   1.685 -1.0324  1.3284  0.3899
  401MOL0     H54108   3.235   5.485   1.549  1.2116  0.0800  1.4872
  401MOL0     H54109   3.373   5.214   1.523  0.2551 -0.3319  1.3004
  401MOL0     H54110   3.362   5.347   1.405  0.3940  1.3322  0.4315
  401MOL0     H54111   3.504   5.383   1.685  1.3768 -1.1785  0.0962
  401MOL0     H54112   3.517   5.490   1.551  4.3217  0.1575  4.3137
  401MOL0     H54113   3.605   5.208   1.527  0.4000  0.0757  1.2243
  401MOL0     H54114   3.639   5.335   1.412 -2.3964 -1.0717 -1.6467
  401MOL0     H54115   2.828   5.881   1.550  0.4884 -1.0034  1.8305
  401MOL0     H54116   2.690   6.063   1.644 -3.3708 -0.4458 -2.8363
  401MOL0     H54117   2.545   6.223   2.006 -0.3953 -0.9472  1.5459
  401MOL0     H54118   2.482   6.447   2.079  2.3802 -2.9105 -0.8519
  401MOL0     H54119   0.748   7.646   1.617  0.0392 -0.5064  0.5448
  401MOL0     H54120   0.655   7.653   1.402  0.4033  1.4736  1.5927
  401MOL0     H54121   0.670   7.307   0.980 -2.8364 -0.5627  2.4590
  401MOL0     H54122   0.546   7.307   0.765 -1.2645 -0.7889  2.9604
  401MOL0     H54123   0.305   7.381   0.659 -3.7321 -1.0330 -3.2565
  401MOL0     H54124   0.433   7.351   0.537 -1.5304  1.1168 -3.2423
  401MOL0     H54125   0.322   7.535   0.406  0.6301  2.2923  1.2408
  401MOL0     H54126   0.192   7.552   0.535 -2.8247 -3.3079 -0.0409
  401MOL0     H54127   0.114   7.328   0.483  2.2083  0.2806  3.5524
  401MOL0     H54128   0.264   7.293   0.393 -1.8371 -0.6959  1.1183
  401MOL0     H54129   0.068   7.511   0.300  0.6599  1.2882  0.1783
  401MOL0     H54130   0.206   7.460   0.213 -1.4044  3.2950 -0.5788
  401MOL0     H54131  -0.085   7.144   0.191 -0.9233  1.0031  3.9680
  401MOL0     H54132   0.484   7.721   0.800 -1.7388  0.9037  3.0785
  401MOL0     H54133   0.570   7.742   1.159  2.1829  0.7681  1.0663
  401MOL0     H54134   0.670   7.815   1.028 -1.1110 -0.2516 -0.4883
  401MOL0     H54135   0.495   7.819   1.021  1.5174  2.9375  0.6920
  402MOL0     O54136   8.450  11.346   5.292  0.0164  0.4275  0.5522
  402MOL0     C54137   8.432  11.458   5.331 -0.1034 -0.3001 -0.1871
  402MOL0     O54138   8.494  11.512   5.442 -0.1843  0.1002  0.1626
  402MOL0     C54139   8.581  11.438   5.509  0.2329  0.7307  0.2733
  402MOL0     C54140   8.543  11.370   5.624  0.0531  0.6982  0.6026
  402MOL0     C54141   8.623  11.263   5.680  0.5303  0.4301 -1.0296
  402MOL0     C54142   8.743  11.228   5.623 -0.5655 -0.0054  0.0554
  402MOL0     O54143   8.820  11.128   5.685 -0.6557  0.5069  0.8448
  402MOL0     C54144   8.886  11.045   5.591 -0.1088 -0.1579  0.6096
  402MOL0     C54145   9.035  11.013   5.629  0.1942  0.2507 -0.3374
  402MOL0     C54146   9.033  10.956   5.773 -0.3269 -0.7829  0.1373
  402MOL0     C54147   9.138  10.844   5.794 -0.0418  0.3236  0.1863
  402MOL0     C54148   9.124  10.776   5.935 -0.0308 -0.7309  0.6362
  402MOL0     C54149   9.097  10.869   6.049  0.3835 -0.3903  1.1180
  402MOL0     C54150   9.210  10.974   6.086 -0.2110 -0.2244  0.7480
  402MOL0     C54151   9.178  11.028   6.226  0.5178 -1.3792 -0.3101
  402MOL0     N54152   9.303  11.084   6.278 -0.1755  0.4466  0.2794
  402MOL0     C54153   9.423  11.018   6.316 -0.2281 -0.4497  0.1663
  402MOL0     C54154   9.508  11.111   6.365  0.5763 -0.2383 -0.8901
  402MOL0     C54155   9.644  11.091   6.418  0.0725  0.3664 -1.1675
  402MOL0     C54156   9.704  11.211   6.505  0.7697  0.7008 -0.2542
  402MOL0     C54157   9.855  11.215   6.500  0.2151  0.2150 -0.6593
  402MOL0     C54158   9.920  11.325   6.576  0.4040 -0.2172  0.3189
  402MOL0     O54159   9.838  11.373   6.684  0.4909  0.4074 -0.4481
  402MOL0     C54160   9.831  11.512   6.689 -0.4253  0.2894 -0.7003
  402MOL0     C54161   9.942  11.595   6.650  0.7318  0.1574  0.6622
  402MOL0     C54162   9.929  11.739   6.659  0.2498  0.6260  0.1165
  402MOL0     C54163   9.813  11.800   6.712 -0.1073  0.2174 -0.3368
  402MOL0     C54164   9.803  11.945   6.729  0.7845  0.9122 -0.5917
  402MOL0     O54165   9.684  11.995   6.782  0.3565  0.0490 -0.4471
  402MOL0     C54166   9.710  12.094   6.879  0.2268  0.4313 -0.2753
  402MOL0     C54167   9.728  12.233   6.848  0.7445 -0.3454  0.7500
  402MOL0     C54168   9.727  12.338   6.949 -0.3711  1.0795  0.1912
  402MOL0     C54169   9.729  12.295   7.083  0.4395  1.1704  0.5031
  402MOL0     O54170   9.718  12.395   7.180  0.1197 -0.8961  0.3019
  402MOL0     C54171   9.707  12.536   7.145  0.6120  0.3960 -0.2295
  402MOL0     C54172   9.662  12.600   7.278 -0.5966 -0.5746 -0.8105
  402MOL0     C54173   9.686  12.754   7.250  1.2382  0.3218 -0.2354
  402MOL0     C54174   9.617  12.839   7.363 -0.6146  0.8728  0.1192
  402MOL0     C54175   9.684  12.820   7.508  0.9684  0.5811  0.4285
  402MOL0     C54176   9.602  12.882   7.628  0.5368 -0.1543 -0.1351
  402MOL0     C54177   9.680  12.866   7.762 -0.5856 -0.3630  0.0777
  402MOL0     C54178   9.582  12.925   7.870 -0.0049  0.2336 -0.5926
  402MOL0    Cl54179   9.650  12.896   8.037  0.0651  0.2237  0.4642
  402MOL0     C54180   9.704  12.157   7.105 -0.6432  0.3177 -0.9901
  402MOL0     C54181   9.706  12.056   7.007 -0.1754 -0.2784 -0.7734
  402MOL0     O54182   9.891  12.010   6.672 -0.5873 -0.9079  1.0091
  402MOL0     C54183   9.711  11.708   6.757 -0.9552 -0.6786  0.3414
  402MOL0     C54184   9.717  11.572   6.756 -0.4456  1.3607  1.5424
  402MOL0     N54185   9.446  11.235   6.360  0.6085  0.0382  0.5481
  402MOL0     N54186   9.328  11.215   6.302 -0.3427  0.5409  0.5924
  402MOL0     C54187   8.797  11.311   5.523  0.6391 -0.0257  0.6400
  402MOL0     C54188   8.710  11.399   5.450  0.0453  0.4168 -0.4012
  402MOL0     C54189   8.355  11.536   5.235 -1.2220  0.1337 -0.3385
  402MOL0     C54190   8.376  11.669   5.251 -0.2102  0.2877  0.5614
  402MOL0     C54191   8.304  11.759   5.180  0.2784 -0.1743 -0.2221
  402MOL0     C54192   8.220  11.717   5.078  0.6857 -1.2879 -0.2011
  402MOL0     O54193   8.147  11.807   5.003 -1.0049  0.1255 -0.3305
  402MOL0     C54194   8.131  11.950   5.042  0.2668  0.5538 -0.1635
  402MOL0     C54195   8.044  12.018   4.924  0.0056  0.7564 -0.7014
  402MOL0     C54196   7.895  11.964   4.922 -0.1111  0.8916 -0.2564
  402MOL0     C54197   7.812  12.036   4.816 -0.1708  0.1317 -0.6081
  402MOL0     C54198   7.845  12.001   4.676 -0.3675  0.1751  0.5499
  402MOL0     C54199   7.864  11.986   4.555  0.0826 -0.1042  0.3891
  402MOL0     C54200   8.201  11.587   5.041 -0.2853 -0.1496 -0.0646
  402MOL0     C54201   8.269  11.491   5.133 -0.1959 -0.3338  0.2531
  402MOL0     C54202   8.243  11.348   5.099 -0.3281  0.6407  0.3099
  402MOL0     H54203   8.446  11.386   5.672 -0.0974 -0.0069  0.5356
  402MOL0     H54204   8.589  11.206   5.766 -0.4262  0.2270 -1.5266
  402MOL0     H54205   8.831  10.950   5.591 -0.8519  0.2756  0.6247
  402MOL0     H54206   8.886  11.064   5.484  1.1902 -1.8608  0.2494
  402MOL0     H54207   9.097  11.102   5.620 -0.2508  1.3517  4.5263
  402MOL0     H54208   9.060  10.935   5.557  0.4541  1.5033 -1.6375
  402MOL0     H54209   8.933  10.921   5.797  0.3303 -4.0403 -1.3058
  402MOL0     H54210   9.060  11.034   5.844  0.5881  0.7464 -1.7657
  402MOL0     H54211   9.134  10.771   5.712  2.7457 -0.2689  0.4873
  402MOL0     H54212   9.235  10.892   5.779 -0.0354  1.3533  3.0242
  402MOL0     H54213   9.028  10.725   5.924  1.7688 -3.9490 -2.1035
  402MOL0     H54214   9.213  10.715   5.951 -2.1208 -3.8548  1.2496
  402MOL0     H54215   9.001  10.919   6.031  0.3932 -0.8963 -0.4628
  402MOL0     H54216   9.078  10.799   6.132 -0.9516 -0.9633  0.3618
  402MOL0     H54217   9.197  11.049   6.007  1.3120 -0.4219  0.2709
  402MOL0     H54218   9.310  10.931   6.074 -0.4514 -0.3751 -1.0677
  402MOL0     H54219   9.103  11.108   6.225  1.6692 -0.2392  0.5806
  402MOL0     H54220   9.146  10.957   6.303 -0.4741  0.3822  0.9742
  402MOL0     H54221   9.437  10.911   6.322  0.9337 -0.5791 -2.9737
  402MOL0     H54222   9.624  10.997   6.469 -0.7478 -1.6529 -4.8500
  402MOL0     H54223   9.708  11.070   6.331  1.8299 -0.7029  0.3127
  402MOL0     H54224   9.663  11.307   6.474  0.4507  0.9018  0.7405
  402MOL0     H54225   9.677  11.201   6.611 -2.9239  0.6625 -1.0494
  402MOL0     H54226   9.882  11.237   6.397  1.5753  1.7819 -0.0191
  402MOL0     H54227   9.903  11.119   6.523 -0.6851  0.2622  1.6981
  402MOL0     H54228   9.955  11.398   6.503  1.3834 -0.9908  0.0080
  402MOL0     H54229  10.016  11.291   6.615  0.6399 -0.1472 -0.1932
  402MOL0     H54230  10.039  11.553   6.621  0.3332  0.7195 -1.6438
  402MOL0     H54231  10.005  11.806   6.619 -1.8034  2.2304 -1.3529
  402MOL0     H54232   9.731  12.245   6.741 -2.3215 -1.6135  0.3971
  402MOL0     H54233   9.739  12.438   6.908  4.3984 -0.6389 -3.6329
  402MOL0     H54234   9.805  12.579   7.121 -1.0106  3.6825 -1.5835
  402MOL0     H54235   9.644  12.556   7.058  2.3058 -2.3847 -2.2649
  402MOL0     H54236   9.556  12.582   7.300 -0.2827  0.3714  1.8290
  402MOL0     H54237   9.725  12.563   7.359 -0.7856  1.1306  0.1613
  402MOL0     H54238   9.795  12.768   7.248  1.9325 -3.6364 -2.7312
  402MOL0     H54239   9.647  12.777   7.150 -1.5251 -1.3142  0.3538
  402MOL0     H54240   9.513  12.809   7.381 -0.4467 -1.9421 -2.6641
  402MOL0     H54241   9.623  12.946   7.342  1.4144  1.6709  3.9238
  402MOL0     H54242   9.785  12.861   7.502  0.4772  1.6131 -2.1972
  402MOL0     H54243   9.685  12.713   7.528 -5.1575  0.8148  5.1331
  402MOL0     H54244   9.605  12.990   7.608 -0.7176 -0.2883 -1.1876
  402MOL0     H54245   9.500  12.844   7.639  0.2036  1.1451  2.0131
  402MOL0     H54246   9.768  12.931   7.758 -0.7618 -0.1244  0.0725
  402MOL0     H54247   9.684  12.757   7.764  0.0396 -0.3398  1.4321
  402MOL0     H54248   9.591  13.034   7.863  2.2268  0.1532  0.1670
  402MOL0     H54249   9.478  12.894   7.860  0.3137 -0.3801 -2.2927
  402MOL0     H54250   9.698  12.123   7.208  4.0462 -0.2749 -0.6974
  402MOL0     H54251   9.667  11.961   7.043 -2.0407  0.0711 -1.7456
  402MOL0     H54252   9.616  11.749   6.790 -0.1456  0.7397  1.0048
  402MOL0     H54253   9.624  11.520   6.774 -1.2403  1.8167 -0.8585
  402MOL0     H54254   8.894  11.298   5.477  0.5669 -0.3689  0.5835
  402MOL0     H54255   8.731  11.441   5.352 -0.0320  1.2945 -0.0442
  402MOL0     H54256   8.454  11.702   5.318 -1.1179  1.8200  0.9062
  402MOL0     H54257   8.314  11.867   5.175 -1.8152 -0.0154 -1.9476
  402MOL0     H54258   8.225  12.005   5.041  0.3077  0.5007  0.3590
  402MOL0     H54259   8.086  11.950   5.142  3.2223  3.1914  1.3156
  402MOL0     H54260   8.092  11.974   4.836  1.7963  3.6747 -1.3503
  402MOL0     H54261   8.059  12.127   4.925 -1.7312  1.0590 -2.1437
  402MOL0     H54262   7.860  11.974   5.026 -1.0444  0.3109 -0.5025
  402MOL0     H54263   7.895  11.858   4.896 -0.8837  0.7659  0.2076
  402MOL0     H54264   7.705  12.044   4.837 -0.3532 -1.4184 -0.8504
  402MOL0     H54265   7.856  12.136   4.821  3.0232 -1.1645 -0.4234
  402MOL0     H54266   7.885  11.987   4.450 -2.2528 -0.0181 -0.1307
  402MOL0     H54267   8.133  11.555   4.962 -2.5918  2.1056  0.8512
  402MOL0     H54268   8.173  11.327   5.017  0.0577 -3.5897  0.8306
  402MOL0     H54269   8.334  11.291   5.076 -2.5675 -3.0090 -0.4132
  402MOL0     H54270   8.197  11.297   5.185  1.8823 -1.0389  0.5931
  403MOL0     O54271   7.584   3.800   2.358  0.6786 -0.1473 -0.9074
  403MOL0     C54272   7.467   3.839   2.321 -0.1038  0.1775  0.2425
  403MOL0     O54273   7.352   3.778   2.362  0.5397  0.5663 -0.6502
  403MOL0     C54274   7.354   3.691   2.473  0.1225 -2.2658 -0.4153
  403MOL0     C54275   7.426   3.570   2.481  0.7282 -0.3081  0.1597
  403MOL0     C54276   7.425   3.500   2.604  0.3491  0.7181  0.6854
  403MOL0     C54277   7.355   3.555   2.711 -1.4609  0.1946  0.1069
  403MOL0     O54278   7.344   3.474   2.827  0.3591 -0.0171  0.9093
  403MOL0     C54279   7.317   3.543   2.952 -0.8283 -1.1563  0.6233
  403MOL0     C54280   7.338   3.442   3.067 -0.6398  0.3212  0.1777
  403MOL0     C54281   7.303   3.497   3.215  0.2535 -0.6890  0.8748
  403MOL0     C54282   7.182   3.591   3.211 -0.9454  0.7900  0.6205
  403MOL0     C54283   7.133   3.621   3.350 -0.0746  0.9086 -0.5174
  403MOL0     C54284   7.028   3.735   3.355  0.1209  0.1269 -0.6673
  403MOL0     C54285   6.940   3.734   3.487 -0.0995 -0.7068  0.4953
  403MOL0     C54286   6.842   3.610   3.491 -0.2198  0.1201 -0.4014
  403MOL0     N54287   6.740   3.618   3.604  0.3435  0.5991  0.3207
  403MOL0     C54288   6.609   3.643   3.602  0.4221 -0.5879  1.1719
  403MOL0     C54289   6.572   3.672   3.729  0.2400  0.5123  0.0137
  403MOL0     C54290   6.431   3.715   3.772  0.0856 -0.3775 -0.3841
  403MOL0     C54291   6.456   3.833   3.866  0.2847 -0.9506  0.5863
  403MOL0     C54292   6.502   3.953   3.779 -0.8623 -0.5167 -0.3015
  403MOL0     C54293   6.592   4.054   3.860  0.0382  0.0358  0.0064
  403MOL0     O54294   6.625   4.167   3.791  0.0699 -0.1488  0.5205
  403MOL0     C54295   6.719   4.171   3.690  0.0086 -1.2151 -0.7318
  403MOL0     C54296   6.809   4.071   3.654 -0.4370 -0.4611  0.9439
  403MOL0     C54297   6.885   4.089   3.534 -0.4217 -1.0900 -0.3006
  403MOL0     C54298   6.869   4.195   3.447 -0.2721  0.7069 -0.5664
  403MOL0     C54299   6.951   4.199   3.321 -0.5786 -0.6748 -0.2264
  403MOL0     O54300   7.036   4.085   3.276 -0.3202  0.1158  0.1846
  403MOL0     C54301   7.120   4.083   3.165 -0.1207 -0.3670 -0.6818
  403MOL0     C54302   7.092   4.141   3.037 -0.9831 -0.7628 -0.9628
  403MOL0     C54303   7.184   4.130   2.930  0.1056  0.4449  0.1082
  403MOL0     C54304   7.295   4.049   2.937  0.0512 -0.5045 -1.5543
  403MOL0     O54305   7.363   4.051   2.826 -0.6509  0.8267  0.0187
  403MOL0     C54306   7.495   4.005   2.832 -0.4837 -0.8038  0.3426
  403MOL0     C54307   7.556   4.038   2.689  0.0937 -0.2103 -0.8766
  403MOL0     C54308   7.696   3.978   2.688 -0.7341  0.0238  1.2270
  403MOL0     C54309   7.789   4.074   2.625 -1.1045 -0.7562 -0.3076
  403MOL0     C54310   7.929   4.062   2.710  0.3734 -0.9561 -0.2148
  403MOL0     C54311   7.997   3.932   2.654 -0.2718 -0.5312  0.5682
  403MOL0     C54312   8.134   3.904   2.709 -0.7075  0.1064  0.1393
  403MOL0     C54313   8.233   4.007   2.648  0.0650 -0.6160 -0.0320
  403MOL0    Cl54314   8.242   4.181   2.727 -0.1644 -0.4209  0.0488
  403MOL0     C54315   7.321   3.979   3.058  0.6590  0.5563  0.1692
  403MOL0     C54316   7.231   4.003   3.169 -0.4119  0.8788 -0.7277
  403MOL0     O54317   6.944   4.308   3.257  0.4045 -0.3366 -0.4650
  403MOL0     C54318   6.790   4.300   3.500  0.1717 -0.0874  1.0898
  403MOL0     C54319   6.711   4.288   3.618 -0.0303  0.3902  0.6373
  403MOL0     N54320   6.687   3.657   3.810  0.4622 -0.2102 -0.6597
  403MOL0     N54321   6.786   3.639   3.737 -0.7334 -0.1596  0.5128
  403MOL0     C54322   7.280   3.668   2.691  0.5075 -0.0655  0.1898
  403MOL0     C54323   7.270   3.738   2.574  0.0693  0.3850 -0.3513
  403MOL0     C54324   7.447   3.952   2.225  0.2998 -0.9194 -0.9409
  403MOL0     C54325   7.322   4.017   2.230 -0.0317 -0.3531  0.6668
  403MOL0     C54326   7.320   4.143   2.165 -0.4585 -0.5319  0.3347
  403MOL0     C54327   7.427   4.201   2.106  1.3252 -0.2170 -0.9991
  403MOL0     O54328   7.408   4.323   2.053 -0.0938  0.0834  0.5958
  403MOL0     C54329   7.318   4.331   1.933  0.3412  0.6341  0.5281
  403MOL0     C54330   7.322   4.211   1.838 -0.4781  0.3187 -0.2150
  403MOL0     C54331   7.470   4.200   1.772  0.6017 -0.7996 -0.2433
  403MOL0     C54332   7.468   4.088   1.669  0.2929 -1.1436 -0.7363
  403MOL0     C54333   7.426   3.967   1.737  0.3767 -0.2808 -0.6907
  403MOL0     C54334   7.399   3.868   1.805 -0.9635 -0.5937  1.2445
  403MOL0     C54335   7.551   4.132   2.110 -0.2570 -0.4845 -0.5875
  403MOL0     C54336   7.564   3.995   2.152 -0.7538 -0.9908 -0.2825
  403MOL0     C54337   7.704   3.932   2.137  0.2818 -0.8136  0.2425
  403MOL0     H54338   7.484   3.550   2.392  0.1690 -1.3937  0.0265
  403MOL0     H54339   7.495   3.419   2.622  3.6099  3.6031  2.3397
  403MOL0     H54340   7.377   3.634   2.943 -1.9943 -0.5009 -0.9998
  403MOL0     H54341   7.216   3.584   2.944  0.6556  2.8443 -0.0041
  403MOL0     H54342   7.436   3.395   3.063 -2.1104 -2.9837 -0.2012
  403MOL0     H54343   7.275   3.354   3.049  0.7476 -0.5505 -0.5690
  403MOL0     H54344   7.391   3.550   3.252  2.7701 -3.0568 -1.2421
  403MOL0     H54345   7.293   3.405   3.273  1.0007 -1.4619 -0.1865
  403MOL0     H54346   7.192   3.683   3.152 -0.4274  1.6934  2.0761
  403MOL0     H54347   7.108   3.540   3.148 -0.9671  1.6794 -0.1013
  403MOL0     H54348   7.092   3.533   3.400  0.5412  0.6336 -0.4813
  403MOL0     H54349   7.226   3.645   3.403  1.5867 -2.3566 -1.6930
  403MOL0     H54350   7.084   3.828   3.349 -1.6729  1.2153 -1.2653
  403MOL0     H54351   6.964   3.723   3.267 -0.6731 -2.2570  0.1302
  403MOL0     H54352   6.888   3.829   3.499  2.5186  0.5702  2.6462
  403MOL0     H54353   7.009   3.729   3.571  0.0264  0.2135  0.4585
  403MOL0     H54354   6.788   3.602   3.396 -2.2785 -1.5595  0.8016
  403MOL0     H54355   6.894   3.514   3.494 -0.5868 -0.0814 -0.4776
  403MOL0     H54356   6.547   3.645   3.513 -0.5931  1.2659  1.8736
  403MOL0     H54357   6.368   3.747   3.689  1.0003 -0.4903 -1.1416
  403MOL0     H54358   6.377   3.637   3.826 -1.6311 -1.5933 -3.5977
  403MOL0     H54359   6.361   3.848   3.918  0.2858 -0.4145  0.4437
  403MOL0     H54360   6.527   3.819   3.948 -2.3683 -3.0078  2.7103
  403MOL0     H54361   6.414   4.008   3.744  0.0837  1.4786  0.3514
  403MOL0     H54362   6.560   3.914   3.695  0.7831  0.1950  0.4666
  403MOL0     H54363   6.676   3.994   3.896 -3.4047 -4.3127  1.7619
  403MOL0     H54364   6.532   4.072   3.950  1.9400 -0.4950  1.4430
  403MOL0     H54365   6.828   3.986   3.718 -0.8416  1.1216  3.2678
  403MOL0     H54366   6.963   4.021   3.503  1.3783  0.8819 -0.3436
  403MOL0     H54367   7.012   4.209   3.011 -1.1541 -0.1676  0.9772
  403MOL0     H54368   7.170   4.176   2.832 -0.2113 -0.4558 -0.2837
  403MOL0     H54369   7.542   4.068   2.908 -3.6999  1.0294  1.0142
  403MOL0     H54370   7.498   3.897   2.853 -1.2518 -0.5662  1.8494
  403MOL0     H54371   7.492   3.991   2.614  0.4924 -0.9969 -0.7302
  403MOL0     H54372   7.568   4.144   2.665  1.7653  0.5621  2.6821
  403MOL0     H54373   7.730   3.961   2.790 -0.6795 -1.5723  0.9600
  403MOL0     H54374   7.684   3.880   2.642 -0.3677 -0.1572  1.5147
  403MOL0     H54375   7.763   4.175   2.658  2.5113 -0.6188  2.7480
  403MOL0     H54376   7.801   4.069   2.516 -0.7805  0.1982 -0.3251
  403MOL0     H54377   7.913   4.046   2.817  3.1762 -0.8776  0.2689
  403MOL0     H54378   7.983   4.155   2.692  2.6607 -1.7978  1.7418
  403MOL0     H54379   7.936   3.845   2.679  1.0378 -3.1790 -4.1419
  403MOL0     H54380   8.007   3.940   2.546 -1.5666  1.8759  0.5416
  403MOL0     H54381   8.168   3.804   2.681  0.0778 -1.2684  4.9731
  403MOL0     H54382   8.141   3.901   2.818 -1.6174 -2.4669  0.1770
  403MOL0     H54383   8.334   3.974   2.675  0.7681  3.0654  2.8112
  403MOL0     H54384   8.228   4.014   2.539 -0.4501 -0.7756 -0.0232
  403MOL0     H54385   7.407   3.913   3.051  0.1659 -0.2006  1.0297
  403MOL0     H54386   7.251   3.942   3.257 -1.6812 -1.9958 -2.2861
  403MOL0     H54387   6.770   4.392   3.447  0.6393  2.1195  4.4812
  403MOL0     H54388   6.646   4.369   3.649  0.1975  1.0131 -0.4600
  403MOL0     H54389   7.209   3.693   2.769  2.5790 -0.8789  2.4901
  403MOL0     H54390   7.190   3.812   2.570 -0.5213 -0.2872 -2.2271
  403MOL0     H54391   7.236   3.972   2.277 -0.7715 -0.2953 -0.5846
  403MOL0     H54392   7.225   4.197   2.163  0.3574  0.9394 -1.4295
  403MOL0     H54393   7.344   4.411   1.863  4.0551  0.2546  1.2865
  403MOL0     H54394   7.217   4.353   1.969 -1.3267  1.1779 -3.7832
  403MOL0     H54395   7.249   4.225   1.759  0.4205 -0.5202 -1.2185
  403MOL0     H54396   7.295   4.117   1.887 -3.4435  2.3942  2.5421
  403MOL0     H54397   7.541   4.174   1.851 -2.9685 -1.5445  3.0633
  403MOL0     H54398   7.507   4.290   1.723  0.8608 -1.5477 -1.4692
  403MOL0     H54399   7.399   4.121   1.591 -0.3969 -1.6750 -0.3535
  403MOL0     H54400   7.564   4.063   1.622  0.4259 -1.7378 -0.1616
  403MOL0     H54401   7.376   3.775   1.853  1.7225 -1.3597  1.2182
  403MOL0     H54402   7.637   4.172   2.057 -0.4058  1.7409  0.7268
  403MOL0     H54403   7.751   3.917   2.234  0.7303 -1.9027 -0.1313
  403MOL0     H54404   7.699   3.837   2.084  0.9323  0.2082 -1.7709
  403MOL0     H54405   7.770   4.001   2.082  0.4056  0.3917  1.8419
  404MOL0     O54406   1.951   5.037   0.344 -0.3113 -0.2078 -0.0484
  404MOL0     C54407   1.987   5.048   0.461 -0.7888  1.0905 -0.0613
  404MOL0     O54408   2.094   4.973   0.521  0.3944 -0.1198  0.0494
  404MOL0     C54409   2.183   4.898   0.450 -0.0653 -0.8348  0.0078
  404MOL0     C54410   2.135   4.804   0.366  0.2228 -1.2100  0.1931
  404MOL0     C54411   2.228   4.714   0.306 -0.4116 -0.4228 -0.4530
  404MOL0     C54412   2.364   4.714   0.339 -0.2931 -0.8560 -0.1113
  404MOL0     O54413   2.445   4.638   0.259 -0.7026  0.1203 -0.6524
  404MOL0     C54414   2.587   4.623   0.273 -0.3079  1.4014 -1.0652
  404MOL0     C54415   2.623   4.530   0.151  0.2765  0.2232 -0.2561
  404MOL0     C54416   2.768   4.481   0.170  0.2152  0.2940 -0.6979
  404MOL0     C54417   2.797   4.331   0.137  0.0407  0.3286 -0.9097
  404MOL0     C54418   2.941   4.297   0.181  0.4049  0.0990  0.3759
  404MOL0     C54419   2.994   4.163   0.128  0.2992 -0.7965  0.8303
  404MOL0     C54420   3.138   4.138   0.169  0.2713 -0.4206 -0.4187
  404MOL0     C54421   3.149   4.106   0.320  0.2100  0.3284 -0.7514
  404MOL0     N54422   3.280   4.145   0.385 -0.6127 -0.9727  0.5471
  404MOL0     C54423   3.390   4.067   0.395  0.8398  0.1988  0.1087
  404MOL0     C54424   3.476   4.152   0.458 -0.4237  0.1837  1.0605
  404MOL0     C54425   3.623   4.122   0.490 -0.3473 -0.2982  0.3987
  404MOL0     C54426   3.667   3.974   0.505 -0.1415  0.7024  0.5558
  404MOL0     C54427   3.799   3.952   0.558  0.4374  0.2451 -0.4398
  404MOL0     C54428   3.813   3.805   0.601 -1.0107  0.7211  0.6439
  404MOL0     O54429   3.794   3.714   0.491  0.6745  0.2057  0.1870
  404MOL0     C54430   3.743   3.589   0.521  0.0745 -0.6283  0.0477
  404MOL0     C54431   3.611   3.565   0.485  0.4819 -0.4472 -0.3907
  404MOL0     C54432   3.554   3.442   0.517 -0.0895  0.3893 -0.3731
  404MOL0     C54433   3.639   3.340   0.572  0.1059 -0.9796  0.0718
  404MOL0     C54434   3.584   3.202   0.602 -1.2991  0.1918 -0.1122
  404MOL0     O54435   3.661   3.108   0.664  0.1890 -0.4007 -0.0932
  404MOL0     C54436   3.630   2.974   0.655 -0.9045 -0.0696  0.1682
  404MOL0     C54437   3.553   2.906   0.552  0.0825 -0.5436 -0.0988
  404MOL0     C54438   3.513   2.773   0.565  0.3796 -0.3053 -0.2107
  404MOL0     C54439   3.548   2.710   0.682 -0.4343 -0.1521  0.2500
  404MOL0     O54440   3.527   2.572   0.708  0.5384 -0.3728  0.1621
  404MOL0     C54441   3.468   2.483   0.615  0.4993  0.3676  0.4997
  404MOL0     C54442   3.317   2.491   0.602 -0.2656  0.2546 -0.6211
  404MOL0     C54443   3.276   2.373   0.499  0.2256 -0.9023 -0.3177
  404MOL0     C54444   3.126   2.350   0.499 -0.1891  0.0662  0.6366
  404MOL0     C54445   3.068   2.253   0.401 -0.2204  0.1223  0.1050
  404MOL0     C54446   3.100   2.107   0.443 -0.4739  0.2554 -0.1172
  404MOL0     C54447   3.242   2.050   0.426 -0.1669  0.3580  0.3352
  404MOL0     C54448   3.259   1.905   0.400  0.2525 -0.2136 -0.3682
  404MOL0    Cl54449   3.151   1.862   0.257 -0.1826 -0.1571  0.2721
  404MOL0     C54450   3.612   2.781   0.789 -0.5765  0.0707 -0.3518
  404MOL0     C54451   3.670   2.904   0.769 -0.9357  0.1672  0.1870
  404MOL0     O54452   3.477   3.174   0.551 -0.1662 -0.4219  0.2068
  404MOL0     C54453   3.766   3.367   0.620  0.4699  0.0089  0.3630
  404MOL0     C54454   3.821   3.490   0.589 -0.0242 -0.0391  0.2106
  404MOL0     N54455   3.420   4.275   0.475 -0.3948  0.5634  0.1452
  404MOL0     N54456   3.297   4.271   0.441 -0.6826 -0.6447  0.4125
  404MOL0     C54457   2.413   4.795   0.443  0.2815  0.2990  0.8140
  404MOL0     C54458   2.321   4.896   0.493  0.3368  0.6690  0.3022
  404MOL0     C54459   1.907   5.128   0.547 -0.5416  0.3081 -0.5770
  404MOL0     C54460   1.897   5.099   0.688  0.1288  0.1866 -0.7264
  404MOL0     C54461   1.809   5.171   0.771  0.6798  0.6354  0.0882
  404MOL0     C54462   1.742   5.282   0.735 -0.5635  0.5047  0.2347
  404MOL0     O54463   1.660   5.362   0.816 -1.2425 -0.0592  0.0372
  404MOL0     C54464   1.676   5.345   0.958 -0.6726 -0.0153  0.9117
  404MOL0     C54465   1.574   5.431   1.034  0.3163 -0.3631 -0.0910
  404MOL0     C54466   1.581   5.400   1.187 -0.0714  0.4414 -0.0046
  404MOL0     C54467   1.533   5.263   1.246  0.4822  0.3270  0.2905
  404MOL0     C54468   1.391   5.235   1.199  0.6977 -0.3184  0.8628
  404MOL0     C54469   1.279   5.198   1.159  0.3509 -0.2177 -0.5558
  404MOL0     C54470   1.759   5.320   0.603 -0.0165 -0.3565 -0.1687
  404MOL0     C54471   1.839   5.243   0.509 -0.1522 -0.4592  0.1158
  404MOL0     C54472   1.860   5.314   0.379  0.6519  0.4573  0.7309
  404MOL0     H54473   2.029   4.797   0.346 -0.1155 -0.9757  1.8303
  404MOL0     H54474   2.199   4.639   0.232  1.1373  0.2677 -1.8177
  404MOL0     H54475   2.650   4.712   0.269  3.8719 -0.8391  3.5588
  404MOL0     H54476   2.613   4.572   0.366 -1.4968  0.8178 -1.0361
  404MOL0     H54477   2.599   4.588   0.062 -5.2358 -0.3634  0.4441
  404MOL0     H54478   2.556   4.443   0.150  0.1706  0.2927 -2.2251
  404MOL0     H54479   2.795   4.499   0.274 -1.8300  0.5181 -0.1667
  404MOL0     H54480   2.823   4.540   0.096  0.6185 -2.6477 -2.9389
  404MOL0     H54481   2.732   4.262   0.191  0.5416  0.9978  0.5916
  404MOL0     H54482   2.776   4.294   0.036 -0.2332 -4.1231  0.5606
  404MOL0     H54483   2.992   4.379   0.130  0.2497  0.7357  1.2236
  404MOL0     H54484   2.963   4.299   0.288  2.0377 -4.3425  0.3255
  404MOL0     H54485   2.924   4.081   0.148 -3.9008  2.1233 -0.5552
  404MOL0     H54486   2.991   4.169   0.019  1.7067  2.8742  0.8437
  404MOL0     H54487   3.186   4.229   0.133 -0.2339 -0.4364 -1.1583
  404MOL0     H54488   3.171   4.049   0.113  0.1836  1.1456 -3.1322
  404MOL0     H54489   3.067   4.157   0.370  0.5245  1.4429 -1.3284
  404MOL0     H54490   3.133   4.002   0.349 -0.7023  0.9716  1.1565
  404MOL0     H54491   3.404   3.965   0.363  3.0650 -0.1318  1.8540
  404MOL0     H54492   3.673   4.160   0.400 -0.6870  0.2433  0.4324
  404MOL0     H54493   3.662   4.194   0.563  0.3983  3.3794 -3.2683
  404MOL0     H54494   3.598   3.924   0.574 -0.6377 -0.4938 -0.7744
  404MOL0     H54495   3.657   3.913   0.415 -1.2197 -1.8525  2.2908
  404MOL0     H54496   3.816   4.024   0.638  0.9645 -0.2627 -0.0939
  404MOL0     H54497   3.881   3.962   0.486  2.6752 -1.7934  1.6274
  404MOL0     H54498   3.733   3.780   0.671 -1.5690  0.1134 -0.2092
  404MOL0     H54499   3.916   3.786   0.635  0.2932  1.2443 -2.6878
  404MOL0     H54500   3.544   3.646   0.455 -3.7636 -2.8851  1.5534
  404MOL0     H54501   3.449   3.424   0.498 -0.4431  2.0193 -0.0856
  404MOL0     H54502   3.521   2.960   0.463  3.3765  0.0038 -1.0804
  404MOL0     H54503   3.449   2.719   0.496 -0.6074  1.9391 -1.1818
  404MOL0     H54504   3.518   2.500   0.519 -0.7978  3.5171  0.2400
  404MOL0     H54505   3.485   2.381   0.650 -0.1185  0.6989  1.8428
  404MOL0     H54506   3.261   2.478   0.695 -3.0428 -2.8039 -2.4652
  404MOL0     H54507   3.294   2.587   0.555  1.3881  0.8816 -0.1919
  404MOL0     H54508   3.312   2.391   0.397 -0.1907 -0.1500 -0.3350
  404MOL0     H54509   3.320   2.278   0.532 -1.1338 -1.3782  0.1857
  404MOL0     H54510   3.083   2.446   0.466  0.4804 -0.3603 -1.6878
  404MOL0     H54511   3.088   2.344   0.601 -0.7651  1.5853  0.5471
  404MOL0     H54512   3.099   2.278   0.299  0.6031  1.0005  0.5543
  404MOL0     H54513   2.959   2.252   0.396 -0.3298 -4.5876 -0.8342
  404MOL0     H54514   3.068   2.091   0.547  0.6470 -0.3030  0.1636
  404MOL0     H54515   3.045   2.047   0.370  1.8276 -0.5697 -1.2640
  404MOL0     H54516   3.303   2.066   0.516 -0.6624  3.9730  0.1624
  404MOL0     H54517   3.300   2.110   0.356  1.5222 -0.3024  1.1091
  404MOL0     H54518   3.365   1.892   0.377  0.2062 -1.9054  0.2791
  404MOL0     H54519   3.233   1.845   0.487 -1.6689 -1.5643 -1.7815
  404MOL0     H54520   3.640   2.736   0.884  1.7708  4.9042  1.5982
  404MOL0     H54521   3.722   2.970   0.838  2.3411  0.0070 -1.9258
  404MOL0     H54522   3.832   3.299   0.673  0.0795 -1.1652 -0.6132
  404MOL0     H54523   3.917   3.506   0.636  0.8246  3.3612 -2.3288
  404MOL0     H54524   2.510   4.773   0.487  0.0042 -0.9594  0.8431
  404MOL0     H54525   2.356   4.978   0.556  4.2052  0.9388 -1.9062
  404MOL0     H54526   1.953   5.016   0.729 -2.1357 -1.7225 -1.2827
  404MOL0     H54527   1.804   5.144   0.876 -0.2634  0.1890 -0.0584
  404MOL0     H54528   1.780   5.363   0.989 -0.2487 -0.7816 -0.0169
  404MOL0     H54529   1.671   5.238   0.983  4.6852 -0.4209  1.5037
  404MOL0     H54530   1.471   5.418   1.000 -0.1879 -3.4355  2.2353
  404MOL0     H54531   1.597   5.538   1.023  1.6563 -0.7147 -0.9685
  404MOL0     H54532   1.524   5.474   1.242 -0.0844 -1.5892  2.9265
  404MOL0     H54533   1.687   5.394   1.213 -0.2322  0.6383  0.6989
  404MOL0     H54534   1.603   5.185   1.217  1.0004  1.6976 -2.4221
  404MOL0     H54535   1.526   5.276   1.355 -1.3625 -0.0466  0.2511
  404MOL0     H54536   1.185   5.157   1.130  0.7995 -3.5832  2.0343
  404MOL0     H54537   1.714   5.407   0.558 -0.0714 -1.1321 -1.7023
  404MOL0     H54538   1.924   5.403   0.387  0.9731  0.5667 -2.0539
  404MOL0     H54539   1.926   5.255   0.314 -0.0639 -0.1276  0.5261
  404MOL0     H54540   1.763   5.337   0.334 -0.1550 -0.3622  2.0053
  405MOL0     O54541   9.291   9.276   5.923  0.7312 -0.5100 -0.0960
  405MOL0     C54542   9.228   9.340   6.013 -0.4413 -0.0592  0.3313
  405MOL0     O54543   9.199   9.471   6.004  0.7032 -0.4077  0.4720
  405MOL0     C54544   9.237   9.546   5.906 -0.3192  0.4298 -0.1866
  405MOL0     C54545   9.370   9.591   5.893 -1.0829 -0.1665 -0.6105
  405MOL0     C54546   9.405   9.694   5.797  0.9815  0.5290 -1.2307
  405MOL0     C54547   9.318   9.746   5.708 -0.3266  0.2782  0.4843
  405MOL0     O54548   9.341   9.854   5.621 -0.0528  0.5413  1.1291
  405MOL0     C54549   9.474   9.912   5.631 -0.5718  0.4624  0.0041
  405MOL0     C54550   9.506  10.003   5.519 -0.1095  0.4974 -1.1998
  405MOL0     C54551   9.410  10.118   5.525  0.4887  0.0958  0.4018
  405MOL0     C54552   9.435  10.215   5.405 -1.6495  0.2563 -0.5137
  405MOL0     C54553   9.345  10.328   5.403 -0.1884  0.5112 -0.4144
  405MOL0     C54554   9.375  10.446   5.501  0.3057  0.8084 -0.3822
  405MOL0     C54555   9.502  10.520   5.455  0.3007  0.7215 -0.5018
  405MOL0     C54556   9.568  10.626   5.555 -0.3407 -0.0514 -0.9017
  405MOL0     N54557   9.711  10.649   5.521 -0.1283 -0.1333 -0.7314
  405MOL0     C54558   9.750  10.744   5.430  0.6698  0.1502 -0.2172
  405MOL0     C54559   9.887  10.726   5.426  0.4534 -1.2046  0.6440
  405MOL0     C54560   9.985  10.830   5.352  0.8720 -0.1336 -0.3960
  405MOL0     C54561  10.004  10.964   5.432  0.1236 -1.1971 -0.7225
  405MOL0     C54562  10.136  10.965   5.508 -0.0308  0.1636 -0.3237
  405MOL0     C54563  10.142  10.840   5.596  0.7762  0.4097 -1.1407
  405MOL0     O54564  10.231  10.854   5.707 -0.2233 -0.4861 -0.4519
  405MOL0     C54565  10.211  10.960   5.794  0.5943 -0.4309 -0.6816
  405MOL0     C54566  10.323  11.027   5.845 -0.3467  0.7363  0.7535
  405MOL0     C54567  10.312  11.131   5.933  0.3389  0.2972  0.5315
  405MOL0     C54568  10.181  11.175   5.979  0.2160 -0.1598 -0.5935
  405MOL0     C54569  10.179  11.278   6.085 -0.6290  0.5399 -0.9094
  405MOL0     O54570  10.290  11.270   6.177 -0.1412  0.0370  0.4565
  405MOL0     C54571  10.304  11.354   6.286 -1.3457 -0.6445  0.4206
  405MOL0     C54572  10.230  11.468   6.322 -0.5956 -1.0796 -0.4226
  405MOL0     C54573  10.239  11.530   6.444 -0.0607  0.2197 -0.0787
  405MOL0     C54574  10.326  11.478   6.545  0.3925 -0.6831  0.1010
  405MOL0     O54575  10.335  11.548   6.658 -0.2627 -0.4119 -0.5835
  405MOL0     C54576  10.352  11.476   6.786  1.5093 -0.6420 -0.0569
  405MOL0     C54577  10.227  11.456   6.871 -0.5680  0.1105 -0.1020
  405MOL0     C54578  10.264  11.351   6.970  0.2409  0.5224  0.2271
  405MOL0     C54579  10.156  11.304   7.064  0.3711 -0.4176 -1.2229
  405MOL0     C54580  10.016  11.301   6.994  0.1909 -1.0381 -0.1903
  405MOL0     C54581   9.918  11.237   7.092  0.2701 -0.2290  0.3086
  405MOL0     C54582   9.773  11.304   7.091 -0.7673 -0.3409 -0.9096
  405MOL0     C54583   9.702  11.309   6.960  0.1111 -0.0564  0.0282
  405MOL0    Cl54584   9.691  11.148   6.888 -0.3950 -0.1573  0.1734
  405MOL0     C54585  10.412  11.369   6.505 -0.1741 -0.7876  0.1391
  405MOL0     C54586  10.396  11.310   6.384 -1.1876  1.0412 -0.7934
  405MOL0     O54587  10.075  11.330   6.110  0.6809 -0.7932  0.0227
  405MOL0     C54588  10.066  11.105   5.944 -0.0030 -0.1336 -0.0217
  405MOL0     C54589  10.073  11.002   5.844 -1.1499 -0.4148  0.8715
  405MOL0     N54590   9.920  10.618   5.494 -0.0525 -0.1073  0.0827
  405MOL0     N54591   9.820  10.578   5.558  1.2631  0.5498 -0.2773
  405MOL0     C54592   9.186   9.693   5.717  0.2172 -0.3321  0.4851
  405MOL0     C54593   9.142   9.602   5.822 -0.4161 -0.3837 -0.4898
  405MOL0     C54594   9.171   9.265   6.127 -0.4302 -0.8760 -0.2504
  405MOL0     C54595   9.114   9.135   6.096 -0.8049 -0.1419  0.3974
  405MOL0     C54596   9.065   9.051   6.196 -0.8170 -0.2294  0.1080
  405MOL0     C54597   9.058   9.096   6.324  0.4121 -0.1197  0.6902
  405MOL0     O54598   9.018   9.017   6.422  0.1049  0.3768  0.3540
  405MOL0     C54599   9.091   8.885   6.436  0.8401  0.8486  0.4080
  405MOL0     C54600   9.063   8.847   6.583  0.3746  0.4844 -0.1677
  405MOL0     C54601   9.053   8.693   6.598 -0.3642  0.2646  0.5669
  405MOL0     C54602   9.190   8.629   6.595  0.4726 -0.2347 -0.1158
  405MOL0     C54603   9.172   8.479   6.586 -0.6315  1.1148  0.8515
  405MOL0     C54604   9.177   8.356   6.594  0.3721 -0.4366  0.9614
  405MOL0     C54605   9.080   9.230   6.350 -0.4880  0.7700  1.2300
  405MOL0     C54606   9.139   9.317   6.260 -0.3847 -0.4044 -0.9330
  405MOL0     C54607   9.160   9.457   6.320 -0.8479 -0.5709 -0.7859
  405MOL0     H54608   9.437   9.571   5.976 -2.0205 -0.5542  0.0682
  405MOL0     H54609   9.507   9.727   5.781  1.0230  0.4099 -1.2141
  405MOL0     H54610   9.504   9.951   5.728 -1.5642  3.7161 -0.8749
  405MOL0     H54611   9.552   9.839   5.610 -0.6277  0.8709 -1.8586
  405MOL0     H54612   9.502   9.955   5.421  1.4188  0.1698 -1.1307
  405MOL0     H54613   9.604  10.050   5.533 -0.5079  1.3541 -1.1796
  405MOL0     H54614   9.413  10.171   5.621 -1.2282  0.7074  0.1466
  405MOL0     H54615   9.306  10.084   5.522 -0.3363  2.0068  2.9795
  405MOL0     H54616   9.540  10.242   5.422 -0.7407 -3.3401  0.4775
  405MOL0     H54617   9.433  10.168   5.307  1.0123 -0.7290 -0.1929
  405MOL0     H54618   9.356  10.381   5.308 -0.9130  0.9630 -0.2561
  405MOL0     H54619   9.241  10.293   5.406 -0.8930  2.4675 -0.5528
  405MOL0     H54620   9.289  10.513   5.488 -3.1082 -3.5382 -2.6889
  405MOL0     H54621   9.393  10.421   5.606 -3.3438  2.1504  0.7301
  405MOL0     H54622   9.485  10.576   5.363  1.6895  2.3868  0.1788
  405MOL0     H54623   9.575  10.442   5.433 -0.4386 -0.8074  1.9816
  405MOL0     H54624   9.527  10.727   5.544  0.6905  0.1744 -3.2247
  405MOL0     H54625   9.568  10.595   5.660  1.5389  2.3347 -0.1054
  405MOL0     H54626   9.694  10.821   5.379  1.2959 -1.0209 -2.8362
  405MOL0     H54627  10.083  10.788   5.330  1.2343  2.0206 -3.5736
  405MOL0     H54628   9.929  10.861   5.263 -2.0039 -1.2352  0.8929
  405MOL0     H54629  10.009  11.054   5.371 -2.9951 -0.7482 -0.5161
  405MOL0     H54630   9.921  10.972   5.503  0.8895 -1.1619  0.1953
  405MOL0     H54631  10.134  11.055   5.569  0.2332  0.8451 -1.2923
  405MOL0     H54632  10.217  10.951   5.436 -1.1097  2.6721 -2.1828
  405MOL0     H54633  10.155  10.754   5.529 -0.7063 -0.4398 -0.3919
  405MOL0     H54634  10.044  10.818   5.640  1.0514 -1.3624 -1.3183
  405MOL0     H54635  10.421  11.009   5.802 -1.6014 -2.5483 -1.1190
  405MOL0     H54636  10.402  11.185   5.964 -1.8901  3.3393  2.2645
  405MOL0     H54637  10.154  11.514   6.259  0.5169 -0.3034 -1.2482
  405MOL0     H54638  10.182  11.618   6.470 -1.3084 -0.1038 -1.5623
  405MOL0     H54639  10.390  11.376   6.760  2.7799 -0.4965  1.0877
  405MOL0     H54640  10.423  11.536   6.843  0.2138  1.0541 -0.1621
  405MOL0     H54641  10.183  11.547   6.911 -1.5979  0.2473 -1.4457
  405MOL0     H54642  10.151  11.413   6.805 -0.7084 -0.5467  0.4780
  405MOL0     H54643  10.305  11.266   6.913  1.7768  0.9197  0.6954
  405MOL0     H54644  10.356  11.377   7.024 -0.2753  1.1802  0.7958
  405MOL0     H54645  10.139  11.376   7.145 -0.7938 -1.5942 -0.3832
  405MOL0     H54646  10.171  11.201   7.098  0.2951 -0.6948 -2.0259
  405MOL0     H54647  10.013  11.238   6.905  1.6069 -0.6800 -0.5104
  405MOL0     H54648   9.981  11.398   6.958 -0.8481 -1.6879 -1.0022
  405MOL0     H54649   9.909  11.130   7.071 -1.4189  0.0489 -0.5611
  405MOL0     H54650   9.956  11.236   7.194  0.7711  0.1775  0.1241
  405MOL0     H54651   9.798  11.404   7.127 -2.0193 -1.2232  2.8672
  405MOL0     H54652   9.712  11.254   7.167 -3.8258  0.1602 -2.8692
  405MOL0     H54653   9.605  11.359   6.962  1.0654  2.1323 -2.6182
  405MOL0     H54654   9.752  11.382   6.895 -0.4182 -0.6451 -1.0667
  405MOL0     H54655  10.494  11.336   6.568  0.0730 -2.2145 -0.8800
  405MOL0     H54656  10.445  11.216   6.361 -2.2970  0.5618 -1.2937
  405MOL0     H54657   9.969  11.121   5.989 -0.7957  3.0330 -2.5298
  405MOL0     H54658   9.981  10.947   5.828 -1.3221  0.1747 -0.2654
  405MOL0     H54659   9.113   9.742   5.652  2.3970  0.1311 -1.7739
  405MOL0     H54660   9.035   9.594   5.839 -0.5331  1.8029  0.1257
  405MOL0     H54661   9.121   9.097   5.995 -0.3886  1.8274 -0.3648
  405MOL0     H54662   9.045   8.945   6.183 -2.0102 -0.0277  0.1315
  405MOL0     H54663   9.194   8.908   6.406  0.3922  0.8100 -1.2990
  405MOL0     H54664   9.054   8.808   6.368  3.5947 -1.2865  1.1456
  405MOL0     H54665   8.963   8.891   6.590  1.0254  3.6768 -5.4385
  405MOL0     H54666   9.128   8.902   6.651 -1.3808 -0.4833  2.4743
  405MOL0     H54667   8.994   8.655   6.514  0.1497  1.6984 -0.4829
  405MOL0     H54668   9.000   8.664   6.689 -0.6244  1.7558  0.9186
  405MOL0     H54669   9.252   8.664   6.512 -2.1293 -0.6681 -2.3948
  405MOL0     H54670   9.236   8.649   6.692 -0.0808 -0.1323  0.1301
  405MOL0     H54671   9.167   8.251   6.606  0.4246 -0.4764  0.6781
  405MOL0     H54672   9.065   9.257   6.454  0.0642  3.8450  0.6087
  405MOL0     H54673   9.247   9.502   6.270  1.0815 -2.8182  0.3658
  405MOL0     H54674   9.076   9.525   6.309  0.8213  1.4550 -1.7438
  405MOL0     H54675   9.182   9.446   6.427  1.0019 -3.1786 -1.3472
  406MOL0     O54676   2.974   9.638  11.458 -0.9974 -0.1624 -0.0174
  406MOL0     C54677   2.924   9.532  11.422  0.0584  0.0645 -0.2507
  406MOL0     O54678   2.884   9.422  11.493  0.4404 -0.2280 -0.2973
  406MOL0     C54679   2.859   9.433  11.630  0.0954  0.0207 -0.4001
  406MOL0     C54680   2.778   9.533  11.686  0.2732 -0.3842  0.2125
  406MOL0     C54681   2.752   9.547  11.822 -0.2202  0.4739  0.4699
  406MOL0     C54682   2.813   9.456  11.915 -0.0422  0.2629  0.6727
  406MOL0     O54683   2.793   9.462  12.050 -0.5905 -0.7221 -0.0331
  406MOL0     C54684   2.752   9.587  12.105  0.7221  0.2934  0.2016
  406MOL0     C54685   2.606   9.586  12.142 -0.1255 -0.2541  0.5932
  406MOL0     C54686   2.564   9.479  12.234  0.2847 -0.5761 -0.2941
  406MOL0     C54687   2.412   9.462  12.241 -0.1826  1.4039 -0.5188
  406MOL0     C54688   2.355   9.337  12.312 -0.5514 -0.0311 -0.7588
  406MOL0     C54689   2.201   9.329  12.274  0.1694 -0.0837 -0.7539
  406MOL0     C54690   2.136   9.207  12.340  0.5544 -0.1831  0.1445
  406MOL0     C54691   1.985   9.211  12.345  0.1149  0.2617  1.2350
  406MOL0     N54692   1.936   9.140  12.464 -0.1943  0.1976 -0.7730
  406MOL0     C54693   1.862   9.186  12.567 -0.2310  0.0593  0.9551
  406MOL0     C54694   1.847   9.081  12.657  1.0274  0.6037  0.7662
  406MOL0     C54695   1.759   9.089  12.780  0.4740  0.7341  0.2536
  406MOL0     C54696   1.615   9.073  12.739  0.7665 -0.3130  0.0089
  406MOL0     C54697   1.587   8.937  12.674  0.2672  0.1461  0.2856
  406MOL0     C54698   1.613   8.817  12.767 -0.0838  0.1900 -0.8003
  406MOL0     O54699   1.548   8.695  12.718 -0.4701  0.2151 -0.7050
  406MOL0     C54700   1.547   8.668  12.582  1.2558  0.4718 -0.1960
  406MOL0     C54701   1.430   8.620  12.504 -0.7785 -0.5676  0.5886
  406MOL0     C54702   1.433   8.609  12.365  0.6811 -0.6130 -0.5565
  406MOL0     C54703   1.551   8.643  12.296 -0.0974  0.2781 -1.7570
  406MOL0     C54704   1.539   8.638  12.152  0.4420 -1.0922 -0.0145
  406MOL0     O54705   1.413   8.634  12.096 -0.6431  0.1411 -0.5978
  406MOL0     C54706   1.409   8.633  11.959  0.8935  0.0507 -0.6333
  406MOL0     C54707   1.382   8.759  11.893 -0.3894  1.2566  0.1193
  406MOL0     C54708   1.372   8.751  11.756  0.1271  0.4524  0.3485
  406MOL0     C54709   1.368   8.629  11.694 -0.3156 -0.1305 -0.5310
  406MOL0     O54710   1.352   8.617  11.558  0.3493  0.1699  0.2282
  406MOL0     C54711   1.260   8.699  11.488  0.2208  0.1239  0.6199
  406MOL0     C54712   1.254   8.659  11.348  0.1572  0.1484  0.4801
  406MOL0     C54713   1.362   8.726  11.268 -0.0663  0.9458 -0.2427
  406MOL0     C54714   1.502   8.718  11.323 -0.8942  0.3964  0.5054
  406MOL0     C54715   1.608   8.763  11.224 -0.6798 -0.7719 -0.3618
  406MOL0     C54716   1.608   8.916  11.195  0.6513 -0.1206  0.7643
  406MOL0     C54717   1.746   8.973  11.135  0.6338  0.5951 -1.2861
  406MOL0     C54718   1.766   9.124  11.172 -0.1522 -1.2622  0.9150
  406MOL0    Cl54719   1.799   9.162  11.343 -0.3326 -0.0541  0.2107
  406MOL0     C54720   1.394   8.510  11.757  0.1522 -0.5936 -0.4288
  406MOL0     C54721   1.420   8.511  11.897 -0.1762 -0.0972  0.1327
  406MOL0     O54722   1.642   8.644  12.087  0.2919 -0.1787  0.2980
  406MOL0     C54723   1.667   8.683  12.368  0.2167  0.2462 -1.1336
  406MOL0     C54724   1.657   8.686  12.505  0.5753  0.5690  0.2339
  406MOL0     N54725   1.916   8.970  12.607  0.2603 -0.4582  0.1409
  406MOL0     N54726   1.965   9.005  12.489  0.1229 -0.4874 -0.3172
  406MOL0     C54727   2.881   9.344  11.858  0.4886  0.5552  0.5091
  406MOL0     C54728   2.902   9.335  11.721  0.3335  0.4031 -1.0200
  406MOL0     C54729   2.882   9.518  11.280  0.6800  0.1345 -0.0747
  406MOL0     C54730   2.922   9.408  11.200 -0.1845 -0.2091  0.6152
  406MOL0     C54731   2.876   9.398  11.074  0.0980  0.4465 -1.2925
  406MOL0     C54732   2.779   9.485  11.020 -0.5675 -0.5919 -1.4519
  406MOL0     O54733   2.727   9.447  10.902 -0.4889  0.2712  0.5180
  406MOL0     C54734   2.619   9.517  10.845 -0.4557 -0.8950 -0.1799
  406MOL0     C54735   2.651   9.629  10.747 -0.7608  0.3004  0.9799
  406MOL0     C54736   2.733   9.579  10.621 -0.2534  0.3377 -0.4002
  406MOL0     C54737   2.666   9.455  10.549  0.5717  0.0743  0.0059
  406MOL0     C54738   2.527   9.494  10.494 -0.9290  0.4483 -0.4203
  406MOL0     C54739   2.424   9.501  10.437  0.0876 -0.1051  0.6996
  406MOL0     C54740   2.733   9.590  11.102 -0.0726 -0.0912 -0.3461
  406MOL0     C54741   2.789   9.612  11.229 -0.4369 -0.2246 -0.3396
  406MOL0     C54742   2.726   9.727  11.305  0.0779 -0.6978  0.0734
  406MOL0     H54743   2.752   9.610  11.613 -1.2361 -0.9717  0.0986
  406MOL0     H54744   2.681   9.619  11.863 -2.4408 -2.9847  3.3366
  406MOL0     H54745   2.805   9.615  12.197 -1.7519  2.0654  1.2106
  406MOL0     H54746   2.775   9.676  12.047 -2.4425  1.7466  0.9248
  406MOL0     H54747   2.560   9.587  12.043  0.9412  1.9901  0.0470
  406MOL0     H54748   2.583   9.674  12.203 -1.9315 -1.7029  2.1295
  406MOL0     H54749   2.602   9.514  12.331  4.8380 -0.7393 -1.7687
  406MOL0     H54750   2.609   9.380  12.219 -0.6157 -1.0083 -0.1643
  406MOL0     H54751   2.378   9.542  12.308 -0.2281 -0.3219  1.6629
  406MOL0     H54752   2.381   9.462  12.136  0.9345 -2.6824 -1.0343
  406MOL0     H54753   2.403   9.242  12.285 -2.5206 -1.2071 -0.3530
  406MOL0     H54754   2.366   9.343  12.421 -1.7978 -0.9071 -0.5580
  406MOL0     H54755   2.161   9.426  12.303  0.3944  0.1347 -1.1608
  406MOL0     H54756   2.181   9.334  12.166  2.6233  2.8133 -1.2091
  406MOL0     H54757   2.164   9.227  12.444  4.6259  0.9130 -0.9678
  406MOL0     H54758   2.176   9.107  12.321 -0.4457 -1.2556  3.0980
  406MOL0     H54759   1.936   9.309  12.347 -0.3161  0.5153 -4.5873
  406MOL0     H54760   1.947   9.171  12.251 -1.4649  2.5557  0.7946
  406MOL0     H54761   1.819   9.285  12.579  0.2648  0.3010  0.7346
  406MOL0     H54762   1.793   9.004  12.840  0.5816  0.6195  0.0297
  406MOL0     H54763   1.767   9.184  12.833 -1.4543 -0.4398  2.9221
  406MOL0     H54764   1.547   9.093  12.822  0.3034 -0.2270 -0.3865
  406MOL0     H54765   1.599   9.152  12.664 -2.5218  1.3035  2.1668
  406MOL0     H54766   1.652   8.936  12.586 -0.1983 -0.4578 -0.0530
  406MOL0     H54767   1.481   8.935  12.647  0.2668 -1.4236  0.3053
  406MOL0     H54768   1.581   8.841  12.869 -1.0838  0.6405 -1.2065
  406MOL0     H54769   1.721   8.800  12.775  0.6368  1.7118 -4.9015
  406MOL0     H54770   1.342   8.592  12.562 -0.8966  1.2100  1.3518
  406MOL0     H54771   1.344   8.576  12.312 -0.8256 -3.4173  3.2173
  406MOL0     H54772   1.363   8.850  11.949 -1.7972  0.0309  1.7418
  406MOL0     H54773   1.347   8.843  11.703 -4.2261  0.7755  2.5430
  406MOL0     H54774   1.162   8.676  11.531  0.5663 -0.0550  1.3158
  406MOL0     H54775   1.270   8.807  11.497 -0.0667  0.3269 -1.1131
  406MOL0     H54776   1.264   8.551  11.334 -2.2271 -0.2499  1.3823
  406MOL0     H54777   1.159   8.667  11.294  1.4617 -3.2890 -2.6973
  406MOL0     H54778   1.364   8.669  11.175 -2.2364  1.5829 -0.7166
  406MOL0     H54779   1.342   8.831  11.245  3.8619  1.5209 -1.8466
  406MOL0     H54780   1.523   8.612  11.343  0.7110  0.3561 -1.2345
  406MOL0     H54781   1.503   8.781  11.412 -0.7699  0.8132  0.2058
  406MOL0     H54782   1.592   8.719  11.125  0.2811  1.3573 -1.5119
  406MOL0     H54783   1.706   8.731  11.261  0.8495  2.0972 -1.6148
  406MOL0     H54784   1.528   8.942  11.125 -0.3280 -2.5300  0.9269
  406MOL0     H54785   1.584   8.977  11.283 -1.1748 -1.1565  1.0245
  406MOL0     H54786   1.734   8.964  11.027 -2.2447  1.4372 -1.1062
  406MOL0     H54787   1.822   8.902  11.170 -2.7700 -2.8451 -0.0843
  406MOL0     H54788   1.856   9.158  11.119  0.1910 -1.1320  1.5704
  406MOL0     H54789   1.679   9.186  11.149  1.8426  1.9709  1.4045
  406MOL0     H54790   1.385   8.417  11.702 -1.0836 -0.7685  0.0207
  406MOL0     H54791   1.425   8.417  11.952 -1.9873 -0.0853  0.3711
  406MOL0     H54792   1.763   8.709  12.324  0.5777  3.8361  1.3158
  406MOL0     H54793   1.739   8.720  12.566 -1.5357  4.2952  1.3390
  406MOL0     H54794   2.921   9.274  11.930  0.2271 -1.1629 -0.9325
  406MOL0     H54795   2.946   9.245  11.678 -0.2480  0.2495 -1.3076
  406MOL0     H54796   2.996   9.339  11.239  0.5357  1.4066  2.3385
  406MOL0     H54797   2.895   9.300  11.031 -1.2123 -1.0704  1.3333
  406MOL0     H54798   2.556   9.549  10.928 -0.6852 -0.2888 -0.5761
  406MOL0     H54799   2.564   9.434  10.800 -0.4180 -0.1928 -1.5941
  406MOL0     H54800   2.686   9.717  10.801 -4.4563  2.5991  0.0161
  406MOL0     H54801   2.550   9.663  10.721 -1.6933 -0.5949  3.2104
  406MOL0     H54802   2.825   9.541  10.666 -1.4036 -3.5895 -0.9572
  406MOL0     H54803   2.741   9.665  10.554  0.5341  2.3026  2.0781
  406MOL0     H54804   2.731   9.431  10.464  2.2293 -2.3384  1.8290
  406MOL0     H54805   2.666   9.371  10.618 -1.7641  1.5541  1.9752
  406MOL0     H54806   2.331   9.510  10.385  1.4681  1.9177 -1.5911
  406MOL0     H54807   2.654   9.651  11.060 -0.4057  2.3510  3.3150
  406MOL0     H54808   2.700   9.814  11.245  0.3704  0.7405  1.9248
  406MOL0     H54809   2.630   9.693  11.345 -0.9225  1.1613 -0.6550
  406MOL0     H54810   2.791   9.769  11.383 -3.5086 -1.4624  3.8256
  407MOL0     O54811   7.362   5.224   8.861 -0.6443  0.4465 -0.9423
  407MOL0     C54812   7.419   5.120   8.851  0.5075  0.0703  0.1072
  407MOL0     O54813   7.377   5.014   8.918  0.9987  0.4216  0.3502
  407MOL0     C54814   7.344   5.018   9.054 -0.2844 -0.2324 -0.0636
  407MOL0     C54815   7.318   4.900   9.107 -0.3157  0.6573  0.4959
  407MOL0     C54816   7.288   4.879   9.235  0.4003  0.2773  0.6015
  407MOL0     C54817   7.267   4.982   9.324 -1.0600 -0.4923 -0.0726
  407MOL0     O54818   7.251   4.980   9.464 -0.7307  0.7409 -0.4049
  407MOL0     C54819   7.283   4.853   9.527 -0.6726  0.1598  0.4232
  407MOL0     C54820   7.154   4.773   9.545  0.6578  0.3645  1.5904
  407MOL0     C54821   7.045   4.834   9.638  0.4620  1.6264 -0.5711
  407MOL0     C54822   6.958   4.724   9.706  0.4275  0.0708  0.1746
  407MOL0     C54823   6.861   4.672   9.599  0.8281  0.3112 -0.2569
  407MOL0     C54824   6.751   4.576   9.639  0.6386  1.1015 -0.4012
  407MOL0     C54825   6.684   4.519   9.523 -0.2102  0.6018 -0.4349
  407MOL0     C54826   6.582   4.409   9.562  0.4428 -0.6692  0.1519
  407MOL0     N54827   6.633   4.274   9.583  0.5585 -1.0398 -0.4040
  407MOL0     C54828   6.681   4.179   9.502 -0.2252  0.0691 -0.3824
  407MOL0     C54829   6.717   4.077   9.578 -0.2770 -0.9949 -0.2547
  407MOL0     C54830   6.788   3.946   9.549  0.7250 -0.4057  0.0092
  407MOL0     C54831   6.949   3.937   9.572  0.8338  0.2507  0.5678
  407MOL0     C54832   7.014   4.076   9.520 -0.7251 -0.5697 -0.1719
  407MOL0     C54833   7.019   4.181   9.633 -0.6491  0.2187  0.2566
  407MOL0     O54834   7.023   4.316   9.590 -0.8795  0.3246 -0.8928
  407MOL0     C54835   7.134   4.351   9.522 -0.3766 -0.5072 -0.1823
  407MOL0     C54836   7.108   4.407   9.398 -0.6805  0.4563  0.4204
  407MOL0     C54837   7.218   4.434   9.309  0.6770  1.0043  0.7192
  407MOL0     C54838   7.351   4.422   9.353 -0.4884 -0.5572  0.2925
  407MOL0     C54839   7.464   4.479   9.271  0.0599  0.2627 -0.1052
  407MOL0     O54840   7.432   4.537   9.148  0.1334  0.0797 -0.1916
  407MOL0     C54841   7.535   4.580   9.065  0.0605 -0.8628 -0.0622
  407MOL0     C54842   7.644   4.666   9.107  0.3087  0.4547 -0.2061
  407MOL0     C54843   7.741   4.710   9.014 -0.6878 -0.9555  0.7552
  407MOL0     C54844   7.743   4.657   8.880  0.6645 -0.7482 -1.0333
  407MOL0     O54845   7.830   4.699   8.784 -0.0005  0.1118 -1.2818
  407MOL0     C54846   7.911   4.814   8.810 -0.2239 -0.4940  0.2635
  407MOL0     C54847   8.036   4.772   8.884 -0.1283 -1.0925  1.1083
  407MOL0     C54848   8.115   4.661   8.825  0.3241 -0.3140 -0.0975
  407MOL0     C54849   8.260   4.696   8.879  0.6146  0.2289  0.5776
  407MOL0     C54850   8.374   4.613   8.828  0.4430 -0.2042  0.0015
  407MOL0     C54851   8.392   4.626   8.681  0.1184 -1.4364 -0.4041
  407MOL0     C54852   8.539   4.600   8.648  0.1679  0.7229  0.3691
  407MOL0     C54853   8.559   4.569   8.491  0.7924  0.4905 -0.3211
  407MOL0    Cl54854   8.478   4.416   8.462 -0.3462  0.0488 -0.1132
  407MOL0     C54855   7.635   4.559   8.854 -1.0138 -0.5224 -0.4159
  407MOL0     C54856   7.536   4.524   8.940 -0.0509  0.4174  0.4337
  407MOL0     O54857   7.579   4.444   9.309 -1.4536 -0.7271 -0.4072
  407MOL0     C54858   7.384   4.366   9.477 -0.0192 -0.3323 -1.2785
  407MOL0     C54859   7.274   4.329   9.558  0.6914 -0.2801 -0.0829
  407MOL0     N54860   6.673   4.107   9.708  0.0896 -0.1177  0.1150
  407MOL0     N54861   6.622   4.224   9.707 -0.0508 -0.6291  0.1878
  407MOL0     C54862   7.273   5.111   9.269 -0.0022  0.1160 -0.6642
  407MOL0     C54863   7.320   5.127   9.133 -0.0814 -0.0730  0.0053
  407MOL0     C54864   7.524   5.111   8.745 -0.6980 -0.0782  0.7736
  407MOL0     C54865   7.604   5.227   8.725  0.2225 -0.0549  0.7148
  407MOL0     C54866   7.702   5.237   8.630 -0.8624  0.2720 -0.2790
  407MOL0     C54867   7.739   5.130   8.557 -0.6273 -0.1394 -0.2121
  407MOL0     O54868   7.847   5.139   8.478 -0.3517  0.3897  0.0184
  407MOL0     C54869   7.883   5.017   8.407  0.9463  0.8213 -0.0954
  407MOL0     C54870   7.996   5.068   8.322 -0.0881 -0.1011  0.2532
  407MOL0     C54871   8.037   4.954   8.223 -0.3139  0.0362 -0.3214
  407MOL0     C54872   8.144   4.857   8.285 -0.0003  0.0841 -1.2951
  407MOL0     C54873   8.271   4.938   8.282  1.0379  0.7363 -0.1187
  407MOL0     C54874   8.370   5.006   8.273  0.0115 -0.2848  0.2752
  407MOL0     C54875   7.670   5.009   8.586 -1.3269  0.4501 -0.1078
  407MOL0     C54876   7.561   4.997   8.675  0.3353  0.9398  0.0720
  407MOL0     C54877   7.505   4.862   8.708  0.1304 -0.5197  0.6493
  407MOL0     H54878   7.338   4.815   9.042 -1.3423 -0.4940  1.6024
  407MOL0     H54879   7.288   4.773   9.257 -3.5535  0.1436  0.7650
  407MOL0     H54880   7.348   4.788   9.467 -1.2370  0.4390 -0.5187
  407MOL0     H54881   7.346   4.879   9.612  0.5883 -4.0537  1.0143
  407MOL0     H54882   7.182   4.668   9.555 -2.6117 -1.3080 -3.3617
  407MOL0     H54883   7.108   4.770   9.446  2.9666  0.2119  0.4742
  407MOL0     H54884   6.979   4.910   9.595  1.1076  1.4527 -1.9275
  407MOL0     H54885   7.102   4.875   9.722  2.5314 -1.0585 -0.5175
  407MOL0     H54886   7.010   4.638   9.751 -1.3317 -1.8870 -1.3683
  407MOL0     H54887   6.912   4.774   9.792  0.6152  2.4319 -1.0055
  407MOL0     H54888   6.805   4.761   9.567  1.2868  0.3844 -0.8830
  407MOL0     H54889   6.917   4.638   9.511  1.7297  0.3541  0.2990
  407MOL0     H54890   6.788   4.494   9.701  1.8899  3.4192  2.1308
  407MOL0     H54891   6.685   4.623   9.712 -0.9235 -2.2128  0.5079
  407MOL0     H54892   6.737   4.470   9.441 -4.4464 -1.3624 -2.3260
  407MOL0     H54893   6.629   4.606   9.487 -0.6120  0.4744 -0.1360
  407MOL0     H54894   6.529   4.450   9.649 -1.6003  1.3358 -1.8712
  407MOL0     H54895   6.504   4.396   9.486 -0.2467 -2.7901  1.1534
  407MOL0     H54896   6.695   4.191   9.395 -0.3025 -1.2979 -0.5662
  407MOL0     H54897   6.739   3.858   9.590 -1.5242  0.6510 -0.2362
  407MOL0     H54898   6.775   3.927   9.442 -0.1655 -2.7934  0.4900
  407MOL0     H54899   6.971   3.937   9.679 -1.9875 -0.3732  1.2149
  407MOL0     H54900   6.978   3.851   9.512  0.0240  0.8795 -0.7668
  407MOL0     H54901   6.957   4.122   9.439 -0.9129 -0.2851  0.1168
  407MOL0     H54902   7.117   4.071   9.484 -0.8894  2.3547 -1.3948
  407MOL0     H54903   7.104   4.161   9.699  0.9454  0.9270 -1.5186
  407MOL0     H54904   6.931   4.175   9.699 -0.7030  1.6819  0.3345
  407MOL0     H54905   7.007   4.422   9.362  0.5752  1.8331 -2.9007
  407MOL0     H54906   7.196   4.453   9.205 -0.6136 -3.8062 -0.1400
  407MOL0     H54907   7.640   4.714   9.204 -0.6420  3.2902 -1.5556
  407MOL0     H54908   7.801   4.798   9.033 -1.0312  0.9353 -4.8967
  407MOL0     H54909   7.947   4.854   8.715 -0.0295  3.8143  1.9543
  407MOL0     H54910   7.862   4.895   8.865 -1.4482 -0.3758 -0.9578
  407MOL0     H54911   8.092   4.866   8.872 -0.8270 -0.8893 -1.1746
  407MOL0     H54912   8.042   4.751   8.991  0.3827 -0.8157  1.1360
  407MOL0     H54913   8.078   4.570   8.873 -1.4062  1.3671  2.0022
  407MOL0     H54914   8.104   4.659   8.716  2.7106  1.7078 -0.4749
  407MOL0     H54915   8.267   4.683   8.988  1.1982 -1.9758  0.3261
  407MOL0     H54916   8.278   4.800   8.850 -3.4149  1.1354  0.6240
  407MOL0     H54917   8.363   4.507   8.851  0.9417 -0.2461  0.0490
  407MOL0     H54918   8.458   4.655   8.885  0.5399  0.1284 -0.3816
  407MOL0     H54919   8.327   4.554   8.630 -0.3801 -0.9293 -0.4866
  407MOL0     H54920   8.375   4.725   8.640  1.8062 -1.0369 -0.2019
  407MOL0     H54921   8.572   4.514   8.708  0.5446  0.7538  0.2063
  407MOL0     H54922   8.597   4.688   8.675  0.7110  1.6106 -3.1392
  407MOL0     H54923   8.516   4.649   8.430  0.8839  1.2312  0.5630
  407MOL0     H54924   8.666   4.556   8.475  1.3081 -0.4881  3.0043
  407MOL0     H54925   7.644   4.508   8.758  0.6032  1.5058 -1.4273
  407MOL0     H54926   7.466   4.447   8.909  0.1643  0.6263 -0.6039
  407MOL0     H54927   7.485   4.388   9.511 -1.1377  1.1525  1.4222
  407MOL0     H54928   7.276   4.278   9.654 -1.1000  0.2516  0.2862
  407MOL0     H54929   7.244   5.194   9.332  0.9389  0.1795 -0.3025
  407MOL0     H54930   7.329   5.224   9.085  0.6804  1.4729  3.0327
  407MOL0     H54931   7.572   5.319   8.772 -4.0535  1.5621 -4.3022
  407MOL0     H54932   7.763   5.326   8.620 -0.4430  0.0602  0.2836
  407MOL0     H54933   7.796   4.985   8.349  0.9344  0.5270  0.0865
  407MOL0     H54934   7.923   4.938   8.471  3.6420  2.0034 -0.1461
  407MOL0     H54935   8.081   5.095   8.386 -2.7568  2.3753  3.1319
  407MOL0     H54936   7.956   5.157   8.272 -0.9215 -0.3261  0.5107
  407MOL0     H54937   8.068   5.002   8.130 -1.5612  1.1671 -0.1793
  407MOL0     H54938   7.946   4.898   8.198 -0.6963 -0.2803  1.6651
  407MOL0     H54939   8.121   4.828   8.388  0.8996 -0.4833 -1.2441
  407MOL0     H54940   8.147   4.762   8.231  0.2725 -1.2970  1.0150
  407MOL0     H54941   8.452   5.072   8.256  0.6172 -1.7142 -3.0690
  407MOL0     H54942   7.700   4.916   8.539 -3.2182 -2.0397  3.1226
  407MOL0     H54943   7.403   4.859   8.668  1.3281  1.0831 -2.8889
  407MOL0     H54944   7.547   4.778   8.652 -1.6235 -0.5307 -0.7462
  407MOL0     H54945   7.509   4.843   8.816 -1.8684 -1.0929  0.6610
  408MOL0     O54946   2.563   8.183   1.581  0.2374  0.0586  0.3725
  408MOL0     C54947   2.587   8.096   1.496  0.1910 -0.1525  0.5155
  408MOL0     O54948   2.590   8.116   1.356 -0.7267 -0.1156  0.0390
  408MOL0     C54949   2.590   8.243   1.314  0.9658 -0.2754 -0.3608
  408MOL0     C54950   2.699   8.317   1.283 -0.0686 -1.1328 -1.0707
  408MOL0     C54951   2.689   8.448   1.235  0.3197  0.1733 -0.2418
  408MOL0     C54952   2.563   8.503   1.219  0.2238 -0.7003  0.1535
  408MOL0     O54953   2.558   8.640   1.189 -0.2096 -0.2160  1.1322
  408MOL0     C54954   2.423   8.696   1.173 -0.2332  0.2238  0.0947
  408MOL0     C54955   2.433   8.817   1.083 -0.3238  0.6513 -0.5274
  408MOL0     C54956   2.297   8.889   1.079 -0.1394 -0.6781  0.3863
  408MOL0     C54957   2.289   8.987   1.197 -0.3982  0.3210 -0.6258
  408MOL0     C54958   2.162   9.070   1.204  0.2170  0.4111 -0.1355
  408MOL0     C54959   2.174   9.200   1.286  0.3023 -0.4775  0.3138
  408MOL0     C54960   2.268   9.305   1.221  0.8802  1.1993 -0.3475
  408MOL0     C54961   2.239   9.446   1.277  0.0542  0.2098  0.1707
  408MOL0     N54962   2.150   9.527   1.186 -0.8009  0.9528 -0.3558
  408MOL0     C54963   2.168   9.662   1.142 -0.3589  0.6382  0.5932
  408MOL0     C54964   2.067   9.681   1.060  0.9506 -0.0489 -0.0780
  408MOL0     C54965   2.045   9.807   0.981  1.2446 -0.2661 -0.0690
  408MOL0     C54966   2.156   9.839   0.899 -0.6819 -0.6506  0.9479
  408MOL0     C54967   2.137   9.799   0.743 -0.6856 -0.4797 -0.7211
  408MOL0     C54968   2.264   9.843   0.671  0.3034  0.0216  0.1091
  408MOL0     O54969   2.251   9.787   0.540  0.3957  0.0357  0.4096
  408MOL0     C54970   2.326   9.828   0.429 -0.9584  0.4774  0.4056
  408MOL0     C54971   2.335   9.749   0.312  0.3074 -0.3616 -0.2601
  408MOL0     C54972   2.431   9.782   0.217 -0.0456 -0.7980 -0.2532
  408MOL0     C54973   2.513   9.897   0.231 -0.0205 -0.9709  0.1264
  408MOL0     C54974   2.624   9.931   0.128  0.9513  0.3028  0.4397
  408MOL0     O54975   2.690  10.061   0.132  0.1648 -0.0717  0.4525
  408MOL0     C54976   2.787  10.082   0.040 -0.0314 -0.5028  0.3259
  408MOL0     C54977   2.798  10.213  -0.011 -0.6049  0.9311  0.5920
  408MOL0     C54978   2.894  10.247  -0.107  0.1162  0.7202 -0.1468
  408MOL0     C54979   2.987  10.150  -0.146  1.1035  0.4620 -0.0506
  408MOL0     O54980   3.060  10.190  -0.258  0.1127 -0.4291  0.4038
  408MOL0     C54981   3.195  10.141  -0.269  0.4053 -0.4831  1.4794
  408MOL0     C54982   3.301  10.243  -0.329 -0.8510 -0.8870  0.7213
  408MOL0     C54983   3.450  10.184  -0.324  0.5532 -1.9568 -0.3816
  408MOL0     C54984   3.536  10.294  -0.382 -0.4146 -0.1717 -0.4255
  408MOL0     C54985   3.693  10.272  -0.352  0.1417  0.6007  0.5726
  408MOL0     C54986   3.778  10.398  -0.392  0.1306 -0.6107  0.4628
  408MOL0     C54987   3.757  10.448  -0.534  0.3930  0.5279  0.7593
  408MOL0     C54988   3.786  10.588  -0.546 -0.3877 -0.4356 -0.4704
  408MOL0    Cl54989   3.850  10.638  -0.707 -0.0474 -0.3505  0.0481
  408MOL0     C54990   2.981  10.023  -0.095  1.0738 -0.1785 -0.0559
  408MOL0     C54991   2.889   9.987   0.001  0.4929 -0.5992 -0.4548
  408MOL0     O54992   2.626   9.852   0.030 -0.3741 -0.2510  0.2167
  408MOL0     C54993   2.511   9.970   0.352 -0.3936 -0.1575 -0.2042
  408MOL0     C54994   2.422   9.926   0.459 -0.9433 -0.0798 -0.2950
  408MOL0     N54995   1.985   9.568   1.054  0.3285 -0.2715 -1.3554
  408MOL0     N54996   2.046   9.475   1.116 -0.2435 -0.1164  0.2265
  408MOL0     C54997   2.450   8.427   1.241  0.3031  0.1724 -0.0335
  408MOL0     C54998   2.458   8.294   1.284 -0.2413  0.6268 -0.5107
  408MOL0     C54999   2.562   7.964   1.551 -0.0635  0.0664  0.1369
  408MOL0     C55000   2.632   7.931   1.665  0.4245 -0.1158 -0.2336
  408MOL0     C55001   2.600   7.807   1.730  0.4820 -0.1673 -0.1130
  408MOL0     C55002   2.526   7.705   1.669  0.4055  1.1680 -0.0678
  408MOL0     O55003   2.517   7.568   1.713  0.7217  0.0753  0.3925
  408MOL0     C55004   2.602   7.520   1.819  0.3403  0.6178 -0.5729
  408MOL0     C55005   2.590   7.368   1.834 -0.3134 -0.0398 -0.8922
  408MOL0     C55006   2.650   7.331   1.967 -1.0154 -0.5294 -0.5149
  408MOL0     C55007   2.816   7.337   1.978  0.4038  0.9859  0.2531
  408MOL0     C55008   2.855   7.311   2.117  0.1242 -0.2410  0.3440
  408MOL0     C55009   2.898   7.286   2.229 -1.0038  0.3465 -0.4012
  408MOL0     C55010   2.459   7.746   1.558  0.0822  0.1216 -0.6856
  408MOL0     C55011   2.469   7.872   1.493 -0.5711  0.0639 -0.1526
  408MOL0     C55012   2.378   7.907   1.376 -0.1578 -1.1777  0.3376
  408MOL0     H55013   2.800   8.289   1.314 -0.6267 -1.6034  0.4237
  408MOL0     H55014   2.782   8.501   1.216  1.1991 -0.6443  1.4766
  408MOL0     H55015   2.359   8.632   1.113  1.0660  0.5202 -1.6681
  408MOL0     H55016   2.389   8.722   1.274  0.3765 -2.0779  0.9805
  408MOL0     H55017   2.454   8.791   0.979  0.8064 -0.5552 -0.0252
  408MOL0     H55018   2.509   8.883   1.127 -1.0230  0.4229  1.0893
  408MOL0     H55019   2.219   8.811   1.084 -1.1403  0.3170  0.6444
  408MOL0     H55020   2.286   8.947   0.987  0.5332  2.4950  2.1931
  408MOL0     H55021   2.290   8.936   1.294  1.2620  1.0325 -0.2275
  408MOL0     H55022   2.366   9.063   1.213 -1.8304  1.1775  3.5024
  408MOL0     H55023   2.143   9.104   1.102 -0.3710  0.1649 -0.1120
  408MOL0     H55024   2.075   9.009   1.232  0.3791  1.0750  1.9750
  408MOL0     H55025   2.075   9.248   1.284  0.0731 -0.6093  3.5227
  408MOL0     H55026   2.215   9.195   1.387 -0.8099 -2.3058  0.7190
  408MOL0     H55027   2.274   9.298   1.112 -0.7851 -2.2923 -0.3570
  408MOL0     H55028   2.366   9.272   1.255  0.5003 -1.7876 -1.7543
  408MOL0     H55029   2.205   9.434   1.380 -4.5968 -3.1734 -1.3969
  408MOL0     H55030   2.330   9.507   1.271 -0.2664  0.5943 -3.2520
  408MOL0     H55031   2.255   9.727   1.143  1.0646 -0.5984 -5.2071
  408MOL0     H55032   1.942   9.808   0.944  0.4470  1.6631  1.9681
  408MOL0     H55033   2.041   9.885   1.058 -2.1872 -0.1161 -0.2141
  408MOL0     H55034   2.185   9.944   0.891  0.1465 -1.0027 -2.3315
  408MOL0     H55035   2.250   9.805   0.944 -1.9874 -1.4861  3.2167
  408MOL0     H55036   2.055   9.857   0.700 -2.5186 -2.0904  0.3974
  408MOL0     H55037   2.118   9.692   0.725 -1.9689 -0.2911 -0.5780
  408MOL0     H55038   2.351   9.807   0.727 -0.4045 -0.7340  0.7491
  408MOL0     H55039   2.277   9.951   0.667  3.9690 -0.2968 -0.4384
  408MOL0     H55040   2.260   9.672   0.297  0.8104 -1.2583  1.5154
  408MOL0     H55041   2.448   9.715   0.133 -1.8336  1.6300 -2.7299
  408MOL0     H55042   2.744  10.302   0.021 -0.8971  0.7905  0.4843
  408MOL0     H55043   2.902  10.347  -0.146  0.5707  0.3570 -1.0067
  408MOL0     H55044   3.236  10.117  -0.170  1.1177 -1.4936  0.9582
  408MOL0     H55045   3.193  10.048  -0.327 -0.0747  0.2265  0.3328
  408MOL0     H55046   3.273  10.279  -0.428  3.6780  1.0765 -0.0892
  408MOL0     H55047   3.302  10.339  -0.275 -2.0529  1.9354 -3.7501
  408MOL0     H55048   3.469  10.164  -0.218  1.6329  1.4709  0.2130
  408MOL0     H55049   3.457  10.093  -0.384 -1.2640  0.4494 -4.7023
  408MOL0     H55050   3.497  10.394  -0.363 -1.3211 -0.4243 -0.8676
  408MOL0     H55051   3.519  10.290  -0.490 -2.1093 -0.5394 -0.1852
  408MOL0     H55052   3.738  10.186  -0.403 -1.4332 -0.2440  0.5398
  408MOL0     H55053   3.715  10.251  -0.247  0.1585 -1.2356  0.2317
  408MOL0     H55054   3.759  10.478  -0.321 -0.1920  0.1944 -0.5029
  408MOL0     H55055   3.881  10.366  -0.380 -0.0324 -1.0384  0.7444
  408MOL0     H55056   3.669  10.411  -0.587  0.9354  0.2562  0.0528
  408MOL0     H55057   3.836  10.409  -0.598 -0.6254  0.5376 -0.5314
  408MOL0     H55058   3.694  10.646  -0.534 -0.8198 -1.1828 -0.0824
  408MOL0     H55059   3.859  10.628  -0.475  3.9769 -4.4614 -2.1513
  408MOL0     H55060   3.043   9.942  -0.130 -0.4770 -1.9864  1.1609
  408MOL0     H55061   2.879   9.890   0.049 -3.8427  0.1954  0.6953
  408MOL0     H55062   2.576  10.053   0.376  0.3556 -0.8640  0.2889
  408MOL0     H55063   2.444   9.964   0.558 -0.7434 -1.9450  0.4224
  408MOL0     H55064   2.349   8.466   1.251  0.4325  1.0461 -1.6661
  408MOL0     H55065   2.364   8.250   1.316 -1.4635  3.9061  0.8302
  408MOL0     H55066   2.694   8.005   1.713 -3.9745  2.2745  2.5045
  408MOL0     H55067   2.627   7.781   1.832  1.0482 -3.0371 -0.9200
  408MOL0     H55068   2.561   7.563   1.911 -0.0200  3.2093 -1.8284
  408MOL0     H55069   2.702   7.554   1.792  0.3685  1.6715  0.7605
  408MOL0     H55070   2.650   7.325   1.753  0.2351 -1.1052  0.0579
  408MOL0     H55071   2.487   7.340   1.813  0.4513 -4.6305  0.5320
  408MOL0     H55072   2.611   7.234   1.999 -1.9605 -0.8922 -2.6104
  408MOL0     H55073   2.618   7.391   2.052  0.3770  0.9694 -0.9873
  408MOL0     H55074   2.863   7.260   1.917 -0.3411 -1.7095  2.8718
  408MOL0     H55075   2.848   7.436   1.942  3.6103 -0.5383 -1.5290
  408MOL0     H55076   2.931   7.245   2.322 -0.3222  0.1651 -0.7177
  408MOL0     H55077   2.389   7.670   1.524  3.4990 -2.7186 -2.1493
  408MOL0     H55078   2.336   7.818   1.330 -3.5041  0.3369  0.1481
  408MOL0     H55079   2.289   7.955   1.418 -0.5788 -2.4477  0.9317
  408MOL0     H55080   2.419   7.975   1.301 -0.2483 -1.8523 -0.3242
  409MOL0     O55081   6.640  10.299   1.908  0.5389 -0.0728  0.0513
  409MOL0     C55082   6.579  10.339   2.005 -0.6222  0.1370  0.1746
  409MOL0     O55083   6.460  10.315   2.033  0.4130  0.0226 -0.1158
  409MOL0     C55084   6.385  10.244   1.953 -0.7417  0.9520 -0.1849
  409MOL0     C55085   6.371  10.105   1.974  0.3038 -0.4836 -0.3589
  409MOL0     C55086   6.266  10.030   1.914  0.3897  0.3774 -0.0568
  409MOL0     C55087   6.174  10.106   1.834 -0.4812 -0.2242  0.6003
  409MOL0     O55088   6.076  10.029   1.771 -0.0992  0.0330  0.0878
  409MOL0     C55089   5.938  10.065   1.797 -0.1484  0.3491  0.1091
  409MOL0     C55090   5.853   9.943   1.833  0.1575 -0.2131  0.2055
  409MOL0     C55091   5.780   9.875   1.705 -0.1185 -0.2435  0.2417
  409MOL0     C55092   5.683   9.762   1.723  0.2910 -0.1943 -0.6707
  409MOL0     C55093   5.586   9.785   1.845 -0.0137  0.2096 -0.2866
  409MOL0     C55094   5.468   9.685   1.845  0.1400 -0.4763 -0.2981
  409MOL0     C55095   5.349   9.737   1.921  0.2394  0.2279  0.2096
  409MOL0     C55096   5.245   9.632   1.978  0.1257  0.5775  0.4593
  409MOL0     N55097   5.174   9.558   1.871 -0.2279  0.6746 -0.8242
  409MOL0     C55098   5.053   9.579   1.817 -0.8748  0.2380 -0.3011
  409MOL0     C55099   5.046   9.503   1.705 -0.3869 -0.4182 -0.7000
  409MOL0     C55100   4.927   9.516   1.609 -0.3076  0.3006 -0.0352
  409MOL0     C55101   4.921   9.430   1.476 -0.3854 -0.5320  0.1227
  409MOL0     C55102   4.823   9.464   1.361  0.7813  0.4944 -0.8427
  409MOL0     C55103   4.679   9.505   1.389  0.6672 -0.4482  0.2424
  409MOL0     O55104   4.686   9.617   1.475  0.2406 -0.5874 -0.1870
  409MOL0     C55105   4.569   9.657   1.539  0.3813 -0.9514  0.8794
  409MOL0     C55106   4.582   9.765   1.619  0.0912  0.0323  0.5573
  409MOL0     C55107   4.471   9.802   1.705  0.4478 -0.7156 -0.2401
  409MOL0     C55108   4.362   9.721   1.729  0.4066  0.2065 -0.2137
  409MOL0     C55109   4.258   9.758   1.822 -0.1741 -0.3410 -0.5277
  409MOL0     O55110   4.126   9.724   1.795  0.8611 -0.0279 -1.0303
  409MOL0     C55111   4.032   9.780   1.872 -0.2071 -0.3281 -0.4194
  409MOL0     C55112   3.937   9.697   1.921 -0.6452  0.3072 -0.0963
  409MOL0     C55113   3.851   9.754   2.021  0.7055  0.4463 -0.4318
  409MOL0     C55114   3.853   9.887   2.058  0.0395  0.1334 -0.2735
  409MOL0     O55115   3.769   9.948   2.144 -0.6185  0.4095 -0.6204
  409MOL0     C55116   3.734   9.874   2.263  0.0613 -0.3926  0.1686
  409MOL0     C55117   3.644   9.971   2.344  0.9428 -0.0422  0.0612
  409MOL0     C55118   3.710  10.085   2.420 -0.1476  0.5708 -0.0609
  409MOL0     C55119   3.624  10.197   2.467 -0.0410 -0.4920  0.3029
  409MOL0     C55120   3.507  10.171   2.568  0.2411 -0.1323 -0.7259
  409MOL0     C55121   3.548  10.082   2.678  0.1578 -0.9162 -0.4241
  409MOL0     C55122   3.441  10.054   2.775 -0.1481 -0.2167  0.0848
  409MOL0     C55123   3.462  10.122   2.905 -0.2989 -0.1962 -0.5165
  409MOL0    Cl55124   3.605  10.047   2.986 -0.2942 -0.2430 -0.0854
  409MOL0     C55125   3.948   9.971   2.004  0.1105 -0.1670 -0.6133
  409MOL0     C55126   4.030   9.915   1.910 -1.1049  0.1679  0.5398
  409MOL0     O55127   4.300   9.822   1.922  0.3364  0.3766 -0.4412
  409MOL0     C55128   4.350   9.605   1.640 -0.1432 -0.7494 -0.0246
  409MOL0     C55129   4.452   9.583   1.547  0.3725  0.4054 -0.2040
  409MOL0     N55130   5.157   9.419   1.703  0.0055  0.3016 -0.4376
  409MOL0     N55131   5.230   9.452   1.805 -0.1315  0.3023  0.0493
  409MOL0     C55132   6.194  10.240   1.807  0.1772 -0.8047  0.5582
  409MOL0     C55133   6.299  10.313   1.874 -0.9013  1.0606 -0.3445
  409MOL0     C55134   6.650  10.426   2.097 -0.9497  0.3113  0.3802
  409MOL0     C55135   6.796  10.419   2.101 -0.4753  0.7142 -0.0565
  409MOL0     C55136   6.877  10.505   2.171 -0.9662 -0.5635  0.4183
  409MOL0     C55137   6.809  10.608   2.236 -0.1077  0.1036 -0.1602
  409MOL0     O55138   6.880  10.696   2.310 -0.5016  0.0422  0.5510
  409MOL0     C55139   6.825  10.744   2.432  0.6276  0.0600 -0.1364
  409MOL0     C55140   6.838  10.644   2.539  0.7241 -0.2252 -0.1790
  409MOL0     C55141   6.768  10.683   2.667 -0.7802  0.5117  0.2380
  409MOL0     C55142   6.843  10.797   2.748  0.4151  0.8570 -0.6689
  409MOL0     C55143   6.806  10.930   2.704  0.1875  0.5233  0.0674
  409MOL0     C55144   6.770  11.040   2.670 -0.2695  0.5889  1.2461
  409MOL0     C55145   6.660  10.619   2.232 -0.0947 -0.3330  0.1090
  409MOL0     C55146   6.584  10.537   2.149  0.2992 -0.1959 -0.7170
  409MOL0     C55147   6.434  10.563   2.155  0.8852 -0.1961  0.5271
  409MOL0     H55148   6.436  10.048   2.039 -1.7923 -1.3690  1.0953
  409MOL0     H55149   6.266   9.922   1.923 -3.1194 -0.2123 -3.9770
  409MOL0     H55150   5.925  10.132   1.882  1.7803  0.9797 -0.0427
  409MOL0     H55151   5.912  10.118   1.705 -0.6685 -2.7785 -1.6852
  409MOL0     H55152   5.768   9.985   1.887 -4.2868 -3.4201 -3.4484
  409MOL0     H55153   5.898   9.871   1.901  1.5957 -0.8468 -1.3389
  409MOL0     H55154   5.856   9.833   1.639  0.4764  0.2834  0.5759
  409MOL0     H55155   5.726   9.952   1.649 -1.1848 -1.9707 -1.2084
  409MOL0     H55156   5.631   9.744   1.628 -1.0512 -3.2436  0.5116
  409MOL0     H55157   5.747   9.675   1.739  3.4511  2.2604  1.2929
  409MOL0     H55158   5.639   9.775   1.940  1.3692  1.4782 -0.8909
  409MOL0     H55159   5.550   9.887   1.828  0.6867  0.5384  0.1791
  409MOL0     H55160   5.439   9.680   1.739  0.7896 -1.5734 -0.4322
  409MOL0     H55161   5.497   9.583   1.871  0.3567 -0.1253  0.8778
  409MOL0     H55162   5.298   9.812   1.860  2.3697 -0.0018 -1.9695
  409MOL0     H55163   5.399   9.794   2.001 -0.7900  2.7719 -0.8718
  409MOL0     H55164   5.312   9.571   2.039  1.1486  0.9688 -0.2479
  409MOL0     H55165   5.177   9.688   2.043 -1.0558  1.2108 -1.2512
  409MOL0     H55166   4.983   9.657   1.847 -0.3672  0.7348 -0.4002
  409MOL0     H55167   4.833   9.489   1.659 -0.4402 -1.2568 -1.0677
  409MOL0     H55168   4.916   9.623   1.592  3.2822  1.2146  2.2887
  409MOL0     H55169   5.021   9.433   1.432 -0.8052 -1.7050 -0.9700
  409MOL0     H55170   4.914   9.325   1.504  0.2824 -0.6495 -0.1493
  409MOL0     H55171   4.826   9.375   1.297  1.1336  0.0284 -0.1947
  409MOL0     H55172   4.865   9.547   1.305  2.0932  0.2986 -0.2051
  409MOL0     H55173   4.626   9.423   1.438  0.6020 -0.0870  0.7880
  409MOL0     H55174   4.634   9.534   1.294  0.5628 -1.8866 -0.1721
  409MOL0     H55175   4.676   9.818   1.624 -1.5922  3.6776 -1.8391
  409MOL0     H55176   4.478   9.890   1.768 -1.8044 -2.7556  3.1437
  409MOL0     H55177   3.925   9.593   1.893 -0.8310  0.2469  0.2006
  409MOL0     H55178   3.768   9.689   2.047  0.5471  0.5847 -0.5822
  409MOL0     H55179   3.693   9.777   2.232  1.9739 -1.0077 -0.5503
  409MOL0     H55180   3.824   9.854   2.322  0.9168 -0.1809 -1.0203
  409MOL0     H55181   3.568  10.009   2.275 -0.5209 -3.2240 -0.2420
  409MOL0     H55182   3.597   9.906   2.418 -2.3937 -0.6877 -2.4052
  409MOL0     H55183   3.786  10.045   2.488  2.0743  0.4082 -2.4933
  409MOL0     H55184   3.762  10.145   2.346  1.0589  2.1828  1.9674
  409MOL0     H55185   3.592  10.240   2.372 -0.5996 -0.2969  0.5715
  409MOL0     H55186   3.683  10.274   2.518  0.4468 -2.2082  2.4901
  409MOL0     H55187   3.434  10.106   2.519  0.5042 -2.2690  1.4992
  409MOL0     H55188   3.460  10.265   2.597  0.5325  0.6966 -2.7474
  409MOL0     H55189   3.588   9.986   2.643  0.7339 -1.1139  0.7245
  409MOL0     H55190   3.632  10.128   2.729  0.1119 -1.1470 -0.1392
  409MOL0     H55191   3.417   9.950   2.796 -2.1000  0.4515  1.4974
  409MOL0     H55192   3.343  10.095   2.746  0.9024  1.8902 -0.7189
  409MOL0     H55193   3.474  10.228   2.882 -3.9748  0.4002 -0.2679
  409MOL0     H55194   3.370  10.110   2.962 -0.5204  0.5599 -0.7083
  409MOL0     H55195   3.952  10.078   2.022 -1.6555  0.4980 -3.4958
  409MOL0     H55196   4.109   9.982   1.879  0.7705 -1.0964  2.2970
  409MOL0     H55197   4.259   9.545   1.637 -0.5790 -0.1344  0.7263
  409MOL0     H55198   4.441   9.495   1.485  2.1792  1.3825 -2.0146
  409MOL0     H55199   6.121  10.292   1.746  1.2909 -0.8240 -0.8278
  409MOL0     H55200   6.309  10.421   1.872  1.4190  0.8883 -0.6456
  409MOL0     H55201   6.829  10.341   2.033 -3.1094 -0.9332  0.4219
  409MOL0     H55202   6.985  10.501   2.165 -0.7931  0.1826  2.2425
  409MOL0     H55203   6.723  10.776   2.410 -0.6386 -3.2863  0.2444
  409MOL0     H55204   6.880  10.831   2.469 -3.6714  2.6315  0.8607
  409MOL0     H55205   6.946  10.638   2.558  1.0146  1.8736 -0.9332
  409MOL0     H55206   6.778  10.554   2.520 -2.4708  1.3008  1.8681
  409MOL0     H55207   6.752  10.592   2.726  0.4269 -2.5528 -3.7404
  409MOL0     H55208   6.670  10.721   2.639  1.2820  4.4329 -2.7839
  409MOL0     H55209   6.807  10.798   2.852  0.5128  0.6767 -0.6324
  409MOL0     H55210   6.951  10.788   2.761 -0.0873 -3.3538  3.2059
  409MOL0     H55211   6.741  11.136   2.634 -0.4121  0.5931  1.3731
  409MOL0     H55212   6.606  10.698   2.283 -1.4689 -1.5280  0.5389
  409MOL0     H55213   6.406  10.575   2.050  0.1397 -2.8743  0.3665
  409MOL0     H55214   6.367  10.490   2.201  1.6448 -0.8834  0.5550
  409MOL0     H55215   6.400  10.658   2.199 -2.6185  0.0347 -2.2404
  410MOL0     O55216   6.939   5.977   6.003  0.0142  0.1110 -0.2994
  410MOL0     C55217   6.889   5.870   6.028 -0.8084  0.2294  0.0142
  410MOL0     O55218   6.931   5.792   6.137 -0.6788 -0.5534  0.5116
  410MOL0     C55219   7.043   5.834   6.208 -0.0805  0.1795 -0.5499
  410MOL0     C55220   7.175   5.823   6.156  0.5628  0.8409 -0.1435
  410MOL0     C55221   7.291   5.833   6.228  0.3840 -1.2531 -0.2126
  410MOL0     C55222   7.266   5.858   6.367 -0.3199  0.2165  0.3689
  410MOL0     O55223   7.372   5.873   6.455  0.1550 -0.4565  0.4605
  410MOL0     C55224   7.507   5.861   6.412  0.5558 -0.2376  0.4878
  410MOL0     C55225   7.607   5.904   6.526  0.0838 -0.6106 -1.0507
  410MOL0     C55226   7.755   5.909   6.476 -0.5117 -0.4873  0.4988
  410MOL0     C55227   7.867   5.935   6.577  0.6207  0.6791 -1.1061
  410MOL0     C55228   8.021   5.888   6.538 -0.3216 -0.3740 -0.9784
  410MOL0     C55229   8.059   5.948   6.402  0.2388  0.0696  0.4297
  410MOL0     C55230   8.199   5.920   6.351 -0.1249 -0.9594  0.5105
  410MOL0     C55231   8.220   5.980   6.205 -0.1497 -0.4722 -0.1897
  410MOL0     N55232   8.327   5.924   6.117 -0.4222  0.8671 -0.2351
  410MOL0     C55233   8.350   5.790   6.094 -0.1827  0.4222 -0.4123
  410MOL0     C55234   8.461   5.794   6.022 -0.2978 -0.3197 -0.2089
  410MOL0     C55235   8.526   5.682   5.961 -2.0182  0.2159  0.4963
  410MOL0     C55236   8.544   5.721   5.812 -0.4000 -0.0173  0.9579
  410MOL0     C55237   8.587   5.610   5.729  0.2314 -0.5860  0.3995
  410MOL0     C55238   8.499   5.483   5.709  0.7323  0.0961  0.6848
  410MOL0     O55239   8.372   5.519   5.676 -0.4346 -0.4623  0.0682
  410MOL0     C55240   8.346   5.559   5.543 -0.4765  1.4590 -0.5262
  410MOL0     C55241   8.300   5.460   5.463  0.2417  0.3084  0.0906
  410MOL0     C55242   8.245   5.489   5.336  0.0072  0.7079 -1.5195
  410MOL0     C55243   8.221   5.624   5.305  0.5210 -0.1918  0.0186
  410MOL0     C55244   8.150   5.667   5.182 -0.6208  0.3701  0.4468
  410MOL0     O55245   8.149   5.584   5.081  0.2803 -0.3713 -0.3128
  410MOL0     C55246   8.061   5.609   4.971  0.2783  0.0378 -1.4070
  410MOL0     C55247   8.115   5.562   4.854  0.6015 -0.4885 -0.0483
  410MOL0     C55248   8.047   5.566   4.732 -0.0920 -0.9205 -0.5030
  410MOL0     C55249   7.933   5.647   4.724 -0.1058  0.3502  0.4525
  410MOL0     O55250   7.875   5.647   4.599  1.3865  0.3791 -0.5545
  410MOL0     C55251   7.761   5.734   4.575  0.3295  0.7702  0.3769
  410MOL0     C55252   7.688   5.675   4.447 -0.0749  0.0712  0.3330
  410MOL0     C55253   7.600   5.788   4.399 -0.7704  0.0017 -1.7477
  410MOL0     C55254   7.537   5.753   4.258  0.7547 -0.4048 -0.4695
  410MOL0     C55255   7.495   5.879   4.185  0.3160 -0.5091 -0.7131
  410MOL0     C55256   7.468   5.865   4.036 -0.2339 -0.5569  0.6963
  410MOL0     C55257   7.463   6.010   3.955 -0.0872 -0.2845  0.7203
  410MOL0     C55258   7.458   6.008   3.792 -0.3797  0.1049  0.2816
  410MOL0    Cl55259   7.477   6.180   3.747  0.0036  0.2711 -0.6024
  410MOL0     C55260   7.871   5.694   4.848  0.6223  0.1143  0.5662
  410MOL0     C55261   7.933   5.680   4.970 -0.7791 -0.2468  0.5898
  410MOL0     O55262   8.098   5.781   5.189 -0.3900  0.3329  0.3041
  410MOL0     C55263   8.264   5.734   5.392 -0.2622  0.8637  0.4709
  410MOL0     C55264   8.337   5.693   5.509 -0.0592  0.3839  1.0304
  410MOL0     N55265   8.502   5.922   6.008  0.7371  0.7835 -0.7668
  410MOL0     N55266   8.421   6.002   6.052 -0.2485 -0.2597 -0.4959
  410MOL0     C55267   7.141   5.869   6.422 -0.3655 -0.4223  0.2502
  410MOL0     C55268   7.033   5.854   6.345 -0.4591 -0.3525 -0.2999
  410MOL0     C55269   6.775   5.825   5.947  0.5578  0.0667  0.1600
  410MOL0     C55270   6.702   5.699   5.983 -0.3834 -0.1430  0.1752
  410MOL0     C55271   6.608   5.651   5.892 -0.1321  0.3500 -0.3818
  410MOL0     C55272   6.567   5.710   5.769 -0.5701 -0.4931 -0.1214
  410MOL0     O55273   6.463   5.659   5.701  0.7252  0.1248 -0.7936
  410MOL0     C55274   6.407   5.731   5.591 -0.0754  0.1065 -0.4364
  410MOL0     C55275   6.487   5.706   5.456 -0.4752  1.1232  0.2931
  410MOL0     C55276   6.494   5.558   5.413 -0.5434 -0.7858 -0.5887
  410MOL0     C55277   6.362   5.476   5.399  0.3326  0.3558  0.5643
  410MOL0     C55278   6.266   5.535   5.308 -0.7605  0.8730  0.0140
  410MOL0     C55279   6.163   5.570   5.265  0.3063 -0.6385  1.2668
  410MOL0     C55280   6.647   5.826   5.735 -0.2068 -0.5300  0.7714
  410MOL0     C55281   6.747   5.888   5.814 -0.4985 -0.4816  0.9386
  410MOL0     C55282   6.814   6.005   5.752  0.5780 -0.7477  0.7584
  410MOL0     H55283   7.181   5.798   6.050 -1.9406  1.6783 -0.5489
  410MOL0     H55284   7.394   5.816   6.201  0.1769 -2.0908 -0.5032
  410MOL0     H55285   7.525   5.757   6.383  0.9140  0.3023 -1.2707
  410MOL0     H55286   7.524   5.931   6.330 -2.1925 -0.5423 -0.4422
  410MOL0     H55287   7.610   5.844   6.617  2.2871 -0.8683 -1.2389
  410MOL0     H55288   7.571   6.004   6.551 -2.6749 -0.4371 -4.7893
  410MOL0     H55289   7.762   5.984   6.397 -1.0183 -2.7466 -1.7988
  410MOL0     H55290   7.786   5.815   6.430 -1.2304 -1.3319  1.6577
  410MOL0     H55291   7.873   6.041   6.604 -0.0562  0.3785  0.2699
  410MOL0     H55292   7.848   5.883   6.671  0.4128  1.1198 -0.9017
  410MOL0     H55293   8.080   5.926   6.622 -2.0926 -3.2582  1.7968
  410MOL0     H55294   8.020   5.779   6.536 -0.3687 -0.3912 -3.6112
  410MOL0     H55295   7.982   5.912   6.333  1.7823  0.4739 -1.5904
  410MOL0     H55296   8.041   6.056   6.407 -5.0972 -0.4826 -0.7897
  410MOL0     H55297   8.207   5.811   6.342 -6.1498 -1.5296 -3.1817
  410MOL0     H55298   8.277   5.972   6.408 -1.2326  1.7999 -0.3489
  410MOL0     H55299   8.133   5.975   6.138  0.4486  0.6885 -1.0885
  410MOL0     H55300   8.242   6.087   6.220  2.7349 -1.2654  2.2793
  410MOL0     H55301   8.300   5.699   6.124  2.5447 -1.8120 -2.1147
  410MOL0     H55302   8.626   5.681   6.007 -2.6362  0.3742  1.9020
  410MOL0     H55303   8.484   5.583   5.983 -0.6779  0.0097  2.4138
  410MOL0     H55304   8.449   5.756   5.771  0.1076  2.2061  1.5706
  410MOL0     H55305   8.614   5.805   5.808  0.0091 -0.3238  1.4659
  410MOL0     H55306   8.681   5.579   5.776  1.4666  0.3760 -1.3557
  410MOL0     H55307   8.610   5.646   5.629  0.2625 -2.2351 -0.2182
  410MOL0     H55308   8.495   5.415   5.794 -1.0765 -1.7664 -0.7610
  410MOL0     H55309   8.540   5.421   5.629 -0.3894 -0.5113  0.5507
  410MOL0     H55310   8.312   5.358   5.500  0.1156  0.2163 -0.1192
  410MOL0     H55311   8.229   5.416   5.258  1.6136 -0.9804 -0.3431
  410MOL0     H55312   8.212   5.513   4.857  0.2444 -1.1546  1.3758
  410MOL0     H55313   8.072   5.522   4.636  0.5554 -1.0624 -0.2781
  410MOL0     H55314   7.685   5.733   4.654  0.1874 -0.7690  0.2445
  410MOL0     H55315   7.790   5.837   4.550  1.0453  0.6767  0.7939
  410MOL0     H55316   7.765   5.650   4.374 -2.3234 -0.3142 -2.0229
  410MOL0     H55317   7.628   5.584   4.457 -3.7110  1.6889 -3.7825
  410MOL0     H55318   7.519   5.800   4.471  0.4542 -3.9264  0.5990
  410MOL0     H55319   7.654   5.884   4.397  2.0848 -1.3129  1.7103
  410MOL0     H55320   7.454   5.685   4.275  0.7070 -0.5812 -1.4123
  410MOL0     H55321   7.616   5.715   4.194 -0.8940 -0.6359 -2.4492
  410MOL0     H55322   7.568   5.960   4.188  2.3416 -1.9965 -4.0348
  410MOL0     H55323   7.404   5.921   4.229  0.7434  0.3789 -0.6567
  410MOL0     H55324   7.555   5.806   4.005 -2.1911 -3.8544  1.1065
  410MOL0     H55325   7.378   5.805   4.029 -0.9230  0.4058  1.1025
  410MOL0     H55326   7.556   6.059   3.986  1.1038 -1.5325 -0.6771
  410MOL0     H55327   7.372   6.061   3.986 -0.3009  1.1345 -1.9677
  410MOL0     H55328   7.541   5.945   3.759 -0.2883  0.0872  0.5441
  410MOL0     H55329   7.362   5.964   3.764  0.0403  1.0838 -3.1153
  410MOL0     H55330   7.774   5.743   4.852  1.0806  1.0575  0.5011
  410MOL0     H55331   7.889   5.714   5.064 -0.0371  2.0363  0.1845
  410MOL0     H55332   8.252   5.836   5.356  0.2728  1.4850  1.9629
  410MOL0     H55333   8.388   5.775   5.558  2.7794 -0.3365 -0.5191
  410MOL0     H55334   7.131   5.882   6.529 -2.2969  2.3506 -0.1480
  410MOL0     H55335   6.944   5.854   6.407  0.2877  1.3063  0.8467
  410MOL0     H55336   6.720   5.650   6.078 -1.3493 -2.7805 -0.8896
  410MOL0     H55337   6.560   5.556   5.913  2.8403 -1.3153 -0.4339
  410MOL0     H55338   6.394   5.838   5.609  3.6552  0.8431 -1.2188
  410MOL0     H55339   6.305   5.696   5.572  0.6339 -0.2814 -4.6561
  410MOL0     H55340   6.592   5.730   5.476 -1.2222  2.1152  3.6496
  410MOL0     H55341   6.436   5.756   5.373  0.1675 -1.0799 -1.5429
  410MOL0     H55342   6.555   5.525   5.498 -1.8591 -1.4632  0.1242
  410MOL0     H55343   6.547   5.537   5.320  1.6219 -0.8384  0.5794
  410MOL0     H55344   6.392   5.381   5.354 -1.2266 -1.0831  2.4105
  410MOL0     H55345   6.315   5.463   5.497 -0.6976  2.4415  0.3991
  410MOL0     H55346   6.068   5.613   5.240  0.6499  0.8121  2.3198
  410MOL0     H55347   6.633   5.887   5.647 -1.6860 -2.1029 -0.1330
  410MOL0     H55348   6.805   5.997   5.643 -0.9969  5.1121  0.1086
  410MOL0     H55349   6.746   6.088   5.776 -0.1479 -0.3427 -2.2619
  410MOL0     H55350   6.918   6.017   5.784  0.0307  0.9011  2.1012
  411MOL0     O55351  10.776   4.915  10.336 -0.2409  0.2026 -0.1167
  411MOL0     C55352  10.785   4.804  10.386  0.7251 -0.3849  0.3220
  411MOL0     O55353  10.824   4.698  10.320  0.2331 -0.3743  0.6515
  411MOL0     C55354  10.861   4.700  10.185  0.2781 -1.2072  0.4713
  411MOL0     C55355  10.928   4.800  10.134  0.4546 -0.4275  0.1068
  411MOL0     C55356  10.968   4.799   9.996  0.0746  0.2271  0.0854
  411MOL0     C55357  10.939   4.684   9.915 -0.6319 -0.4533  0.0653
  411MOL0     O55358  10.968   4.672   9.779  1.2573 -0.1850 -1.0327
  411MOL0     C55359  10.984   4.792   9.703 -0.1303 -0.9317 -1.1847
  411MOL0     C55360  10.994   4.754   9.562  0.7233 -1.2788 -0.2450
  411MOL0     C55361  11.039   4.873   9.484 -0.6577  0.2285 -0.5471
  411MOL0     C55362  11.026   4.849   9.338 -0.6385  0.7355 -0.3909
  411MOL0     C55363  11.095   4.955   9.252 -0.5821 -0.8797 -0.4253
  411MOL0     C55364  11.030   4.966   9.112 -0.1275 -0.7675  0.1144
  411MOL0     C55365  11.108   5.061   9.018 -0.3705 -0.0453  0.2853
  411MOL0     C55366  11.138   5.201   9.078  0.3460 -1.3284 -1.0453
  411MOL0     N55367  11.268   5.216   9.153  0.4640  0.0578 -0.1547
  411MOL0     C55368  11.392   5.232   9.102  0.3320 -0.2700  0.4122
  411MOL0     C55369  11.471   5.226   9.217 -0.5171  0.0915  0.0466
  411MOL0     C55370  11.617   5.236   9.225 -0.5715  0.4933  0.1338
  411MOL0     C55371  11.663   5.372   9.165  0.2447 -0.3276 -0.3304
  411MOL0     C55372  11.775   5.442   9.248  0.2720 -0.2858 -0.7342
  411MOL0     C55373  11.711   5.498   9.378 -0.5223 -0.0889  0.0213
  411MOL0     O55374  11.808   5.580   9.445 -0.4628 -0.5469 -0.2875
  411MOL0     C55375  11.789   5.719   9.445  0.3967  0.6700 -0.0472
  411MOL0     C55376  11.758   5.775   9.564  0.8472  0.4392 -0.3578
  411MOL0     C55377  11.741   5.908   9.579  0.0425  0.0580 -0.1811
  411MOL0     C55378  11.793   5.993   9.476 -0.3327 -0.1529  0.2547
  411MOL0     C55379  11.796   6.138   9.492 -0.7047  0.2812 -1.0900
  411MOL0     O55380  11.740   6.174   9.611  0.2535  0.3938  0.2904
  411MOL0     C55381  11.732   6.307   9.657 -0.0250  0.0684 -0.1681
  411MOL0     C55382  11.816   6.360   9.752 -0.4722  0.0844 -0.2146
  411MOL0     C55383  11.810   6.492   9.806 -0.7357 -0.3182  0.1777
  411MOL0     C55384  11.695   6.568   9.771  0.0653 -0.5997 -0.0873
  411MOL0     O55385  11.684   6.697   9.817 -0.1251 -0.2411  0.1880
  411MOL0     C55386  11.554   6.753   9.840 -0.2657  0.0279  0.2583
  411MOL0     C55387  11.500   6.771   9.980  0.0150 -0.1766 -0.1490
  411MOL0     C55388  11.603   6.857  10.049  0.3248  0.7012  0.8180
  411MOL0     C55389  11.562   6.901  10.187 -0.0659 -0.0519 -0.0995
  411MOL0     C55390  11.652   7.019  10.242 -0.2588  0.7424 -0.4544
  411MOL0     C55391  11.609   7.139  10.171 -0.1356 -0.1283 -0.0686
  411MOL0     C55392  11.656   7.259  10.249  0.4004  0.9791  0.2580
  411MOL0     C55393  11.614   7.389  10.182 -0.5104 -0.7082 -0.4898
  411MOL0    Cl55394  11.723   7.513  10.243  0.1685  0.4256  0.0472
  411MOL0     C55395  11.603   6.516   9.670  0.4049  0.8452  0.6120
  411MOL0     C55396  11.624   6.387   9.610  0.3058  0.1417  0.1260
  411MOL0     O55397  11.842   6.215   9.401 -0.0631  0.3530 -0.0810
  411MOL0     C55398  11.837   5.939   9.357 -1.0382 -1.0480  0.2505
  411MOL0     C55399  11.834   5.802   9.339  1.1808  0.6833  0.3796
  411MOL0     N55400  11.393   5.223   9.332  0.2052 -0.6026 -0.0836
  411MOL0     N55401  11.272   5.227   9.291  0.5582  0.0126  0.1026
  411MOL0     C55402  10.887   4.574   9.986 -0.1300 -0.0621  0.5441
  411MOL0     C55403  10.846   4.585  10.112  0.3303  0.1838  0.9869
  411MOL0     C55404  10.733   4.803  10.535 -0.2674 -0.6914  0.8911
  411MOL0     C55405  10.702   4.929  10.594  1.0736 -0.8442  0.3341
  411MOL0     C55406  10.663   4.944  10.728  0.3487  0.2399  0.3357
  411MOL0     C55407  10.648   4.827  10.804  0.3238 -0.8958 -0.1602
  411MOL0     O55408  10.616   4.841  10.937 -0.0146 -0.1855 -0.3115
  411MOL0     C55409  10.523   4.736  10.992  0.0863 -0.1407  1.0195
  411MOL0     C55410  10.396   4.716  10.911 -0.9676 -0.0435  0.0227
  411MOL0     C55411  10.325   4.842  10.899 -0.0777 -0.3023  0.7568
  411MOL0     C55412  10.207   4.830  10.798 -0.5937 -0.5067  0.6245
  411MOL0     C55413  10.132   4.706  10.823 -0.0847 -0.1992  0.7142
  411MOL0     C55414  10.062   4.615  10.842 -0.7381  0.0507 -0.1169
  411MOL0     C55415  10.679   4.703  10.751 -0.1947 -0.2958 -0.4733
  411MOL0     C55416  10.727   4.691  10.620  0.6913  0.4474 -1.3276
  411MOL0     C55417  10.777   4.555  10.578 -0.3852 -0.3205  0.0725
  411MOL0     H55418  10.945   4.889  10.193 -1.3964 -0.6935  1.1324
  411MOL0     H55419  11.017   4.884   9.950  0.3645 -1.0976 -2.1974
  411MOL0     H55420  10.915   4.871   9.733 -2.1079 -1.0688 -4.8304
  411MOL0     H55421  11.080   4.834   9.736 -1.9274  0.6788  2.6005
  411MOL0     H55422  10.891   4.732   9.533 -0.1133  2.1750 -0.3240
  411MOL0     H55423  11.063   4.669   9.551 -2.1648 -3.7981 -0.1883
  411MOL0     H55424  11.147   4.877   9.498 -0.9286  1.1687  1.5903
  411MOL0     H55425  10.997   4.968   9.518  1.7230  1.0417  0.2962
  411MOL0     H55426  11.072   4.755   9.307 -1.3535  0.7991 -1.7064
  411MOL0     H55427  10.920   4.837   9.313  0.0803 -1.1198 -2.9742
  411MOL0     H55428  11.086   5.052   9.301  0.3697 -0.3372 -1.2752
  411MOL0     H55429  11.202   4.933   9.254 -0.7407 -1.6531 -0.0570
  411MOL0     H55430  11.028   4.866   9.067  1.2719 -0.5142 -0.5774
  411MOL0     H55431  10.929   5.004   9.124  0.9274  1.9322  1.3508
  411MOL0     H55432  11.046   5.071   8.929 -2.0079  1.4136  1.5214
  411MOL0     H55433  11.205   5.015   8.997  0.1325  0.1552  1.9807
  411MOL0     H55434  11.139   5.261   8.986  1.7720 -0.6039 -0.5909
  411MOL0     H55435  11.057   5.234   9.144  1.1515 -1.1913 -0.0988
  411MOL0     H55436  11.421   5.255   9.000 -1.6112  0.7473  0.0524
  411MOL0     H55437  11.649   5.227   9.329 -1.6115  2.3561  0.6591
  411MOL0     H55438  11.667   5.159   9.166  0.5927  2.2902 -1.3370
  411MOL0     H55439  11.691   5.349   9.062  1.4855  3.4627 -0.9916
  411MOL0     H55440  11.581   5.441   9.143  0.3780 -0.6850 -2.0803
  411MOL0     H55441  11.812   5.533   9.200 -1.6974  0.8091 -0.2972
  411MOL0     H55442  11.854   5.376   9.286 -0.5799 -0.1886  1.3942
  411MOL0     H55443  11.689   5.420   9.452 -0.8941  0.4533  0.4901
  411MOL0     H55444  11.619   5.555   9.361 -0.3690  1.3392  3.1971
  411MOL0     H55445  11.738   5.708   9.647  0.6801  1.1347  0.1835
  411MOL0     H55446  11.695   5.948   9.668 -0.7628  1.6344 -1.2581
  411MOL0     H55447  11.895   6.290   9.779 -0.1004  0.2545 -0.8271
  411MOL0     H55448  11.877   6.539   9.877  0.0681  1.2760 -1.5603
  411MOL0     H55449  11.541   6.844   9.779  0.9542  0.3089  0.3818
  411MOL0     H55450  11.483   6.687   9.791 -0.5617 -0.4765  1.3475
  411MOL0     H55451  11.401   6.817   9.970 -1.0915 -2.3166  0.4412
  411MOL0     H55452  11.492   6.675  10.032 -2.4511  0.7279  1.3255
  411MOL0     H55453  11.700   6.808  10.062 -1.6747 -3.3274  2.3721
  411MOL0     H55454  11.630   6.931   9.974  2.2554 -1.7483 -1.0722
  411MOL0     H55455  11.587   6.816  10.252 -0.1322 -0.0406 -0.0589
  411MOL0     H55456  11.457   6.933  10.186 -0.7559 -2.0159  1.3916
  411MOL0     H55457  11.761   7.006  10.236  0.3296  2.4779  3.2889
  411MOL0     H55458  11.630   7.037  10.348  0.5645  1.3583 -0.3742
  411MOL0     H55459  11.673   7.160  10.084  1.3998 -1.6180  0.6319
  411MOL0     H55460  11.501   7.138  10.154 -0.5294 -1.2324  2.1559
  411MOL0     H55461  11.766   7.256  10.248  0.4920  2.6349  1.0600
  411MOL0     H55462  11.619   7.268  10.352  1.1687  3.1771  0.4014
  411MOL0     H55463  11.633   7.388  10.074  1.0766  0.1799 -0.2456
  411MOL0     H55464  11.511   7.415  10.207 -0.5344 -0.9487 -0.3350
  411MOL0     H55465  11.516   6.562   9.626 -1.0098 -1.2420  1.0764
  411MOL0     H55466  11.562   6.345   9.532  1.9144  0.8102 -1.5936
  411MOL0     H55467  11.886   6.006   9.287 -1.3797 -0.0531  0.9336
  411MOL0     H55468  11.856   5.765   9.239 -0.0198  0.8375  0.0375
  411MOL0     H55469  10.857   4.483   9.935 -0.8339  1.2596 -1.5492
  411MOL0     H55470  10.799   4.504  10.167  0.8333 -0.5835  0.2982
  411MOL0     H55471  10.686   5.011  10.525 -1.1126 -1.7834 -0.3898
  411MOL0     H55472  10.631   5.044  10.755  1.7640  0.9197 -0.3849
  411MOL0     H55473  10.487   4.767  11.090  0.6996  2.4917  0.4760
  411MOL0     H55474  10.567   4.636  10.996  0.7818  0.0417 -1.0161
  411MOL0     H55475  10.327   4.647  10.962 -2.0147  0.6125 -0.4804
  411MOL0     H55476  10.427   4.678  10.813  3.1792 -2.9152  2.1492
  411MOL0     H55477  10.388   4.920  10.855  0.1056 -0.8801 -0.0222
  411MOL0     H55478  10.287   4.867  10.999 -2.4716 -0.7140  0.0107
  411MOL0     H55479  10.142   4.913  10.827 -0.7717 -1.1256  2.0643
  411MOL0     H55480  10.240   4.827  10.694  3.1526  0.1369  1.6774
  411MOL0     H55481   9.995   4.531  10.840 -3.2583  1.9471 -1.8950
  411MOL0     H55482  10.678   4.615  10.814  2.0290  1.3709  2.1506
  411MOL0     H55483  10.700   4.524  10.506 -0.9290 -0.5104  0.7297
  411MOL0     H55484  10.882   4.563  10.548 -0.0208 -0.8175  1.1550
  411MOL0     H55485  10.787   4.488  10.664  2.9803 -1.0961 -0.7344
  412MOL0     O55486   4.369   3.216   1.920 -0.4010 -0.8314 -0.8117
  412MOL0     C55487   4.281   3.222   1.837 -1.1676  0.6905  0.3578
  412MOL0     O55488   4.296   3.265   1.713 -0.2251 -0.8602 -0.2506
  412MOL0     C55489   4.428   3.290   1.678  0.3309 -0.2197 -0.3019
  412MOL0     C55490   4.466   3.413   1.635 -0.9611  0.7898  0.0582
  412MOL0     C55491   4.602   3.443   1.604 -0.2324  0.2308  0.0321
  412MOL0     C55492   4.695   3.338   1.602  0.0313  0.1672  0.5971
  412MOL0     O55493   4.825   3.358   1.571  1.1971 -0.8206  0.7917
  412MOL0     C55494   4.920   3.256   1.582  1.4399 -0.4696 -0.5297
  412MOL0     C55495   5.048   3.326   1.637  0.8697 -0.0873 -0.2279
  412MOL0     C55496   5.163   3.212   1.658  0.0261 -0.1741 -0.0400
  412MOL0     C55497   5.255   3.190   1.537  0.6982  0.4528  0.6990
  412MOL0     C55498   5.190   3.124   1.412 -0.2720 -0.4123 -0.4361
  412MOL0     C55499   5.298   3.099   1.304  0.0685 -0.2799 -1.5652
  412MOL0     C55500   5.244   3.129   1.176  0.0051 -0.1535  0.0844
  412MOL0     C55501   5.250   3.275   1.135 -0.4258 -0.1111  1.2498
  412MOL0     N55502   5.382   3.334   1.144 -0.3135 -0.3592  0.8561
  412MOL0     C55503   5.496   3.272   1.092  0.1089  0.0694 -0.3997
  412MOL0     C55504   5.592   3.360   1.115 -0.4028  0.4707  0.6704
  412MOL0     C55505   5.728   3.371   1.061 -0.0362 -1.2923  0.3474
  412MOL0     C55506   5.802   3.502   1.108  0.7399 -0.0203  0.4255
  412MOL0     C55507   5.891   3.514   1.231  0.1012  0.0095  0.3570
  412MOL0     C55508   6.024   3.459   1.209 -0.4906 -0.4890 -0.2130
  412MOL0     O55509   6.021   3.324   1.160  0.0802 -0.5443 -0.6525
  412MOL0     C55510   6.134   3.260   1.124  0.2558 -0.2019  0.0461
  412MOL0     C55511   6.253   3.276   1.198  0.0862  0.2469 -0.3115
  412MOL0     C55512   6.379   3.212   1.167 -1.1307 -0.8432  0.7885
  412MOL0     C55513   6.384   3.118   1.065  0.4398 -0.1366  0.2368
  412MOL0     C55514   6.503   3.047   1.032 -0.1621  0.8634  0.8469
  412MOL0     O55515   6.497   2.926   0.951  0.3877  0.0934  0.0125
  412MOL0     C55516   6.618   2.889   0.888 -0.1768 -0.0849 -0.7871
  412MOL0     C55517   6.633   2.850   0.750  0.1028 -0.4721  1.1467
  412MOL0     C55518   6.748   2.817   0.678 -0.6155  0.4537  0.0720
  412MOL0     C55519   6.862   2.805   0.759 -0.1862 -0.2429  0.0204
  412MOL0     O55520   6.972   2.768   0.696  0.0359  0.3565 -1.0295
  412MOL0     C55521   7.080   2.870   0.692 -0.1685 -0.2117 -0.4653
  412MOL0     C55522   7.088   2.936   0.557 -1.2475  0.4107  0.3998
  412MOL0     C55523   7.143   2.832   0.464  1.3979  0.1920  1.0482
  412MOL0     C55524   7.149   2.893   0.318 -0.2396  0.1537  0.0146
  412MOL0     C55525   7.028   2.942   0.245 -0.2324 -0.6781 -0.4776
  412MOL0     C55526   6.937   2.831   0.194 -0.2431 -0.0511 -0.2880
  412MOL0     C55527   6.995   2.710   0.122 -0.5262 -0.3174 -0.2175
  412MOL0     C55528   6.886   2.650   0.036 -0.1960  0.1350 -0.5334
  412MOL0    Cl55529   6.766   2.558   0.142 -0.4373 -0.2244  0.0697
  412MOL0     C55530   6.858   2.847   0.895 -1.0289 -0.0903  0.9290
  412MOL0     C55531   6.745   2.888   0.955  1.0315  0.0848  0.2692
  412MOL0     O55532   6.612   3.105   1.062  1.1139  0.2115 -0.2873
  412MOL0     C55533   6.263   3.090   0.997  0.3414  0.9153 -0.4212
  412MOL0     C55534   6.143   3.161   1.029  0.6523  1.2462  0.1952
  412MOL0     N55535   5.530   3.465   1.187 -0.2089  0.2486  1.2046
  412MOL0     N55536   5.403   3.449   1.203 -0.2588  0.1253 -0.0578
  412MOL0     C55537   4.647   3.209   1.634 -0.3546  0.5499  0.4183
  412MOL0     C55538   4.520   3.185   1.679 -0.0376  0.0455  0.3710
  412MOL0     C55539   4.154   3.170   1.866 -0.5802  0.0285  0.6693
  412MOL0     C55540   4.058   3.265   1.917  0.8944  1.1783  0.3953
  412MOL0     C55541   3.928   3.219   1.958 -0.4267 -0.4341 -0.4132
  412MOL0     C55542   3.897   3.090   1.954  0.5920  1.1343 -1.1976
  412MOL0     O55543   3.771   3.040   2.003 -0.1568 -0.1459 -0.0979
  412MOL0     C55544   3.664   3.067   1.914  0.4495 -0.9218 -0.2355
  412MOL0     C55545   3.528   3.020   1.972  0.4759 -0.3273  0.1278
  412MOL0     C55546   3.411   3.038   1.883  0.3514 -0.7227 -0.0101
  412MOL0     C55547   3.303   2.945   1.929  0.1022  0.4101 -0.9494
  412MOL0     C55548   3.266   2.973   2.071  0.4830 -0.0177 -0.0121
  412MOL0     C55549   3.235   2.979   2.190  0.4057  0.4439 -0.7049
  412MOL0     C55550   3.978   3.000   1.891 -0.3105  0.0620  0.1737
  412MOL0     C55551   4.111   3.037   1.848  0.7679  0.3263  0.2190
  412MOL0     C55552   4.207   2.931   1.786  0.2421 -0.1644 -0.6523
  412MOL0     H55553   4.404   3.501   1.639 -0.7503  1.1915 -3.0525
  412MOL0     H55554   4.641   3.542   1.583  1.7782 -0.1316  1.7040
  412MOL0     H55555   4.887   3.174   1.646  0.3137 -2.4340 -3.4186
  412MOL0     H55556   4.929   3.216   1.481 -0.6545  0.3525 -1.1050
  412MOL0     H55557   5.027   3.388   1.725 -1.9107 -2.0357  0.6363
  412MOL0     H55558   5.082   3.389   1.555  0.6940  0.5252  0.1669
  412MOL0     H55559   5.119   3.116   1.687  1.7241 -0.4731  1.7996
  412MOL0     H55560   5.233   3.251   1.732  1.8311  0.8197 -2.1660
  412MOL0     H55561   5.294   3.290   1.516 -2.3685  1.9586  1.5201
  412MOL0     H55562   5.325   3.114   1.571 -1.4778 -1.8734  0.2965
  412MOL0     H55563   5.137   3.033   1.442  0.8307 -0.8398  0.2515
  412MOL0     H55564   5.110   3.190   1.376  1.0466  1.5285  0.0240
  412MOL0     H55565   5.392   3.153   1.319 -0.2152  0.3605 -2.0280
  412MOL0     H55566   5.334   2.996   1.304  0.2328 -0.3310 -4.6618
  412MOL0     H55567   5.140   3.096   1.175 -0.4225  1.1301 -0.5097
  412MOL0     H55568   5.312   3.082   1.105  0.7513  2.5249 -1.1417
  412MOL0     H55569   5.187   3.281   1.045 -5.0231  1.2051  4.1724
  412MOL0     H55570   5.182   3.327   1.202 -1.1849 -0.0735  0.4720
  412MOL0     H55571   5.504   3.181   1.033 -0.7719 -1.0519  1.1326
  412MOL0     H55572   5.796   3.288   1.081 -0.7220 -1.4514  2.2005
  412MOL0     H55573   5.726   3.370   0.952  1.8222 -0.5769  0.2731
  412MOL0     H55574   5.860   3.532   1.019  1.1133 -2.9477 -0.4174
  412MOL0     H55575   5.724   3.577   1.124 -1.0594 -2.0098  1.4895
  412MOL0     H55576   5.853   3.464   1.320 -3.1546  2.3585  0.4697
  412MOL0     H55577   5.898   3.622   1.251  3.3826 -0.5037  2.8251
  412MOL0     H55578   6.077   3.468   1.304 -2.7361 -1.9812  1.2883
  412MOL0     H55579   6.086   3.520   1.143  0.1916  0.9434  1.6761
  412MOL0     H55580   6.248   3.342   1.284  0.3645 -0.0275 -0.0816
  412MOL0     H55581   6.470   3.235   1.221 -1.0937 -0.3377  0.5243
  412MOL0     H55582   6.535   2.848   0.703 -1.2540 -0.7276  3.7966
  412MOL0     H55583   6.749   2.800   0.571  0.2605  0.2050  0.1145
  412MOL0     H55584   7.051   2.954   0.756 -4.6454 -0.9870 -1.0963
  412MOL0     H55585   7.178   2.833   0.722 -0.3114  0.9823  1.6589
  412MOL0     H55586   6.988   2.974   0.533 -2.2168 -1.9351  0.4326
  412MOL0     H55587   7.166   3.012   0.559  3.3636 -3.7048 -1.2997
  412MOL0     H55588   7.243   2.796   0.489  0.3172 -1.7981  2.8005
  412MOL0     H55589   7.092   2.735   0.468  0.6267  0.4088 -1.4943
  412MOL0     H55590   7.185   2.801   0.271 -2.9353 -2.1566  2.0672
  412MOL0     H55591   7.223   2.972   0.303  0.4951 -0.4655  0.3093
  412MOL0     H55592   7.066   3.007   0.167  0.4573 -0.0854  0.3370
  412MOL0     H55593   6.981   3.010   0.316  2.8614 -1.4992  2.6605
  412MOL0     H55594   6.873   2.791   0.273  0.4881 -2.1043 -0.6467
  412MOL0     H55595   6.864   2.875   0.126  3.0563  0.5406 -3.7900
  412MOL0     H55596   7.045   2.647   0.196 -0.1985  2.6105  2.2616
  412MOL0     H55597   7.076   2.753   0.062  1.7736 -2.0777  1.4039
  412MOL0     H55598   6.832   2.720  -0.029 -2.3567  0.1233  1.1254
  412MOL0     H55599   6.937   2.582  -0.033  2.2458  1.1141  0.2302
  412MOL0     H55600   6.956   2.852   0.942 -1.0372 -1.1787  1.0888
  412MOL0     H55601   6.750   2.924   1.057  0.6661  0.9171  0.0041
  412MOL0     H55602   6.264   3.012   0.922  2.0617 -0.3033  0.7945
  412MOL0     H55603   6.050   3.144   0.976 -0.3987  1.8151  1.7710
  412MOL0     H55604   4.709   3.119   1.628 -1.1269 -0.2778  3.2895
  412MOL0     H55605   4.497   3.082   1.703 -2.5676 -0.3922 -3.1489
  412MOL0     H55606   4.090   3.363   1.952  1.6118  1.3391 -0.6548
  412MOL0     H55607   3.850   3.282   2.000  0.0168 -0.6567  0.7865
  412MOL0     H55608   3.682   3.034   1.811 -2.4274  1.9562 -1.8427
  412MOL0     H55609   3.656   3.174   1.898 -0.2860 -1.1157 -1.3181
  412MOL0     H55610   3.512   3.080   2.063  1.8066  0.8736 -0.3948
  412MOL0     H55611   3.527   2.920   2.016  0.7034  0.8735  3.1724
  412MOL0     H55612   3.430   3.014   1.778 -1.4093  0.0408 -0.5443
  412MOL0     H55613   3.388   3.145   1.881  4.0314  0.3806  3.4124
  412MOL0     H55614   3.220   2.961   1.860 -1.2031 -0.2214  0.4018
  412MOL0     H55615   3.339   2.841   1.930 -4.0782 -1.2335  0.7348
  412MOL0     H55616   3.207   2.983   2.293  0.2214 -0.5422 -0.7111
  412MOL0     H55617   3.931   2.903   1.875 -0.2203  0.3319 -1.9485
  412MOL0     H55618   4.221   2.954   1.680  1.1216 -2.0922 -1.0063
  412MOL0     H55619   4.304   2.945   1.835 -0.6934  0.9840  0.9599
  412MOL0     H55620   4.164   2.831   1.795 -0.6254  0.1202 -1.5236
  413MOL0     O55621   6.297  10.629   9.565  0.1913 -0.0550 -0.0736
  413MOL0     C55622   6.358  10.651   9.455  0.4539 -0.2816 -0.5670
  413MOL0     O55623   6.476  10.603   9.434 -0.3220 -0.2572  1.4361
  413MOL0     C55624   6.541  10.527   9.526 -1.0282 -0.2142 -0.4360
  413MOL0     C55625   6.501  10.405   9.568 -0.7086  0.4003  0.1254
  413MOL0     C55626   6.563  10.322   9.661 -0.5243 -0.1134  0.8440
  413MOL0     C55627   6.675  10.372   9.728  0.0872  0.5474  0.2431
  413MOL0     O55628   6.741  10.312   9.838 -0.3520 -0.6837  0.7668
  413MOL0     C55629   6.705  10.182   9.880  0.2759  0.2164  0.2041
  413MOL0     C55630   6.830  10.136   9.957 -0.4172  0.0969  0.0036
  413MOL0     C55631   6.861  10.194  10.091 -0.0314  0.2501 -0.1686
  413MOL0     C55632   7.019  10.200  10.111 -0.6704 -0.5407  1.0502
  413MOL0     C55633   7.063  10.162  10.252 -0.2755 -0.1092  0.1501
  413MOL0     C55634   7.054  10.011  10.286  0.5567 -0.2865  0.4036
  413MOL0     C55635   7.095   9.983  10.434  0.0908 -0.7023  0.4734
  413MOL0     C55636   7.240  10.001  10.453  0.0902 -1.2821 -0.1109
  413MOL0     N55637   7.283   9.912  10.559  0.2304  0.5712 -0.9035
  413MOL0     C55638   7.263   9.929  10.692 -0.4618  1.4209 -0.2821
  413MOL0     C55639   7.349   9.848  10.754 -0.1764 -0.0790  0.7757
  413MOL0     C55640   7.359   9.833  10.905  0.9661  0.3868 -0.4299
  413MOL0     C55641   7.500   9.834  10.949 -0.6177 -0.5124  0.4083
  413MOL0     C55642   7.558   9.983  10.959 -0.2850 -0.1646 -0.5710
  413MOL0     C55643   7.621  10.025  10.829  0.3921 -0.0957 -0.4371
  413MOL0     O55644   7.652  10.154  10.865 -0.1522 -0.6046 -0.2868
  413MOL0     C55645   7.781  10.172  10.921 -0.9170 -0.4663 -0.2069
  413MOL0     C55646   7.824  10.301  10.937 -0.8811 -0.1656  0.4423
  413MOL0     C55647   7.954  10.329  10.977  0.2696 -1.3431  0.6278
  413MOL0     C55648   8.053  10.234  10.978  0.1438 -0.0397 -0.1192
  413MOL0     C55649   8.194  10.278  10.992  0.2175  0.3175  0.6243
  413MOL0     O55650   8.278  10.179  11.044  0.3734  0.3437  0.2081
  413MOL0     C55651   8.399  10.209  11.096 -0.3960 -0.7002 -0.7913
  413MOL0     C55652   8.417  10.323  11.177  1.1366  0.5591 -0.3633
  413MOL0     C55653   8.536  10.333  11.257 -0.3996 -0.7080  0.1829
  413MOL0     C55654   8.641  10.240  11.242 -0.1766  0.2741 -1.4700
  413MOL0     O55655   8.757  10.245  11.311 -0.3411 -0.0246  0.0269
  413MOL0     C55656   8.808  10.369  11.355 -0.4182 -0.2834 -0.2615
  413MOL0     C55657   8.936  10.333  11.430  0.1740  0.2936 -0.3114
  413MOL0     C55658   8.916  10.277  11.569  0.3315 -0.1093  0.2866
  413MOL0     C55659   9.049  10.251  11.634  0.0408 -0.1796 -0.4591
  413MOL0     C55660   9.045  10.190  11.776  0.0857  0.9591  0.6040
  413MOL0     C55661   9.175  10.176  11.842  0.7206 -0.7171 -0.5854
  413MOL0     C55662   9.181  10.110  11.974 -0.8906  0.6127  0.0170
  413MOL0     C55663   9.088  10.185  12.079 -0.6963  0.5702 -0.0756
  413MOL0    Cl55664   9.144  10.357  12.121  0.3519  0.3764  0.6133
  413MOL0     C55665   8.622  10.129  11.160 -0.7047 -0.5594 -0.0224
  413MOL0     C55666   8.505  10.116  11.090  0.3014  0.0100  0.0248
  413MOL0     O55667   8.228  10.390  10.951 -0.3915  0.0643  0.6762
  413MOL0     C55668   8.015  10.106  10.969  0.5553  1.0476  0.1457
  413MOL0     C55669   7.879  10.070  10.943 -0.2472  0.0738  0.4913
  413MOL0     N55670   7.423   9.780  10.658  0.8972 -0.2504 -0.8099
  413MOL0     N55671   7.385   9.817  10.543 -0.4078  0.9228 -0.5591
  413MOL0     C55672   6.728  10.496   9.683  0.6309 -0.6954 -0.3725
  413MOL0     C55673   6.661  10.584   9.594  0.4328 -0.0436 -0.2868
  413MOL0     C55674   6.313  10.758   9.371 -0.1595 -0.5186  0.2089
  413MOL0     C55675   6.397  10.850   9.327  0.3042 -1.8293 -0.0487
  413MOL0     C55676   6.362  10.957   9.250  0.4700 -0.3338  0.2157
  413MOL0     C55677   6.229  10.982   9.219 -0.6802  0.4049  0.2133
  413MOL0     O55678   6.205  11.100   9.146 -0.5848  0.2473  0.0604
  413MOL0     C55679   6.072  11.137   9.109 -0.0635  0.1372  0.5432
  413MOL0     C55680   6.003  11.207   9.222  0.9438 -0.7513 -0.2132
  413MOL0     C55681   5.857  11.244   9.186 -0.2517 -0.1377  0.2570
  413MOL0     C55682   5.765  11.123   9.188 -0.9986  0.8558  0.4085
  413MOL0     C55683   5.776  11.042   9.055  0.5054  0.3316 -0.4500
  413MOL0     C55684   5.799  10.977   8.954  0.6980 -1.2027  0.3804
  413MOL0     C55685   6.136  10.892   9.265  0.5634  0.4701  0.1649
  413MOL0     C55686   6.178  10.775   9.332  0.1206  0.9348  0.7740
  413MOL0     C55687   6.077  10.671   9.351  0.4044  0.8183 -0.1144
  413MOL0     H55688   6.408  10.363   9.531 -1.4912  2.8837 -0.8987
  413MOL0     H55689   6.532  10.221   9.684  1.2959 -0.3659  2.5974
  413MOL0     H55690   6.613  10.171   9.938  0.0056  1.5055  0.0506
  413MOL0     H55691   6.712  10.121   9.790 -0.4317 -1.8585  1.4869
  413MOL0     H55692   6.911  10.159   9.887 -2.1749  2.4893 -1.4156
  413MOL0     H55693   6.825  10.028   9.971  1.4010  0.0447  0.5159
  413MOL0     H55694   6.809  10.125  10.157 -1.4918 -1.6781 -3.1116
  413MOL0     H55695   6.829  10.298  10.092  2.0053  0.9866 -2.0331
  413MOL0     H55696   7.068  10.133  10.040 -0.6549  0.0096  0.5262
  413MOL0     H55697   7.054  10.302  10.090 -2.2509 -0.6503 -3.0944
  413MOL0     H55698   7.167  10.191  10.270  0.1580 -1.8543  0.6504
  413MOL0     H55699   6.996  10.221  10.316 -0.0337 -1.6864  1.9574
  413MOL0     H55700   6.954   9.970  10.269 -0.2130  1.2629  0.9509
  413MOL0     H55701   7.125   9.953  10.226  3.4734  2.5702  0.7900
  413MOL0     H55702   7.071   9.881  10.465  2.6742 -1.1126  1.3300
  413MOL0     H55703   7.045  10.052  10.503  1.3627 -0.1219  0.8363
  413MOL0     H55704   7.297   9.983  10.361 -0.9958  1.2711 -1.4144
  413MOL0     H55705   7.253  10.108  10.474 -1.8779 -0.9715 -0.2908
  413MOL0     H55706   7.188   9.985  10.746 -0.1248  1.5591  0.0402
  413MOL0     H55707   7.289   9.902  10.954  0.5081 -1.7600  2.2086
  413MOL0     H55708   7.321   9.735  10.935 -0.1467  0.5701 -1.2030
  413MOL0     H55709   7.503   9.787  11.048 -1.7099  0.7278  1.0562
  413MOL0     H55710   7.564   9.779  10.880 -0.0892  1.8501 -1.0796
  413MOL0     H55711   7.633   9.990  11.039 -2.3420  2.6306  1.3097
  413MOL0     H55712   7.479  10.056  10.979  1.7179  2.6793 -2.2617
  413MOL0     H55713   7.547  10.032  10.748  0.4103  0.2912 -0.4211
  413MOL0     H55714   7.711   9.975  10.792  0.8345 -0.6830  1.3551
  413MOL0     H55715   7.756  10.386  10.937  0.5126  1.0132 -0.7090
  413MOL0     H55716   7.996  10.427  10.959  0.3551 -1.9124 -2.8055
  413MOL0     H55717   8.334  10.390  11.197 -2.6695 -4.5789  4.4634
  413MOL0     H55718   8.568  10.420  11.313 -0.1067 -1.4966  1.2731
  413MOL0     H55719   8.837  10.438  11.275  1.8324  1.7525  2.1537
  413MOL0     H55720   8.747  10.421  11.428  1.3465  3.7073 -1.3829
  413MOL0     H55721   8.994  10.255  11.380  2.4092  0.7508  1.4110
  413MOL0     H55722   9.006  10.417  11.439  0.1972  0.0477  4.5932
  413MOL0     H55723   8.849  10.335  11.634  0.3661  2.0048 -1.4739
  413MOL0     H55724   8.871  10.178  11.552  0.9861 -0.6806  1.7365
  413MOL0     H55725   9.107  10.344  11.634  0.8940 -0.5035  3.6940
  413MOL0     H55726   9.114  10.194  11.568  1.9034 -2.0536  2.7548
  413MOL0     H55727   9.022  10.084  11.761  6.7180 -1.4383  3.4090
  413MOL0     H55728   8.978  10.250  11.837  0.8047  0.0708  2.3351
  413MOL0     H55729   9.249  10.129  11.776  2.3462  1.7651 -0.6939
  413MOL0     H55730   9.218  10.276  11.857  0.9437 -1.2126  2.6923
  413MOL0     H55731   9.284  10.108  12.010 -1.1266 -0.3351  0.7085
  413MOL0     H55732   9.149  10.006  11.962  5.8974 -2.5195  3.3163
  413MOL0     H55733   8.990  10.191  12.030 -1.4150 -3.9063  0.3758
  413MOL0     H55734   9.081  10.132  12.174  3.0213  0.7787  0.4676
  413MOL0     H55735   8.688  10.044  11.160 -1.5524 -1.3187  2.5808
  413MOL0     H55736   8.499  10.027  11.029 -1.7861  0.6845 -0.8434
  413MOL0     H55737   8.095  10.033  10.967  1.9145  2.2223  3.6915
  413MOL0     H55738   7.856   9.967  10.919  0.1648  0.1077 -0.0809
  413MOL0     H55739   6.821  10.531   9.726  0.8636  0.7985 -1.9670
  413MOL0     H55740   6.701  10.679   9.559  3.0106  0.2065  2.9627
  413MOL0     H55741   6.502  10.843   9.353  0.4325  1.2396  0.6296
  413MOL0     H55742   6.430  11.039   9.230 -1.3880  1.1625 -0.3058
  413MOL0     H55743   6.019  11.045   9.081  1.6348 -1.0017  0.9117
  413MOL0     H55744   6.085  11.206   9.025 -0.5570 -0.0001  0.3532
  413MOL0     H55745   6.066  11.294   9.244  1.9310 -2.0248  2.3133
  413MOL0     H55746   6.011  11.144   9.310  2.1548  0.4602  0.5843
  413MOL0     H55747   5.842  11.286   9.086  1.8744 -1.7421 -0.8110
  413MOL0     H55748   5.831  11.320   9.260 -1.4804 -0.4361  0.1591
  413MOL0     H55749   5.795  11.066   9.276 -0.8928 -0.2846 -0.3484
  413MOL0     H55750   5.657  11.140   9.194 -1.4357 -1.5580  0.2257
  413MOL0     H55751   5.814  10.912   8.870 -1.3849 -0.6937 -0.4461
  413MOL0     H55752   6.031  10.912   9.245  0.6867  0.7661 -0.1987
  413MOL0     H55753   6.011  10.670   9.264 -2.1236  0.9676  1.6728
  413MOL0     H55754   6.109  10.570   9.379 -2.1784 -0.4065 -1.1974
  413MOL0     H55755   6.024  10.703   9.441  1.4216  2.1049  0.0506
  414MOL0     O55756   9.759   5.153  10.567 -0.5433 -0.1254 -0.1773
  414MOL0     C55757   9.861   5.105  10.527  0.0851 -0.0309 -0.9134
  414MOL0     O55758   9.900   4.979  10.552 -0.6935 -0.4676  0.4146
  414MOL0     C55759   9.835   4.920  10.659  0.0865 -0.5031 -0.7552
  414MOL0     C55760   9.749   4.812  10.635  0.9649 -0.0975  0.3647
  414MOL0     C55761   9.696   4.735  10.745  0.7150  0.0493  0.2254
  414MOL0     C55762   9.726   4.776  10.878 -0.4196  0.3962 -0.1164
  414MOL0     O55763   9.681   4.688  10.977 -1.0931  0.7087 -0.4353
  414MOL0     C55764   9.698   4.722  11.110  0.5407 -0.5238 -0.8225
  414MOL0     C55765   9.602   4.827  11.164 -0.2535  0.3787  0.1390
  414MOL0     C55766   9.674   4.907  11.269  0.4151 -0.3512 -1.3109
  414MOL0     C55767   9.569   4.997  11.332 -0.1127  0.3306 -0.1825
  414MOL0     C55768   9.615   5.073  11.454  0.2578  0.3335 -0.3938
  414MOL0     C55769   9.690   4.993  11.554  0.1359  0.6445  0.0960
  414MOL0     C55770   9.678   5.063  11.689  0.0550  0.6204  0.0952
  414MOL0     C55771   9.764   4.998  11.800  0.3799  1.0048  0.1928
  414MOL0     N55772   9.699   5.012  11.929  0.9134  0.6592  0.3181
  414MOL0     C55773   9.649   4.900  11.992  0.2465 -0.8680 -0.2410
  414MOL0     C55774   9.585   4.950  12.087 -0.0073  0.2002 -1.1476
  414MOL0     C55775   9.490   4.873  12.176  0.2008  0.2114 -0.4807
  414MOL0     C55776   9.357   4.849  12.103  1.2195  0.2348 -0.1889
  414MOL0     C55777   9.251   4.792  12.189  0.8720 -0.3933 -0.5070
  414MOL0     C55778   9.114   4.773  12.117 -0.6000 -0.2680 -0.0963
  414MOL0     O55779   9.044   4.651  12.160 -0.3655 -0.2436  0.7159
  414MOL0     C55780   8.959   4.657  12.264 -0.1431  0.5150  0.3923
  414MOL0     C55781   8.892   4.778  12.306 -0.4500 -0.7412  0.3326
  414MOL0     C55782   8.768   4.768  12.369  0.3105  1.0491  0.3185
  414MOL0     C55783   8.730   4.649  12.439 -0.4278  0.2333  0.8731
  414MOL0     C55784   8.618   4.648  12.528 -0.4421  1.2279 -0.1839
  414MOL0     O55785   8.603   4.535  12.612 -0.2318 -0.3339 -0.1353
  414MOL0     C55786   8.479   4.507  12.650  0.4205  1.0655  0.4697
  414MOL0     C55787   8.446   4.485  12.784  0.0276  0.3670  0.2963
  414MOL0     C55788   8.319   4.449  12.826  0.4240 -0.6765 -0.3708
  414MOL0     C55789   8.203   4.450  12.739 -0.7999 -0.2368  0.5098
  414MOL0     O55790   8.087   4.419  12.798 -0.4825  0.1908 -0.7569
  414MOL0     C55791   7.978   4.399  12.710 -0.4139  0.5412 -0.2078
  414MOL0     C55792   7.851   4.374  12.783 -0.7131  0.5134 -0.3676
  414MOL0     C55793   7.841   4.239  12.849 -0.3308  0.0233  0.0650
  414MOL0     C55794   7.914   4.219  12.983  0.0869 -0.2208  0.0452
  414MOL0     C55795   7.868   4.309  13.099 -0.4707  0.5469  0.1509
  414MOL0     C55796   7.860   4.238  13.233  0.1283 -0.9023 -0.8916
  414MOL0     C55797   7.819   4.328  13.356 -0.7216 -0.9134  1.5082
  414MOL0     C55798   7.934   4.402  13.436 -0.2567 -0.8240  0.1437
  414MOL0    Cl55799   8.060   4.281  13.489 -0.2848 -0.0633 -0.3490
  414MOL0     C55800   8.234   4.467  12.603  0.2604  0.4423  0.8258
  414MOL0     C55801   8.367   4.498  12.555 -0.5023  0.9838 -0.1527
  414MOL0     O55802   8.554   4.750  12.543 -0.1002  0.9074  0.3982
  414MOL0     C55803   8.795   4.528  12.390  0.0658 -0.3792  0.1259
  414MOL0     C55804   8.903   4.534  12.306 -0.6820 -0.4215  0.6436
  414MOL0     N55805   9.611   5.087  12.100  1.5917  0.2911  0.0958
  414MOL0     N55806   9.675   5.123  12.000  0.1350 -0.2946  0.5309
  414MOL0     C55807   9.808   4.881  10.900  0.6848 -0.5249  1.0620
  414MOL0     C55808   9.861   4.949  10.794 -0.3326 -0.4519 -0.8005
  414MOL0     C55809   9.964   5.205  10.465  0.4212  1.1037  1.6100
  414MOL0     C55810  10.055   5.146  10.369  0.0846 -0.4695 -0.4045
  414MOL0     C55811  10.147   5.225  10.303  0.8124 -0.0459 -1.0403
  414MOL0     C55812  10.163   5.355  10.328 -0.6171 -0.0086  0.3891
  414MOL0     O55813  10.257   5.436  10.281  0.3448  0.1191  0.2570
  414MOL0     C55814  10.354   5.388  10.186 -0.1958 -0.2206 -0.2840
  414MOL0     C55815  10.320   5.426  10.039 -0.0289 -0.4039 -0.5199
  414MOL0     C55816  10.345   5.570  10.015 -0.1933 -0.7491  0.1653
  414MOL0     C55817  10.250   5.635   9.910  0.3124  0.5565 -0.1352
  414MOL0     C55818  10.321   5.750   9.848 -0.1025  0.9082 -0.9028
  414MOL0     C55819  10.380   5.846   9.808 -0.3279  0.0768 -0.3247
  414MOL0     C55820  10.075   5.413  10.407  0.2240 -0.6746  0.3842
  414MOL0     C55821   9.975   5.341  10.478 -0.1619  0.4934 -0.5155
  414MOL0     C55822   9.877   5.425  10.547  0.1236 -0.0492 -0.9214
  414MOL0     H55823   9.720   4.799  10.531  4.1467  0.5248 -0.7122
  414MOL0     H55824   9.638   4.644  10.734 -1.3060  1.1699  1.1179
  414MOL0     H55825   9.665   4.633  11.165 -2.5859  1.0240  0.0693
  414MOL0     H55826   9.805   4.735  11.129  0.2355 -0.1863  0.9081
  414MOL0     H55827   9.517   4.776  11.211 -0.9382 -0.1833 -1.6238
  414MOL0     H55828   9.563   4.895  11.089  0.5863  0.7807  0.0505
  414MOL0     H55829   9.753   4.958  11.213  0.9460  0.1629 -0.1404
  414MOL0     H55830   9.717   4.841  11.345 -0.6721  0.5979  0.1797
  414MOL0     H55831   9.544   5.068  11.252 -1.9827  0.2175  0.2521
  414MOL0     H55832   9.484   4.932  11.356 -0.6601  0.9898 -0.2854
  414MOL0     H55833   9.689   5.147  11.421 -2.0122  2.4194 -1.0864
  414MOL0     H55834   9.527   5.125  11.492 -0.7970 -2.4290  1.2503
  414MOL0     H55835   9.643   4.895  11.555 -1.4145  1.3454  1.1118
  414MOL0     H55836   9.796   4.983  11.533  0.3530  2.8207 -0.0935
  414MOL0     H55837   9.574   5.065  11.722  0.1386  1.3509  0.3243
  414MOL0     H55838   9.722   5.162  11.673  0.1642  0.6022  0.2788
  414MOL0     H55839   9.793   4.895  11.777  2.8318  1.1546  2.2285
  414MOL0     H55840   9.860   5.051  11.802 -0.3622  2.4551 -0.8800
  414MOL0     H55841   9.665   4.794  11.973 -0.6383 -2.1117  4.5534
  414MOL0     H55842   9.541   4.779  12.202  3.9893  1.6304 -2.1058
  414MOL0     H55843   9.472   4.925  12.271 -0.5439 -3.7778  1.8010
  414MOL0     H55844   9.322   4.939  12.052  1.1550  1.7040  2.2714
  414MOL0     H55845   9.372   4.773  12.026 -1.3633  0.4939 -1.0508
  414MOL0     H55846   9.239   4.859  12.274  0.7906  3.3199 -3.2163
  414MOL0     H55847   9.282   4.689  12.210 -1.6936 -0.7132  2.2765
  414MOL0     H55848   9.121   4.765  12.008  1.0796  0.8554 -0.0979
  414MOL0     H55849   9.064   4.867  12.142 -0.5973 -0.1429 -0.5485
  414MOL0     H55850   8.899   4.876  12.261 -2.7415  0.3543  2.1385
  414MOL0     H55851   8.713   4.861  12.379  0.9997  1.5934 -0.7763
  414MOL0     H55852   8.526   4.485  12.858  1.4791  3.4521 -1.1281
  414MOL0     H55853   8.303   4.418  12.929  0.1162 -0.8605 -0.4699
  414MOL0     H55854   7.958   4.494  12.659  4.8945  2.9012  1.3797
  414MOL0     H55855   7.996   4.312  12.646 -2.7386 -0.1734  0.0187
  414MOL0     H55856   7.834   4.452  12.858  0.3196  0.6065 -0.2216
  414MOL0     H55857   7.772   4.366  12.708 -0.4194  2.3922 -0.9139
  414MOL0     H55858   7.739   4.202  12.861  0.4616 -1.9047  1.2747
  414MOL0     H55859   7.898   4.173  12.784  0.9310 -3.8352  4.5515
  414MOL0     H55860   8.018   4.239  12.956  0.3667 -1.2414  0.3333
  414MOL0     H55861   7.899   4.115  13.011 -0.9443 -0.4550 -1.2482
  414MOL0     H55862   7.769   4.350  13.079 -0.9169 -0.9388 -0.8807
  414MOL0     H55863   7.939   4.390  13.119  0.1655 -0.2372  1.1559
  414MOL0     H55864   7.796   4.149  13.228  0.1918 -0.9082 -1.8396
  414MOL0     H55865   7.959   4.196  13.254  0.0102 -1.3988 -1.2962
  414MOL0     H55866   7.780   4.263  13.435 -1.7875  0.0004  1.7529
  414MOL0     H55867   7.738   4.391  13.320  0.0442 -1.0077 -0.5440
  414MOL0     H55868   7.982   4.488  13.390 -2.2657  1.2412  1.6507
  414MOL0     H55869   7.884   4.442  13.525 -0.2175 -1.6770  0.5554
  414MOL0     H55870   8.162   4.459  12.522  0.0916  2.2756  0.7631
  414MOL0     H55871   8.381   4.528  12.452 -1.9898  2.9961  0.1586
  414MOL0     H55872   8.759   4.430  12.421 -0.8419  0.4973  1.9733
  414MOL0     H55873   8.951   4.440  12.278  0.1520  0.0718  0.4006
  414MOL0     H55874   9.833   4.906  11.003 -3.3614  1.4261  1.8032
  414MOL0     H55875   9.937   5.023  10.818  0.4994 -2.0343  1.9496
  414MOL0     H55876  10.052   5.037  10.369 -1.7982 -0.4591  0.9568
  414MOL0     H55877  10.216   5.163  10.246  3.8005  1.3741  0.7549
  414MOL0     H55878  10.372   5.281  10.199  0.4744 -0.1924 -0.9194
  414MOL0     H55879  10.451   5.432  10.210  0.6336 -1.4918 -1.1679
  414MOL0     H55880  10.214   5.400  10.028  0.0464 -0.3222 -1.6022
  414MOL0     H55881  10.377   5.361   9.972 -0.5054 -2.5080  1.0095
  414MOL0     H55882  10.452   5.576   9.992 -0.4460  0.0433 -0.8885
  414MOL0     H55883  10.334   5.625  10.109  0.2769 -3.7611  2.1205
  414MOL0     H55884  10.231   5.573   9.823  2.9152  1.4936 -1.4784
  414MOL0     H55885  10.156   5.670   9.954 -2.0253 -1.2050 -3.2977
  414MOL0     H55886  10.430   5.924   9.755 -1.7431  1.8151  0.7555
  414MOL0     H55887  10.077   5.520  10.426  2.2935 -0.3724 -1.1607
  414MOL0     H55888   9.909   5.530  10.553  1.8511 -0.6486  1.6221
  414MOL0     H55889   9.775   5.412  10.509 -0.6643 -0.9811  1.3302
  414MOL0     H55890   9.872   5.394  10.652 -1.7937  0.6865 -0.7509
  415MOL0     O55891   4.199   3.165   8.142 -0.5088 -0.9978  0.4835
  415MOL0     C55892   4.310   3.128   8.111  0.3058 -0.5197  0.2017
  415MOL0     O55893   4.358   3.149   7.978  0.0760 -1.1805  0.3562
  415MOL0     C55894   4.295   3.220   7.872  0.4018  1.2887  0.8510
  415MOL0     C55895   4.388   3.268   7.777  0.6771 -0.2897 -0.0540
  415MOL0     C55896   4.344   3.325   7.648  0.4190  0.7696 -0.5421
  415MOL0     C55897   4.209   3.352   7.634 -0.2256 -0.3840  1.1539
  415MOL0     O55898   4.168   3.426   7.518  0.4107  0.3214 -0.2207
  415MOL0     C55899   4.035   3.399   7.478  0.2451  0.3713  0.8041
  415MOL0     C55900   3.928   3.491   7.531 -0.7583 -0.4898 -0.7375
  415MOL0     C55901   3.937   3.645   7.532 -0.5019 -0.0419  0.5686
  415MOL0     C55902   3.962   3.690   7.676 -0.2823 -0.2608  0.2839
  415MOL0     C55903   3.978   3.845   7.700 -0.9838 -0.0659  0.2015
  415MOL0     C55904   4.082   3.919   7.615 -0.0126 -0.0634 -0.0977
  415MOL0     C55905   4.082   4.066   7.659  0.5230 -0.2718  0.1897
  415MOL0     C55906   4.196   4.154   7.616  0.1312  0.3001 -0.7013
  415MOL0     N55907   4.213   4.274   7.685  0.4795 -0.0650 -0.7002
  415MOL0     C55908   4.280   4.283   7.805  0.3556  0.6287 -0.2563
  415MOL0     C55909   4.275   4.414   7.831  0.3241  1.3130 -0.5989
  415MOL0     C55910   4.327   4.493   7.948 -0.7362 -0.8865  0.0186
  415MOL0     C55911   4.482   4.494   7.950 -0.7676  0.4731 -0.0455
  415MOL0     C55912   4.536   4.542   8.092 -0.0995 -0.2377 -0.5795
  415MOL0     C55913   4.514   4.697   8.116 -0.3532  0.5050 -0.1156
  415MOL0     O55914   4.585   4.735   8.233  0.3397  0.1771  0.1602
  415MOL0     C55915   4.717   4.734   8.236  0.1610  0.6607 -0.3668
  415MOL0     C55916   4.791   4.778   8.132 -0.1179 -0.3373 -0.0443
  415MOL0     C55917   4.931   4.790   8.146  0.0325 -0.6724  0.9177
  415MOL0     C55918   4.994   4.750   8.262 -0.1437  0.3555  0.0137
  415MOL0     C55919   5.132   4.761   8.278 -0.1569  0.7078 -0.0789
  415MOL0     O55920   5.175   4.836   8.388  0.5349  0.3874 -0.3772
  415MOL0     C55921   5.303   4.881   8.382  0.0910 -0.1265 -0.6855
  415MOL0     C55922   5.349   4.973   8.283  0.4170 -0.3424 -0.5531
  415MOL0     C55923   5.459   5.042   8.306  0.0892 -0.4686 -0.2370
  415MOL0     C55924   5.545   5.014   8.415 -0.0392  0.4596  0.0445
  415MOL0     O55925   5.670   5.068   8.413  0.9836  0.7518 -0.0862
  415MOL0     C55926   5.780   5.012   8.485  0.6639  0.9203 -0.3561
  415MOL0     C55927   5.898   5.039   8.407  0.2061  0.1167 -0.0907
  415MOL0     C55928   5.968   5.171   8.450  0.3666 -0.9553 -0.8105
  415MOL0     C55929   6.029   5.148   8.599 -0.7071 -0.4251  0.5424
  415MOL0     C55930   6.096   5.281   8.639  0.3717  1.3838 -0.7561
  415MOL0     C55931   6.001   5.390   8.681  0.1975 -0.2477  0.3353
  415MOL0     C55932   6.066   5.532   8.701 -0.1461  0.3899  0.0895
  415MOL0     C55933   5.985   5.616   8.789  0.8976 -0.5643 -0.0376
  415MOL0    Cl55934   6.056   5.780   8.811  0.2223 -0.4737  0.0420
  415MOL0     C55935   5.502   4.932   8.515 -0.8339 -0.8632  1.1308
  415MOL0     C55936   5.377   4.875   8.504 -0.7700  0.7778 -0.1927
  415MOL0     O55937   5.200   4.735   8.176 -0.6126 -0.7645 -0.2234
  415MOL0     C55938   4.915   4.704   8.366  0.7312  0.5202  0.5841
  415MOL0     C55939   4.776   4.685   8.357  0.0768  0.5731  1.2162
  415MOL0     N55940   4.207   4.482   7.724  0.9640 -0.2864 -0.1711
  415MOL0     N55941   4.166   4.399   7.641 -0.2060  0.5471 -0.4971
  415MOL0     C55942   4.124   3.325   7.740  0.6525 -0.8613  0.3993
  415MOL0     C55943   4.165   3.251   7.848 -0.1646 -0.2244 -0.3651
  415MOL0     C55944   4.387   3.057   8.222 -0.2934  0.2354 -0.5695
  415MOL0     C55945   4.522   3.036   8.203  0.4020 -0.5848 -0.0395
  415MOL0     C55946   4.595   2.958   8.288  0.3609  0.5677  0.7077
  415MOL0     C55947   4.541   2.920   8.415 -0.9223 -0.1332  1.1968
  415MOL0     O55948   4.625   2.860   8.499 -0.0284 -0.1535  0.4260
  415MOL0     C55949   4.574   2.822   8.630 -0.6199  0.1417 -0.5441
  415MOL0     C55950   4.680   2.779   8.721 -0.5131  0.0116  0.1253
  415MOL0     C55951   4.787   2.878   8.724 -0.3970 -0.9968 -0.0700
  415MOL0     C55952   4.869   2.886   8.857  0.7142  0.0070 -0.5547
  415MOL0     C55953   4.782   2.953   8.954 -0.2025  0.6828 -0.1664
  415MOL0     C55954   4.714   3.025   9.016  0.6975  1.3951 -0.6908
  415MOL0     C55955   4.410   2.950   8.436  0.7915  0.4152 -0.3798
  415MOL0     C55956   4.330   3.010   8.337 -0.7061  0.4122 -1.0750
  415MOL0     C55957   4.182   3.020   8.364 -0.4790 -0.3252 -0.3695
  415MOL0     H55958   4.493   3.244   7.787  0.0393 -2.4507  2.5605
  415MOL0     H55959   4.414   3.355   7.570  0.5946 -2.4883 -1.8285
  415MOL0     H55960   4.031   3.404   7.368  1.4367  0.8365  0.7631
  415MOL0     H55961   4.008   3.295   7.498 -0.5652  0.0968 -1.3788
  415MOL0     H55962   3.900   3.462   7.634  2.2747 -2.3179 -0.3014
  415MOL0     H55963   3.850   3.469   7.458 -0.0906 -1.7077 -1.1066
  415MOL0     H55964   3.844   3.693   7.500 -0.3008 -1.2585 -2.1411
  415MOL0     H55965   4.012   3.674   7.458 -1.3609  1.4254  0.2416
  415MOL0     H55966   3.867   3.663   7.724  0.5885 -1.9702  1.1271
  415MOL0     H55967   4.051   3.644   7.720  3.7039  4.0868 -2.2706
  415MOL0     H55968   3.886   3.902   7.685  1.2631  3.3636 -2.3748
  415MOL0     H55969   4.004   3.866   7.804 -2.0752 -0.3667  0.5398
  415MOL0     H55970   4.182   3.876   7.628 -0.1963 -1.1977 -2.0019
  415MOL0     H55971   4.063   3.906   7.508  2.7865 -1.0546 -0.5645
  415MOL0     H55972   4.097   4.076   7.767 -1.9713  0.6437  0.5128
  415MOL0     H55973   3.987   4.112   7.630  0.8236  1.1120  1.3097
  415MOL0     H55974   4.294   4.106   7.623 -0.0892  0.1186  1.8024
  415MOL0     H55975   4.176   4.175   7.510  2.2008 -0.3839 -1.2877
  415MOL0     H55976   4.335   4.220   7.874  3.0744 -0.3572 -3.0572
  415MOL0     H55977   4.290   4.596   7.947  1.2203 -0.1097 -1.9985
  415MOL0     H55978   4.290   4.449   8.041  0.4010  1.7921  1.8802
  415MOL0     H55979   4.522   4.395   7.931  0.2562  0.2274  2.8195
  415MOL0     H55980   4.513   4.575   7.883  0.7625  0.7969  0.9995
  415MOL0     H55981   4.643   4.523   8.106  0.0904  1.1082 -0.0176
  415MOL0     H55982   4.489   4.479   8.169 -0.0089  0.3120 -0.0641
  415MOL0     H55983   4.409   4.712   8.146  0.8067  1.4227  4.2213
  415MOL0     H55984   4.541   4.761   8.032  1.2504  1.2882  0.9438
  415MOL0     H55985   4.750   4.794   8.033  0.4611 -1.0436 -0.4123
  415MOL0     H55986   4.997   4.822   8.066  0.3176 -3.0671  0.1329
  415MOL0     H55987   5.278   4.992   8.203 -2.5164  2.5210  2.4324
  415MOL0     H55988   5.486   5.125   8.241 -0.2974  0.1484  0.3806
  415MOL0     H55989   5.790   5.046   8.589  2.6149 -1.5537  0.3684
  415MOL0     H55990   5.770   4.903   8.495 -0.5016  1.1952  2.5087
  415MOL0     H55991   5.963   4.954   8.429  0.9858  0.9982  1.1090
  415MOL0     H55992   5.885   5.049   8.299 -0.4173 -0.6926 -0.1044
  415MOL0     H55993   6.044   5.198   8.377  0.7125 -1.0035 -0.4739
  415MOL0     H55994   5.910   5.263   8.444 -1.5344 -2.0082  0.4981
  415MOL0     H55995   6.099   5.064   8.587 -0.7749 -0.0864 -3.6606
  415MOL0     H55996   5.952   5.137   8.676 -0.5703 -1.1586  0.5897
  415MOL0     H55997   6.167   5.313   8.562  2.9530 -0.9741  0.4630
  415MOL0     H55998   6.153   5.250   8.727 -0.6590 -1.7163 -1.0324
  415MOL0     H55999   5.924   5.398   8.604 -0.7501 -4.7616  0.5478
  415MOL0     H56000   5.944   5.365   8.770  0.2723 -0.7063  0.2598
  415MOL0     H56001   6.057   5.582   8.604 -0.1759  1.8810  0.8324
  415MOL0     H56002   6.167   5.531   8.742 -0.3434  2.5743  0.7645
  415MOL0     H56003   5.890   5.631   8.738  3.7619  1.8911 -5.5394
  415MOL0     H56004   5.957   5.569   8.884 -1.6794 -2.5863 -1.6391
  415MOL0     H56005   5.565   4.911   8.601  0.7620  1.9000  0.7353
  415MOL0     H56006   5.335   4.812   8.583  1.9363 -0.5593  0.2866
  415MOL0     H56007   4.959   4.652   8.451  2.6499 -0.6196 -1.0248
  415MOL0     H56008   4.710   4.640   8.430 -1.4760 -0.6502 -0.8203
  415MOL0     H56009   4.017   3.340   7.733  0.9890  1.5866 -0.9188
  415MOL0     H56010   4.103   3.224   7.933 -2.8012 -0.5249 -2.2562
  415MOL0     H56011   4.576   3.064   8.113  0.9471 -3.2155 -0.5946
  415MOL0     H56012   4.699   2.936   8.267  0.6182  0.9913  1.4927
  415MOL0     H56013   4.508   2.737   8.612  0.8358 -1.0614 -0.3834
  415MOL0     H56014   4.517   2.908   8.667 -2.7641  0.4989 -4.2363
  415MOL0     H56015   4.720   2.681   8.694 -3.1908 -0.7185 -1.4726
  415MOL0     H56016   4.635   2.768   8.820 -0.1613 -1.7268  0.1224
  415MOL0     H56017   4.757   2.980   8.699  0.3339 -0.5516  0.7951
  415MOL0     H56018   4.854   2.852   8.641  0.8611  2.0979 -0.1859
  415MOL0     H56019   4.898   2.791   8.901  0.2501  0.4707  0.7876
  415MOL0     H56020   4.956   2.953   8.851  2.5304 -2.3540 -3.4646
  415MOL0     H56021   4.640   3.083   9.068 -2.0584 -2.6551  0.4498
  415MOL0     H56022   4.362   2.897   8.518  1.4394 -0.8675 -0.8057
  415MOL0     H56023   4.154   2.971   8.458  3.2128 -3.1030 -0.5239
  415MOL0     H56024   4.152   3.125   8.376 -0.0746 -0.2481 -0.0206
  415MOL0     H56025   4.135   2.972   8.278  1.4597  2.9070 -3.5127
  416MOL0     O56026   7.356   7.973   6.366  0.1758  0.9997 -0.1936
  416MOL0     C56027   7.386   7.892   6.451  0.0038  0.1623 -0.1586
  416MOL0     O56028   7.425   7.768   6.418  0.2822  0.4386 -0.0994
  416MOL0     C56029   7.465   7.727   6.291 -0.6825 -0.5201  0.1039
  416MOL0     C56030   7.563   7.803   6.208  0.4411 -0.0688 -0.6190
  416MOL0     C56031   7.623   7.738   6.105  0.2541 -0.1096  0.4078
  416MOL0     C56032   7.581   7.615   6.062 -0.4220 -0.5137  0.1636
  416MOL0     O56033   7.635   7.557   5.937 -0.0572  0.3727 -0.7183
  416MOL0     C56034   7.765   7.609   5.890 -0.9083  0.1573 -0.9811
  416MOL0     C56035   7.814   7.543   5.761  0.2096  0.4212 -0.6961
  416MOL0     C56036   7.750   7.603   5.633 -0.6484 -1.0409  0.8850
  416MOL0     C56037   7.752   7.503   5.509 -0.4404 -0.8836 -1.1037
  416MOL0     C56038   7.716   7.579   5.380 -0.4327 -0.4596 -0.6478
  416MOL0     C56039   7.664   7.474   5.284 -0.2295 -0.7432  0.0282
  416MOL0     C56040   7.612   7.549   5.160 -0.6909  0.1057 -0.4521
  416MOL0     C56041   7.562   7.451   5.057  0.4370  0.0674  0.2767
  416MOL0     N56042   7.552   7.519   4.930  0.5169 -0.1831 -0.7977
  416MOL0     C56043   7.432   7.559   4.871  0.1274  0.8904 -0.7934
  416MOL0     C56044   7.460   7.607   4.752  0.1156  0.2763  0.3734
  416MOL0     C56045   7.366   7.667   4.652  0.1088 -0.4250 -0.1521
  416MOL0     C56046   7.344   7.572   4.540  0.5048 -0.1975  0.4268
  416MOL0     C56047   7.276   7.629   4.411  1.1290 -0.5903  0.1185
  416MOL0     C56048   7.137   7.692   4.439 -0.2688  0.6805  0.2076
  416MOL0     O56049   7.052   7.726   4.323  0.4604 -0.9249  0.3606
  416MOL0     C56050   7.068   7.643   4.213  0.0389 -0.3715  1.0348
  416MOL0     C56051   7.128   7.675   4.092  0.1344  0.8003  0.6018
  416MOL0     C56052   7.150   7.581   3.987  0.2516  0.1935  1.0873
  416MOL0     C56053   7.100   7.454   3.999  0.1314 -0.1528  0.0562
  416MOL0     C56054   7.116   7.366   3.883  0.3197 -0.5675  0.0080
  416MOL0     O56055   7.193   7.419   3.782 -0.1643 -0.7639 -0.5205
  416MOL0     C56056   7.193   7.355   3.666 -0.9272 -0.8982 -0.0680
  416MOL0     C56057   7.096   7.312   3.586  0.8387  1.0715 -0.1257
  416MOL0     C56058   7.109   7.237   3.468 -0.5297 -0.5654 -0.0068
  416MOL0     C56059   7.234   7.238   3.401 -0.4409  0.4614  0.9633
  416MOL0     O56060   7.261   7.179   3.280 -0.4074  0.0539 -0.1733
  416MOL0     C56061   7.156   7.169   3.182 -0.2100 -0.2738 -0.2372
  416MOL0     C56062   7.217   7.130   3.039 -0.2942  1.1169  0.1574
  416MOL0     C56063   7.300   7.252   2.985  0.5410 -0.9284  0.1921
  416MOL0     C56064   7.379   7.219   2.859  0.6190 -0.3793 -0.6067
  416MOL0     C56065   7.397   7.348   2.769  0.0636  0.0024 -0.1868
  416MOL0     C56066   7.270   7.402   2.708  0.7819 -0.5480  0.8306
  416MOL0     C56067   7.265   7.521   2.610  0.0335  0.1177 -0.2429
  416MOL0     C56068   7.116   7.561   2.585 -0.2076 -0.2913  0.3142
  416MOL0    Cl56069   7.040   7.443   2.473 -0.1183 -0.1170  0.4991
  416MOL0     C56070   7.340   7.292   3.475 -1.0223 -0.9869 -0.2854
  416MOL0     C56071   7.316   7.347   3.601  0.1985 -0.0590 -0.3217
  416MOL0     O56072   7.057   7.257   3.876 -0.7428  0.7178  0.4313
  416MOL0     C56073   7.029   7.422   4.121  0.0966  0.5578  0.7278
  416MOL0     C56074   7.021   7.514   4.223  0.3719 -0.1089  0.2712
  416MOL0     N56075   7.599   7.602   4.741 -0.5750 -0.5494  0.0732
  416MOL0     N56076   7.651   7.546   4.846  0.2684  0.2427 -0.1032
  416MOL0     C56077   7.490   7.544   6.134  0.2795 -0.7402  0.1464
  416MOL0     C56078   7.439   7.596   6.250 -0.4777  0.4911  0.1219
  416MOL0     C56079   7.375   7.932   6.592 -0.6089  0.5027  1.5636
  416MOL0     C56080   7.425   7.834   6.683 -0.2889 -0.5041  0.2255
  416MOL0     C56081   7.440   7.856   6.815 -0.5896 -0.3516  0.9704
  416MOL0     C56082   7.388   7.972   6.869  0.2792 -0.1153 -0.2918
  416MOL0     O56083   7.390   8.010   6.999 -0.0267 -1.1347  0.1818
  416MOL0     C56084   7.442   7.921   7.097  0.0745 -0.2224 -0.5262
  416MOL0     C56085   7.370   7.964   7.230  0.3416  0.2771  0.5902
  416MOL0     C56086   7.370   8.114   7.260 -0.1761 -1.0366  0.0384
  416MOL0     C56087   7.286   8.153   7.386  0.8319 -0.2612 -0.3210
  416MOL0     C56088   7.331   8.074   7.506 -0.1366  0.1964 -1.1485
  416MOL0     C56089   7.370   8.008   7.607  0.8431 -0.7447 -1.2748
  416MOL0     C56090   7.322   8.063   6.791  0.0774 -0.3966  0.0473
  416MOL0     C56091   7.319   8.051   6.648 -0.8002  0.7617  0.5109
  416MOL0     C56092   7.259   8.165   6.569  0.3408 -0.5501 -0.4135
  416MOL0     H56093   7.595   7.905   6.229  2.1121 -1.1650  2.9006
  416MOL0     H56094   7.698   7.794   6.051  0.9726  1.3404  2.7809
  416MOL0     H56095   7.766   7.718   5.875  2.7277  0.1313 -1.9228
  416MOL0     H56096   7.846   7.601   5.964  0.1105  1.5721 -1.8840
  416MOL0     H56097   7.796   7.436   5.761  1.5263  0.1823 -0.1656
  416MOL0     H56098   7.923   7.546   5.764  0.2944 -1.3930  3.1058
  416MOL0     H56099   7.800   7.698   5.613 -1.6865 -0.0258  2.7744
  416MOL0     H56100   7.644   7.624   5.649 -0.5696  1.1817 -0.9897
  416MOL0     H56101   7.855   7.466   5.507  0.6056  1.6795  0.7605
  416MOL0     H56102   7.680   7.421   5.523 -1.0318 -0.5090 -1.8283
  416MOL0     H56103   7.640   7.655   5.396 -1.1036  0.1972 -5.4165
  416MOL0     H56104   7.805   7.624   5.335 -0.0304 -2.1192 -1.6198
  416MOL0     H56105   7.728   7.389   5.258 -3.0768 -3.0356  0.0079
  416MOL0     H56106   7.578   7.419   5.323  2.0948 -3.2284  1.9724
  416MOL0     H56107   7.698   7.606   5.123 -0.5910  2.1771  2.5678
  416MOL0     H56108   7.524   7.613   5.172 -0.7168 -0.0636  0.3326
  416MOL0     H56109   7.637   7.374   5.037 -1.3697 -2.1066  1.5243
  416MOL0     H56110   7.472   7.396   5.084  1.0473 -1.4110 -0.5801
  416MOL0     H56111   7.336   7.554   4.923  1.5675  0.0925  1.9865
  416MOL0     H56112   7.267   7.686   4.694  0.2185  2.1669 -0.8614
  416MOL0     H56113   7.410   7.759   4.612  1.1929 -1.0951 -0.5758
  416MOL0     H56114   7.437   7.532   4.498  0.0026 -1.2155  0.2386
  416MOL0     H56115   7.293   7.483   4.578  0.7831 -1.2708 -1.5855
  416MOL0     H56116   7.258   7.549   4.339  1.8358 -1.4876  0.9317
  416MOL0     H56117   7.338   7.708   4.367  1.3284  1.9783  4.4127
  416MOL0     H56118   7.156   7.782   4.497 -3.3357  3.2163 -2.3508
  416MOL0     H56119   7.081   7.619   4.499  2.3504 -0.4524  1.4057
  416MOL0     H56120   7.177   7.771   4.085 -0.3642  1.1542  1.6825
  416MOL0     H56121   7.207   7.626   3.907  1.0675 -0.1940  1.4350
  416MOL0     H56122   6.994   7.318   3.622  0.1288 -0.8134 -1.6599
  416MOL0     H56123   7.028   7.180   3.425 -2.0233  2.0333 -0.8537
  416MOL0     H56124   7.082   7.096   3.216 -2.2500  1.4059 -0.7811
  416MOL0     H56125   7.089   7.255   3.171  0.2186  0.0461 -0.3618
  416MOL0     H56126   7.272   7.036   3.056  1.6760  2.2877  0.6180
  416MOL0     H56127   7.133   7.110   2.972 -0.1922 -0.0985  0.3628
  416MOL0     H56128   7.230   7.336   2.975 -0.1745 -0.7692  4.5528
  416MOL0     H56129   7.373   7.277   3.062 -1.9344  3.1647  1.5363
  416MOL0     H56130   7.335   7.131   2.811  2.9486 -1.3282 -1.1289
  416MOL0     H56131   7.481   7.183   2.875  0.3391 -0.0988  2.2728
  416MOL0     H56132   7.479   7.323   2.701 -1.7649 -1.1809 -2.0984
  416MOL0     H56133   7.436   7.426   2.835 -0.6234 -0.0918  0.3389
  416MOL0     H56134   7.216   7.321   2.658  1.5732  0.7721 -2.3914
  416MOL0     H56135   7.201   7.443   2.783 -0.5824  1.3413 -1.3105
  416MOL0     H56136   7.322   7.501   2.519  2.2676  3.2631  0.3014
  416MOL0     H56137   7.318   7.607   2.654  0.2100  0.3026 -0.8083
  416MOL0     H56138   7.054   7.581   2.673  0.2205 -1.4611  0.9036
  416MOL0     H56139   7.119   7.662   2.542 -0.0011  0.2506  1.5541
  416MOL0     H56140   7.445   7.290   3.446 -0.5796 -1.4852  1.2687
  416MOL0     H56141   7.403   7.386   3.653  0.4435 -0.2050 -0.6177
  416MOL0     H56142   6.984   7.324   4.134  1.9151 -0.1762  1.8716
  416MOL0     H56143   6.988   7.483   4.322  0.5532 -0.9497  0.0839
  416MOL0     H56144   7.459   7.446   6.099 -1.8779 -0.5140  1.2280
  416MOL0     H56145   7.366   7.537   6.305  1.6750  1.4458  4.4183
  416MOL0     H56146   7.464   7.737   6.655  3.0333  0.5514  0.7263
  416MOL0     H56147   7.502   7.792   6.876  3.1248 -0.0871 -2.1407
  416MOL0     H56148   7.548   7.943   7.111 -0.7811  3.3631  1.7262
  416MOL0     H56149   7.428   7.814   7.080  2.4092 -0.5096 -0.9991
  416MOL0     H56150   7.416   7.906   7.310 -2.5760 -0.5685  1.8255
  416MOL0     H56151   7.264   7.937   7.216  0.7553 -1.6254  0.8456
  416MOL0     H56152   7.322   8.173   7.181 -2.1909 -0.5953  1.5073
  416MOL0     H56153   7.471   8.149   7.280 -0.3167 -1.8215  2.5555
  416MOL0     H56154   7.296   8.257   7.417  0.1378 -0.7753  1.7403
  416MOL0     H56155   7.181   8.133   7.362  0.2095  0.7368  1.4141
  416MOL0     H56156   7.407   7.960   7.696 -1.3068 -3.7131 -1.8376
  416MOL0     H56157   7.268   8.147   6.834  1.8370  0.6527  0.2975
  416MOL0     H56158   7.194   8.228   6.630  2.4568  0.6711  0.6800
  416MOL0     H56159   7.337   8.225   6.521  0.3264 -1.3935 -1.5466
  416MOL0     H56160   7.197   8.119   6.491 -3.5091  1.9715  0.8759
  417MOL0     O56161   2.973   2.242   5.813  0.1812  1.0893 -0.3007
  417MOL0     C56162   2.887   2.167   5.851  0.5040  0.0183 -0.2322
  417MOL0     O56163   2.905   2.047   5.912  0.0408  0.1929  0.1581
  417MOL0     C56164   2.997   1.953   5.890 -0.0330 -0.9673 -0.0705
  417MOL0     C56165   3.064   1.942   5.770 -0.2213  1.1796  0.2212
  417MOL0     C56166   3.153   1.838   5.757 -0.4076  0.6356  0.4677
  417MOL0     C56167   3.174   1.750   5.864  0.0032 -0.4997  0.3594
  417MOL0     O56168   3.254   1.641   5.859 -0.1908  0.4734  0.9396
  417MOL0     C56169   3.278   1.563   5.740 -0.0229 -0.7798  1.7702
  417MOL0     C56170   3.330   1.427   5.774 -0.1691  0.1956 -0.6289
  417MOL0     C56171   3.330   1.366   5.641  0.2559 -0.1981  0.3617
  417MOL0     C56172   3.366   1.221   5.657  0.2205  1.0408  0.7445
  417MOL0     C56173   3.512   1.211   5.650 -0.9802  0.0061  0.4870
  417MOL0     C56174   3.551   1.065   5.609  0.9180 -0.5603  0.6578
  417MOL0     C56175   3.545   0.972   5.731  1.0537 -0.7424 -0.5343
  417MOL0     C56176   3.593   0.834   5.707 -0.0161  0.7709  0.0382
  417MOL0     N56177   3.539   0.768   5.589 -0.9875 -0.9302  0.1190
  417MOL0     C56178   3.414   0.701   5.582 -1.1421 -0.7044  0.4900
  417MOL0     C56179   3.392   0.685   5.449 -0.7139  0.7866 -0.1792
  417MOL0     C56180   3.286   0.596   5.397 -0.1542 -0.0957 -0.1109
  417MOL0     C56181   3.147   0.667   5.386 -0.3979 -0.8777  0.1970
  417MOL0     C56182   3.027   0.566   5.397  0.1560 -0.5008  1.7771
  417MOL0     C56183   2.984   0.498   5.530  0.6221  0.2925 -0.5181
  417MOL0     O56184   2.854   0.429   5.519 -0.1356  0.1959  0.3218
  417MOL0     C56185   2.860   0.295   5.482  0.0858 -0.3985  0.1249
  417MOL0     C56186   2.969   0.233   5.421  0.5417 -0.3467  0.0480
  417MOL0     C56187   2.963   0.092   5.392 -0.2073 -0.0178 -0.7748
  417MOL0     C56188   2.840   0.026   5.401 -0.4096 -0.7774  0.6339
  417MOL0     C56189   2.829  -0.105   5.337 -0.3023 -0.9144  0.1318
  417MOL0     O56190   2.711  -0.163   5.373 -1.1762  0.2719  0.5181
  417MOL0     C56191   2.686  -0.279   5.302  0.1067 -0.1210 -0.5153
  417MOL0     C56192   2.667  -0.394   5.383  0.9658 -0.2611 -0.8183
  417MOL0     C56193   2.654  -0.517   5.315 -0.4985  0.9049  0.9881
  417MOL0     C56194   2.673  -0.531   5.180 -0.2225  0.7633  0.2150
  417MOL0     O56195   2.657  -0.663   5.145 -0.2225 -0.2740  0.3314
  417MOL0     C56196   2.651  -0.677   4.998  0.2448 -0.9464  0.3893
  417MOL0     C56197   2.610  -0.817   4.950 -0.1545 -0.6913 -0.4790
  417MOL0     C56198   2.594  -0.843   4.802  0.4919 -0.3504  0.2090
  417MOL0     C56199   2.591  -1.000   4.780 -0.4283 -0.1746  0.6722
  417MOL0     C56200   2.575  -1.040   4.636  0.0570 -0.6306  0.4737
  417MOL0     C56201   2.436  -0.987   4.585 -0.0880  0.0688  0.9130
  417MOL0     C56202   2.375  -1.058   4.458 -0.1432 -0.7194  0.8855
  417MOL0     C56203   2.245  -0.993   4.405 -0.0384 -0.6754 -0.5530
  417MOL0    Cl56204   2.255  -0.812   4.425  0.6117  0.2519  0.1430
  417MOL0     C56205   2.691  -0.419   5.100  0.0955  0.2754 -0.9559
  417MOL0     C56206   2.706  -0.290   5.161  0.5616  1.4651  0.6392
  417MOL0     O56207   2.913  -0.144   5.260  0.2194  0.2676  0.5943
  417MOL0     C56208   2.729   0.095   5.457 -0.0401  0.5657  0.5232
  417MOL0     C56209   2.736   0.231   5.500 -0.1329  0.0739  0.9340
  417MOL0     N56210   3.497   0.751   5.384  0.6413  0.6394 -0.0374
  417MOL0     N56211   3.589   0.794   5.465  0.8279 -0.2560 -0.8526
  417MOL0     C56212   3.105   1.762   5.983  0.4382 -0.0570 -0.4324
  417MOL0     C56213   3.020   1.869   5.991 -0.4336  0.6569  1.5870
  417MOL0     C56214   2.757   2.232   5.858  1.0067 -0.1573  0.0250
  417MOL0     C56215   2.665   2.166   5.942  0.6216 -0.0767  0.6794
  417MOL0     C56216   2.533   2.228   5.967 -0.7342 -0.6673 -0.1551
  417MOL0     C56217   2.491   2.340   5.894 -0.6231 -0.1317 -1.4233
  417MOL0     O56218   2.368   2.393   5.903 -0.0959 -0.6271 -1.2439
  417MOL0     C56219   2.290   2.355   6.013 -0.2846 -0.1889 -0.2687
  417MOL0     C56220   2.166   2.453   6.023 -0.2887 -0.9695  0.7886
  417MOL0     C56221   2.202   2.599   5.991 -0.1258 -0.4913  0.3146
  417MOL0     C56222   2.072   2.678   6.009  0.3303  0.2911 -0.4533
  417MOL0     C56223   2.096   2.822   5.995 -0.3467 -0.2500 -0.7302
  417MOL0     C56224   2.142   2.929   5.993  0.2685  0.7282  0.2605
  417MOL0     C56225   2.586   2.387   5.802  0.5865  0.4375  0.2843
  417MOL0     C56226   2.716   2.350   5.798 -0.5484 -0.2623  0.4069
  417MOL0     C56227   2.809   2.459   5.745  0.5811  0.2114 -0.4980
  417MOL0     H56228   3.062   2.016   5.691  3.2630 -0.2879 -1.4923
  417MOL0     H56229   3.189   1.824   5.656  1.4571 -0.8234  1.2941
  417MOL0     H56230   3.182   1.561   5.687 -0.6097  0.7767  2.6974
  417MOL0     H56231   3.347   1.628   5.685 -4.1127  0.9747 -1.9321
  417MOL0     H56232   3.259   1.371   5.835 -0.1302 -1.5815 -2.1121
  417MOL0     H56233   3.431   1.433   5.816 -0.5302 -0.6477  0.3776
  417MOL0     H56234   3.405   1.420   5.582 -1.0610  3.7335  1.9577
  417MOL0     H56235   3.231   1.367   5.595  0.9963  2.8505 -1.3897
  417MOL0     H56236   3.340   1.159   5.743 -1.0281 -0.8395 -0.8977
  417MOL0     H56237   3.335   1.175   5.563  0.9336 -3.6422  2.5273
  417MOL0     H56238   3.557   1.273   5.572  2.2646 -2.2221  0.3834
  417MOL0     H56239   3.569   1.232   5.741  0.9589 -2.8404  0.0677
  417MOL0     H56240   3.478   1.025   5.538  1.8325 -1.3055  0.1068
  417MOL0     H56241   3.654   1.077   5.573  1.9362 -3.3684  2.2532
  417MOL0     H56242   3.447   0.977   5.781  2.0064  2.6916  1.2975
  417MOL0     H56243   3.608   1.016   5.809  2.2708 -0.1831 -1.7875
  417MOL0     H56244   3.702   0.843   5.700  0.4113 -0.8756  2.8568
  417MOL0     H56245   3.567   0.785   5.801 -0.4451  2.8017  1.0404
  417MOL0     H56246   3.363   0.654   5.665 -0.9661 -1.2015  0.3207
  417MOL0     H56247   3.316   0.539   5.308 -1.3412 -1.5745  0.3885
  417MOL0     H56248   3.277   0.521   5.476  1.1615 -2.6322 -2.2179
  417MOL0     H56249   3.135   0.753   5.453  1.0226  1.4853 -2.3502
  417MOL0     H56250   3.138   0.724   5.293  3.5316 -0.2605  0.0296
  417MOL0     H56251   3.060   0.495   5.321  4.3078  1.0984  1.8594
  417MOL0     H56252   2.938   0.623   5.368  1.3279  0.4464 -0.1090
  417MOL0     H56253   2.963   0.573   5.607  1.9533  0.2110 -0.0518
  417MOL0     H56254   3.071   0.443   5.568  0.8325  1.7870  1.2546
  417MOL0     H56255   3.067   0.277   5.403  0.4791  0.0386  0.6250
  417MOL0     H56256   3.053   0.038   5.365 -1.2965 -0.7081 -3.2691
  417MOL0     H56257   2.637  -0.396   5.487  0.2401  2.9324 -0.8570
  417MOL0     H56258   2.633  -0.608   5.370  1.6870 -1.0774 -1.2031
  417MOL0     H56259   2.574  -0.605   4.968 -0.2619 -1.6359  0.0213
  417MOL0     H56260   2.745  -0.644   4.952 -1.8135  0.1467 -3.4828
  417MOL0     H56261   2.680  -0.892   4.987  0.3162 -2.0532 -3.8239
  417MOL0     H56262   2.514  -0.841   4.997  0.4978 -0.9944  0.7467
  417MOL0     H56263   2.505  -0.792   4.764  2.1617 -0.3166 -4.1805
  417MOL0     H56264   2.683  -0.802   4.752  0.9016 -1.2810  0.1631
  417MOL0     H56265   2.511  -1.043   4.841 -1.2796 -0.7924 -0.8268
  417MOL0     H56266   2.685  -1.039   4.819  0.1587 -0.8959 -1.3381
  417MOL0     H56267   2.594  -1.146   4.617  1.5579 -0.4314  0.7375
  417MOL0     H56268   2.663  -0.993   4.591 -0.2735  0.7995  1.2416
  417MOL0     H56269   2.366  -1.005   4.667  2.4279  0.5581  3.3034
  417MOL0     H56270   2.455  -0.880   4.577  5.7834 -0.6530  1.2205
  417MOL0     H56271   2.349  -1.163   4.449  0.3620 -0.8552  0.9563
  417MOL0     H56272   2.444  -1.036   4.376 -0.2295  1.8970  1.4057
  417MOL0     H56273   2.228  -1.025   4.302 -1.3106 -0.0166 -0.5626
  417MOL0     H56274   2.163  -1.025   4.469 -2.4794  1.6025 -2.3314
  417MOL0     H56275   2.692  -0.418   4.992  0.4326 -1.1709 -0.9898
  417MOL0     H56276   2.731  -0.210   5.091 -1.2813 -1.4440 -3.8144
  417MOL0     H56277   2.634   0.043   5.462 -0.8017  1.9723  4.5608
  417MOL0     H56278   2.657   0.286   5.552 -2.0707 -0.1089 -1.6083
  417MOL0     H56279   3.128   1.693   6.063  0.6017 -1.4000 -1.6055
  417MOL0     H56280   2.969   1.897   6.083  1.5473 -1.1766  3.3679
  417MOL0     H56281   2.679   2.066   5.981 -0.3877  0.0384  1.3700
  417MOL0     H56282   2.474   2.173   6.040  0.6460 -1.9543  0.0480
  417MOL0     H56283   2.354   2.369   6.100 -0.1808 -0.4159 -0.3069
  417MOL0     H56284   2.262   2.249   6.013 -1.4456  0.1009  0.5361
  417MOL0     H56285   2.117   2.445   6.120  0.7332  2.1460  1.6724
  417MOL0     H56286   2.098   2.430   5.941  1.6515  0.2564 -1.2989
  417MOL0     H56287   2.226   2.613   5.886  0.2239 -0.8251  0.3500
  417MOL0     H56288   2.283   2.619   6.062 -0.5333 -1.9952  1.2562
  417MOL0     H56289   2.010   2.655   5.922  0.4925  2.1061 -1.1097
  417MOL0     H56290   2.018   2.662   6.103 -1.7348 -0.3026 -1.6813
  417MOL0     H56291   2.175   3.030   6.001 -0.0342  0.6700  3.6330
  417MOL0     H56292   2.547   2.457   5.729  1.6135 -1.8161 -2.6580
  417MOL0     H56293   2.874   2.430   5.662  0.8855 -0.7593  0.0670
  417MOL0     H56294   2.755   2.540   5.693 -1.8852 -1.4498 -0.7069
  417MOL0     H56295   2.860   2.498   5.833 -2.0674 -2.3124  2.4038
  418MOL0     O56296   0.720   0.510   9.304  1.4943  0.6106  0.5409
  418MOL0     C56297   0.797   0.596   9.336 -0.6004 -0.2421  0.0265
  418MOL0     O56298   0.934   0.595   9.323 -0.6388  0.3435 -0.7769
  418MOL0     C56299   0.981   0.517   9.215 -0.1695  0.8773 -1.0175
  418MOL0     C56300   1.053   0.572   9.108 -0.7987  0.6635  0.3925
  418MOL0     C56301   1.118   0.485   9.016  0.0108 -0.3415 -0.0725
  418MOL0     C56302   1.108   0.342   9.035 -0.6679  0.0575 -0.2678
  418MOL0     O56303   1.193   0.266   8.952 -0.1339  0.4736 -0.6653
  418MOL0     C56304   1.171   0.128   8.920 -0.7311  0.1418  0.1731
  418MOL0     C56305   1.257   0.095   8.795 -0.0317 -0.0674 -0.4345
  418MOL0     C56306   1.408   0.095   8.822  0.3222 -0.9661 -0.6732
  418MOL0     C56307   1.483   0.037   8.701 -0.3772 -0.8225  0.1048
  418MOL0     C56308   1.627  -0.012   8.738 -0.4086 -0.8659 -0.8795
  418MOL0     C56309   1.707  -0.058   8.613 -0.0647  0.5080 -0.0392
  418MOL0     C56310   1.850  -0.114   8.640 -0.0066  0.2866  0.2332
  418MOL0     C56311   1.860  -0.223   8.751 -0.6380  0.1711 -0.7834
  418MOL0     N56312   1.994  -0.291   8.743 -0.4898 -0.4504 -0.2681
  418MOL0     C56313   2.046  -0.368   8.639 -1.0137  0.0363  1.4718
  418MOL0     C56314   2.178  -0.383   8.666 -0.3457  0.0146  0.3530
  418MOL0     C56315   2.286  -0.445   8.570  0.3631  0.2797  0.0920
  418MOL0     C56316   2.356  -0.343   8.480 -0.3677  0.5329  0.3654
  418MOL0     C56317   2.477  -0.282   8.546  0.4462 -0.8119 -0.0642
  418MOL0     C56318   2.438  -0.146   8.630 -0.0359  0.8599  0.6274
  418MOL0     O56319   2.370  -0.043   8.549  0.0150  0.0726 -0.6101
  418MOL0     C56320   2.280   0.042   8.613  0.4387  0.1147  0.2548
  418MOL0     C56321   2.254   0.149   8.534  0.0690 -0.8681  0.7463
  418MOL0     C56322   2.153   0.240   8.574  0.3212 -0.8297  0.1456
  418MOL0     C56323   2.065   0.219   8.684  0.4142  0.6223  1.0633
  418MOL0     C56324   1.957   0.313   8.712 -0.1718  0.2814 -0.2625
  418MOL0     O56325   1.931   0.337   8.842  0.0910 -0.9723 -0.4659
  418MOL0     C56326   1.834   0.428   8.876 -0.2977 -0.6374  1.1017
  418MOL0     C56327   1.722   0.381   8.942  0.3637  0.6639  1.1646
  418MOL0     C56328   1.609   0.460   8.950  1.3752 -0.5587 -0.6963
  418MOL0     C56329   1.623   0.595   8.935  0.1238 -0.5828 -0.3071
  418MOL0     O56330   1.517   0.677   8.983  0.1270  0.3015 -0.4027
  418MOL0     C56331   1.527   0.819   9.015 -0.1367  0.3100 -1.4037
  418MOL0     C56332   1.402   0.890   9.054  0.5123 -0.6672 -0.1816
  418MOL0     C56333   1.362   0.839   9.200 -0.0971  0.1328 -0.2678
  418MOL0     C56334   1.224   0.876   9.253  0.2998  0.7606  1.0065
  418MOL0     C56335   1.225   1.004   9.333  1.2925  0.7063 -0.0672
  418MOL0     C56336   1.098   1.071   9.333  0.1933  0.3458 -0.1229
  418MOL0     C56337   1.089   1.177   9.443 -0.0436 -0.8126  0.5827
  418MOL0     C56338   0.975   1.267   9.444  0.4571  0.7848  0.1235
  418MOL0    Cl56339   0.824   1.157   9.429 -0.3145 -0.4501 -0.3536
  418MOL0     C56340   1.735   0.647   8.865 -0.7180 -0.2455 -0.4908
  418MOL0     C56341   1.837   0.560   8.831  0.3822 -0.5844 -1.0316
  418MOL0     O56342   1.906   0.371   8.621  0.1323 -0.4504  1.0272
  418MOL0     C56343   2.097   0.112   8.769  0.9562 -0.0795  0.5253
  418MOL0     C56344   2.205   0.029   8.728 -0.3146 -0.0296 -0.6785
  418MOL0     N56345   2.199  -0.329   8.780  0.0958  0.0691 -0.5364
  418MOL0     N56346   2.096  -0.276   8.828  0.5866 -0.5279  0.3898
  418MOL0     C56347   1.034   0.290   9.142  0.6953  0.6707  0.2400
  418MOL0     C56348   0.966   0.385   9.227 -0.8064  0.9381 -0.6649
  418MOL0     C56349   0.743   0.709   9.422  0.3351 -0.1066  0.4636
  418MOL0     C56350   0.827   0.767   9.514  0.0308 -0.1937  0.4277
  418MOL0     C56351   0.791   0.878   9.589  0.0516  0.5877 -0.3183
  418MOL0     C56352   0.666   0.931   9.573  0.2664 -0.1204  0.1779
  418MOL0     O56353   0.623   1.053   9.618  0.7149  0.8721 -0.0743
  418MOL0     C56354   0.690   1.100   9.739 -0.8712  0.3751  0.0597
  418MOL0     C56355   0.654   1.021   9.859  0.0899  0.3849 -0.0085
  418MOL0     C56356   0.733   1.090   9.984 -0.0961 -0.7014  0.5895
  418MOL0     C56357   0.697   1.032  10.114  0.9260  0.1597  0.2203
  418MOL0     C56358   0.715   1.137  10.218 -0.1066 -0.2278 -0.6040
  418MOL0     C56359   0.735   1.218  10.307 -0.5800  0.4005  0.3721
  418MOL0     C56360   0.576   0.870   9.487 -0.4159 -0.3287 -0.2534
  418MOL0     C56361   0.610   0.758   9.409  1.0780 -0.0457 -0.5420
  418MOL0     C56362   0.503   0.689   9.328  0.0897 -0.3035  1.2053
  418MOL0     H56363   1.067   0.680   9.114 -2.1818  0.7786  3.3808
  418MOL0     H56364   1.172   0.532   8.935 -0.2291 -0.3404 -0.2342
  418MOL0     H56365   1.211   0.060   8.995 -2.0392 -0.3838  0.4175
  418MOL0     H56366   1.069   0.098   8.893 -0.0388 -1.1244 -1.1861
  418MOL0     H56367   1.229   0.162   8.713 -1.8993  2.3122  1.9431
  418MOL0     H56368   1.238  -0.010   8.771  2.7231 -0.9326  0.8297
  418MOL0     H56369   1.433   0.029   8.905  2.5862 -2.2990 -2.3273
  418MOL0     H56370   1.451   0.195   8.830 -0.7513 -0.6043  1.0488
  418MOL0     H56371   1.421  -0.045   8.665 -0.4241 -2.1204  2.8865
  418MOL0     H56372   1.496   0.109   8.620 -0.7611  0.2620  0.9737
  418MOL0     H56373   1.688   0.069   8.778  0.3357 -1.0327 -1.6287
  418MOL0     H56374   1.629  -0.100   8.803  2.3850  1.1218  2.0282
  418MOL0     H56375   1.651  -0.130   8.552 -0.3697  1.3111 -0.7362
  418MOL0     H56376   1.716   0.025   8.542 -4.5053  1.0098 -0.3432
  418MOL0     H56377   1.906  -0.026   8.675 -0.2669  1.6060 -2.4042
  418MOL0     H56378   1.898  -0.150   8.549  3.8561 -0.6189  2.4090
  418MOL0     H56379   1.852  -0.168   8.845 -2.9045 -1.9079  0.3717
  418MOL0     H56380   1.776  -0.293   8.743 -0.9873  0.6642 -1.4935
  418MOL0     H56381   2.004  -0.387   8.541 -0.9364 -2.1748  1.8253
  418MOL0     H56382   2.362  -0.487   8.638  2.6613  0.1390 -2.4086
  418MOL0     H56383   2.251  -0.524   8.503  0.7839 -0.2400  0.4780
  418MOL0     H56384   2.384  -0.402   8.392 -0.7035 -2.3418  2.0842
  418MOL0     H56385   2.284  -0.268   8.445 -1.3850 -0.0669  1.1150
  418MOL0     H56386   2.554  -0.257   8.473  0.4090 -2.4808 -0.7192
  418MOL0     H56387   2.523  -0.349   8.620  0.9556  0.0591  0.4143
  418MOL0     H56388   2.535  -0.105   8.659  0.0614  1.2941 -0.2716
  418MOL0     H56389   2.384  -0.170   8.722  1.3012 -2.3988  0.7011
  418MOL0     H56390   2.315   0.168   8.447  0.5972  0.2319  1.3310
  418MOL0     H56391   2.126   0.324   8.511  0.4249 -0.7944  0.1486
  418MOL0     H56392   1.713   0.273   8.955 -0.3680  0.5479 -0.1299
  418MOL0     H56393   1.512   0.428   8.987  0.1128  1.6253 -1.8725
  418MOL0     H56394   1.600   0.824   9.097 -0.3663 -0.3701 -1.1476
  418MOL0     H56395   1.561   0.889   8.938 -0.1280  1.7554 -0.1423
  418MOL0     H56396   1.419   0.997   9.069  2.5894 -0.7429 -1.5178
  418MOL0     H56397   1.331   0.887   8.972 -0.9000 -1.0044  1.0199
  418MOL0     H56398   1.353   0.730   9.202  2.8337 -0.2533 -1.6960
  418MOL0     H56399   1.438   0.877   9.269  0.3743  0.4509 -0.9370
  418MOL0     H56400   1.179   0.793   9.308 -0.5293 -0.8347 -1.8599
  418MOL0     H56401   1.164   0.904   9.166  1.7674  2.0682  0.3554
  418MOL0     H56402   1.306   1.067   9.296  1.0241  1.3116  0.3628
  418MOL0     H56403   1.250   0.971   9.435 -0.3644 -1.2067 -0.2078
  418MOL0     H56404   1.077   1.124   9.240  0.2281  0.9660  0.2147
  418MOL0     H56405   1.025   0.994   9.358 -3.0936  3.6910  1.5698
  418MOL0     H56406   1.182   1.234   9.432  1.1355 -3.0487 -2.8473
  418MOL0     H56407   1.089   1.143   9.547 -5.4864  3.8043  2.6013
  418MOL0     H56408   0.974   1.322   9.539  0.0605 -1.5678  1.5727
  418MOL0     H56409   0.978   1.343   9.366  0.8862  0.7872  0.1368
  418MOL0     H56410   1.751   0.752   8.843  1.2830  0.1415  2.3324
  418MOL0     H56411   1.929   0.584   8.779  0.4861 -1.3436 -1.2108
  418MOL0     H56412   2.035   0.094   8.856 -0.3071 -0.1472 -0.3634
  418MOL0     H56413   2.226  -0.068   8.773  1.9620  0.7295 -0.0028
  418MOL0     H56414   1.026   0.187   9.173  1.2851  0.0168 -1.6737
  418MOL0     H56415   0.917   0.342   9.314 -3.1253  2.4865 -1.1231
  418MOL0     H56416   0.927   0.725   9.514 -0.8131 -2.3662  1.7271
  418MOL0     H56417   0.874   0.923   9.643  1.2083 -1.0485 -0.6388
  418MOL0     H56418   0.655   1.203   9.746 -0.3023  0.4721  2.5013
  418MOL0     H56419   0.799   1.097   9.736 -0.8073  2.1791 -0.6418
  418MOL0     H56420   0.692   0.919   9.859 -0.3302  0.2267 -0.2137
  418MOL0     H56421   0.546   1.034   9.865 -0.0188 -0.0440 -0.8268
  418MOL0     H56422   0.700   1.195   9.993 -2.0498 -1.3812  2.2727
  418MOL0     H56423   0.841   1.097   9.966 -0.3431  0.5254 -0.6642
  418MOL0     H56424   0.592   1.000  10.125  1.5526 -1.2450  3.2487
  418MOL0     H56425   0.762   0.947  10.132 -0.1442 -0.5323  0.9801
  418MOL0     H56426   0.754   1.274  10.396 -1.5010  0.8266  0.3104
  418MOL0     H56427   0.475   0.908   9.472 -1.4784 -1.7442  2.6592
  418MOL0     H56428   0.418   0.758   9.320  0.2966 -0.2101 -0.4596
  418MOL0     H56429   0.532   0.683   9.223  0.0875  1.5485  1.0733
  418MOL0     H56430   0.465   0.607   9.391 -1.7421  1.9599  3.2678
  419MOL0     O56431   1.802  10.148   2.871 -0.0911  0.3970 -0.8886
  419MOL0     C56432   1.884  10.158   2.969 -0.6755  0.2264  0.0369
  419MOL0     O56433   1.859  10.122   3.103  0.1220  0.6328 -0.2680
  419MOL0     C56434   1.727  10.085   3.120  0.0123 -0.5416  0.2461
  419MOL0     C56435   1.627  10.179   3.105 -0.6721  0.1320 -0.0678
  419MOL0     C56436   1.485  10.146   3.117 -0.3495 -0.6043 -0.0491
  419MOL0     C56437   1.455  10.010   3.149  0.2525 -0.4224 -0.3610
  419MOL0     O56438   1.320   9.985   3.166  0.4861 -0.8744 -0.3145
  419MOL0     C56439   1.271   9.862   3.226  0.2355 -0.1398 -0.6329
  419MOL0     C56440   1.285   9.878   3.383 -0.7446 -0.0305  0.7252
  419MOL0     C56441   1.178   9.969   3.446  0.2068 -0.0717 -0.5538
  419MOL0     C56442   1.198  10.014   3.591 -1.3346  0.1602  1.1886
  419MOL0     C56443   1.092  10.095   3.651  0.4775  0.7706  0.2539
  419MOL0     C56444   1.126  10.112   3.795 -0.0593  0.2941 -0.6804
  419MOL0     C56445   1.030  10.201   3.867  0.1748 -0.5829 -0.5519
  419MOL0     C56446   1.020  10.183   4.024 -0.3122  0.1310 -0.4482
  419MOL0     N56447   1.151  10.223   4.099 -0.2264 -0.9687  1.4767
  419MOL0     C56448   1.195  10.350   4.119 -0.0950 -0.6207 -0.9806
  419MOL0     C56449   1.326  10.334   4.138  0.7523 -0.0347  0.4352
  419MOL0     C56450   1.435  10.440   4.146  0.5844  0.7264  0.4103
  419MOL0     C56451   1.515  10.458   4.021 -0.3654 -0.5122  0.3988
  419MOL0     C56452   1.592  10.341   3.969 -0.0413 -0.3755 -0.7018
  419MOL0     C56453   1.646  10.371   3.825  1.2188 -0.4820  0.9489
  419MOL0     O56454   1.711  10.501   3.810  0.2974 -0.2941 -0.2598
  419MOL0     C56455   1.849  10.515   3.831 -1.1040 -0.8719  0.4393
  419MOL0     C56456   1.936  10.414   3.863  0.1259 -0.0458  0.2852
  419MOL0     C56457   2.067  10.434   3.902  0.3120  0.3689 -0.0769
  419MOL0     C56458   2.112  10.565   3.916 -0.4305 -1.0077  0.1749
  419MOL0     C56459   2.247  10.598   3.960  0.1161  0.0134 -0.0652
  419MOL0     O56460   2.320  10.486   4.007 -0.6478 -0.2229 -0.0187
  419MOL0     C56461   2.446  10.497   4.067 -0.3948 -0.3700  0.2959
  419MOL0     C56462   2.503  10.621   4.110  0.4626  0.6618 -0.5034
  419MOL0     C56463   2.619  10.617   4.187 -0.5753 -0.4448  0.2558
  419MOL0     C56464   2.689  10.498   4.215  0.9696 -0.7034 -0.1029
  419MOL0     O56465   2.790  10.510   4.300 -0.6282  0.1777 -0.3092
  419MOL0     C56466   2.871  10.392   4.329  0.3644 -0.3090  0.2217
  419MOL0     C56467   3.009  10.452   4.369  1.0543 -0.6984  0.2252
  419MOL0     C56468   3.005  10.549   4.486  0.1651  0.5090 -0.1616
  419MOL0     C56469   3.140  10.616   4.502  0.2384  0.0950 -1.2709
  419MOL0     C56470   3.147  10.700   4.644  0.4131 -0.3949  0.3400
  419MOL0     C56471   3.291  10.686   4.689  0.1339 -0.2895  0.1019
  419MOL0     C56472   3.298  10.782   4.812  0.1787 -0.1196 -0.9718
  419MOL0     C56473   3.450  10.815   4.824  0.0019  0.3735  0.8248
  419MOL0    Cl56474   3.545  10.666   4.871  0.3695  0.4067  0.2554
  419MOL0     C56475   2.633  10.373   4.183 -0.5406 -0.7021  0.4631
  419MOL0     C56476   2.521  10.379   4.101  0.5699  0.1780 -0.3729
  419MOL0     O56477   2.285  10.711   3.945 -1.0965  0.2679  0.0227
  419MOL0     C56478   2.030  10.670   3.892  1.4249 -0.9974 -0.4207
  419MOL0     C56479   1.899  10.642   3.854  0.8335 -1.1515 -1.4706
  419MOL0     N56480   1.352  10.194   4.159 -0.2281 -0.4151 -0.5141
  419MOL0     N56481   1.242  10.129   4.128 -0.1893  0.7362 -0.1012
  419MOL0     C56482   1.557   9.911   3.159 -0.0109 -0.1447 -0.0844
  419MOL0     C56483   1.690   9.954   3.140  0.3482 -0.7540  0.7816
  419MOL0     C56484   2.022  10.224   2.934  0.0272 -0.4980 -0.6500
  419MOL0     C56485   2.073  10.199   2.809 -0.3934  0.5122  0.1239
  419MOL0     C56486   2.195  10.264   2.767 -0.4531  0.1091 -0.0536
  419MOL0     C56487   2.269  10.337   2.847 -0.1584  0.3354 -1.7176
  419MOL0     O56488   2.394  10.393   2.817  0.2098  0.4323 -0.0814
  419MOL0     C56489   2.404  10.515   2.748  0.2428 -0.7132  0.0531
  419MOL0     C56490   2.398  10.516   2.597  0.1767 -0.2391 -0.7607
  419MOL0     C56491   2.416  10.658   2.543 -0.2190  0.5989 -0.2093
  419MOL0     C56492   2.415  10.680   2.393 -1.0105 -0.0620 -0.7006
  419MOL0     C56493   2.280  10.659   2.346 -0.1487  0.4423 -0.4305
  419MOL0     C56494   2.175  10.649   2.291  0.5608 -1.0521  0.4911
  419MOL0     C56495   2.233  10.351   2.978 -0.4183  0.0623  0.2821
  419MOL0     C56496   2.113  10.298   3.019  0.2316 -0.4239 -0.4291
  419MOL0     C56497   2.070  10.359   3.148  0.2639 -0.3630  0.0869
  419MOL0     H56498   1.660  10.282   3.094  1.3428 -0.1945  2.0962
  419MOL0     H56499   1.400  10.211   3.099 -2.4721 -3.6456 -1.9479
  419MOL0     H56500   1.166   9.842   3.201  0.3227 -3.3077  0.9478
  419MOL0     H56501   1.334   9.776   3.200  1.3681  0.1056  1.1643
  419MOL0     H56502   1.386   9.909   3.410 -0.1662  1.2896 -2.5079
  419MOL0     H56503   1.269   9.779   3.426 -1.2431 -0.4392 -0.3441
  419MOL0     H56504   1.089   9.909   3.428  0.3487 -0.0025 -1.5332
  419MOL0     H56505   1.165  10.054   3.378  1.4726 -1.4393 -2.6332
  419MOL0     H56506   1.206   9.918   3.644 -3.0846 -1.3453 -1.0719
  419MOL0     H56507   1.290  10.074   3.593 -0.5719 -0.9274  0.3421
  419MOL0     H56508   1.089  10.187   3.592  3.0071  0.1874 -0.9131
  419MOL0     H56509   1.000  10.036   3.647  2.4913 -2.5702 -0.8577
  419MOL0     H56510   1.128  10.008   3.832  1.9748 -0.1738 -1.9842
  419MOL0     H56511   1.225  10.151   3.820 -0.1461  0.3154 -0.3647
  419MOL0     H56512   0.931  10.172   3.830 -0.0424 -2.8679  1.5423
  419MOL0     H56513   1.052  10.306   3.847 -1.3379  0.1765  1.4287
  419MOL0     H56514   0.939  10.246   4.061  0.0841  1.5998 -1.9276
  419MOL0     H56515   0.992  10.079   4.039 -1.8108  0.0199 -3.2326
  419MOL0     H56516   1.137  10.442   4.117  4.2357  2.4895  0.4311
  419MOL0     H56517   1.386  10.537   4.151 -2.3759 -0.4317 -2.4761
  419MOL0     H56518   1.498  10.418   4.232  0.3106 -1.5352  0.1046
  419MOL0     H56519   1.453  10.484   3.935 -0.8988 -0.2693  0.8517
  419MOL0     H56520   1.583  10.543   4.034  1.5655 -1.1148 -3.9199
  419MOL0     H56521   1.520  10.260   3.952 -0.4748 -0.1479  0.0039
  419MOL0     H56522   1.656  10.309   4.051  0.2981  1.9385  0.0064
  419MOL0     H56523   1.552  10.371   3.770 -0.0554  1.7167  2.9131
  419MOL0     H56524   1.701  10.281   3.797 -0.8825 -3.1947  4.6610
  419MOL0     H56525   1.892  10.315   3.858  2.1775 -1.0977  1.3527
  419MOL0     H56526   2.119  10.342   3.924 -5.2846 -3.3849 -0.4731
  419MOL0     H56527   2.466  10.722   4.093  3.6115  1.8041 -1.2504
  419MOL0     H56528   2.670  10.709   4.212 -0.0100 -0.6344 -0.1516
  419MOL0     H56529   2.822  10.330   4.404 -0.2873 -0.4691 -0.3362
  419MOL0     H56530   2.891  10.336   4.237 -1.3233 -0.3983 -0.1124
  419MOL0     H56531   3.065  10.366   4.406  1.9862  0.3265  1.2614
  419MOL0     H56532   3.060  10.495   4.282  1.6532  0.0742  0.9472
  419MOL0     H56533   2.927  10.625   4.481 -0.3523  0.0212  0.2490
  419MOL0     H56534   2.985  10.503   4.584 -1.6300  0.7855 -0.3602
  419MOL0     H56535   3.159  10.699   4.435 -0.7657  2.1576  0.8632
  419MOL0     H56536   3.228  10.551   4.496  0.7338  0.8945 -3.6383
  419MOL0     H56537   3.077  10.681   4.726  0.0109 -0.7032 -0.0644
  419MOL0     H56538   3.142  10.807   4.622  2.2211 -0.2421  0.5379
  419MOL0     H56539   3.315  10.586   4.727  0.9544  1.0532  3.4678
  419MOL0     H56540   3.364  10.716   4.614 -3.2089  0.2992 -3.2271
  419MOL0     H56541   3.271  10.730   4.904  1.6838  1.8197  0.6552
  419MOL0     H56542   3.249  10.878   4.792  3.9926  1.9397 -1.4070
  419MOL0     H56543   3.494  10.864   4.736  1.1825  0.2400  1.3199
  419MOL0     H56544   3.474  10.890   4.900  2.9609 -0.1519  0.5181
  419MOL0     H56545   2.667  10.278   4.222  0.4148  0.7618  3.5393
  419MOL0     H56546   2.476  10.284   4.075 -0.4077 -0.4733  3.1901
  419MOL0     H56547   2.045  10.776   3.904 -1.7045 -0.6350  1.6183
  419MOL0     H56548   1.816  10.711   3.839 -0.4947 -1.9157  1.5526
  419MOL0     H56549   1.542   9.808   3.190  1.4476  0.4950  3.1585
  419MOL0     H56550   1.761   9.879   3.175 -2.4574 -3.9915  0.1041
  419MOL0     H56551   2.029  10.147   2.724 -0.5929  1.9521 -0.6831
  419MOL0     H56552   2.247  10.252   2.673  0.7825 -0.0509  0.6254
  419MOL0     H56553   2.503  10.551   2.776 -0.1087  2.1124 -1.9359
  419MOL0     H56554   2.328  10.589   2.777  0.5736  0.2289 -1.3829
  419MOL0     H56555   2.301  10.478   2.563  0.7832 -3.6063  0.8384
  419MOL0     H56556   2.477  10.455   2.552 -1.3108 -0.8284 -2.7020
  419MOL0     H56557   2.519  10.684   2.572  1.4066 -4.1884 -0.7303
  419MOL0     H56558   2.352  10.733   2.590 -1.7324 -0.0994 -1.0924
  419MOL0     H56559   2.444  10.782   2.365 -4.3376  2.2874  3.2232
  419MOL0     H56560   2.480  10.611   2.339 -1.0505 -0.5743 -0.1038
  419MOL0     H56561   2.089  10.627   2.231  1.4067 -2.2201 -0.3343
  419MOL0     H56562   2.294  10.410   3.046  1.2770 -3.5871  2.2141
  419MOL0     H56563   2.080  10.468   3.149  0.7747 -0.4049  0.1762
  419MOL0     H56564   1.963  10.343   3.156 -0.7377  3.3408 -2.7398
  419MOL0     H56565   2.130  10.320   3.231 -0.2641 -0.8823  0.2284
  420MOL0     O56566   9.708   4.218   9.761 -1.4201  0.6957  0.7338
  420MOL0     C56567   9.602   4.249   9.708 -0.7025  0.4664 -0.7552
  420MOL0     O56568   9.537   4.365   9.722  0.0509  0.5350  0.0672
  420MOL0     C56569   9.581   4.463   9.794 -0.5252 -0.8666 -0.5621
  420MOL0     C56570   9.639   4.579   9.744 -0.5368  1.1379  0.2206
  420MOL0     C56571   9.700   4.666   9.837  0.1099  0.2641  0.6561
  420MOL0     C56572   9.697   4.658   9.979 -0.0401 -0.9199 -0.0145
  420MOL0     O56573   9.740   4.745  10.071  0.1525 -0.1965  0.1114
  420MOL0     C56574   9.763   4.874  10.018 -0.0445 -0.2416  0.1939
  420MOL0     C56575   9.791   4.991  10.119  0.0233 -0.0636  0.1769
  420MOL0     C56576   9.761   5.131  10.055  0.9099  1.3252  0.0656
  420MOL0     C56577   9.867   5.230  10.100 -0.2630  0.3505 -0.0907
  420MOL0     C56578   9.859   5.375  10.050 -0.0754  0.2450  0.4579
  420MOL0     C56579   9.892   5.375   9.904 -0.4566 -0.3209  0.4728
  420MOL0     C56580   9.894   5.516   9.851  0.0966 -0.0002  0.1306
  420MOL0     C56581   9.892   5.497   9.704  0.3502 -0.8641  0.3254
  420MOL0     N56582   9.904   5.621   9.626 -0.2227 -0.1287  0.1631
  420MOL0     C56583   9.923   5.742   9.687 -0.0296 -1.2289  0.8427
  420MOL0     C56584   9.946   5.832   9.593 -0.1164 -0.4516 -0.6633
  420MOL0     C56585   9.949   5.979   9.621 -1.4921 -0.4520 -0.0877
  420MOL0     C56586  10.088   6.037   9.661  0.8813 -0.2533  0.6189
  420MOL0     C56587  10.099   6.180   9.618 -0.7320 -0.1875  0.0836
  420MOL0     C56588  10.020   6.274   9.716 -0.1492  0.0969  0.0078
  420MOL0     O56589   9.894   6.328   9.664  0.3319 -0.7209 -0.0900
  420MOL0     C56590   9.868   6.456   9.702 -0.2121  0.2416 -0.6851
  420MOL0     C56591   9.892   6.499   9.833  0.3305 -0.6428  0.3723
  420MOL0     C56592   9.863   6.634   9.874  0.3450 -0.0511 -0.6143
  420MOL0     C56593   9.811   6.722   9.784 -0.3011 -0.2777 -0.6867
  420MOL0     C56594   9.765   6.854   9.819 -1.2244 -0.6688 -1.0745
  420MOL0     O56595   9.650   6.898   9.773 -0.2039 -0.5283  1.0587
  420MOL0     C56596   9.606   7.025   9.807 -0.4183 -0.6324 -0.4582
  420MOL0     C56597   9.640   7.129   9.723 -0.0469  0.0445 -0.7324
  420MOL0     C56598   9.592   7.265   9.745  0.9169  0.1800  0.7321
  420MOL0     C56599   9.513   7.289   9.864 -0.6126  0.5940 -0.0280
  420MOL0     O56600   9.464   7.416   9.884  0.1839  0.0092  0.4683
  420MOL0     C56601   9.495   7.481  10.016  0.1893  0.0763  0.2515
  420MOL0     C56602   9.640   7.482  10.064 -0.4466 -0.5457  0.1120
  420MOL0     C56603   9.688   7.605  10.148 -0.1053  0.1060  0.5437
  420MOL0     C56604   9.839   7.628  10.140 -0.7955  0.4736  0.4030
  420MOL0     C56605   9.877   7.708  10.262  0.2145 -0.3823 -0.0411
  420MOL0     C56606   9.812   7.848  10.260 -0.7134 -0.1797 -0.1706
  420MOL0     C56607   9.878   7.945  10.355 -0.0009  0.1755  0.1977
  420MOL0     C56608   9.791   8.071  10.378  0.2875  0.5327  0.4200
  420MOL0    Cl56609   9.871   8.181  10.484 -0.4056 -0.0496 -0.1878
  420MOL0     C56610   9.485   7.188   9.955  0.2244  0.7059  0.5634
  420MOL0     C56611   9.526   7.056   9.925 -0.2963  0.0954 -0.3097
  420MOL0     O56612   9.841   6.918   9.897  0.4285  0.9314 -0.3683
  420MOL0     C56613   9.779   6.674   9.653 -0.0772 -0.4882  0.1362
  420MOL0     C56614   9.808   6.540   9.609  0.6512  0.2670  0.5661
  420MOL0     N56615   9.936   5.771   9.471 -0.9923 -0.9419  0.4666
  420MOL0     N56616   9.910   5.640   9.498 -0.2406 -0.5774  0.1057
  420MOL0     C56617   9.639   4.542  10.022 -1.3709 -0.5180 -0.5839
  420MOL0     C56618   9.587   4.445   9.933  0.2071 -0.3367 -0.0596
  420MOL0     C56619   9.537   4.145   9.625  0.0150 -0.6372  0.6595
  420MOL0     C56620   9.401   4.163   9.577 -0.8879 -0.2331 -0.7869
  420MOL0     C56621   9.340   4.070   9.494  0.9914 -0.3402 -1.0734
  420MOL0     C56622   9.396   3.956   9.457 -0.0651  0.2746  0.3194
  420MOL0     O56623   9.324   3.878   9.375  1.1251  0.2309  0.4364
  420MOL0     C56624   9.318   3.739   9.418  0.3321 -0.3790  0.2481
  420MOL0     C56625   9.227   3.732   9.538 -0.9455 -0.1262 -0.7311
  420MOL0     C56626   9.087   3.790   9.509 -0.6303  1.4864 -0.2411
  420MOL0     C56627   9.001   3.671   9.456 -0.0045  0.5286  0.3267
  420MOL0     C56628   8.862   3.717   9.438  0.1215 -1.1228  0.3916
  420MOL0     C56629   8.752   3.760   9.408  1.0466  0.2444 -0.2898
  420MOL0     C56630   9.527   3.938   9.487 -0.4371 -0.4605  0.8701
  420MOL0     C56631   9.598   4.019   9.569 -0.5078 -0.5185 -0.1484
  420MOL0     C56632   9.741   3.992   9.589  1.2045  0.4671 -0.1163
  420MOL0     H56633   9.645   4.598   9.637  0.9677 -3.4902 -0.7532
  420MOL0     H56634   9.758   4.742   9.785  2.8318 -0.5439  2.3418
  420MOL0     H56635   9.846   4.878   9.946 -2.9433 -0.4998 -3.4699
  420MOL0     H56636   9.683   4.903   9.949 -0.3084 -0.2867  0.4817
  420MOL0     H56637   9.896   4.985  10.147  0.0474 -1.7351 -0.1715
  420MOL0     H56638   9.736   4.956  10.208  0.9186 -3.8293 -0.5483
  420MOL0     H56639   9.661   5.163  10.083 -0.5320 -2.9244  0.4564
  420MOL0     H56640   9.761   5.121   9.946 -0.2052  1.8692  0.0113
  420MOL0     H56641   9.861   5.241  10.209 -1.4243 -1.7353  0.1060
  420MOL0     H56642   9.966   5.193  10.073 -1.1915 -1.3423 -1.3976
  420MOL0     H56643   9.764   5.423  10.075 -0.1310  0.8288 -0.7806
  420MOL0     H56644   9.926   5.435  10.112 -0.2921  2.0678 -0.9846
  420MOL0     H56645   9.993   5.337   9.886 -0.2788  0.9416 -1.5213
  420MOL0     H56646   9.827   5.312   9.843 -0.1111 -1.8701  1.6425
  420MOL0     H56647   9.984   5.570   9.880 -1.2196  1.7087  1.2760
  420MOL0     H56648   9.805   5.572   9.882 -0.1881  0.4602 -1.4393
  420MOL0     H56649   9.985   5.440   9.691 -0.7874 -2.8435  0.5005
  420MOL0     H56650   9.805   5.437   9.674 -0.6806 -0.4976  2.3916
  420MOL0     H56651   9.923   5.764   9.793  2.5273  1.3705  0.4193
  420MOL0     H56652   9.930   6.034   9.528  2.1875  4.0516  1.4411
  420MOL0     H56653   9.872   5.999   9.696  0.5123 -1.4412  2.3595
  420MOL0     H56654  10.113   6.023   9.766 -2.3509  0.6152  1.5997
  420MOL0     H56655  10.160   5.978   9.603  3.5635 -1.4755  4.7421
  420MOL0     H56656  10.070   6.194   9.514 -2.4469  0.6700  0.6476
  420MOL0     H56657  10.206   6.206   9.624 -0.3234 -1.8259  0.4317
  420MOL0     H56658  10.078   6.365   9.734 -2.3043  1.5300  0.1368
  420MOL0     H56659   9.996   6.224   9.810 -2.3113 -1.0020 -1.0585
  420MOL0     H56660   9.943   6.433   9.903  1.9934  0.5459  0.3404
  420MOL0     H56661   9.878   6.663   9.977 -0.7076  2.0134 -1.0011
  420MOL0     H56662   9.708   7.107   9.641  1.2579  4.3475 -1.0299
  420MOL0     H56663   9.638   7.342   9.683  0.8937 -1.6615 -1.7172
  420MOL0     H56664   9.466   7.586  10.014  0.1996  0.1215 -3.5816
  420MOL0     H56665   9.448   7.416  10.091  1.2591 -3.0557 -1.6390
  420MOL0     H56666   9.652   7.393  10.126 -2.4414  0.3056  1.8576
  420MOL0     H56667   9.705   7.476   9.976 -2.3343  2.2769 -1.6413
  420MOL0     H56668   9.637   7.697  10.117 -0.4186 -1.0477 -2.8490
  420MOL0     H56669   9.666   7.583  10.253  4.2819  1.5202  1.9739
  420MOL0     H56670   9.882   7.687  10.058  0.7024  1.2748  1.7162
  420MOL0     H56671   9.892   7.532  10.133 -3.0562 -0.7156 -3.1852
  420MOL0     H56672   9.986   7.713  10.259  0.2133 -0.5078 -2.2798
  420MOL0     H56673   9.862   7.660  10.359  3.5104  2.4513  2.0887
  420MOL0     H56674   9.824   7.889  10.160  2.9026  2.6059  1.1778
  420MOL0     H56675   9.709   7.853  10.297 -1.6074  5.2798 -2.5355
  420MOL0     H56676   9.976   7.977  10.316  1.7339 -4.3791  0.1591
  420MOL0     H56677   9.901   7.904  10.454  0.9799  0.2831  0.0308
  420MOL0     H56678   9.761   8.119  10.284  1.2014  1.1542  0.4324
  420MOL0     H56679   9.697   8.036  10.423  0.9381 -2.6355 -0.4752
  420MOL0     H56680   9.433   7.215  10.046 -2.7623 -0.0090 -0.8160
  420MOL0     H56681   9.513   6.981  10.002  4.8258 -0.2646  0.5779
  420MOL0     H56682   9.734   6.741   9.581  1.8013  2.4823  1.5223
  420MOL0     H56683   9.800   6.503   9.508  1.0636  0.2767  0.5281
  420MOL0     H56684   9.659   4.517  10.126  0.1036  3.1870  0.1662
  420MOL0     H56685   9.526   4.362   9.966 -3.6291  2.4061  0.4524
  420MOL0     H56686   9.339   4.251   9.593 -0.0171  0.1460  0.6486
  420MOL0     H56687   9.239   4.087   9.457  0.7523 -2.0617 -1.3085
  420MOL0     H56688   9.418   3.699   9.437  1.6567  1.1489 -2.8184
  420MOL0     H56689   9.273   3.686   9.334 -0.5784 -0.4898  0.7975
  420MOL0     H56690   9.275   3.772   9.627 -1.0086 -0.6710 -0.4482
  420MOL0     H56691   9.214   3.627   9.565 -1.1478  0.1481  0.2502
  420MOL0     H56692   9.082   3.873   9.437  0.0998  4.3972  2.7946
  420MOL0     H56693   9.032   3.832   9.594 -3.6049  0.4596 -1.5258
  420MOL0     H56694   9.047   3.645   9.360  0.6863  0.9374  0.5416
  420MOL0     H56695   9.002   3.589   9.529  0.9754 -0.7198 -1.0181
  420MOL0     H56696   8.649   3.773   9.383  1.0657  1.8061  0.3217
  420MOL0     H56697   9.575   3.863   9.426  0.0052  2.7131 -3.1711
  420MOL0     H56698   9.774   3.972   9.692 -1.0760 -1.4813  0.3378
  420MOL0     H56699   9.778   3.911   9.525 -0.8250 -2.3583  2.0032
  420MOL0     H56700   9.801   4.079   9.563 -0.1260  1.4891  0.1676
  421MOL0     O56701   9.138   7.128   5.145  0.0607 -0.2193 -0.4044
  421MOL0     C56702   9.255   7.159   5.150 -0.3620  0.3935 -0.5057
  421MOL0     O56703   9.356   7.102   5.077  0.5968  0.1227  0.1251
  421MOL0     C56704   9.328   7.006   4.983  0.1141  0.5584 -0.2639
  421MOL0     C56705   9.433   6.927   4.952 -0.4779 -0.2032  0.6588
  421MOL0     C56706   9.435   6.823   4.859 -0.6662  0.3040 -0.6794
  421MOL0     C56707   9.322   6.809   4.780 -0.5209  0.1078 -0.0645
  421MOL0     O56708   9.315   6.709   4.682 -1.3596  0.7533 -0.1076
  421MOL0     C56709   9.227   6.712   4.570  0.9175  0.8555 -0.3886
  421MOL0     C56710   9.316   6.728   4.455  0.3350  0.0547  0.3678
  421MOL0     C56711   9.407   6.614   4.430  0.5447  0.1380 -0.2442
  421MOL0     C56712   9.496   6.626   4.309 -0.3447 -0.4012  0.9362
  421MOL0     C56713   9.610   6.523   4.297  0.3220 -0.3377 -0.1878
  421MOL0     C56714   9.729   6.578   4.215 -0.0427  0.1848 -0.0155
  421MOL0     C56715   9.856   6.522   4.279 -0.7834  0.4826 -0.0647
  421MOL0     C56716   9.893   6.583   4.412  0.0581  0.1391  1.0636
  421MOL0     N56717   9.884   6.724   4.432  0.5769 -0.4653 -0.7853
  421MOL0     C56718   9.771   6.795   4.459  0.7763  0.2589  0.4366
  421MOL0     C56719   9.805   6.929   4.454 -0.1416 -0.4746  0.2481
  421MOL0     C56720   9.717   7.044   4.495  1.4679  0.0306  0.0104
  421MOL0     C56721   9.778   7.142   4.589 -0.5693 -0.1724  0.0819
  421MOL0     C56722   9.772   7.088   4.728 -0.6032 -0.0482  0.1937
  421MOL0     C56723   9.801   7.188   4.837  0.1466  1.4734 -0.0853
  421MOL0     O56724   9.677   7.246   4.886 -0.7996  0.6547  0.7127
  421MOL0     C56725   9.680   7.321   4.998 -0.6165  0.0586 -0.2435
  421MOL0     C56726   9.790   7.362   5.078  0.1700  0.0264 -0.3941
  421MOL0     C56727   9.766   7.466   5.175 -0.0863  0.0668 -0.0169
  421MOL0     C56728   9.635   7.525   5.192 -0.3993 -0.1229  0.8787
  421MOL0     C56729   9.624   7.632   5.291  0.4301 -0.2415  0.3080
  421MOL0     O56730   9.505   7.704   5.295  0.0347  0.4907  0.2161
  421MOL0     C56731   9.497   7.808   5.380  0.0336 -0.5837  0.1945
  421MOL0     C56732   9.384   7.804   5.468  0.3105  0.3789 -0.4461
  421MOL0     C56733   9.378   7.888   5.577 -0.3679 -0.0428 -0.6803
  421MOL0     C56734   9.466   7.994   5.594 -0.0205 -0.2692 -0.2164
  421MOL0     O56735   9.464   8.061   5.715  0.4856  0.0129  0.0836
  421MOL0     C56736   9.496   8.202   5.722 -0.0369  0.0036 -0.0730
  421MOL0     C56737   9.566   8.234   5.843 -0.3829 -1.0007  0.3724
  421MOL0     C56738   9.475   8.267   5.972 -1.2018 -0.0463 -0.0930
  421MOL0     C56739   9.558   8.347   6.079  0.1518 -0.3164 -0.1394
  421MOL0     C56740   9.466   8.376   6.196 -0.3593 -0.0681  0.7772
  421MOL0     C56741   9.548   8.449   6.305 -0.2445 -0.0930  0.3268
  421MOL0     C56742   9.452   8.500   6.411 -0.8436 -0.3091  0.3337
  421MOL0     C56743   9.516   8.532   6.546 -0.2115  0.0920 -0.0480
  421MOL0    Cl56744   9.604   8.389   6.613  0.7368 -0.5902 -0.1025
  421MOL0     C56745   9.575   7.999   5.506  0.1159  1.0217 -0.0973
  421MOL0     C56746   9.589   7.911   5.396 -0.7982 -0.1232  0.2757
  421MOL0     O56747   9.727   7.658   5.353 -0.1890  0.2142  0.1091
  421MOL0     C56748   9.534   7.473   5.121 -0.3717  0.6023  0.3005
  421MOL0     C56749   9.561   7.387   5.021 -0.8689  0.6371 -0.4453
  421MOL0     N56750   9.933   6.936   4.416 -0.2201 -0.5477  0.0383
  421MOL0     N56751   9.974   6.817   4.389 -0.2621  0.1026 -0.6101
  421MOL0     C56752   9.209   6.888   4.805  0.2302  0.0342  0.3481
  421MOL0     C56753   9.208   6.992   4.902  0.0104 -0.4082 -0.3193
  421MOL0     C56754   9.308   7.242   5.265 -0.0328 -0.1335 -0.8113
  421MOL0     C56755   9.441   7.239   5.301 -1.0297 -0.4394 -0.1869
  421MOL0     C56756   9.499   7.309   5.409  0.1473 -0.6161  0.2178
  421MOL0     C56757   9.425   7.413   5.470 -0.7704  0.1866 -0.0261
  421MOL0     O56758   9.465   7.511   5.560  0.4042 -0.2369  0.0308
  421MOL0     C56759   9.588   7.497   5.635  0.0577  0.7890 -0.4689
  421MOL0     C56760   9.630   7.610   5.723  0.4204 -1.0268  0.6650
  421MOL0     C56761   9.781   7.619   5.752 -0.5124  0.9428 -0.7190
  421MOL0     C56762   9.877   7.668   5.641 -1.2192 -0.7903 -0.6145
  421MOL0     C56763  10.019   7.649   5.694  1.0523 -0.0943  0.1937
  421MOL0     C56764  10.126   7.611   5.738  0.6485 -0.4965  0.7765
  421MOL0     C56765   9.287   7.413   5.428 -1.0662  0.1200 -0.2262
  421MOL0     C56766   9.221   7.331   5.335 -0.8442  0.2477 -1.1392
  421MOL0     C56767   9.068   7.323   5.322 -0.4624  0.9524  0.2578
  421MOL0     H56768   9.516   6.934   5.022 -1.9243 -0.9319  2.5068
  421MOL0     H56769   9.524   6.765   4.838  0.0729  0.9256  0.5971
  421MOL0     H56770   9.186   6.611   4.568  2.8709 -0.1071  2.1212
  421MOL0     H56771   9.147   6.786   4.561  0.4066  0.0882 -3.1466
  421MOL0     H56772   9.381   6.816   4.453  0.0720  0.2603  0.7758
  421MOL0     H56773   9.248   6.741   4.370 -0.0015 -4.6319 -0.3583
  421MOL0     H56774   9.343   6.525   4.428  1.2383 -0.4452  1.4078
  421MOL0     H56775   9.478   6.598   4.512  0.8676 -0.9751 -0.7216
  421MOL0     H56776   9.432   6.630   4.221 -1.1245  0.1077  1.5182
  421MOL0     H56777   9.540   6.724   4.328 -0.9438 -0.0798  0.6969
  421MOL0     H56778   9.636   6.491   4.398 -3.0574  0.4218  1.0389
  421MOL0     H56779   9.563   6.436   4.251  1.4274 -2.7460  2.8910
  421MOL0     H56780   9.726   6.545   4.111  3.6353 -1.1797  0.1773
  421MOL0     H56781   9.736   6.687   4.222 -0.2034  0.0819  3.9769
  421MOL0     H56782   9.941   6.524   4.209  1.1281 -3.9571  1.6946
  421MOL0     H56783   9.843   6.413   4.284 -1.1118  0.3255 -2.6795
  421MOL0     H56784   9.840   6.527   4.489  2.0909 -0.1986  2.2859
  421MOL0     H56785   9.996   6.551   4.428  0.0246  0.2839  1.5871
  421MOL0     H56786   9.672   6.756   4.483  0.5319 -0.7314 -1.9660
  421MOL0     H56787   9.693   7.098   4.403  3.7186 -0.8830 -1.1942
  421MOL0     H56788   9.619   7.001   4.517  1.4708 -0.1628 -0.3459
  421MOL0     H56789   9.876   7.175   4.555 -0.0130 -3.4022 -1.8530
  421MOL0     H56790   9.712   7.229   4.578 -0.3892 -0.0784 -0.2943
  421MOL0     H56791   9.835   7.000   4.742 -0.5452 -0.0800 -0.2454
  421MOL0     H56792   9.671   7.053   4.753  0.4973 -2.7844  1.2099
  421MOL0     H56793   9.876   7.264   4.813  1.3146  0.3571 -0.1377
  421MOL0     H56794   9.840   7.140   4.927 -2.0527  3.2449  1.9220
  421MOL0     H56795   9.891   7.328   5.057  0.8817  2.1237 -0.5774
  421MOL0     H56796   9.858   7.498   5.222 -0.8084  3.2538 -0.5633
  421MOL0     H56797   9.315   7.721   5.460 -0.7752  1.3313 -1.3458
  421MOL0     H56798   9.314   7.888   5.665  5.0788  1.8571  3.8876
  421MOL0     H56799   9.554   8.215   5.631 -1.6877  0.3602 -1.1241
  421MOL0     H56800   9.407   8.266   5.723 -0.8022 -1.0188  0.1066
  421MOL0     H56801   9.641   8.157   5.865  0.5193 -0.3334 -0.2794
  421MOL0     H56802   9.637   8.313   5.819 -1.0606  0.4997  2.8568
  421MOL0     H56803   9.375   8.303   5.947 -2.1209 -2.2639  0.1202
  421MOL0     H56804   9.445   8.172   6.018 -2.6029  0.7458  0.6865
  421MOL0     H56805   9.599   8.442   6.041  1.4264  0.4774  2.8867
  421MOL0     H56806   9.647   8.297   6.120  3.1720  2.9671 -2.0283
  421MOL0     H56807   9.416   8.282   6.222 -0.5919 -0.4191 -0.8329
  421MOL0     H56808   9.393   8.454   6.171 -2.1417 -1.6178  0.8881
  421MOL0     H56809   9.624   8.388   6.353  1.2699  3.0065  2.1998
  421MOL0     H56810   9.595   8.533   6.253  1.3144 -0.1657  1.5542
  421MOL0     H56811   9.376   8.425   6.433 -2.3488  1.5171  1.7038
  421MOL0     H56812   9.398   8.587   6.374  2.0534  1.1656 -0.7844
  421MOL0     H56813   9.595   8.605   6.523  0.4721 -0.2566  1.1589
  421MOL0     H56814   9.434   8.558   6.614 -0.7011 -0.5447 -0.3864
  421MOL0     H56815   9.657   8.065   5.534  1.1817  0.4341 -1.6948
  421MOL0     H56816   9.677   7.927   5.335 -0.8397  1.6905  0.6282
  421MOL0     H56817   9.432   7.508   5.126  0.3941  2.8536  1.5071
  421MOL0     H56818   9.485   7.356   4.950 -0.3003 -2.7084  0.2421
  421MOL0     H56819   9.114   6.884   4.754 -1.9667 -0.0588  4.0836
  421MOL0     H56820   9.126   7.060   4.921 -0.3700 -0.6326 -1.1372
  421MOL0     H56821   9.512   7.174   5.251 -1.6870  1.0302 -3.3191
  421MOL0     H56822   9.607   7.304   5.418  0.2381  1.4508  0.8178
  421MOL0     H56823   9.677   7.473   5.575  2.3827 -2.5977  3.6989
  421MOL0     H56824   9.566   7.411   5.699 -2.3905 -1.6811 -4.1945
  421MOL0     H56825   9.576   7.597   5.817 -1.3186 -2.9108 -0.4995
  421MOL0     H56826   9.611   7.703   5.668  1.8026 -1.9825 -1.6100
  421MOL0     H56827   9.798   7.514   5.777 -2.8261 -0.1570 -3.1841
  421MOL0     H56828   9.791   7.673   5.846 -0.0516  1.6669 -1.1675
  421MOL0     H56829   9.872   7.605   5.552  0.5873 -0.3388 -1.0936
  421MOL0     H56830   9.856   7.772   5.612  0.7499  0.5781  2.3662
  421MOL0     H56831  10.215   7.587   5.793  1.2257  0.9521  0.5112
  421MOL0     H56832   9.226   7.488   5.477 -0.5148  3.2190 -3.8087
  421MOL0     H56833   9.032   7.414   5.371 -1.9961  0.7105 -0.3628
  421MOL0     H56834   9.034   7.346   5.220 -2.0439 -0.9268  0.2964
  421MOL0     H56835   9.022   7.235   5.368  1.1812  1.6743  3.5489
  422MOL0     O56836   0.040   8.435  10.860 -0.0991 -0.7339  0.1497
  422MOL0     C56837   0.071   8.501  10.763  0.2094 -0.5504  0.7068
  422MOL0     O56838  -0.017   8.540  10.667  0.1958  0.6665 -0.2151
  422MOL0     C56839  -0.153   8.549  10.691  0.2099  0.3689 -0.0688
  422MOL0     C56840  -0.242   8.504  10.597  0.9929  0.1214  0.2057
  422MOL0     C56841  -0.384   8.501  10.613  0.2625 -0.7463  0.3161
  422MOL0     C56842  -0.441   8.546  10.737  0.7483  0.6923 -0.2091
  422MOL0     O56843  -0.576   8.537  10.759 -0.0477 -1.0996 -0.0908
  422MOL0     C56844  -0.659   8.490  10.650 -0.5505 -0.0459  0.5928
  422MOL0     C56845  -0.810   8.449  10.685 -0.8373 -0.5029  0.4764
  422MOL0     C56846  -0.892   8.576  10.715 -0.1730  0.5358 -0.1518
  422MOL0     C56847  -0.906   8.686  10.603 -0.2108  0.0300  0.3941
  422MOL0     C56848  -0.984   8.807  10.650 -0.5806 -0.8539 -0.1007
  422MOL0     C56849  -1.011   8.905  10.533 -0.6649 -0.1569 -0.0726
  422MOL0     C56850  -1.104   9.021  10.579  0.0072 -0.0390 -0.2545
  422MOL0     C56851  -1.028   9.149  10.648  0.0274  0.6142  0.2688
  422MOL0     N56852  -1.117   9.265  10.663  0.2803 -0.7075  0.8229
  422MOL0     C56853  -1.075   9.399  10.649 -0.0174 -0.2176 -0.7674
  422MOL0     C56854  -1.183   9.473  10.698  0.0145 -1.4606  0.1005
  422MOL0     C56855  -1.195   9.621  10.676 -1.1413  0.1668  0.1436
  422MOL0     C56856  -1.191   9.666  10.528  0.4717  0.4005  0.7795
  422MOL0     C56857  -1.315   9.614  10.450 -0.0195  1.2431 -0.1423
  422MOL0     C56858  -1.314   9.616  10.298 -0.2295  0.6386 -0.2673
  422MOL0     O56859  -1.402   9.514  10.247  0.2194 -1.0473 -0.2192
  422MOL0     C56860  -1.532   9.518  10.280  0.3179 -0.9499  0.3810
  422MOL0     C56861  -1.612   9.622  10.317 -0.3369 -0.2638  0.1349
  422MOL0     C56862  -1.745   9.602  10.353  0.8741 -0.1776 -0.0693
  422MOL0     C56863  -1.799   9.474  10.365 -0.0856  0.4861  0.8087
  422MOL0     C56864  -1.941   9.462  10.401 -0.2678  1.4829  0.1022
  422MOL0     O56865  -2.004   9.350  10.361 -0.7385 -0.2029  0.2122
  422MOL0     C56866  -2.141   9.334  10.376 -0.4895  0.2356  1.0546
  422MOL0     C56867  -2.202   9.245  10.286  0.6305 -0.1584 -0.6516
  422MOL0     C56868  -2.325   9.180  10.302 -0.2558  0.3605  0.1531
  422MOL0     C56869  -2.409   9.249  10.394 -0.5792  0.2107 -0.9473
  422MOL0     O56870  -2.536   9.215  10.411 -0.2373  0.8355 -0.0302
  422MOL0     C56871  -2.558   9.076  10.435 -0.2805 -0.2813  0.0470
  422MOL0     C56872  -2.691   9.038  10.500 -0.3061 -0.1738  0.2976
  422MOL0     C56873  -2.682   8.921  10.604  0.1805 -0.8088 -0.5989
  422MOL0     C56874  -2.837   8.883  10.641  0.3062 -0.6795 -1.0574
  422MOL0     C56875  -2.896   8.770  10.563  0.0318  0.2910 -0.1241
  422MOL0     C56876  -3.042   8.749  10.593  0.5321  0.1428 -1.3991
  422MOL0     C56877  -3.122   8.874  10.554  0.0880  1.0470  0.2404
  422MOL0     C56878  -3.192   8.932  10.671 -0.2514  0.3540  0.3315
  422MOL0    Cl56879  -3.096   8.941  10.818  0.0870 -0.1874 -0.0112
  422MOL0     C56880  -2.359   9.342  10.481  0.8521 -0.2260 -0.7200
  422MOL0     C56881  -2.221   9.379  10.473 -0.6291 -1.3496 -0.1832
  422MOL0     O56882  -1.992   9.556  10.463 -0.5578  0.1263 -0.1198
  422MOL0     C56883  -1.716   9.365  10.332 -0.2506 -0.3921  0.8445
  422MOL0     C56884  -1.583   9.385  10.273 -0.3270  0.3157 -0.6396
  422MOL0     N56885  -1.280   9.391  10.741 -0.9517 -0.0603 -0.8476
  422MOL0     N56886  -1.238   9.271  10.733 -0.1253  0.2647  0.0770
  422MOL0     C56887  -0.350   8.601  10.829  0.3596  0.0720  0.1031
  422MOL0     C56888  -0.211   8.613  10.805 -0.4965  0.8963  0.6809
  422MOL0     C56889   0.208   8.568  10.769 -0.9720 -0.1011  0.4465
  422MOL0     C56890   0.241   8.641  10.656 -0.4009 -0.0810 -0.7043
  422MOL0     C56891   0.366   8.721  10.651 -0.0571  0.0842 -0.6003
  422MOL0     C56892   0.433   8.727  10.770  0.2041 -0.2056  0.0969
  422MOL0     O56893   0.539   8.812  10.777 -0.0396  0.0614  0.3141
  422MOL0     C56894   0.504   8.946  10.810  0.6624  0.0430  0.1210
  422MOL0     C56895   0.622   9.032  10.824  0.1199  0.2881  0.1562
  422MOL0     C56896   0.682   9.064  10.683 -0.3376  1.0326 -0.4237
  422MOL0     C56897   0.659   9.207  10.633  0.3390  0.3984  0.0214
  422MOL0     C56898   0.527   9.262  10.660  1.3442 -0.8217  0.5087
  422MOL0     C56899   0.417   9.314  10.692 -0.7598 -0.0205 -0.1949
  422MOL0     C56900   0.416   8.631  10.869 -0.2964 -0.6755 -0.4183
  422MOL0     C56901   0.309   8.538  10.866 -0.1588  0.4217 -0.2055
  422MOL0     C56902   0.301   8.434  10.981 -0.2927 -0.1499  0.0947
  422MOL0     H56903  -0.212   8.457  10.504  1.5660  0.3397  0.2762
  422MOL0     H56904  -0.436   8.450  10.533  0.0845 -0.0079 -0.0406
  422MOL0     H56905  -0.675   8.573  10.580 -4.8263  1.1713  2.6477
  422MOL0     H56906  -0.603   8.406  10.607  2.2637  1.3187  1.3780
  422MOL0     H56907  -0.813   8.377  10.767  1.3227 -0.0370  1.0389
  422MOL0     H56908  -0.846   8.406  10.591 -0.0451  2.2962 -1.2582
  422MOL0     H56909  -0.835   8.620  10.798  3.1001  0.3293 -2.1008
  422MOL0     H56910  -0.990   8.544  10.750 -1.4338  2.3941 -1.7978
  422MOL0     H56911  -0.801   8.711  10.583 -0.6267  0.0511 -2.0475
  422MOL0     H56912  -0.942   8.643  10.509  1.7122 -1.5661  0.3050
  422MOL0     H56913  -1.076   8.778  10.703 -1.7037  2.2241 -0.1723
  422MOL0     H56914  -0.922   8.862  10.721  0.1662 -0.0818 -1.3305
  422MOL0     H56915  -0.916   8.943  10.495  0.4065 -3.0977 -0.6095
  422MOL0     H56916  -1.058   8.852  10.449  1.3202 -3.5185  0.7776
  422MOL0     H56917  -1.186   8.994  10.646  1.2459 -0.3571  1.1789
  422MOL0     H56918  -1.157   9.058  10.490 -1.9082 -3.3630 -0.6979
  422MOL0     H56919  -0.991   9.108  10.742  0.3640  0.5534  0.1112
  422MOL0     H56920  -0.943   9.178  10.585  0.4761  2.1508  1.5153
  422MOL0     H56921  -0.995   9.449  10.595 -0.8446  3.0110  0.7747
  422MOL0     H56922  -1.278   9.655  10.738 -0.8380 -0.0725  0.6850
  422MOL0     H56923  -1.109   9.670  10.722 -1.3122  0.4726  0.1440
  422MOL0     H56924  -1.186   9.775  10.531  3.3229  0.3669 -0.0590
  422MOL0     H56925  -1.098   9.648  10.474  1.0530  2.5537  0.9720
  422MOL0     H56926  -1.397   9.675  10.490  0.3744  3.2350 -2.1337
  422MOL0     H56927  -1.324   9.508  10.475  1.1392  1.2423  0.3064
  422MOL0     H56928  -1.215   9.602  10.254  0.6046 -0.1545  1.7867
  422MOL0     H56929  -1.344   9.718  10.273 -1.7594  0.5854  1.2017
  422MOL0     H56930  -1.579   9.724  10.334 -1.6145 -0.0860  1.8738
  422MOL0     H56931  -1.812   9.684  10.376  1.0383 -1.1360  4.9045
  422MOL0     H56932  -2.131   9.197  10.220  0.6698 -2.5137  1.0076
  422MOL0     H56933  -2.346   9.082  10.262  0.4846 -0.6378  2.0604
  422MOL0     H56934  -2.544   9.025  10.339 -1.8896  1.4652 -1.1834
  422MOL0     H56935  -2.484   9.026  10.498 -0.7696 -0.9466  0.0982
  422MOL0     H56936  -2.729   9.130  10.545 -2.9720  0.3680 -2.7005
  422MOL0     H56937  -2.737   9.011  10.405  3.3550  0.1837 -1.7179
  422MOL0     H56938  -2.630   8.831  10.569 -2.4664 -1.8748 -2.0927
  422MOL0     H56939  -2.638   8.953  10.699  0.1601 -1.6376 -0.2999
  422MOL0     H56940  -2.900   8.973  10.647 -1.4132 -1.8983 -0.0254
  422MOL0     H56941  -2.841   8.845  10.744 -1.6109  4.4662  1.1337
  422MOL0     H56942  -2.837   8.678  10.571 -2.3029 -1.4127 -1.2937
  422MOL0     H56943  -2.891   8.784  10.455  1.1844 -2.2624 -0.4908
  422MOL0     H56944  -3.073   8.667  10.527  0.7121  0.9010 -2.4639
  422MOL0     H56945  -3.068   8.721  10.695  0.6736  1.1291 -1.0841
  422MOL0     H56946  -3.182   8.843  10.469 -0.6069 -1.6794  1.5976
  422MOL0     H56947  -3.058   8.948  10.504  1.2777  0.0479  0.2423
  422MOL0     H56948  -3.235   9.027  10.639  1.8015  0.9477 -0.9116
  422MOL0     H56949  -3.280   8.869  10.685 -0.1935 -0.3837 -2.0377
  422MOL0     H56950  -2.417   9.379  10.565  2.1790 -0.2280  0.2451
  422MOL0     H56951  -2.183   9.451  10.544 -0.1842 -0.3018 -1.4321
  422MOL0     H56952  -1.747   9.262  10.332 -1.1826 -0.1667 -1.5581
  422MOL0     H56953  -1.516   9.301  10.253  0.0468  0.0559  1.5098
  422MOL0     H56954  -0.394   8.663  10.906  3.3956  5.1242 -1.6607
  422MOL0     H56955  -0.138   8.660  10.869  0.3084  0.6451 -0.0422
  422MOL0     H56956   0.181   8.630  10.566 -0.5298 -1.0565 -0.5132
  422MOL0     H56957   0.389   8.784  10.566 -0.9234  1.2965  0.0310
  422MOL0     H56958   0.450   8.947  10.905 -0.4130  1.1721 -0.4723
  422MOL0     H56959   0.443   8.982  10.727  2.8872  1.7594 -0.8676
  422MOL0     H56960   0.700   8.978  10.879  1.1144 -0.9298 -2.3188
  422MOL0     H56961   0.579   9.119  10.875  0.9439  0.6106  0.3215
  422MOL0     H56962   0.644   8.987  10.616  0.0831  0.7950 -0.3911
  422MOL0     H56963   0.789   9.040  10.686 -1.0168 -2.4629 -0.5803
  422MOL0     H56964   0.735   9.264  10.687 -0.6745 -1.5989  3.9034
  422MOL0     H56965   0.679   9.211  10.525  3.0977 -1.8975  0.3302
  422MOL0     H56966   0.328   9.365  10.720  0.1941  1.2514  0.6448
  422MOL0     H56967   0.492   8.638  10.946 -1.3884  2.5561  0.5497
  422MOL0     H56968   0.232   8.471  11.057 -1.0754  1.2124 -1.2457
  422MOL0     H56969   0.261   8.336  10.953  1.8456 -0.8804 -0.6156
  422MOL0     H56970   0.396   8.419  11.034 -0.4327  0.7646  0.6210
  423MOL0     O56971   6.972  11.238   2.225 -0.3437 -0.1212 -0.6502
  423MOL0     C56972   6.989  11.230   2.347  0.0992 -1.1107  1.6865
  423MOL0     O56973   6.948  11.315   2.436  0.1064 -0.7987  0.1693
  423MOL0     C56974   6.850  11.416   2.410  0.1008 -0.1720 -1.0860
  423MOL0     C56975   6.864  11.529   2.492  0.3603  0.7597 -0.3122
  423MOL0     C56976   6.781  11.639   2.470  0.3852 -0.6306 -0.3172
  423MOL0     C56977   6.679  11.638   2.373  0.1918  0.5981  0.0060
  423MOL0     O56978   6.605  11.762   2.379  0.3477  0.5912 -0.2382
  423MOL0     C56979   6.496  11.793   2.281 -0.5881 -0.0351 -0.9797
  423MOL0     C56980   6.441  11.924   2.329 -0.3125 -1.3608 -0.4049
  423MOL0     C56981   6.363  11.903   2.467 -0.4039 -0.7746  0.8548
  423MOL0     C56982   6.215  11.917   2.434  0.0933 -0.1626 -0.1285
  423MOL0     C56983   6.125  11.921   2.561 -0.1170  0.2117  0.6733
  423MOL0     C56984   5.981  11.976   2.507 -0.4336  0.5953 -0.6749
  423MOL0     C56985   5.847  11.916   2.568 -0.3265  0.2017  0.5268
  423MOL0     C56986   5.747  11.884   2.461 -0.0264 -0.2316  0.5665
  423MOL0     N56987   5.623  11.833   2.512 -0.1908  0.7260 -0.0128
  423MOL0     C56988   5.561  11.876   2.624  0.5378  0.4852 -0.3830
  423MOL0     C56989   5.468  11.786   2.664 -1.4020 -0.1323  0.6033
  423MOL0     C56990   5.394  11.777   2.793 -0.0224 -0.0552  0.0163
  423MOL0     C56991   5.271  11.875   2.799 -0.5026  0.1402  0.1840
  423MOL0     C56992   5.153  11.815   2.710 -0.4438  0.8945  0.5305
  423MOL0     C56993   5.015  11.880   2.730 -0.9773  0.2558 -0.3473
  423MOL0     O56994   4.969  11.862   2.863 -0.1699 -0.1703  0.3971
  423MOL0     C56995   4.832  11.881   2.887 -0.6879 -0.7985 -0.2815
  423MOL0     C56996   4.794  11.856   3.020 -0.6287  0.7197  0.0526
  423MOL0     C56997   4.658  11.877   3.057  0.2503  0.3207 -0.0768
  423MOL0     C56998   4.560  11.925   2.966 -0.1224  0.2109 -0.4257
  423MOL0     C56999   4.427  11.968   3.006  0.1088 -0.1779  0.1546
  423MOL0     O57000   4.395  11.922   3.127  0.1469  0.0956 -0.1377
  423MOL0     C57001   4.279  11.945   3.214 -0.3565  0.3700  0.4422
  423MOL0     C57002   4.306  11.923   3.347  0.2698  0.4759 -0.4493
  423MOL0     C57003   4.206  11.961   3.446  0.2696 -1.0971  0.1700
  423MOL0     C57004   4.082  12.008   3.399  0.4142  1.0307  0.2315
  423MOL0     O57005   3.987  12.047   3.492 -0.4443 -0.0577  0.5757
  423MOL0     C57006   4.026  12.143   3.591  0.1851  0.0295 -0.4735
  423MOL0     C57007   3.907  12.243   3.604  0.2492  0.8811 -0.3488
  423MOL0     C57008   3.946  12.372   3.672 -0.1216 -0.0364  0.4429
  423MOL0     C57009   3.999  12.343   3.813  0.4135 -0.2918 -0.3218
  423MOL0     C57010   3.990  12.453   3.920  0.0238 -0.1293  0.1126
  423MOL0     C57011   4.067  12.572   3.873  0.5783  1.1267  0.1468
  423MOL0     C57012   4.062  12.687   3.973  0.4489  0.0445 -0.3547
  423MOL0     C57013   3.950  12.789   3.961  0.2157  0.3434 -0.1323
  423MOL0    Cl57014   3.793  12.710   3.959  0.0877 -0.0832 -0.0905
  423MOL0     C57015   4.059  12.021   3.264 -0.4565  0.4330  0.7151
  423MOL0     C57016   4.160  11.997   3.171 -0.0790 -0.0633 -0.1056
  423MOL0     O57017   4.354  12.027   2.936 -0.4708 -0.0664  1.1215
  423MOL0     C57018   4.610  11.959   2.834  0.6680  0.6864 -0.0070
  423MOL0     C57019   4.740  11.940   2.804 -0.8091  0.2570 -0.5563
  423MOL0     N57020   5.485  11.683   2.573 -0.1145 -0.0084  0.9834
  423MOL0     N57021   5.576  11.704   2.487 -0.0224 -1.0321 -0.1432
  423MOL0     C57022   6.652  11.515   2.298 -0.4291 -0.2311 -0.3052
  423MOL0     C57023   6.736  11.411   2.321  0.3161 -0.5940  1.3132
  423MOL0     C57024   7.064  11.116   2.403  0.4453  0.5531  0.1349
  423MOL0     C57025   7.103  11.119   2.542  0.2590 -0.1836  1.0108
  423MOL0     C57026   7.179  11.023   2.609 -0.5670 -0.0059 -0.2004
  423MOL0     C57027   7.217  10.905   2.532  0.4242  0.0400  0.4757
  423MOL0     O57028   7.283  10.794   2.573 -0.6307  0.1120  0.0779
  423MOL0     C57029   7.344  10.810   2.704  0.1264  0.1644  0.9956
  423MOL0     C57030   7.445  10.692   2.729  0.4019 -0.3274  0.1828
  423MOL0     C57031   7.380  10.547   2.734 -1.1609 -0.1900 -0.2891
  423MOL0     C57032   7.433  10.452   2.623  0.0968  0.4105 -0.5003
  423MOL0     C57033   7.361  10.323   2.627  0.4204 -0.3359 -0.0391
  423MOL0     C57034   7.305  10.213   2.639 -1.1437 -0.8153 -0.3085
  423MOL0     C57035   7.174  10.904   2.399 -0.0345  0.1223  0.3033
  423MOL0     C57036   7.092  11.000   2.331 -0.6146 -0.3827  0.0174
  423MOL0     C57037   7.052  10.965   2.183 -0.1310 -0.1012 -0.6908
  423MOL0     H57038   6.935  11.523   2.574  1.5919  3.1760 -1.0981
  423MOL0     H57039   6.788  11.732   2.525  0.9501  0.1019 -1.5959
  423MOL0     H57040   6.526  11.795   2.176 -1.8868 -3.8297 -1.5884
  423MOL0     H57041   6.415  11.720   2.291  0.6166 -1.1700  1.6416
  423MOL0     H57042   6.377  11.973   2.256 -0.3355 -1.8558 -0.7234
  423MOL0     H57043   6.522  11.993   2.353 -3.2563  0.7943  4.9240
  423MOL0     H57044   6.390  11.993   2.522  4.4004 -1.6703  0.4442
  423MOL0     H57045   6.400  11.822   2.531  0.0664 -1.5775 -0.3756
  423MOL0     H57046   6.202  12.009   2.378  2.3964  1.9420  2.4843
  423MOL0     H57047   6.192  11.827   2.376  0.2946 -0.7454  0.6748
  423MOL0     H57048   6.104  11.820   2.595 -1.1033 -0.3630 -1.4527
  423MOL0     H57049   6.164  11.979   2.645  2.5814 -0.2844 -0.1287
  423MOL0     H57050   5.977  12.084   2.525 -0.6120  0.3996  0.5176
  423MOL0     H57051   5.979  11.961   2.398 -2.7908  1.6526 -0.8345
  423MOL0     H57052   5.813  11.973   2.655  0.3896  2.6147 -0.6683
  423MOL0     H57053   5.872  11.816   2.604  2.3569  0.8407  0.6607
  423MOL0     H57054   5.732  11.967   2.392  0.1325 -0.4257  0.2957
  423MOL0     H57055   5.789  11.795   2.415 -0.3334 -0.3740  0.5553
  423MOL0     H57056   5.570  11.971   2.675 -1.4412 -0.3094  1.5836
  423MOL0     H57057   5.352  11.680   2.824 -1.7549  0.4357 -0.6775
  423MOL0     H57058   5.457  11.814   2.875 -2.7456 -1.7233  3.1102
  423MOL0     H57059   5.242  11.901   2.901 -1.2457 -0.8032  0.2314
  423MOL0     H57060   5.307  11.970   2.758 -1.5568  0.6276  0.3588
  423MOL0     H57061   5.132  11.711   2.737 -0.6500  1.4233  2.6641
  423MOL0     H57062   5.184  11.827   2.606  0.4567  2.6902  0.9775
  423MOL0     H57063   4.940  11.821   2.677  0.0632 -0.8812 -0.5926
  423MOL0     H57064   5.003  11.978   2.683 -0.4434  0.8216  0.6540
  423MOL0     H57065   4.863  11.809   3.089 -0.8315 -2.1689 -1.5700
  423MOL0     H57066   4.633  11.865   3.162  2.2583  0.7237  0.4754
  423MOL0     H57067   4.403  11.894   3.386  0.5734  0.6787 -1.0493
  423MOL0     H57068   4.227  11.967   3.552 -0.5979 -2.9603  0.4889
  423MOL0     H57069   4.027  12.087   3.685 -1.8253  1.0002  0.1880
  423MOL0     H57070   4.121  12.195   3.574  1.2858 -1.4280  0.9767
  423MOL0     H57071   3.867  12.266   3.505 -0.8497  0.2704 -0.0734
  423MOL0     H57072   3.827  12.191   3.659 -1.2520 -1.5739 -4.4371
  423MOL0     H57073   4.029  12.415   3.614 -0.3793 -3.8155 -3.1830
  423MOL0     H57074   3.865  12.445   3.682 -0.0858  0.4838 -2.4020
  423MOL0     H57075   4.097  12.299   3.796 -0.2549 -1.5158 -1.1597
  423MOL0     H57076   3.948  12.256   3.856 -1.0929 -0.1293 -1.6611
  423MOL0     H57077   4.034  12.415   4.013 -0.1501 -0.5337  0.0301
  423MOL0     H57078   3.883  12.470   3.934 -0.0292  0.1071 -0.5756
  423MOL0     H57079   4.174  12.550   3.866  0.7643  1.1770  2.3267
  423MOL0     H57080   4.028  12.593   3.773  0.2308 -3.9603 -1.0851
  423MOL0     H57081   4.158  12.737   3.967  1.2295 -1.4900 -1.3029
  423MOL0     H57082   4.056  12.646   4.074  0.7957  0.3663 -0.2033
  423MOL0     H57083   3.955  12.863   4.042  0.5546  2.6457 -2.1419
  423MOL0     H57084   3.971  12.843   3.868  1.7197 -0.4027 -0.2384
  423MOL0     H57085   3.963  12.037   3.214  0.3574 -2.3123 -2.0738
  423MOL0     H57086   4.146  12.025   3.067  2.4683  3.1118  0.2141
  423MOL0     H57087   4.544  12.010   2.765 -0.3908 -0.2776  0.2607
  423MOL0     H57088   4.769  11.968   2.703 -0.9613  2.9957  0.0763
  423MOL0     H57089   6.585  11.492   2.216  0.2742 -0.1920 -0.8976
  423MOL0     H57090   6.719  11.322   2.262  0.8806  0.4100 -0.4341
  423MOL0     H57091   7.077  11.210   2.595  3.4524  2.5967 -1.7477
  423MOL0     H57092   7.171  11.030   2.717 -3.4142 -0.1757 -0.3159
  423MOL0     H57093   7.272  10.809   2.787 -1.6016  3.6308 -0.2730
  423MOL0     H57094   7.399  10.904   2.705 -1.8042  1.3776 -0.1348
  423MOL0     H57095   7.488  10.710   2.827 -3.1240  5.0327  1.1390
  423MOL0     H57096   7.527  10.696   2.656 -0.7549 -0.0362 -1.1495
  423MOL0     H57097   7.270  10.552   2.734 -1.1757  1.5498  2.3881
  423MOL0     H57098   7.393  10.500   2.831 -3.3624  0.2265  0.2798
  423MOL0     H57099   7.423  10.501   2.526  1.5314 -0.6075 -1.1961
  423MOL0     H57100   7.539  10.430   2.640 -0.3648  0.2302  3.0069
  423MOL0     H57101   7.277  10.111   2.654 -0.3013 -0.9229  0.6754
  423MOL0     H57102   7.200  10.817   2.339  1.9630  0.0205  1.2319
  423MOL0     H57103   6.943  10.965   2.171 -0.1794  1.6013 -0.5622
  423MOL0     H57104   7.105  11.037   2.120  0.5576  0.7149  0.7643
  423MOL0     H57105   7.080  10.860   2.174  1.0976 -0.2295  2.9622
  424MOL0     O57106   0.441   1.542  10.483  0.1795  1.4131 -0.1468
  424MOL0     C57107   0.455   1.425  10.450 -0.5557 -0.0203  0.2233
  424MOL0     O57108   0.472   1.317  10.536 -0.6707  0.8459 -0.0994
  424MOL0     C57109   0.507   1.343  10.665 -0.0451 -0.2444  0.4403
  424MOL0     C57110   0.629   1.401  10.702  0.3160 -0.2791 -0.6374
  424MOL0     C57111   0.679   1.390  10.836  0.5106 -0.1654  0.2501
  424MOL0     C57112   0.607   1.318  10.940  0.4208 -0.7515 -0.2011
  424MOL0     O57113   0.644   1.294  11.066  0.1769  0.3584 -0.0621
  424MOL0     C57114   0.786   1.277  11.099  0.4809 -0.6718  0.3404
  424MOL0     C57115   0.835   1.145  11.035 -0.5065 -0.2349 -0.2467
  424MOL0     C57116   0.980   1.103  11.049 -0.7309  0.2970  0.3813
  424MOL0     C57117   0.984   0.953  11.090  0.6459 -1.1785  0.9529
  424MOL0     C57118   0.981   0.845  10.977  0.2189 -0.2085  0.1427
  424MOL0     C57119   1.089   0.744  10.992  1.1885  0.5036  0.2165
  424MOL0     C57120   1.084   0.640  10.879  0.0737 -0.7190 -0.7076
  424MOL0     C57121   1.206   0.558  10.886  0.0058 -0.5966 -0.7245
  424MOL0     N57122   1.201   0.459  10.782 -0.1946 -0.3341 -0.3126
  424MOL0     C57123   1.315   0.391  10.744 -0.1272 -0.1015 -0.0569
  424MOL0     C57124   1.279   0.332  10.631  0.5970 -0.2511 -0.8146
  424MOL0     C57125   1.355   0.246  10.549 -0.2524  0.0023  0.7310
  424MOL0     C57126   1.507   0.276  10.540  0.0810  0.3393  0.4350
  424MOL0     C57127   1.588   0.200  10.439  0.0054 -1.1276  0.0214
  424MOL0     C57128   1.513   0.124  10.340 -0.1390 -0.2058  0.2991
  424MOL0     O57129   1.594   0.078  10.233 -0.2713 -0.4918  0.2460
  424MOL0     C57130   1.536   0.000  10.135 -0.6189 -0.0881 -0.7851
  424MOL0     C57131   1.413  -0.069  10.141  0.2938 -0.6692 -0.5760
  424MOL0     C57132   1.370  -0.134  10.032 -0.0096 -0.2274  0.7945
  424MOL0     C57133   1.437  -0.126   9.912  0.1482  0.7040 -0.3294
  424MOL0     C57134   1.394  -0.183   9.788 -0.3624  0.1305 -0.4438
  424MOL0     O57135   1.472  -0.168   9.683  0.0127  0.7199  0.1703
  424MOL0     C57136   1.427  -0.186   9.553  0.7421 -0.2862  0.3514
  424MOL0     C57137   1.511  -0.239   9.462 -2.1041 -0.1711  0.5643
  424MOL0     C57138   1.479  -0.265   9.324 -0.7422 -0.3737  0.2367
  424MOL0     C57139   1.349  -0.228   9.274 -0.8413  0.5580 -0.6140
  424MOL0     O57140   1.300  -0.255   9.150  0.1512  0.0548 -0.1926
  424MOL0     C57141   1.372  -0.336   9.060 -0.0905  0.7327 -0.5195
  424MOL0     C57142   1.300  -0.344   8.925  1.0511 -0.1523 -0.0785
  424MOL0     C57143   1.394  -0.408   8.820 -1.0168 -0.1130  1.0881
  424MOL0     C57144   1.333  -0.436   8.671  0.4924  0.1795 -0.8692
  424MOL0     C57145   1.265  -0.317   8.614 -0.4943  0.0946 -0.0436
  424MOL0     C57146   1.187  -0.330   8.472  1.0071  0.3073  0.1761
  424MOL0     C57147   1.136  -0.186   8.428 -0.4142  0.3238  0.2486
  424MOL0     C57148   1.038  -0.126   8.541 -0.6430 -0.1866 -1.0458
  424MOL0    Cl57149   1.014   0.040   8.479  0.2149  0.7342 -0.2850
  424MOL0     C57150   1.258  -0.179   9.364 -0.5695  0.1928  0.2528
  424MOL0     C57151   1.296  -0.154   9.498  0.0395 -0.0991 -0.4363
  424MOL0     O57152   1.289  -0.245   9.798  0.1058 -0.2293 -0.4666
  424MOL0     C57153   1.547  -0.048   9.904  1.4968 -0.3657  0.3456
  424MOL0     C57154   1.607   0.002  10.014 -0.4881 -0.6580 -0.6552
  424MOL0     N57155   1.149   0.364  10.593 -0.6886  0.7159 -0.6861
  424MOL0     N57156   1.102   0.434  10.692  0.4157  0.0523  0.3483
  424MOL0     C57157   0.480   1.260  10.901  0.0844  0.1280  0.7450
  424MOL0     C57158   0.439   1.268  10.765  0.2262 -0.0235  0.1135
  424MOL0     C57159   0.452   1.383  10.310 -0.2722  0.4373  0.5237
  424MOL0     C57160   0.352   1.286  10.259  0.4903 -0.9144 -0.1639
  424MOL0     C57161   0.327   1.273  10.120 -0.2583  0.4312 -0.9535
  424MOL0     C57162   0.400   1.348  10.028 -0.2998 -1.0697 -0.0884
  424MOL0     O57163   0.370   1.352   9.894 -0.9939  0.2435  0.1225
  424MOL0     C57164   0.301   1.233   9.828  0.3157  0.2245 -0.2584
  424MOL0     C57165   0.288   1.261   9.672 -0.6404 -0.0574  0.5201
  424MOL0     C57166   0.183   1.355   9.646  0.3869 -0.9882  0.9784
  424MOL0     C57167   0.199   1.428   9.509 -0.4589  0.8377  0.5029
  424MOL0     C57168   0.112   1.545   9.506 -0.2013 -0.4490  0.2355
  424MOL0     C57169   0.058   1.658   9.527  0.2873 -0.0369 -0.3292
  424MOL0     C57170   0.497   1.440  10.076  0.1978  0.1860 -0.9513
  424MOL0     C57171   0.523   1.455  10.213  0.3436 -0.3582 -0.2910
  424MOL0     C57172   0.620   1.564  10.259  0.1373  0.8194  0.4186
  424MOL0     H57173   0.686   1.461  10.631  0.7888  4.6436  3.3183
  424MOL0     H57174   0.762   1.456  10.859  0.9007 -1.2485  2.1375
  424MOL0     H57175   0.844   1.361  11.059  0.4241 -1.9372 -2.7010
  424MOL0     H57176   0.802   1.276  11.207  0.4617 -2.1556  0.3522
  424MOL0     H57177   0.809   1.146  10.929  0.0143  1.0146 -0.3691
  424MOL0     H57178   0.770   1.070  11.081 -3.5191  0.8048 -2.4844
  424MOL0     H57179   1.016   1.161  11.135 -0.6467 -1.0795  1.3176
  424MOL0     H57180   1.054   1.110  10.969 -2.6278 -1.2586 -1.6334
  424MOL0     H57181   1.075   0.937  11.149  0.2274 -1.3582  1.5567
  424MOL0     H57182   0.906   0.941  11.166  2.4173  0.9205  3.2542
  424MOL0     H57183   0.887   0.793  10.994  0.4132 -0.7251 -0.3202
  424MOL0     H57184   0.983   0.894  10.879 -0.0360 -2.5370 -1.0950
  424MOL0     H57185   1.179   0.804  10.974  1.8648 -0.1351  1.3032
  424MOL0     H57186   1.092   0.692  11.089  3.4896  0.1655  0.0362
  424MOL0     H57187   1.106   0.689  10.784  2.8447 -1.7533 -0.6713
  424MOL0     H57188   0.988   0.588  10.883 -0.6621  0.6368  0.3517
  424MOL0     H57189   1.292   0.627  10.880  0.8888 -1.6875 -0.9244
  424MOL0     H57190   1.215   0.522  10.988  1.4672  3.2737  0.7166
  424MOL0     H57191   1.415   0.390  10.788  2.1457 -0.6820 -4.5803
  424MOL0     H57192   1.343   0.144  10.587  0.0140 -0.6297 -0.8389
  424MOL0     H57193   1.319   0.255  10.446  1.0581 -1.0088  0.1674
  424MOL0     H57194   1.512   0.384  10.528  1.1598  0.0508 -2.6149
  424MOL0     H57195   1.545   0.251  10.640 -0.0516  0.9528  0.6420
  424MOL0     H57196   1.658   0.132  10.488 -0.9844 -0.8906  1.8282
  424MOL0     H57197   1.648   0.275  10.385  1.9078 -1.5572  1.4141
  424MOL0     H57198   1.434   0.187  10.297 -0.2136 -0.2041  0.4386
  424MOL0     H57199   1.462   0.048  10.399 -0.4760  1.8426  2.8036
  424MOL0     H57200   1.349  -0.062  10.229  0.2877 -0.3482 -0.6040
  424MOL0     H57201   1.284  -0.200  10.040 -0.8252  0.6520 -0.2981
  424MOL0     H57202   1.607  -0.279   9.492 -1.1789 -0.4087 -2.4081
  424MOL0     H57203   1.548  -0.310   9.253 -1.3091  0.6048 -0.9698
  424MOL0     H57204   1.472  -0.298   9.036  0.9766 -2.3611 -1.3918
  424MOL0     H57205   1.380  -0.434   9.107 -1.3777  1.6538  1.7812
  424MOL0     H57206   1.212  -0.409   8.940  1.2554 -0.9060 -1.8913
  424MOL0     H57207   1.280  -0.238   8.909 -1.7142 -0.2585  1.8935
  424MOL0     H57208   1.487  -0.353   8.810 -0.7478 -0.2198  2.7387
  424MOL0     H57209   1.431  -0.503   8.857  2.2021  1.7525  3.0620
  424MOL0     H57210   1.252  -0.508   8.682 -0.2891  0.9383 -1.5490
  424MOL0     H57211   1.410  -0.469   8.600 -3.8234 -1.0238 -5.5189
  424MOL0     H57212   1.346  -0.244   8.602 -0.0613 -0.2067  0.9345
  424MOL0     H57213   1.192  -0.286   8.690  0.3742  2.0452  0.0637
  424MOL0     H57214   1.253  -0.368   8.393  2.6642  0.1907  1.5390
  424MOL0     H57215   1.093  -0.386   8.474  0.4134  1.2902  0.7305
  424MOL0     H57216   1.081  -0.182   8.334 -1.5341  0.8401  0.9021
  424MOL0     H57217   1.224  -0.122   8.417  1.3265 -2.1565 -1.2835
  424MOL0     H57218   0.946  -0.184   8.547 -1.1078  0.5860 -0.5424
  424MOL0     H57219   1.089  -0.122   8.638 -2.6009 -0.7564  0.0623
  424MOL0     H57220   1.159  -0.164   9.323 -0.2428  1.6961 -0.0301
  424MOL0     H57221   1.221  -0.109   9.563  1.8041  0.1990  1.4974
  424MOL0     H57222   1.601  -0.049   9.810 -2.7234  1.4800 -2.3762
  424MOL0     H57223   1.703   0.052  10.002  1.0223 -3.1626  0.1307
  424MOL0     H57224   0.408   1.201  10.957  2.3245 -2.3764  1.1913
  424MOL0     H57225   0.338   1.232  10.745 -0.6252  1.5419  1.3438
  424MOL0     H57226   0.295   1.229  10.331 -1.8811  1.9113  0.3777
  424MOL0     H57227   0.251   1.199  10.098 -1.0070  0.0359  2.4002
  424MOL0     H57228   0.202   1.232   9.875 -0.8746 -0.3185 -2.6630
  424MOL0     H57229   0.364   1.145   9.844 -1.1788 -0.6125  1.5160
  424MOL0     H57230   0.271   1.162   9.628 -2.3400  1.7140 -3.2686
  424MOL0     H57231   0.389   1.278   9.633  0.1099 -0.9060  2.0207
  424MOL0     H57232   0.186   1.437   9.718  0.0901  3.2966 -3.3978
  424MOL0     H57233   0.085   1.308   9.641 -0.8495  1.5486 -0.6826
  424MOL0     H57234   0.301   1.467   9.498  0.3853 -0.7672  2.1153
  424MOL0     H57235   0.174   1.355   9.432 -2.1022 -3.0022  4.2873
  424MOL0     H57236   0.007   1.752   9.537 -0.4217 -0.2836 -1.4305
  424MOL0     H57237   0.558   1.490  10.002  0.6936  0.8319 -0.1243
  424MOL0     H57238   0.663   1.546  10.358  1.4352  1.9674  0.0935
  424MOL0     H57239   0.694   1.579  10.181 -1.4868  2.2628 -0.9176
  424MOL0     H57240   0.563   1.656  10.272  2.0556  1.6990  3.9086
  425MOL0     O57241   9.087   0.535   9.148  0.7621  0.3116  0.5448
  425MOL0     C57242   8.967   0.528   9.175  0.9132 -0.3736 -0.0394
  425MOL0     O57243   8.871   0.632   9.145  0.3323  0.2535 -0.6464
  425MOL0     C57244   8.923   0.748   9.095 -0.1957  0.5489  0.4530
  425MOL0     C57245   8.939   0.743   8.962  0.1249  0.3625  0.0809
  425MOL0     C57246   9.010   0.846   8.902 -0.5206  0.4163 -0.6569
  425MOL0     C57247   9.032   0.971   8.977  0.6032 -0.0901 -0.2521
  425MOL0     O57248   9.096   1.083   8.922  0.9494  0.5042 -0.2403
  425MOL0     C57249   9.102   1.081   8.778 -1.3556 -0.6557 -0.4459
  425MOL0     C57250   9.162   1.207   8.728 -0.4394  1.3991  0.8415
  425MOL0     C57251   9.296   1.230   8.787  0.0660 -0.2368  0.1523
  425MOL0     C57252   9.368   1.350   8.733  0.8549 -0.4017  0.5840
  425MOL0     C57253   9.509   1.358   8.798  0.2182 -0.5826  0.1818
  425MOL0     C57254   9.517   1.373   8.942 -0.5209 -0.5719 -0.1974
  425MOL0     C57255   9.418   1.484   9.000 -1.0157  0.1008  0.7634
  425MOL0     C57256   9.503   1.613   9.001 -0.4550 -0.0520 -0.1111
  425MOL0     N57257   9.424   1.737   9.014 -0.2032 -0.1410 -0.8759
  425MOL0     C57258   9.314   1.764   8.939 -0.4262 -0.3014 -0.2177
  425MOL0     C57259   9.240   1.863   9.001 -0.9784  1.2728 -0.4528
  425MOL0     C57260   9.117   1.933   8.964 -0.7313  0.3353 -0.3853
  425MOL0     C57261   9.081   2.058   9.041 -0.8045 -0.2614 -0.1561
  425MOL0     C57262   9.178   2.172   9.038  0.6359  0.2301  0.2891
  425MOL0     C57263   9.113   2.295   9.103 -0.4245  0.9409 -0.5533
  425MOL0     O57264   9.205   2.396   9.122  0.1420  0.2768 -0.2890
  425MOL0     C57265   9.162   2.515   9.175  0.9029 -0.1318 -0.8636
  425MOL0     C57266   9.034   2.543   9.222  0.5959  0.0882  0.1769
  425MOL0     C57267   9.001   2.670   9.267  0.2540 -0.4828 -1.0561
  425MOL0     C57268   9.095   2.770   9.271 -0.0480 -0.4338 -0.6406
  425MOL0     C57269   9.042   2.899   9.331  0.4720  0.0753 -0.8141
  425MOL0     O57270   9.140   2.980   9.386 -0.8430 -0.2874  0.2376
  425MOL0     C57271   9.113   3.082   9.463 -0.3293  0.5545  0.1501
  425MOL0     C57272   9.184   3.084   9.581 -0.8467  0.1647 -0.1937
  425MOL0     C57273   9.172   3.192   9.665  0.7500 -0.8014  0.6579
  425MOL0     C57274   9.083   3.299   9.643  0.1496 -0.7475 -0.6291
  425MOL0     O57275   9.074   3.409   9.728  0.4169 -0.3089 -0.6742
  425MOL0     C57276   8.954   3.465   9.773 -0.3977  0.7112 -0.2115
  425MOL0     C57277   8.966   3.560   9.901 -0.9925  0.2281  0.6046
  425MOL0     C57278   8.891   3.515  10.034 -0.0105 -0.7686  0.2775
  425MOL0     C57279   8.920   3.377  10.087  0.1427  0.6776 -0.5280
  425MOL0     C57280   9.068   3.364  10.139 -0.6092 -0.2280 -0.7498
  425MOL0     C57281   9.058   3.391  10.292 -0.6875  0.1330  0.1804
  425MOL0     C57282   9.158   3.308  10.378 -0.6137 -0.5021 -0.0482
  425MOL0     C57283   9.130   3.153  10.401 -0.2696 -0.1150 -0.5402
  425MOL0    Cl57284   8.978   3.149  10.480  0.1059 -0.9137  0.1973
  425MOL0     C57285   9.002   3.292   9.526 -0.0263 -0.2991 -0.3992
  425MOL0     C57286   9.013   3.184   9.442 -0.0806  0.4955  0.0931
  425MOL0     O57287   8.916   2.927   9.341 -0.9346  0.2910 -0.5035
  425MOL0     C57288   9.226   2.743   9.226 -0.3822 -0.5387 -0.4373
  425MOL0     C57289   9.254   2.620   9.177  0.0388 -0.3262 -0.5166
  425MOL0     N57290   9.312   1.899   9.119 -0.0859 -0.4268  0.3811
  425MOL0     N57291   9.424   1.842   9.113 -0.0239  1.0298  0.4291
  425MOL0     C57292   9.009   0.977   9.107  0.1708  0.4222 -0.5193
  425MOL0     C57293   8.945   0.865   9.174  0.1983 -0.5449  0.2860
  425MOL0     C57294   8.909   0.408   9.247  0.7303  0.0281  0.0890
  425MOL0     C57295   8.958   0.289   9.191  0.1559  0.8335 -0.3434
  425MOL0     C57296   8.915   0.177   9.258  1.0673  0.0947  0.2663
  425MOL0     C57297   8.818   0.176   9.363 -0.1053  0.7316  0.3501
  425MOL0     O57298   8.790   0.073   9.454 -0.0047 -0.5567  0.3403
  425MOL0     C57299   8.710  -0.034   9.405  0.8926  0.0849 -0.0873
  425MOL0     C57300   8.560   0.012   9.405  1.3085 -0.0768  0.3045
  425MOL0     C57301   8.462  -0.080   9.336 -0.0290 -0.4954  0.7886
  425MOL0     C57302   8.470  -0.075   9.181 -0.0443 -0.3211  0.1706
  425MOL0     C57303   8.430   0.055   9.126 -0.2473 -0.7177  0.3427
  425MOL0     C57304   8.418   0.154   9.056  0.4250 -1.1790 -0.0653
  425MOL0     C57305   8.766   0.292   9.408 -0.6290  0.2120 -0.2334
  425MOL0     C57306   8.809   0.412   9.345 -0.4422 -0.6632  0.7854
  425MOL0     C57307   8.742   0.535   9.396  0.2102  0.3854  0.7440
  425MOL0     H57308   8.910   0.654   8.906  0.6845 -0.0139  0.3801
  425MOL0     H57309   9.046   0.838   8.800  1.8133  4.0424 -0.2871
  425MOL0     H57310   9.175   1.006   8.745  0.6744  1.0219 -0.0461
  425MOL0     H57311   9.004   1.064   8.732 -2.1131 -0.8008  1.1701
  425MOL0     H57312   9.079   1.274   8.755 -1.0968  1.5208 -1.2713
  425MOL0     H57313   9.170   1.205   8.619 -2.7453 -1.5232  0.5959
  425MOL0     H57314   9.359   1.142   8.774  1.5967  0.1812  3.8339
  425MOL0     H57315   9.278   1.248   8.893  0.3997  0.7058  0.0535
  425MOL0     H57316   9.379   1.344   8.624 -4.4375 -2.1139 -0.1449
  425MOL0     H57317   9.315   1.444   8.747  4.1996  1.8481 -0.4784
  425MOL0     H57318   9.576   1.282   8.759  1.5352  1.2608 -1.3660
  425MOL0     H57319   9.553   1.449   8.755 -1.2818 -0.2513 -0.6982
  425MOL0     H57320   9.499   1.274   8.984  1.1334 -0.5147  0.7472
  425MOL0     H57321   9.612   1.390   8.994 -0.4109 -0.8968 -0.2894
  425MOL0     H57322   9.401   1.465   9.107 -0.8401  2.1232  1.2068
  425MOL0     H57323   9.324   1.500   8.947  0.2867  2.1695 -1.0928
  425MOL0     H57324   9.582   1.597   9.075 -0.5240 -0.5767 -0.1447
  425MOL0     H57325   9.553   1.630   8.905 -0.5167  3.5919  0.3678
  425MOL0     H57326   9.308   1.725   8.838  2.5730  0.5163 -0.7794
  425MOL0     H57327   9.120   1.961   8.859 -1.0166 -2.1147 -1.1037
  425MOL0     H57328   9.030   1.871   8.989 -2.2015  1.3950 -2.6030
  425MOL0     H57329   8.992   2.109   9.001 -1.6556  0.2576  2.2389
  425MOL0     H57330   9.080   2.036   9.148  0.8205 -0.1819 -0.1070
  425MOL0     H57331   9.200   2.181   8.931 -0.0646 -0.4433  0.0821
  425MOL0     H57332   9.280   2.164   9.076  1.5691 -3.2538 -2.3390
  425MOL0     H57333   9.081   2.260   9.202  0.5580  1.7865  0.0830
  425MOL0     H57334   9.017   2.323   9.059 -2.6260 -2.7159  1.4810
  425MOL0     H57335   8.954   2.469   9.215 -1.0269  1.7567  0.1262
  425MOL0     H57336   8.902   2.684   9.309  1.6008 -2.5331  3.3737
  425MOL0     H57337   9.265   3.013   9.591 -0.7630  0.2326 -0.3821
  425MOL0     H57338   9.218   3.201   9.763  1.8442  0.9973  0.0254
  425MOL0     H57339   8.896   3.503   9.689  0.0300 -1.4043 -1.5406
  425MOL0     H57340   8.889   3.388   9.817 -1.6421  1.1295 -1.2521
  425MOL0     H57341   9.073   3.550   9.917 -0.9807 -0.7687 -0.0184
  425MOL0     H57342   8.953   3.668   9.888 -3.4759  0.2125  2.2621
  425MOL0     H57343   8.932   3.584  10.107 -1.5849  0.6838 -0.1509
  425MOL0     H57344   8.784   3.535  10.021 -0.5723  0.5830  5.2369
  425MOL0     H57345   8.902   3.307  10.004 -6.9760  1.9573 -0.7340
  425MOL0     H57346   8.851   3.339  10.163 -0.4193  0.1012 -1.3045
  425MOL0     H57347   9.134   3.434  10.087 -0.5360  0.7423  0.6036
  425MOL0     H57348   9.113   3.267  10.117  1.1790  0.5186 -0.5100
  425MOL0     H57349   9.085   3.497  10.300  2.6578 -0.3552 -2.1526
  425MOL0     H57350   8.958   3.363  10.324 -0.2595 -1.2320  0.3956
  425MOL0     H57351   9.171   3.366  10.471 -1.9928  0.5512 -0.4760
  425MOL0     H57352   9.245   3.314  10.311 -1.1953 -3.0300 -1.1141
  425MOL0     H57353   9.130   3.091  10.311  0.9613 -2.2026  0.8064
  425MOL0     H57354   9.204   3.111  10.470  1.1736  0.4189 -1.6902
  425MOL0     H57355   8.945   3.380   9.498 -0.1691 -0.7651 -1.6400
  425MOL0     H57356   8.954   3.186   9.351  0.8599 -1.1146 -0.5943
  425MOL0     H57357   9.301   2.822   9.220  0.9472 -1.8336 -1.9981
  425MOL0     H57358   9.353   2.605   9.135 -0.5416  2.2001 -3.1114
  425MOL0     H57359   9.032   1.065   9.166  2.7615 -1.0531  0.8650
  425MOL0     H57360   8.898   0.868   9.272 -3.2582 -1.3933 -1.1860
  425MOL0     H57361   9.030   0.279   9.111  1.5754  0.3605  0.9383
  425MOL0     H57362   8.962   0.085   9.225  1.3653  1.3617 -3.2788
  425MOL0     H57363   8.718  -0.124   9.467 -2.1302 -2.8881 -3.4906
  425MOL0     H57364   8.741  -0.066   9.305  0.5680 -0.1887 -0.1027
  425MOL0     H57365   8.545   0.116   9.373  0.6388  0.5434  2.4449
  425MOL0     H57366   8.532   0.021   9.511 -1.7087  1.5732 -0.5079
  425MOL0     H57367   8.367  -0.043   9.374  1.0274  4.2993 -0.4941
  425MOL0     H57368   8.484  -0.183   9.365 -0.7707 -0.1557  2.6818
  425MOL0     H57369   8.574  -0.087   9.148  0.0462 -1.7250  0.9047
  425MOL0     H57370   8.411  -0.153   9.131 -0.5597  0.2138 -0.0666
  425MOL0     H57371   8.410   0.245   9.001 -0.1782 -2.0865 -1.5381
  425MOL0     H57372   8.685   0.280   9.479 -1.0627 -2.0778 -1.0381
  425MOL0     H57373   8.720   0.515   9.501  0.4530  0.2830  0.7755
  425MOL0     H57374   8.803   0.627   9.397 -0.4993  0.8631  0.5602
  425MOL0     H57375   8.650   0.543   9.338  1.4344 -1.1547 -1.5609
  426MOL0     O57376   8.260   5.216  10.161  0.4698 -0.2316 -0.3177
  426MOL0     C57377   8.211   5.126  10.231 -0.3020  1.1098 -0.7069
  426MOL0     O57378   8.227   4.991  10.209 -0.1377  0.3729  0.0026
  426MOL0     C57379   8.301   4.950  10.098  0.0480 -1.3438 -0.1901
  426MOL0     C57380   8.373   4.834  10.109 -0.2295 -0.1168  0.3882
  426MOL0     C57381   8.452   4.790  10.002 -0.8221  0.5933 -0.3607
  426MOL0     C57382   8.445   4.851   9.881 -0.0489 -0.1136 -1.0692
  426MOL0     O57383   8.535   4.818   9.784  0.5709  0.1298  0.4477
  426MOL0     C57384   8.513   4.686   9.731 -0.1736  0.3758  0.4235
  426MOL0     C57385   8.600   4.655   9.614 -0.8750 -0.3773 -0.1574
  426MOL0     C57386   8.561   4.753   9.495  0.0488 -1.1008 -0.5149
  426MOL0     C57387   8.686   4.800   9.410 -1.0330 -0.4562 -0.4132
  426MOL0     C57388   8.645   4.896   9.290  1.0301 -0.2373 -0.2462
  426MOL0     C57389   8.598   4.816   9.165  0.2243  0.5662  0.4042
  426MOL0     C57390   8.530   4.908   9.071 -0.4251 -0.5264  0.0870
  426MOL0     C57391   8.378   4.941   9.111 -0.1829 -0.4614  0.1111
  426MOL0     N57392   8.313   5.030   9.017  1.1922  0.4919  0.3587
  426MOL0     C57393   8.364   5.105   8.912 -0.6550  0.2921  0.0192
  426MOL0     C57394   8.255   5.160   8.848  0.3950 -0.1133 -0.7356
  426MOL0     C57395   8.264   5.239   8.719 -1.2022  0.7048  1.2976
  426MOL0     C57396   8.386   5.204   8.634  0.0316  1.0948 -0.1834
  426MOL0     C57397   8.502   5.299   8.660 -0.4157 -0.3179  0.2386
  426MOL0     C57398   8.632   5.274   8.577  0.3457  0.0425  0.0865
  426MOL0     O57399   8.691   5.143   8.612 -0.3750  0.6870 -0.7726
  426MOL0     C57400   8.776   5.109   8.716 -0.6087 -0.6498 -0.8909
  426MOL0     C57401   8.859   5.207   8.779 -0.1468  0.0244  0.6856
  426MOL0     C57402   8.951   5.175   8.875 -0.9273 -0.2858  0.4500
  426MOL0     C57403   8.950   5.048   8.932  0.8097  0.4092  0.7435
  426MOL0     C57404   9.034   5.009   9.041 -1.0514 -0.2480 -0.2349
  426MOL0     O57405   9.140   5.097   9.071 -0.3322 -0.2652  0.6846
  426MOL0     C57406   9.252   5.071   9.156 -0.3975  0.6574 -0.0870
  426MOL0     C57407   9.338   5.176   9.159  0.1535  0.2884  1.0817
  426MOL0     C57408   9.452   5.173   9.228 -0.8421 -0.2659 -0.6200
  426MOL0     C57409   9.483   5.056   9.307  0.5779 -0.6882  0.0703
  426MOL0     O57410   9.588   5.049   9.393 -0.2562 -0.8549 -0.3908
  426MOL0     C57411   9.649   5.171   9.428 -0.7620 -0.1982 -0.2311
  426MOL0     C57412   9.726   5.144   9.550  0.8024 -0.1661 -0.4953
  426MOL0     C57413   9.820   5.028   9.536 -0.3679 -0.1653  0.2016
  426MOL0     C57414   9.934   5.048   9.645  0.6365 -0.1206  0.5904
  426MOL0     C57415  10.025   4.933   9.651 -0.2086 -0.4002 -0.6792
  426MOL0     C57416  10.098   4.913   9.518 -0.6213  0.1219  0.8384
  426MOL0     C57417  10.199   4.795   9.513 -0.1876 -0.1602  0.0379
  426MOL0     C57418  10.229   4.755   9.371 -0.2842 -0.0325 -0.2614
  426MOL0    Cl57419  10.315   4.898   9.300 -0.6614 -0.1063 -0.3535
  426MOL0     C57420   9.408   4.945   9.283 -0.0481  0.2069  0.0277
  426MOL0     C57421   9.288   4.945   9.214  0.4868  0.3335  0.6056
  426MOL0     O57422   9.031   4.897   9.084  0.6318 -0.2847 -0.1994
  426MOL0     C57423   8.852   4.953   8.885  0.1425  1.0442  0.3316
  426MOL0     C57424   8.786   4.982   8.765  0.3443  0.3156  0.5177
  426MOL0     N57425   8.142   5.124   8.920 -0.2384  0.7966  0.0249
  426MOL0     N57426   8.174   5.040   9.013 -0.2012 -0.0500  0.5532
  426MOL0     C57427   8.361   4.955   9.868 -0.2737 -0.3673  0.6135
  426MOL0     C57428   8.297   5.013   9.971  1.0648 -0.4509 -0.0605
  426MOL0     C57429   8.136   5.158  10.356 -0.0454  0.0578  0.1449
  426MOL0     C57430   8.133   5.073  10.465  0.1286 -0.2429 -0.8619
  426MOL0     C57431   8.057   5.114  10.582  1.4476 -0.0906  0.1533
  426MOL0     C57432   7.996   5.238  10.591  1.4934 -0.2446  0.1658
  426MOL0     O57433   7.906   5.277  10.692 -0.2590 -0.5146 -0.3605
  426MOL0     C57434   7.950   5.310  10.824 -0.4770 -0.2236 -0.6743
  426MOL0     C57435   7.960   5.468  10.844 -0.0045 -0.9916 -0.8039
  426MOL0     C57436   7.822   5.531  10.819 -0.2761  0.6625  0.3281
  426MOL0     C57437   7.727   5.536  10.931  0.4480 -0.0509  0.1217
  426MOL0     C57438   7.615   5.636  10.901 -0.9391  0.6403  0.6538
  426MOL0     C57439   7.525   5.716  10.889 -0.8021  0.8042  0.3143
  426MOL0     C57440   8.010   5.326  10.487 -0.5505  0.4711  0.5500
  426MOL0     C57441   8.078   5.286  10.373 -0.9393 -0.6920  0.3831
  426MOL0     C57442   8.063   5.388  10.260  0.2741  0.1198  0.1747
  426MOL0     H57443   8.382   4.784  10.205  2.8375 -2.7142 -1.0844
  426MOL0     H57444   8.529   4.717  10.025 -2.5778 -0.9094  1.0635
  426MOL0     H57445   8.538   4.619   9.813  3.7244  0.2340 -0.6897
  426MOL0     H57446   8.414   4.657   9.693 -0.6334  0.1266  1.7605
  426MOL0     H57447   8.602   4.547   9.598  1.9040 -0.2248 -1.3659
  426MOL0     H57448   8.705   4.681   9.630 -0.4856  0.2628 -3.1130
  426MOL0     H57449   8.504   4.838   9.534 -0.0551 -2.7610  3.4061
  426MOL0     H57450   8.509   4.704   9.413 -1.6533  0.5624 -0.5017
  426MOL0     H57451   8.742   4.859   9.483 -0.1524 -0.1414 -1.3257
  426MOL0     H57452   8.759   4.725   9.378  0.6166  1.2133 -0.6751
  426MOL0     H57453   8.559   4.952   9.328 -0.2988 -3.3783  1.7771
  426MOL0     H57454   8.729   4.963   9.272  2.2425 -0.6634  3.1575
  426MOL0     H57455   8.685   4.788   9.104 -1.4230  1.0080 -2.3320
  426MOL0     H57456   8.553   4.720   9.193  4.0333 -1.5167  0.0513
  426MOL0     H57457   8.525   4.878   8.966 -1.4373 -0.1832  0.0210
  426MOL0     H57458   8.584   5.003   9.064 -0.0852 -0.8332 -2.5178
  426MOL0     H57459   8.325   4.846   9.101 -0.9160  0.1103 -2.3434
  426MOL0     H57460   8.380   4.985   9.211  1.6302  2.5593 -1.1066
  426MOL0     H57461   8.468   5.114   8.884 -0.3677 -1.6575  0.3128
  426MOL0     H57462   8.168   5.220   8.672 -2.0179  0.6744  2.9126
  426MOL0     H57463   8.279   5.348   8.726 -0.3209  0.9930 -2.8323
  426MOL0     H57464   8.417   5.101   8.654 -0.1990  1.4348  2.3017
  426MOL0     H57465   8.376   5.215   8.526  2.4411  1.6059 -0.4294
  426MOL0     H57466   8.525   5.310   8.766  1.6636  0.4824 -0.2468
  426MOL0     H57467   8.480   5.398   8.618  1.3798 -0.5956 -1.4750
  426MOL0     H57468   8.700   5.353   8.610  1.7526 -1.0382 -0.1266
  426MOL0     H57469   8.608   5.286   8.471  3.3070  0.4316 -0.6226
  426MOL0     H57470   8.877   5.310   8.747  1.6620  0.3215  2.4556
  426MOL0     H57471   9.024   5.251   8.903  0.9478 -2.3129  1.3355
  426MOL0     H57472   9.312   5.263   9.100 -0.4369  0.4328  1.5493
  426MOL0     H57473   9.513   5.263   9.233 -0.5411 -0.5315  1.4311
  426MOL0     H57474   9.715   5.212   9.351  4.7904 -0.1728  3.9471
  426MOL0     H57475   9.590   5.254   9.467  0.0724 -0.4351  1.6588
  426MOL0     H57476   9.773   5.234   9.589  0.9354 -0.2913 -0.3638
  426MOL0     H57477   9.658   5.107   9.627  3.4936  0.4499  2.3536
  426MOL0     H57478   9.778   4.929   9.556  0.4276 -0.4509  0.4778
  426MOL0     H57479   9.862   5.017   9.435  1.5770 -2.1855  1.1432
  426MOL0     H57480   9.893   5.064   9.745 -0.8941  1.6842 -0.2611
  426MOL0     H57481   9.992   5.138   9.622  1.2361 -0.7768 -0.5797
  426MOL0     H57482   9.964   4.850   9.687 -3.3297  2.5554  1.4876
  426MOL0     H57483  10.095   4.928   9.735 -0.3752  0.1807 -0.5013
  426MOL0     H57484  10.020   4.890   9.445  0.6781 -4.9587  0.6772
  426MOL0     H57485  10.148   5.007   9.495 -1.9458  0.1197 -2.6592
  426MOL0     H57486  10.160   4.706   9.564 -0.3271  0.3070  0.7537
  426MOL0     H57487  10.292   4.823   9.563 -0.4636  0.7827  0.0270
  426MOL0     H57488  10.290   4.665   9.376  1.6592  1.2832  1.1915
  426MOL0     H57489  10.136   4.740   9.315 -0.3153 -3.4614  0.4685
  426MOL0     H57490   9.454   4.849   9.305  2.2622  1.4795  1.1380
  426MOL0     H57491   9.219   4.861   9.213  1.6976 -0.6906 -0.1751
  426MOL0     H57492   8.834   4.851   8.916  2.3369  0.0975 -1.2545
  426MOL0     H57493   8.721   4.910   8.718  1.8448  1.6117 -4.1709
  426MOL0     H57494   8.350   5.000   9.771  0.1962 -0.0521  0.7065
  426MOL0     H57495   8.262   5.111   9.940  0.8227  0.4932  2.8791
  426MOL0     H57496   8.183   4.977  10.473  2.2421  0.8710  0.2621
  426MOL0     H57497   8.041   5.042  10.662 -1.9837 -0.1823 -0.4469
  426MOL0     H57498   8.054   5.280  10.837  0.2392  2.2590 -0.1827
  426MOL0     H57499   7.881   5.272  10.901  0.3561 -0.0899  0.1580
  426MOL0     H57500   8.025   5.507  10.764 -2.8861  2.2964 -1.7986
  426MOL0     H57501   8.005   5.499  10.939 -0.5985 -0.4277 -0.7001
  426MOL0     H57502   7.761   5.486  10.740 -2.0172 -0.9983  2.4425
  426MOL0     H57503   7.831   5.629  10.772 -0.8977 -0.7922 -3.1432
  426MOL0     H57504   7.685   5.440  10.961  0.1618 -0.4940 -1.5543
  426MOL0     H57505   7.770   5.579  11.021  1.4002 -0.3293 -0.1889
  426MOL0     H57506   7.448   5.784  10.855 -1.3608 -0.8222 -1.8936
  426MOL0     H57507   7.960   5.422  10.500  0.7895  1.2463  0.2329
  426MOL0     H57508   7.963   5.432  10.258 -0.6120 -1.7751 -1.5808
  426MOL0     H57509   8.141   5.464  10.259  2.2969 -1.8378  1.1911
  426MOL0     H57510   8.065   5.335  10.164  1.5327  1.9192 -0.8474
  427MOL0     O57511   9.861   8.936   3.735  0.0471  0.0173  0.1921
  427MOL0     C57512   9.769   8.887   3.794 -0.3901  0.6147  0.0995
  427MOL0     O57513   9.690   8.958   3.878  0.7163  0.9851 -0.9284
  427MOL0     C57514   9.712   9.099   3.911 -0.0007 -0.2513  0.1034
  427MOL0     C57515   9.788   9.191   3.832  0.1141 -0.9405  0.1123
  427MOL0     C57516   9.800   9.320   3.888 -0.6094  0.1715 -1.1073
  427MOL0     C57517   9.729   9.366   4.001  0.0068  0.0120 -0.8144
  427MOL0     O57518   9.738   9.500   4.046  0.0510 -0.6415  0.7185
  427MOL0     C57519   9.704   9.605   3.949  0.6230 -0.4327 -1.1193
  427MOL0     C57520   9.782   9.732   3.977 -0.3126 -1.5167 -0.1448
  427MOL0     C57521   9.933   9.712   3.991  0.0396  0.2764 -0.2697
  427MOL0     C57522  10.003   9.745   3.867  0.0604  0.9159 -0.2778
  427MOL0     C57523  10.160   9.734   3.887  0.4224  0.0803  0.9425
  427MOL0     C57524  10.227   9.752   3.754  0.2344 -0.2753 -0.6536
  427MOL0     C57525  10.377   9.735   3.765  0.8472  0.3707 -0.2428
  427MOL0     C57526  10.453   9.809   3.878  0.5908  0.8082  0.2929
  427MOL0     N57527  10.589   9.825   3.851  0.6918  0.3647 -0.7993
  427MOL0     C57528  10.666   9.936   3.870  0.2584 -0.3129  0.0182
  427MOL0     C57529  10.789   9.901   3.806 -0.3420  0.1728  0.3604
  427MOL0     C57530  10.904   9.992   3.794 -0.3324  0.0794 -0.7151
  427MOL0     C57531  10.999   9.971   3.675  0.1063  0.3777 -0.0005
  427MOL0     C57532  10.953  10.035   3.542  0.1346  0.6690 -0.3082
  427MOL0     C57533  10.846   9.949   3.468  0.1038  0.0252  0.0744
  427MOL0     O57534  10.716   9.975   3.521 -0.8855  0.2760 -0.1887
  427MOL0     C57535  10.616   9.969   3.426  0.3300 -1.1442 -0.6234
  427MOL0     C57536  10.594  10.065   3.331 -0.0146  0.3667 -0.2651
  427MOL0     C57537  10.499  10.050   3.229 -0.0342 -0.3154  0.1517
  427MOL0     C57538  10.413   9.931   3.244  0.2514  0.5418  0.0614
  427MOL0     C57539  10.308   9.902   3.140 -0.1448 -0.3339 -1.1274
  427MOL0     O57540  10.239   9.781   3.157  0.6719  0.3925 -0.6221
  427MOL0     C57541  10.110   9.763   3.113 -0.0774 -0.5516  1.0811
  427MOL0     C57542  10.017   9.867   3.123 -0.3226 -0.3213 -0.7781
  427MOL0     C57543   9.883   9.849   3.078  0.1384 -0.4754  0.5816
  427MOL0     C57544   9.839   9.725   3.021  0.3291 -0.8305 -0.4842
  427MOL0     O57545   9.713   9.697   2.979 -0.0082  0.4315  0.6913
  427MOL0     C57546   9.605   9.720   3.064  1.0229  1.2398 -0.4623
  427MOL0     C57547   9.546   9.861   3.033  1.0657  0.3086  0.3432
  427MOL0     C57548   9.491   9.876   2.892 -0.0614  0.7572 -0.2401
  427MOL0     C57549   9.542  10.002   2.825 -0.2019 -0.2490 -0.1414
  427MOL0     C57550   9.483  10.014   2.683 -0.4797 -0.4390  1.5304
  427MOL0     C57551   9.332  10.067   2.679 -0.0638 -0.4556 -0.7811
  427MOL0     C57552   9.259  10.012   2.556  0.4856  0.0693  0.4902
  427MOL0     C57553   9.104  10.029   2.536  0.1948  0.5068  0.4223
  427MOL0    Cl57554   9.058  10.187   2.591 -0.3134 -0.4626 -0.1976
  427MOL0     C57555   9.941   9.627   3.010  0.3610  0.0501 -0.5677
  427MOL0     C57556  10.071   9.646   3.053 -0.7934  0.1211  0.1858
  427MOL0     O57557  10.290   9.986   3.049 -0.5344  1.0768 -0.4533
  427MOL0     C57558  10.438   9.835   3.343  0.0856 -0.2390 -0.1509
  427MOL0     C57559  10.546   9.847   3.429 -0.3531  0.1505  0.2779
  427MOL0     N57560  10.790   9.769   3.773  1.0057  0.4481  0.3155
  427MOL0     N57561  10.672   9.727   3.797  0.1619 -0.3354  0.0423
  427MOL0     C57562   9.649   9.271   4.074 -0.0991 -0.6123  0.4581
  427MOL0     C57563   9.654   9.138   4.033 -0.0270 -0.3347 -1.0911
  427MOL0     C57564   9.735   8.750   3.752 -0.8215  0.5757  0.0932
  427MOL0     C57565   9.611   8.695   3.787 -0.5600  0.9542  0.3335
  427MOL0     C57566   9.583   8.555   3.767 -0.1056 -0.0026 -0.3280
  427MOL0     C57567   9.677   8.473   3.704  0.5968  0.3718  0.0765
  427MOL0     O57568   9.642   8.342   3.680 -0.4441 -0.1609 -0.2395
  427MOL0     C57569   9.749   8.252   3.700 -0.2439 -0.9065  0.0429
  427MOL0     C57570   9.700   8.112   3.746 -0.1581  0.0827 -0.2335
  427MOL0     C57571   9.670   8.018   3.628 -0.0686 -0.3551 -0.2708
  427MOL0     C57572   9.546   8.068   3.551  0.5701 -0.1463 -0.2961
  427MOL0     C57573   9.536   7.978   3.437 -0.1015  0.7256  0.3424
  427MOL0     C57574   9.534   7.911   3.334 -0.6350 -0.1302  1.1955
  427MOL0     C57575   9.802   8.519   3.659 -0.4491 -0.3186 -0.3021
  427MOL0     C57576   9.829   8.654   3.680  0.1908  0.4837 -0.4923
  427MOL0     C57577   9.976   8.685   3.638 -0.6411 -0.3720  0.0783
  427MOL0     H57578   9.863   9.154   3.762  0.5687 -1.7290  1.0036
  427MOL0     H57579   9.870   9.385   3.838 -3.1956  0.8639 -4.1724
  427MOL0     H57580   9.748   9.557   3.861  1.7872  0.1841 -0.9001
  427MOL0     H57581   9.596   9.623   3.941  0.7313  0.9643  0.0799
  427MOL0     H57582   9.739   9.765   4.073  2.5740  0.0736  0.7070
  427MOL0     H57583   9.773   9.821   3.915  2.3396 -0.9487  0.1707
  427MOL0     H57584   9.958   9.610   4.022  3.1906  1.0844  0.1402
  427MOL0     H57585   9.967   9.775   4.074  6.3955  0.7529 -2.7068
  427MOL0     H57586   9.978   9.687   3.777  2.2803  1.2202 -1.1511
  427MOL0     H57587   9.984   9.847   3.833 -0.2086  1.0457  0.2476
  427MOL0     H57588  10.192   9.816   3.952 -1.5417  1.7825 -0.1425
  427MOL0     H57589  10.197   9.635   3.916  2.3176 -0.3762 -2.5633
  427MOL0     H57590  10.185   9.675   3.688  3.5637 -0.7204 -2.4423
  427MOL0     H57591  10.203   9.854   3.722 -1.6216 -0.2497  0.6512
  427MOL0     H57592  10.419   9.769   3.670  0.8829  0.3479 -0.2353
  427MOL0     H57593  10.398   9.629   3.785 -1.1188  0.5813  4.1823
  427MOL0     H57594  10.413   9.909   3.898 -0.2535  0.9685 -1.9533
  427MOL0     H57595  10.446   9.735   3.958  4.1989  0.1822  0.1812
  427MOL0     H57596  10.637  10.033   3.909 -0.2250  0.0609 -1.2124
  427MOL0     H57597  10.871  10.095   3.812 -1.6224 -0.1299 -1.7697
  427MOL0     H57598  10.965   9.977   3.883  2.6319  2.6055 -2.0981
  427MOL0     H57599  11.097  10.010   3.704  1.7564 -0.3389 -4.0070
  427MOL0     H57600  11.025   9.865   3.668  1.1872  0.3134  3.2523
  427MOL0     H57601  11.047  10.045   3.486  3.4737 -1.3633  4.2597
  427MOL0     H57602  10.919  10.138   3.557  0.3311  0.5909  0.7190
  427MOL0     H57603  10.861   9.841   3.466 -0.1527 -0.0154  0.2148
  427MOL0     H57604  10.843   9.977   3.362 -3.5106  0.3578  0.1267
  427MOL0     H57605  10.660  10.150   3.345  0.3521 -0.1442  1.3313
  427MOL0     H57606  10.475  10.130   3.161 -1.3128 -0.9545 -0.1870
  427MOL0     H57607  10.039   9.955   3.184 -0.2942 -3.0978  3.6884
  427MOL0     H57608   9.822   9.934   3.108  1.3245  0.0456  1.6059
  427MOL0     H57609   9.512   9.664   3.047  0.3885  2.0134  0.3103
  427MOL0     H57610   9.632   9.719   3.170 -1.8762  1.5791  0.3720
  427MOL0     H57611   9.462   9.875   3.101  2.4852  0.0445  2.2271
  427MOL0     H57612   9.632   9.928   3.046  3.5499 -2.5549 -0.2134
  427MOL0     H57613   9.522   9.790   2.833 -0.4927 -1.1280  2.1245
  427MOL0     H57614   9.382   9.873   2.898 -0.1983  0.9156 -2.0713
  427MOL0     H57615   9.651   9.996   2.823 -0.1629 -0.2479  1.4029
  427MOL0     H57616   9.503  10.092   2.873  1.0415  0.8621 -1.1256
  427MOL0     H57617   9.486   9.916   2.634  1.1766 -0.8410  2.3762
  427MOL0     H57618   9.549  10.089   2.638  0.7186 -1.7384  1.0223
  427MOL0     H57619   9.276  10.044   2.770 -0.7943  2.0635 -0.5145
  427MOL0     H57620   9.338  10.175   2.668  0.6754 -0.0168  2.9173
  427MOL0     H57621   9.261   9.903   2.552 -3.2405 -0.1512 -3.2624
  427MOL0     H57622   9.297  10.073   2.473 -0.5837  2.7005  1.8026
  427MOL0     H57623   9.074  10.006   2.434 -1.7351 -0.8685  1.2419
  427MOL0     H57624   9.058   9.955   2.603  1.3989 -0.1960  0.5044
  427MOL0     H57625   9.906   9.535   2.965  0.6555 -1.2962  1.8040
  427MOL0     H57626  10.150   9.576   3.026 -0.2630  0.7292  0.1413
  427MOL0     H57627  10.386   9.741   3.328  0.2329 -0.3467  0.0124
  427MOL0     H57628  10.568   9.766   3.498 -1.8611 -0.7265 -0.2102
  427MOL0     H57629   9.601   9.286   4.170 -3.1170 -0.1137 -1.0073
  427MOL0     H57630   9.604   9.074   4.105 -2.9795  3.3621  0.5326
  427MOL0     H57631   9.539   8.753   3.842 -1.1163  0.9785 -0.4060
  427MOL0     H57632   9.490   8.508   3.797  0.7226 -1.4607  0.0459
  427MOL0     H57633   9.821   8.290   3.773 -1.3882  1.4447  0.0517
  427MOL0     H57634   9.800   8.238   3.605 -2.1783  0.6864 -1.3225
  427MOL0     H57635   9.613   8.121   3.812 -1.1589  0.1185 -1.5147
  427MOL0     H57636   9.786   8.075   3.803  1.0992  0.2630 -1.9538
  427MOL0     H57637   9.659   7.916   3.666  1.2625  0.2947  2.0730
  427MOL0     H57638   9.752   8.007   3.556 -0.7349 -3.0552 -0.7059
  427MOL0     H57639   9.457   8.045   3.610  0.3961 -0.1077 -0.5417
  427MOL0     H57640   9.541   8.174   3.524  1.2973  0.1093  0.5342
  427MOL0     H57641   9.532   7.869   3.236 -1.3383  2.2108  0.1327
  427MOL0     H57642   9.867   8.456   3.598 -1.6383  1.7178 -4.0182
  427MOL0     H57643  10.040   8.607   3.596  1.3284  0.9212  0.5196
  427MOL0     H57644   9.986   8.775   3.577 -2.5470 -2.3886 -3.5461
  427MOL0     H57645  10.023   8.692   3.737 -0.5038  0.6446 -0.0495
  428MOL0     O57646   1.860   8.759   6.785 -0.2349  0.2001  0.2353
  428MOL0     C57647   1.975   8.797   6.816  0.2389  1.5019 -0.5678
  428MOL0     O57648   2.081   8.814   6.738 -0.3313  0.5328 -0.2065
  428MOL0     C57649   2.084   8.778   6.612 -0.8231 -0.6638  0.8422
  428MOL0     C57650   1.973   8.807   6.531  0.8319 -0.6548 -0.0923
  428MOL0     C57651   1.994   8.781   6.391 -0.1075  0.2859 -0.0626
  428MOL0     C57652   2.115   8.721   6.352  0.9111  0.7199 -0.0162
  428MOL0     O57653   2.155   8.672   6.224 -0.0731 -0.4787  0.2844
  428MOL0     C57654   2.052   8.612   6.150 -0.7026 -0.2967  0.9832
  428MOL0     C57655   2.106   8.569   6.010 -0.0661 -0.3224 -0.1540
  428MOL0     C57656   2.234   8.477   6.035  1.0198  0.2736  0.3397
  428MOL0     C57657   2.260   8.400   5.905 -0.3983 -0.1308 -0.6033
  428MOL0     C57658   2.176   8.272   5.883 -0.2972  0.7717  0.1647
  428MOL0     C57659   2.229   8.173   5.771 -0.3917 -0.3323 -0.4164
  428MOL0     C57660   2.184   8.029   5.795  0.6879  0.6915  0.4454
  428MOL0     C57661   2.034   8.007   5.829  0.2061 -0.9517 -0.5147
  428MOL0     N57662   1.941   8.037   5.716 -1.3030  0.6671 -0.5492
  428MOL0     C57663   1.819   7.973   5.694  0.8719  0.8793  0.0238
  428MOL0     C57664   1.737   8.057   5.623  0.4696  0.3222  0.0409
  428MOL0     C57665   1.594   8.043   5.585 -0.5989 -0.2254  0.2579
  428MOL0     C57666   1.591   7.996   5.432  1.2291  0.3618  0.1949
  428MOL0     C57667   1.644   7.851   5.404 -0.5526 -0.8281  0.4729
  428MOL0     C57668   1.615   7.798   5.260 -0.3330 -0.6601 -0.3720
  428MOL0     O57669   1.477   7.801   5.241 -0.3725  0.3991  0.6862
  428MOL0     C57670   1.441   7.731   5.123  0.0286  0.3056 -0.7671
  428MOL0     C57671   1.524   7.661   5.032  0.3041  0.3827 -0.7533
  428MOL0     C57672   1.466   7.598   4.916  0.9382  0.0210 -0.0740
  428MOL0     C57673   1.327   7.617   4.886 -0.1171 -0.1993 -0.2920
  428MOL0     C57674   1.279   7.567   4.761  0.4220 -0.1997  0.2440
  428MOL0     O57675   1.369   7.513   4.667  0.5585 -0.2384 -0.1862
  428MOL0     C57676   1.319   7.456   4.558  0.4069  0.2451 -0.3724
  428MOL0     C57677   1.358   7.321   4.551  0.9035 -0.3989 -0.5537
  428MOL0     C57678   1.348   7.250   4.433  0.0049 -0.1478 -0.1160
  428MOL0     C57679   1.298   7.314   4.318 -0.8780 -0.4142 -0.2823
  428MOL0     O57680   1.284   7.228   4.215  0.4469  0.2177 -0.1590
  428MOL0     C57681   1.272   7.276   4.078 -0.6822  0.9598 -0.5090
  428MOL0     C57682   1.256   7.156   3.984 -0.0917 -0.3725  0.1795
  428MOL0     C57683   1.164   7.187   3.864 -0.9840  0.3137  0.4484
  428MOL0     C57684   1.015   7.190   3.887 -0.6210  0.0423 -0.4785
  428MOL0     C57685   0.965   7.046   3.923  0.5133 -0.2776 -0.5803
  428MOL0     C57686   0.813   7.032   3.913 -0.1039  0.5189 -0.8182
  428MOL0     C57687   0.751   7.081   3.778 -0.7105  0.1655  1.0082
  428MOL0     C57688   0.626   7.010   3.742 -0.5512  0.8887 -0.1251
  428MOL0    Cl57689   0.664   6.837   3.696  0.1235  0.2285 -0.1131
  428MOL0     C57690   1.250   7.445   4.334 -0.5923  1.1007 -0.1627
  428MOL0     C57691   1.250   7.513   4.452 -0.4440 -0.6691 -0.6054
  428MOL0     O57692   1.152   7.573   4.747 -0.1749  0.6119  0.5757
  428MOL0     C57693   1.248   7.691   4.973  0.1314 -0.3783  0.1477
  428MOL0     C57694   1.308   7.740   5.092 -0.5688  0.3328  0.8016
  428MOL0     N57695   1.806   8.177   5.620 -0.1306 -0.5883  0.8015
  428MOL0     N57696   1.922   8.168   5.674  0.0572  0.5974  0.0793
  428MOL0     C57697   2.215   8.692   6.440 -0.0224  0.4281 -0.3616
  428MOL0     C57698   2.201   8.723   6.573  0.5482  0.2313 -0.1734
  428MOL0     C57699   2.005   8.822   6.968 -0.4593 -0.6791 -0.1349
  428MOL0     C57700   2.137   8.853   7.007 -0.6909 -0.2522  0.3593
  428MOL0     C57701   2.171   8.866   7.138  0.2846 -0.2684  0.3842
  428MOL0     C57702   2.082   8.864   7.236  0.1520  0.0603 -0.5499
  428MOL0     O57703   2.103   8.891   7.374 -0.7587 -0.0408 -0.0503
  428MOL0     C57704   2.237   8.877   7.428  0.5642  0.4030 -0.0723
  428MOL0     C57705   2.268   8.910   7.572  0.0397 -0.2633  0.4578
  428MOL0     C57706   2.246   8.794   7.665  0.3733  0.2353  0.0065
  428MOL0     C57707   2.337   8.773   7.786 -0.6641  0.3650 -0.6182
  428MOL0     C57708   2.318   8.884   7.890 -0.4182  0.3609  0.9639
  428MOL0     C57709   2.274   8.972   7.956 -0.7613 -0.1896  1.5249
  428MOL0     C57710   1.942   8.858   7.210 -0.1087  0.4242 -0.0093
  428MOL0     C57711   1.908   8.836   7.078  0.1753  0.2424  1.1541
  428MOL0     C57712   1.760   8.820   7.043 -0.9141 -0.5957 -0.5889
  428MOL0     H57713   1.879   8.850   6.565  1.4117 -0.5108  1.3643
  428MOL0     H57714   1.921   8.799   6.313  1.9569  2.2074 -1.6732
  428MOL0     H57715   2.014   8.539   6.223  1.1917 -2.3271  0.0456
  428MOL0     H57716   1.975   8.687   6.129 -0.2396  0.1075  0.7228
  428MOL0     H57717   2.125   8.667   5.966 -0.9372  0.1265  0.4476
  428MOL0     H57718   2.026   8.513   5.960 -0.5872 -1.1479  1.5154
  428MOL0     H57719   2.222   8.399   6.111  2.1893 -3.2022 -2.7418
  428MOL0     H57720   2.312   8.544   6.074  1.7797 -1.6446  2.3792
  428MOL0     H57721   2.254   8.467   5.819  1.2422  0.1364 -0.5480
  428MOL0     H57722   2.368   8.384   5.906 -0.4074 -0.1632  0.3959
  428MOL0     H57723   2.183   8.215   5.977  4.2564  0.4686 -0.1204
  428MOL0     H57724   2.078   8.304   5.847  0.8015  2.3961 -1.5462
  428MOL0     H57725   2.202   8.205   5.670  1.7798 -0.3415 -1.0419
  428MOL0     H57726   2.338   8.178   5.780 -0.1841 -4.1796  1.0852
  428MOL0     H57727   2.243   8.009   5.884  2.2324  0.4547 -0.5934
  428MOL0     H57728   2.211   7.967   5.709 -1.6050 -0.0146  0.1599
  428MOL0     H57729   2.019   7.899   5.843 -1.1628 -0.8936 -1.3957
  428MOL0     H57730   2.009   8.050   5.926  1.1459  0.2918 -0.8033
  428MOL0     H57731   1.784   7.875   5.726  0.4808  1.7196  2.3470
  428MOL0     H57732   1.530   7.981   5.648 -3.0051  2.3121  0.5224
  428MOL0     H57733   1.551   8.143   5.580 -3.7670 -1.5338 -2.6682
  428MOL0     H57734   1.483   7.994   5.411  1.3422  2.3039 -0.7547
  428MOL0     H57735   1.611   8.071   5.355 -4.6474  2.4158  0.1581
  428MOL0     H57736   1.603   7.778   5.475 -2.6528 -1.8772 -1.6655
  428MOL0     H57737   1.752   7.863   5.409 -0.5936  3.3364 -2.8752
  428MOL0     H57738   1.656   7.698   5.243  0.8136 -0.5852  1.6217
  428MOL0     H57739   1.664   7.871   5.195  0.0352 -0.6060 -0.0377
  428MOL0     H57740   1.626   7.634   5.059 -0.4676 -0.4877  1.5127
  428MOL0     H57741   1.530   7.538   4.853 -0.3991  2.9119 -4.6584
  428MOL0     H57742   1.407   7.285   4.640 -1.7632 -1.1288  0.7337
  428MOL0     H57743   1.377   7.146   4.427  0.8856  0.1193 -0.6467
  428MOL0     H57744   1.181   7.337   4.071 -3.9577 -3.3455  0.3935
  428MOL0     H57745   1.368   7.317   4.045 -1.7165 -0.2032 -5.9092
  428MOL0     H57746   1.358   7.131   3.953 -0.6984 -1.2543 -1.2285
  428MOL0     H57747   1.215   7.072   4.040  1.6684 -0.9991  0.5989
  428MOL0     H57748   1.186   7.283   3.817 -3.0730  2.0828  2.8305
  428MOL0     H57749   1.191   7.119   3.782 -1.6199  2.1858 -1.4117
  428MOL0     H57750   0.966   7.238   3.802 -1.7471 -0.5685 -0.1863
  428MOL0     H57751   1.004   7.251   3.977  1.8734  0.6420 -0.4859
  428MOL0     H57752   0.979   7.030   4.030  0.6178  0.6440 -0.4536
  428MOL0     H57753   1.010   6.960   3.872  1.5920 -1.9972  2.9924
  428MOL0     H57754   0.777   6.933   3.942 -1.9557  1.7042  1.2615
  428MOL0     H57755   0.776   7.105   3.986 -1.5650  0.6615 -1.6808
  428MOL0     H57756   0.829   7.060   3.704 -1.5284 -0.6427  0.3489
  428MOL0     H57757   0.733   7.189   3.780  2.4234  0.8510 -0.8011
  428MOL0     H57758   0.565   7.009   3.833  1.9975 -1.9993  1.7257
  428MOL0     H57759   0.567   7.051   3.659 -1.6123  2.0114  1.1351
  428MOL0     H57760   1.203   7.483   4.244 -0.2642 -0.7469 -1.1766
  428MOL0     H57761   1.219   7.617   4.449 -2.0134 -1.0951  0.2559
  428MOL0     H57762   1.145   7.714   4.949 -0.2634 -1.4394  0.7232
  428MOL0     H57763   1.245   7.796   5.160  0.4138 -1.0243  2.9472
  428MOL0     H57764   2.301   8.642   6.396 -1.6134 -2.2461 -0.6656
  428MOL0     H57765   2.275   8.706   6.651 -0.2042 -0.3575  0.4260
  428MOL0     H57766   2.212   8.859   6.929 -1.1598  0.1571 -0.0715
  428MOL0     H57767   2.273   8.889   7.167 -0.1546  1.0855  0.9886
  428MOL0     H57768   2.303   8.943   7.372 -0.2747  2.2299  1.0071
  428MOL0     H57769   2.264   8.773   7.410 -0.3897  0.3406 -1.2824
  428MOL0     H57770   2.228   9.004   7.611  3.0592  2.2594 -1.9143
  428MOL0     H57771   2.375   8.932   7.582  0.3776 -2.3490  2.2380
  428MOL0     H57772   2.270   8.697   7.621  0.3576 -0.1752  0.8802
  428MOL0     H57773   2.141   8.809   7.693  0.5548 -0.3258  1.0296
  428MOL0     H57774   2.315   8.683   7.846  2.7848  1.6927  3.0532
  428MOL0     H57775   2.435   8.775   7.738 -0.5150  2.1903 -0.3075
  428MOL0     H57776   2.234   9.042   8.026  0.4962  1.8445  0.3262
  428MOL0     H57777   1.864   8.855   7.285 -2.4892 -0.0199 -2.3604
  428MOL0     H57778   1.753   8.718   7.004  2.7359 -1.0307 -0.4525
  428MOL0     H57779   1.691   8.854   7.120 -1.3262  3.3422 -2.4867
  428MOL0     H57780   1.727   8.896   6.972 -4.1860  0.2413  1.6134
  429MOL0     O57781   9.378   6.590   1.730  0.0086 -0.3288  0.1246
  429MOL0     C57782   9.312   6.480   1.716 -0.5118 -0.0557 -0.1345
  429MOL0     O57783   9.266   6.442   1.584 -0.1749 -0.9318 -0.5547
  429MOL0     C57784   9.304   6.516   1.480 -0.0352 -0.9678  0.4768
  429MOL0     C57785   9.212   6.605   1.426 -0.7758 -0.5343 -0.4533
  429MOL0     C57786   9.248   6.690   1.314 -0.3662 -0.2296  0.6535
  429MOL0     C57787   9.377   6.705   1.266 -0.1500 -0.3556 -0.3722
  429MOL0     O57788   9.405   6.791   1.158 -0.2182  0.5141  0.1463
  429MOL0     C57789   9.546   6.830   1.123 -0.5029 -0.3542 -0.7271
  429MOL0     C57790   9.543   6.881   0.969 -0.6553  0.6860  0.6587
  429MOL0     C57791   9.515   6.769   0.864  0.1495  0.7407  0.5094
  429MOL0     C57792   9.628   6.674   0.827  0.0087 -0.2022 -0.4831
  429MOL0     C57793   9.566   6.587   0.723 -0.3601  1.0798  0.9335
  429MOL0     C57794   9.655   6.464   0.680  0.6827 -0.4909  0.1177
  429MOL0     C57795   9.689   6.376   0.804 -0.0383 -0.2524  0.0649
  429MOL0     C57796   9.754   6.250   0.765  0.3727 -0.7122  0.1065
  429MOL0     N57797   9.838   6.269   0.650 -0.6018 -0.1245  0.3968
  429MOL0     C57798   9.972   6.314   0.650  0.0424  0.6000 -0.1014
  429MOL0     C57799  10.032   6.277   0.534 -0.9523 -0.9827  0.1102
  429MOL0     C57800  10.170   6.299   0.478 -0.4541  0.1932 -0.2456
  429MOL0     C57801  10.166   6.326   0.325 -0.2700  0.2021  0.3324
  429MOL0     C57802  10.135   6.474   0.302 -0.2368  0.0180 -0.4231
  429MOL0     C57803  10.123   6.514   0.155 -0.1923 -0.1583  0.1331
  429MOL0     O57804  10.113   6.655   0.145  0.3706  0.0335  0.1492
  429MOL0     C57805  10.079   6.706   0.021 -0.7946  0.3498  0.4093
  429MOL0     C57806   9.974   6.663  -0.047  0.2061 -0.4062 -0.6866
  429MOL0     C57807   9.937   6.734  -0.162  0.3613  0.1010 -0.1468
  429MOL0     C57808  10.009   6.850  -0.208  1.3355 -0.6567  0.1294
  429MOL0     C57809   9.975   6.926  -0.329  1.2000  0.5114 -0.2988
  429MOL0     O57810  10.064   7.020  -0.389  1.1240 -0.0537 -1.0310
  429MOL0     C57811  10.002   7.097  -0.479 -0.7470  0.0998  0.4454
  429MOL0     C57812  10.001   7.044  -0.609 -0.1742  0.0330  0.0979
  429MOL0     C57813   9.945   7.121  -0.703 -0.0770 -0.8176 -0.9049
  429MOL0     C57814   9.895   7.252  -0.678 -0.1142  0.5226 -0.3562
  429MOL0     O57815   9.832   7.333  -0.780  0.9030  0.8101 -0.1091
  429MOL0     C57816   9.876   7.472  -0.790  0.1432  0.3176  0.7851
  429MOL0     C57817   9.915   7.518  -0.926 -0.4048 -0.1573 -0.0441
  429MOL0     C57818   9.951   7.670  -0.935  0.0607 -0.3745  0.1015
  429MOL0     C57819  10.024   7.730  -0.820 -0.3120 -0.8556  0.0908
  429MOL0     C57820  10.176   7.706  -0.830  0.8128  0.2539 -0.3424
  429MOL0     C57821  10.233   7.710  -0.691 -0.5609 -0.6129 -0.1455
  429MOL0     C57822  10.249   7.845  -0.624 -0.4245  0.1696 -0.6429
  429MOL0     C57823  10.262   7.840  -0.470  0.7936  0.0971  0.3331
  429MOL0    Cl57824  10.405   7.763  -0.418  0.7161  0.6362 -0.0373
  429MOL0     C57825   9.893   7.290  -0.541  0.7812  0.3655 -0.2906
  429MOL0     C57826   9.947   7.215  -0.442 -0.2585  0.5926 -1.0789
  429MOL0     O57827   9.874   6.881  -0.381 -0.6464  0.4896 -0.1690
  429MOL0     C57828  10.128   6.884  -0.137  1.2249 -0.2223 -0.9930
  429MOL0     C57829  10.155   6.816  -0.022 -0.3949  0.7445  0.1720
  429MOL0     N57830   9.939   6.212   0.468 -0.1739 -0.0935  0.6994
  429MOL0     N57831   9.819   6.219   0.531 -0.6509 -0.5764 -0.5435
  429MOL0     C57832   9.466   6.622   1.336  0.2346  0.1582 -0.1927
  429MOL0     C57833   9.430   6.529   1.440  0.3759 -1.6646 -0.0857
  429MOL0     C57834   9.264   6.400   1.828 -0.3965  0.3057 -0.1550
  429MOL0     C57835   9.153   6.322   1.807  0.4701  0.3659 -0.6074
  429MOL0     C57836   9.103   6.227   1.906  0.5468  0.4226 -0.4281
  429MOL0     C57837   9.168   6.222   2.027 -0.8585  0.5781 -0.6559
  429MOL0     O57838   9.144   6.131   2.130  0.1239  0.5065  0.0708
  429MOL0     C57839   9.007   6.119   2.173 -0.2521 -0.5594  0.9610
  429MOL0     C57840   9.019   6.064   2.314 -0.4179 -0.4907  0.3727
  429MOL0     C57841   9.126   6.126   2.402 -0.5943 -0.3811 -0.6053
  429MOL0     C57842   9.150   6.278   2.397  0.3238 -0.2317  0.7948
  429MOL0     C57843   9.022   6.344   2.406  0.8939  0.0618  0.1486
  429MOL0     C57844   8.915   6.398   2.389 -0.3118  0.3230 -0.2499
  429MOL0     C57845   9.294   6.295   2.047  0.3655  0.1804 -0.9020
  429MOL0     C57846   9.345   6.383   1.949 -0.1977  0.0412 -0.3942
  429MOL0     C57847   9.485   6.437   1.966 -0.5882 -0.3448 -0.3189
  429MOL0     H57848   9.121   6.607   1.484  0.1480 -3.5659  1.2954
  429MOL0     H57849   9.170   6.757   1.279 -1.0999 -0.2948  2.0808
  429MOL0     H57850   9.580   6.923   1.170 -3.0066 -0.1865  0.9728
  429MOL0     H57851   9.618   6.749   1.130  3.2209  2.8195  1.2736
  429MOL0     H57852   9.637   6.930   0.941 -0.5912 -1.1466 -2.9657
  429MOL0     H57853   9.462   6.953   0.956 -0.8138  0.6719  1.5046
  429MOL0     H57854   9.477   6.813   0.771  0.9822 -1.1078 -0.7861
  429MOL0     H57855   9.440   6.709   0.916 -0.0144  1.9534  1.7343
  429MOL0     H57856   9.712   6.727   0.783 -0.7961 -0.1215 -1.9991
  429MOL0     H57857   9.672   6.629   0.916  0.7963 -0.6736 -1.0960
  429MOL0     H57858   9.472   6.543   0.757 -1.4950  2.8952  0.2897
  429MOL0     H57859   9.544   6.645   0.632 -0.4261 -1.7127 -0.9573
  429MOL0     H57860   9.593   6.412   0.607 -0.5755  1.5355 -0.3604
  429MOL0     H57861   9.753   6.497   0.642  0.4190 -1.8801 -1.9285
  429MOL0     H57862   9.609   6.341   0.870 -1.8425 -2.0846 -2.8707
  429MOL0     H57863   9.759   6.438   0.861  0.5842 -0.8942  0.0061
  429MOL0     H57864   9.808   6.218   0.855  4.0084  1.0717 -1.2206
  429MOL0     H57865   9.672   6.182   0.743 -0.5388 -0.2249  1.8483
  429MOL0     H57866  10.034   6.352   0.730  0.2972 -1.8280  0.9330
  429MOL0     H57867  10.223   6.377   0.534 -0.0447  0.0775 -0.4609
  429MOL0     H57868  10.215   6.202   0.498 -2.0128 -0.4894  0.0926
  429MOL0     H57869  10.265   6.299   0.287  0.0292  0.4468  0.9168
  429MOL0     H57870  10.097   6.253   0.281 -1.0135  0.4427  1.0748
  429MOL0     H57871  10.201   6.538   0.360 -2.5000  0.2266  2.1008
  429MOL0     H57872  10.035   6.490   0.343  0.8199 -0.3635  2.5201
  429MOL0     H57873  10.037   6.471   0.103  0.6849  1.7182 -3.1274
  429MOL0     H57874  10.207   6.479   0.094 -2.1418  0.9265 -3.4867
  429MOL0     H57875   9.911   6.581  -0.012 -3.0582 -0.2088 -5.2302
  429MOL0     H57876   9.845   6.711  -0.214 -2.0405 -2.8317  4.6564
  429MOL0     H57877  10.045   6.945  -0.618 -1.0118 -0.5063  1.5755
  429MOL0     H57878   9.946   7.062  -0.794  1.6656 -2.4025  0.0564
  429MOL0     H57879   9.797   7.531  -0.741  0.1642 -0.4897  1.8242
  429MOL0     H57880   9.966   7.484  -0.729  1.2555 -2.2673 -0.1762
  429MOL0     H57881  10.001   7.461  -0.964 -0.7917 -1.5249  1.0326
  429MOL0     H57882   9.841   7.493  -1.004  0.8218  1.2422 -1.7285
  429MOL0     H57883  10.023   7.684  -1.017  0.5960  0.1819  0.6548
  429MOL0     H57884   9.859   7.728  -0.946  0.4696  0.2980  0.1230
  429MOL0     H57885   9.986   7.708  -0.720  1.6190  0.7476  1.2581
  429MOL0     H57886  10.008   7.838  -0.823 -1.9995 -1.0950 -1.6171
  429MOL0     H57887  10.209   7.790  -0.892 -1.2721 -1.4608 -4.0934
  429MOL0     H57888  10.197   7.611  -0.880 -3.2202 -0.1282 -1.6291
  429MOL0     H57889  10.182   7.648  -0.617 -0.4543 -0.1172  0.3459
  429MOL0     H57890  10.337   7.681  -0.708 -0.6551 -0.3657 -1.2536
  429MOL0     H57891  10.163   7.907  -0.649 -1.0365  0.6046  2.2084
  429MOL0     H57892  10.340   7.899  -0.651  1.5706 -1.9466  1.4017
  429MOL0     H57893  10.274   7.944  -0.439  1.4334  0.1456 -0.0644
  429MOL0     H57894  10.169   7.786  -0.447  0.6791 -0.0152 -0.3459
  429MOL0     H57895   9.835   7.376  -0.509 -1.9049 -1.4156 -0.0798
  429MOL0     H57896   9.943   7.249  -0.339  1.7437 -0.1511 -0.6953
  429MOL0     H57897  10.195   6.964  -0.168  1.6028  0.1189  0.5952
  429MOL0     H57898  10.247   6.838   0.031  1.6431  0.3906 -2.9355
  429MOL0     H57899   9.572   6.641   1.320  0.3382  1.8352  2.0874
  429MOL0     H57900   9.508   6.471   1.489  3.0965 -0.1784 -2.3888
  429MOL0     H57901   9.092   6.339   1.719 -0.8290 -1.6243 -0.1661
  429MOL0     H57902   9.010   6.173   1.895 -2.0778  3.7679  2.5187
  429MOL0     H57903   8.942   6.054   2.113  0.0114  0.3864 -0.3854
  429MOL0     H57904   8.963   6.219   2.166  1.9508  0.3462 -3.1499
  429MOL0     H57905   9.023   5.955   2.314  2.4132 -0.4561  0.6525
  429MOL0     H57906   8.927   6.083   2.371 -1.4427  1.2158 -1.6976
  429MOL0     H57907   9.222   6.092   2.362 -0.0166 -1.1083  1.2732
  429MOL0     H57908   9.114   6.095   2.507  0.4729 -3.3495 -1.2579
  429MOL0     H57909   9.217   6.319   2.473 -1.6457  2.3510  1.2431
  429MOL0     H57910   9.185   6.323   2.303 -2.7344  3.8563  1.3444
  429MOL0     H57911   8.826   6.449   2.358 -0.7223  0.3243  0.8771
  429MOL0     H57912   9.353   6.265   2.133 -1.7723 -1.7930 -0.0223
  429MOL0     H57913   9.536   6.421   1.871 -3.9418 -1.5779 -2.0500
  429MOL0     H57914   9.491   6.547   1.972  1.9389 -0.4396  0.1577
  429MOL0     H57915   9.545   6.411   2.054  1.7847  1.7256 -1.1882
  430MOL0     O57916   1.787   7.662   0.775 -0.2417  0.6878 -0.5901
  430MOL0     C57917   1.870   7.608   0.706 -1.0140  0.7187 -0.0495
  430MOL0     O57918   1.863   7.481   0.665  0.3378 -0.0643 -0.1339
  430MOL0     C57919   1.905   7.444   0.545  1.0614  0.5392 -0.5877
  430MOL0     C57920   1.909   7.527   0.441  0.7222 -0.6021  1.1665
  430MOL0     C57921   1.945   7.475   0.316 -0.0439 -0.1712 -0.8055
  430MOL0     C57922   1.994   7.344   0.293  0.6506 -0.1234  0.6642
  430MOL0     O57923   2.025   7.309   0.163  0.1855  0.1028  0.6670
  430MOL0     C57924   2.043   7.164   0.128 -0.2425 -0.3700  0.7235
  430MOL0     C57925   2.020   7.149  -0.026  0.3841 -0.3824  0.3165
  430MOL0     C57926   1.867   7.169  -0.047 -0.5551 -0.9407 -0.5152
  430MOL0     C57927   1.853   7.172  -0.201  0.6585  0.7180  0.4318
  430MOL0     C57928   1.717   7.180  -0.258 -0.2347 -0.2194  0.6105
  430MOL0     C57929   1.639   7.302  -0.212  0.0094  1.2590 -1.2665
  430MOL0     C57930   1.522   7.322  -0.306  0.2956  1.1010 -0.3304
  430MOL0     C57931   1.557   7.347  -0.454  0.1212 -0.4805 -0.1586
  430MOL0     N57932   1.479   7.454  -0.509  0.1141 -0.4810  0.6578
  430MOL0     C57933   1.476   7.594  -0.485  0.1489  0.5687 -0.6258
  430MOL0     C57934   1.378   7.647  -0.566 -0.4142 -0.5436  0.1097
  430MOL0     C57935   1.335   7.792  -0.562 -0.1044 -0.5200  0.2523
  430MOL0     C57936   1.189   7.820  -0.564 -0.5683  1.3792 -1.2406
  430MOL0     C57937   1.153   7.973  -0.564 -1.0613  0.5701 -0.1540
  430MOL0     C57938   1.000   7.989  -0.604 -0.6198  0.0339 -0.8459
  430MOL0     O57939   0.931   7.927  -0.507 -0.0826 -0.1203 -0.8078
  430MOL0     C57940   0.809   7.869  -0.553  0.3080 -0.8539  0.8543
  430MOL0     C57941   0.754   7.859  -0.680  0.2889 -0.4959 -0.2300
  430MOL0     C57942   0.637   7.792  -0.706  0.5277 -0.3994  0.4157
  430MOL0     C57943   0.568   7.728  -0.595  0.0273  0.0640  0.8991
  430MOL0     C57944   0.440   7.642  -0.615 -0.1449  0.0673 -0.1116
  430MOL0     O57945   0.374   7.584  -0.511 -1.0555  0.3305  0.4413
  430MOL0     C57946   0.247   7.539  -0.529 -0.8667  0.0981 -0.3048
  430MOL0     C57947   0.139   7.613  -0.596 -1.0773  0.1891 -0.0456
  430MOL0     C57948   0.021   7.562  -0.628 -0.5069  0.5402  1.2684
  430MOL0     C57949  -0.000   7.425  -0.614 -0.4713 -0.6717  0.7077
  430MOL0     O57950  -0.117   7.377  -0.659  0.0616 -0.2786  0.0886
  430MOL0     C57951  -0.127   7.240  -0.672  0.5585  0.3160 -1.1730
  430MOL0     C57952  -0.241   7.191  -0.767 -0.1580  0.2925 -0.0908
  430MOL0     C57953  -0.172   7.155  -0.900 -0.7660 -0.3178 -0.1373
  430MOL0     C57954  -0.274   7.144  -1.019 -1.0408  0.0983  0.3031
  430MOL0     C57955  -0.378   7.033  -1.023 -1.4160 -0.5006  0.4853
  430MOL0     C57956  -0.313   6.888  -1.008  0.7468 -0.4872 -0.9300
  430MOL0     C57957  -0.415   6.785  -1.063  0.1030 -1.0398 -0.5700
  430MOL0     C57958  -0.449   6.786  -1.212 -0.5109  0.3417  1.3043
  430MOL0    Cl57959  -0.302   6.803  -1.310 -0.5546 -0.2627  0.9767
  430MOL0     C57960   0.103   7.353  -0.543 -0.0185  0.6141 -0.4684
  430MOL0     C57961   0.222   7.411  -0.500 -0.2730  0.9300 -0.2195
  430MOL0     O57962   0.408   7.625  -0.734  0.1872  0.4471  0.0269
  430MOL0     C57963   0.628   7.741  -0.468  0.4247  0.0479 -0.1216
  430MOL0     C57964   0.741   7.812  -0.444 -0.8072  1.1503  0.9017
  430MOL0     N57965   1.332   7.550  -0.649 -0.2821  0.4284 -0.2490
  430MOL0     N57966   1.391   7.438  -0.614  0.4983 -0.7445  0.3933
  430MOL0     C57967   1.988   7.259   0.406  0.3954 -0.1981  0.7334
  430MOL0     C57968   1.954   7.309   0.534 -0.7620 -0.3365  0.0097
  430MOL0     C57969   2.004   7.687   0.684  0.2189  0.3359  0.0098
  430MOL0     C57970   2.113   7.603   0.657 -0.5568 -0.0654  0.7411
  430MOL0     C57971   2.236   7.662   0.631  1.1001  0.5896 -0.3200
  430MOL0     C57972   2.249   7.798   0.632 -0.4023 -0.3692 -0.9546
  430MOL0     O57973   2.370   7.863   0.605  0.5860  1.2788  0.1728
  430MOL0     C57974   2.488   7.787   0.596 -0.3722  0.6850  0.4869
  430MOL0     C57975   2.598   7.889   0.611 -0.7466 -0.4076 -0.5294
  430MOL0     C57976   2.654   7.934   0.472  0.0293  0.0757  0.5913
  430MOL0     C57977   2.559   8.011   0.378  0.4367 -0.4461 -0.0142
  430MOL0     C57978   2.638   8.068   0.265  0.4206 -1.4616 -0.8613
  430MOL0     C57979   2.721   8.110   0.174  0.9593  0.4147 -0.2835
  430MOL0     C57980   2.136   7.879   0.654 -0.3040 -1.2214 -0.4398
  430MOL0     C57981   2.010   7.829   0.682 -0.1701 -0.2761 -0.0066
  430MOL0     C57982   1.888   7.917   0.698 -0.1404 -0.2817 -0.4473
  430MOL0     H57983   1.868   7.627   0.451 -3.1587 -2.1788  3.1843
  430MOL0     H57984   1.941   7.532   0.223  0.5792 -2.5825 -2.4015
  430MOL0     H57985   2.140   7.119   0.153  1.0022 -0.0291 -2.9324
  430MOL0     H57986   1.972   7.100   0.181 -0.3466  0.5639  1.7538
  430MOL0     H57987   2.056   7.052  -0.062  0.0027 -0.0425 -1.0301
  430MOL0     H57988   2.091   7.219  -0.070 -0.0241 -0.4434 -0.4406
  430MOL0     H57989   1.832   7.261  -0.000 -0.9176 -1.9355  1.2919
  430MOL0     H57990   1.811   7.080  -0.018 -2.5438  0.5418  0.3901
  430MOL0     H57991   1.914   7.257  -0.233  0.6411  0.6278  0.1654
  430MOL0     H57992   1.908   7.089  -0.246  0.1253 -0.1535  1.3518
  430MOL0     H57993   1.726   7.190  -0.366  1.9595 -0.7907  0.7046
  430MOL0     H57994   1.670   7.082  -0.244  1.5617 -1.1912  0.1357
  430MOL0     H57995   1.603   7.285  -0.110  1.0918 -2.3910 -1.3214
  430MOL0     H57996   1.712   7.383  -0.211  2.3074 -0.5826  1.7825
  430MOL0     H57997   1.456   7.403  -0.274 -2.0109 -1.3683  1.7045
  430MOL0     H57998   1.457   7.234  -0.296  2.5535 -0.4944  1.2065
  430MOL0     H57999   1.665   7.362  -0.461  0.4002 -2.3751 -0.5260
  430MOL0     H58000   1.532   7.254  -0.507 -4.6867 -1.0910  2.5551
  430MOL0     H58001   1.538   7.656  -0.420 -0.7491 -0.1228  0.9646
  430MOL0     H58002   1.367   7.845  -0.472 -1.4281  0.6853  0.0556
  430MOL0     H58003   1.372   7.820  -0.660 -2.8205  1.1203 -0.4141
  430MOL0     H58004   1.147   7.764  -0.647 -1.4470  2.2072 -1.3679
  430MOL0     H58005   1.146   7.774  -0.474  2.8598 -1.8845 -0.9981
  430MOL0     H58006   1.210   8.038  -0.631 -1.2193  3.3020  2.1273
  430MOL0     H58007   1.172   8.005  -0.461  0.9714 -0.5755 -0.1426
  430MOL0     H58008   0.991   7.952  -0.706 -1.3617  0.1901 -0.8400
  430MOL0     H58009   0.964   8.093  -0.608  2.3701  1.1694 -0.6964
  430MOL0     H58010   0.797   7.908  -0.767  1.4209 -0.7796  0.1445
  430MOL0     H58011   0.607   7.785  -0.810  2.5651 -3.2429 -0.1088
  430MOL0     H58012   0.148   7.721  -0.603 -0.3197  0.3668  2.4677
  430MOL0     H58013  -0.045   7.629  -0.683  0.8836  0.9535  0.0372
  430MOL0     H58014  -0.031   7.203  -0.708 -0.4240 -3.9513  0.0269
  430MOL0     H58015  -0.150   7.193  -0.576 -0.8265 -0.5468 -1.9010
  430MOL0     H58016  -0.283   7.102  -0.719  1.5151  0.5470  1.9487
  430MOL0     H58017  -0.315   7.270  -0.783  1.5915  1.5392 -2.7467
  430MOL0     H58018  -0.096   7.230  -0.923  0.8083 -1.5280  0.9199
  430MOL0     H58019  -0.121   7.058  -0.895  1.4260  0.5451 -2.9804
  430MOL0     H58020  -0.218   7.136  -1.113 -0.5092 -1.3195  0.7081
  430MOL0     H58021  -0.328   7.239  -1.028 -0.9083  0.0821 -0.8758
  430MOL0     H58022  -0.430   7.042  -1.119  1.5774 -2.3581 -1.4958
  430MOL0     H58023  -0.452   7.043  -0.942 -1.2899 -2.2034  0.8518
  430MOL0     H58024  -0.215   6.881  -1.056  0.6642 -1.4239 -0.9680
  430MOL0     H58025  -0.295   6.875  -0.901  3.4795 -1.7681 -1.4694
  430MOL0     H58026  -0.511   6.802  -1.015  0.7615  0.4095  0.2773
  430MOL0     H58027  -0.388   6.686  -1.023 -0.1290  0.0953  2.6379
  430MOL0     H58028  -0.496   6.690  -1.236 -0.4784  0.0617  2.2987
  430MOL0     H58029  -0.527   6.852  -1.251 -1.5690 -2.5246 -1.8996
  430MOL0     H58030   0.106   7.249  -0.512 -1.4658  0.0267 -2.1340
  430MOL0     H58031   0.302   7.347  -0.466  1.0724  1.7380 -1.7607
  430MOL0     H58032   0.570   7.690  -0.392 -0.0074 -1.6933 -1.5444
  430MOL0     H58033   0.794   7.808  -0.350  2.5730 -3.0478 -0.8378
  430MOL0     H58034   2.002   7.154   0.387 -4.4438 -1.2164  1.4964
  430MOL0     H58035   1.966   7.254   0.627 -0.5805 -0.6486 -0.1975
  430MOL0     H58036   2.101   7.496   0.674 -0.1358 -0.0208  1.3673
  430MOL0     H58037   2.320   7.602   0.598 -0.8462 -1.5612 -1.7241
  430MOL0     H58038   2.496   7.732   0.502  0.5366 -0.1736  1.0408
  430MOL0     H58039   2.498   7.723   0.684 -1.4113 -1.6292 -0.9851
  430MOL0     H58040   2.674   7.826   0.658 -1.0129 -0.6026 -0.3550
  430MOL0     H58041   2.567   7.972   0.675 -1.2591 -2.4142  2.0387
  430MOL0     H58042   2.684   7.845   0.415 -3.3664 -0.2367 -0.9714
  430MOL0     H58043   2.743   7.994   0.492  2.2948 -3.3892  1.8556
  430MOL0     H58044   2.490   7.938   0.335  0.7082 -0.5669 -0.2480
  430MOL0     H58045   2.509   8.095   0.427  0.4087 -1.0672  1.0598
  430MOL0     H58046   2.777   8.153   0.093  0.7111  1.3849  0.0387
  430MOL0     H58047   2.149   7.987   0.656  0.2420 -1.1426 -3.5278
  430MOL0     H58048   1.920   8.017   0.667 -2.5953  1.0184  0.8913
  430MOL0     H58049   1.810   7.902   0.623 -0.1821  1.8866 -0.9024
  430MOL0     H58050   1.853   7.907   0.802 -1.8000  0.4211 -0.9178
  431MOL0     O58051   0.212   1.587   7.378  0.4693  0.8165  0.4672
  431MOL0     C58052   0.135   1.483   7.399 -0.2257  0.4290  0.3541
  431MOL0     O58053   0.171   1.352   7.379 -0.6576 -0.5696  0.2998
  431MOL0     C58054   0.310   1.330   7.370  0.9375  0.5984  0.4033
  431MOL0     C58055   0.347   1.279   7.243  0.5457  0.0552 -0.2385
  431MOL0     C58056   0.472   1.231   7.212  0.4511  0.0993  0.0571
  431MOL0     C58057   0.572   1.238   7.316  0.3902 -0.2453  0.6512
  431MOL0     O58058   0.695   1.172   7.298  0.4440  0.0609  0.8741
  431MOL0     C58059   0.708   1.045   7.352  0.5031  0.4007  0.0529
  431MOL0     C58060   0.781   0.934   7.271  0.0022  0.1980 -0.3872
  431MOL0     C58061   0.780   0.793   7.341  0.3797 -0.8402 -0.2286
  431MOL0     C58062   0.917   0.758   7.401 -0.2165  0.3280 -0.2458
  431MOL0     C58063   0.924   0.647   7.513  0.7130 -0.8761  0.0584
  431MOL0     C58064   0.927   0.708   7.651 -0.5797  0.4133 -0.1234
  431MOL0     C58065   0.935   0.595   7.761  0.2628 -0.1091  0.2354
  431MOL0     C58066   0.918   0.642   7.898 -0.5222 -0.0642  0.3768
  431MOL0     N58067   0.790   0.718   7.906  0.3983 -0.0045  0.2920
  431MOL0     C58068   0.763   0.851   7.908 -0.8613 -0.2692 -0.4996
  431MOL0     C58069   0.634   0.865   7.959 -1.3538  0.0272  0.4974
  431MOL0     C58070   0.568   0.994   8.002 -0.5613  0.0187 -0.1125
  431MOL0     C58071   0.495   1.045   7.877 -0.4197  1.0067  0.0616
  431MOL0     C58072   0.424   1.175   7.905  0.2077  0.2702 -0.2554
  431MOL0     C58073   0.298   1.183   7.817 -0.2836  0.3913  0.3520
  431MOL0     O58074   0.233   1.304   7.818 -0.1200 -0.0589  1.0304
  431MOL0     C58075   0.131   1.339   7.906 -0.5986  0.1271 -0.3207
  431MOL0     C58076   0.121   1.307   8.041  0.0464  0.2578  1.0363
  431MOL0     C58077   0.013   1.343   8.120  0.7268  0.5656 -0.4744
  431MOL0     C58078  -0.089   1.416   8.064 -0.4851 -0.3994  0.2246
  431MOL0     C58079  -0.202   1.478   8.149 -0.3767 -0.5055 -0.2683
  431MOL0     O58080  -0.280   1.564   8.079  0.1890  0.4868  0.2313
  431MOL0     C58081  -0.367   1.630   8.173 -0.3203  0.2613 -0.7099
  431MOL0     C58082  -0.330   1.753   8.223  0.4525  0.2418  0.3873
  431MOL0     C58083  -0.424   1.833   8.281 -0.4382  0.1262 -0.7576
  431MOL0     C58084  -0.557   1.785   8.311 -0.3434  0.6225  0.0187
  431MOL0     O58085  -0.652   1.867   8.376  0.0472 -0.1094 -1.0499
  431MOL0     C58086  -0.611   1.949   8.489 -0.8623 -0.2491 -0.0504
  431MOL0     C58087  -0.579   2.092   8.436  0.7384 -0.4436 -0.1679
  431MOL0     C58088  -0.522   2.184   8.548  0.4895 -0.8543 -1.5599
  431MOL0     C58089  -0.632   2.240   8.634 -0.5261 -0.5422 -0.5002
  431MOL0     C58090  -0.558   2.348   8.722  0.9829  0.4576  0.9326
  431MOL0     C58091  -0.653   2.395   8.835  0.5050  0.9134  0.6000
  431MOL0     C58092  -0.693   2.294   8.951  0.0844 -0.1310 -0.4794
  431MOL0     C58093  -0.766   2.352   9.066  0.0436 -0.4243 -0.1918
  431MOL0    Cl58094  -0.694   2.497   9.126  0.4319 -0.1466 -0.6182
  431MOL0     C58095  -0.593   1.655   8.262 -0.6097  0.3252 -0.7242
  431MOL0     C58096  -0.497   1.585   8.187  1.2935  1.0346 -0.6623
  431MOL0     O58097  -0.227   1.441   8.273  0.3780 -0.2484 -0.2241
  431MOL0     C58098  -0.072   1.463   7.933 -0.2494 -0.1179 -0.6377
  431MOL0     C58099   0.038   1.422   7.856  0.5437  0.1895  0.1768
  431MOL0     N58100   0.586   0.737   7.994  0.0569 -0.3138  0.2423
  431MOL0     N58101   0.685   0.649   7.963 -0.2172  0.7658  0.2401
  431MOL0     C58102   0.545   1.301   7.439 -0.5970 -0.9223 -0.7082
  431MOL0     C58103   0.407   1.326   7.471 -0.4727 -0.5091  0.6703
  431MOL0     C58104  -0.010   1.509   7.433 -0.7785 -0.4700 -0.3626
  431MOL0     C58105  -0.076   1.409   7.504 -0.4004  0.6850  0.8541
  431MOL0     C58106  -0.197   1.431   7.557  1.4438  0.2103 -0.3433
  431MOL0     C58107  -0.266   1.547   7.558  0.5249 -0.4221 -0.8601
  431MOL0     O58108  -0.378   1.552   7.636 -0.7732 -0.0023  0.3089
  431MOL0     C58109  -0.418   1.681   7.669  0.1552  0.5247 -0.0993
  431MOL0     C58110  -0.556   1.679   7.743 -0.7111 -0.1153 -0.2182
  431MOL0     C58111  -0.684   1.644   7.654 -0.7751 -0.3858 -0.8063
  431MOL0     C58112  -0.782   1.762   7.614 -0.1261  1.2091 -1.2024
  431MOL0     C58113  -0.825   1.826   7.741 -0.7736  0.6607  0.5393
  431MOL0     C58114  -0.843   1.885   7.850  0.4339  0.2428  0.0272
  431MOL0     C58115  -0.206   1.655   7.493 -0.6834 -0.1565 -0.5544
  431MOL0     C58116  -0.080   1.641   7.424 -0.3554 -0.1129 -0.3230
  431MOL0     C58117  -0.026   1.769   7.357  0.6501 -0.6187 -0.3871
  431MOL0     H58118   0.274   1.301   7.166  3.0268 -0.3189 -2.8694
  431MOL0     H58119   0.503   1.197   7.114 -0.7395 -1.0522  0.0454
  431MOL0     H58120   0.749   1.059   7.452 -0.6406 -0.8786  0.7398
  431MOL0     H58121   0.610   0.998   7.363 -0.2909  1.6483 -1.2742
  431MOL0     H58122   0.885   0.965   7.277  0.0547 -0.1730  1.1882
  431MOL0     H58123   0.745   0.930   7.168 -0.6526  0.4828 -0.1763
  431MOL0     H58124   0.763   0.712   7.270 -4.7508  1.1121 -1.7358
  431MOL0     H58125   0.692   0.784   7.405  0.5359 -2.0031 -0.1570
  431MOL0     H58126   0.981   0.724   7.319 -1.3874 -2.1914 -0.1987
  431MOL0     H58127   0.953   0.850   7.449 -2.1085 -0.3091  2.5906
  431MOL0     H58128   0.838   0.579   7.515 -0.4973  0.5968  1.7322
  431MOL0     H58129   1.019   0.594   7.504  0.9406 -0.8786  2.0215
  431MOL0     H58130   1.024   0.759   7.655 -1.1007  1.4463 -0.4460
  431MOL0     H58131   0.835   0.767   7.656  0.0935  1.4161  0.8043
  431MOL0     H58132   1.030   0.542   7.753  0.5338  0.4095 -0.0482
  431MOL0     H58133   0.867   0.512   7.742 -0.6833 -0.5015  4.4139
  431MOL0     H58134   0.929   0.562   7.972 -3.5882  0.0290  1.0459
  431MOL0     H58135   1.000   0.711   7.921  0.3844 -1.0410  0.1426
  431MOL0     H58136   0.833   0.929   7.877  1.3253 -1.6294  0.7708
  431MOL0     H58137   0.495   0.965   8.078 -0.2360 -3.4586 -0.9786
  431MOL0     H58138   0.647   1.055   8.048 -2.2005  1.5149  0.8381
  431MOL0     H58139   0.570   1.066   7.800 -2.6579 -0.0661 -2.5861
  431MOL0     H58140   0.436   0.958   7.847  2.5050 -0.8409 -0.8714
  431MOL0     H58141   0.487   1.257   7.868 -0.5374  1.3539  0.7837
  431MOL0     H58142   0.407   1.198   8.011 -0.5821 -0.5993 -0.1856
  431MOL0     H58143   0.232   1.106   7.858 -0.6118 -0.8420 -2.2644
  431MOL0     H58144   0.322   1.166   7.712 -0.8689  1.5461  0.0078
  431MOL0     H58145   0.208   1.278   8.099 -0.0840  0.2507  1.2288
  431MOL0     H58146   0.005   1.331   8.227 -2.5133 -2.9187 -0.9101
  431MOL0     H58147  -0.226   1.786   8.218  1.0506 -1.6362 -2.8674
  431MOL0     H58148  -0.396   1.924   8.334 -1.6750  0.3245 -0.4225
  431MOL0     H58149  -0.688   1.963   8.565 -0.0982  1.0087  0.5262
  431MOL0     H58150  -0.524   1.905   8.539 -0.7798  0.4184  0.4073
  431MOL0     H58151  -0.520   2.085   8.343 -0.5227 -0.6643 -0.9748
  431MOL0     H58152  -0.673   2.124   8.391  0.8177 -0.6807 -0.5080
  431MOL0     H58153  -0.455   2.124   8.609 -1.5629 -1.5065  0.1942
  431MOL0     H58154  -0.464   2.264   8.501  0.4612  1.0221  1.3431
  431MOL0     H58155  -0.683   2.163   8.692 -2.0752  0.3490 -0.6351
  431MOL0     H58156  -0.707   2.298   8.579 -0.4220 -0.7389 -0.8531
  431MOL0     H58157  -0.527   2.428   8.653  0.8686  0.0531  0.4048
  431MOL0     H58158  -0.466   2.312   8.768 -0.2306  1.2221  4.2244
  431MOL0     H58159  -0.588   2.466   8.887  1.3230 -0.5416  1.6375
  431MOL0     H58160  -0.742   2.444   8.793  0.7729  1.7392  0.9796
  431MOL0     H58161  -0.594   2.261   8.983 -1.0776 -1.4282  2.0286
  431MOL0     H58162  -0.757   2.222   8.901 -1.4472  2.5413 -2.6977
  431MOL0     H58163  -0.872   2.358   9.040 -0.0919 -0.0130  0.4376
  431MOL0     H58164  -0.758   2.282   9.150 -2.7149 -0.2959  0.2772
  431MOL0     H58165  -0.693   1.618   8.283  0.6731 -1.2979  3.6531
  431MOL0     H58166  -0.510   1.485   8.148  2.3205  0.2816  0.8302
  431MOL0     H58167  -0.146   1.515   7.873 -1.4610 -1.5536 -0.4451
  431MOL0     H58168   0.047   1.445   7.750  2.4602 -0.2540  0.2209
  431MOL0     H58169   0.624   1.304   7.513 -1.8772  0.4747  0.6752
  431MOL0     H58170   0.370   1.352   7.569 -1.7402  1.5628 -0.2772
  431MOL0     H58171  -0.030   1.311   7.502 -0.1257  0.7744 -1.9220
  431MOL0     H58172  -0.243   1.347   7.609  0.2736  0.7625 -0.4569
  431MOL0     H58173  -0.442   1.731   7.575  1.2660  1.8380  0.2964
  431MOL0     H58174  -0.349   1.741   7.729  2.7152  0.7970 -3.0833
  431MOL0     H58175  -0.571   1.781   7.780 -2.5244 -1.3014  2.6881
  431MOL0     H58176  -0.560   1.608   7.826  1.3979  0.3633  0.3503
  431MOL0     H58177  -0.734   1.568   7.714 -1.5985  1.8181  1.4751
  431MOL0     H58178  -0.645   1.607   7.559 -1.1022  2.6475 -2.2389
  431MOL0     H58179  -0.732   1.837   7.553  0.3607 -1.0186 -3.7596
  431MOL0     H58180  -0.865   1.728   7.551 -1.5647 -0.4470  1.4013
  431MOL0     H58181  -0.864   1.922   7.948 -1.9561 -0.4732 -0.1617
  431MOL0     H58182  -0.253   1.753   7.493 -0.3484  0.0081 -0.1369
  431MOL0     H58183  -0.100   1.849   7.357  1.3086  0.0501  1.7290
  431MOL0     H58184   0.050   1.809   7.425  2.1872  1.8836 -3.3562
  431MOL0     H58185   0.026   1.751   7.262  2.6411 -1.6011  0.8264
  432MOL0     O58186   7.229   6.850   1.630 -0.6821 -0.1101  0.3494
  432MOL0     C58187   7.153   6.869   1.726 -0.0943  0.2011 -0.1098
  432MOL0     O58188   7.125   6.992   1.785  0.8124 -0.1887  0.3161
  432MOL0     C58189   7.186   7.110   1.739  0.5161  0.5003  0.1165
  432MOL0     C58190   7.315   7.133   1.754  0.4156  0.0318 -0.9262
  432MOL0     C58191   7.381   7.239   1.696  1.1621 -0.4886 -1.0121
  432MOL0     C58192   7.313   7.341   1.632  0.4650  0.5335  0.1538
  432MOL0     O58193   7.389   7.443   1.578  0.2999 -0.4003 -0.3008
  432MOL0     C58194   7.315   7.537   1.479  0.8971  0.2849  0.5025
  432MOL0     C58195   7.417   7.590   1.398 -1.3651  0.1439  1.4203
  432MOL0     C58196   7.368   7.677   1.283  0.1313 -0.3242  0.1463
  432MOL0     C58197   7.434   7.812   1.266 -1.0977  0.4652 -0.2782
  432MOL0     C58198   7.381   7.930   1.360  0.2119  1.0929 -0.4138
  432MOL0     C58199   7.321   8.057   1.298 -0.4029  0.2659  0.5924
  432MOL0     C58200   7.187   8.041   1.220 -0.0324  0.5254  0.5417
  432MOL0     C58201   7.068   7.983   1.307  1.1231  0.3331 -0.1676
  432MOL0     N58202   7.035   8.073   1.413 -0.2177  0.1617 -0.2350
  432MOL0     C58203   6.924   8.163   1.399 -1.0782  0.2438  0.3338
  432MOL0     C58204   6.928   8.233   1.516  0.4436 -0.5319  0.6419
  432MOL0     C58205   6.841   8.351   1.538 -0.5512 -1.2977 -0.1902
  432MOL0     C58206   6.875   8.474   1.456 -0.5409 -0.5399  0.7852
  432MOL0     C58207   6.798   8.596   1.479  0.9296  0.3985  0.3308
  432MOL0     C58208   6.813   8.700   1.366 -0.1171 -0.1316  0.3756
  432MOL0     O58209   6.733   8.660   1.251  0.0632 -0.6310 -0.3996
  432MOL0     C58210   6.726   8.762   1.156  0.5572 -0.1508 -0.1046
  432MOL0     C58211   6.667   8.731   1.035  0.7607  0.3908  0.3571
  432MOL0     C58212   6.656   8.828   0.929 -1.2501 -0.0192 -0.5100
  432MOL0     C58213   6.692   8.965   0.947  0.6623 -0.0315  1.5345
  432MOL0     C58214   6.675   9.065   0.836  0.0731  1.0213 -0.6587
  432MOL0     O58215   6.737   9.185   0.867 -0.0609  0.1516 -0.1428
  432MOL0     C58216   6.704   9.295   0.786  0.2173  0.4498  0.8638
  432MOL0     C58217   6.773   9.321   0.667 -0.8041 -0.0418 -0.2111
  432MOL0     C58218   6.735   9.440   0.591  0.6170  0.3476  0.4005
  432MOL0     C58219   6.661   9.538   0.647  0.3999  0.1447  0.5025
  432MOL0     O58220   6.653   9.657   0.576 -0.5660 -0.1301 -0.1809
  432MOL0     C58221   6.527   9.721   0.587  0.2128  0.4858  0.1340
  432MOL0     C58222   6.513   9.800   0.460  0.4555  0.6669 -1.1307
  432MOL0     C58223   6.382   9.884   0.460 -0.2192 -0.0303 -0.2135
  432MOL0     C58224   6.265   9.795   0.407  0.0445  0.4766  0.1124
  432MOL0     C58225   6.165   9.895   0.334 -0.6063 -0.2950  0.0954
  432MOL0     C58226   6.049   9.821   0.267  0.4466  0.7591 -0.3162
  432MOL0     C58227   5.947   9.788   0.378  0.6438  0.2700 -0.3745
  432MOL0     C58228   5.806   9.752   0.336  0.7191  0.1857  0.0142
  432MOL0    Cl58229   5.786   9.574   0.350 -0.5819  0.3007 -0.3728
  432MOL0     C58230   6.579   9.502   0.754 -0.7172 -0.1747 -1.2205
  432MOL0     C58231   6.606   9.380   0.817  0.4391 -0.5874  0.6912
  432MOL0     O58232   6.604   9.035   0.740  0.2319  0.6280 -0.2027
  432MOL0     C58233   6.751   8.995   1.066 -0.4634  0.7021 -0.0623
  432MOL0     C58234   6.762   8.905   1.173  0.2430  0.8556  0.5464
  432MOL0     N58235   7.022   8.171   1.596  0.3008 -0.1248  0.4487
  432MOL0     N58236   7.083   8.072   1.542  0.0142  0.3431 -0.6733
  432MOL0     C58237   7.173   7.329   1.641  0.0885 -0.4739  0.4211
  432MOL0     C58238   7.106   7.215   1.688 -0.0654 -0.5239  1.0169
  432MOL0     C58239   7.080   6.750   1.784  0.4177  0.3733 -0.3417
  432MOL0     C58240   7.004   6.771   1.898  0.5477 -0.7627  0.0015
  432MOL0     C58241   6.924   6.682   1.959  1.0418 -0.2497  0.1640
  432MOL0     C58242   6.913   6.551   1.902  0.2202 -0.4316  0.1375
  432MOL0     O58243   6.841   6.455   1.981  0.1605 -0.3518 -0.0719
  432MOL0     C58244   6.846   6.312   1.955 -0.9079  0.1496  0.7395
  432MOL0     C58245   6.747   6.290   1.844 -0.3290 -0.2523 -0.3621
  432MOL0     C58246   6.722   6.137   1.843  0.0825 -0.4887  0.4578
  432MOL0     C58247   6.601   6.099   1.766 -0.3025  0.5048  1.0112
  432MOL0     C58248   6.570   5.962   1.782 -0.2910 -0.2415 -0.9246
  432MOL0     C58249   6.546   5.845   1.801 -0.6584 -1.1384 -0.0285
  432MOL0     C58250   6.979   6.524   1.786  0.2620  0.3326 -0.5507
  432MOL0     C58251   7.060   6.625   1.722  0.4067 -0.3044 -0.2741
  432MOL0     C58252   7.134   6.599   1.596  0.4443 -0.8504  0.0397
  432MOL0     H58253   7.379   7.056   1.797  1.1750  1.0886 -0.0993
  432MOL0     H58254   7.489   7.229   1.689  1.0740 -0.5208 -2.7059
  432MOL0     H58255   7.249   7.488   1.407 -1.3298  1.8927  1.3355
  432MOL0     H58256   7.265   7.616   1.535  0.6684 -1.2082  2.5275
  432MOL0     H58257   7.470   7.499   1.366  2.2196  2.1788  0.9649
  432MOL0     H58258   7.501   7.627   1.458  0.4360 -0.8531 -0.3459
  432MOL0     H58259   7.260   7.693   1.296  0.5235  0.7818  2.3781
  432MOL0     H58260   7.379   7.612   1.196 -1.3140 -1.1495  0.5418
  432MOL0     H58261   7.540   7.801   1.293  0.3723  1.1572 -4.8883
  432MOL0     H58262   7.406   7.840   1.164 -3.1376 -1.7360 -0.4139
  432MOL0     H58263   7.320   7.886   1.439 -1.2646 -4.2320 -3.9927
  432MOL0     H58264   7.476   7.954   1.409 -0.3214  0.0723  1.1882
  432MOL0     H58265   7.310   8.129   1.379 -0.6743  1.2203 -0.2603
  432MOL0     H58266   7.407   8.087   1.236 -0.1153 -2.5604 -0.5186
  432MOL0     H58267   7.204   7.990   1.125 -0.2867  1.6011 -0.0893
  432MOL0     H58268   7.162   8.143   1.189  0.3272  0.9552  1.6030
  432MOL0     H58269   6.978   7.957   1.251  1.4807 -2.2794  0.3257
  432MOL0     H58270   7.096   7.887   1.353 -2.6047 -2.9359 -3.8667
  432MOL0     H58271   6.874   8.199   1.310 -1.1843  1.5084  0.8903
  432MOL0     H58272   6.733   8.337   1.524 -1.3711  1.8046  1.7370
  432MOL0     H58273   6.842   8.387   1.641 -1.5404  0.1748 -0.6560
  432MOL0     H58274   6.978   8.498   1.484 -0.1977  1.1242 -1.5618
  432MOL0     H58275   6.882   8.452   1.349 -0.4900  0.1870  0.6329
  432MOL0     H58276   6.837   8.643   1.570  3.0684  0.2920 -0.4680
  432MOL0     H58277   6.692   8.581   1.503  0.8077  1.2967  0.3974
  432MOL0     H58278   6.916   8.709   1.330 -0.2616  1.1895  0.2484
  432MOL0     H58279   6.781   8.794   1.411  2.4265 -0.1767  2.5110
  432MOL0     H58280   6.631   8.630   1.016  0.2515  0.5155  0.6178
  432MOL0     H58281   6.622   8.785   0.836 -1.2656 -0.0655 -0.4832
  432MOL0     H58282   6.845   9.249   0.630 -2.3134 -1.6643 -0.0830
  432MOL0     H58283   6.784   9.455   0.495  1.2271 -1.1596  0.4441
  432MOL0     H58284   6.439   9.656   0.589 -1.1731  2.2940  0.3149
  432MOL0     H58285   6.534   9.789   0.672  0.7121  2.6581 -1.5495
  432MOL0     H58286   6.603   9.862   0.463 -0.4598  2.0116  0.8629
  432MOL0     H58287   6.523   9.738   0.370  0.4368  0.5850 -1.0766
  432MOL0     H58288   6.366   9.944   0.551  2.0890  1.3038 -0.6070
  432MOL0     H58289   6.392   9.959   0.382 -2.8445  1.4666  0.7352
  432MOL0     H58290   6.207   9.749   0.487 -0.3022 -0.1155 -0.4692
  432MOL0     H58291   6.300   9.714   0.343  0.9018  1.4095 -0.6278
  432MOL0     H58292   6.226   9.956   0.265 -2.3305  0.6114 -0.6851
  432MOL0     H58293   6.126   9.971   0.402  1.0496  0.6560  0.0542
  432MOL0     H58294   5.994   9.869   0.185 -0.8864  0.5858  0.4564
  432MOL0     H58295   6.090   9.726   0.233  1.1934  1.7498 -2.3507
  432MOL0     H58296   5.950   9.881   0.437 -1.9551  0.6525 -0.7445
  432MOL0     H58297   5.977   9.703   0.440 -2.5003  0.1699  1.2087
  432MOL0     H58298   5.741   9.788   0.416  0.4631  0.2412 -0.2152
  432MOL0     H58299   5.776   9.791   0.238 -0.6306 -0.7447  0.0274
  432MOL0     H58300   6.509   9.574   0.795 -2.0491 -3.3618  2.7561
  432MOL0     H58301   6.560   9.363   0.914  3.7000 -3.1466  1.9952
  432MOL0     H58302   6.790   9.091   1.100  0.1455  0.0519  1.1810
  432MOL0     H58303   6.805   8.945   1.264  1.0096  2.0211 -0.2887
  432MOL0     H58304   7.110   7.410   1.606  1.8662  0.4023 -0.8922
  432MOL0     H58305   6.999   7.217   1.705 -0.6092  1.5399 -1.9127
  432MOL0     H58306   7.023   6.861   1.957  1.4102 -2.6442  2.7833
  432MOL0     H58307   6.872   6.720   2.046 -3.3654  1.5496 -2.8473
  432MOL0     H58308   6.819   6.257   2.045 -1.2072 -0.6489  0.1709
  432MOL0     H58309   6.942   6.264   1.935 -3.5141 -5.0743 -1.0112
  432MOL0     H58310   6.765   6.330   1.744 -4.2174 -1.1845 -1.6209
  432MOL0     H58311   6.655   6.339   1.879  1.0985  4.4259 -2.3448
  432MOL0     H58312   6.711   6.086   1.939 -1.1604  0.6770  0.9565
  432MOL0     H58313   6.812   6.094   1.797 -0.1963  0.0623 -0.6348
  432MOL0     H58314   6.513   6.145   1.811 -3.3105 -2.7024 -1.0939
  432MOL0     H58315   6.612   6.108   1.657  2.8050 -2.5825  0.9054
  432MOL0     H58316   6.519   5.743   1.818  0.5395 -1.1664  2.1366
  432MOL0     H58317   6.976   6.431   1.730 -3.7355  1.3106 -2.3219
  432MOL0     H58318   7.241   6.614   1.614 -0.2057  2.3937  2.1167
  432MOL0     H58319   7.119   6.498   1.558  0.8526 -0.4633 -1.2295
  432MOL0     H58320   7.098   6.669   1.519  1.8029 -0.0315  0.1113
  433MOL0     O58321   9.719   6.458   1.115 -0.2681  0.5705  0.4728
  433MOL0     C58322   9.798   6.442   1.207 -0.9314  0.4297 -1.5993
  433MOL0     O58323   9.930   6.465   1.197  0.0507 -0.2938  0.7712
  433MOL0     C58324   9.989   6.532   1.087  0.2575  0.8763  0.5615
  433MOL0     C58325   9.950   6.659   1.047  1.0993 -0.4533  0.5721
  433MOL0     C58326  10.023   6.731   0.945  0.1059  0.4549  0.2237
  433MOL0     C58327  10.133   6.678   0.888 -0.8238  0.3607 -0.2562
  433MOL0     O58328  10.194   6.727   0.774  0.4250  0.2054  0.3051
  433MOL0     C58329  10.211   6.873   0.773 -0.0313 -0.5060  0.7193
  433MOL0     C58330  10.271   6.912   0.645 -0.1218  0.3205  0.1591
  433MOL0     C58331  10.188   6.881   0.518  0.0923 -0.0472  0.9431
  433MOL0     C58332  10.249   6.934   0.389 -0.4408  0.2623 -0.7267
  433MOL0     C58333  10.406   6.905   0.373  0.1599  0.2182  0.5429
  433MOL0     C58334  10.464   6.955   0.234 -0.8170  0.2181 -0.3439
  433MOL0     C58335  10.616   6.918   0.216  0.7409 -0.3776 -0.6401
  433MOL0     C58336  10.657   6.934   0.072  0.0458 -0.4276 -0.6115
  433MOL0     N58337  10.633   7.074   0.025 -0.7333  0.5492  0.6561
  433MOL0     C58338  10.524   7.124  -0.040 -0.8021 -0.0815 -0.4969
  433MOL0     C58339  10.554   7.245  -0.091 -0.9240 -0.3262  0.4453
  433MOL0     C58340  10.451   7.342  -0.154 -1.0214 -0.3983 -0.4109
  433MOL0     C58341  10.395   7.305  -0.299 -1.3985  0.2139  0.9235
  433MOL0     C58342  10.307   7.418  -0.358 -0.0383 -0.1278  1.4744
  433MOL0     C58343  10.189   7.445  -0.272 -0.5139  0.6889  0.0492
  433MOL0     O58344  10.084   7.526  -0.326 -0.1935 -0.4647 -0.0594
  433MOL0     C58345  10.000   7.568  -0.229 -0.8068  0.8860  0.9287
  433MOL0     C58346   9.898   7.499  -0.181  0.5006 -0.4119 -0.8176
  433MOL0     C58347   9.819   7.542  -0.072 -1.1242  0.2843  0.1904
  433MOL0     C58348   9.857   7.661  -0.009 -0.1072 -0.3017 -0.2109
  433MOL0     C58349   9.806   7.706   0.125  0.5221  0.4580  0.2234
  433MOL0     O58350   9.742   7.617   0.213 -0.3394 -0.3658  0.1777
  433MOL0     C58351   9.731   7.652   0.344  0.1394 -0.4048  0.0395
  433MOL0     C58352   9.841   7.688   0.419  0.2801 -0.4255 -0.0457
  433MOL0     C58353   9.829   7.725   0.553  0.1347  0.7538 -0.6730
  433MOL0     C58354   9.702   7.722   0.616  0.6020 -0.7088  0.4151
  433MOL0     O58355   9.681   7.748   0.749  0.1544 -0.5627 -0.8373
  433MOL0     C58356   9.734   7.863   0.811 -0.0167 -0.1674  0.0194
  433MOL0     C58357   9.642   7.987   0.801 -0.7345  0.4509 -1.0465
  433MOL0     C58358   9.726   8.097   0.865 -0.7726 -0.2996 -0.8721
  433MOL0     C58359   9.639   8.219   0.883 -0.3227 -0.3686 -0.2129
  433MOL0     C58360   9.717   8.343   0.933 -0.0706 -0.2870 -0.4205
  433MOL0     C58361   9.714   8.328   1.084  0.7239  1.2395 -0.2220
  433MOL0     C58362   9.710   8.472   1.150  0.1161  0.5286  0.9734
  433MOL0     C58363   9.580   8.559   1.149 -0.7051 -0.1908  0.4848
  433MOL0    Cl58364   9.580   8.675   1.282  0.0590  0.1717  0.1280
  433MOL0     C58365   9.592   7.673   0.541  0.8841 -0.3215  0.1913
  433MOL0     C58366   9.605   7.634   0.412 -0.2227  0.0334  0.6707
  433MOL0     O58367   9.824   7.832   0.139  0.5321  0.1847  0.6725
  433MOL0     C58368   9.965   7.736  -0.062 -0.3571  1.1988 -0.0615
  433MOL0     C58369  10.023   7.693  -0.180  0.0790 -0.4256  0.7911
  433MOL0     N58370  10.682   7.275  -0.046 -0.9301 -0.8227  0.3381
  433MOL0     N58371  10.720   7.174   0.024  0.4586  0.9139 -0.3514
  433MOL0     C58372  10.172   6.544   0.928  0.2216  0.9372  0.6504
  433MOL0     C58373  10.099   6.482   1.030  0.2074 -0.3388 -0.1699
  433MOL0     C58374   9.751   6.392   1.338  0.2799  0.0977 -1.2747
  433MOL0     C58375   9.669   6.277   1.347 -0.1170  0.9244  0.9263
  433MOL0     C58376   9.657   6.212   1.467 -0.1160 -0.2212  0.1628
  433MOL0     C58377   9.684   6.292   1.578  0.2719 -0.5582 -0.0048
  433MOL0     O58378   9.664   6.242   1.706 -0.4464  0.3347 -0.1225
  433MOL0     C58379   9.566   6.138   1.731  0.1031 -0.1005  1.1247
  433MOL0     C58380   9.566   6.093   1.874 -0.8997  0.4402  0.1078
  433MOL0     C58381   9.504   5.955   1.895  0.8845  0.4558  0.0182
  433MOL0     C58382   9.417   5.950   2.023 -0.3153  0.5225  0.4796
  433MOL0     C58383   9.484   5.993   2.137  0.7886  0.1048 -0.1554
  433MOL0     C58384   9.551   6.027   2.231  0.6682 -0.0957 -0.1622
  433MOL0     C58385   9.752   6.409   1.579 -1.4937  0.2290 -0.2542
  433MOL0     C58386   9.802   6.450   1.455  0.2479 -1.4104  0.1838
  433MOL0     C58387   9.892   6.572   1.459  0.1708 -0.3537 -0.5516
  433MOL0     H58388   9.865   6.698   1.102 -0.1899 -3.4164  0.8399
  433MOL0     H58389  10.001   6.835   0.919  3.4349  2.1687  3.2982
  433MOL0     H58390  10.120   6.931   0.789  0.0327 -0.9805  3.0515
  433MOL0     H58391  10.276   6.902   0.856  0.8702 -0.2272 -0.0552
  433MOL0     H58392  10.366   6.858   0.641 -0.2657  0.0698  0.1073
  433MOL0     H58393  10.293   7.019   0.652 -2.2800  0.6958  3.6486
  433MOL0     H58394  10.093   6.934   0.519  0.0631  0.0802 -1.6668
  433MOL0     H58395  10.185   6.772   0.513  2.3252 -0.3041  3.0365
  433MOL0     H58396  10.196   6.892   0.303  1.4842 -0.7900 -1.4709
  433MOL0     H58397  10.250   7.043   0.391 -0.1455  0.2686 -1.0318
  433MOL0     H58398  10.468   6.959   0.444 -2.4794  1.5360  2.0092
  433MOL0     H58399  10.416   6.797   0.379  3.0238  0.4078  0.4481
  433MOL0     H58400  10.411   6.910   0.149 -1.8757 -0.5087  0.6637
  433MOL0     H58401  10.449   7.063   0.227  0.4301  0.4169 -0.2067
  433MOL0     H58402  10.655   6.824   0.258  0.4705  0.5624  1.8729
  433MOL0     H58403  10.668   6.993   0.275 -3.6268 -0.0424  3.4336
  433MOL0     H58404  10.762   6.907   0.055  0.5119 -0.6866  2.1468
  433MOL0     H58405  10.596   6.863   0.016  0.7839 -2.5771  1.1760
  433MOL0     H58406  10.427   7.075  -0.051  0.4702 -2.6376 -1.1213
  433MOL0     H58407  10.372   7.363  -0.081 -0.3313  5.0256 -0.8149
  433MOL0     H58408  10.499   7.440  -0.147 -1.3776 -0.2834  0.5629
  433MOL0     H58409  10.474   7.302  -0.375 -1.2237  0.5598  1.0876
  433MOL0     H58410  10.353   7.205  -0.307 -0.1043 -0.2666 -0.3452
  433MOL0     H58411  10.274   7.392  -0.459  1.7792  0.9409  0.5699
  433MOL0     H58412  10.375   7.504  -0.364 -0.1696 -0.1360 -3.4216
  433MOL0     H58413  10.211   7.483  -0.171 -1.6381  0.6126  0.3437
  433MOL0     H58414  10.148   7.347  -0.245  3.8681 -0.5916  3.1168
  433MOL0     H58415   9.854   7.412  -0.229  1.2681 -1.1940 -0.1270
  433MOL0     H58416   9.739   7.478  -0.036 -2.0399  0.3472 -1.5922
  433MOL0     H58417   9.938   7.693   0.372  1.9314 -0.9689  3.0403
  433MOL0     H58418   9.908   7.750   0.623 -2.2716  2.9380  1.4508
  433MOL0     H58419   9.748   7.840   0.917 -6.9954  0.3021  1.5313
  433MOL0     H58420   9.830   7.879   0.760 -0.7237 -0.9813 -1.6080
  433MOL0     H58421   9.607   8.012   0.700 -0.5117  0.4740 -1.1202
  433MOL0     H58422   9.547   7.986   0.855 -0.0583  1.2468  0.1969
  433MOL0     H58423   9.773   8.074   0.961  3.1531 -0.5911 -2.6640
  433MOL0     H58424   9.806   8.126   0.796  0.3356 -2.3643 -0.5600
  433MOL0     H58425   9.559   8.194   0.954  0.0947 -0.4900  0.2262
  433MOL0     H58426   9.591   8.238   0.787  1.3069  0.0352 -0.9936
  433MOL0     H58427   9.665   8.434   0.901 -0.5812 -1.6182 -3.8773
  433MOL0     H58428   9.821   8.348   0.900 -0.7128  0.7367 -2.5294
  433MOL0     H58429   9.631   8.270   1.125  1.7478 -1.3081 -1.6004
  433MOL0     H58430   9.804   8.280   1.124  2.2802  1.4099 -3.2453
  433MOL0     H58431   9.802   8.523   1.119 -0.4648  0.6422 -0.7054
  433MOL0     H58432   9.726   8.450   1.256 -1.0347  2.2017  1.5392
  433MOL0     H58433   9.579   8.601   1.048 -4.4735 -1.5595 -0.2090
  433MOL0     H58434   9.495   8.490   1.148  0.7458 -2.0895 -0.6905
  433MOL0     H58435   9.497   7.665   0.592  2.0341  0.9508  2.7557
  433MOL0     H58436   9.521   7.599   0.352 -1.2152  1.2934  1.2853
  433MOL0     H58437  10.012   7.817  -0.008 -0.3151  1.8055 -0.9853
  433MOL0     H58438  10.096   7.754  -0.232 -1.4463  0.8124  0.0194
  433MOL0     H58439  10.244   6.483   0.874 -0.4654 -0.0665  0.8334
  433MOL0     H58440  10.123   6.382   1.062  0.5854  0.4144  2.0544
  433MOL0     H58441   9.647   6.227   1.253  2.2812  1.0773  0.1911
  433MOL0     H58442   9.625   6.108   1.474 -0.0103 -0.2271  0.5951
  433MOL0     H58443   9.596   6.046   1.679 -2.9112 -1.2256  1.2097
  433MOL0     H58444   9.467   6.158   1.690  1.1209 -1.4735 -2.3973
  433MOL0     H58445   9.522   6.168   1.940  1.1349  1.5799  0.2393
  433MOL0     H58446   9.671   6.100   1.904 -0.9138 -1.1865  0.5854
  433MOL0     H58447   9.586   5.882   1.894 -1.4561 -2.3669 -0.7757
  433MOL0     H58448   9.446   5.914   1.812 -1.5759 -1.5219  2.5349
  433MOL0     H58449   9.325   6.007   2.005 -0.1248 -0.0622 -3.1268
  433MOL0     H58450   9.403   5.842   2.026 -1.8303  0.6899  0.1093
  433MOL0     H58451   9.609   6.033   2.321 -1.9268 -0.6211  1.6405
  433MOL0     H58452   9.791   6.468   1.661  0.2176 -1.2711  0.0785
  433MOL0     H58453   9.854   6.643   1.533 -1.8401 -0.7384 -1.1271
  433MOL0     H58454   9.992   6.541   1.490  0.4465  0.6571 -0.3975
  433MOL0     H58455   9.896   6.613   1.358 -0.0007 -0.4361 -0.5928
  434MOL0     O58456   2.215   6.320   9.894 -0.1430 -1.4131  0.8925
  434MOL0     C58457   2.206   6.336  10.018  0.6694 -0.3899  0.3373
  434MOL0     O58458   2.298   6.399  10.093  0.3195 -0.9160  0.0959
  434MOL0     C58459   2.397   6.479  10.040 -0.3777 -0.1555 -0.2645
  434MOL0     C58460   2.374   6.547   9.920  0.1312 -0.2919 -0.7808
  434MOL0     C58461   2.480   6.599   9.839  0.7797  0.1096 -0.8317
  434MOL0     C58462   2.605   6.589   9.894 -0.5029  0.2962  0.7889
  434MOL0     O58463   2.716   6.620   9.832  0.0597 -0.4103 -0.8155
  434MOL0     C58464   2.718   6.633   9.689  0.4552  0.0989  0.9259
  434MOL0     C58465   2.863   6.627   9.651  0.3168  0.4235  0.1918
  434MOL0     C58466   2.894   6.633   9.498  0.1640  0.0742 -0.3417
  434MOL0     C58467   2.773   6.628   9.408  0.5083 -0.1263  0.9423
  434MOL0     C58468   2.815   6.669   9.259  0.3053  0.3076 -0.8896
  434MOL0     C58469   2.697   6.680   9.156 -0.2432 -0.0344 -1.1772
  434MOL0     C58470   2.737   6.757   9.034  0.1960 -1.0325  0.1907
  434MOL0     C58471   2.616   6.799   8.951 -0.8237  0.4200  0.3352
  434MOL0     N58472   2.639   6.825   8.805 -0.8659  0.5334  0.0377
  434MOL0     C58473   2.629   6.950   8.742  0.2729 -0.7038 -0.4201
  434MOL0     C58474   2.681   6.928   8.620  0.2751 -0.3088 -0.6651
  434MOL0     C58475   2.730   7.039   8.548  0.0782 -0.0448 -0.2868
  434MOL0     C58476   2.628   7.154   8.529  0.5591 -0.1145  0.1233
  434MOL0     C58477   2.688   7.274   8.441  0.6159  0.2959 -0.4671
  434MOL0     C58478   2.812   7.331   8.497 -0.3418 -0.0863 -0.2571
  434MOL0     O58479   2.844   7.451   8.425  0.3480 -0.3225  0.3032
  434MOL0     C58480   2.941   7.449   8.325  0.1697 -0.0750 -0.2293
  434MOL0     C58481   3.073   7.463   8.364 -0.1936  0.4067  0.7285
  434MOL0     C58482   3.171   7.464   8.267 -0.6509 -0.6948 -0.0336
  434MOL0     C58483   3.146   7.433   8.133  0.0189  0.0983  0.2407
  434MOL0     C58484   3.251   7.427   8.036  0.0625 -1.1167 -0.5665
  434MOL0     O58485   3.221   7.391   7.914 -0.2566 -0.7931  0.2575
  434MOL0     C58486   3.320   7.371   7.820  0.8478 -0.6444  0.1247
  434MOL0     C58487   3.448   7.429   7.805  0.3214 -0.2220  0.6000
  434MOL0     C58488   3.538   7.403   7.697 -0.1942  0.4877 -0.3537
  434MOL0     C58489   3.515   7.294   7.622  0.7894  0.8190  0.0379
  434MOL0     O58490   3.589   7.234   7.527 -0.6616 -0.2968 -0.1722
  434MOL0     C58491   3.730   7.241   7.519  0.4871 -0.8527  0.9024
  434MOL0     C58492   3.759   7.166   7.387  0.6523  0.6807  0.2661
  434MOL0     C58493   3.736   7.021   7.408  0.1406  0.3977  0.5334
  434MOL0     C58494   3.857   6.939   7.363  0.5855  0.9440 -0.5394
  434MOL0     C58495   3.824   6.788   7.379  0.0182 -0.2164  0.6531
  434MOL0     C58496   3.953   6.707   7.371  0.9051 -0.3375  0.6029
  434MOL0     C58497   3.929   6.554   7.350  0.5677  0.2165 -0.6725
  434MOL0     C58498   4.064   6.478   7.374  0.3578 -0.9209 -0.5021
  434MOL0    Cl58499   4.046   6.309   7.325  0.4775 -0.0485  0.1554
  434MOL0     C58500   3.386   7.236   7.622  1.5886  1.0676  0.6214
  434MOL0     C58501   3.289   7.271   7.719  0.0797  0.5506 -0.1178
  434MOL0     O58502   3.366   7.445   8.080  0.0969  1.2136  1.0648
  434MOL0     C58503   3.015   7.408   8.098  0.1916  0.2244  0.7189
  434MOL0     C58504   2.906   7.422   8.192  0.2790  1.2884  0.3884
  434MOL0     N58505   2.715   6.793   8.602  0.0883  0.1728  0.1589
  434MOL0     N58506   2.686   6.724   8.715  0.7398 -0.7982 -0.3246
  434MOL0     C58507   2.627   6.532  10.012  0.4437  0.3227  0.1510
  434MOL0     C58508   2.524   6.466  10.088 -0.3887 -0.7727 -0.4790
  434MOL0     C58509   2.093   6.259  10.071 -1.6859 -0.0934 -1.0076
  434MOL0     C58510   2.123   6.201  10.191 -0.2015 -0.2896 -0.7537
  434MOL0     C58511   2.023   6.137  10.265  0.0809  0.0724  0.3380
  434MOL0     C58512   1.893   6.137  10.210  0.6705 -0.3410 -0.5725
  434MOL0     O58513   1.779   6.088  10.273  0.4435  0.3094 -0.4874
  434MOL0     C58514   1.807   5.972  10.357  0.3591 -1.0308  0.1156
  434MOL0     C58515   1.812   6.011  10.509  0.1925 -0.4916 -0.5996
  434MOL0     C58516   1.812   5.893  10.609 -0.9932  0.0633  0.5779
  434MOL0     C58517   1.914   5.773  10.554  0.2079 -0.3618  0.1634
  434MOL0     C58518   1.841   5.668  10.479  0.2471  0.5773 -0.3926
  434MOL0     C58519   1.820   5.562  10.427 -0.8649 -0.6567  0.7756
  434MOL0     C58520   1.864   6.201  10.097 -0.6382 -0.3647  0.5099
  434MOL0     C58521   1.960   6.267  10.017  0.2900  0.3074 -0.2374
  434MOL0     C58522   1.933   6.325   9.881  1.7087 -0.1872 -0.3097
  434MOL0     H58523   2.280   6.553   9.866  1.7626 -3.1556 -4.3817
  434MOL0     H58524   2.472   6.651   9.744  1.9158  2.5206  0.3352
  434MOL0     H58525   2.661   6.557   9.634 -0.8202  0.6573  1.4257
  434MOL0     H58526   2.683   6.729   9.651 -0.8247 -1.6000 -2.6715
  434MOL0     H58527   2.904   6.530   9.681 -2.0811  0.2482  3.3541
  434MOL0     H58528   2.924   6.701   9.703  1.2387 -2.2699  3.3063
  434MOL0     H58529   2.968   6.555   9.475 -0.0296  0.3549 -2.0830
  434MOL0     H58530   2.951   6.726   9.491  0.5087 -0.2701 -3.3998
  434MOL0     H58531   2.731   6.527   9.416 -1.4604  0.7696  4.4163
  434MOL0     H58532   2.690   6.688   9.448 -0.1242 -1.6237  2.0015
  434MOL0     H58533   2.860   6.767   9.278  0.1297  0.0977  0.7315
  434MOL0     H58534   2.895   6.623   9.200  0.2222  0.6997 -1.3207
  434MOL0     H58535   2.654   6.581   9.140 -1.5757 -0.1237  2.1300
  434MOL0     H58536   2.625   6.739   9.212  1.9443  0.9681  0.7708
  434MOL0     H58537   2.808   6.693   8.981  1.7311  0.9327 -0.2401
  434MOL0     H58538   2.789   6.849   9.061 -0.0112  0.3305 -3.5104
  434MOL0     H58539   2.540   6.721   8.958  0.8415 -1.1133  2.6536
  434MOL0     H58540   2.583   6.892   9.000  1.7778  0.8451  1.4263
  434MOL0     H58541   2.619   7.046   8.792  1.5240  0.2866 -1.9824
  434MOL0     H58542   2.813   7.082   8.606 -0.5477  2.3194 -1.0065
  434MOL0     H58543   2.749   7.013   8.444 -1.9174  1.4477 -1.0732
  434MOL0     H58544   2.541   7.118   8.473  0.7307  1.3271 -1.1409
  434MOL0     H58545   2.578   7.192   8.619  1.8114 -0.1733  0.8584
  434MOL0     H58546   2.610   7.350   8.444  1.6830  1.4507  2.5641
  434MOL0     H58547   2.703   7.247   8.337 -1.1584  1.2471 -1.0094
  434MOL0     H58548   2.893   7.258   8.504  0.9838  1.3575 -0.0245
  434MOL0     H58549   2.791   7.364   8.599 -1.2431 -5.3005  1.5711
  434MOL0     H58550   3.090   7.497   8.466 -2.2742  2.8638  0.3448
  434MOL0     H58551   3.276   7.477   8.293 -0.6017 -1.4054  0.1450
  434MOL0     H58552   3.476   7.510   7.872  0.8224  0.9704 -1.0066
  434MOL0     H58553   3.629   7.461   7.688 -0.1763  0.4217 -0.5885
  434MOL0     H58554   3.771   7.343   7.523 -2.9936  0.7610 -0.2707
  434MOL0     H58555   3.779   7.202   7.609  5.3721  1.0864 -0.6073
  434MOL0     H58556   3.689   7.201   7.311  1.9796  3.2143  0.1035
  434MOL0     H58557   3.862   7.185   7.354 -0.3592  0.9747 -3.0523
  434MOL0     H58558   3.724   7.015   7.516  1.9355  0.7118  0.7853
  434MOL0     H58559   3.646   6.993   7.353 -0.6463  4.1527 -0.3435
  434MOL0     H58560   3.948   6.963   7.420  1.1232  2.7032 -2.0645
  434MOL0     H58561   3.878   6.956   7.257  1.6469 -2.4390 -1.0052
  434MOL0     H58562   3.750   6.758   7.303 -1.3602  3.7668  0.1891
  434MOL0     H58563   3.772   6.773   7.474 -0.6349  1.5879  0.6193
  434MOL0     H58564   4.011   6.736   7.284  2.5049 -2.2784  0.9561
  434MOL0     H58565   4.004   6.721   7.467  2.7684  0.8575 -0.5049
  434MOL0     H58566   3.901   6.526   7.248 -0.3838  0.9253 -0.6212
  434MOL0     H58567   3.851   6.525   7.421  0.5279  2.6811  0.4132
  434MOL0     H58568   4.147   6.522   7.318 -0.2121 -0.3827 -0.9440
  434MOL0     H58569   4.093   6.481   7.479 -2.3245  0.8623  0.2896
  434MOL0     H58570   3.351   7.164   7.549  0.5241  1.1152  1.0654
  434MOL0     H58571   3.189   7.229   7.710 -0.4528  2.1432 -2.9891
  434MOL0     H58572   2.986   7.378   7.997 -1.7120  0.3523  1.1879
  434MOL0     H58573   2.808   7.406   8.147  1.5523  1.5355 -2.7491
  434MOL0     H58574   2.733   6.524  10.036  0.0972 -0.1892  1.6149
  434MOL0     H58575   2.540   6.424  10.187  1.2007 -0.7623 -0.7008
  434MOL0     H58576   2.223   6.201  10.234 -0.9703 -0.1933  1.1144
  434MOL0     H58577   2.054   6.086  10.356 -1.7142 -2.1648 -0.2100
  434MOL0     H58578   1.882   5.908  10.311 -0.1648 -1.1490 -0.5962
  434MOL0     H58579   1.724   5.902  10.346  1.8901 -2.9539  0.2856
  434MOL0     H58580   1.716   6.062  10.523  1.7947  2.6242 -0.3034
  434MOL0     H58581   1.903   6.068  10.527  0.9944 -1.4927 -1.3244
  434MOL0     H58582   1.709   5.857  10.612 -1.8277  2.3330  1.5402
  434MOL0     H58583   1.836   5.929  10.710  2.0444  2.8116 -0.9228
  434MOL0     H58584   2.000   5.808  10.496  0.4870 -1.0272  0.1618
  434MOL0     H58585   1.957   5.720  10.639 -0.0991  1.9327  1.8261
  434MOL0     H58586   1.824   5.465  10.382  4.0973 -1.8536  3.0204
  434MOL0     H58587   1.757   6.203  10.079 -0.6115  0.4713  0.3626
  434MOL0     H58588   1.968   6.259   9.801  2.9875  3.2609 -2.8292
  434MOL0     H58589   1.824   6.329   9.890  1.6753  0.2063 -0.8183
  434MOL0     H58590   1.988   6.420   9.873  3.0082 -0.9078 -0.2560
  435MOL0     O58591  10.946   8.253   4.094 -0.5515 -0.3093 -0.3387
  435MOL0     C58592  10.833   8.214   4.078  0.1213  0.3127  0.2991
  435MOL0     O58593  10.727   8.290   4.063 -0.3964  0.4855  0.3173
  435MOL0     C58594  10.736   8.431   4.068 -0.0068 -0.0883 -0.3413
  435MOL0     C58595  10.823   8.498   4.153 -0.1714  0.2638 -0.5495
  435MOL0     C58596  10.839   8.637   4.150 -0.5382 -0.8441 -0.1637
  435MOL0     C58597  10.752   8.714   4.068  0.7950  0.1374 -0.7331
  435MOL0     O58598  10.765   8.848   4.077 -0.1278 -0.3365  0.2161
  435MOL0     C58599  10.654   8.929   4.103  0.0097  0.2322 -1.3357
  435MOL0     C58600  10.611   8.934   4.256  0.6348 -0.4664  0.2534
  435MOL0     C58601  10.736   8.924   4.343  0.6090 -0.2206 -0.9765
  435MOL0     C58602  10.857   9.022   4.325  0.9725 -0.1176  0.0426
  435MOL0     C58603  10.951   9.025   4.447  0.3052  0.0324 -0.1830
  435MOL0     C58604  10.901   9.095   4.571 -0.3166 -0.6848 -0.5810
  435MOL0     C58605  10.959   9.234   4.607  0.0502  0.1520 -0.3498
  435MOL0     C58606  10.926   9.353   4.509  0.7401  0.1409 -1.2356
  435MOL0     N58607  11.018   9.464   4.534  0.3013  0.4672 -1.1241
  435MOL0     C58608  11.140   9.468   4.468  0.0770 -0.1106 -0.0204
  435MOL0     C58609  11.204   9.570   4.525 -0.7727 -0.5830  0.9009
  435MOL0     C58610  11.348   9.594   4.503  0.4360 -0.8753 -0.0170
  435MOL0     C58611  11.403   9.730   4.555 -0.8805 -0.3480  0.1914
  435MOL0     C58612  11.559   9.735   4.543 -0.2184 -0.0335  0.0417
  435MOL0     C58613  11.607   9.757   4.401  1.2719 -0.6640  0.8665
  435MOL0     O58614  11.749   9.750   4.400  0.3711 -0.7971  0.7409
  435MOL0     C58615  11.824   9.828   4.312  1.3089 -0.3304 -0.8657
  435MOL0     C58616  11.945   9.852   4.355 -0.3801 -0.1071 -0.5074
  435MOL0     C58617  12.040   9.925   4.289 -0.2325 -0.1694  0.6468
  435MOL0     C58618  12.005   9.974   4.162 -0.5889 -0.8443 -0.7338
  435MOL0     C58619  12.096  10.053   4.076 -0.7071 -0.3590  0.3012
  435MOL0     O58620  12.045  10.078   3.957 -0.2955 -0.1478  0.2916
  435MOL0     C58621  12.128  10.151   3.869  0.4028 -0.6395  0.1309
  435MOL0     C58622  12.146  10.286   3.893  0.0964 -0.4820  0.0713
  435MOL0     C58623  12.218  10.365   3.805 -0.6613  0.2255 -0.0030
  435MOL0     C58624  12.286  10.298   3.695 -0.3392 -1.0561 -0.0050
  435MOL0     O58625  12.365  10.353   3.607 -0.0694 -0.7061 -0.0324
  435MOL0     C58626  12.395  10.494   3.628  0.3595 -0.3101  0.4181
  435MOL0     C58627  12.495  10.541   3.522 -0.0963  0.8942  0.0487
  435MOL0     C58628  12.509  10.452   3.388  0.0479 -0.7236 -1.0245
  435MOL0     C58629  12.562  10.542   3.273  0.1586  0.2246 -0.4269
  435MOL0     C58630  12.556  10.469   3.145 -0.3337 -0.5208  0.7801
  435MOL0     C58631  12.621  10.547   3.028 -0.0246 -0.0274  0.9098
  435MOL0     C58632  12.758  10.492   2.996  1.0094  0.4728  0.2337
  435MOL0     C58633  12.858  10.588   2.940  0.2756  0.3253  0.5227
  435MOL0    Cl58634  13.008  10.491   2.919  0.3609  0.4700  0.0784
  435MOL0     C58635  12.268  10.163   3.672  0.6987  0.0351 -0.4017
  435MOL0     C58636  12.186  10.086   3.765 -0.5270  0.0430  1.3195
  435MOL0     O58637  12.210  10.084   4.123  0.5278 -0.1531  0.3634
  435MOL0     C58638  11.872   9.953   4.116 -0.0774 -0.2147 -0.0565
  435MOL0     C58639  11.782   9.891   4.197 -0.0970 -0.2683 -0.0292
  435MOL0     N58640  11.115   9.638   4.597 -0.5659  1.1004  0.0293
  435MOL0     N58641  11.005   9.572   4.607  0.4101 -0.4779  0.2315
  435MOL0     C58642  10.641   8.648   4.005 -0.0762 -0.5861  0.3773
  435MOL0     C58643  10.640   8.513   4.005  0.5421  0.5036 -0.0743
  435MOL0     C58644  10.807   8.068   4.058  0.0688 -0.4125  0.5068
  435MOL0     C58645  10.674   8.031   4.047  1.0936 -0.8012 -0.1309
  435MOL0     C58646  10.630   7.897   4.028  0.0332  0.4826 -0.2002
  435MOL0     C58647  10.720   7.796   4.031 -0.1459  0.4239 -0.2028
  435MOL0     O58648  10.678   7.666   4.035 -0.0251  0.0658  0.0879
  435MOL0     C58649  10.658   7.605   4.164 -0.0384 -1.3520 -0.3416
  435MOL0     C58650  10.633   7.456   4.154 -1.2937 -0.0519  0.0780
  435MOL0     C58651  10.743   7.386   4.077  0.8434 -0.5093 -1.1522
  435MOL0     C58652  10.742   7.230   4.088  1.1533  0.1860 -0.2048
  435MOL0     C58653  10.804   7.152   3.979  0.0210 -0.6061 -0.1127
  435MOL0     C58654  10.863   7.077   3.901  0.4097  0.2989  0.4256
  435MOL0     C58655  10.859   7.826   4.039 -0.3016  0.0110 -0.9056
  435MOL0     C58656  10.903   7.957   4.058 -0.1627 -0.9021  0.7457
  435MOL0     C58657  11.052   7.983   4.067  0.4381  0.0727 -0.4013
  435MOL0     H58658  10.885   8.439   4.220  2.3913 -0.1660 -3.0957
  435MOL0     H58659  10.913   8.686   4.212 -1.9656  1.5029 -0.1874
  435MOL0     H58660  10.668   9.036   4.086  1.2004  0.7714  2.1927
  435MOL0     H58661  10.571   8.893   4.041  1.2900 -2.1909 -1.7979
  435MOL0     H58662  10.561   8.837   4.272  1.6696 -1.5062 -2.3356
  435MOL0     H58663  10.540   9.016   4.270  0.5147 -0.3132 -1.1624
  435MOL0     H58664  10.761   8.818   4.333  0.5106 -0.2484 -0.9329
  435MOL0     H58665  10.705   8.941   4.446  0.7213 -0.2104 -0.9449
  435MOL0     H58666  10.915   8.984   4.241 -0.8472  0.6958 -1.6469
  435MOL0     H58667  10.813   9.120   4.304 -1.8928 -1.5299 -1.1682
  435MOL0     H58668  10.978   8.919   4.456  1.5609  0.1239 -2.2697
  435MOL0     H58669  11.051   9.066   4.426 -0.8323  3.3097  0.2488
  435MOL0     H58670  10.795   9.107   4.591  0.0814  1.1865  0.6905
  435MOL0     H58671  10.943   9.030   4.647  1.7349  0.9524 -0.2129
  435MOL0     H58672  11.067   9.214   4.611 -0.4563 -2.7517  1.6914
  435MOL0     H58673  10.927   9.233   4.711 -2.6254 -3.6845 -1.0021
  435MOL0     H58674  10.944   9.299   4.416  2.5394 -1.6867  0.0885
  435MOL0     H58675  10.824   9.390   4.503  1.2691  2.2406  1.0506
  435MOL0     H58676  11.179   9.402   4.391 -0.9522 -0.7698  0.0106
  435MOL0     H58677  11.397   9.507   4.547  0.3539  0.1480  2.1989
  435MOL0     H58678  11.381   9.592   4.398 -1.0480  0.9226 -0.5815
  435MOL0     H58679  11.358   9.804   4.487  2.2510 -0.4726 -2.2351
  435MOL0     H58680  11.364   9.744   4.656 -3.3054  1.8230 -0.9130
  435MOL0     H58681  11.592   9.638   4.580  0.3984  0.2941  0.3617
  435MOL0     H58682  11.606   9.808   4.610 -2.3520  1.8552 -0.3862
  435MOL0     H58683  11.565   9.851   4.363  5.3114  0.8413 -0.3481
  435MOL0     H58684  11.586   9.673   4.333  0.6029 -0.3300  0.6503
  435MOL0     H58685  11.995   9.817   4.445 -0.7352 -2.4796 -1.1664
  435MOL0     H58686  12.139   9.943   4.330 -0.0170 -0.9205  0.4599
  435MOL0     H58687  12.097  10.334   3.976 -3.2282  2.1720 -3.1220
  435MOL0     H58688  12.222  10.472   3.822 -5.4265  0.7888 -1.0654
  435MOL0     H58689  12.309  10.561   3.618  0.7551  0.0189 -1.1088
  435MOL0     H58690  12.440  10.517   3.725 -0.6520  2.9486  0.2510
  435MOL0     H58691  12.463  10.643   3.498 -0.6874 -0.1202 -4.1756
  435MOL0     H58692  12.597  10.543   3.561  0.0381  0.8768 -0.3036
  435MOL0     H58693  12.563  10.360   3.414 -4.0590 -2.2319  3.7369
  435MOL0     H58694  12.409  10.416   3.365 -0.3111 -1.8482  1.8965
  435MOL0     H58695  12.667  10.564   3.295 -0.2191 -0.9135  3.2087
  435MOL0     H58696  12.504  10.635   3.274 -1.3989 -0.6968 -0.9481
  435MOL0     H58697  12.455  10.433   3.122 -0.6409  0.7395  0.0341
  435MOL0     H58698  12.605  10.371   3.149 -0.0937 -0.4737 -0.5377
  435MOL0     H58699  12.557  10.527   2.942 -2.8648  0.4082  2.7674
  435MOL0     H58700  12.625  10.656   3.034  1.2523  0.0130 -0.2961
  435MOL0     H58701  12.747  10.415   2.920 -0.1656 -2.2929  2.9816
  435MOL0     H58702  12.806  10.440   3.080  0.8755  1.8831  1.2234
  435MOL0     H58703  12.823  10.638   2.849 -0.0355 -0.0349  0.4402
  435MOL0     H58704  12.880  10.673   3.004 -0.2531  1.0694 -0.2577
  435MOL0     H58705  12.310  10.121   3.581 -2.6740  1.7973 -2.9984
  435MOL0     H58706  12.166   9.981   3.749 -0.4025  0.3977 -1.8001
  435MOL0     H58707  11.826   9.983   4.022 -0.5766 -2.4360 -0.5725
  435MOL0     H58708  11.685   9.872   4.153  1.5013 -1.6299 -3.4011
  435MOL0     H58709  10.576   8.714   3.947  0.7610  1.1375  1.3393
  435MOL0     H58710  10.567   8.454   3.951 -0.0914  1.7515 -0.6178
  435MOL0     H58711  10.590   8.099   4.043  0.1681 -1.7286  2.0435
  435MOL0     H58712  10.524   7.878   4.022  0.1743  0.1392 -2.7430
  435MOL0     H58713  10.575   7.656   4.215  0.6839 -1.7947  1.3392
  435MOL0     H58714  10.749   7.618   4.222 -0.1318  0.0256 -0.4703
  435MOL0     H58715  10.532   7.435   4.117 -0.2540 -2.9457 -1.4590
  435MOL0     H58716  10.637   7.426   4.259 -2.8186  2.7819  1.0394
  435MOL0     H58717  10.838   7.413   4.125  0.7679 -0.3528 -1.0907
  435MOL0     H58718  10.753   7.419   3.973  1.0276 -1.2483 -1.3748
  435MOL0     H58719  10.778   7.202   4.188 -1.6694 -1.7655  0.3824
  435MOL0     H58720  10.638   7.197   4.095  1.4737 -0.6206  1.4080
  435MOL0     H58721  10.911   7.014   3.828 -1.9214  0.0702 -1.0010
  435MOL0     H58722  10.939   7.753   4.033 -0.1489  0.1736 -0.8633
  435MOL0     H58723  11.083   8.035   3.976 -1.6453  0.4003 -0.9828
  435MOL0     H58724  11.074   8.054   4.146 -0.7890  2.8243 -2.3522
  435MOL0     H58725  11.113   7.893   4.070  1.9178  0.9347 -2.2985
  436MOL0     O58726   3.438   1.735   7.534 -0.9007  0.3962 -0.0256
  436MOL0     C58727   3.492   1.636   7.484 -0.1401 -0.1585 -0.0950
  436MOL0     O58728   3.458   1.579   7.360 -0.2915  0.0210  0.2886
  436MOL0     C58729   3.354   1.655   7.298 -1.1199  0.5767 -0.5326
  436MOL0     C58730   3.400   1.706   7.173 -0.0271 -0.7296  0.2153
  436MOL0     C58731   3.309   1.767   7.081 -0.2288 -0.2521 -0.8156
  436MOL0     C58732   3.170   1.782   7.127  0.3579 -0.4743  0.3572
  436MOL0     O58733   3.059   1.837   7.057  0.0155 -0.5777  0.4061
  436MOL0     C58734   3.077   1.882   6.927 -0.9057 -0.1022  0.8078
  436MOL0     C58735   2.958   1.975   6.894  0.2415 -0.2819 -0.1209
  436MOL0     C58736   2.842   1.891   6.842 -0.6089 -0.5831 -0.3388
  436MOL0     C58737   2.745   1.959   6.747  0.0945 -0.0508  0.5711
  436MOL0     C58738   2.662   1.842   6.687 -0.1909 -0.1247 -0.5393
  436MOL0     C58739   2.541   1.898   6.609  0.3414 -0.0164  0.6776
  436MOL0     C58740   2.424   1.799   6.610  0.8561  0.1360 -0.2485
  436MOL0     C58741   2.426   1.700   6.489  1.1929 -0.2982 -1.2734
  436MOL0     N58742   2.535   1.606   6.494 -0.2785  0.2607  0.1543
  436MOL0     C58743   2.585   1.525   6.591 -0.0323 -0.0512 -0.3313
  436MOL0     C58744   2.687   1.447   6.544  0.2621 -0.7812  0.2232
  436MOL0     C58745   2.770   1.348   6.621 -0.3560  0.1114  0.5198
  436MOL0     C58746   2.830   1.410   6.750  0.3579  0.5483  1.3406
  436MOL0     C58747   2.905   1.304   6.833  0.0461  0.3344 -0.2447
  436MOL0     C58748   2.975   1.369   6.952  0.0090 -0.4522 -0.2935
  436MOL0     O58749   3.068   1.479   6.919  0.4459  0.5356 -0.6703
  436MOL0     C58750   3.195   1.445   6.939 -0.5676  0.4246  0.2249
  436MOL0     C58751   3.275   1.445   6.831  0.1550 -0.0056  0.3470
  436MOL0     C58752   3.411   1.426   6.847  0.4030 -0.4951 -0.0383
  436MOL0     C58753   3.470   1.400   6.969 -0.5084  0.1358  0.0546
  436MOL0     C58754   3.616   1.369   6.985  0.2101 -0.4381  0.0675
  436MOL0     O58755   3.642   1.278   7.075 -0.3453  0.7744  0.2228
  436MOL0     C58756   3.763   1.265   7.128  1.0348  0.6140 -0.2640
  436MOL0     C58757   3.888   1.307   7.083 -0.6314 -0.0552  0.2120
  436MOL0     C58758   4.009   1.249   7.135  0.2546 -0.6463  0.3343
  436MOL0     C58759   3.997   1.151   7.241 -0.1225 -0.2488  0.8431
  436MOL0     O58760   4.106   1.120   7.307  0.0226  0.3935  0.2977
  436MOL0     C58761   4.142   0.980   7.296 -0.2422  0.3931  0.4136
  436MOL0     C58762   4.258   0.976   7.397 -0.4854  0.9181 -0.6130
  436MOL0     C58763   4.217   1.026   7.537  0.3990  0.8342 -0.8361
  436MOL0     C58764   4.335   1.023   7.627  1.0241  0.5491  0.4060
  436MOL0     C58765   4.308   1.094   7.760 -1.4023 -0.6688  0.0541
  436MOL0     C58766   4.442   1.083   7.843  0.4118 -0.1283 -0.4761
  436MOL0     C58767   4.417   1.168   7.974  0.0445  1.0358  0.1508
  436MOL0     C58768   4.474   1.311   7.963  0.3671  0.2970  0.7097
  436MOL0    Cl58769   4.429   1.388   7.804 -0.0042 -0.2620  0.3449
  436MOL0     C58770   3.870   1.104   7.279 -0.3191  0.7736 -0.0063
  436MOL0     C58771   3.754   1.157   7.224 -0.4008 -0.1248 -0.0956
  436MOL0     O58772   3.692   1.410   6.901 -1.3743  0.9579  0.2145
  436MOL0     C58773   3.389   1.387   7.082  0.7589 -0.0452 -0.1326
  436MOL0     C58774   3.258   1.433   7.067  0.3630 -0.0672  0.9497
  436MOL0     N58775   2.690   1.471   6.405  0.8969  0.2921  0.7587
  436MOL0     N58776   2.596   1.560   6.383 -0.2959 -0.8390  0.1951
  436MOL0     C58777   3.131   1.729   7.247  0.8700  0.2129  0.0835
  436MOL0     C58778   3.222   1.676   7.341  0.7869  0.5074  0.1074
  436MOL0     C58779   3.592   1.556   7.558 -0.9952 -0.2650 -0.7677
  436MOL0     C58780   3.701   1.490   7.491  0.1796  0.1479 -0.3664
  436MOL0     C58781   3.789   1.400   7.548  0.7185 -1.3483  0.8734
  436MOL0     C58782   3.786   1.393   7.687 -0.7668  0.8249 -0.7851
  436MOL0     O58783   3.876   1.296   7.746  0.5146  0.4366  0.2280
  436MOL0     C58784   3.871   1.258   7.883  0.6578  0.3195 -0.0588
  436MOL0     C58785   3.943   1.366   7.970  0.4565  0.8037  0.9221
  436MOL0     C58786   4.084   1.403   7.921 -0.7336 -0.5746  1.0504
  436MOL0     C58787   4.128   1.547   7.951  0.0648  0.7313 -0.8848
  436MOL0     C58788   4.149   1.568   8.095  0.0781 -0.2163 -0.7028
  436MOL0     C58789   4.167   1.607   8.206  0.1464  1.2429  0.1782
  436MOL0     C58790   3.685   1.464   7.766 -1.5490  0.5423 -0.0178
  436MOL0     C58791   3.587   1.542   7.702 -0.4342  0.5360  0.9675
  436MOL0     C58792   3.472   1.592   7.792 -0.0548  0.0509 -0.1215
  436MOL0     H58793   3.504   1.698   7.145 -0.3350 -1.4173 -0.8247
  436MOL0     H58794   3.339   1.791   6.980 -1.6049 -0.3606 -1.2753
  436MOL0     H58795   3.171   1.937   6.921  0.5277 -2.2435  2.1672
  436MOL0     H58796   3.091   1.793   6.864  1.7768  0.4256  0.5598
  436MOL0     H58797   2.991   2.025   6.803 -1.5574  0.3844 -0.4554
  436MOL0     H58798   2.942   2.037   6.983  2.9611 -1.7164  1.5124
  436MOL0     H58799   2.780   1.856   6.926  0.3036 -0.9810  0.1844
  436MOL0     H58800   2.881   1.795   6.805  0.4177 -1.5929  2.9822
  436MOL0     H58801   2.693   2.032   6.809  1.8077  1.8544 -0.1534
  436MOL0     H58802   2.787   2.015   6.664  1.2340  1.5023  2.1341
  436MOL0     H58803   2.728   1.771   6.636 -0.1729  0.4446 -1.3307
  436MOL0     H58804   2.625   1.786   6.774  0.9909 -0.1880 -0.0543
  436MOL0     H58805   2.504   1.994   6.647  0.4842  0.4276 -0.2703
  436MOL0     H58806   2.573   1.913   6.505 -2.2172 -5.8325 -1.3312
  436MOL0     H58807   2.334   1.859   6.618 -0.3572 -1.6652  0.2961
  436MOL0     H58808   2.425   1.733   6.698  2.0503  0.5956  0.1161
  436MOL0     H58809   2.333   1.642   6.484  1.1691 -0.8468  2.5549
  436MOL0     H58810   2.422   1.768   6.403 -2.0421 -0.4682 -1.4031
  436MOL0     H58811   2.566   1.521   6.698  0.6760 -3.2493 -0.2181
  436MOL0     H58812   2.711   1.258   6.637  2.7005 -2.2249 -0.5056
  436MOL0     H58813   2.843   1.302   6.554 -4.1052 -1.6893 -2.7371
  436MOL0     H58814   2.882   1.501   6.721 -1.0998  2.0396  3.1463
  436MOL0     H58815   2.750   1.451   6.812  1.2153  2.7006  1.0899
  436MOL0     H58816   2.977   1.261   6.763 -0.0899  2.3617 -1.7061
  436MOL0     H58817   2.834   1.226   6.863  1.0399  0.3995  2.5918
  436MOL0     H58818   3.029   1.287   7.000 -1.7845 -1.5997 -0.1581
  436MOL0     H58819   2.905   1.410   7.025 -1.7822 -2.5978 -0.7048
  436MOL0     H58820   3.241   1.462   6.729  0.7794 -0.0671  0.1256
  436MOL0     H58821   3.466   1.409   6.755 -0.4183  1.9723 -1.0580
  436MOL0     H58822   3.897   1.379   7.002 -1.6141 -0.2149 -0.0451
  436MOL0     H58823   4.112   1.278   7.115  0.2742 -0.8597  0.1256
  436MOL0     H58824   4.068   0.907   7.331  0.0727  0.2679  0.8206
  436MOL0     H58825   4.186   0.953   7.200 -1.6572 -0.8189  0.0735
  436MOL0     H58826   4.276   0.869   7.410 -1.4279  0.8494  0.3722
  436MOL0     H58827   4.351   1.018   7.358 -0.5472  1.9396  0.2644
  436MOL0     H58828   4.201   1.132   7.515  1.7650  1.3414  0.4172
  436MOL0     H58829   4.123   0.980   7.567 -1.4712  1.4726 -4.9803
  436MOL0     H58830   4.421   1.067   7.576  0.4743 -0.2950 -1.3452
  436MOL0     H58831   4.377   0.923   7.644  4.5653  1.8783  0.4468
  436MOL0     H58832   4.226   1.054   7.820  1.0031 -6.6257  0.0697
  436MOL0     H58833   4.279   1.198   7.743 -0.8004 -0.2672  1.3495
  436MOL0     H58834   4.464   0.977   7.862 -0.7468 -0.2375  0.3663
  436MOL0     H58835   4.526   1.130   7.792  1.0457 -2.4504 -1.7281
  436MOL0     H58836   4.471   1.115   8.053 -1.2417 -1.4030 -0.5034
  436MOL0     H58837   4.310   1.178   7.993 -1.2777 -0.3277 -5.0412
  436MOL0     H58838   4.440   1.372   8.047  0.9015  2.3766 -0.5092
  436MOL0     H58839   4.583   1.311   7.971  0.3499  0.9695  0.9926
  436MOL0     H58840   3.866   1.023   7.351 -0.3683 -0.1401 -1.0153
  436MOL0     H58841   3.666   1.115   7.270  0.3081 -1.3721  0.1630
  436MOL0     H58842   3.424   1.358   7.181 -1.0614  0.4151  0.6839
  436MOL0     H58843   3.190   1.440   7.152 -0.2699 -1.8380  0.6263
  436MOL0     H58844   3.034   1.754   7.291  1.1960  3.5291 -0.8126
  436MOL0     H58845   3.183   1.623   7.427 -0.2095 -0.7826 -1.0817
  436MOL0     H58846   3.699   1.506   7.384  1.9818 -2.1874 -0.8113
  436MOL0     H58847   3.864   1.349   7.488  0.2091 -1.4930  0.3450
  436MOL0     H58848   3.913   1.157   7.890 -0.1238 -0.1026 -1.1288
  436MOL0     H58849   3.769   1.245   7.920  0.5826 -0.6174 -0.5540
  436MOL0     H58850   3.951   1.321   8.069  3.0156  0.2733  0.5324
  436MOL0     H58851   3.883   1.458   7.977 -1.2814 -0.2683  0.6179
  436MOL0     H58852   4.092   1.392   7.813  1.6334 -0.8263  1.1777
  436MOL0     H58853   4.165   1.337   7.955 -0.2972 -1.6164 -1.7513
  436MOL0     H58854   4.228   1.545   7.906 -0.2011 -1.4669 -1.4635
  436MOL0     H58855   4.055   1.623   7.921 -2.0968  0.5444  3.1548
  436MOL0     H58856   4.197   1.634   8.305 -0.7243 -1.0170  1.1395
  436MOL0     H58857   3.673   1.439   7.871 -0.7900 -0.5638 -0.1802
  436MOL0     H58858   3.386   1.579   7.726  0.5272 -1.3031 -0.6557
  436MOL0     H58859   3.454   1.529   7.879 -1.2298  2.7163  1.7081
  436MOL0     H58860   3.491   1.691   7.835  3.4435 -1.1969  1.5962
  437MOL0     O58861   1.069   6.496  10.897 -0.1427 -0.4076 -0.3360
  437MOL0     C58862   1.156   6.432  10.962  1.0741  0.1379  0.8845
  437MOL0     O58863   1.277   6.380  10.912  0.2406 -0.0024 -0.0183
  437MOL0     C58864   1.301   6.397  10.775 -0.3427  0.3286 -0.7875
  437MOL0     C58865   1.266   6.501  10.690  0.1600  0.5014  0.4794
  437MOL0     C58866   1.314   6.515  10.567 -0.4675  0.5295 -0.2063
  437MOL0     C58867   1.405   6.417  10.514 -0.5640 -0.9305  0.2172
  437MOL0     O58868   1.459   6.429  10.388  0.3905 -0.0626  0.0640
  437MOL0     C58869   1.517   6.550  10.348 -0.0039 -0.3275  0.1463
  437MOL0     C58870   1.578   6.505  10.202 -0.0372  0.2480  0.8082
  437MOL0     C58871   1.469   6.464  10.100  0.0337  0.0865  0.2783
  437MOL0     C58872   1.538   6.435   9.957 -0.4611 -0.4209 -0.2413
  437MOL0     C58873   1.434   6.376   9.868  0.8962  1.3125 -0.3925
  437MOL0     C58874   1.403   6.230   9.904 -0.4417  0.2878  0.3333
  437MOL0     C58875   1.297   6.173   9.803  0.1783  1.0186 -0.1287
  437MOL0     C58876   1.359   6.140   9.664 -1.0791 -0.2454 -0.0947
  437MOL0     N58877   1.245   6.090   9.587 -0.6419 -0.1587  0.4547
  437MOL0     C58878   1.200   5.960   9.574 -0.1568  0.5559 -0.2591
  437MOL0     C58879   1.139   5.957   9.458 -0.6238 -0.0551 -0.0157
  437MOL0     C58880   1.074   5.832   9.404  0.6120 -0.2723  0.5712
  437MOL0     C58881   0.927   5.840   9.378 -0.4679  0.4715  0.7458
  437MOL0     C58882   0.840   5.912   9.473  0.8455 -0.1716  0.0723
  437MOL0     C58883   0.693   5.927   9.433 -0.4690 -0.0035  0.1660
  437MOL0     O58884   0.616   5.987   9.540  0.1001 -0.1548 -0.2923
  437MOL0     C58885   0.587   5.909   9.649 -0.2610  0.0657 -0.1333
  437MOL0     C58886   0.498   5.970   9.738  0.5262  0.2349 -0.1580
  437MOL0     C58887   0.438   5.894   9.843  0.5027  0.8099 -0.0352
  437MOL0     C58888   0.469   5.758   9.844  0.2337  0.5195 -1.2937
  437MOL0     C58889   0.420   5.687   9.968 -0.0859  0.2859 -0.0909
  437MOL0     O58890   0.314   5.740  10.040 -0.6016 -1.2052 -0.0858
  437MOL0     C58891   0.237   5.657  10.127  0.6436  0.5503 -0.3313
  437MOL0     C58892   0.222   5.517  10.125 -0.3943 -0.2367 -0.4886
  437MOL0     C58893   0.150   5.451  10.228 -0.6831  0.1013  1.2719
  437MOL0     C58894   0.094   5.521  10.328  0.4756 -0.3012 -0.4485
  437MOL0     O58895   0.016   5.453  10.423 -0.0028 -0.3976 -0.4023
  437MOL0     C58896  -0.028   5.516  10.543 -0.3919 -0.4038 -0.1272
  437MOL0     C58897  -0.114   5.409  10.610  0.0682  0.2065 -0.1039
  437MOL0     C58898  -0.206   5.452  10.718  0.0550 -0.4933  0.1021
  437MOL0     C58899  -0.139   5.456  10.850  0.6833  0.6495  0.3903
  437MOL0     C58900  -0.243   5.521  10.955 -0.9047 -1.1933  0.0093
  437MOL0     C58901  -0.188   5.512  11.098  0.3201 -0.8468  0.2195
  437MOL0     C58902  -0.205   5.383  11.170 -0.8188  0.4561 -0.4418
  437MOL0     C58903  -0.188   5.390  11.321  0.5167  0.5641  0.1766
  437MOL0    Cl58904  -0.223   5.224  11.370 -0.4706  0.2257 -0.5770
  437MOL0     C58905   0.093   5.662  10.325  0.4952 -0.2276 -0.1803
  437MOL0     C58906   0.170   5.728  10.229 -0.2520 -0.3636  1.3946
  437MOL0     O58907   0.472   5.578   9.998  0.0496 -0.4727 -0.1663
  437MOL0     C58908   0.558   5.698   9.762 -0.1028  0.6434 -0.3045
  437MOL0     C58909   0.614   5.772   9.666 -0.3270 -0.4743  0.3595
  437MOL0     N58910   1.137   6.077   9.403 -1.3133 -0.2050  0.5729
  437MOL0     N58911   1.212   6.153   9.473 -0.4646  0.0996 -0.7929
  437MOL0     C58912   1.452   6.311  10.598  0.0230  0.4261 -0.0173
  437MOL0     C58913   1.393   6.301  10.722 -0.2017  0.6268 -0.0797
  437MOL0     C58914   1.115   6.387  11.099 -0.1445 -0.6282 -0.6769
  437MOL0     C58915   0.979   6.364  11.132  0.2051 -0.6507  0.5503
  437MOL0     C58916   0.931   6.317  11.251 -0.5835  0.4591 -0.3630
  437MOL0     C58917   1.020   6.259  11.347  0.6889 -0.1463  0.6275
  437MOL0     O58918   0.974   6.187  11.454 -0.8050  0.2597  0.1418
  437MOL0     C58919   0.833   6.165  11.459 -0.4894 -0.1630  0.3641
  437MOL0     C58920   0.779   6.082  11.573  0.2194 -0.1197  0.7459
  437MOL0     C58921   0.844   5.946  11.560  1.2619  0.8854  0.5924
  437MOL0     C58922   0.831   5.850  11.677 -0.8066  0.2156 -0.5372
  437MOL0     C58923   0.867   5.715  11.637  0.5021 -0.4533 -0.3038
  437MOL0     C58924   0.905   5.598  11.618  0.2877  0.6301  0.8042
  437MOL0     C58925   1.157   6.275  11.323  0.4425 -0.1594 -0.2339
  437MOL0     C58926   1.203   6.332  11.194 -0.5302 -0.8004 -0.1172
  437MOL0     C58927   1.353   6.336  11.188  0.0304 -0.5721 -0.1797
  437MOL0     H58928   1.208   6.587  10.721 -2.1137 -0.9173  0.3463
  437MOL0     H58929   1.297   6.593  10.494 -0.5483 -0.1947 -0.9749
  437MOL0     H58930   1.444   6.631  10.348  0.3898  0.0484 -1.0271
  437MOL0     H58931   1.592   6.578  10.423  0.4473  0.9590 -0.7395
  437MOL0     H58932   1.645   6.420  10.193  0.6180  0.9348 -1.5141
  437MOL0     H58933   1.635   6.592  10.167 -2.8456  1.5733 -0.8472
  437MOL0     H58934   1.418   6.560  10.084  0.0348 -0.0454 -0.5721
  437MOL0     H58935   1.405   6.382  10.135 -0.1290 -0.1364 -0.5139
  437MOL0     H58936   1.581   6.525   9.912  2.4193 -2.7112 -2.4991
  437MOL0     H58937   1.623   6.366   9.956  0.0997  0.1966 -2.5697
  437MOL0     H58938   1.340   6.432   9.862  1.2088  1.6739 -2.7273
  437MOL0     H58939   1.472   6.392   9.767 -0.1251 -0.3168 -1.0729
  437MOL0     H58940   1.498   6.176   9.902  0.4858  1.8497  0.4612
  437MOL0     H58941   1.358   6.219  10.003 -1.4695 -1.0198 -0.2470
  437MOL0     H58942   1.212   6.240   9.788  1.0155  2.4145  1.1020
  437MOL0     H58943   1.257   6.079   9.841  0.2036  0.5570 -1.1981
  437MOL0     H58944   1.397   6.230   9.615  2.0033 -0.8608  0.9411
  437MOL0     H58945   1.441   6.070   9.643  0.9247  1.7716  0.5707
  437MOL0     H58946   1.212   5.885   9.652 -1.2450  1.7530  1.1161
  437MOL0     H58947   1.123   5.799   9.312 -0.1135 -2.0351  0.7717
  437MOL0     H58948   1.092   5.758   9.483  4.5655  2.0902  2.2045
  437MOL0     H58949   0.913   5.870   9.274 -1.0069 -3.0703 -0.3535
  437MOL0     H58950   0.892   5.737   9.393  3.8055 -0.8572  3.2062
  437MOL0     H58951   0.885   6.010   9.488  2.2593 -1.0937  2.6792
  437MOL0     H58952   0.844   5.858   9.568 -1.4568  0.1222  0.3921
  437MOL0     H58953   0.651   5.835   9.392  0.7276 -0.7846  0.6325
  437MOL0     H58954   0.684   6.002   9.354  1.7310 -1.9709 -2.1048
  437MOL0     H58955   0.482   6.074   9.715  1.9671  0.1566 -1.6280
  437MOL0     H58956   0.374   5.938   9.918 -1.2375 -1.7589  0.1244
  437MOL0     H58957   0.278   5.452  10.059  0.8830 -1.3954  1.6245
  437MOL0     H58958   0.149   5.343  10.222 -0.3562  0.1380  0.4013
  437MOL0     H58959   0.064   5.543  10.595  0.7582 -0.0901 -2.2242
  437MOL0     H58960  -0.080   5.607  10.512 -0.0424 -0.8156 -2.0259
  437MOL0     H58961  -0.179   5.374  10.529  0.0689  1.9955 -0.9483
  437MOL0     H58962  -0.058   5.321  10.641  2.4530  1.5700 -0.2618
  437MOL0     H58963  -0.224   5.558  10.697  1.2989 -0.0091  1.3162
  437MOL0     H58964  -0.300   5.399  10.737 -1.3225  1.2680 -1.4451
  437MOL0     H58965  -0.049   5.519  10.843  1.0828  0.2684  1.6893
  437MOL0     H58966  -0.106   5.357  10.884 -0.3334 -0.0705 -0.6738
  437MOL0     H58967  -0.339   5.469  10.959 -1.4087 -0.2429  0.5942
  437MOL0     H58968  -0.255   5.625  10.923  1.3325 -1.1018 -0.6968
  437MOL0     H58969  -0.084   5.548  11.096 -0.6197  2.0789 -1.7769
  437MOL0     H58970  -0.240   5.584  11.162 -0.6413 -2.7588  1.6632
  437MOL0     H58971  -0.134   5.307  11.139 -1.5524 -1.0048  1.2492
  437MOL0     H58972  -0.305   5.345  11.147 -1.0653  1.3877 -0.9475
  437MOL0     H58973  -0.093   5.429  11.359 -0.3263  0.9490  1.9907
  437MOL0     H58974  -0.262   5.464  11.352 -0.5790 -0.9288  1.2517
  437MOL0     H58975   0.046   5.723  10.402 -2.7674 -2.1378 -0.4536
  437MOL0     H58976   0.175   5.837  10.227  2.2934 -0.4188  0.2978
  437MOL0     H58977   0.576   5.591   9.770  1.7039  0.8683 -0.9936
  437MOL0     H58978   0.685   5.731   9.594  2.7436  3.9113  0.5134
  437MOL0     H58979   1.534   6.254  10.555  1.2047  3.3245 -1.8815
  437MOL0     H58980   1.416   6.226  10.796 -0.2639  1.8825  1.2681
  437MOL0     H58981   0.915   6.397  11.051  2.5247  1.4806 -0.5526
  437MOL0     H58982   0.825   6.320  11.270 -0.0989  0.8610  2.8892
  437MOL0     H58983   0.790   6.132  11.364  0.0656  1.7433 -0.6136
  437MOL0     H58984   0.786   6.262  11.474 -0.6957 -0.6369  3.4372
  437MOL0     H58985   0.671   6.065  11.571  0.4285 -1.7503  1.3559
  437MOL0     H58986   0.789   6.111  11.678 -2.3388 -1.9524  1.5994
  437MOL0     H58987   0.951   5.937  11.538  0.6118 -1.0477 -2.3810
  437MOL0     H58988   0.794   5.897  11.475 -0.7590 -3.2554  3.7707
  437MOL0     H58989   0.904   5.879  11.754  2.2914  0.9969 -3.4889
  437MOL0     H58990   0.730   5.844  11.716 -0.2861  0.2969  0.8748
  437MOL0     H58991   0.952   5.502  11.608 -1.2433 -0.1510  0.8478
  437MOL0     H58992   1.218   6.238  11.405  0.1062  0.4680  0.3118
  437MOL0     H58993   1.400   6.429  11.153 -0.8605  0.3004  0.8408
  437MOL0     H58994   1.394   6.302  11.284 -0.1847  1.9782  0.9162
  437MOL0     H58995   1.377   6.250  11.125 -2.1376 -2.5987  1.5750
  438MOL0     O58996   2.660   6.270   4.993 -0.5993 -0.3469  0.2736
  438MOL0     C58997   2.653   6.379   4.933  0.2796  0.3322 -0.0874
  438MOL0     O58998   2.655   6.383   4.797  0.4580  0.3510 -0.0902
  438MOL0     C58999   2.588   6.287   4.724 -1.2275  0.7438  0.3827
  438MOL0     C59000   2.638   6.275   4.592 -0.7373  0.8580  0.8545
  438MOL0     C59001   2.575   6.196   4.505  0.0162  0.2681 -0.3511
  438MOL0     C59002   2.459   6.128   4.548 -0.0942 -0.1236 -0.5996
  438MOL0     O59003   2.397   6.060   4.447 -0.8767  0.7928  0.1484
  438MOL0     C59004   2.422   5.920   4.440 -0.4405  0.1793 -0.4060
  438MOL0     C59005   2.364   5.865   4.312 -0.3799 -0.2347 -0.5431
  438MOL0     C59006   2.364   5.711   4.321 -0.7954 -0.9585 -0.8822
  438MOL0     C59007   2.376   5.657   4.176 -0.1662  0.5118 -0.5114
  438MOL0     C59008   2.348   5.502   4.172 -0.4336 -0.2006 -0.0725
  438MOL0     C59009   2.377   5.460   4.027 -0.5562  0.1520  0.2094
  438MOL0     C59010   2.310   5.336   3.978 -0.1446  0.8577  0.3184
  438MOL0     C59011   2.369   5.278   3.854  0.8128  0.4526  0.5037
  438MOL0     N59012   2.310   5.138   3.816 -0.0631 -0.2582 -0.0795
  438MOL0     C59013   2.302   5.028   3.902 -0.0066 -0.9494 -0.0269
  438MOL0     C59014   2.215   4.936   3.852 -1.3391  0.4547  0.0233
  438MOL0     C59015   2.185   4.804   3.925 -0.3979  0.1694 -0.6715
  438MOL0     C59016   2.042   4.767   3.890 -0.1522 -0.3447 -0.2837
  438MOL0     C59017   1.948   4.869   3.961  0.9207 -0.4504  0.5037
  438MOL0     C59018   1.809   4.800   3.970 -0.1996 -1.3222  0.0376
  438MOL0     O59019   1.717   4.901   4.013  0.1606  0.4179 -0.0077
  438MOL0     C59020   1.678   5.013   3.939 -0.2983  0.1514 -0.7640
  438MOL0     C59021   1.689   5.013   3.798  0.2483  0.2896 -0.8054
  438MOL0     C59022   1.650   5.125   3.724  0.6765  0.4689 -0.1374
  438MOL0     C59023   1.603   5.235   3.789  0.6348 -0.8490  0.4871
  438MOL0     C59024   1.538   5.347   3.724  0.5848  0.0168 -0.1364
  438MOL0     O59025   1.490   5.445   3.807  0.6791  0.0608  0.2134
  438MOL0     C59026   1.463   5.567   3.754  0.3889  0.4401  0.7174
  438MOL0     C59027   1.566   5.668   3.754  0.0134 -0.6319 -0.4397
  438MOL0     C59028   1.538   5.801   3.722 -0.1069  0.3522  0.2599
  438MOL0     C59029   1.404   5.829   3.680 -0.5685  0.4406 -0.6380
  438MOL0     O59030   1.381   5.961   3.648 -0.0322  0.5941  0.9332
  438MOL0     C59031   1.308   5.986   3.527 -0.0099 -0.1543 -0.0802
  438MOL0     C59032   1.346   6.112   3.456 -0.5701  0.0521  0.4408
  438MOL0     C59033   1.317   6.234   3.550  0.4270  0.1478 -0.8236
  438MOL0     C59034   1.433   6.299   3.626 -0.0966  0.4694 -0.1839
  438MOL0     C59035   1.404   6.361   3.762 -0.1501  0.5218 -0.1961
  438MOL0     C59036   1.320   6.485   3.763  0.8229  0.2693  1.2371
  438MOL0     C59037   1.386   6.613   3.796  0.0664 -0.0613  0.1221
  438MOL0     C59038   1.292   6.733   3.783 -0.0933 -0.0005 -0.3312
  438MOL0    Cl59039   1.137   6.722   3.865  0.4514 -0.0742 -0.5074
  438MOL0     C59040   1.309   5.725   3.672  0.4162  1.0531  0.2267
  438MOL0     C59041   1.338   5.592   3.695  0.0194  0.1514 -0.6192
  438MOL0     O59042   1.539   5.355   3.602  0.3376  0.8312 -0.4923
  438MOL0     C59043   1.604   5.236   3.928  0.3314  0.7238 -0.2616
  438MOL0     C59044   1.633   5.123   4.001 -1.5428  0.9900 -1.0566
  438MOL0     N59045   2.175   4.988   3.728 -0.1906  0.4316 -0.1448
  438MOL0     N59046   2.221   5.107   3.716  0.5445 -0.4454  0.2676
  438MOL0     C59047   2.401   6.129   4.680 -0.0517 -0.5443  0.1104
  438MOL0     C59048   2.473   6.215   4.769 -0.5917  0.0264  0.1163
  438MOL0     C59049   2.679   6.498   5.017  0.1563  0.0259  0.0248
  438MOL0     C59050   2.784   6.576   4.963  0.2346  0.4904 -0.1551
  438MOL0     C59051   2.815   6.692   5.022  0.6187 -0.1791  0.0294
  438MOL0     C59052   2.759   6.726   5.154  0.3579 -1.2639  0.1992
  438MOL0     O59053   2.779   6.851   5.221 -0.9263  0.5703  0.9032
  438MOL0     C59054   2.711   6.957   5.151 -0.2767 -0.3580  0.7097
  438MOL0     C59055   2.792   7.085   5.129  1.4708 -0.5064  0.1982
  438MOL0     C59056   2.694   7.174   5.057 -0.8020  0.4877 -0.3173
  438MOL0     C59057   2.780   7.281   4.984  0.0568  1.0315  0.2641
  438MOL0     C59058   2.700   7.391   4.934  0.4586 -0.6075  0.3129
  438MOL0     C59059   2.632   7.487   4.887 -0.1037 -0.2311  0.3160
  438MOL0     C59060   2.661   6.647   5.213 -0.4730  0.4556 -0.3270
  438MOL0     C59061   2.620   6.530   5.145 -0.1544  0.7450  0.4942
  438MOL0     C59062   2.521   6.430   5.205 -0.0218 -0.6808  0.5303
  438MOL0     H59063   2.710   6.349   4.559 -2.4219  3.9381  3.4872
  438MOL0     H59064   2.572   6.198   4.396 -1.4724 -0.7076 -0.3536
  438MOL0     H59065   2.527   5.890   4.438 -1.3091 -3.2436 -2.6210
  438MOL0     H59066   2.367   5.871   4.521 -1.4450  1.1319 -0.4908
  438MOL0     H59067   2.423   5.895   4.225 -1.4155  1.1145 -0.8237
  438MOL0     H59068   2.261   5.896   4.290 -0.4933  1.5982  2.0318
  438MOL0     H59069   2.275   5.673   4.372 -1.2786  1.3946  0.1585
  438MOL0     H59070   2.457   5.680   4.370 -1.1085  0.9147  1.0109
  438MOL0     H59071   2.303   5.705   4.110 -2.0238 -0.7892  0.4925
  438MOL0     H59072   2.479   5.672   4.141  0.9340 -2.2133  1.1628
  438MOL0     H59073   2.402   5.444   4.248  0.6433  0.6514 -0.1622
  438MOL0     H59074   2.240   5.498   4.189 -0.4550 -0.7676 -0.3095
  438MOL0     H59075   2.352   5.546   3.964 -1.1003 -2.0273 -2.7708
  438MOL0     H59076   2.483   5.439   4.010 -0.4241  1.8225 -1.3690
  438MOL0     H59077   2.210   5.373   3.952 -0.3096 -0.7241 -1.5144
  438MOL0     H59078   2.304   5.263   4.060 -2.1299  0.1657 -0.3949
  438MOL0     H59079   2.351   5.348   3.772 -2.3309  3.6571  3.5713
  438MOL0     H59080   2.477   5.272   3.869  0.8990  0.3240 -0.1467
  438MOL0     H59081   2.335   5.041   4.004  1.7098  1.5952 -0.8259
  438MOL0     H59082   2.264   4.734   3.895  0.1319  0.4609  0.0095
  438MOL0     H59083   2.182   4.803   4.034 -2.2460  0.3705 -0.7001
  438MOL0     H59084   2.024   4.779   3.783 -1.8986  1.6976  0.1620
  438MOL0     H59085   2.021   4.663   3.916  1.3429 -0.5792  0.0808
  438MOL0     H59086   1.950   4.952   3.890  0.2265  0.2663  1.2967
  438MOL0     H59087   1.982   4.904   4.059 -0.4619  2.7506 -0.0323
  438MOL0     H59088   1.816   4.730   4.054  0.6848  1.3176  2.3065
  438MOL0     H59089   1.784   4.755   3.873  1.5009  2.0549 -2.1801
  438MOL0     H59090   1.737   4.927   3.752 -0.1010  0.1276 -0.8723
  438MOL0     H59091   1.645   5.121   3.616 -0.7942  2.5886 -0.2046
  438MOL0     H59092   1.669   5.651   3.784  0.5088 -1.9220 -2.6316
  438MOL0     H59093   1.624   5.868   3.720 -1.8822  2.9575 -4.0318
  438MOL0     H59094   1.322   5.902   3.459  1.9272 -1.7665  2.1390
  438MOL0     H59095   1.202   5.993   3.553 -0.1452 -3.0705  0.5681
  438MOL0     H59096   1.449   6.091   3.427 -1.1618  0.1853 -1.9513
  438MOL0     H59097   1.280   6.129   3.370  0.8999 -1.5740 -1.0824
  438MOL0     H59098   1.286   6.304   3.472  2.5544  1.5154 -0.4986
  438MOL0     H59099   1.232   6.224   3.619  0.0458  3.6289 -0.6183
  438MOL0     H59100   1.469   6.392   3.580 -2.7954  1.3817 -0.6326
  438MOL0     H59101   1.498   6.212   3.640 -1.0658 -0.0920  1.0067
  438MOL0     H59102   1.498   6.391   3.810  0.0849 -0.6563  0.0984
  438MOL0     H59103   1.359   6.287   3.829  2.4980 -0.6773  0.3790
  438MOL0     H59104   1.270   6.496   3.666  0.1163 -1.9702  1.2808
  438MOL0     H59105   1.242   6.467   3.838 -0.6978  1.4806  0.0207
  438MOL0     H59106   1.476   6.631   3.738  0.0174  1.4602  0.4648
  438MOL0     H59107   1.410   6.619   3.902  2.3898 -0.0832 -0.3589
  438MOL0     H59108   1.351   6.817   3.822  2.9319 -0.9705 -2.4217
  438MOL0     H59109   1.284   6.745   3.675 -2.1619 -0.6720 -0.2943
  438MOL0     H59110   1.211   5.755   3.637 -0.0044 -0.2352  0.2777
  438MOL0     H59111   1.249   5.531   3.691 -1.5437  2.0600  1.9108
  438MOL0     H59112   1.591   5.334   3.971  0.4702  0.6860 -0.1333
  438MOL0     H59113   1.642   5.130   4.109  0.9641  4.1582 -1.3309
  438MOL0     H59114   2.307   6.076   4.692 -0.7931  1.2359  3.5269
  438MOL0     H59115   2.441   6.239   4.870  2.7951  0.4016  1.2248
  438MOL0     H59116   2.823   6.557   4.864 -0.9535 -1.5501 -0.2931
  438MOL0     H59117   2.895   6.751   4.979  0.9420 -0.9504 -0.4549
  438MOL0     H59118   2.631   6.983   5.220 -0.4835 -0.7310  0.6119
  438MOL0     H59119   2.678   6.925   5.052  1.1165 -2.1233  0.7661
  438MOL0     H59120   2.862   7.072   5.047 -0.2829  3.7020 -2.3181
  438MOL0     H59121   2.817   7.111   5.233  0.9998 -2.1235  0.7485
  438MOL0     H59122   2.627   7.228   5.124  2.3556  3.1986  0.9038
  438MOL0     H59123   2.632   7.118   4.985 -0.1016 -0.3061 -0.3146
  438MOL0     H59124   2.850   7.333   5.049  0.3976  0.0609  0.6909
  438MOL0     H59125   2.836   7.233   4.904  1.2514 -0.1411  1.7506
  438MOL0     H59126   2.562   7.550   4.837 -0.1918  0.4874  1.3226
  438MOL0     H59127   2.615   6.672   5.308  2.4198 -0.8752  1.5565
  438MOL0     H59128   2.454   6.485   5.271  0.8719  0.3442  0.6194
  438MOL0     H59129   2.454   6.391   5.128 -1.7583 -2.5320  2.8256
  438MOL0     H59130   2.575   6.356   5.265  3.8176  0.7987 -0.7425
  439MOL0     O59131   6.276  10.296   5.979 -0.2872 -0.0540  0.5052
  439MOL0     C59132   6.206  10.323   6.071  0.1893  0.8922  0.7580
  439MOL0     O59133   6.206  10.246   6.187 -0.3381  0.3669 -0.2032
  439MOL0     C59134   6.310  10.167   6.208 -0.3825  0.6021 -0.8625
  439MOL0     C59135   6.453  10.196   6.197 -0.4980  0.4826  0.1759
  439MOL0     C59136   6.556  10.111   6.247  0.3593  1.1761  0.4922
  439MOL0     C59137   6.518   9.988   6.304 -0.1852  0.0649 -0.5393
  439MOL0     O59138   6.612   9.904   6.345 -0.0134 -0.2131 -0.1789
  439MOL0     C59139   6.590   9.764   6.338 -0.4660  0.2668 -0.1889
  439MOL0     C59140   6.736   9.701   6.318  0.6939  1.3246  0.3324
  439MOL0     C59141   6.723   9.555   6.286  0.6585 -0.3585 -0.5878
  439MOL0     C59142   6.862   9.497   6.242 -0.1394 -1.0781 -0.9794
  439MOL0     C59143   6.854   9.351   6.214 -0.2491 -0.1932  0.6221
  439MOL0     C59144   6.748   9.300   6.110  0.0493 -0.7176 -0.3164
  439MOL0     C59145   6.813   9.261   5.974 -0.0686 -1.1820 -0.2584
  439MOL0     C59146   6.707   9.205   5.878 -0.7170 -0.2710  0.1274
  439MOL0     N59147   6.593   9.298   5.859 -0.0933 -0.3998  0.2670
  439MOL0     C59148   6.585   9.404   5.774  1.4658  0.0062 -0.1540
  439MOL0     C59149   6.473   9.466   5.806  0.0672  0.2173  0.0599
  439MOL0     C59150   6.442   9.595   5.761  0.8085  0.2509 -0.7780
  439MOL0     C59151   6.463   9.711   5.853 -0.0698  0.4291 -0.1511
  439MOL0     C59152   6.382   9.838   5.818 -0.1290  0.2292 -0.2741
  439MOL0     C59153   6.457   9.953   5.891 -0.2039  0.1188  0.2688
  439MOL0     O59154   6.569   9.985   5.817 -0.5734 -1.2204  0.4648
  439MOL0     C59155   6.686  10.031   5.870  0.1096 -0.6356  0.0686
  439MOL0     C59156   6.738   9.990   5.989 -0.8484  0.0254 -0.5602
  439MOL0     C59157   6.864  10.034   6.029  0.4665 -0.4868  0.1409
  439MOL0     C59158   6.940  10.120   5.943  0.0511  0.3545  0.5820
  439MOL0     C59159   7.090  10.144   5.970 -0.2465 -0.2260  0.1520
  439MOL0     O59160   7.153  10.038   6.024  0.1160  0.1870 -0.8342
  439MOL0     C59161   7.288  10.037   6.019 -0.6287 -0.0525 -0.3345
  439MOL0     C59162   7.362  10.090   6.129 -0.8998  0.4039 -0.0410
  439MOL0     C59163   7.503  10.103   6.126 -0.1962  0.1310  0.5947
  439MOL0     C59164   7.569  10.051   6.019  0.8605  0.8458 -0.0257
  439MOL0     O59165   7.706  10.049   6.004 -0.3683 -0.1538 -0.0702
  439MOL0     C59166   7.759   9.917   5.984  0.5112  0.0565  0.2485
  439MOL0     C59167   7.877   9.913   5.898  1.0478 -1.4980 -0.5455
  439MOL0     C59168   7.993  10.002   5.949  1.1449  0.5001 -0.3316
  439MOL0     C59169   8.107   9.995   5.844 -0.5637  0.0510 -0.6998
  439MOL0     C59170   8.228  10.055   5.907 -0.9317  0.2603 -1.0584
  439MOL0     C59171   8.351  10.068   5.815 -0.1981  0.9590  0.1380
  439MOL0     C59172   8.352  10.194   5.734  0.1331 -0.0555  0.4338
  439MOL0     C59173   8.483  10.213   5.654 -0.4914 -0.5486 -0.6310
  439MOL0    Cl59174   8.461  10.123   5.496 -0.5272  0.0770 -0.0367
  439MOL0     C59175   7.493   9.992   5.910 -0.2074  0.1423 -0.0123
  439MOL0     C59176   7.350   9.996   5.901 -0.0997 -0.1803 -0.9550
  439MOL0     O59177   7.146  10.239   5.915  1.0814 -0.6332 -0.3377
  439MOL0     C59178   6.872  10.178   5.832 -0.9445  0.4292  0.2767
  439MOL0     C59179   6.742  10.136   5.802  0.2616 -0.0481 -0.2756
  439MOL0     N59180   6.400   9.392   5.895  0.0698 -0.2112 -0.5085
  439MOL0     N59181   6.469   9.286   5.923 -0.4531  1.0374  0.6679
  439MOL0     C59182   6.378   9.959   6.317 -0.3106  0.0499 -0.2049
  439MOL0     C59183   6.279  10.043   6.276  0.0842 -0.6885  0.5562
  439MOL0     C59184   6.104  10.428   6.043  0.4331 -0.4670 -1.2716
  439MOL0     C59185   6.129  10.517   5.941  0.4646 -0.4880 -0.4005
  439MOL0     C59186   6.045  10.623   5.914  0.3723 -0.8348  0.0808
  439MOL0     C59187   5.934  10.645   5.986 -0.1380  0.5215  0.5683
  439MOL0     O59188   5.854  10.757   5.958  0.4864  0.2475  0.5182
  439MOL0     C59189   5.848  10.857   6.069 -0.0895  0.8263 -0.1988
  439MOL0     C59190   5.823  11.001   6.020 -0.2161 -0.9987  0.1003
  439MOL0     C59191   5.912  11.044   5.900  0.0881  0.2593  0.1229
  439MOL0     C59192   5.833  11.131   5.798 -0.3575  0.5852  0.1223
  439MOL0     C59193   5.805  11.265   5.843  0.0786  0.0038  0.2092
  439MOL0     C59194   5.791  11.386   5.874 -0.6151  0.2228  0.2444
  439MOL0     C59195   5.895  10.543   6.074 -0.5439  0.7830  0.1126
  439MOL0     C59196   5.983  10.440   6.113  0.9734  0.5198  0.0296
  439MOL0     C59197   5.935  10.348   6.219 -0.2771  0.8269 -0.0407
  439MOL0     H59198   6.484  10.280   6.136  1.0373 -0.1364  0.0501
  439MOL0     H59199   6.662  10.132   6.230  0.0307  5.1256  2.2128
  439MOL0     H59200   6.540   9.722   6.426 -0.6796  1.5145  0.3024
  439MOL0     H59201   6.539   9.737   6.245 -1.5186  3.2292 -0.5710
  439MOL0     H59202   6.789   9.720   6.412 -0.2132  0.6533  0.9912
  439MOL0     H59203   6.782   9.749   6.231  1.0517 -0.4237 -0.4791
  439MOL0     H59204   6.658   9.552   6.198  0.5109  0.3129 -0.5043
  439MOL0     H59205   6.668   9.496   6.360  0.6166 -0.8778 -1.0200
  439MOL0     H59206   6.893   9.541   6.147 -1.6443  1.9161 -0.1952
  439MOL0     H59207   6.931   9.520   6.323 -0.9211 -1.4434 -0.1832
  439MOL0     H59208   6.949   9.310   6.180  1.4123  1.9781  2.3569
  439MOL0     H59209   6.818   9.304   6.306 -3.2740  1.4141  0.3992
  439MOL0     H59210   6.681   9.222   6.148 -3.0896  0.2350 -3.3860
  439MOL0     H59211   6.696   9.392   6.081 -0.8929 -0.3718  2.2233
  439MOL0     H59212   6.878   9.176   5.995 -0.1057 -0.7658  1.7472
  439MOL0     H59213   6.872   9.342   5.931 -0.7368 -0.6695 -0.2338
  439MOL0     H59214   6.758   9.196   5.781 -3.1852  1.0116 -1.3891
  439MOL0     H59215   6.672   9.102   5.879 -0.9871 -0.2566 -2.0295
  439MOL0     H59216   6.664   9.447   5.714  0.9330 -0.0850 -0.9313
  439MOL0     H59217   6.496   9.616   5.668  0.5384  0.9871 -0.7788
  439MOL0     H59218   6.338   9.574   5.733  1.3335 -1.9339 -1.2059
  439MOL0     H59219   6.436   9.689   5.957  1.4215 -2.7948 -0.3122
  439MOL0     H59220   6.571   9.729   5.865 -0.4840  1.7669  2.0407
  439MOL0     H59221   6.274   9.835   5.831 -0.4212 -0.7791 -2.5112
  439MOL0     H59222   6.388   9.862   5.712 -2.0247  0.4202 -0.3783
  439MOL0     H59223   6.482   9.934   5.996 -2.4408  1.8993  1.2128
  439MOL0     H59224   6.395  10.042   5.881 -0.0128  0.2732  0.4591
  439MOL0     H59225   6.685   9.906   6.031 -1.5919 -0.5055 -2.4798
  439MOL0     H59226   6.905   9.988   6.118 -0.0346  0.5221  0.9073
  439MOL0     H59227   7.301  10.124   6.212 -2.7298 -2.1530 -0.1891
  439MOL0     H59228   7.558  10.155   6.205 -0.0992 -1.3004  1.5123
  439MOL0     H59229   7.795   9.875   6.078  2.3513  3.2106  1.0930
  439MOL0     H59230   7.693   9.845   5.935  1.0095 -0.0252 -0.3151
  439MOL0     H59231   7.908   9.808   5.889  4.4559 -0.8321  1.4462
  439MOL0     H59232   7.845   9.950   5.800  0.6259 -3.5764 -1.2438
  439MOL0     H59233   7.964  10.106   5.958  0.6658  0.5052 -1.6424
  439MOL0     H59234   8.028   9.960   6.043  0.6781 -2.5601 -1.3866
  439MOL0     H59235   8.091  10.051   5.751 -1.2945  2.3500  0.7083
  439MOL0     H59236   8.136   9.893   5.821 -0.4060 -0.2121  0.5601
  439MOL0     H59237   8.251  10.008   6.003  2.4439  0.7129 -1.5490
  439MOL0     H59238   8.204  10.153   5.947  0.6812 -0.5104  2.0856
  439MOL0     H59239   8.441  10.064   5.878  0.4965  1.0161 -0.8224
  439MOL0     H59240   8.350   9.985   5.744 -1.9001  0.8077  0.3087
  439MOL0     H59241   8.335  10.277   5.803 -0.8449  0.5024 -0.4598
  439MOL0     H59242   8.259  10.189   5.676  0.7168  2.7193 -0.8841
  439MOL0     H59243   8.503  10.319   5.632  2.6260 -1.1527 -1.2478
  439MOL0     H59244   8.574  10.190   5.710  1.0159  4.0279 -0.7837
  439MOL0     H59245   7.551   9.963   5.822  3.5761  1.5623  1.8042
  439MOL0     H59246   7.289   9.950   5.824 -1.5978 -0.6227  0.4312
  439MOL0     H59247   6.935  10.247   5.777 -1.1496 -0.3632 -1.0124
  439MOL0     H59248   6.694  10.179   5.714 -2.3189 -2.3321 -0.1099
  439MOL0     H59249   6.351   9.863   6.361 -1.5354 -0.9390 -2.9552
  439MOL0     H59250   6.170  10.035   6.275 -0.0871  0.0299 -3.3327
  439MOL0     H59251   6.215  10.510   5.875  0.3007  1.9421 -0.9713
  439MOL0     H59252   6.078  10.685   5.831  1.8626 -2.4795 -0.6245
  439MOL0     H59253   5.952  10.851   6.101  0.0889  1.3069 -0.6606
  439MOL0     H59254   5.789  10.828   6.156  0.4180  3.1859  1.0129
  439MOL0     H59255   5.822  11.076   6.100 -2.1130 -1.5847  0.6724
  439MOL0     H59256   5.718  10.991   5.991  0.0613  0.3286 -1.5054
  439MOL0     H59257   5.959  10.960   5.849 -0.4181 -0.2029  0.4049
  439MOL0     H59258   5.985  11.114   5.940 -1.7073  1.6068  1.2292
  439MOL0     H59259   5.891  11.135   5.706  1.3514 -0.4511  1.1109
  439MOL0     H59260   5.736  11.091   5.765 -1.0481  0.6319  1.9538
  439MOL0     H59261   5.780  11.490   5.897 -2.0720  0.0129  0.5573
  439MOL0     H59262   5.797  10.550   6.118 -0.7642  1.1251 -0.4243
  439MOL0     H59263   5.928  10.248   6.177  0.2854  0.0225  1.6719
  439MOL0     H59264   6.003  10.346   6.305 -0.7376 -2.7214  0.3577
  439MOL0     H59265   5.836  10.367   6.263  1.4633  0.6071  4.6150
  440MOL0     O59266   2.889   5.059   5.090  0.5251  0.4212 -0.4275
  440MOL0     C59267   2.849   5.080   4.976 -0.3894 -0.9386  0.3608
  440MOL0     O59268   2.725   5.092   4.933  0.4808 -0.2065 -0.1101
  440MOL0     C59269   2.624   5.135   5.016  0.5888  0.4023  0.3326
  440MOL0     C59270   2.527   5.225   4.960 -0.0974  1.3573 -0.4600
  440MOL0     C59271   2.412   5.271   5.023 -0.2357 -0.1735 -0.2908
  440MOL0     C59272   2.394   5.230   5.154 -0.7217 -0.1815 -1.1256
  440MOL0     O59273   2.283   5.260   5.240 -0.1665 -0.2432  0.1750
  440MOL0     C59274   2.155   5.276   5.176  0.3963  0.4689  0.2950
  440MOL0     C59275   2.105   5.131   5.138 -1.2165 -1.1485 -0.0371
  440MOL0     C59276   1.970   5.112   5.073 -0.7735 -1.8138 -0.2907
  440MOL0     C59277   1.983   5.160   4.929  0.6129  0.5807 -0.2856
  440MOL0     C59278   1.850   5.198   4.862  0.5940  0.3082 -0.3877
  440MOL0     C59279   1.777   5.079   4.780 -0.0892 -0.8900 -0.2235
  440MOL0     C59280   1.634   5.052   4.836  1.0329  0.4600  1.0487
  440MOL0     C59281   1.632   4.981   4.973 -0.3929 -0.4958 -0.9188
  440MOL0     N59282   1.690   4.844   4.965  0.7762 -0.5152 -0.4910
  440MOL0     C59283   1.639   4.739   4.895  0.7982 -0.3441  0.0989
  440MOL0     C59284   1.718   4.642   4.932  0.4559  0.3135 -0.3463
  440MOL0     C59285   1.707   4.498   4.879 -0.4793 -0.1146  0.1408
  440MOL0     C59286   1.799   4.467   4.765 -0.6360 -0.5561 -1.2247
  440MOL0     C59287   1.731   4.445   4.642 -0.4009 -0.9848  0.2881
  440MOL0     C59288   1.679   4.302   4.636  1.3526 -0.5897 -0.1169
  440MOL0     O59289   1.615   4.268   4.515 -0.3991 -0.6055 -0.0710
  440MOL0     C59290   1.553   4.143   4.502  0.9309 -0.1801 -0.9705
  440MOL0     C59291   1.445   4.133   4.419 -0.2547 -1.2662  0.2786
  440MOL0     C59292   1.382   4.017   4.382 -0.3298  0.3083  0.2815
  440MOL0     C59293   1.434   3.895   4.445  0.0483 -0.8527  0.4912
  440MOL0     C59294   1.380   3.766   4.415 -0.1218 -0.3817  0.3951
  440MOL0     O59295   1.252   3.759   4.355  0.6004 -0.2226 -0.6323
  440MOL0     C59296   1.188   3.636   4.341  0.1636  0.4622  0.6110
  440MOL0     C59297   1.114   3.621   4.232 -0.3235 -1.2406  0.2815
  440MOL0     C59298   1.039   3.507   4.210 -0.8237  1.1242  0.2537
  440MOL0     C59299   1.052   3.397   4.302 -0.2042 -0.0623  0.8632
  440MOL0     O59300   0.979   3.293   4.256 -0.3559 -0.2612 -0.4970
  440MOL0     C59301   0.971   3.181   4.347  1.1439  0.0575 -0.6234
  440MOL0     C59302   0.887   3.072   4.293 -0.2294  0.2096  0.4011
  440MOL0     C59303   0.894   2.945   4.379 -0.6284  0.1067 -0.4410
  440MOL0     C59304   0.821   2.961   4.511 -0.4092  0.0489  0.6614
  440MOL0     C59305   0.835   2.825   4.579  0.4224  0.3996  0.3923
  440MOL0     C59306   0.728   2.726   4.552 -0.5667  1.1384 -0.1165
  440MOL0     C59307   0.628   2.707   4.674 -0.7669 -0.3978  0.3049
  440MOL0     C59308   0.504   2.799   4.681  0.0832 -0.1765 -0.1253
  440MOL0    Cl59309   0.532   2.976   4.701 -0.4725 -0.5332 -0.4528
  440MOL0     C59310   1.118   3.412   4.425  0.6921  0.4828 -0.0590
  440MOL0     C59311   1.191   3.531   4.436  0.3507  0.3099 -0.2276
  440MOL0     O59312   1.442   3.670   4.462 -0.3405 -0.2197 -0.4413
  440MOL0     C59313   1.538   3.911   4.542  0.1251  0.6107 -0.2194
  440MOL0     C59314   1.599   4.029   4.565  0.4157 -0.5124  1.4858
  440MOL0     N59315   1.817   4.682   5.013 -0.0223  0.1769 -0.4032
  440MOL0     N59316   1.789   4.803   5.048  0.1400 -0.2326  0.0207
  440MOL0     C59317   2.490   5.156   5.223  0.0515  0.2644  0.8534
  440MOL0     C59318   2.604   5.109   5.151  0.6015 -0.0546 -0.8036
  440MOL0     C59319   2.958   5.090   4.875 -0.3807  0.2948  0.3155
  440MOL0     C59320   2.935   5.024   4.754  0.8809  0.5428  0.1676
  440MOL0     C59321   3.029   5.028   4.648 -0.0255 -0.2414 -1.4426
  440MOL0     C59322   3.153   5.093   4.669  0.2604 -0.2472 -0.9670
  440MOL0     O59323   3.240   5.100   4.563  0.1981 -0.1782 -0.9153
  440MOL0     C59324   3.257   5.229   4.513  0.5023 -0.5698 -0.2521
  440MOL0     C59325   3.359   5.219   4.405 -0.8525  0.3784 -0.2880
  440MOL0     C59326   3.357   5.358   4.322  0.9617  1.2419 -0.8188
  440MOL0     C59327   3.232   5.401   4.251  0.6685  0.9681  0.8027
  440MOL0     C59328   3.261   5.425   4.108  0.2947 -0.4942  0.0988
  440MOL0     C59329   3.278   5.448   3.995 -0.1988 -0.4601  0.1241
  440MOL0     C59330   3.172   5.165   4.796  0.2459 -0.1301 -0.2118
  440MOL0     C59331   3.072   5.166   4.889  0.5326  0.5668 -0.4427
  440MOL0     C59332   3.094   5.267   4.991  0.2134  0.7527 -0.2061
  440MOL0     H59333   2.542   5.232   4.853 -0.1983 -1.1281 -0.6950
  440MOL0     H59334   2.331   5.324   4.975 -0.8152 -0.9266 -0.1661
  440MOL0     H59335   2.091   5.320   5.254 -2.0957 -0.9347 -0.8305
  440MOL0     H59336   2.144   5.330   5.082  0.9377  0.0569 -0.0164
  440MOL0     H59337   2.112   5.056   5.217  1.4911 -0.5826  0.3701
  440MOL0     H59338   2.187   5.093   5.076  1.6849  0.2147  2.7017
  440MOL0     H59339   1.887   5.155   5.131  0.4515 -2.9855  2.5485
  440MOL0     H59340   1.938   5.007   5.074 -1.4054 -1.6344  0.9787
  440MOL0     H59341   2.047   5.249   4.922  1.5368 -0.0208  0.3404
  440MOL0     H59342   2.036   5.096   4.858 -0.5359 -0.4027 -0.2870
  440MOL0     H59343   1.783   5.240   4.938  2.8288 -0.9926  2.5278
  440MOL0     H59344   1.880   5.284   4.801 -1.3580  1.0688 -0.3480
  440MOL0     H59345   1.772   5.099   4.672 -0.0004 -1.3845 -0.3258
  440MOL0     H59346   1.830   4.983   4.774 -0.1122 -0.8651 -4.7018
  440MOL0     H59347   1.574   4.990   4.769 -1.1295  2.9817  0.4701
  440MOL0     H59348   1.571   5.141   4.833 -1.9294 -1.3993 -4.1959
  440MOL0     H59349   1.690   5.037   5.047  0.1647 -1.6173 -0.4985
  440MOL0     H59350   1.532   4.989   5.017 -0.2471  0.3314 -0.7133
  440MOL0     H59351   1.569   4.741   4.812  0.5167  1.2454  0.3565
  440MOL0     H59352   1.747   4.427   4.951 -0.4068 -1.3847 -1.1011
  440MOL0     H59353   1.603   4.469   4.859 -0.0412 -1.7396  0.0431
  440MOL0     H59354   1.869   4.551   4.757 -2.6365  1.1938 -1.4211
  440MOL0     H59355   1.867   4.386   4.793  0.4714  0.4661 -0.8817
  440MOL0     H59356   1.801   4.457   4.559 -1.3639 -0.4374 -0.4590
  440MOL0     H59357   1.667   4.532   4.628  1.7930  1.0162  1.8074
  440MOL0     H59358   1.599   4.296   4.710  1.1494  0.1265 -0.2685
  440MOL0     H59359   1.768   4.238   4.646  0.4144 -1.8693  0.3271
  440MOL0     H59360   1.414   4.229   4.379 -0.3185  0.9370  5.0149
  440MOL0     H59361   1.294   4.018   4.317  0.3115  2.7584 -0.6753
  440MOL0     H59362   1.103   3.695   4.152  0.6528 -1.4809 -0.0811
  440MOL0     H59363   0.977   3.489   4.123  2.2717  0.2924 -1.9356
  440MOL0     H59364   1.073   3.141   4.354  0.2639 -2.0778  1.6519
  440MOL0     H59365   0.929   3.212   4.443  3.4367 -0.7420  0.7367
  440MOL0     H59366   0.783   3.105   4.282  0.3471  1.9375 -0.1662
  440MOL0     H59367   0.919   3.042   4.192  1.5867 -0.3949  1.1218
  440MOL0     H59368   0.849   2.868   4.317 -0.6176  1.1096 -1.7362
  440MOL0     H59369   1.002   2.931   4.392 -0.4834  0.6266 -1.0550
  440MOL0     H59370   0.719   2.984   4.480 -0.6746  0.5058  1.8121
  440MOL0     H59371   0.863   3.028   4.586  0.8729 -2.1683  2.0390
  440MOL0     H59372   0.819   2.841   4.686 -2.5073  0.5411  0.0266
  440MOL0     H59373   0.933   2.779   4.569 -0.5980 -1.7994 -0.1581
  440MOL0     H59374   0.693   2.749   4.451  3.7642  1.9313 -1.6323
  440MOL0     H59375   0.781   2.630   4.549  0.0654  1.2216  3.8220
  440MOL0     H59376   0.683   2.718   4.767 -1.8875 -1.7060  1.1660
  440MOL0     H59377   0.602   2.601   4.686  0.9948 -0.9216 -0.2129
  440MOL0     H59378   0.447   2.804   4.588 -3.2733 -0.2903  1.7888
  440MOL0     H59379   0.433   2.774   4.760  1.6349 -3.7241  0.3517
  440MOL0     H59380   1.126   3.324   4.489 -1.0725 -1.6232 -2.5486
  440MOL0     H59381   1.254   3.549   4.522 -0.2927  3.6927 -0.3583
  440MOL0     H59382   1.573   3.827   4.601 -1.0464 -1.2359 -2.0234
  440MOL0     H59383   1.694   4.043   4.615  1.9360 -0.6152 -1.1485
  440MOL0     H59384   2.485   5.125   5.327  2.6594 -1.5801  0.5384
  440MOL0     H59385   2.667   5.043   5.209 -0.1823 -0.6311 -0.5848
  440MOL0     H59386   2.845   4.976   4.717  2.9681 -1.6946 -2.4677
  440MOL0     H59387   2.995   5.000   4.549  0.7517  0.9082 -2.0355
  440MOL0     H59388   3.290   5.303   4.586 -0.9980 -0.9392  0.8626
  440MOL0     H59389   3.157   5.267   4.488  0.6729  0.7883  0.9574
  440MOL0     H59390   3.325   5.138   4.339 -1.4569  0.6747 -0.3497
  440MOL0     H59391   3.462   5.204   4.437 -0.9268  0.5905  0.0537
  440MOL0     H59392   3.439   5.350   4.250 -1.2668  0.8574 -3.5024
  440MOL0     H59393   3.384   5.446   4.381  0.7214  0.4935  0.4300
  440MOL0     H59394   3.149   5.329   4.253  1.5002 -0.1058 -1.0833
  440MOL0     H59395   3.192   5.497   4.286 -2.3672 -0.3344  1.2312
  440MOL0     H59396   3.281   5.470   3.890 -1.7835 -2.0584 -0.3046
  440MOL0     H59397   3.262   5.224   4.810  1.3193 -1.5811 -0.7897
  440MOL0     H59398   3.003   5.264   5.052  0.7627 -2.0896  0.6474
  440MOL0     H59399   3.175   5.255   5.063  1.5078  1.3438 -1.5072
  440MOL0     H59400   3.099   5.367   4.948  1.3100  1.1562  0.7896
  441MOL0     O59401   5.424  10.221  10.646 -0.1326 -0.2753  0.6274
  441MOL0     C59402   5.403  10.149  10.551 -0.6911  0.2123 -0.2190
  441MOL0     O59403   5.307  10.064  10.539  0.4919  0.8576 -0.2080
  441MOL0     C59404   5.233  10.040  10.641 -0.9373 -0.4002  0.2032
  441MOL0     C59405   5.103  10.087  10.655  0.4273 -1.1621  0.3410
  441MOL0     C59406   5.036  10.085  10.782  0.5267  0.2657 -0.6125
  441MOL0     C59407   5.092  10.012  10.888 -0.3089  0.3883  0.0842
  441MOL0     O59408   5.042  10.011  11.007 -0.6247  0.2730 -0.2592
  441MOL0     C59409   5.010   9.884  11.071 -1.0077 -0.1162  1.0898
  441MOL0     C59410   4.956   9.902  11.213 -0.1522  0.3351  0.4582
  441MOL0     C59411   4.831   9.976  11.219  0.1643  0.8226 -0.5540
  441MOL0     C59412   4.773   9.960  11.363  0.0236  0.2518  0.5950
  441MOL0     C59413   4.851  10.021  11.476 -0.3421 -0.0513  0.5667
  441MOL0     C59414   4.753  10.034  11.599  0.4212 -0.3490 -0.0545
  441MOL0     C59415   4.689   9.903  11.656 -0.3233 -0.3438 -0.1564
  441MOL0     C59416   4.786   9.782  11.665  0.2491  0.4328 -0.2257
  441MOL0     N59417   4.781   9.721  11.803  0.8292  0.3110 -0.3834
  441MOL0     C59418   4.665   9.666  11.864 -0.1983  0.1529 -0.9151
  441MOL0     C59419   4.703   9.624  11.991  0.0999 -0.2433  0.1600
  441MOL0     C59420   4.619   9.542  12.085  0.2724  0.0996 -0.4153
  441MOL0     C59421   4.665   9.567  12.231 -0.5893  0.6144  0.2652
  441MOL0     C59422   4.639   9.717  12.278  0.7941  0.0671 -0.0215
  441MOL0     C59423   4.494   9.751  12.298  0.0689  1.1199 -0.7373
  441MOL0     O59424   4.485   9.896  12.321  0.9674 -0.1857 -0.9882
  441MOL0     C59425   4.352   9.941  12.332  1.0922 -0.3622 -0.4508
  441MOL0     C59426   4.330  10.086  12.347 -0.2363  0.2972  0.6706
  441MOL0     C59427   4.198  10.130  12.347  0.3315  0.1706  0.3792
  441MOL0     C59428   4.087  10.042  12.334  1.0549 -0.4581 -0.6833
  441MOL0     C59429   3.956  10.098  12.325 -0.5898 -0.5853  0.6254
  441MOL0     O59430   3.846  10.017  12.326 -0.1933 -0.6057 -0.4290
  441MOL0     C59431   3.719  10.064  12.329 -0.3315 -0.3266 -0.1952
  441MOL0     C59432   3.608   9.975  12.315 -0.0882 -1.2999  0.4382
  441MOL0     C59433   3.476  10.023  12.314 -0.2689  0.2209  0.1566
  441MOL0     C59434   3.450  10.163  12.321  0.7624 -0.2207  0.1477
  441MOL0     O59435   3.320  10.212  12.289  0.2795 -0.1104  0.1190
  441MOL0     C59436   3.300  10.353  12.259  0.2695  0.1533  1.3361
  441MOL0     C59437   3.176  10.373  12.175  0.0698 -0.0918  1.5640
  441MOL0     C59438   3.046  10.329  12.241  0.0722 -0.7681 -0.6659
  441MOL0     C59439   3.012  10.405  12.373 -0.4925  0.5175  0.0795
  441MOL0     C59440   2.965  10.547  12.357 -0.0790 -0.8577 -0.1883
  441MOL0     C59441   2.837  10.580  12.268  0.2906 -0.9179  0.7560
  441MOL0     C59442   2.705  10.609  12.362 -1.1018 -0.0520  0.3512
  441MOL0     C59443   2.565  10.590  12.295  0.1198 -0.0601 -0.1821
  441MOL0    Cl59444   2.529  10.706  12.174 -0.5276  0.1464  0.5764
  441MOL0     C59445   3.548  10.247  12.360 -0.5190 -1.2323  1.6436
  441MOL0     C59446   3.681  10.202  12.364 -0.6038  0.9435 -0.3079
  441MOL0     O59447   3.957  10.213  12.283  0.6479  0.3285 -0.3324
  441MOL0     C59448   4.112   9.908  12.326 -0.3026  0.3470  0.6032
  441MOL0     C59449   4.239   9.853  12.324 -0.2657  0.5937 -0.6518
  441MOL0     N59450   4.838   9.657  12.001  0.5069 -0.3356 -0.4449
  441MOL0     N59451   4.885   9.709  11.889 -1.2658  0.6989 -0.5303
  441MOL0     C59452   5.216   9.941  10.861 -0.5899  0.3148 -0.5835
  441MOL0     C59453   5.289   9.961  10.739  1.2892  1.2219 -0.1130
  441MOL0     C59454   5.495  10.184  10.430 -0.6147  0.6167 -0.0042
  441MOL0     C59455   5.624  10.225  10.457  0.0347 -0.2324 -0.2650
  441MOL0     C59456   5.723  10.243  10.358 -0.1552 -0.8057  0.3430
  441MOL0     C59457   5.683  10.233  10.226  0.7887 -0.2371  0.7041
  441MOL0     O59458   5.774  10.272  10.138 -0.3287  0.5995  0.7161
  441MOL0     C59459   5.758  10.246   9.994  0.2613 -0.4430 -1.0084
  441MOL0     C59460   5.745  10.095   9.971  0.6173  0.6918 -0.7579
  441MOL0     C59461   5.755  10.052   9.822 -0.2593  0.5344  0.4806
  441MOL0     C59462   5.676  10.128   9.726  0.1065  0.6051 -0.2844
  441MOL0     C59463   5.535  10.149   9.761  1.0782 -0.3201  0.1524
  441MOL0     C59464   5.421  10.138   9.789 -0.0810  0.3009  0.5901
  441MOL0     C59465   5.549  10.201  10.201 -0.3664  0.6022 -0.2344
  441MOL0     C59466   5.456  10.175  10.297  1.0673 -0.1937  0.1632
  441MOL0     C59467   5.315  10.141  10.241  0.0913 -0.3752  0.9449
  441MOL0     H59468   5.072  10.138  10.564  0.8648 -0.3840  0.6212
  441MOL0     H59469   4.943  10.135  10.807  0.2860 -0.8604  0.8876
  441MOL0     H59470   4.925   9.839  11.019 -0.9621  0.7648  0.2108
  441MOL0     H59471   5.091   9.812  11.059 -2.4068 -1.5699 -0.2091
  441MOL0     H59472   5.032   9.956  11.271 -0.7250  1.6771  0.0087
  441MOL0     H59473   4.937   9.799  11.245  3.7936 -1.2262 -1.5298
  441MOL0     H59474   4.764   9.945  11.138 -0.2280  1.3045 -0.4200
  441MOL0     H59475   4.866  10.078  11.203  2.0193 -0.0903 -2.9893
  441MOL0     H59476   4.680  10.017  11.348  1.9959  3.1645 -1.7312
  441MOL0     H59477   4.753   9.856  11.389 -0.3264  0.3007  0.5304
  441MOL0     H59478   4.938   9.958  11.496  0.1600 -0.6838 -2.9631
  441MOL0     H59479   4.893  10.121  11.460  3.5727 -1.4429  0.9406
  441MOL0     H59480   4.813  10.090  11.672 -2.1872  0.6915  1.3978
  441MOL0     H59481   4.664  10.094  11.577 -1.1420 -2.2246  0.8577
  441MOL0     H59482   4.624   9.878  11.572  2.0345 -3.3218 -1.2778
  441MOL0     H59483   4.636   9.917  11.751 -1.9712 -2.3001 -0.7339
  441MOL0     H59484   4.764   9.711  11.585  2.9047  0.9484 -1.5408
  441MOL0     H59485   4.894   9.799  11.657  0.2899  0.5058  0.4151
  441MOL0     H59486   4.567   9.646  11.822 -1.4557  0.2685  1.7514
  441MOL0     H59487   4.511   9.556  12.083  0.5215  5.6588  3.0203
  441MOL0     H59488   4.629   9.436  12.063 -0.5800 -0.6645  2.4679
  441MOL0     H59489   4.613   9.500  12.300  0.5464 -1.0029 -0.3759
  441MOL0     H59490   4.772   9.550  12.250 -0.1468  1.3439 -1.3226
  441MOL0     H59491   4.686   9.789  12.211 -3.0523  0.9606 -2.0929
  441MOL0     H59492   4.672   9.738  12.380 -2.2221 -0.2876  1.1462
  441MOL0     H59493   4.456   9.688  12.378  0.5955 -0.7153 -1.8566
  441MOL0     H59494   4.437   9.714  12.212 -1.0707 -0.0243  0.4786
  441MOL0     H59495   4.408  10.161  12.354  0.5312 -0.4322  0.1340
  441MOL0     H59496   4.179  10.236  12.354  0.9702  0.4029 -0.9957
  441MOL0     H59497   3.634   9.870  12.300  1.1546 -0.9073 -0.2246
  441MOL0     H59498   3.410   9.937  12.307 -0.1934 -0.2466  3.5096
  441MOL0     H59499   3.302  10.402  12.356  0.2721  3.3247 -0.1471
  441MOL0     H59500   3.385  10.393  12.203 -0.7086 -0.0465 -0.3521
  441MOL0     H59501   3.172  10.475  12.135  4.4697  0.1812  1.3628
  441MOL0     H59502   3.193  10.311  12.087 -1.8127 -2.1462  2.5258
  441MOL0     H59503   2.962  10.347  12.173 -1.0065 -1.7840  0.3363
  441MOL0     H59504   3.047  10.222  12.264  2.7956 -1.2789 -2.7246
  441MOL0     H59505   3.103  10.414  12.432  3.3959 -1.8128 -4.7745
  441MOL0     H59506   2.939  10.334  12.414  1.0868 -1.0026  0.3612
  441MOL0     H59507   3.046  10.603  12.308 -1.5414 -0.1352 -1.9244
  441MOL0     H59508   2.958  10.585  12.459  0.7543 -3.5762  0.9770
  441MOL0     H59509   2.858  10.660  12.196 -0.5294 -0.0289  1.4797
  441MOL0     H59510   2.805  10.494  12.209 -1.5210  1.1534 -1.5192
  441MOL0     H59511   2.709  10.708  12.409  1.0071 -0.0627  0.2689
  441MOL0     H59512   2.725  10.539  12.443 -0.1821  0.9705  1.0328
  441MOL0     H59513   2.563  10.499  12.235 -2.8205  1.1380 -2.1323
  441MOL0     H59514   2.490  10.579  12.373 -0.9584  0.0911 -1.1786
  441MOL0     H59515   3.518  10.351  12.364 -0.2213 -0.9843 -0.8910
  441MOL0     H59516   3.759  10.273  12.386  1.3111 -1.4798  1.2889
  441MOL0     H59517   4.026   9.843  12.310 -0.6598  0.8486  0.4600
  441MOL0     H59518   4.246   9.748  12.297  1.1512  0.5313 -0.1314
  441MOL0     H59519   5.258   9.881  10.941 -2.9573  0.2209  0.6720
  441MOL0     H59520   5.384   9.914  10.716  0.6504  0.5001 -1.4405
  441MOL0     H59521   5.661  10.238  10.558  2.7259 -0.6544 -1.1045
  441MOL0     H59522   5.819  10.286  10.383 -0.3631  0.7740 -1.3811
  441MOL0     H59523   5.840  10.292   9.938 -0.5119  1.5962 -0.5525
  441MOL0     H59524   5.669  10.300   9.960  1.1345  2.7451  1.3035
  441MOL0     H59525   5.644  10.064   9.999  1.4126 -1.0257  0.4362
  441MOL0     H59526   5.820  10.034  10.022  1.2680  0.6902 -1.7024
  441MOL0     H59527   5.738   9.944   9.809  1.4593  0.5573 -3.2078
  441MOL0     H59528   5.858  10.054   9.786  0.8287 -1.1635  3.1744
  441MOL0     H59529   5.716  10.228   9.707 -0.3150  1.0766  1.1550
  441MOL0     H59530   5.674  10.066   9.636  2.3453 -3.3519  2.0636
  441MOL0     H59531   5.315  10.126   9.802 -0.1027  1.6791  1.9319
  441MOL0     H59532   5.524  10.225  10.098  0.8699  2.4458 -0.1530
  441MOL0     H59533   5.320  10.158  10.133 -0.7525 -0.1751  0.9270
  441MOL0     H59534   5.290  10.037  10.260  0.7668 -1.0108 -1.3794
  441MOL0     H59535   5.245  10.207  10.294  0.3632  0.1756  0.6302
  442MOL0     O59536   9.755   2.322   8.848  0.4900 -0.0942  0.0811
  442MOL0     C59537   9.818   2.313   8.956 -0.1538 -0.4931  0.0065
  442MOL0     O59538   9.875   2.199   9.010  0.0218  0.1880 -0.4710
  442MOL0     C59539   9.862   2.082   8.950 -0.3100  0.4391  0.2171
  442MOL0     C59540   9.754   1.997   8.990 -0.3492  0.2247 -0.5068
  442MOL0     C59541   9.763   1.868   8.947  0.8253  0.1250  0.3060
  442MOL0     C59542   9.866   1.813   8.866  0.0768  0.6528 -0.6098
  442MOL0     O59543   9.847   1.677   8.833 -0.1270 -0.3468 -0.1643
  442MOL0     C59544   9.932   1.614   8.738  0.0705  0.4359  0.4470
  442MOL0     C59545   9.940   1.459   8.758  0.3788 -0.7279  0.0639
  442MOL0     C59546   9.957   1.403   8.898 -0.5622  0.1586  0.0678
  442MOL0     C59547   9.973   1.253   8.906  0.0894  0.7294  0.5203
  442MOL0     C59548   9.905   1.197   9.035  0.3520  0.7980 -0.1642
  442MOL0     C59549   9.904   1.047   9.056 -0.5601  0.1897  0.3051
  442MOL0     C59550   9.989   1.008   9.181 -0.1323  0.1228  0.8583
  442MOL0     C59551  10.021   0.861   9.192 -1.0388  1.0407  0.7193
  442MOL0     N59552  10.053   0.826   9.327 -0.1326  0.3224  0.7502
  442MOL0     C59553  10.178   0.848   9.386 -0.7461 -0.5150 -1.1984
  442MOL0     C59554  10.156   0.796   9.520 -0.6144  0.7279  0.5608
  442MOL0     C59555  10.267   0.767   9.618  0.1223  0.3432  0.5214
  442MOL0     C59556  10.326   0.622   9.598  0.2868  0.0721 -1.1408
  442MOL0     C59557  10.405   0.613   9.470  0.6489  0.4292  0.0985
  442MOL0     C59558  10.497   0.493   9.466  0.5487 -0.1154  0.1902
  442MOL0     O59559  10.591   0.500   9.575  0.2335  0.3218 -0.5878
  442MOL0     C59560  10.671   0.386   9.594  0.8738 -0.4398  0.0572
  442MOL0     C59561  10.789   0.407   9.672 -0.2360 -0.0621  0.4140
  442MOL0     C59562  10.878   0.302   9.707 -0.1549 -0.0136  0.3189
  442MOL0     C59563  10.862   0.177   9.648 -1.3031  0.3530 -0.1916
  442MOL0     C59564  10.962   0.071   9.684  0.2820  0.7310 -0.6103
  442MOL0     O59565  11.050   0.106   9.788  0.3531 -0.7525  0.2572
  442MOL0     C59566  11.147   0.021   9.828 -0.1571 -0.4777 -0.3423
  442MOL0     C59567  11.124  -0.116   9.859  0.4607  0.2311  0.1703
  442MOL0     C59568  11.225  -0.196   9.906 -0.2929 -0.4297  1.5665
  442MOL0     C59569  11.359  -0.150   9.922 -0.7997 -0.4321 -0.8700
  442MOL0     O59570  11.469  -0.224   9.949 -0.4065  0.8309 -0.2632
  442MOL0     C59571  11.457  -0.361   9.990 -0.3196 -0.0593  0.6501
  442MOL0     C59572  11.595  -0.421   9.977 -0.0491 -0.3407  0.0662
  442MOL0     C59573  11.603  -0.560  10.036 -0.3461 -0.1196  0.3657
  442MOL0     C59574  11.519  -0.669   9.971 -0.0710  0.1391 -0.8392
  442MOL0     C59575  11.560  -0.803  10.028 -0.5346  1.0642  0.3364
  442MOL0     C59576  11.495  -0.824  10.164  0.0612 -0.4548 -0.9231
  442MOL0     C59577  11.557  -0.942  10.235 -0.7684 -0.7315  0.6232
  442MOL0     C59578  11.479  -0.974  10.360 -0.2994 -0.5794 -0.9879
  442MOL0    Cl59579  11.585  -1.068  10.466  0.0297  0.2453 -0.0039
  442MOL0     C59580  11.377  -0.014   9.905 -0.4297  0.2085  0.1805
  442MOL0     C59581  11.274   0.063   9.846  0.0633 -0.2848 -1.2147
  442MOL0     O59582  10.947  -0.039   9.633  0.1753 -0.0047 -0.1274
  442MOL0     C59583  10.759   0.157   9.555  0.2805 -0.6048 -0.4462
  442MOL0     C59584  10.663   0.263   9.523 -0.6632  0.1057 -0.7991
  442MOL0     N59585  10.019   0.782   9.543  0.6745 -0.4848  0.2933
  442MOL0     N59586   9.959   0.799   9.424 -0.1832  0.6391  0.0547
  442MOL0     C59587   9.957   1.905   8.809  0.4949  1.4657 -0.9183
  442MOL0     C59588   9.969   2.036   8.867  0.2351 -0.0671  1.0384
  442MOL0     C59589   9.834   2.427   9.040  0.0614  0.0834  0.2041
  442MOL0     C59590   9.953   2.440   9.123 -0.7302  0.3993 -0.0479
  442MOL0     C59591   9.978   2.551   9.203  0.0940  0.9876 -0.1546
  442MOL0     C59592   9.885   2.663   9.204 -0.5319  0.3748 -0.0931
  442MOL0     O59593   9.884   2.777   9.291 -0.4097 -0.0200  0.0968
  442MOL0     C59594   9.984   2.797   9.392 -0.3938  0.9092  0.2021
  442MOL0     C59595   9.916   2.835   9.522  0.2333 -0.1388  0.6722
  442MOL0     C59596  10.019   2.845   9.644  0.6271  0.1259  0.5080
  442MOL0     C59597  10.077   2.721   9.718 -0.1645 -0.0730 -0.1922
  442MOL0     C59598  10.179   2.655   9.641  0.7117  0.4582 -0.9410
  442MOL0     C59599  10.269   2.593   9.584  0.5192 -0.1947 -0.1490
  442MOL0     C59600   9.782   2.652   9.110  0.3216 -0.0998 -0.1752
  442MOL0     C59601   9.755   2.540   9.035  0.1715 -0.6924  1.3303
  442MOL0     C59602   9.618   2.549   8.957  0.1051 -0.3263  0.2207
  442MOL0     H59603   9.676   2.038   9.053  0.0516  0.6154 -0.2575
  442MOL0     H59604   9.693   1.798   8.992  2.3525  0.1975  2.9897
  442MOL0     H59605   9.890   1.627   8.638  1.6957 -0.2118 -0.3559
  442MOL0     H59606  10.033   1.655   8.745  0.9298 -1.0996 -1.8458
  442MOL0     H59607  10.012   1.415   8.688  1.7741  1.9770 -0.3492
  442MOL0     H59608   9.840   1.430   8.724 -0.7888 -0.2883  2.8593
  442MOL0     H59609   9.873   1.434   8.959 -0.7855 -1.4121  0.6163
  442MOL0     H59610  10.042   1.454   8.944 -0.0261  0.6915 -1.4443
  442MOL0     H59611   9.928   1.210   8.816 -0.8350  1.7606  0.4628
  442MOL0     H59612  10.078   1.223   8.903  0.4708  1.9299 -3.6058
  442MOL0     H59613   9.965   1.243   9.114 -0.7290  1.4091  0.3204
  442MOL0     H59614   9.800   1.228   9.045 -0.6725 -2.7686  1.9210
  442MOL0     H59615   9.797   1.022   9.058 -1.0139  1.8125 -0.9600
  442MOL0     H59616   9.943   0.998   8.966 -0.4382 -2.9122  1.9301
  442MOL0     H59617   9.944   1.040   9.276 -0.2790 -2.6059  1.7937
  442MOL0     H59618  10.088   1.055   9.182  0.8150 -1.7798  1.4736
  442MOL0     H59619   9.943   0.795   9.155  0.8123 -0.3655 -0.8634
  442MOL0     H59620  10.108   0.842   9.129 -2.6001 -2.3833 -0.6092
  442MOL0     H59621  10.271   0.861   9.333 -0.5950 -1.2790 -1.1278
  442MOL0     H59622  10.350   0.835   9.597  0.4613  0.3844  1.9250
  442MOL0     H59623  10.229   0.793   9.717 -0.8360 -0.1351  0.2909
  442MOL0     H59624  10.392   0.610   9.684  1.4800  1.0252 -1.9040
  442MOL0     H59625  10.244   0.550   9.603 -1.9369  2.5349  1.3601
  442MOL0     H59626  10.465   0.701   9.448 -0.8050  1.7311  1.1263
  442MOL0     H59627  10.333   0.591   9.390  3.1345 -2.0914 -1.6625
  442MOL0     H59628  10.546   0.503   9.369 -0.0921  0.6891 -0.0668
  442MOL0     H59629  10.432   0.405   9.464  1.1780 -0.5817 -1.7279
  442MOL0     H59630  10.819   0.496   9.726  3.2039 -2.7325  3.4351
  442MOL0     H59631  10.953   0.331   9.779 -0.2426  1.0035  0.0283
  442MOL0     H59632  11.025  -0.150   9.828  1.7377  0.3982 -4.9367
  442MOL0     H59633  11.211  -0.303   9.921 -0.9913 -0.3381  1.6264
  442MOL0     H59634  11.409  -0.381  10.087  1.1388  0.1908  1.4508
  442MOL0     H59635  11.382  -0.409   9.926 -0.5726  1.6686 -0.4259
  442MOL0     H59636  11.624  -0.416   9.871  2.0106 -4.5727  0.2417
  442MOL0     H59637  11.663  -0.356  10.033 -0.7767  3.6415 -3.1058
  442MOL0     H59638  11.707  -0.593  10.035  0.4499  2.2070  1.0640
  442MOL0     H59639  11.586  -0.550  10.143 -1.7640  1.3382  0.0416
  442MOL0     H59640  11.536  -0.677   9.863  0.2338  3.4844 -1.1578
  442MOL0     H59641  11.413  -0.646   9.987  0.3800  0.2488  2.8758
  442MOL0     H59642  11.669  -0.814  10.039 -0.4405  0.0463 -1.1349
  442MOL0     H59643  11.525  -0.881   9.960 -1.4000 -0.3367  2.3061
  442MOL0     H59644  11.512  -0.737  10.229 -0.3625 -2.1407  1.5489
  442MOL0     H59645  11.387  -0.840  10.155 -0.2498  1.7689 -2.1088
  442MOL0     H59646  11.657  -0.909  10.265 -1.6839  2.7594  0.3411
  442MOL0     H59647  11.575  -1.034  10.179  0.1275 -0.0604 -0.2369
  442MOL0     H59648  11.461  -0.873  10.398 -2.1009 -0.7096 -1.3812
  442MOL0     H59649  11.389  -1.033  10.344 -0.5634 -0.8221  1.1441
  442MOL0     H59650  11.479   0.022   9.900 -1.1291  2.1095 -1.7018
  442MOL0     H59651  11.290   0.169   9.825 -0.0389 -0.3618 -1.7020
  442MOL0     H59652  10.757   0.068   9.494 -3.9196 -1.7345  1.0197
  442MOL0     H59653  10.596   0.246   9.439  0.8186 -0.5185 -1.8910
  442MOL0     H59654  10.025   1.863   8.736 -1.3577  1.4284 -2.6789
  442MOL0     H59655  10.057   2.096   8.845 -0.1505 -0.3221 -1.4740
  442MOL0     H59656  10.030   2.365   9.134  1.6653  1.8396 -4.4311
  442MOL0     H59657  10.059   2.551   9.275  1.3786  1.3041 -1.5575
  442MOL0     H59658  10.056   2.874   9.361  1.6714 -1.7324 -2.0733
  442MOL0     H59659  10.040   2.706   9.414 -1.0094  0.9016  1.8866
  442MOL0     H59660   9.845   2.753   9.541  1.9727 -2.4156 -1.9366
  442MOL0     H59661   9.856   2.925   9.505  1.7657  1.2269  2.0412
  442MOL0     H59662   9.959   2.902   9.715  0.9668 -1.0425  1.7810
  442MOL0     H59663  10.099   2.912   9.614  0.8636 -0.8236 -1.1332
  442MOL0     H59664  10.122   2.764   9.808  2.0803  0.2330 -1.3696
  442MOL0     H59665   9.999   2.649   9.743 -2.7785  2.3610 -0.8340
  442MOL0     H59666  10.337   2.532   9.528 -0.3297 -1.2578 -0.0506
  442MOL0     H59667   9.714   2.736   9.108  1.1727  0.7057  1.7762
  442MOL0     H59668   9.649   2.563   8.853 -0.8267  0.4996  0.0373
  442MOL0     H59669   9.565   2.455   8.974  0.4281 -0.8261 -1.3739
  442MOL0     H59670   9.558   2.632   8.995 -0.2276 -1.3117  1.9658
  443MOL0     O59671   3.641   1.384   2.997  0.0059 -0.9258  0.0128
  443MOL0     C59672   3.683   1.376   2.881  0.3680  0.1863 -1.0260
  443MOL0     O59673   3.809   1.394   2.835  0.2401 -0.0793 -0.4891
  443MOL0     C59674   3.910   1.403   2.936  0.8452 -0.0337  1.1525
  443MOL0     C59675   3.937   1.317   3.040  0.5819 -0.0831 -0.8923
  443MOL0     C59676   4.043   1.349   3.135 -0.0829  0.5972  0.1278
  443MOL0     C59677   4.125   1.459   3.124 -0.6566 -0.1626  0.0195
  443MOL0     O59678   4.244   1.472   3.195 -0.0232 -0.6758 -0.2577
  443MOL0     C59679   4.318   1.357   3.246  0.4659 -0.7377 -0.0407
  443MOL0     C59680   4.433   1.404   3.335  0.1511 -0.7776  1.7469
  443MOL0     C59681   4.397   1.475   3.469  0.2668  0.1675  0.3048
  443MOL0     C59682   4.528   1.523   3.533  0.9188  0.8783  0.2537
  443MOL0     C59683   4.497   1.594   3.663 -0.4907 -0.1632  0.0462
  443MOL0     C59684   4.422   1.720   3.646 -0.2725 -0.0542  0.2547
  443MOL0     C59685   4.433   1.807   3.769 -0.2152 -0.1065  0.6454
  443MOL0     C59686   4.357   1.757   3.889  0.0993  0.0238 -0.9291
  443MOL0     N59687   4.411   1.830   4.006 -0.3019  0.3583  0.0551
  443MOL0     C59688   4.454   1.762   4.118  1.0221  0.0228 -0.4441
  443MOL0     C59689   4.463   1.867   4.211 -0.4988 -0.7907  0.7260
  443MOL0     C59690   4.472   1.854   4.355  0.8996  1.0478 -0.1740
  443MOL0     C59691   4.610   1.806   4.387 -0.3195  0.0569 -1.2812
  443MOL0     C59692   4.644   1.789   4.534 -0.1516 -0.3945 -0.4746
  443MOL0     C59693   4.785   1.849   4.558 -0.0714  0.4464 -0.2355
  443MOL0     O59694   4.893   1.779   4.489 -0.3662 -1.2939 -0.4123
  443MOL0     C59695   4.971   1.685   4.559 -0.6757 -0.1764  0.1495
  443MOL0     C59696   5.007   1.571   4.490 -0.3145 -0.0867  0.1082
  443MOL0     C59697   5.095   1.475   4.549  0.9469  0.4868  0.6641
  443MOL0     C59698   5.139   1.500   4.679  0.2450 -0.7874  0.2392
  443MOL0     C59699   5.230   1.396   4.730  0.2665  0.5648 -0.5222
  443MOL0     O59700   5.188   1.272   4.712 -0.2041  0.6523 -0.7071
  443MOL0     C59701   5.277   1.167   4.753 -0.0184  1.4487  0.9635
  443MOL0     C59702   5.213   1.045   4.795 -0.2873 -0.8988  0.0037
  443MOL0     C59703   5.277   0.927   4.832  0.3542  0.4988  0.2577
  443MOL0     C59704   5.414   0.930   4.828  1.2017  0.2554  0.8397
  443MOL0     O59705   5.478   0.803   4.860 -0.4917 -0.5187 -0.8650
  443MOL0     C59706   5.624   0.815   4.890 -0.0291 -0.1966  0.9084
  443MOL0     C59707   5.719   0.764   4.772 -0.4628  0.0579 -0.0819
  443MOL0     C59708   5.725   0.610   4.745 -0.1621 -0.5801  0.0624
  443MOL0     C59709   5.877   0.559   4.725 -0.3450 -0.0619 -0.7236
  443MOL0     C59710   5.949   0.618   4.604 -0.1391  0.0497  0.4517
  443MOL0     C59711   5.882   0.625   4.469  1.2195 -0.4057  0.3949
  443MOL0     C59712   5.892   0.483   4.398 -0.9579  0.0260  0.3827
  443MOL0     C59713   6.024   0.472   4.307 -0.1896  0.0171 -0.3015
  443MOL0    Cl59714   5.986   0.328   4.211 -0.0689 -0.3929  0.1935
  443MOL0     C59715   5.489   1.041   4.781 -0.1628  0.3359  0.7416
  443MOL0     C59716   5.412   1.159   4.747 -0.8640  0.5185  1.2473
  443MOL0     O59717   5.328   1.437   4.796 -0.0002  0.0311 -0.6508
  443MOL0     C59718   5.094   1.616   4.750  0.3337  1.1498 -0.3547
  443MOL0     C59719   5.017   1.710   4.688 -0.2105  1.0214 -0.1676
  443MOL0     N59720   4.418   1.985   4.150 -0.3875  0.2650  0.1385
  443MOL0     N59721   4.385   1.959   4.031  0.7757  0.1760  0.3850
  443MOL0     C59722   4.097   1.546   3.018 -0.6159  0.7916  0.3130
  443MOL0     C59723   3.996   1.519   2.921 -0.9265  0.7753  0.3776
  443MOL0     C59724   3.587   1.321   2.788 -0.2279 -0.1195 -1.9576
  443MOL0     C59725   3.606   1.352   2.651 -0.9611  0.3968 -0.9480
  443MOL0     C59726   3.513   1.300   2.553 -0.4734 -0.4729  0.8596
  443MOL0     C59727   3.404   1.222   2.591  0.2063  0.1233  0.9406
  443MOL0     O59728   3.303   1.183   2.508  0.0757 -0.1929 -0.9513
  443MOL0     C59729   3.297   1.223   2.369  0.1023  0.2690 -1.1464
  443MOL0     C59730   3.240   1.371   2.354 -0.2710 -0.9434 -0.0291
  443MOL0     C59731   3.181   1.389   2.224 -0.3970  0.0211 -0.0084
  443MOL0     C59732   3.130   1.535   2.191  0.5362  0.1396 -0.9848
  443MOL0     C59733   3.058   1.542   2.062  0.0572  0.0686  0.2490
  443MOL0     C59734   3.003   1.525   1.947 -0.3779  0.1622 -0.8648
  443MOL0     C59735   3.389   1.187   2.725 -0.6768  1.1712 -0.5474
  443MOL0     C59736   3.478   1.234   2.822 -0.1457 -0.5111  0.5698
  443MOL0     C59737   3.434   1.206   2.962 -0.0274  0.0841  0.6508
  443MOL0     H59738   3.874   1.229   3.049  0.4347  0.1536  0.6350
  443MOL0     H59739   4.058   1.288   3.223  0.1188 -1.9963 -1.6138
  443MOL0     H59740   4.245   1.293   3.297  0.5246  1.5231  3.1835
  443MOL0     H59741   4.367   1.316   3.158  1.2312  1.1402 -0.5425
  443MOL0     H59742   4.505   1.459   3.273 -0.4728 -2.5087 -0.6964
  443MOL0     H59743   4.488   1.311   3.348  3.4291  0.5464 -0.9895
  443MOL0     H59744   4.350   1.392   3.523  0.4455  0.4890  0.9633
  443MOL0     H59745   4.324   1.555   3.454 -1.9640 -1.7536  0.3484
  443MOL0     H59746   4.588   1.433   3.550  2.9690  2.4098  1.6611
  443MOL0     H59747   4.588   1.575   3.458 -0.1951  1.6352 -0.1201
  443MOL0     H59748   4.460   1.521   3.735  2.4180  0.8191  2.7526
  443MOL0     H59749   4.593   1.623   3.708  1.5448 -1.5060 -3.0477
  443MOL0     H59750   4.458   1.770   3.556  2.5526 -2.0870  0.1317
  443MOL0     H59751   4.317   1.698   3.624 -0.1214  1.5251 -2.4961
  443MOL0     H59752   4.400   1.907   3.739  0.1193 -0.1505  0.1195
  443MOL0     H59753   4.539   1.819   3.794 -0.8661  4.8550  2.1394
  443MOL0     H59754   4.248   1.756   3.877  0.0542 -0.5253 -0.5220
  443MOL0     H59755   4.386   1.651   3.896 -1.3543 -0.3656 -0.3539
  443MOL0     H59756   4.449   1.655   4.135 -0.8888  0.0207 -0.7524
  443MOL0     H59757   4.435   1.934   4.419  1.1805  0.8540  0.2360
  443MOL0     H59758   4.396   1.778   4.378  1.8721  0.5942  1.7460
  443MOL0     H59759   4.639   1.714   4.335  0.7187 -0.2794 -0.1524
  443MOL0     H59760   4.666   1.895   4.357  0.5246 -0.1106 -0.2381
  443MOL0     H59761   4.633   1.686   4.571  2.0222 -2.0189 -3.8546
  443MOL0     H59762   4.567   1.846   4.587  0.0541  0.1157 -0.7157
  443MOL0     H59763   4.804   1.832   4.665 -0.1053 -0.5383 -0.3826
  443MOL0     H59764   4.782   1.955   4.530 -0.0937  1.1726  2.2143
  443MOL0     H59765   4.980   1.567   4.384 -1.4375  1.7772  0.2638
  443MOL0     H59766   5.120   1.380   4.502  2.7580  0.8500  0.8218
  443MOL0     H59767   5.106   1.028   4.788 -0.6555  0.6567  1.1706
  443MOL0     H59768   5.229   0.834   4.860 -0.2525  0.6188 -0.3644
  443MOL0     H59769   5.643   0.920   4.913 -2.7045  0.0922  2.1496
  443MOL0     H59770   5.644   0.750   4.976 -3.3765 -0.8543  1.3396
  443MOL0     H59771   5.708   0.821   4.680 -1.2521  2.2175  1.2690
  443MOL0     H59772   5.821   0.797   4.793  0.1493 -1.0074 -1.2408
  443MOL0     H59773   5.668   0.566   4.827 -0.9402  1.5284  0.7236
  443MOL0     H59774   5.659   0.583   4.661  2.3503  2.5112 -3.2182
  443MOL0     H59775   5.876   0.450   4.722  0.2952 -0.2359  2.2660
  443MOL0     H59776   5.929   0.576   4.819  2.8492 -0.7703 -2.2124
  443MOL0     H59777   6.043   0.562   4.596  1.7325  3.1985 -1.9121
  443MOL0     H59778   5.990   0.716   4.631  1.1291  0.0437 -1.2756
  443MOL0     H59779   5.775   0.640   4.486  1.0797 -1.6099  0.7004
  443MOL0     H59780   5.918   0.711   4.413 -0.1629 -0.1996 -0.2077
  443MOL0     H59781   5.799   0.471   4.342 -0.6445  1.5555 -0.5301
  443MOL0     H59782   5.891   0.408   4.478 -1.0627 -1.4318 -0.9520
  443MOL0     H59783   6.034   0.566   4.253 -1.2651  3.0501  4.2350
  443MOL0     H59784   6.109   0.443   4.370 -3.1885 -1.0515  3.7188
  443MOL0     H59785   5.596   1.033   4.764 -0.3595 -0.0640 -0.4247
  443MOL0     H59786   5.470   1.249   4.731 -3.7221  3.2146  4.5287
  443MOL0     H59787   5.128   1.633   4.852  0.1083  2.7995 -0.5415
  443MOL0     H59788   5.010   1.807   4.736  2.2165  1.1326  0.0734
  443MOL0     H59789   4.164   1.628   2.993  2.5390 -1.0295  2.1889
  443MOL0     H59790   3.995   1.586   2.835 -1.0858 -0.5904 -0.7110
  443MOL0     H59791   3.688   1.413   2.616 -2.3167  2.1654 -1.1735
  443MOL0     H59792   3.530   1.323   2.448  2.0947 -3.4458  0.4806
  443MOL0     H59793   3.243   1.150   2.309 -0.2391 -0.2152 -0.2683
  443MOL0     H59794   3.396   1.232   2.324  1.7842  1.5925  2.4099
  443MOL0     H59795   3.327   1.437   2.346 -1.0676  0.3395  1.4027
  443MOL0     H59796   3.176   1.403   2.436 -1.8454 -1.4365 -1.0198
  443MOL0     H59797   3.087   1.333   2.231 -1.3076  1.5733  0.8074
  443MOL0     H59798   3.245   1.357   2.141 -2.5913 -0.5542 -1.5751
  443MOL0     H59799   3.046   1.559   2.257  2.4199  1.7445  0.9485
  443MOL0     H59800   3.202   1.614   2.213 -4.3118  4.0134  3.5861
  443MOL0     H59801   2.951   1.531   1.854 -1.5887  4.2448 -0.1375
  443MOL0     H59802   3.312   1.118   2.758  0.9442 -0.9340 -0.9014
  443MOL0     H59803   3.354   1.132   2.960 -1.6118  1.7542 -0.2210
  443MOL0     H59804   3.515   1.156   3.017 -1.0344 -2.9338 -0.4283
  443MOL0     H59805   3.411   1.293   3.024  1.5700  0.8081  0.2897
  444MOL0     O59806   7.082   0.571   2.976  0.7713  0.0665 -0.3970
  444MOL0     C59807   7.185   0.551   3.038  0.4044 -0.2535 -0.3280
  444MOL0     O59808   7.204   0.445   3.129  0.0219  0.2723 -0.2314
  444MOL0     C59809   7.097   0.396   3.208  0.7707 -0.4804  0.1956
  444MOL0     C59810   7.087   0.264   3.243 -0.4295  1.0136  0.6273
  444MOL0     C59811   6.986   0.213   3.322 -0.1068 -0.0397 -0.3377
  444MOL0     C59812   6.890   0.301   3.383 -1.2875  0.5767 -0.4050
  444MOL0     O59813   6.801   0.253   3.467  0.3403  0.0815  0.6538
  444MOL0     C59814   6.710   0.344   3.523  0.5176  0.4073 -0.3669
  444MOL0     C59815   6.616   0.260   3.610 -1.7982  0.7794 -0.2562
  444MOL0     C59816   6.478   0.311   3.640  0.4447 -0.0984  0.7226
  444MOL0     C59817   6.393   0.242   3.747 -0.2530  0.6925 -0.8223
  444MOL0     C59818   6.461   0.234   3.886  0.0423  1.0948  1.1242
  444MOL0     C59819   6.352   0.229   3.998 -0.1380  0.4759 -0.0826
  444MOL0     C59820   6.412   0.245   4.140  0.1275  0.0540  0.7898
  444MOL0     C59821   6.336   0.178   4.249 -0.0700  0.0212  0.3797
  444MOL0     N59822   6.385   0.203   4.386 -0.9836  0.2032 -1.0714
  444MOL0     C59823   6.515   0.173   4.431  0.0826 -0.4695  0.4238
  444MOL0     C59824   6.537   0.251   4.539  0.2282 -0.6612  0.7800
  444MOL0     C59825   6.660   0.265   4.616  0.1857  0.2698 -0.0937
  444MOL0     C59826   6.666   0.329   4.757  0.5850  0.1854  0.2418
  444MOL0     C59827   6.611   0.223   4.859  0.0301  0.0653 -0.4563
  444MOL0     C59828   6.464   0.231   4.867 -0.0597  0.5482  0.7403
  444MOL0     O59829   6.425   0.155   4.975  0.2130 -0.0265  0.6368
  444MOL0     C59830   6.289   0.136   4.996 -0.7641  1.2946 -0.0355
  444MOL0     C59831   6.248   0.082   5.125 -0.8192 -0.3865  0.7064
  444MOL0     C59832   6.111   0.068   5.151  0.4885 -0.3459 -0.1420
  444MOL0     C59833   6.016   0.095   5.059  0.8237 -0.4155  0.5161
  444MOL0     C59834   5.868   0.075   5.088 -1.0144  0.1586 -0.0336
  444MOL0     O59835   5.842   0.026   5.217  0.7160  0.6521 -0.3418
  444MOL0     C59836   5.715   0.029   5.269 -0.0850 -0.3221  0.0613
  444MOL0     C59837   5.687  -0.092   5.336  0.2945 -0.3855  0.6667
  444MOL0     C59838   5.572  -0.089   5.419  0.4631  0.7220 -0.4001
  444MOL0     C59839   5.484   0.014   5.428  0.3422  0.3839  0.4662
  444MOL0     O59840   5.378   0.022   5.521 -0.4030  0.6480 -0.7312
  444MOL0     C59841   5.407   0.116   5.629 -1.0963  0.4955  0.6464
  444MOL0     C59842   5.311   0.123   5.750  0.2110 -0.0913 -0.5380
  444MOL0     C59843   5.368   0.181   5.876 -0.7717  1.1381 -1.1914
  444MOL0     C59844   5.269   0.153   5.995 -0.4992 -0.2105  0.0621
  444MOL0     C59845   5.313   0.210   6.125  0.4039 -0.1497 -0.9446
  444MOL0     C59846   5.210   0.188   6.241 -0.4534 -1.0714  0.2526
  444MOL0     C59847   5.245   0.292   6.351  0.0285 -0.5024 -0.0897
  444MOL0     C59848   5.126   0.333   6.434 -0.5835  0.6795  0.4722
  444MOL0    Cl59849   5.021   0.192   6.468 -0.4067  0.1062  0.0657
  444MOL0     C59850   5.496   0.123   5.338  0.9414  0.8523 -0.4469
  444MOL0     C59851   5.607   0.125   5.265 -0.1169  1.0471  0.9505
  444MOL0     O59852   5.780   0.113   5.008 -0.0708 -1.0445 -1.0481
  444MOL0     C59853   6.054   0.145   4.936  0.6298  0.3139 -0.1381
  444MOL0     C59854   6.187   0.154   4.897 -0.3200  0.2759 -0.1459
  444MOL0     N59855   6.418   0.325   4.564 -0.1758  0.5634  0.4779
  444MOL0     N59856   6.335   0.298   4.469 -0.8064 -0.2422  0.2080
  444MOL0     C59857   6.895   0.435   3.337 -1.1236 -0.1445 -0.7164
  444MOL0     C59858   6.997   0.477   3.249 -0.2251 -0.4046 -0.0289
  444MOL0     C59859   7.296   0.654   3.028  0.4181  0.0133 -0.3842
  444MOL0     C59860   7.423   0.597   3.061  0.0168 -0.4045  0.7118
  444MOL0     C59861   7.538   0.670   3.051  0.6620  1.0579 -0.1151
  444MOL0     C59862   7.531   0.807   3.022  0.2041 -1.1213 -0.8315
  444MOL0     O59863   7.659   0.872   3.029 -0.3513  0.8104 -0.5135
  444MOL0     C59864   7.659   1.013   3.011  1.3177 -0.5300  0.3415
  444MOL0     C59865   7.759   1.097   3.094  0.3368 -0.1517  0.5478
  444MOL0     C59866   7.898   1.042   3.100 -0.2921 -0.3199  0.0790
  444MOL0     C59867   7.967   1.044   2.965 -0.1699  0.0311 -0.0275
  444MOL0     C59868   8.111   1.028   2.983  0.0421 -0.9692 -0.3971
  444MOL0     C59869   8.235   1.036   2.991  0.7232 -0.1073 -0.6755
  444MOL0     C59870   7.405   0.868   2.997  0.7752  0.0974 -0.2947
  444MOL0     C59871   7.285   0.791   2.993  0.5444  0.3070 -0.1590
  444MOL0     C59872   7.158   0.864   2.955 -0.1336  0.1986 -0.2950
  444MOL0     H59873   7.151   0.184   3.206 -1.1317 -2.3893  5.7034
  444MOL0     H59874   6.983   0.108   3.348 -0.1151  0.1268  0.3656
  444MOL0     H59875   6.761   0.423   3.578 -1.3805  1.2053  0.3295
  444MOL0     H59876   6.645   0.389   3.448  1.9816 -1.1758 -2.7488
  444MOL0     H59877   6.665   0.218   3.698 -0.8895  1.8482 -0.2278
  444MOL0     H59878   6.599   0.170   3.550 -0.8093 -1.5896  2.7766
  444MOL0     H59879   6.410   0.324   3.555 -3.3230  1.5575  3.6908
  444MOL0     H59880   6.493   0.413   3.675 -1.7416  0.4762  0.1466
  444MOL0     H59881   6.296   0.291   3.752 -1.8293 -2.1900 -0.5984
  444MOL0     H59882   6.383   0.138   3.714  0.9652  0.1147  0.4816
  444MOL0     H59883   6.526   0.146   3.891  0.0669  0.9055 -1.3239
  444MOL0     H59884   6.524   0.320   3.913  0.6382  1.3835 -0.9914
  444MOL0     H59885   6.262   0.292   3.991 -2.7763 -2.9175  0.7143
  444MOL0     H59886   6.304   0.131   3.989 -0.3545  0.5998 -0.3116
  444MOL0     H59887   6.406   0.353   4.160  3.0855  0.3456  0.5446
  444MOL0     H59888   6.518   0.217   4.145  0.9396  2.1262 -1.9428
  444MOL0     H59889   6.238   0.222   4.234  0.4381  1.2518  0.5424
  444MOL0     H59890   6.323   0.070   4.238  2.2433 -0.3000  0.2940
  444MOL0     H59891   6.569   0.093   4.380 -3.2704 -0.2413 -4.0664
  444MOL0     H59892   6.713   0.169   4.612  0.6060  0.5307 -1.7023
  444MOL0     H59893   6.730   0.328   4.560  0.3251 -1.1317 -1.5657
  444MOL0     H59894   6.769   0.358   4.780  0.2187  0.0442  2.2040
  444MOL0     H59895   6.609   0.422   4.758  0.6240  0.2529 -1.0864
  444MOL0     H59896   6.624   0.252   4.964 -3.4715  1.9799 -0.4109
  444MOL0     H59897   6.655   0.123   4.852  0.6231  0.3963 -1.6409
  444MOL0     H59898   6.422   0.168   4.789 -3.5650  1.6131  1.6057
  444MOL0     H59899   6.431   0.335   4.858  1.5596  1.0694  0.4665
  444MOL0     H59900   6.312   0.072   5.213 -0.4315  2.6436  0.8964
  444MOL0     H59901   6.087   0.024   5.247  0.5720 -0.8008 -0.3305
  444MOL0     H59902   5.762  -0.171   5.337 -2.6114 -3.4080 -0.5031
  444MOL0     H59903   5.550  -0.167   5.491  0.9717  0.2929 -0.7017
  444MOL0     H59904   5.501   0.090   5.679  0.6500  1.6936 -1.7889
  444MOL0     H59905   5.418   0.214   5.582  0.1017 -1.2478 -3.1584
  444MOL0     H59906   5.220   0.179   5.727 -1.0582 -1.7569  0.2492
  444MOL0     H59907   5.298   0.019   5.780 -1.3903  0.8437  2.3830
  444MOL0     H59908   5.467   0.142   5.903 -1.1477 -0.3280 -1.8707
  444MOL0     H59909   5.384   0.289   5.867 -1.2248  1.3611  0.3411
  444MOL0     H59910   5.277   0.044   5.997 -1.2495 -0.2718  0.1025
  444MOL0     H59911   5.168   0.183   5.967 -1.0394 -2.8262 -1.1725
  444MOL0     H59912   5.310   0.318   6.108 -3.2275 -0.2057 -1.4497
  444MOL0     H59913   5.411   0.179   6.161  0.1525  0.1103  0.0145
  444MOL0     H59914   5.109   0.207   6.205  0.0742  2.8962  0.4435
  444MOL0     H59915   5.209   0.087   6.282 -0.8828 -0.6473  1.3030
  444MOL0     H59916   5.299   0.383   6.322 -0.4951  0.6046  2.2024
  444MOL0     H59917   5.316   0.246   6.420  0.4317 -0.8137 -0.7057
  444MOL0     H59918   5.160   0.369   6.532 -0.6046 -0.6056  0.9671
  444MOL0     H59919   5.077   0.417   6.383  0.1601  1.2129  0.6092
  444MOL0     H59920   5.437   0.213   5.351  0.0094  0.3579 -1.1519
  444MOL0     H59921   5.629   0.208   5.198  1.4855 -0.4089 -0.3943
  444MOL0     H59922   5.986   0.179   4.858 -0.3787 -2.5388 -0.6136
  444MOL0     H59923   6.205   0.194   4.798  2.0364 -1.0648 -0.3570
  444MOL0     H59924   6.828   0.512   3.373 -2.2922 -0.8382 -1.3126
  444MOL0     H59925   6.998   0.585   3.235 -0.9556 -0.3163  0.5184
  444MOL0     H59926   7.434   0.495   3.097 -2.4727 -1.0760 -0.2425
  444MOL0     H59927   7.641   0.636   3.061  0.2879 -0.5785 -1.3870
  444MOL0     H59928   7.564   1.056   3.045  2.6178  3.1534 -0.1719
  444MOL0     H59929   7.666   1.037   2.904  1.3356 -2.2321 -0.0570
  444MOL0     H59930   7.724   1.095   3.197  1.8076 -2.2089  1.0553
  444MOL0     H59931   7.760   1.197   3.049 -3.3329 -1.2201 -2.4372
  444MOL0     H59932   7.894   0.936   3.124  1.1526 -0.0473  1.7248
  444MOL0     H59933   7.955   1.096   3.176  5.2824 -0.2626 -3.5431
  444MOL0     H59934   7.930   0.958   2.907  0.3787 -1.1731  1.3342
  444MOL0     H59935   7.942   1.130   2.903  1.8673  0.7045  0.0223
  444MOL0     H59936   8.337   1.069   3.000  0.0906  1.3022  3.6595
  444MOL0     H59937   7.385   0.973   2.983 -2.7418  0.0535  2.7780
  444MOL0     H59938   7.100   0.807   2.882 -0.4751  2.3417 -1.7927
  444MOL0     H59939   7.089   0.875   3.039 -0.9729 -1.1001 -0.7905
  444MOL0     H59940   7.175   0.961   2.907  0.6811  0.0497 -0.3243
  445MOL0     O59941   3.114   8.393   3.073  0.0043  0.2035  0.3097
  445MOL0     C59942   3.051   8.425   3.170  1.1551  0.5583  0.3763
  445MOL0     O59943   2.972   8.339   3.245 -0.1495 -0.5126  0.7794
  445MOL0     C59944   2.994   8.206   3.247 -0.3703  0.0816  0.3285
  445MOL0     C59945   2.957   8.161   3.380 -1.5686  0.5414  0.1870
  445MOL0     C59946   2.983   8.031   3.412  0.5532 -0.0419 -0.3227
  445MOL0     C59947   3.038   7.946   3.316  0.1361 -0.2803 -0.8771
  445MOL0     O59948   3.068   7.821   3.348 -0.0338  0.9492  0.2842
  445MOL0     C59949   2.955   7.746   3.391  0.3822 -0.1843 -0.2927
  445MOL0     C59950   2.975   7.596   3.363  0.0549 -0.4255 -0.2486
  445MOL0     C59951   2.908   7.519   3.480 -1.0834  0.0356 -0.1314
  445MOL0     C59952   2.914   7.372   3.445 -0.3039  0.1008  0.2927
  445MOL0     C59953   2.877   7.306   3.583  0.7742 -0.4271  0.2862
  445MOL0     C59954   2.842   7.165   3.588  0.2281  0.2255 -0.9109
  445MOL0     C59955   2.717   7.130   3.508  0.8095 -0.7939 -0.5784
  445MOL0     C59956   2.695   6.984   3.513 -0.9189  0.7080 -0.0632
  445MOL0     N59957   2.621   6.956   3.393 -1.5516  0.2657  0.2447
  445MOL0     C59958   2.495   6.992   3.362  0.6600  0.3554 -0.7822
  445MOL0     C59959   2.475   6.946   3.235 -0.3810 -0.3916  0.0076
  445MOL0     C59960   2.347   6.968   3.151 -0.0390 -0.2129 -0.3714
  445MOL0     C59961   2.286   6.838   3.098  0.0645 -0.2194 -0.2362
  445MOL0     C59962   2.153   6.875   3.036  1.4772 -0.4084 -0.0920
  445MOL0     C59963   2.096   6.766   2.946  0.9070 -0.1774  0.7013
  445MOL0     O59964   2.054   6.643   3.015  0.7574 -0.4929  0.0429
  445MOL0     C59965   1.991   6.566   2.915  0.1182 -0.8248  0.3194
  445MOL0     C59966   2.070   6.474   2.843  0.8082 -0.2584 -0.5883
  445MOL0     C59967   2.022   6.373   2.760 -0.1859 -0.5616  0.0564
  445MOL0     C59968   1.887   6.375   2.723 -0.4473 -0.4108 -0.1060
  445MOL0     C59969   1.822   6.277   2.639 -0.2793  0.4249 -1.0213
  445MOL0     O59970   1.888   6.159   2.632 -0.3549 -0.2120 -0.6119
  445MOL0     C59971   1.851   6.053   2.553 -0.5335  0.2601 -0.1487
  445MOL0     C59972   1.823   6.075   2.422  0.5379  0.1892  0.3707
  445MOL0     C59973   1.767   5.964   2.351 -0.0521 -0.7647  0.7073
  445MOL0     C59974   1.749   5.837   2.404 -0.0347 -0.1121 -0.3853
  445MOL0     O59975   1.695   5.735   2.331  0.6502 -0.7038  0.6753
  445MOL0     C59976   1.556   5.715   2.360  0.0936  0.2613 -0.2878
  445MOL0     C59977   1.468   5.819   2.288 -0.5140  0.0992 -0.0846
  445MOL0     C59978   1.461   5.787   2.127 -0.0747  0.4859 -0.2356
  445MOL0     C59979   1.356   5.869   2.054 -0.0593 -0.0645  0.2460
  445MOL0     C59980   1.322   5.806   1.922  0.0992  1.1389  0.2833
  445MOL0     C59981   1.209   5.891   1.842  0.1798 -0.9045 -0.0025
  445MOL0     C59982   1.242   6.033   1.792 -0.5765 -0.7657 -0.4355
  445MOL0     C59983   1.175   6.086   1.655 -0.5444  0.4352 -0.8486
  445MOL0    Cl59984   0.997   6.075   1.659 -0.0745 -0.2381 -0.4938
  445MOL0     C59985   1.783   5.817   2.538  0.2122  0.0291 -0.5192
  445MOL0     C59986   1.842   5.925   2.616 -0.8338 -0.1719  0.2131
  445MOL0     O59987   1.713   6.304   2.581 -0.3433 -0.1236 -0.0608
  445MOL0     C59988   1.806   6.471   2.782  0.8554 -0.4471  0.2179
  445MOL0     C59989   1.860   6.563   2.880  0.1992 -0.3795 -0.1580
  445MOL0     N59990   2.594   6.887   3.197 -0.3728  0.6716 -0.3353
  445MOL0     N59991   2.680   6.878   3.293  0.5582  0.6822 -0.3005
  445MOL0     C59992   3.067   7.990   3.192  1.0418 -0.3913 -0.6199
  445MOL0     C59993   3.050   8.115   3.157 -0.0046 -0.2165 -0.0639
  445MOL0     C59994   3.028   8.568   3.189  0.3739  0.0814 -0.6751
  445MOL0     C59995   2.914   8.600   3.259  0.4056 -1.0766 -0.2139
  445MOL0     C59996   2.888   8.733   3.288 -0.6438 -0.6164 -0.5087
  445MOL0     C59997   2.979   8.836   3.261  0.2093 -0.0978 -0.1727
  445MOL0     O59998   2.957   8.960   3.312  0.5027 -0.2425  0.4494
  445MOL0     C59999   3.036   9.073   3.271 -0.7243  0.4257  0.7070
  445MOL0     C60000   2.978   9.200   3.316  0.2468 -0.0824 -0.8691
  445MOL0     C60001   2.915   9.201   3.455  0.3320  0.7479 -0.7359
  445MOL0     C60002   3.013   9.237   3.559  0.0807 -0.7977  0.1469
  445MOL0     C60003   2.998   9.378   3.581  0.5057  0.2139 -0.2405
  445MOL0     C60004   2.982   9.490   3.601  0.7427  0.2346  0.3849
  445MOL0     C60005   3.092   8.806   3.183  0.8175 -0.0051 -0.5638
  445MOL0     C60006   3.119   8.671   3.153 -0.7174 -0.5084 -0.3016
  445MOL0     C60007   3.254   8.638   3.093  0.5245 -0.7698 -0.0143
  445MOL0     H60008   2.915   8.230   3.453 -0.2739 -1.5492  3.1011
  445MOL0     H60009   2.954   8.019   3.516 -1.1888  2.1870 -0.4769
  445MOL0     H60010   2.955   7.753   3.500  0.8555  2.4537 -0.4092
  445MOL0     H60011   2.862   7.786   3.351  1.6187  3.4866  0.1030
  445MOL0     H60012   3.082   7.571   3.367  0.4871  1.1367 -1.1088
  445MOL0     H60013   2.941   7.575   3.261  1.5390  2.7634 -1.5491
  445MOL0     H60014   2.803   7.544   3.501 -0.8532 -0.4345  1.7833
  445MOL0     H60015   2.961   7.531   3.575 -0.5795 -0.2047 -0.3811
  445MOL0     H60016   2.848   7.350   3.360 -1.1006  0.2101  0.8649
  445MOL0     H60017   3.019   7.358   3.420 -0.0082  2.7802 -0.2688
  445MOL0     H60018   2.964   7.313   3.650  1.0823  1.3275 -0.2476
  445MOL0     H60019   2.803   7.370   3.631  1.0862  2.0001 -2.2653
  445MOL0     H60020   2.932   7.118   3.548 -0.1746 -0.7912 -0.6651
  445MOL0     H60021   2.823   7.132   3.691  2.0597 -2.1225 -1.2329
  445MOL0     H60022   2.726   7.166   3.405 -0.5947  1.6044  0.0721
  445MOL0     H60023   2.628   7.180   3.546  1.0415 -0.7746 -0.0558
  445MOL0     H60024   2.782   6.920   3.534 -0.9950  0.2379 -1.1536
  445MOL0     H60025   2.628   6.956   3.595  0.1435  3.5081  1.9512
  445MOL0     H60026   2.419   7.041   3.423 -1.8712 -4.0961  0.1120
  445MOL0     H60027   2.278   7.020   3.218  1.4811  0.9379  0.3692
  445MOL0     H60028   2.366   7.042   3.073  1.3796 -0.5652 -0.3907
  445MOL0     H60029   2.345   6.796   3.016 -0.6655 -1.1633 -0.3014
  445MOL0     H60030   2.261   6.766   3.177  1.2984 -0.9406 -0.4771
  445MOL0     H60031   2.162   6.961   2.968  0.2919 -0.8156 -0.7800
  445MOL0     H60032   2.084   6.889   3.120 -0.3406  2.6844 -1.8851
  445MOL0     H60033   2.159   6.736   2.862 -2.6893 -3.4529 -1.1579
  445MOL0     H60034   1.999   6.801   2.910  0.8484 -0.1759  0.8609
  445MOL0     H60035   2.176   6.470   2.867  0.2780  1.1666  2.5409
  445MOL0     H60036   2.083   6.294   2.717 -1.7815 -1.6038 -0.3766
  445MOL0     H60037   1.810   6.174   2.382 -1.1963 -0.1603 -0.0222
  445MOL0     H60038   1.724   5.970   2.251  1.1223 -0.2470  0.2141
  445MOL0     H60039   1.538   5.612   2.329  3.2391  0.6259 -4.0840
  445MOL0     H60040   1.529   5.710   2.466 -1.2859 -2.5921 -0.6578
  445MOL0     H60041   1.369   5.802   2.331 -0.1995 -0.0945  0.5707
  445MOL0     H60042   1.504   5.920   2.310 -0.4169  1.3928 -4.9589
  445MOL0     H60043   1.559   5.795   2.078  1.5783 -2.2017  2.2195
  445MOL0     H60044   1.442   5.681   2.107  0.7439  0.7004 -2.4149
  445MOL0     H60045   1.383   5.974   2.048 -1.5369  0.2669 -0.9196
  445MOL0     H60046   1.259   5.876   2.105 -1.0727 -1.4519 -1.3718
  445MOL0     H60047   1.281   5.707   1.942 -1.0504  1.7031  0.7848
  445MOL0     H60048   1.405   5.798   1.850 -0.1075  5.4608 -0.6838
  445MOL0     H60049   1.193   5.836   1.749  0.2470 -0.5804 -0.2083
  445MOL0     H60050   1.116   5.876   1.899  0.1848 -4.3490 -0.7033
  445MOL0     H60051   1.350   6.026   1.775  0.0978 -4.0910  3.5889
  445MOL0     H60052   1.233   6.117   1.861 -0.1008  0.9858 -2.3907
  445MOL0     H60053   1.209   6.188   1.634  2.4675 -0.2196  0.3750
  445MOL0     H60054   1.218   6.032   1.570  1.6694 -1.2653  1.2091
  445MOL0     H60055   1.771   5.718   2.579  1.8461 -2.2550 -4.8969
  445MOL0     H60056   1.878   5.915   2.718  1.9480 -1.5589 -0.7967
  445MOL0     H60057   1.699   6.472   2.767  0.7178  1.0414  1.0978
  445MOL0     H60058   1.790   6.622   2.937  1.6172  1.3067 -0.0749
  445MOL0     H60059   3.116   7.920   3.124  0.3430 -2.6295  1.0558
  445MOL0     H60060   3.078   8.161   3.063 -1.3977 -0.2357 -0.5117
  445MOL0     H60061   2.844   8.537   3.312  2.9554 -2.7070  1.4460
  445MOL0     H60062   2.796   8.758   3.339  0.9134 -1.4361  3.0083
  445MOL0     H60063   3.048   9.064   3.163 -3.6510  0.3220  0.3228
  445MOL0     H60064   3.133   9.060   3.320 -1.0086 -0.9074  0.9786
  445MOL0     H60065   2.900   9.233   3.247 -0.2358  3.3990  1.1017
  445MOL0     H60066   3.046   9.286   3.311 -0.2498  0.4864  1.0036
  445MOL0     H60067   2.882   9.101   3.481  0.5906  1.1019  1.0888
  445MOL0     H60068   2.827   9.265   3.449  0.1538  0.4975 -0.7773
  445MOL0     H60069   2.996   9.182   3.652  1.0886  0.1155  0.8938
  445MOL0     H60070   3.116   9.213   3.531  0.6978  0.8207  0.8813
  445MOL0     H60071   2.972   9.597   3.610 -1.4597  0.1355 -0.2906
  445MOL0     H60072   3.159   8.890   3.165 -1.1548  2.2750  1.9769
  445MOL0     H60073   3.314   8.580   3.163  0.6228  0.1476  0.6732
  445MOL0     H60074   3.253   8.584   2.998 -1.2212  0.5683 -0.8172
  445MOL0     H60075   3.312   8.731   3.088 -0.0511 -0.2157  2.3570
  446MOL0     O60076   5.512   2.883   4.728 -0.9831 -0.6271  0.5520
  446MOL0     C60077   5.578   2.914   4.628 -0.0512 -0.1738  0.5385
  446MOL0     O60078   5.698   2.865   4.601 -0.2323 -0.0178 -0.3862
  446MOL0     C60079   5.767   2.846   4.714 -0.0757 -0.3241 -0.1666
  446MOL0     C60080   5.784   2.945   4.812  0.5643  0.1683 -1.2889
  446MOL0     C60081   5.874   2.911   4.917  0.1938 -0.0877  0.1664
  446MOL0     C60082   5.945   2.790   4.925  0.2261  0.1255  0.6773
  446MOL0     O60083   6.020   2.770   5.041  0.3398  0.0106 -0.1458
  446MOL0     C60084   6.124   2.673   5.041 -0.6143  0.2786  1.1632
  446MOL0     C60085   6.160   2.650   5.185  0.1331  0.7990  0.8276
  446MOL0     C60086   6.259   2.530   5.184 -0.6955  0.3344  0.8422
  446MOL0     C60087   6.207   2.408   5.261  0.5809 -1.0838  0.1088
  446MOL0     C60088   6.286   2.279   5.228 -0.8267 -0.8622 -0.8900
  446MOL0     C60089   6.242   2.154   5.311 -1.1283 -0.2517 -0.2242
  446MOL0     C60090   6.345   2.033   5.298  0.1509  0.0632 -0.3001
  446MOL0     C60091   6.290   1.893   5.352 -0.7827  0.5837  0.2383
  446MOL0     N60092   6.304   1.884   5.500  0.1884 -0.8568  0.7154
  446MOL0     C60093   6.414   1.899   5.577 -0.1065 -0.2107 -0.4337
  446MOL0     C60094   6.365   1.912   5.702  0.7523  0.2888 -0.7272
  446MOL0     C60095   6.421   1.922   5.840  0.8583  0.5179  0.0115
  446MOL0     C60096   6.462   2.065   5.868 -1.2879  1.0489  0.1813
  446MOL0     C60097   6.613   2.073   5.819 -0.3495 -0.1981 -0.8548
  446MOL0     C60098   6.643   2.214   5.786  0.2027 -0.0094  0.6062
  446MOL0     O60099   6.555   2.257   5.684  0.7713  0.3029 -1.0078
  446MOL0     C60100   6.545   2.392   5.661 -0.6201 -0.4345 -0.2546
  446MOL0     C60101   6.509   2.480   5.766 -0.2014  0.7068 -0.4552
  446MOL0     C60102   6.467   2.604   5.740  0.3672 -0.0072 -0.4926
  446MOL0     C60103   6.444   2.648   5.604 -0.8440 -0.8668 -1.6350
  446MOL0     C60104   6.386   2.779   5.584  0.1969  0.9069 -0.0268
  446MOL0     O60105   6.351   2.857   5.688 -0.2556 -0.9979  0.8019
  446MOL0     C60106   6.295   2.985   5.679 -0.3157  0.0024 -0.3877
  446MOL0     C60107   6.247   3.044   5.802  0.3236 -0.3143  0.2588
  446MOL0     C60108   6.178   3.165   5.808 -0.5784 -0.4185 -0.2817
  446MOL0     C60109   6.148   3.229   5.689  0.6399 -0.8621 -0.4698
  446MOL0     O60110   6.084   3.355   5.703  0.4187  0.0391  0.3279
  446MOL0     C60111   6.178   3.451   5.762  0.4358 -0.5702 -0.1306
  446MOL0     C60112   6.081   3.555   5.837  0.2683  0.1838 -0.1373
  446MOL0     C60113   6.163   3.663   5.911 -0.0185  0.4712 -0.2017
  446MOL0     C60114   6.149   3.644   6.061  0.0035  0.9466  0.2278
  446MOL0     C60115   6.233   3.757   6.131 -0.4187  0.3210  0.4366
  446MOL0     C60116   6.258   3.720   6.274 -0.0272 -0.7842  0.8081
  446MOL0     C60117   6.340   3.831   6.337  0.4557 -0.9709  0.5668
  446MOL0     C60118   6.489   3.837   6.317  1.1698  0.6172  0.2907
  446MOL0    Cl60119   6.564   3.979   6.373  0.4156  0.2980 -0.4228
  446MOL0     C60120   6.210   3.184   5.569 -0.1343  0.5229  0.2364
  446MOL0     C60121   6.276   3.059   5.557  0.3995 -0.2410  0.3824
  446MOL0     O60122   6.373   2.805   5.462 -0.7053 -0.0094 -0.9298
  446MOL0     C60123   6.484   2.566   5.504 -1.5881  0.2288  0.4615
  446MOL0     C60124   6.532   2.439   5.529  0.6504 -0.2395  0.3890
  446MOL0     N60125   6.221   1.918   5.694 -0.6078 -1.1241 -0.3556
  446MOL0     N60126   6.189   1.899   5.574 -0.3641  0.4501 -0.4736
  446MOL0     C60127   5.925   2.699   4.816 -0.4708 -0.1414 -0.4619
  446MOL0     C60128   5.838   2.726   4.708  0.0490  0.6497 -0.3343
  446MOL0     C60129   5.520   3.015   4.528  0.9766 -0.4505 -0.2646
  446MOL0     C60130   5.387   3.046   4.548  0.1198 -0.1690 -0.2397
  446MOL0     C60131   5.309   3.116   4.456  0.4893 -0.6422  0.9030
  446MOL0     C60132   5.372   3.150   4.336  0.7987  0.6838 -0.2977
  446MOL0     O60133   5.282   3.225   4.251 -0.1630 -0.0133  0.0706
  446MOL0     C60134   5.340   3.257   4.115  0.0239  0.2650 -0.7225
  446MOL0     C60135   5.233   3.325   4.028 -0.0299  0.2943 -0.2900
  446MOL0     C60136   5.298   3.411   3.917 -0.2383  0.5855 -0.3623
  446MOL0     C60137   5.386   3.329   3.829 -0.0132  0.3581 -0.3991
  446MOL0     C60138   5.400   3.400   3.705 -0.4709  0.6439  0.0031
  446MOL0     C60139   5.402   3.453   3.595  0.2517  0.2189 -0.5144
  446MOL0     C60140   5.507   3.131   4.318  0.9307  0.4145 -0.3266
  446MOL0     C60141   5.583   3.062   4.415 -0.6558  0.4912 -0.2308
  446MOL0     C60142   5.723   3.052   4.378  0.4037  0.7701  0.4259
  446MOL0     H60143   5.743   3.045   4.802 -0.3500 -0.2813 -2.1903
  446MOL0     H60144   5.894   2.971   5.006  3.6934 -1.7311  0.6764
  446MOL0     H60145   6.088   2.581   4.995 -0.4036 -0.4545  2.4351
  446MOL0     H60146   6.207   2.702   4.975 -0.5578 -0.9281  0.6788
  446MOL0     H60147   6.067   2.629   5.239  1.5098  1.5159  3.6281
  446MOL0     H60148   6.206   2.741   5.224  2.3251  0.7899 -1.4788
  446MOL0     H60149   6.353   2.568   5.224  0.3369  0.9263 -2.0021
  446MOL0     H60150   6.274   2.490   5.084  0.9455  0.0051  1.2011
  446MOL0     H60151   6.201   2.440   5.365  2.1055 -1.4945  0.3553
  446MOL0     H60152   6.109   2.394   5.216 -0.4830  0.0160  1.9821
  446MOL0     H60153   6.265   2.260   5.122 -2.0064  3.6299 -1.6607
  446MOL0     H60154   6.392   2.291   5.253 -1.6495  1.8560  1.9568
  446MOL0     H60155   6.240   2.192   5.413 -0.7311 -1.0176  0.0773
  446MOL0     H60156   6.140   2.120   5.290 -1.3451 -0.8504  1.6757
  446MOL0     H60157   6.437   2.065   5.348 -1.7546  3.1124  1.5992
  446MOL0     H60158   6.366   2.027   5.191  0.0285  0.4936 -0.3518
  446MOL0     H60159   6.187   1.881   5.319 -0.2484  0.9535 -1.6706
  446MOL0     H60160   6.357   1.818   5.309  2.1435  4.0649 -1.8737
  446MOL0     H60161   6.515   1.893   5.539 -0.0894  0.5296 -0.5170
  446MOL0     H60162   6.337   1.906   5.908 -1.4767  3.8146 -1.7674
  446MOL0     H60163   6.500   1.847   5.850  1.6540  0.9578 -2.2475
  446MOL0     H60164   6.397   2.127   5.807 -1.1486 -0.2723 -1.3862
  446MOL0     H60165   6.464   2.092   5.974  1.7297  3.4708 -0.3264
  446MOL0     H60166   6.637   2.002   5.739 -1.7284 -0.1665 -1.3249
  446MOL0     H60167   6.664   2.030   5.906 -0.4243 -3.7948 -2.4257
  446MOL0     H60168   6.743   2.245   5.756  0.0743  2.9056  2.7250
  446MOL0     H60169   6.628   2.274   5.876  0.9755  0.3927  0.4681
  446MOL0     H60170   6.515   2.447   5.869 -0.8813 -0.5865 -0.8167
  446MOL0     H60171   6.457   2.665   5.829  1.6906 -2.7451  1.6791
  446MOL0     H60172   6.263   3.002   5.900  0.0647  2.0857  1.4184
  446MOL0     H60173   6.148   3.198   5.907  0.4222  0.2868 -0.1974
  446MOL0     H60174   6.250   3.404   5.831  1.0551  1.0582  0.3759
  446MOL0     H60175   6.238   3.496   5.682 -2.5010 -0.3783 -2.3734
  446MOL0     H60176   6.017   3.602   5.762  1.8207 -1.2610 -2.4958
  446MOL0     H60177   6.025   3.500   5.913 -0.7376  2.9178  1.2589
  446MOL0     H60178   6.259   3.636   5.866 -0.4796 -1.3812 -0.1698
  446MOL0     H60179   6.139   3.763   5.875  0.8670  1.0231  0.6763
  446MOL0     H60180   6.187   3.546   6.091 -0.3542  0.0389 -2.0872
  446MOL0     H60181   6.046   3.646   6.099 -0.3021 -1.6454 -0.2978
  446MOL0     H60182   6.171   3.846   6.110 -1.0990  0.3743  2.4965
  446MOL0     H60183   6.331   3.771   6.086 -0.5021 -0.1299  0.1087
  446MOL0     H60184   6.159   3.717   6.322 -0.3190  3.9511  0.9967
  446MOL0     H60185   6.316   3.628   6.281  1.6714 -0.0247 -1.8113
  446MOL0     H60186   6.322   3.832   6.445 -2.7509 -1.2819  0.1541
  446MOL0     H60187   6.300   3.925   6.298  0.1582 -0.9103  1.0156
  446MOL0     H60188   6.538   3.747   6.356 -1.5599  0.5888  4.3208
  446MOL0     H60189   6.509   3.825   6.210  0.6635  0.3055  0.2292
  446MOL0     H60190   6.190   3.234   5.475 -0.6406 -0.5779 -0.2636
  446MOL0     H60191   6.308   3.034   5.457  5.2953 -0.1208  1.6825
  446MOL0     H60192   6.484   2.596   5.400  1.1776  2.7605  1.0115
  446MOL0     H60193   6.555   2.377   5.443  2.0830  0.2546  0.3986
  446MOL0     H60194   5.982   2.607   4.811  0.9108  0.6600 -0.1298
  446MOL0     H60195   5.825   2.649   4.633  1.1971 -0.4810  0.5824
  446MOL0     H60196   5.335   3.008   4.635  0.6496 -0.9103 -0.2459
  446MOL0     H60197   5.206   3.136   4.482  0.2960  1.9772 -1.3865
  446MOL0     H60198   5.380   3.173   4.057 -0.8912 -1.3616  0.8970
  446MOL0     H60199   5.419   3.333   4.123 -1.5079  1.8245  0.1232
  446MOL0     H60200   5.177   3.378   4.107 -2.2248  0.8319 -2.1046
  446MOL0     H60201   5.161   3.254   3.988  1.3323 -1.3770  0.1051
  446MOL0     H60202   5.355   3.494   3.959  2.5995 -1.7821  0.8767
  446MOL0     H60203   5.218   3.462   3.863 -0.3694  2.2840  1.3556
  446MOL0     H60204   5.481   3.298   3.874 -0.5383  1.8454  1.8963
  446MOL0     H60205   5.325   3.241   3.807 -2.5195  2.1286 -0.9683
  446MOL0     H60206   5.396   3.466   3.489 -0.8407 -2.5402 -0.8831
  446MOL0     H60207   5.555   3.165   4.227 -0.1278  1.9790 -0.3334
  446MOL0     H60208   5.784   3.056   4.469  0.9026 -4.1540  0.5410
  446MOL0     H60209   5.752   2.960   4.328 -1.3883 -0.1491  0.9986
  446MOL0     H60210   5.755   3.140   4.321  1.2899  1.9660  2.6393
  447MOL0     O60211  10.636   8.051  11.141 -0.3518  0.2456 -0.2947
  447MOL0     C60212  10.679   8.119  11.234 -0.0202 -0.1370 -0.1076
  447MOL0     O60213  10.783   8.087  11.322  0.4577 -0.8854  0.3262
  447MOL0     C60214  10.831   7.965  11.345 -0.1495  0.8163  0.5021
  447MOL0     C60215  10.754   7.846  11.303 -0.8903  0.0933  0.1095
  447MOL0     C60216  10.816   7.725  11.304  0.9416  0.4363  0.9919
  447MOL0     C60217  10.951   7.707  11.352 -0.3339  0.9834 -0.5744
  447MOL0     O60218  11.003   7.579  11.340 -0.2956  0.3123  0.2436
  447MOL0     C60219  11.141   7.564  11.311  0.0515  0.1687  0.4839
  447MOL0     C60220  11.183   7.620  11.169  0.5321  0.0434  0.1022
  447MOL0     C60221  11.085   7.587  11.059  0.5319  0.0602  0.5009
  447MOL0     C60222  11.171   7.596  10.925  0.7784 -0.1757 -0.5387
  447MOL0     C60223  11.094   7.595  10.788 -0.1175 -0.7224  0.6417
  447MOL0     C60224  11.184   7.596  10.661  0.0211 -0.0322 -0.0277
  447MOL0     C60225  11.107   7.575  10.521 -0.4887  0.0623 -0.0417
  447MOL0     C60226  11.023   7.695  10.486 -0.1523  0.9571  0.6298
  447MOL0     N60227  11.107   7.811  10.456  0.6376  0.0086 -0.0175
  447MOL0     C60228  11.144   7.920  10.540  0.7040 -0.2228  0.2784
  447MOL0     C60229  11.211   8.006  10.461 -0.2769 -0.3357 -0.2001
  447MOL0     C60230  11.266   8.145  10.501  0.5184 -0.2028  1.6173
  447MOL0     C60231  11.376   8.139  10.602  0.1962  0.3601  0.2846
  447MOL0     C60232  11.505   8.086  10.551  0.0773  0.4416  0.3821
  447MOL0     C60233  11.512   7.934  10.563 -1.3577  0.8837  0.5811
  447MOL0     O60234  11.641   7.898  10.515  0.1685  0.4117  0.7083
  447MOL0     C60235  11.677   7.762  10.527 -0.3640  0.1617 -0.1815
  447MOL0     C60236  11.587   7.667  10.578 -0.0450 -0.2607  0.3851
  447MOL0     C60237  11.621   7.534  10.607 -0.8476  0.4318  0.6897
  447MOL0     C60238  11.754   7.489  10.579 -0.0230  0.5891  0.3616
  447MOL0     C60239  11.803   7.356  10.608 -0.2775 -1.0071 -0.7444
  447MOL0     O60240  11.930   7.314  10.558 -0.4910  0.0213 -0.0284
  447MOL0     C60241  11.971   7.189  10.594  0.0396 -1.0056 -0.8318
  447MOL0     C60242  12.067   7.166  10.691  0.5543 -0.2798 -0.4530
  447MOL0     C60243  12.099   7.042  10.746  0.4293 -0.4388  0.5832
  447MOL0     C60244  12.030   6.924  10.685 -0.0588 -0.0606  0.1390
  447MOL0     O60245  12.048   6.794  10.718  0.3655  0.2928  0.2689
  447MOL0     C60246  12.172   6.758  10.790 -0.4331 -0.4126 -0.7738
  447MOL0     C60247  12.142   6.751  10.952  0.5610 -0.0071 -0.1011
  447MOL0     C60248  12.267   6.738  11.051 -0.4399  0.2127  0.3186
  447MOL0     C60249  12.356   6.852  11.038 -0.9394 -0.4968  0.1856
  447MOL0     C60250  12.481   6.831  11.115 -1.4862 -0.2050  0.1345
  447MOL0     C60251  12.575   6.955  11.097 -0.8277 -0.6837 -0.7800
  447MOL0     C60252  12.699   6.961  11.184 -0.2134 -0.0998  0.2268
  447MOL0     C60253  12.776   6.835  11.175 -0.2599  0.3349 -0.1279
  447MOL0    Cl60254  12.929   6.853  11.267 -0.7129 -0.3185 -0.2493
  447MOL0     C60255  11.942   6.948  10.587  0.5046 -0.4545  0.2241
  447MOL0     C60256  11.909   7.086  10.544 -0.2879  0.8889  0.9302
  447MOL0     O60257  11.724   7.288  10.673  0.0489  0.1268  0.2683
  447MOL0     C60258  11.844   7.583  10.533  1.6868  0.6171 -0.2052
  447MOL0     C60259  11.810   7.713  10.506  0.0299 -1.0109 -0.1383
  447MOL0     N60260  11.224   7.947  10.336 -0.4010 -0.2176  0.5901
  447MOL0     N60261  11.155   7.844  10.332 -0.1489 -0.4376  0.5733
  447MOL0     C60262  11.015   7.826  11.399  0.1826  0.4039 -0.3197
  447MOL0     C60263  10.962   7.954  11.385 -0.4506 -0.6527 -0.4564
  447MOL0     C60264  10.606   8.238  11.241 -0.4343 -1.2097  0.2144
  447MOL0     C60265  10.526   8.295  11.137 -0.6992  0.1077  0.3870
  447MOL0     C60266  10.465   8.420  11.139  0.4127  0.5250 -0.7086
  447MOL0     C60267  10.482   8.511  11.242 -0.0459 -0.2877  0.1132
  447MOL0     O60268  10.412   8.627  11.235 -0.1912 -0.4513  0.3089
  447MOL0     C60269  10.359   8.669  11.362 -1.0872  0.3781 -0.0988
  447MOL0     C60270  10.222   8.715  11.345  0.8984 -0.2320 -0.3663
  447MOL0     C60271  10.160   8.747  11.484 -0.1550 -0.8453 -0.7238
  447MOL0     C60272  10.236   8.859  11.553 -0.5268 -0.0469 -0.5066
  447MOL0     C60273  10.161   8.923  11.661  1.4710  0.4562  0.4130
  447MOL0     C60274  10.100   8.965  11.753  0.0767 -0.5904 -0.9486
  447MOL0     C60275  10.555   8.466  11.352 -0.3562 -0.0866  0.8174
  447MOL0     C60276  10.616   8.340  11.355  0.0986  1.0001 -0.1872
  447MOL0     C60277  10.682   8.300  11.480  0.8066 -0.7952  0.7774
  447MOL0     H60278  10.655   7.855  11.259  0.5271  0.4333 -3.3320
  447MOL0     H60279  10.756   7.644  11.265  1.6917  0.9986 -1.5958
  447MOL0     H60280  11.196   7.612  11.393 -1.6783  3.7782 -0.2445
  447MOL0     H60281  11.174   7.462  11.329 -0.1504  0.4848  3.0480
  447MOL0     H60282  11.273   7.568  11.135  0.1199 -0.1778 -0.6586
  447MOL0     H60283  11.204   7.728  11.168  0.9966 -0.0376 -1.4520
  447MOL0     H60284  11.008   7.665  11.053 -0.8320 -1.2351  0.5397
  447MOL0     H60285  11.043   7.486  11.062  2.3167 -0.6851  1.8093
  447MOL0     H60286  11.248   7.674  10.932  0.4798  0.0747  0.1246
  447MOL0     H60287  11.234   7.507  10.926  0.7157 -0.2239  0.8275
  447MOL0     H60288  11.033   7.503  10.784  1.0737 -1.5193 -3.4050
  447MOL0     H60289  11.029   7.683  10.785 -0.5259 -1.0392  0.0311
  447MOL0     H60290  11.227   7.697  10.663 -1.0198  0.4225  1.9810
  447MOL0     H60291  11.271   7.530  10.664 -0.3069 -0.5031 -0.7612
  447MOL0     H60292  11.043   7.487  10.534 -0.5679  0.2984  1.4230
  447MOL0     H60293  11.179   7.566  10.440  0.2000 -1.4415  0.7131
  447MOL0     H60294  10.976   7.659  10.394 -1.4341  2.4763  0.6517
  447MOL0     H60295  10.944   7.709  10.561  0.1396 -0.3700  1.2237
  447MOL0     H60296  11.108   7.933  10.641  2.1490 -3.4906  1.3369
  447MOL0     H60297  11.295   8.205  10.414  0.1056 -2.8404 -0.4829
  447MOL0     H60298  11.189   8.205  10.551 -0.1293  2.2836 -1.9313
  447MOL0     H60299  11.398   8.239  10.640  0.8199  0.4321 -0.2641
  447MOL0     H60300  11.333   8.088  10.689  0.9761 -0.5224  0.1704
  447MOL0     H60301  11.589   8.114  10.615 -2.0316  1.4909  2.8649
  447MOL0     H60302  11.516   8.108  10.444 -2.4639  0.4218  0.0569
  447MOL0     H60303  11.437   7.893  10.495 -1.1956  2.9603 -0.9347
  447MOL0     H60304  11.502   7.901  10.667 -0.5528  2.0305  1.0488
  447MOL0     H60305  11.487   7.694  10.610 -1.3330  0.8420 -3.9395
  447MOL0     H60306  11.542   7.466  10.638 -2.1334  2.8124  3.0549
  447MOL0     H60307  12.125   7.246  10.738  0.5155 -1.3432  1.5094
  447MOL0     H60308  12.181   7.026  10.814 -0.8654 -1.3959  1.9964
  447MOL0     H60309  12.208   6.663  10.750 -0.0659 -1.5913  2.1512
  447MOL0     H60310  12.247   6.837  10.780  0.0951 -1.1083 -2.9621
  447MOL0     H60311  12.085   6.842  10.974 -0.0372 -0.3497 -0.2356
  447MOL0     H60312  12.067   6.675  10.972 -1.9459  2.8660  2.3459
  447MOL0     H60313  12.236   6.723  11.155  3.1573  0.1538  1.4988
  447MOL0     H60314  12.312   6.643  11.019 -2.2419  0.0716 -2.1589
  447MOL0     H60315  12.319   6.948  11.076 -1.1107 -1.4524  2.6292
  447MOL0     H60316  12.376   6.866  10.931 -2.2210  1.3124  0.1291
  447MOL0     H60317  12.543   6.744  11.089 -1.9624 -0.0607 -1.6527
  447MOL0     H60318  12.463   6.835  11.223  0.9551  0.2312  0.5648
  447MOL0     H60319  12.596   6.963  10.990 -1.9826 -0.8559 -1.0400
  447MOL0     H60320  12.520   7.047  11.117 -3.0125 -2.1802  0.6203
  447MOL0     H60321  12.678   6.982  11.290 -0.3773 -0.8733  0.3486
  447MOL0     H60322  12.762   7.037  11.137 -0.6769 -0.7168 -1.4461
  447MOL0     H60323  12.727   6.744  11.211 -1.7713  1.1651 -0.0246
  447MOL0     H60324  12.795   6.817  11.069  1.2703 -4.1067  0.6760
  447MOL0     H60325  11.884   6.865  10.547 -2.3070  1.5033 -0.0353
  447MOL0     H60326  11.826   7.090  10.474 -0.6768  0.9798  1.3897
  447MOL0     H60327  11.949   7.560  10.517  1.7931  0.5101  0.6258
  447MOL0     H60328  11.891   7.781  10.482 -1.1002  2.1114  3.7360
  447MOL0     H60329  11.118   7.818  11.433  0.3318  0.1506 -0.8213
  447MOL0     H60330  11.029   8.034  11.413  0.2595 -0.3233 -2.9046
  447MOL0     H60331  10.513   8.251  11.039 -2.1587 -0.5152  0.8296
  447MOL0     H60332  10.410   8.458  11.053  2.4947  2.0247 -1.4822
  447MOL0     H60333  10.424   8.751  11.395 -0.9502  0.2697 -0.0994
  447MOL0     H60334  10.364   8.592  11.439 -0.4875  0.5738  0.0699
  447MOL0     H60335  10.161   8.634  11.303  1.1373  0.2989 -1.7802
  447MOL0     H60336  10.217   8.801  11.278 -1.9671  0.6258  0.7902
  447MOL0     H60337  10.156   8.651  11.535  0.0397  0.2265  1.3889
  447MOL0     H60338  10.056   8.776  11.466 -0.5517 -2.1079 -0.4915
  447MOL0     H60339  10.326   8.824  11.604 -2.7801 -1.8889  2.5026
  447MOL0     H60340  10.258   8.932  11.474 -2.5983  2.0971  0.7821
  447MOL0     H60341  10.046   8.996  11.840 -0.1215  1.2531 -1.6765
  447MOL0     H60342  10.569   8.536  11.434 -2.3435  1.3194  0.0291
  447MOL0     H60343  10.785   8.264  11.479  0.4208 -2.0822  2.3097
  447MOL0     H60344  10.664   8.379  11.553 -0.1313 -0.7278  0.4841
  447MOL0     H60345  10.623   8.219  11.524  0.2484 -0.3898  0.7813
  448MOL0     O60346  10.813   1.598   9.268 -1.0994 -0.4634  0.7534
  448MOL0     C60347  10.743   1.696   9.287  0.5402 -0.0054 -0.3043
  448MOL0     O60348  10.747   1.817   9.218 -0.8634  0.8187  1.0899
  448MOL0     C60349  10.867   1.829   9.147 -0.3283  0.0602  0.3429
  448MOL0     C60350  10.975   1.899   9.211 -0.4372 -0.4400  0.6194
  448MOL0     C60351  11.095   1.933   9.147  0.6672  0.5454  0.5714
  448MOL0     C60352  11.101   1.900   9.007  0.2283  0.9187 -0.5578
  448MOL0     O60353  11.223   1.943   8.949 -0.1805  0.1979 -0.0771
  448MOL0     C60354  11.223   1.997   8.818  0.0064 -0.7927  1.2987
  448MOL0     C60355  11.321   1.922   8.716 -0.2695 -1.0526 -0.3256
  448MOL0     C60356  11.391   1.796   8.764  1.4855  0.2449  1.0096
  448MOL0     C60357  11.298   1.672   8.749 -1.0600 -0.4550 -0.0841
  448MOL0     C60358  11.378   1.541   8.741  0.0922  0.3363 -0.2474
  448MOL0     C60359  11.284   1.408   8.723 -0.7320  0.2480 -0.2759
  448MOL0     C60360  11.374   1.283   8.748  0.9767  0.1666  0.4435
  448MOL0     C60361  11.422   1.261   8.889  1.0116  0.4897 -0.4839
  448MOL0     N60362  11.453   1.116   8.899  0.4737 -1.0754 -0.3793
  448MOL0     C60363  11.584   1.069   8.910 -0.2090  1.7008  0.5503
  448MOL0     C60364  11.570   0.933   8.936 -0.1739 -0.3486 -0.0730
  448MOL0     C60365  11.669   0.832   8.975 -0.2742  0.9898 -0.2997
  448MOL0     C60366  11.722   0.863   9.112  0.8214  0.3754  0.3506
  448MOL0     C60367  11.630   0.809   9.227  0.3390 -0.3221  0.7929
  448MOL0     C60368  11.605   0.657   9.241  0.1083 -0.0791 -0.3269
  448MOL0     O60369  11.539   0.640   9.362  0.7605 -0.1805 -0.7879
  448MOL0     C60370  11.574   0.529   9.434  0.2927 -0.7909  0.4048
  448MOL0     C60371  11.530   0.405   9.387  0.3813 -0.9178 -1.0449
  448MOL0     C60372  11.546   0.289   9.469  0.4794 -0.2566 -0.5420
  448MOL0     C60373  11.639   0.307   9.579  0.2295 -0.7443  0.1403
  448MOL0     C60374  11.672   0.183   9.661  0.2685  0.5366 -0.0431
  448MOL0     O60375  11.755   0.194   9.769  0.5329  0.5401  0.6547
  448MOL0     C60376  11.814   0.085   9.823  0.3154  1.0205 -0.4578
  448MOL0     C60377  11.904   0.008   9.756 -0.0713  0.3209  0.1838
  448MOL0     C60378  11.939  -0.123   9.797 -1.0691 -0.3192  0.2635
  448MOL0     C60379  11.905  -0.161   9.928  0.2476 -0.2851  0.2942
  448MOL0     O60380  11.936  -0.290   9.973 -0.2099 -0.1137  0.3343
  448MOL0     C60381  12.075  -0.331   9.945  0.4277  0.9311 -0.1165
  448MOL0     C60382  12.109  -0.462  10.036  0.0098 -0.9700 -0.9884
  448MOL0     C60383  12.039  -0.583   9.994  0.5119 -0.1185  0.8945
  448MOL0     C60384  12.104  -0.707  10.070 -0.0433  0.2530 -0.1437
  448MOL0     C60385  12.041  -0.844  10.058 -0.0750 -0.4076  0.4957
  448MOL0     C60386  12.122  -0.950  10.115 -0.6749 -0.5183  0.0386
  448MOL0     C60387  12.060  -1.084  10.094  1.0518 -0.0555  0.5005
  448MOL0     C60388  12.015  -1.120   9.953  0.6013 -0.1766  0.1038
  448MOL0    Cl60389  12.151  -1.136   9.840  0.1158  0.4438  0.4014
  448MOL0     C60390  11.811  -0.084  10.000 -0.6033 -0.8890  1.3234
  448MOL0     C60391  11.771   0.037   9.951  0.2944 -0.1272  0.5986
  448MOL0     O60392  11.620   0.072   9.618  1.0629 -0.2112  0.7497
  448MOL0     C60393  11.689   0.432   9.615 -0.6020  0.4415 -0.2380
  448MOL0     C60394  11.653   0.544   9.547 -0.0851  0.1263 -0.2578
  448MOL0     N60395  11.432   0.905   8.927  0.1155  0.4384  0.3050
  448MOL0     N60396  11.365   1.011   8.905  0.1382  0.4573 -0.6520
  448MOL0     C60397  10.998   1.819   8.947  0.4019  0.8946 -0.1763
  448MOL0     C60398  10.880   1.789   9.017 -0.1928  1.0660  0.3016
  448MOL0     C60399  10.649   1.690   9.412 -0.7865 -0.1206 -0.7764
  448MOL0     C60400  10.624   1.568   9.485 -0.7413 -0.8929  0.2335
  448MOL0     C60401  10.516   1.557   9.582 -0.1601 -0.1186 -0.3388
  448MOL0     C60402  10.449   1.670   9.622  0.8815  0.6827 -0.8158
  448MOL0     O60403  10.348   1.642   9.718  0.2617 -0.1511 -0.2060
  448MOL0     C60404  10.280   1.758   9.780  0.6371  1.1007  0.0986
  448MOL0     C60405  10.370   1.858   9.854  0.5849 -0.5113  0.9878
  448MOL0     C60406  10.437   1.780   9.963 -0.7896  0.5043 -0.5488
  448MOL0     C60407  10.558   1.855  10.011 -0.8122 -0.2286  0.0250
  448MOL0     C60408  10.522   1.979  10.091 -0.8289 -0.2681 -0.3041
  448MOL0     C60409  10.476   2.079  10.147 -0.9416 -0.0019  1.0158
  448MOL0     C60410  10.477   1.793   9.558 -0.3554 -0.3901  0.5099
  448MOL0     C60411  10.582   1.810   9.459  0.0071  0.4039 -0.3267
  448MOL0     C60412  10.604   1.952   9.413  0.1124 -0.5122 -0.3835
  448MOL0     H60413  10.973   1.924   9.317 -0.2610 -1.5378  0.8877
  448MOL0     H60414  11.163   1.997   9.201  2.3929 -1.6069  1.0999
  448MOL0     H60415  11.124   2.005   8.774  0.3328  2.2978  0.9166
  448MOL0     H60416  11.253   2.102   8.824 -1.5245 -0.2312 -0.1417
  448MOL0     H60417  11.392   2.003   8.700  3.4708 -3.7352  1.3386
  448MOL0     H60418  11.275   1.905   8.618  0.1885 -2.7509 -0.2674
  448MOL0     H60419  11.423   1.802   8.869  1.0905  1.1435  1.0947
  448MOL0     H60420  11.478   1.776   8.701 -1.4382 -0.5024 -3.1701
  448MOL0     H60421  11.229   1.660   8.833 -0.0241 -1.7298  0.6152
  448MOL0     H60422  11.235   1.688   8.661 -1.9408 -0.7503  0.4877
  448MOL0     H60423  11.440   1.553   8.651  1.4576  3.6304  1.0034
  448MOL0     H60424  11.448   1.533   8.824  1.4403  0.8088 -1.2854
  448MOL0     H60425  11.197   1.412   8.789 -1.2139 -1.5673 -0.7400
  448MOL0     H60426  11.245   1.402   8.621  3.2352 -1.1024 -1.8691
  448MOL0     H60427  11.458   1.309   8.683  2.5362  2.2063  3.0843
  448MOL0     H60428  11.319   1.197   8.706 -2.0603  2.3266 -0.3448
  448MOL0     H60429  11.516   1.315   8.900  2.7234 -2.3140 -0.2590
  448MOL0     H60430  11.338   1.288   8.953 -1.1704  0.4244 -3.1457
  448MOL0     H60431  11.672   1.131   8.912  0.0212  1.4856 -1.2250
  448MOL0     H60432  11.625   0.734   8.957  1.9075 -0.3592  1.2208
  448MOL0     H60433  11.755   0.837   8.907  1.4751 -1.6302  1.5466
  448MOL0     H60434  11.814   0.807   9.130  0.3899 -1.0900 -1.6565
  448MOL0     H60435  11.740   0.970   9.125  0.9421  0.1693  2.1396
  448MOL0     H60436  11.539   0.869   9.219  1.2940  1.2084  1.0183
  448MOL0     H60437  11.679   0.830   9.322  1.8500 -0.3705  0.0480
  448MOL0     H60438  11.701   0.604   9.242  0.2545  0.1570  1.2922
  448MOL0     H60439  11.536   0.633   9.160  0.4890 -4.9320  0.4999
  448MOL0     H60440  11.447   0.392   9.318 -0.8187 -2.5457  0.5881
  448MOL0     H60441  11.489   0.199   9.446  0.3413  0.3254 -2.6468
  448MOL0     H60442  11.937   0.062   9.667  1.7828  2.2159  1.9020
  448MOL0     H60443  12.006  -0.185   9.738  0.6210  1.3061  0.3747
  448MOL0     H60444  12.091  -0.359   9.841  1.8247  0.8361  0.1089
  448MOL0     H60445  12.148  -0.254   9.971  1.1236 -0.6839  3.2801
  448MOL0     H60446  12.218  -0.471  10.030  0.2994  1.1565  0.4353
  448MOL0     H60447  12.093  -0.447  10.143 -3.9377  3.9630 -1.9144
  448MOL0     H60448  11.931  -0.572  10.011  0.2440  0.2546 -0.8468
  448MOL0     H60449  12.047  -0.599   9.886  1.6190  1.3881  0.7209
  448MOL0     H60450  12.106  -0.689  10.178 -2.4500 -0.2819  0.0237
  448MOL0     H60451  12.209  -0.723  10.042  0.8662 -1.5108  3.6681
  448MOL0     H60452  12.030  -0.870   9.953 -0.6453  2.3520 -0.2013
  448MOL0     H60453  11.939  -0.839  10.098  1.0556  1.1015  3.5999
  448MOL0     H60454  12.214  -0.961  10.057  0.2409 -2.5442  1.7323
  448MOL0     H60455  12.147  -0.934  10.221  3.4924 -0.2347 -0.8208
  448MOL0     H60456  11.969  -1.084  10.154 -0.4027  3.8743 -1.3599
  448MOL0     H60457  12.135  -1.162  10.111  0.5954 -1.0933 -1.8848
  448MOL0     H60458  11.971  -1.220   9.962 -0.8085  0.2994 -1.1457
  448MOL0     H60459  11.939  -1.052   9.913  0.0556  0.4313  2.0402
  448MOL0     H60460  11.773  -0.117  10.096  0.4055  1.1627  2.4882
  448MOL0     H60461  11.720   0.109  10.015 -0.4285 -0.6508  0.6261
  448MOL0     H60462  11.767   0.433   9.691  0.7054 -2.8846 -1.3611
  448MOL0     H60463  11.697   0.638   9.580  0.3674 -0.4813  0.8989
  448MOL0     H60464  11.000   1.785   8.845 -0.7907 -1.5201  0.5444
  448MOL0     H60465  10.791   1.733   8.987 -0.5922  0.5721  2.2898
  448MOL0     H60466  10.678   1.488   9.435  1.9973  2.2530 -2.3507
  448MOL0     H60467  10.494   1.461   9.628  0.7577 -0.7978 -1.2552
  448MOL0     H60468  10.209   1.722   9.855  0.3249  1.1777 -0.1527
  448MOL0     H60469  10.221   1.809   9.703  0.3627 -1.1784 -1.2817
  448MOL0     H60470  10.307   1.933   9.902 -3.0374 -2.7289  0.1473
  448MOL0     H60471  10.442   1.901   9.784 -2.1510 -1.9152 -3.1080
  448MOL0     H60472  10.470   1.678   9.944 -2.0349  0.2324 -1.3988
  448MOL0     H60473  10.365   1.767  10.044  0.8452  0.8794  1.0283
  448MOL0     H60474  10.598   1.782  10.083  0.2290 -0.7896 -1.0986
  448MOL0     H60475  10.638   1.883   9.943  0.3527  0.1424  1.5042
  448MOL0     H60476  10.433   2.166  10.192 -0.4517  0.9049 -0.2047
  448MOL0     H60477  10.413   1.877   9.581  1.2228  0.8665  0.4803
  448MOL0     H60478  10.542   1.963   9.323 -0.6695 -1.0088  0.0914
  448MOL0     H60479  10.570   2.022   9.490 -0.6102 -0.2332 -0.9429
  448MOL0     H60480  10.707   1.975   9.382 -0.4660  0.6382 -1.6024
  449MOL0     O60481   0.994   8.183   2.916  0.2036  0.3087  0.7234
  449MOL0     C60482   1.010   8.280   2.975 -0.1280 -0.1496 -0.1304
  449MOL0     O60483   1.126   8.352   2.984  0.2875  1.1553  0.9274
  449MOL0     C60484   1.229   8.330   2.892 -0.0113 -0.4298  0.0899
  449MOL0     C60485   1.239   8.252   2.779 -0.0065 -0.1120 -0.4886
  449MOL0     C60486   1.355   8.258   2.701 -0.0777  0.3895 -0.4208
  449MOL0     C60487   1.468   8.343   2.741 -0.0076 -0.8156  0.0055
  449MOL0     O60488   1.583   8.369   2.665 -0.1804  0.0868 -0.1090
  449MOL0     C60489   1.598   8.301   2.551 -0.5414  0.1277  0.3121
  449MOL0     C60490   1.737   8.337   2.481  0.2589  0.3922  0.0177
  449MOL0     C60491   1.709   8.422   2.356 -0.3173  0.1074 -0.3770
  449MOL0     C60492   1.629   8.333   2.251 -0.4698 -0.0379 -0.4568
  449MOL0     C60493   1.601   8.403   2.115  0.2159  0.7247 -0.2740
  449MOL0     C60494   1.474   8.347   2.043 -0.2072  0.1570  0.0798
  449MOL0     C60495   1.446   8.410   1.908 -0.0840 -0.0509  0.4840
  449MOL0     C60496   1.558   8.426   1.807 -0.1840  0.2888  0.1904
  449MOL0     N60497   1.531   8.391   1.665  0.8090  0.3705  0.4089
  449MOL0     C60498   1.421   8.430   1.602 -0.2477  0.0779  0.5921
  449MOL0     C60499   1.414   8.356   1.489 -0.3888  0.5477 -0.1840
  449MOL0     C60500   1.297   8.351   1.400  0.5062 -1.0018 -0.2568
  449MOL0     C60501   1.298   8.412   1.257  0.3799  0.7049  0.8973
  449MOL0     C60502   1.350   8.316   1.145  0.1584  0.4471  0.5266
  449MOL0     C60503   1.222   8.256   1.070 -0.7040  0.2888  0.0903
  449MOL0     O60504   1.151   8.355   0.990  0.2193  0.3790  0.6597
  449MOL0     C60505   1.039   8.295   0.930 -0.2121  0.0400 -0.4795
  449MOL0     C60506   1.065   8.256   0.795 -0.8072 -0.1890 -0.4607
  449MOL0     C60507   0.959   8.204   0.717 -0.4352 -0.3590  0.5363
  449MOL0     C60508   0.831   8.181   0.770  0.4895  0.2410 -0.2111
  449MOL0     C60509   0.721   8.113   0.697  0.5348 -0.4362  0.6524
  449MOL0     O60510   0.752   8.089   0.568  1.0590 -0.2833 -0.4524
  449MOL0     C60511   0.706   7.976   0.494 -0.8008 -0.6771 -0.2509
  449MOL0     C60512   0.690   8.001   0.355 -0.2120 -1.1191 -0.7251
  449MOL0     C60513   0.654   7.900   0.262  0.3626 -0.7772 -0.7524
  449MOL0     C60514   0.612   7.776   0.320  0.5634 -0.8700  0.9271
  449MOL0     O60515   0.567   7.690   0.228  0.2876 -0.6126  0.1438
  449MOL0     C60516   0.658   7.596   0.168 -0.1240 -0.6098 -0.8235
  449MOL0     C60517   0.591   7.490   0.079  0.0458 -0.4245  0.2981
  449MOL0     C60518   0.486   7.562  -0.008  0.1182  0.0980  0.2205
  449MOL0     C60519   0.433   7.461  -0.113  1.0770  0.2489 -0.5071
  449MOL0     C60520   0.314   7.504  -0.188  0.4184 -0.1243 -1.1373
  449MOL0     C60521   0.183   7.524  -0.106 -1.2928 -0.4120  0.3735
  449MOL0     C60522   0.067   7.566  -0.206  0.1029  0.1763  0.7387
  449MOL0     C60523  -0.047   7.645  -0.135  0.1780  0.0968  0.6178
  449MOL0    Cl60524  -0.124   7.539  -0.013  0.1634 -0.3835 -0.3071
  449MOL0     C60525   0.620   7.750   0.456 -0.3380  0.1217 -0.3371
  449MOL0     C60526   0.662   7.858   0.541  0.0697 -0.4455 -0.6570
  449MOL0     O60527   0.626   8.066   0.757  0.5522 -0.1473 -0.7052
  449MOL0     C60528   0.813   8.214   0.910  0.1649 -0.0475  0.9341
  449MOL0     C60529   0.916   8.277   0.988  0.9572  0.6418  0.6207
  449MOL0     N60530   1.510   8.254   1.498 -0.4960  0.7598  0.2276
  449MOL0     N60531   1.584   8.281   1.604  0.7794 -0.5918 -0.2304
  449MOL0     C60532   1.451   8.424   2.853  0.3197 -0.1466  0.6687
  449MOL0     C60533   1.336   8.418   2.933  0.7667 -0.7548  0.3123
  449MOL0     C60534   0.895   8.334   3.055  0.6653 -0.6448  0.2119
  449MOL0     C60535   0.874   8.475   3.051 -1.0902  0.7741 -1.0724
  449MOL0     C60536   0.757   8.535   3.112  0.3012  0.2846  0.9128
  449MOL0     C60537   0.656   8.449   3.162  0.3337  0.3197  0.1152
  449MOL0     O60538   0.535   8.477   3.217  0.7593 -0.8125 -0.8087
  449MOL0     C60539   0.499   8.614   3.242  0.0710  0.7705  0.2119
  449MOL0     C60540   0.572   8.689   3.356 -0.0174  1.1176 -0.4461
  449MOL0     C60541   0.502   8.828   3.370  0.7556 -0.3948 -0.6743
  449MOL0     C60542   0.555   8.904   3.498  0.1734 -0.2371  0.2766
  449MOL0     C60543   0.505   9.040   3.507 -0.3736 -0.3851  0.4582
  449MOL0     C60544   0.446   9.142   3.509  1.2404  0.5584 -0.2429
  449MOL0     C60545   0.680   8.320   3.169  0.1573  0.2533  0.7944
  449MOL0     C60546   0.800   8.263   3.124 -0.8892 -0.9014  0.0029
  449MOL0     C60547   0.824   8.119   3.138 -0.2226 -0.2831  0.2215
  449MOL0     H60548   1.162   8.182   2.747  0.3319 -2.1102  2.6042
  449MOL0     H60549   1.361   8.192   2.614  2.3584 -0.5906  0.3951
  449MOL0     H60550   1.616   8.194   2.565  3.6372  0.5680 -0.2782
  449MOL0     H60551   1.509   8.326   2.493 -1.6425 -0.7820  1.5744
  449MOL0     H60552   1.797   8.247   2.461 -1.2390 -0.4685 -0.7466
  449MOL0     H60553   1.794   8.402   2.548  0.3755 -0.4515  0.7600
  449MOL0     H60554   1.789   8.467   2.296  2.8566 -4.1525  0.2072
  449MOL0     H60555   1.649   8.508   2.388 -0.5657  1.3442 -3.7118
  449MOL0     H60556   1.674   8.234   2.240  1.5210  1.0175 -2.4976
  449MOL0     H60557   1.527   8.315   2.288 -1.4349  2.7924 -1.5028
  449MOL0     H60558   1.579   8.507   2.139 -0.8299  0.5132 -0.3042
  449MOL0     H60559   1.688   8.386   2.050  0.5547 -0.5381  0.4590
  449MOL0     H60560   1.494   8.242   2.020 -1.2724 -0.1302  0.4170
  449MOL0     H60561   1.383   8.332   2.101 -1.8448 -3.2112 -2.9813
  449MOL0     H60562   1.410   8.513   1.922 -1.8909 -0.4188 -1.0002
  449MOL0     H60563   1.358   8.361   1.866 -0.1432 -0.6309  1.2661
  449MOL0     H60564   1.598   8.528   1.808  0.9098 -0.0147 -2.5263
  449MOL0     H60565   1.646   8.368   1.835 -0.4798  0.4251  1.4909
  449MOL0     H60566   1.358   8.516   1.624 -1.1801  0.4886 -2.9981
  449MOL0     H60567   1.262   8.249   1.385  2.6997 -1.8398 -0.1222
  449MOL0     H60568   1.220   8.410   1.451 -0.4300 -2.3123 -0.1106
  449MOL0     H60569   1.191   8.424   1.240 -0.0060 -1.9500  1.0331
  449MOL0     H60570   1.348   8.509   1.259 -0.6115  1.2640  0.0243
  449MOL0     H60571   1.395   8.232   1.199 -2.1000 -2.0320 -1.2281
  449MOL0     H60572   1.427   8.354   1.076  1.5188 -0.1829  1.6490
  449MOL0     H60573   1.144   8.210   1.133 -1.8417 -0.0837 -1.5304
  449MOL0     H60574   1.260   8.175   1.007  1.2384  0.9485  0.3320
  449MOL0     H60575   1.163   8.283   0.756 -1.3167  0.2137 -1.5178
  449MOL0     H60576   0.978   8.172   0.615 -1.1938 -2.7339  1.0754
  449MOL0     H60577   0.727   8.101   0.334 -1.4616  0.3259  3.0724
  449MOL0     H60578   0.675   7.909   0.156 -0.2052 -1.7469 -0.9540
  449MOL0     H60579   0.722   7.648   0.097  1.9312  0.3730  1.5838
  449MOL0     H60580   0.713   7.545   0.248 -2.8192 -3.9993 -0.9016
  449MOL0     H60581   0.668   7.438   0.022  1.0921  1.8440 -0.4746
  449MOL0     H60582   0.545   7.412   0.140  0.6644 -1.2287 -0.2443
  449MOL0     H60583   0.413   7.600   0.064 -0.1391  1.6389 -0.8107
  449MOL0     H60584   0.517   7.650  -0.064 -2.8809 -1.0068 -3.5985
  449MOL0     H60585   0.393   7.367  -0.074  2.9516 -0.0037  0.9691
  449MOL0     H60586   0.508   7.430  -0.187  2.9239  3.2161 -0.0356
  449MOL0     H60587   0.286   7.429  -0.262  2.4186 -0.2928 -1.7711
  449MOL0     H60588   0.346   7.601  -0.227 -1.7498  1.9928  1.8439
  449MOL0     H60589   0.148   7.429  -0.064 -4.8884  0.6867  0.2125
  449MOL0     H60590   0.195   7.596  -0.025  1.1453  2.8465 -2.5761
  449MOL0     H60591   0.027   7.486  -0.270  1.0721 -0.3248  0.7239
  449MOL0     H60592   0.118   7.635  -0.274  1.3646  0.1340  1.6020
  449MOL0     H60593  -0.021   7.746  -0.102  0.7873  0.3396 -0.5429
  449MOL0     H60594  -0.133   7.679  -0.194 -0.3871 -1.3252  0.5925
  449MOL0     H60595   0.600   7.656   0.506 -3.3507  1.1300  0.5806
  449MOL0     H60596   0.661   7.849   0.649  0.0636  2.1720 -0.3852
  449MOL0     H60597   0.717   8.187   0.954 -1.0332 -0.7910 -1.8788
  449MOL0     H60598   0.904   8.289   1.095  2.3254  4.6250  0.4657
  449MOL0     H60599   1.524   8.502   2.871  1.2057  0.8153 -5.2810
  449MOL0     H60600   1.325   8.484   3.018 -0.0101  1.2637 -1.2621
  449MOL0     H60601   0.954   8.535   3.007  0.9702  1.3087  2.9061
  449MOL0     H60602   0.742   8.642   3.127  1.2843  0.6964 -0.8415
  449MOL0     H60603   0.392   8.614   3.265  0.3782  1.9328  1.8803
  449MOL0     H60604   0.510   8.673   3.151  0.3525 -1.8184 -1.5267
  449MOL0     H60605   0.681   8.703   3.349  0.2900 -0.1940  1.2238
  449MOL0     H60606   0.555   8.631   3.447  2.0634  2.3392  0.8026
  449MOL0     H60607   0.395   8.807   3.373  0.9537 -2.4109 -3.5799
  449MOL0     H60608   0.516   8.871   3.271  2.0140 -1.7885 -1.1445
  449MOL0     H60609   0.510   8.840   3.574 -1.5839 -0.1048 -0.6128
  449MOL0     H60610   0.662   8.891   3.516 -0.1793 -1.2895  1.7905
  449MOL0     H60611   0.395   9.234   3.529 -2.5513 -1.2754 -0.6212
  449MOL0     H60612   0.602   8.256   3.211 -0.7599  0.2866 -0.7840
  449MOL0     H60613   0.781   8.078   3.230 -1.6497 -3.3236 -1.6419
  449MOL0     H60614   0.767   8.059   3.067 -1.9949 -0.8816  2.0464
  449MOL0     H60615   0.932   8.099   3.137 -0.3811 -1.3569  1.2642
  450MOL0     O60616   2.968   5.410   1.920  0.0790  0.3304  0.4338
  450MOL0     C60617   2.894   5.498   1.954 -0.2206 -1.2053 -0.6707
  450MOL0     O60618   2.761   5.485   1.992  0.7695 -0.7617  0.7006
  450MOL0     C60619   2.708   5.359   1.989  0.0131 -1.2669  0.3627
  450MOL0     C60620   2.678   5.292   2.105  0.0944 -0.3548  0.2188
  450MOL0     C60621   2.636   5.151   2.088  0.0279 -0.5486 -0.3344
  450MOL0     C60622   2.621   5.096   1.962 -0.1945  0.4639 -0.9345
  450MOL0     O60623   2.577   4.967   1.935  0.2820 -0.4606  0.6841
  450MOL0     C60624   2.574   4.874   2.040 -0.3961 -0.4485 -0.3154
  450MOL0     C60625   2.561   4.735   1.985  0.0030  0.2224  0.3523
  450MOL0     C60626   2.681   4.703   1.897 -0.5582  0.4393 -0.8256
  450MOL0     C60627   2.671   4.562   1.853  0.0835  0.6179 -0.4129
  450MOL0     C60628   2.744   4.533   1.724 -0.1193  0.3147 -0.0300
  450MOL0     C60629   2.709   4.384   1.670 -0.9266 -0.9822 -0.6381
  450MOL0     C60630   2.737   4.267   1.760 -0.0519  0.6006  0.1565
  450MOL0     C60631   2.684   4.131   1.719 -0.4305  0.2443 -1.4957
  450MOL0     N60632   2.772   4.083   1.603  0.0953  1.0531 -1.1132
  450MOL0     C60633   2.903   4.047   1.624  0.4343 -0.1168 -0.9303
  450MOL0     C60634   2.951   4.034   1.496  0.6631 -0.4465  0.5155
  450MOL0     C60635   3.083   3.982   1.444  0.6566 -0.7137 -0.4325
  450MOL0     C60636   3.165   3.891   1.540 -0.2473  0.2711 -0.4503
  450MOL0     C60637   3.309   3.842   1.490 -0.0207  0.5366 -0.5879
  450MOL0     C60638   3.395   3.962   1.454  0.4839 -0.7183 -0.4536
  450MOL0     O60639   3.520   3.925   1.400  0.7949  0.6746  0.1494
  450MOL0     C60640   3.614   4.018   1.357 -0.5525  0.4084 -0.1410
  450MOL0     C60641   3.727   3.972   1.283 -0.3543 -0.5663  0.7636
  450MOL0     C60642   3.810   4.064   1.217 -0.2055  0.3547 -0.3060
  450MOL0     C60643   3.775   4.205   1.226  0.3962 -0.8624  0.4997
  450MOL0     C60644   3.852   4.300   1.143  0.1323 -0.3988  0.0679
  450MOL0     O60645   3.872   4.425   1.189 -0.0125 -0.6005 -0.2742
  450MOL0     C60646   3.977   4.498   1.133 -0.1791  0.0010 -1.2047
  450MOL0     C60647   4.110   4.459   1.146  0.5344  0.2101  1.2191
  450MOL0     C60648   4.217   4.541   1.107 -0.4053 -0.6702 -0.8487
  450MOL0     C60649   4.185   4.672   1.067 -1.2673  0.3063 -0.6085
  450MOL0     O60650   4.274   4.766   1.022  0.4003 -0.5191  0.5065
  450MOL0     C60651   4.405   4.733   0.982  0.7034 -0.0371  0.0094
  450MOL0     C60652   4.501   4.726   1.098  0.4204 -0.9167 -0.9247
  450MOL0     C60653   4.627   4.657   1.061 -0.3621  0.0993 -0.1214
  450MOL0     C60654   4.687   4.597   1.187  0.4176 -0.7506  0.8104
  450MOL0     C60655   4.752   4.699   1.289 -0.3267  0.7241 -0.4281
  450MOL0     C60656   4.877   4.767   1.221  0.5482 -0.2051 -1.0891
  450MOL0     C60657   4.941   4.848   1.329 -0.4416  0.1334 -0.3503
  450MOL0     C60658   5.024   4.967   1.270 -0.3106  1.0939  0.7661
  450MOL0    Cl60659   4.908   5.093   1.195 -0.0678 -0.2325 -0.0292
  450MOL0     C60660   4.056   4.711   1.057  0.0249 -0.6775 -0.4676
  450MOL0     C60661   3.954   4.628   1.088 -0.4097 -0.4137 -0.0394
  450MOL0     O60662   3.914   4.248   1.047  0.3511 -0.3317 -0.6802
  450MOL0     C60663   3.671   4.242   1.300 -0.1189 -1.2471 -0.9591
  450MOL0     C60664   3.594   4.157   1.373 -0.1772 -0.7360  0.1909
  450MOL0     N60665   2.843   4.062   1.406  0.7841  0.1416 -0.2599
  450MOL0     N60666   2.736   4.099   1.474  0.1090  0.1929 -0.1578
  450MOL0     C60667   2.636   5.172   1.849 -1.5116  0.1637 -0.9297
  450MOL0     C60668   2.683   5.310   1.860  0.5278 -0.0203 -0.8574
  450MOL0     C60669   2.948   5.640   1.966  0.7937  0.0466 -0.7385
  450MOL0     C60670   2.853   5.746   1.974  0.1006 -0.9024  0.1914
  450MOL0     C60671   2.896   5.881   1.998  0.4626 -0.4003  0.1823
  450MOL0     C60672   3.030   5.912   1.988 -0.5838 -0.0300  0.1730
  450MOL0     O60673   3.074   6.042   2.007  0.4636 -0.7582 -0.0659
  450MOL0     C60674   3.128   6.109   1.893  0.2810  0.1364 -0.9483
  450MOL0     C60675   3.080   6.069   1.748 -0.0450 -0.0161 -1.0116
  450MOL0     C60676   3.175   6.124   1.643  0.2206 -0.1571  0.1348
  450MOL0     C60677   3.130   6.061   1.512 -0.0362 -0.3610  0.2776
  450MOL0     C60678   3.176   5.929   1.500 -0.0191 -0.2584 -0.5741
  450MOL0     C60679   3.213   5.814   1.469  1.2395  0.0227  0.4042
  450MOL0     C60680   3.130   5.809   1.983 -0.2013 -0.2556  0.9880
  450MOL0     C60681   3.090   5.672   1.973 -1.2824 -0.1696  0.2796
  450MOL0     C60682   3.212   5.574   1.974 -0.5373  0.6807 -0.1963
  450MOL0     H60683   2.691   5.327   2.207 -2.0807 -1.1087  0.8046
  450MOL0     H60684   2.631   5.081   2.170 -4.0008  0.6406  0.6460
  450MOL0     H60685   2.678   4.888   2.073 -0.4799 -1.2924  0.3253
  450MOL0     H60686   2.494   4.901   2.110 -0.3446  1.8684 -1.0542
  450MOL0     H60687   2.464   4.727   1.935  0.4639  0.9801 -0.7080
  450MOL0     H60688   2.567   4.662   2.065 -3.4128 -0.2287  0.3628
  450MOL0     H60689   2.774   4.712   1.954 -1.2730 -0.0309  0.4660
  450MOL0     H60690   2.681   4.765   1.807 -1.2242  1.1491 -0.3482
  450MOL0     H60691   2.706   4.494   1.932 -1.2816  0.6955  0.2990
  450MOL0     H60692   2.566   4.544   1.826 -1.6877  5.0677  2.3760
  450MOL0     H60693   2.726   4.605   1.644 -2.1277 -1.4796 -1.3121
  450MOL0     H60694   2.849   4.531   1.756 -0.5936  1.9499  1.8086
  450MOL0     H60695   2.600   4.378   1.665 -1.0081 -0.8899  0.6160
  450MOL0     H60696   2.760   4.374   1.574 -0.7046 -2.2804 -0.3948
  450MOL0     H60697   2.713   4.290   1.865  2.3550  0.6741  0.7395
  450MOL0     H60698   2.845   4.258   1.771 -0.1908  1.4362  3.3619
  450MOL0     H60699   2.699   4.064   1.805 -2.6761  1.3274 -0.1713
  450MOL0     H60700   2.577   4.140   1.700 -1.4545 -1.0431  2.5049
  450MOL0     H60701   2.953   4.021   1.717 -1.4945 -1.3742 -0.1697
  450MOL0     H60702   3.042   3.909   1.374 -1.4799  1.3167 -1.4514
  450MOL0     H60703   3.143   4.070   1.418 -0.5330 -0.4894 -2.7051
  450MOL0     H60704   3.196   3.936   1.634 -1.1080 -1.3622  0.6716
  450MOL0     H60705   3.110   3.802   1.571 -0.3925  0.2482 -0.7630
  450MOL0     H60706   3.305   3.777   1.402 -2.1239 -0.0933 -0.0909
  450MOL0     H60707   3.344   3.783   1.575 -0.9462  1.0075  0.1365
  450MOL0     H60708   3.407   4.018   1.547  0.2769 -3.0120  1.0317
  450MOL0     H60709   3.349   4.025   1.377 -0.2171  0.5560  0.9559
  450MOL0     H60710   3.746   3.866   1.272 -1.1945 -0.5885 -0.6641
  450MOL0     H60711   3.890   4.024   1.156 -1.0473  0.4830 -1.5338
  450MOL0     H60712   4.123   4.352   1.165 -0.1257  0.0121  0.6042
  450MOL0     H60713   4.321   4.511   1.098 -0.3243 -0.4922 -0.5057
  450MOL0     H60714   4.407   4.638   0.927  1.4485  1.3391 -2.5089
  450MOL0     H60715   4.447   4.807   0.913  1.3569 -3.0163 -3.0363
  450MOL0     H60716   4.519   4.822   1.147 -1.1147 -0.7699 -0.6117
  450MOL0     H60717   4.456   4.673   1.182  0.4973  3.7638  2.4637
  450MOL0     H60718   4.598   4.569   1.004 -1.6768  1.1955 -1.2296
  450MOL0     H60719   4.694   4.722   1.003  0.4307 -2.0288 -1.6843
  450MOL0     H60720   4.768   4.529   1.159  0.9855  0.1465  0.2076
  450MOL0     H60721   4.612   4.529   1.228  2.3977 -4.3469 -1.0125
  450MOL0     H60722   4.788   4.654   1.382  2.3910  0.8987 -1.2895
  450MOL0     H60723   4.680   4.776   1.316  0.2451  1.1699 -0.1543
  450MOL0     H60724   4.937   4.687   1.176 -4.1482 -5.1933  0.3981
  450MOL0     H60725   4.836   4.829   1.140 -2.6734  2.6119  2.3295
  450MOL0     H60726   5.003   4.783   1.392  0.4358  0.5778 -0.7341
  450MOL0     H60727   4.860   4.884   1.393 -1.9103 -1.4863 -1.2135
  450MOL0     H60728   5.093   5.002   1.348  0.4552 -2.1795  1.6988
  450MOL0     H60729   5.087   4.940   1.185 -2.0284 -0.2553 -0.1312
  450MOL0     H60730   4.032   4.815   1.038 -1.9980 -0.2929  3.3746
  450MOL0     H60731   3.852   4.661   1.071  1.2891  4.0533 -3.6996
  450MOL0     H60732   3.652   4.349   1.304 -1.8244 -1.5641  2.1433
  450MOL0     H60733   3.518   4.186   1.445 -0.5725  0.1371 -0.5625
  450MOL0     H60734   2.601   5.122   1.758  1.3595 -0.8189 -1.5865
  450MOL0     H60735   2.700   5.373   1.773  2.3181  0.6414 -0.0766
  450MOL0     H60736   2.747   5.723   1.985  0.6238 -2.8406  1.9560
  450MOL0     H60737   2.832   5.968   2.003  0.3037 -0.5390  0.5690
  450MOL0     H60738   3.232   6.076   1.892 -0.0516 -1.0311  0.2670
  450MOL0     H60739   3.119   6.218   1.889 -0.2774  0.2115  1.2662
  450MOL0     H60740   2.981   6.113   1.737 -1.0474 -1.0693  2.4955
  450MOL0     H60741   3.065   5.961   1.745  2.1977 -0.4330  0.3082
  450MOL0     H60742   3.280   6.102   1.664  0.1053 -0.0072  0.9030
  450MOL0     H60743   3.163   6.233   1.644  1.0907  0.0040 -2.3217
  450MOL0     H60744   3.022   6.061   1.497 -0.1487  0.8016  0.9197
  450MOL0     H60745   3.160   6.119   1.425 -3.0811  1.1219  0.1084
  450MOL0     H60746   3.240   5.712   1.452 -0.2468 -0.2145 -0.7825
  450MOL0     H60747   3.237   5.827   1.991 -0.4630  0.8017  2.5002
  450MOL0     H60748   3.294   5.624   1.922 -2.5297  2.0612 -2.2018
  450MOL0     H60749   3.246   5.540   2.073 -0.4794  0.6119 -0.2401
  450MOL0     H60750   3.195   5.478   1.925  0.1091  0.9052 -0.8777
  451MOL0     O60751  11.082   6.551   1.905 -0.5590 -0.0635 -0.3059
  451MOL0     C60752  10.970   6.515   1.913  1.0337 -0.3361  0.1757
  451MOL0     O60753  10.923   6.382   1.900 -0.0706  0.5478  0.0213
  451MOL0     C60754  11.011   6.307   1.838 -0.3568 -0.0141  0.0436
  451MOL0     C60755  11.042   6.323   1.703  0.5096 -1.1731 -0.7758
  451MOL0     C60756  11.131   6.242   1.634 -0.2808  0.4463 -1.5103
  451MOL0     C60757  11.191   6.132   1.701 -0.0848  0.1761 -0.0745
  451MOL0     O60758  11.279   6.054   1.629  0.1890  0.4656 -0.3905
  451MOL0     C60759  11.354   5.956   1.698 -0.4304  0.2992 -0.2142
  451MOL0     C60760  11.263   5.828   1.709 -0.9511  0.3405  0.1981
  451MOL0     C60761  11.267   5.729   1.584 -0.1613 -0.0733 -0.5810
  451MOL0     C60762  11.173   5.611   1.588  0.0584 -0.4972 -0.9317
  451MOL0     C60763  11.023   5.650   1.599 -0.9111  0.8775 -0.0380
  451MOL0     C60764  10.961   5.617   1.735 -0.9645 -0.5096  0.7722
  451MOL0     C60765  10.936   5.722   1.838  0.7920 -1.8123 -0.0951
  451MOL0     C60766  10.853   5.670   1.963  0.8474  0.0308 -0.4848
  451MOL0     N60767  10.791   5.769   2.043 -0.5242 -0.3376  0.2144
  451MOL0     C60768  10.827   5.782   2.169  0.5112  0.0249  0.0533
  451MOL0     C60769  10.768   5.885   2.224  0.0543 -0.4050 -0.3944
  451MOL0     C60770  10.782   5.921   2.368 -0.4622 -0.3932 -0.3225
  451MOL0     C60771  10.903   6.009   2.408  0.2110  0.0374 -0.0593
  451MOL0     C60772  10.924   6.130   2.317 -0.3764  0.0503  0.3354
  451MOL0     C60773  10.803   6.223   2.279 -0.0665  0.0230  0.4657
  451MOL0     O60774  10.777   6.307   2.392 -0.6025 -0.4185 -0.7285
  451MOL0     C60775  10.686   6.406   2.389 -0.4311  0.2217 -0.6078
  451MOL0     C60776  10.580   6.398   2.484  1.0722 -0.0465  0.3835
  451MOL0     C60777  10.482   6.497   2.491 -0.7143 -0.0172  0.6512
  451MOL0     C60778  10.496   6.613   2.412  0.1419 -0.2187 -0.1835
  451MOL0     C60779  10.383   6.715   2.420 -0.5040 -0.4675  0.4311
  451MOL0     O60780  10.284   6.710   2.513 -0.5240  0.6126  0.7706
  451MOL0     C60781  10.183   6.789   2.498 -0.7414  0.0989 -0.8355
  451MOL0     C60782  10.060   6.730   2.483 -0.1641  0.4662 -0.2333
  451MOL0     C60783   9.940   6.783   2.476 -0.2352  0.3117  0.2089
  451MOL0     C60784   9.941   6.924   2.490  0.4725 -0.2834 -1.1317
  451MOL0     O60785   9.839   7.014   2.498  0.2760  0.3527  0.0694
  451MOL0     C60786   9.711   6.955   2.499  0.5727  0.7057  0.2203
  451MOL0     C60787   9.630   7.074   2.440 -0.1693  0.1584 -0.4983
  451MOL0     C60788   9.471   7.048   2.444  1.3022  0.6808  0.1420
  451MOL0     C60789   9.393   7.109   2.328 -0.1679 -0.2572 -0.3808
  451MOL0     C60790   9.265   7.180   2.380  0.1765  1.1009  0.2046
  451MOL0     C60791   9.200   7.231   2.251 -0.2564  0.3908 -0.1926
  451MOL0     C60792   9.271   7.359   2.201  0.2048  0.8318  0.5256
  451MOL0     C60793   9.203   7.426   2.078 -0.4670 -0.1467 -0.2873
  451MOL0    Cl60794   9.020   7.436   2.089  0.3507  0.2645  0.3586
  451MOL0     C60795  10.062   6.993   2.505 -0.2594 -0.5425 -0.0338
  451MOL0     C60796  10.184   6.931   2.511  0.0682  0.3207 -0.1885
  451MOL0     O60797  10.390   6.793   2.327  0.8292 -0.2888 -0.4111
  451MOL0     C60798  10.598   6.616   2.313  0.7737 -0.8661  0.3073
  451MOL0     C60799  10.688   6.516   2.300  0.1026  0.7886  0.1559
  451MOL0     N60800  10.706   5.951   2.114 -0.8180  1.0811  0.2109
  451MOL0     N60801  10.718   5.875   2.008 -0.2876 -1.1631 -0.3797
  451MOL0     C60802  11.150   6.108   1.833 -1.0631  0.3257  0.2183
  451MOL0     C60803  11.066   6.195   1.905 -0.0364 -0.8810 -1.0406
  451MOL0     C60804  10.867   6.627   1.946 -1.4776  0.0105  0.0351
  451MOL0     C60805  10.746   6.622   1.884  0.2913 -0.7337 -0.0591
  451MOL0     C60806  10.650   6.718   1.909  0.3096  0.6584 -0.5519
  451MOL0     C60807  10.682   6.831   1.986  0.2033  0.5741  0.8163
  451MOL0     O60808  10.587   6.927   1.974 -0.6148 -0.8419 -0.8912
  451MOL0     C60809  10.614   7.061   2.034  1.5098 -0.5780  0.4918
  451MOL0     C60810  10.661   7.146   1.919 -0.6961  0.6968 -0.2461
  451MOL0     C60811  10.562   7.179   1.800  0.6065  0.7114 -0.6736
  451MOL0     C60812  10.421   7.232   1.855  0.2344 -0.0452 -0.1467
  451MOL0     C60813  10.406   7.335   1.960 -0.4372  0.8273 -0.6551
  451MOL0     C60814  10.388   7.410   2.050 -0.4013 -0.5445 -0.0521
  451MOL0     C60815  10.797   6.833   2.055 -1.3299  0.2875 -0.1205
  451MOL0     C60816  10.895   6.738   2.030 -0.6367 -0.5897 -0.0083
  451MOL0     C60817  11.032   6.771   2.091  0.0721 -0.5267 -0.2719
  451MOL0     H60818  10.990   6.400   1.648  2.0544  0.2298 -0.3271
  451MOL0     H60819  11.132   6.281   1.532  2.5308 -0.7299 -2.0288
  451MOL0     H60820  11.442   5.936   1.637 -1.7543 -0.3222 -1.9964
  451MOL0     H60821  11.392   5.995   1.793  2.5305 -1.0449 -0.7162
  451MOL0     H60822  11.164   5.865   1.734 -1.3810  0.0290 -0.9730
  451MOL0     H60823  11.297   5.765   1.792 -1.7355  2.5411  2.3216
  451MOL0     H60824  11.370   5.691   1.582 -0.6452 -1.6155  0.9095
  451MOL0     H60825  11.254   5.775   1.486 -1.3642  0.3448 -0.2378
  451MOL0     H60826  11.191   5.545   1.503 -1.6231 -3.2127  0.6583
  451MOL0     H60827  11.194   5.545   1.672  3.7950  0.3096 -1.0635
  451MOL0     H60828  11.009   5.754   1.568  1.6870  0.9127 -1.4326
  451MOL0     H60829  10.982   5.590   1.517 -2.9945  0.4243  1.2695
  451MOL0     H60830  10.859   5.593   1.705 -0.9049 -1.5961  1.3878
  451MOL0     H60831  11.000   5.522   1.774 -5.6342 -3.1581 -0.2794
  451MOL0     H60832  10.896   5.812   1.790 -4.5466 -2.4838  2.3821
  451MOL0     H60833  11.030   5.765   1.875 -0.6005  1.6926 -0.2458
  451MOL0     H60834  10.766   5.613   1.929  0.6543 -3.1802  4.3630
  451MOL0     H60835  10.915   5.612   2.033  1.1716  1.5711  0.5427
  451MOL0     H60836  10.884   5.719   2.237 -0.2137  0.6227  1.2532
  451MOL0     H60837  10.698   5.986   2.396 -1.5333 -1.3576 -1.2192
  451MOL0     H60838  10.774   5.832   2.431 -1.1650 -0.0489  0.0820
  451MOL0     H60839  10.888   6.045   2.511 -1.3399  0.2832 -0.3419
  451MOL0     H60840  10.988   5.940   2.409  1.2629  1.3004 -0.6186
  451MOL0     H60841  10.958   6.081   2.225  2.6893 -0.0514  1.4048
  451MOL0     H60842  11.003   6.183   2.370  0.0958 -2.1631  2.0045
  451MOL0     H60843  10.713   6.167   2.251  0.8751 -0.3670 -2.1570
  451MOL0     H60844  10.829   6.293   2.199  0.8705  2.8082  3.0180
  451MOL0     H60845  10.559   6.307   2.539  0.3594 -1.4512 -2.0629
  451MOL0     H60846  10.401   6.484   2.562 -0.5281 -0.2839  0.8154
  451MOL0     H60847  10.063   6.621   2.485 -3.8814  0.2075  2.2924
  451MOL0     H60848   9.848   6.726   2.469  0.9120 -1.5787 -0.5757
  451MOL0     H60849   9.701   6.875   2.425 -0.9705 -1.5320  2.6630
  451MOL0     H60850   9.678   6.918   2.596 -3.1273  2.3759 -0.2079
  451MOL0     H60851   9.662   7.159   2.501 -1.0798  1.4858 -1.8041
  451MOL0     H60852   9.659   7.096   2.337  5.4053  0.8828  0.8935
  451MOL0     H60853   9.448   6.942   2.458  2.2465  0.3648 -0.5842
  451MOL0     H60854   9.444   7.085   2.543 -0.6749  0.2027 -0.1954
  451MOL0     H60855   9.361   7.047   2.244 -0.3668 -2.1714  1.0378
  451MOL0     H60856   9.460   7.179   2.277  1.5827 -1.3384  0.3470
  451MOL0     H60857   9.284   7.272   2.435  1.1170  2.4883 -2.2702
  451MOL0     H60858   9.197   7.108   2.428  0.4634  1.3531  0.9999
  451MOL0     H60859   9.177   7.159   2.172 -2.0925  0.1139  0.5396
  451MOL0     H60860   9.101   7.263   2.284 -0.7115 -0.6790 -0.5031
  451MOL0     H60861   9.372   7.331   2.171 -0.5576 -2.1616  0.4593
  451MOL0     H60862   9.261   7.427   2.286 -1.4150  0.2004  0.8871
  451MOL0     H60863   9.251   7.522   2.056  1.9516 -1.1981  0.0633
  451MOL0     H60864   9.236   7.365   1.993  0.5693  2.9122 -2.2851
  451MOL0     H60865  10.058   7.101   2.509  2.2103 -0.4307  1.2934
  451MOL0     H60866  10.285   6.968   2.525  1.5447 -1.4098 -4.4776
  451MOL0     H60867  10.612   6.709   2.260  0.1523 -1.6297 -1.2534
  451MOL0     H60868  10.773   6.516   2.233  0.8922 -0.0857  1.1025
  451MOL0     H60869  11.184   6.018   1.883 -2.9649 -1.6602 -1.8564
  451MOL0     H60870  11.051   6.174   2.011 -0.1606 -2.5690 -1.3598
  451MOL0     H60871  10.711   6.534   1.830  1.4286 -1.8985  1.0358
  451MOL0     H60872  10.554   6.719   1.859  0.8549 -0.6698 -1.7170
  451MOL0     H60873  10.678   7.074   2.122  0.8105 -0.3224  0.9669
  451MOL0     H60874  10.517   7.100   2.067  1.9891 -0.5381  1.9232
  451MOL0     H60875  10.751   7.095   1.884 -1.2169 -0.8790  0.6004
  451MOL0     H60876  10.692   7.245   1.951 -1.3972  1.9505 -3.0818
  451MOL0     H60877  10.547   7.088   1.741 -0.7220 -0.6003  1.5652
  451MOL0     H60878  10.613   7.249   1.733  0.3773  0.3492 -1.2331
  451MOL0     H60879  10.378   7.285   1.770 -0.7323 -0.1494  0.2640
  451MOL0     H60880  10.375   7.134   1.871  0.6549 -0.3773 -0.9106
  451MOL0     H60881  10.377   7.491   2.119 -1.6735  1.0161 -1.9429
  451MOL0     H60882  10.821   6.911   2.126  2.1586  0.5864 -1.4429
  451MOL0     H60883  11.112   6.786   2.019  1.3032 -0.5645  1.0428
  451MOL0     H60884  11.025   6.870   2.137 -3.3824 -0.1596 -1.2687
  451MOL0     H60885  11.072   6.699   2.163  3.4311 -1.2571 -2.6604
  452MOL0     O60886   2.215   4.860   7.870 -0.1288  0.1408 -0.5331
  452MOL0     C60887   2.233   4.824   7.989 -0.2330  0.1663  0.2592
  452MOL0     O60888   2.255   4.691   8.037 -0.0546 -0.4762  0.5931
  452MOL0     C60889   2.252   4.589   7.944 -0.9470 -0.0961 -0.5908
  452MOL0     C60890   2.334   4.488   7.977  0.3670  0.1421  0.3158
  452MOL0     C60891   2.352   4.380   7.883  0.0534  0.2774 -0.0805
  452MOL0     C60892   2.272   4.377   7.766 -0.6408 -0.4497  0.3577
  452MOL0     O60893   2.276   4.269   7.683 -0.2175 -0.3526  0.3512
  452MOL0     C60894   2.291   4.301   7.547  0.1558 -0.0019  0.2284
  452MOL0     C60895   2.404   4.216   7.491 -1.7346 -0.4341 -0.3748
  452MOL0     C60896   2.548   4.248   7.542 -0.1174  0.0554  0.1918
  452MOL0     C60897   2.583   4.169   7.669 -0.0749 -0.0591  0.2228
  452MOL0     C60898   2.722   4.209   7.722  0.1123  0.2867  0.0663
  452MOL0     C60899   2.778   4.108   7.821  1.7221  0.3519  0.2727
  452MOL0     C60900   2.904   4.150   7.881 -0.3147  0.6450 -0.1015
  452MOL0     C60901   2.906   4.280   7.961 -0.7381  0.3031 -0.1097
  452MOL0     N60902   2.808   4.298   8.074 -0.7403  0.1737  0.4976
  452MOL0     C60903   2.844   4.294   8.200 -0.4022 -0.9856  0.1025
  452MOL0     C60904   2.741   4.333   8.273  0.5468 -0.1652 -0.8261
  452MOL0     C60905   2.738   4.340   8.426 -0.3881 -0.1353  0.2712
  452MOL0     C60906   2.595   4.321   8.492 -0.6112  0.7508  0.5341
  452MOL0     C60907   2.617   4.332   8.639  0.3339  0.6547  0.7763
  452MOL0     C60908   2.577   4.477   8.686  0.2263 -0.7197  0.4869
  452MOL0     O60909   2.587   4.480   8.828 -0.6095  0.5784  0.0605
  452MOL0     C60910   2.714   4.510   8.881  1.0204 -0.2155 -0.5462
  452MOL0     C60911   2.721   4.521   9.024 -0.1642  0.7589  0.2558
  452MOL0     C60912   2.836   4.542   9.101 -0.0945  0.5656 -0.1880
  452MOL0     C60913   2.946   4.583   9.033  0.3879 -0.1244  0.5697
  452MOL0     C60914   3.063   4.649   9.097  0.0098 -0.3908 -0.6490
  452MOL0     O60915   3.069   4.621   9.237  0.3675  0.4543  1.0253
  452MOL0     C60916   3.159   4.694   9.315 -0.2968 -0.0002 -0.0095
  452MOL0     C60917   3.257   4.789   9.286 -0.4629  0.7736 -0.7284
  452MOL0     C60918   3.353   4.833   9.382  0.6861 -0.2382  0.3118
  452MOL0     C60919   3.334   4.798   9.521  1.2117  0.4294  1.1412
  452MOL0     O60920   3.404   4.840   9.624 -0.0832 -0.1839 -0.1019
  452MOL0     C60921   3.534   4.890   9.612 -0.0671 -0.1852  0.3295
  452MOL0     C60922   3.574   4.923   9.757  0.3258 -0.0809 -0.4194
  452MOL0     C60923   3.711   4.984   9.797  1.1129 -1.1351 -0.1753
  452MOL0     C60924   3.733   4.982   9.952  1.2784  0.4979  0.9656
  452MOL0     C60925   3.877   5.030   9.978 -0.6460 -0.5398 -1.0745
  452MOL0     C60926   3.908   5.010  10.123 -0.2130 -0.8924 -0.5788
  452MOL0     C60927   4.034   5.067  10.168 -0.2059  1.3797 -0.5162
  452MOL0     C60928   4.043   5.071  10.307  0.0419 -0.6188 -0.6413
  452MOL0    Cl60929   4.216   5.110  10.348 -0.1643 -0.3158  0.4124
  452MOL0     C60930   3.221   4.721   9.548  0.6262 -0.0924 -0.4949
  452MOL0     C60931   3.143   4.668   9.450 -0.0786 -0.3064  0.2315
  452MOL0     O60932   3.136   4.718   9.031 -0.9858 -1.0008  0.2023
  452MOL0     C60933   2.952   4.580   8.885 -0.5093  0.4199 -0.3828
  452MOL0     C60934   2.835   4.544   8.818 -0.0250  0.0531  1.0756
  452MOL0     N60935   2.634   4.357   8.193 -0.6612 -0.3853  0.1623
  452MOL0     N60936   2.674   4.323   8.070 -0.3272 -0.4427 -0.3199
  452MOL0     C60937   2.173   4.478   7.744  0.5028 -1.0507 -0.4571
  452MOL0     C60938   2.172   4.584   7.837 -0.3363  0.6301  0.3141
  452MOL0     C60939   2.215   4.930   8.097  1.3357  0.7386  0.9063
  452MOL0     C60940   2.209   4.882   8.228 -0.1239 -0.4131 -0.2612
  452MOL0     C60941   2.179   4.967   8.327  0.3420 -0.3442 -0.1791
  452MOL0     C60942   2.145   5.095   8.304  0.2138 -0.0731 -0.3870
  452MOL0     O60943   2.074   5.160   8.404 -0.2816 -0.7695 -0.1795
  452MOL0     C60944   1.985   5.260   8.375 -0.2500  0.5205  0.9317
  452MOL0     C60945   1.930   5.341   8.490 -0.3378  0.1130  0.8061
  452MOL0     C60946   2.039   5.416   8.561 -0.7761  0.1260 -0.0647
  452MOL0     C60947   1.993   5.491   8.691 -0.0684  0.2155 -0.2901
  452MOL0     C60948   2.097   5.568   8.758 -0.5212  0.1224  0.3887
  452MOL0     C60949   2.196   5.623   8.813 -0.2444  0.2355 -0.2055
  452MOL0     C60950   2.153   5.146   8.177 -0.2186  0.6521  0.6580
  452MOL0     C60951   2.189   5.063   8.067 -1.5718 -0.8436 -0.4018
  452MOL0     C60952   2.204   5.141   7.928 -0.1163 -0.1927 -0.0228
  452MOL0     H60953   2.393   4.476   8.068 -0.1030 -1.7854  0.4064
  452MOL0     H60954   2.420   4.296   7.897 -1.8132 -1.4945 -1.1701
  452MOL0     H60955   2.202   4.269   7.492  0.5705 -0.4304 -0.2139
  452MOL0     H60956   2.302   4.409   7.535  0.4389 -0.1416 -0.8779
  452MOL0     H60957   2.409   4.226   7.382  1.0040  2.6052 -0.0970
  452MOL0     H60958   2.395   4.108   7.510  0.1435 -0.5137  0.2313
  452MOL0     H60959   2.568   4.355   7.557  3.3414 -0.6978  1.8695
  452MOL0     H60960   2.625   4.231   7.467  0.9716  3.9498  0.2069
  452MOL0     H60961   2.505   4.176   7.746 -1.1653 -4.5340 -0.2140
  452MOL0     H60962   2.575   4.061   7.652 -0.1337 -0.1625  0.8830
  452MOL0     H60963   2.786   4.227   7.636  0.6378 -1.3153  0.0929
  452MOL0     H60964   2.704   4.306   7.769 -1.1308 -0.3421  0.9571
  452MOL0     H60965   2.703   4.092   7.899  1.4818 -0.4869 -0.1168
  452MOL0     H60966   2.775   4.013   7.767 -1.3053  1.2164 -1.3250
  452MOL0     H60967   2.966   4.169   7.793 -3.1846  1.2452 -2.1066
  452MOL0     H60968   2.941   4.066   7.940  3.9926  2.2040 -0.1522
  452MOL0     H60969   3.008   4.294   7.996 -1.0040  1.1501  0.3358
  452MOL0     H60970   2.882   4.356   7.886  0.6025 -0.8513 -1.7987
  452MOL0     H60971   2.945   4.279   8.237  0.5562  1.2176 -1.4191
  452MOL0     H60972   2.821   4.273   8.449  0.7967 -1.0756 -5.2076
  452MOL0     H60973   2.769   4.444   8.438 -2.7850  0.9619 -1.9438
  452MOL0     H60974   2.526   4.389   8.441 -1.7377 -1.4180 -1.0005
  452MOL0     H60975   2.570   4.216   8.476 -2.1177  0.8097  2.1448
  452MOL0     H60976   2.718   4.298   8.663 -0.1428  0.9157  3.4323
  452MOL0     H60977   2.550   4.269   8.698  1.3545 -0.5368  0.7186
  452MOL0     H60978   2.472   4.500   8.666  0.6887  0.9847 -0.2138
  452MOL0     H60979   2.628   4.557   8.631 -2.4243  1.1201  0.5165
  452MOL0     H60980   2.632   4.506   9.084 -0.7030  0.8640 -0.4947
  452MOL0     H60981   2.817   4.558   9.207 -4.8570 -1.0643 -0.5585
  452MOL0     H60982   3.272   4.828   9.186  0.5688  1.1948 -0.4201
  452MOL0     H60983   3.438   4.895   9.352 -0.1842  1.0805  0.4732
  452MOL0     H60984   3.603   4.810   9.584 -1.2489 -1.3525  0.6048
  452MOL0     H60985   3.534   4.978   9.548  2.8202 -1.3477 -1.4744
  452MOL0     H60986   3.497   4.991   9.796 -0.9230 -2.3768  1.3600
  452MOL0     H60987   3.562   4.832   9.816 -2.2612  1.0988  1.0680
  452MOL0     H60988   3.789   4.925   9.750  2.0039 -0.5537  0.5444
  452MOL0     H60989   3.719   5.086   9.759  1.8347  0.7399  4.3491
  452MOL0     H60990   3.722   4.878   9.982  0.1155  0.4388  0.3943
  452MOL0     H60991   3.662   5.037  10.015  1.3672 -0.4362  1.9102
  452MOL0     H60992   3.885   5.136   9.952 -0.9224 -0.2264  0.0874
  452MOL0     H60993   3.940   4.958   9.924 -0.9826 -1.8135  0.1708
  452MOL0     H60994   3.827   5.042  10.188  1.3044 -0.0913  0.9826
  452MOL0     H60995   3.908   4.901  10.137 -0.7354 -0.9851 -1.2361
  452MOL0     H60996   4.041   5.165  10.120 -2.0741  0.1363 -3.6691
  452MOL0     H60997   4.111   5.004  10.124  0.0779  1.2906  0.0942
  452MOL0     H60998   3.993   5.154  10.358  2.5918 -0.8780  2.6017
  452MOL0     H60999   4.007   4.982  10.360  0.7749 -1.2679 -1.2079
  452MOL0     H61000   3.204   4.693   9.651 -1.5554  1.5161 -0.3533
  452MOL0     H61001   3.067   4.592   9.461 -1.2000  0.4562 -1.6957
  452MOL0     H61002   3.042   4.602   8.829  0.4438 -5.4274 -1.8365
  452MOL0     H61003   2.843   4.540   8.710 -2.0917  1.6108  0.7976
  452MOL0     H61004   2.104   4.483   7.661 -1.2140 -1.6585  0.8687
  452MOL0     H61005   2.100   4.664   7.824  1.5022  2.2034 -0.8966
  452MOL0     H61006   2.237   4.782   8.259  2.5341 -0.3108 -1.9949
  452MOL0     H61007   2.172   4.919   8.425  1.4803 -0.6931 -0.2561
  452MOL0     H61008   1.901   5.204   8.332  2.0424 -0.4484 -2.7640
  452MOL0     H61009   2.024   5.341   8.313  0.4914 -0.8876 -0.5023
  452MOL0     H61010   1.888   5.257   8.547 -4.8096 -0.6255 -2.9925
  452MOL0     H61011   1.834   5.387   8.465 -0.8582 -0.8386  0.9854
  452MOL0     H61012   2.071   5.489   8.485 -6.7637  0.9457 -2.3788
  452MOL0     H61013   2.122   5.358   8.601 -0.7159 -0.2024 -0.6470
  452MOL0     H61014   1.915   5.565   8.670  2.4128  2.8893 -0.8386
  452MOL0     H61015   1.937   5.424   8.757  0.5573 -0.2970 -0.2690
  452MOL0     H61016   2.283   5.671   8.855 -0.2616  2.3815 -2.4081
  452MOL0     H61017   2.128   5.246   8.140 -1.7792 -1.1456 -3.9403
  452MOL0     H61018   2.203   5.249   7.945  1.9415  0.3669 -2.7279
  452MOL0     H61019   2.302   5.109   7.892 -1.4391 -1.5110 -2.6962
  452MOL0     H61020   2.143   5.106   7.845  1.4971  2.6781 -2.6497
  453MOL0     O61021   1.544   2.287   9.916 -0.2644 -0.2015  0.1442
  453MOL0     C61022   1.608   2.395   9.922 -0.1783 -0.6418  0.1588
  453MOL0     O61023   1.662   2.447  10.039  0.2738 -0.5441 -0.0193
  453MOL0     C61024   1.671   2.385  10.161 -0.4293  0.2862  1.1274
  453MOL0     C61025   1.786   2.410  10.230 -0.1524 -0.2586 -0.9710
  453MOL0     C61026   1.807   2.351  10.361  0.0179  0.1710  0.3061
  453MOL0     C61027   1.721   2.259  10.412 -1.0766  0.4520  0.2382
  453MOL0     O61028   1.741   2.180  10.525 -0.7299  0.8273  0.1660
  453MOL0     C61029   1.831   2.230  10.630  0.7870 -0.5126 -0.3041
  453MOL0     C61030   1.801   2.159  10.761 -1.1109  0.9065  0.9984
  453MOL0     C61031   1.855   2.012  10.768  0.7308  0.7791  0.7529
  453MOL0     C61032   1.849   1.940  10.909 -0.4035  0.5579  0.6294
  453MOL0     C61033   1.878   1.791  10.883 -0.1309 -0.5167  0.9906
  453MOL0     C61034   1.782   1.685  10.831  0.1894  0.1028 -0.7201
  453MOL0     C61035   1.637   1.711  10.880  0.4054  0.0034  0.3239
  453MOL0     C61036   1.545   1.590  10.865 -0.3486 -0.0666  0.2210
  453MOL0     N61037   1.439   1.592  10.956 -0.3420 -0.1322  0.6142
  453MOL0     C61038   1.316   1.603  10.904  0.7377 -0.2815  0.4976
  453MOL0     C61039   1.236   1.572  11.011 -0.5911 -0.3953 -0.0482
  453MOL0     C61040   1.088   1.556  11.031  0.0242 -0.8998 -0.5728
  453MOL0     C61041   1.010   1.679  10.982 -1.3682 -0.6067 -0.4227
  453MOL0     C61042   0.877   1.704  11.062 -0.3731  0.1630  0.3908
  453MOL0     C61043   0.795   1.806  10.983  0.1342  0.1947 -0.3979
  453MOL0     O61044   0.677   1.833  11.047 -0.1572  0.2404 -0.2933
  453MOL0     C61045   0.586   1.925  11.002 -0.7157 -1.1609 -0.2311
  453MOL0     C61046   0.474   1.964  11.085  0.2465 -0.4093  1.0364
  453MOL0     C61047   0.373   2.051  11.034 -0.8785 -0.5760  0.0239
  453MOL0     C61048   0.384   2.109  10.906 -0.0805 -1.1309  0.6466
  453MOL0     C61049   0.276   2.201  10.858 -0.0469  0.4573 -0.5165
  453MOL0     O61050   0.299   2.239  10.730  0.2238  0.5558 -0.0722
  453MOL0     C61051   0.209   2.318  10.664  0.9454 -0.0864  0.3536
  453MOL0     C61052   0.067   2.294  10.669 -0.0608 -0.4663 -0.1722
  453MOL0     C61053  -0.021   2.368  10.583 -0.0563 -0.2142 -0.2752
  453MOL0     C61054   0.039   2.459  10.493 -0.5265  0.1807 -0.1190
  453MOL0     O61055  -0.036   2.542  10.417 -0.5769  0.1440 -0.1305
  453MOL0     C61056  -0.178   2.548  10.440 -0.0441  0.3798 -0.3546
  453MOL0     C61057  -0.231   2.658  10.347 -0.7531  0.9215 -0.1757
  453MOL0     C61058  -0.372   2.712  10.386  0.5600 -0.2537 -0.1010
  453MOL0     C61059  -0.493   2.627  10.342 -1.1703  1.4594 -1.0750
  453MOL0     C61060  -0.624   2.686  10.383 -0.1094 -0.1251  0.0390
  453MOL0     C61061  -0.659   2.807  10.291 -0.3017  0.9634 -0.6683
  453MOL0     C61062  -0.791   2.873  10.317 -0.9123  0.2800 -0.2275
  453MOL0     C61063  -0.789   2.957  10.447 -0.7237  0.5997  0.7193
  453MOL0    Cl61064  -0.924   3.082  10.452  0.2304  0.2760 -0.1996
  453MOL0     C61065   0.177   2.468  10.481  0.6259  0.4579  0.2027
  453MOL0     C61066   0.262   2.406  10.575 -0.5546 -0.5448 -0.4238
  453MOL0     O61067   0.177   2.225  10.933 -0.2399  0.1277 -0.3610
  453MOL0     C61068   0.501   2.092  10.829  0.2355 -0.4493 -1.0811
  453MOL0     C61069   0.599   1.998  10.881  0.1084  0.3626  0.3220
  453MOL0     N61070   1.316   1.561  11.118 -0.7203 -0.3736  0.0367
  453MOL0     N61071   1.439   1.561  11.085  0.1770  0.5330  0.5492
  453MOL0     C61072   1.611   2.220  10.334 -0.5751 -0.0993 -0.5474
  453MOL0     C61073   1.577   2.292  10.215 -0.7110 -0.6050  0.4767
  453MOL0     C61074   1.625   2.467   9.796  0.5171 -0.7186 -0.0597
  453MOL0     C61075   1.607   2.610   9.798  0.1659  1.0375  0.4387
  453MOL0     C61076   1.621   2.689   9.682 -0.7891 -0.8284 -0.4176
  453MOL0     C61077   1.646   2.632   9.561 -0.5781 -0.1762 -1.0663
  453MOL0     O61078   1.664   2.702   9.439  0.4204 -0.6147  0.4040
  453MOL0     C61079   1.638   2.851   9.440  0.5595  0.7470 -0.1439
  453MOL0     C61080   1.734   2.921   9.334  0.3215  0.2513  0.0928
  453MOL0     C61081   1.710   3.067   9.327  0.7240 -0.3603 -0.8687
  453MOL0     C61082   1.587   3.092   9.241 -0.2145 -0.5408 -0.9866
  453MOL0     C61083   1.575   3.225   9.188 -0.6340  0.2839  0.7324
  453MOL0     C61084   1.566   3.335   9.136 -0.2857 -0.2846  0.8742
  453MOL0     C61085   1.668   2.494   9.562  0.6481  0.7264 -1.0952
  453MOL0     C61086   1.656   2.411   9.673 -0.5880 -0.1637  0.3874
  453MOL0     C61087   1.659   2.267   9.649  0.1250  0.1002  0.4652
  453MOL0     H61088   1.859   2.475  10.182  0.8314 -0.6242 -0.0074
  453MOL0     H61089   1.900   2.360  10.418 -0.2670 -1.9292  1.1972
  453MOL0     H61090   1.938   2.230  10.608  0.6085 -3.3694 -1.5625
  453MOL0     H61091   1.804   2.335  10.644 -1.8227 -0.9109 -1.6656
  453MOL0     H61092   1.693   2.148  10.777 -1.2811  0.3175 -0.4196
  453MOL0     H61093   1.846   2.218  10.841  0.0316  0.1272  0.9482
  453MOL0     H61094   1.961   2.018  10.744  1.1590 -1.6252  1.7868
  453MOL0     H61095   1.798   1.948  10.700  0.2049 -0.7159  2.5102
  453MOL0     H61096   1.929   1.975  10.974  0.5258  1.1751 -0.7791
  453MOL0     H61097   1.757   1.972  10.958  0.2918  2.5613  0.7462
  453MOL0     H61098   1.971   1.803  10.827  2.6322  2.9532  5.6169
  453MOL0     H61099   1.917   1.761  10.981  2.9151  2.5107  0.8755
  453MOL0     H61100   1.774   1.692  10.722 -0.6423 -1.8426 -0.8200
  453MOL0     H61101   1.820   1.584  10.851 -0.0098  0.3280  0.9166
  453MOL0     H61102   1.591   1.798  10.832  1.7030  0.1421 -0.7527
  453MOL0     H61103   1.664   1.731  10.984  0.1724  1.6821  0.0849
  453MOL0     H61104   1.517   1.574  10.761 -0.5749 -0.8638  0.3946
  453MOL0     H61105   1.603   1.506  10.904  0.0176  0.2825  0.4342
  453MOL0     H61106   1.280   1.621  10.803 -0.0474 -4.6479 -0.1888
  453MOL0     H61107   1.056   1.475  10.965 -1.0588 -3.0226  2.3204
  453MOL0     H61108   1.055   1.522  11.130 -0.7487  1.6487  0.1334
  453MOL0     H61109   1.075   1.766  10.987 -0.4717 -1.2786 -0.0604
  453MOL0     H61110   0.982   1.667  10.877 -1.8418  2.6140 -0.7499
  453MOL0     H61111   0.911   1.750  11.156  0.4064  0.9230 -0.2414
  453MOL0     H61112   0.835   1.605  11.082  0.5042 -0.1359  0.8126
  453MOL0     H61113   0.781   1.767  10.882  2.4862  1.1853 -1.1719
  453MOL0     H61114   0.865   1.888  10.966  1.1809 -0.7737 -0.9595
  453MOL0     H61115   0.461   1.933  11.188  1.4524 -0.0672  1.3180
  453MOL0     H61116   0.288   2.084  11.093 -2.9039 -0.7123 -2.6031
  453MOL0     H61117   0.023   2.227  10.743  1.2740 -0.6184  0.5197
  453MOL0     H61118  -0.127   2.347  10.578 -1.1414  4.3495 -1.5404
  453MOL0     H61119  -0.227   2.453  10.418  0.3029  0.4294 -1.4017
  453MOL0     H61120  -0.189   2.572  10.546  0.6851  1.1782 -0.4469
  453MOL0     H61121  -0.160   2.741  10.354 -0.0619  0.4222 -1.0663
  453MOL0     H61122  -0.234   2.613  10.248  2.2373 -0.2927  0.1670
  453MOL0     H61123  -0.375   2.723  10.495 -2.2146  3.8985 -0.3571
  453MOL0     H61124  -0.375   2.810  10.336  0.6498 -1.1093 -1.8544
  453MOL0     H61125  -0.464   2.527  10.377 -0.2439  0.8326 -3.4140
  453MOL0     H61126  -0.489   2.619  10.233 -0.9074  1.4893 -1.0681
  453MOL0     H61127  -0.629   2.702  10.491 -0.5194 -0.8684  0.1341
  453MOL0     H61128  -0.697   2.609  10.358 -0.5887  0.2965  0.1053
  453MOL0     H61129  -0.579   2.882  10.292  0.9516 -0.3097  0.9903
  453MOL0     H61130  -0.659   2.779  10.185  0.9536  1.4778 -0.8224
  453MOL0     H61131  -0.872   2.799  10.314 -0.8522  0.2465 -1.8310
  453MOL0     H61132  -0.804   2.931  10.225 -1.0216 -1.7970 -1.5936
  453MOL0     H61133  -0.784   2.901  10.541  0.9405 -0.7112 -0.0973
  453MOL0     H61134  -0.698   3.017  10.458 -1.1779  1.4676 -0.1253
  453MOL0     H61135   0.220   2.546  10.419  1.7134  0.1729  0.5633
  453MOL0     H61136   0.367   2.435  10.576 -0.6362 -0.2616  0.1375
  453MOL0     H61137   0.515   2.137  10.731  0.2097  1.1104 -0.4044
  453MOL0     H61138   0.682   1.980  10.813  0.1662  0.9022  0.2487
  453MOL0     H61139   1.535   2.152  10.372  3.8284 -4.9622  0.6987
  453MOL0     H61140   1.490   2.267  10.154  0.9931 -1.8908 -1.5611
  453MOL0     H61141   1.587   2.656   9.894  1.9157 -0.0855  1.3883
  453MOL0     H61142   1.599   2.795   9.689  0.6902 -0.2559 -3.0772
  453MOL0     H61143   1.657   2.902   9.535  0.9308  0.3993 -0.0329
  453MOL0     H61144   1.533   2.860   9.409  0.0624 -4.5467 -0.9577
  453MOL0     H61145   1.737   2.882   9.231  1.0420 -0.5515  0.4033
  453MOL0     H61146   1.838   2.909   9.365 -0.8689 -1.0602  4.1899
  453MOL0     H61147   1.796   3.104   9.271  1.1067  0.1546  0.0391
  453MOL0     H61148   1.712   3.110   9.428  0.4996 -4.3626  1.0537
  453MOL0     H61149   1.580   3.021   9.158 -1.2940 -1.6345  0.0002
  453MOL0     H61150   1.496   3.077   9.299  1.9241 -1.9798  2.3274
  453MOL0     H61151   1.561   3.428   9.082 -1.9656  1.0690  3.1683
  453MOL0     H61152   1.675   2.445   9.465  2.3079  0.4663 -0.8680
  453MOL0     H61153   1.708   2.244   9.554  1.0311 -0.8180  1.1280
  453MOL0     H61154   1.722   2.221   9.726  0.3679 -2.1592 -1.0029
  453MOL0     H61155   1.556   2.231   9.638  0.7759 -1.5554 -0.6744
  454MOL0     O61156   9.994   4.295   3.103 -0.0390  0.0914 -0.0982
  454MOL0     C61157  10.054   4.203   3.056  0.2727  0.5233  0.7859
  454MOL0     O61158  10.116   4.214   2.934  0.1181 -0.0424 -0.4779
  454MOL0     C61159  10.134   4.335   2.877  1.5492 -0.3818  0.5913
  454MOL0     C61160  10.249   4.422   2.893  0.6465  0.8520 -0.2609
  454MOL0     C61161  10.254   4.553   2.831  0.1506  0.4404  0.5414
  454MOL0     C61162  10.160   4.587   2.731 -0.0957 -0.2893  0.3899
  454MOL0     O61163  10.177   4.714   2.681 -0.0023 -0.2814 -0.4711
  454MOL0     C61164  10.083   4.766   2.589 -0.0172 -0.1170 -0.8471
  454MOL0     C61165  10.103   4.918   2.553  0.4478  0.2364 -0.7004
  454MOL0     C61166   9.973   4.997   2.540  0.3823 -0.5371  0.0841
  454MOL0     C61167   9.884   4.972   2.416  0.4412 -0.0594 -0.0106
  454MOL0     C61168   9.890   5.072   2.299 -0.0176 -0.4784 -0.0688
  454MOL0     C61169  10.029   5.085   2.241  0.1588  1.0958  0.2763
  454MOL0     C61170  10.068   5.219   2.177  1.5343  1.3964  0.4259
  454MOL0     C61171   9.962   5.278   2.078 -0.3800 -0.2389 -0.0987
  454MOL0     N61172  10.003   5.409   2.027  0.3243 -0.7300  0.7496
  454MOL0     C61173  10.022   5.525   2.097  0.5058 -0.3600 -0.2633
  454MOL0     C61174  10.062   5.614   2.007 -0.7880  0.6132  0.4286
  454MOL0     C61175  10.100   5.756   2.037  0.6515 -0.0314 -0.1943
  454MOL0     C61176  10.204   5.786   2.155  0.4551 -0.8065  0.8333
  454MOL0     C61177  10.340   5.743   2.105  0.5394 -0.0166 -0.4558
  454MOL0     C61178  10.443   5.739   2.211 -0.5421 -1.7337 -1.0013
  454MOL0     O61179  10.532   5.629   2.208  0.1803 -0.2858  0.1253
  454MOL0     C61180  10.524   5.557   2.319 -1.0721 -0.2660 -0.2211
  454MOL0     C61181  10.412   5.474   2.341 -0.0514  0.0196  0.0965
  454MOL0     C61182  10.402   5.380   2.451 -0.0740  0.0501  0.0100
  454MOL0     C61183  10.507   5.377   2.546 -0.2460 -0.1709  0.1088
  454MOL0     C61184  10.488   5.307   2.663 -0.6950 -0.2236  0.2543
  454MOL0     O61185  10.357   5.293   2.704  0.3488  0.8224  0.0400
  454MOL0     C61186  10.334   5.227   2.821 -0.3426 -1.3033 -0.5475
  454MOL0     C61187  10.346   5.089   2.839 -0.5915  0.4749 -0.3898
  454MOL0     C61188  10.322   5.029   2.958  0.9825 -1.1292  0.4438
  454MOL0     C61189  10.293   5.104   3.083 -0.1774  0.4860 -0.1428
  454MOL0     O61190  10.264   5.038   3.203  0.2449 -0.1457 -0.2711
  454MOL0     C61191  10.279   5.118   3.322  0.3644 -0.1803  0.2662
  454MOL0     C61192  10.268   5.026   3.438  1.1502  0.1094  0.3564
  454MOL0     C61193  10.299   5.120   3.561 -0.3611  0.5688  0.4973
  454MOL0     C61194  10.231   5.073   3.690 -1.0524  0.9353 -0.0520
  454MOL0     C61195  10.189   5.176   3.793  0.4022  0.1409  0.2986
  454MOL0     C61196  10.315   5.247   3.844  0.5466 -0.3431 -0.5785
  454MOL0     C61197  10.437   5.164   3.905  0.2292  1.2637 -0.7091
  454MOL0     C61198  10.565   5.157   3.834 -0.6224 -0.0142  1.5797
  454MOL0    Cl61199  10.668   5.038   3.929  0.4727  0.4336 -0.1176
  454MOL0     C61200  10.290   5.245   3.072  0.1078 -0.2650 -0.2523
  454MOL0     C61201  10.308   5.299   2.943 -0.1000 -0.0455 -0.0935
  454MOL0     O61202  10.588   5.265   2.714 -0.6078  0.0641  0.2481
  454MOL0     C61203  10.626   5.459   2.523  0.5745  0.7254 -0.0719
  454MOL0     C61204  10.631   5.543   2.406 -0.2826 -0.6655 -0.7918
  454MOL0     N61205  10.066   5.549   1.884 -0.0653 -0.6308  0.2829
  454MOL0     N61206  10.034   5.427   1.892  0.4281 -0.3755  0.1256
  454MOL0     C61207  10.054   4.496   2.704  0.3237 -0.2105 -0.3160
  454MOL0     C61208  10.041   4.377   2.782 -0.1647 -0.1675  0.4444
  454MOL0     C61209  10.046   4.074   3.124  0.1288  0.0123  1.3930
  454MOL0     C61210   9.959   4.070   3.239  0.1134 -0.4817 -0.8883
  454MOL0     C61211   9.949   3.950   3.308 -0.8278  0.6518  0.3986
  454MOL0     C61212   9.997   3.830   3.255 -0.2466 -0.3216 -0.7356
  454MOL0     O61213   9.971   3.714   3.331 -0.4551 -1.0703  0.2395
  454MOL0     C61214   9.831   3.670   3.330 -0.2448 -0.5033  0.1720
  454MOL0     C61215   9.745   3.677   3.200 -0.7493 -0.3570 -0.3133
  454MOL0     C61216   9.771   3.578   3.093  0.1434 -0.8724 -0.8137
  454MOL0     C61217   9.720   3.637   2.955  0.8133 -0.0124  0.3227
  454MOL0     C61218   9.569   3.639   2.939 -0.5027  0.0696  0.5129
  454MOL0     C61219   9.448   3.630   2.924 -0.0534 -0.6172 -0.7723
  454MOL0     C61220  10.059   3.835   3.130 -0.4886  0.4123  0.3940
  454MOL0     C61221  10.087   3.949   3.067 -0.3978 -0.1657  1.0479
  454MOL0     C61222  10.166   3.938   2.938 -0.4576  0.3848 -0.6901
  454MOL0     H61223  10.341   4.418   2.949  0.9040  1.3513 -0.6333
  454MOL0     H61224  10.336   4.620   2.854  0.4879  0.5674 -0.9555
  454MOL0     H61225  10.076   4.700   2.503 -2.2475 -3.4177  1.6237
  454MOL0     H61226   9.986   4.762   2.640 -0.9543 -2.5015 -2.6467
  454MOL0     H61227  10.165   4.916   2.463  4.6660 -1.2548  1.9441
  454MOL0     H61228  10.170   4.974   2.619 -0.4809  1.1543 -0.4985
  454MOL0     H61229  10.005   5.101   2.545  2.3069 -1.0392  5.4181
  454MOL0     H61230   9.914   4.981   2.631 -0.8164 -1.3292 -0.8036
  454MOL0     H61231   9.909   4.871   2.383  1.5342  0.5495 -1.1174
  454MOL0     H61232   9.778   4.966   2.444  0.4497  1.0866  0.3083
  454MOL0     H61233   9.824   5.044   2.216  1.7697  2.0030 -2.5373
  454MOL0     H61234   9.862   5.170   2.339 -0.0947  0.2162 -1.7375
  454MOL0     H61235  10.108   5.084   2.317 -0.9416  0.0745  1.4826
  454MOL0     H61236  10.045   4.994   2.182 -2.2771  1.8723 -1.7654
  454MOL0     H61237  10.167   5.209   2.131  1.9728 -1.4398  1.7511
  454MOL0     H61238  10.079   5.285   2.263  1.3138  1.5861  0.3093
  454MOL0     H61239   9.941   5.211   1.994 -1.2178  1.7947 -1.5900
  454MOL0     H61240   9.863   5.284   2.124 -1.1573 -0.1008 -1.6955
  454MOL0     H61241  10.021   5.548   2.203 -0.0546  0.5445 -0.4463
  454MOL0     H61242  10.132   5.804   1.944 -0.5293 -1.1825 -1.2351
  454MOL0     H61243  10.001   5.800   2.050  0.0417 -1.0991 -1.0645
  454MOL0     H61244  10.184   5.892   2.173 -0.9288 -1.2519  2.1200
  454MOL0     H61245  10.167   5.745   2.249 -2.2622  2.0950  1.1923
  454MOL0     H61246  10.378   5.804   2.022  2.5862 -0.3172  0.1876
  454MOL0     H61247  10.334   5.645   2.057  0.9914  0.3115 -1.2084
  454MOL0     H61248  10.396   5.734   2.310  3.6903 -2.2541  1.2249
  454MOL0     H61249  10.497   5.834   2.215  0.0161 -1.8398 -3.8050
  454MOL0     H61250  10.329   5.470   2.271  2.4078  0.2739 -3.0567
  454MOL0     H61251  10.300   5.343   2.465 -1.1105  1.6030 -2.7228
  454MOL0     H61252  10.374   5.014   2.765  2.9870 -0.6365  1.8298
  454MOL0     H61253  10.342   4.923   2.970  0.9473 -1.3828 -1.3550
  454MOL0     H61254  10.377   5.164   3.311 -0.2369  1.2758  0.6845
  454MOL0     H61255  10.202   5.196   3.325  0.7490  0.1731  1.8550
  454MOL0     H61256  10.166   4.988   3.450  0.6596 -0.0559 -3.3792
  454MOL0     H61257  10.337   4.941   3.440  0.6116 -0.4488 -2.0949
  454MOL0     H61258  10.403   5.143   3.587  0.9302  0.2784 -3.5771
  454MOL0     H61259  10.266   5.221   3.534  0.5285  1.0997  1.3552
  454MOL0     H61260  10.283   4.992   3.741  1.0711  1.0980 -1.8285
  454MOL0     H61261  10.132   5.037   3.659 -1.0191  1.4448 -0.7694
  454MOL0     H61262  10.136   5.131   3.877  2.7564 -0.3029  1.6386
  454MOL0     H61263  10.129   5.264   3.769  1.9682  1.1383 -0.0583
  454MOL0     H61264  10.350   5.312   3.763 -0.1475 -0.1120 -0.7028
  454MOL0     H61265  10.280   5.310   3.926 -0.4581 -1.3712 -0.2008
  454MOL0     H61266  10.399   5.062   3.914 -0.3981  1.5772  0.4843
  454MOL0     H61267  10.445   5.204   4.006  2.5632  1.3130 -0.8771
  454MOL0     H61268  10.551   5.122   3.731 -1.8273  0.1717  1.6647
  454MOL0     H61269  10.626   5.248   3.832  3.3878 -2.4477 -0.0080
  454MOL0     H61270  10.264   5.323   3.143 -0.8359  1.1054 -2.0033
  454MOL0     H61271  10.306   5.407   2.929 -1.9483  0.3870  2.6782
  454MOL0     H61272  10.711   5.455   2.590  0.9413  1.1639 -0.5054
  454MOL0     H61273  10.711   5.613   2.388  0.2503 -1.5647 -2.0427
  454MOL0     H61274   9.981   4.514   2.625 -2.5665 -2.2646  1.6645
  454MOL0     H61275   9.953   4.314   2.786  0.1175 -0.5020  1.9208
  454MOL0     H61276   9.912   4.159   3.280  1.6424  0.1319 -0.4194
  454MOL0     H61277   9.882   3.944   3.393 -1.5175 -0.4466 -0.2067
  454MOL0     H61278   9.778   3.743   3.392 -1.3099 -1.2045  0.1060
  454MOL0     H61279   9.818   3.568   3.366 -1.3860 -0.8136 -1.0721
  454MOL0     H61280   9.753   3.780   3.165  2.9408 -0.1462  0.7155
  454MOL0     H61281   9.650   3.655   3.249  1.0774 -1.9334  2.8716
  454MOL0     H61282   9.719   3.486   3.120  1.2801 -1.2003  0.3645
  454MOL0     H61283   9.875   3.561   3.065  0.3083 -1.8339  0.3036
  454MOL0     H61284   9.759   3.735   2.923 -0.6859  0.1193 -1.2419
  454MOL0     H61285   9.740   3.572   2.869 -2.6891  2.9773 -3.1869
  454MOL0     H61286   9.346   3.618   2.895  0.2533 -3.4409 -0.9174
  454MOL0     H61287  10.083   3.732   3.107 -2.3166 -1.3189  4.9582
  454MOL0     H61288  10.121   3.990   2.853  1.3965  0.5531 -1.6284
  454MOL0     H61289  10.263   3.988   2.950  0.6631 -1.7902 -0.2051
  454MOL0     H61290  10.178   3.834   2.905 -0.8763 -0.0845  0.6047
  455MOL0     O61291   6.966   0.232   9.712 -0.1673 -0.1410 -0.3880
  455MOL0     C61292   6.855   0.254   9.755  0.8779 -0.1372 -0.6950
  455MOL0     O61293   6.774   0.180   9.841  0.1328 -0.1017  0.3916
  455MOL0     C61294   6.830   0.071   9.896  0.4395 -0.6993  0.4859
  455MOL0     C61295   6.955   0.074   9.962 -0.0737 -0.3555  0.0901
  455MOL0     C61296   7.005  -0.043  10.006  0.3190  0.0690  0.7201
  455MOL0     C61297   6.936  -0.168   9.991  0.4914 -0.7079 -0.3296
  455MOL0     O61298   6.995  -0.280  10.037  0.3033  0.4987 -0.2756
  455MOL0     C61299   6.913  -0.396  10.075  0.5599  0.0087 -0.1120
  455MOL0     C61300   7.001  -0.504  10.149  0.4489  0.2382  0.0903
  455MOL0     C61301   6.995  -0.486  10.296 -0.2358  0.3743  0.2506
  455MOL0     C61302   7.103  -0.569  10.375  1.2879  1.5163 -0.4140
  455MOL0     C61303   7.040  -0.583  10.518 -1.1960 -0.6135  0.1582
  455MOL0     C61304   7.167  -0.610  10.597  0.7714  0.8228 -0.4493
  455MOL0     C61305   7.140  -0.623  10.748  0.0749 -0.4879  0.4947
  455MOL0     C61306   7.110  -0.768  10.782 -0.2939 -0.2828  0.1425
  455MOL0     N61307   6.974  -0.814  10.747 -0.7335  0.4680  0.9371
  455MOL0     C61308   6.867  -0.737  10.769  0.1787  0.1515  0.2027
  455MOL0     C61309   6.772  -0.794  10.685  0.0386  0.0040 -0.8345
  455MOL0     C61310   6.629  -0.753  10.667  0.4772  0.3809 -0.6215
  455MOL0     C61311   6.613  -0.666  10.544 -0.2519 -0.4799 -0.0973
  455MOL0     C61312   6.650  -0.726  10.412 -0.6841 -0.3487  0.6133
  455MOL0     C61313   6.612  -0.630  10.296  0.6370  0.9800 -0.0227
  455MOL0     O61314   6.619  -0.489  10.334  0.1325  0.7606  0.4720
  455MOL0     C61315   6.542  -0.398  10.267  0.1883 -0.1774  0.4076
  455MOL0     C61316   6.483  -0.292  10.341 -0.1085  0.0453  0.1052
  455MOL0     C61317   6.417  -0.192  10.281  0.3233 -1.0594 -0.1724
  455MOL0     C61318   6.390  -0.188  10.140 -0.7466 -0.1831  0.0237
  455MOL0     C61319   6.326  -0.084  10.059 -0.0612 -0.0203  0.8211
  455MOL0     O61320   6.306   0.039  10.120  0.3134  0.9141 -0.2593
  455MOL0     C61321   6.265   0.138  10.028  0.1637  0.9812 -0.4206
  455MOL0     C61322   6.355   0.191   9.945  0.5357 -0.3924  0.1570
  455MOL0     C61323   6.309   0.294   9.864 -0.4229  0.2998 -0.7254
  455MOL0     C61324   6.183   0.346   9.858  0.5790  0.6101 -0.4820
  455MOL0     O61325   6.146   0.421   9.749 -0.0208  0.4063  0.0781
  455MOL0     C61326   6.161   0.569   9.772 -0.1596 -0.5859 -0.0060
  455MOL0     C61327   6.047   0.645   9.698 -1.0786 -1.1597 -0.6626
  455MOL0     C61328   5.941   0.686   9.800  0.5406 -0.6409 -0.7048
  455MOL0     C61329   5.844   0.791   9.732 -0.0777 -0.3767 -0.8365
  455MOL0     C61330   5.732   0.828   9.831 -0.7553 -0.4384  0.8568
  455MOL0     C61331   5.630   0.919   9.764 -0.5246 -0.1145  0.3989
  455MOL0     C61332   5.520   0.954   9.868 -0.5639 -1.3881  1.0348
  455MOL0     C61333   5.401   1.020   9.802 -0.2708  0.7005 -0.4874
  455MOL0    Cl61334   5.259   1.030   9.909  0.2510 -0.3843 -0.0777
  455MOL0     C61335   6.088   0.292   9.946 -0.3189  0.6484 -0.8622
  455MOL0     C61336   6.133   0.186  10.032  0.3808 -0.3623  0.3991
  455MOL0     O61337   6.304  -0.100   9.936  0.6693 -0.0094 -0.1557
  455MOL0     C61338   6.443  -0.302  10.067 -0.2662 -0.5784  0.0047
  455MOL0     C61339   6.521  -0.399  10.131  0.0916 -0.1332 -1.0038
  455MOL0     N61340   6.835  -0.886  10.610  0.7887 -1.0208 -0.0160
  455MOL0     N61341   6.948  -0.908  10.656 -0.1312 -0.5339  0.6615
  455MOL0     C61342   6.819  -0.169   9.918 -0.6917 -0.0470 -0.9243
  455MOL0     C61343   6.758  -0.048   9.879 -0.7853  1.3822  0.6169
  455MOL0     C61344   6.785   0.388   9.740 -0.5861  1.3502  0.3821
  455MOL0     C61345   6.852   0.509   9.758 -0.1708 -0.1513 -0.4537
  455MOL0     C61346   6.773   0.629   9.760 -0.1363  0.3973  0.1605
  455MOL0     C61347   6.645   0.625   9.725  1.6311 -1.0490 -0.2372
  455MOL0     O61348   6.546   0.731   9.740 -0.7245  0.1097  0.0490
  455MOL0     C61349   6.594   0.868   9.755 -0.6615  0.8656 -0.0927
  455MOL0     C61350   6.472   0.963   9.771  0.0351  0.2218 -0.6688
  455MOL0     C61351   6.374   0.919   9.879  0.0880  0.4375 -0.0764
  455MOL0     C61352   6.231   0.988   9.857 -0.4423 -0.9501  0.5708
  455MOL0     C61353   6.247   1.133   9.885 -0.1414  0.2071  0.2126
  455MOL0     C61354   6.259   1.249   9.894  0.3465 -0.0240  0.9942
  455MOL0     C61355   6.583   0.514   9.676 -0.0646 -0.3390 -0.3175
  455MOL0     C61356   6.653   0.387   9.680 -0.1706 -0.2764 -0.7536
  455MOL0     C61357   6.584   0.261   9.616 -0.5965 -0.6146 -1.0766
  455MOL0     H61358   7.016   0.163   9.965 -1.4527  0.6274  0.0649
  455MOL0     H61359   7.097  -0.040  10.063  0.0782 -0.1434  1.1214
  455MOL0     H61360   6.837  -0.357  10.144  1.1069 -2.3480  1.9653
  455MOL0     H61361   6.869  -0.450   9.990 -0.9572  1.6352 -0.4267
  455MOL0     H61362   7.102  -0.478  10.119  0.1963  1.9550  0.6103
  455MOL0     H61363   6.987  -0.610  10.125  0.0780  0.4426 -0.6251
  455MOL0     H61364   6.897  -0.517  10.334 -0.5445  2.5282  1.3639
  455MOL0     H61365   7.011  -0.381  10.320 -1.9471  1.0228 -1.1857
  455MOL0     H61366   7.123  -0.667  10.330  2.1477  1.2323  0.5460
  455MOL0     H61367   7.197  -0.513  10.374  2.5926 -0.4499 -3.4598
  455MOL0     H61368   6.997  -0.487  10.550  0.0396 -0.0214  0.0662
  455MOL0     H61369   6.963  -0.660  10.533 -0.3897 -0.9401  3.2295
  455MOL0     H61370   7.191  -0.712  10.564  2.9764  0.4495  1.9614
  455MOL0     H61371   7.244  -0.537  10.569  2.7700 -1.7027 -2.1084
  455MOL0     H61372   7.063  -0.555  10.785 -2.6780 -2.1267 -1.8001
  455MOL0     H61373   7.227  -0.587  10.805  0.7679  0.5885 -1.1398
  455MOL0     H61374   7.172  -0.834  10.720 -0.0409  2.6146 -3.0091
  455MOL0     H61375   7.129  -0.782  10.889 -0.7552  0.8291  0.3845
  455MOL0     H61376   6.854  -0.656  10.841 -3.4812  1.6501 -1.8794
  455MOL0     H61377   6.572  -0.845  10.651 -0.5842  0.3805  2.5058
  455MOL0     H61378   6.591  -0.701  10.755  1.7657  0.0068  0.1754
  455MOL0     H61379   6.506  -0.645  10.553  0.1469  0.7173  2.9587
  455MOL0     H61380   6.672  -0.576  10.561 -0.4374 -0.7848  2.4537
  455MOL0     H61381   6.594  -0.819  10.401  2.1396 -2.0768 -0.1054
  455MOL0     H61382   6.755  -0.753  10.411 -0.8893 -1.1954  1.0817
  455MOL0     H61383   6.511  -0.661  10.269  1.9629 -2.9139 -1.2171
  455MOL0     H61384   6.675  -0.646  10.208 -0.4246 -2.2515 -0.3411
  455MOL0     H61385   6.500  -0.279  10.447 -1.7689  0.7460  0.3218
  455MOL0     H61386   6.399  -0.111  10.352  1.7708 -0.0947 -0.8634
  455MOL0     H61387   6.456   0.152   9.940  0.2624 -1.0748 -0.2093
  455MOL0     H61388   6.387   0.321   9.793  1.1258  0.9909  1.1722
  455MOL0     H61389   6.161   0.599   9.877  2.8028 -1.1270  0.2434
  455MOL0     H61390   6.257   0.600   9.729 -0.3264  0.2133  0.1919
  455MOL0     H61391   6.102   0.733   9.663 -0.0454 -1.8719 -0.9102
  455MOL0     H61392   6.017   0.587   9.611  0.0860 -4.0284  0.7154
  455MOL0     H61393   5.888   0.598   9.838 -2.0140  1.0792  0.0233
  455MOL0     H61394   5.978   0.733   9.892 -1.0494  2.2904 -1.4063
  455MOL0     H61395   5.801   0.735   9.648  0.7307 -0.7981 -0.9781
  455MOL0     H61396   5.893   0.883   9.701 -0.2360 -0.4450 -1.3039
  455MOL0     H61397   5.771   0.866   9.925 -0.5124 -2.5451  1.6455
  455MOL0     H61398   5.680   0.734   9.851 -1.1287 -1.7296 -4.5164
  455MOL0     H61399   5.688   1.010   9.742  0.5871 -0.9534 -0.2741
  455MOL0     H61400   5.592   0.881   9.669  2.5563  1.6624 -1.7484
  455MOL0     H61401   5.572   1.017   9.940 -2.4777 -0.0830  1.3423
  455MOL0     H61402   5.485   0.861   9.915 -0.8956 -1.6248  0.3403
  455MOL0     H61403   5.421   1.117   9.755 -1.4159  0.1037 -2.2701
  455MOL0     H61404   5.365   0.959   9.719 -0.6767  0.3167 -0.0370
  455MOL0     H61405   5.984   0.323   9.943 -0.4934 -0.0175 -1.8023
  455MOL0     H61406   6.048   0.138  10.080 -2.9213  2.6428 -1.9409
  455MOL0     H61407   6.431  -0.307   9.960 -0.4847 -0.4614  0.0226
  455MOL0     H61408   6.566  -0.475  10.068  2.0690  1.4709 -1.6464
  455MOL0     H61409   6.759  -0.258   9.899  0.5384 -1.5213  1.5823
  455MOL0     H61410   6.663  -0.036   9.827 -0.2629 -0.4029 -0.8294
  455MOL0     H61411   6.959   0.521   9.770 -0.4555  1.1720  1.0758
  455MOL0     H61412   6.813   0.724   9.794  0.5606 -0.3772  1.6050
  455MOL0     H61413   6.655   0.894   9.668 -0.3406 -0.8919 -0.4266
  455MOL0     H61414   6.650   0.879   9.848 -1.1546  0.0744  0.3120
  455MOL0     H61415   6.414   0.980   9.680 -1.8554  1.0739  0.6306
  455MOL0     H61416   6.520   1.061   9.783  0.7808  0.3069 -3.5805
  455MOL0     H61417   6.412   0.936   9.980 -0.2133  3.2779 -0.3796
  455MOL0     H61418   6.359   0.811   9.868 -0.7968  0.3324  1.7758
  455MOL0     H61419   6.188   0.970   9.758  1.1010  0.7227 -0.4591
  455MOL0     H61420   6.158   0.953   9.931  0.1230  3.3552  3.5480
  455MOL0     H61421   6.273   1.355   9.901  1.4029 -0.1276  0.5882
  455MOL0     H61422   6.480   0.520   9.642 -0.9458 -2.4977  1.6597
  455MOL0     H61423   6.641   0.231   9.527 -1.7680 -0.5466 -1.8651
  455MOL0     H61424   6.577   0.173   9.682 -0.0532  2.5872  3.7466
  455MOL0     H61425   6.489   0.292   9.574 -0.4731  0.6582 -0.4468
  456MOL0     O61426   4.243   1.004   0.739  0.2615 -0.0867 -0.3179
  456MOL0     C61427   4.181   1.049   0.639  0.8141 -0.1152 -0.6143
  456MOL0     O61428   4.059   1.103   0.646  0.2907  0.3550  0.8432
  456MOL0     C61429   3.954   1.036   0.702  0.1734 -0.3179 -0.0687
  456MOL0     C61430   3.822   1.093   0.695 -0.2572 -0.3408  0.2301
  456MOL0     C61431   3.707   1.028   0.739 -0.6558 -0.3126 -0.5821
  456MOL0     C61432   3.712   0.907   0.809 -0.1228  0.4007 -0.6541
  456MOL0     O61433   3.604   0.835   0.857 -0.5292 -0.6097 -0.4669
  456MOL0     C61434   3.507   0.788   0.761 -0.0640  0.0836 -0.2524
  456MOL0     C61435   3.387   0.737   0.830 -0.3132 -1.1522  0.6295
  456MOL0     C61436   3.306   0.852   0.877  0.5083 -0.2343 -0.3082
  456MOL0     C61437   3.188   0.813   0.973 -0.5884  0.3058 -0.6966
  456MOL0     C61438   3.087   0.925   0.998  0.9536 -0.0500  0.4886
  456MOL0     C61439   3.135   1.058   1.057 -0.2100  0.1494 -0.5618
  456MOL0     C61440   3.232   1.039   1.182  0.6725 -0.4416  0.0912
  456MOL0     C61441   3.233   1.169   1.262  0.7979  0.0954  0.2656
  456MOL0     N61442   3.321   1.276   1.198  0.1313 -0.0140  0.0968
  456MOL0     C61443   3.459   1.267   1.178  0.5775  0.3201 -0.2990
  456MOL0     C61444   3.499   1.388   1.133 -0.8172 -0.0281  0.0026
  456MOL0     C61445   3.631   1.434   1.085 -0.6963  0.1398 -0.6622
  456MOL0     C61446   3.730   1.467   1.196  0.2380  0.3325 -0.2256
  456MOL0     C61447   3.675   1.514   1.328 -0.1310 -0.1836 -0.6365
  456MOL0     C61448   3.788   1.502   1.439  0.3593  0.3241 -0.0157
  456MOL0     O61449   3.792   1.385   1.523  0.3344  0.3635  1.2173
  456MOL0     C61450   3.864   1.391   1.639 -0.1097  0.0859 -0.3643
  456MOL0     C61451   3.957   1.496   1.671  0.8756 -0.3000  0.5397
  456MOL0     C61452   4.033   1.494   1.790 -0.9090  0.9987  0.4382
  456MOL0     C61453   4.029   1.372   1.872 -0.3933 -0.0664  0.5408
  456MOL0     C61454   4.114   1.354   1.996  0.3267  0.5278  0.2426
  456MOL0     O61455   4.177   1.471   2.043 -0.6294  0.2005  0.4448
  456MOL0     C61456   4.280   1.450   2.146  0.2299 -0.7451 -0.2996
  456MOL0     C61457   4.395   1.528   2.130  0.8344  0.5660  0.7201
  456MOL0     C61458   4.497   1.518   2.227  0.5682 -0.3979 -0.3363
  456MOL0     C61459   4.481   1.426   2.329 -0.3411  0.2387  0.1841
  456MOL0     O61460   4.604   1.390   2.382 -0.0135 -0.6137  0.2281
  456MOL0     C61461   4.644   1.254   2.395 -0.2131 -0.5677  0.2659
  456MOL0     C61462   4.800   1.244   2.370 -0.2565 -0.5455 -0.0347
  456MOL0     C61463   4.884   1.324   2.476  0.1006  0.6552  0.9055
  456MOL0     C61464   4.954   1.223   2.573  0.5388 -0.1549  0.1570
  456MOL0     C61465   5.005   1.303   2.690 -0.4711 -0.1705  0.4794
  456MOL0     C61466   5.092   1.221   2.793  0.1437 -0.7052  1.3534
  456MOL0     C61467   5.138   1.322   2.896 -0.2073 -0.5640  0.4476
  456MOL0     C61468   5.255   1.406   2.845  0.9395 -0.8795 -0.1342
  456MOL0    Cl61469   5.409   1.359   2.930  0.0097  0.0738 -0.2511
  456MOL0     C61470   4.356   1.355   2.345 -0.0910 -0.3484  0.5518
  456MOL0     C61471   4.249   1.380   2.265  0.1281  0.3135  0.7762
  456MOL0     O61472   4.135   1.238   2.032 -0.0267  0.0087  1.3834
  456MOL0     C61473   3.933   1.271   1.834  0.1999  0.4688 -0.0987
  456MOL0     C61474   3.849   1.286   1.722  0.6753 -0.1148  0.2974
  456MOL0     N61475   3.378   1.462   1.113  0.0599 -0.3310  0.3255
  456MOL0     N61476   3.273   1.398   1.158  0.0559 -0.4240 -0.8407
  456MOL0     C61477   3.843   0.852   0.830  0.4430 -0.0529  1.2173
  456MOL0     C61478   3.958   0.911   0.772  0.1943 -0.2353  0.1237
  456MOL0     C61479   4.251   1.050   0.515  0.0257  0.2157  0.3456
  456MOL0     C61480   4.234   1.159   0.432 -0.2984  0.5518  0.2504
  456MOL0     C61481   4.269   1.149   0.290 -0.4003  0.3227 -0.6015
  456MOL0     C61482   4.322   1.033   0.246  0.5755  0.4942  1.4094
  456MOL0     O61483   4.326   1.039   0.106 -0.4629  0.6454 -0.4415
  456MOL0     C61484   4.312   0.913   0.036  0.4389 -0.4610 -0.4262
  456MOL0     C61485   4.188   0.827   0.068  1.0432  0.1426  0.1603
  456MOL0     C61486   4.056   0.899   0.086 -0.4060  0.4342 -0.0346
  456MOL0     C61487   3.979   0.956  -0.036 -0.8022  0.2527 -0.0772
  456MOL0     C61488   3.851   1.009  -0.005  0.8797  0.6509  0.3473
  456MOL0     C61489   3.735   1.053  -0.010 -0.5112  0.0125  0.5641
  456MOL0     C61490   4.362   0.929   0.329 -0.1020  0.9588 -0.4672
  456MOL0     C61491   4.323   0.934   0.463  0.6968 -0.0986 -0.0566
  456MOL0     C61492   4.362   0.812   0.546  0.9021  0.0300 -1.0003
  456MOL0     H61493   3.804   1.192   0.654  0.5554  0.6917  2.2282
  456MOL0     H61494   3.620   1.089   0.715  0.7108  2.5145  1.1251
  456MOL0     H61495   3.481   0.866   0.690 -2.5915 -2.4456 -2.3596
  456MOL0     H61496   3.552   0.708   0.701 -1.5551 -0.9230 -0.0849
  456MOL0     H61497   3.410   0.660   0.904  2.5108 -1.9152 -0.8611
  456MOL0     H61498   3.327   0.697   0.747  1.0984  0.6003 -1.3538
  456MOL0     H61499   3.268   0.899   0.786  0.6612  0.2472 -0.1282
  456MOL0     H61500   3.375   0.923   0.925  1.1165 -1.0835  0.0925
  456MOL0     H61501   3.149   0.715   0.942 -3.4287  1.2994 -0.5969
  456MOL0     H61502   3.225   0.789   1.073  1.9808  1.3857 -1.3230
  456MOL0     H61503   3.044   0.948   0.901 -1.6435  0.7203  1.7193
  456MOL0     H61504   3.009   0.887   1.065 -1.3445  0.9783 -1.4592
  456MOL0     H61505   3.185   1.122   0.983  0.6743 -0.7456 -0.7698
  456MOL0     H61506   3.044   1.119   1.067 -0.4052 -0.3604  0.9322
  456MOL0     H61507   3.337   1.022   1.153  0.9938 -0.7398  1.3810
  456MOL0     H61508   3.185   0.958   1.237 -1.0240 -0.4818 -1.3354
  456MOL0     H61509   3.129   1.202   1.275  0.8665 -0.5965  3.3399
  456MOL0     H61510   3.301   1.164   1.347  2.0951  1.4488 -0.6328
  456MOL0     H61511   3.522   1.188   1.218  1.1993  0.6568 -0.6064
  456MOL0     H61512   3.674   1.352   1.027 -1.0410 -1.6042  1.4420
  456MOL0     H61513   3.610   1.534   1.046  0.6128  1.9117  2.7261
  456MOL0     H61514   3.783   1.374   1.218  0.7179  1.1048  2.1458
  456MOL0     H61515   3.807   1.538   1.164  0.6167  0.7992  1.5808
  456MOL0     H61516   3.589   1.457   1.363  0.7259 -0.8154  0.5329
  456MOL0     H61517   3.660   1.622   1.331  0.9726 -0.0105 -0.9456
  456MOL0     H61518   3.752   1.580   1.507  0.5905 -1.5490  2.3547
  456MOL0     H61519   3.885   1.530   1.396  0.2563  0.6074 -0.0660
  456MOL0     H61520   3.979   1.579   1.604 -0.0788 -0.3050  0.2152
  456MOL0     H61521   4.093   1.584   1.799 -1.8974  1.5174  2.4401
  456MOL0     H61522   4.424   1.586   2.043 -0.3314 -0.6746 -0.5313
  456MOL0     H61523   4.590   1.571   2.210 -0.0767  0.0104 -2.9769
  456MOL0     H61524   4.604   1.215   2.489 -1.6351  3.0579  1.3389
  456MOL0     H61525   4.609   1.196   2.309 -0.3385  0.4897 -0.4103
  456MOL0     H61526   4.831   1.140   2.356 -0.3692 -0.5935  0.0800
  456MOL0     H61527   4.808   1.310   2.283 -2.3628 -0.5442 -0.2680
  456MOL0     H61528   4.958   1.388   2.427 -2.8963  3.5370 -0.1541
  456MOL0     H61529   4.812   1.386   2.530  0.4223  0.9501  0.9980
  456MOL0     H61530   5.023   1.157   2.520 -0.1040 -0.8851  0.2005
  456MOL0     H61531   4.874   1.168   2.625 -2.0273  2.8732 -0.3386
  456MOL0     H61532   4.925   1.350   2.748 -0.4306  0.8682 -0.2723
  456MOL0     H61533   5.063   1.381   2.638 -0.7391 -2.4691 -3.6844
  456MOL0     H61534   5.030   1.139   2.831 -0.2776 -0.8881  0.3097
  456MOL0     H61535   5.180   1.169   2.753  0.2513 -0.5403  1.3751
  456MOL0     H61536   5.163   1.286   2.996  3.6692  2.7523  0.9313
  456MOL0     H61537   5.063   1.402   2.898  0.9954  0.6339 -0.6865
  456MOL0     H61538   5.259   1.391   2.737  0.7283 -1.4038 -0.0745
  456MOL0     H61539   5.236   1.514   2.852  0.3414 -0.9767 -0.2130
  456MOL0     H61540   4.340   1.285   2.426  0.1171  0.5702  1.4105
  456MOL0     H61541   4.154   1.333   2.284  0.0616 -0.7258 -1.8196
  456MOL0     H61542   3.926   1.177   1.888 -2.3539 -0.1178 -1.2915
  456MOL0     H61543   3.783   1.205   1.692 -0.5536  0.4351  1.4188
  456MOL0     H61544   3.855   0.751   0.868  0.0782 -0.1682  1.0300
  456MOL0     H61545   4.047   0.850   0.771 -0.2081 -1.0918 -4.0581
  456MOL0     H61546   4.186   1.254   0.456  4.1874  3.0496  0.4813
  456MOL0     H61547   4.248   1.243   0.241  1.1958  0.4087 -1.1579
  456MOL0     H61548   4.404   0.856   0.030  0.6340 -0.0173 -3.4371
  456MOL0     H61549   4.288   0.941  -0.067  0.1396 -0.2317 -0.2979
  456MOL0     H61550   4.207   0.782   0.166  2.7261  0.5357  0.0579
  456MOL0     H61551   4.176   0.740   0.002 -4.1911  0.0977  0.7605
  456MOL0     H61552   4.069   0.977   0.161 -0.5266 -1.3807  1.9798
  456MOL0     H61553   3.992   0.820   0.128  1.5467  0.4076  3.2022
  456MOL0     H61554   4.024   1.045  -0.081 -0.6025 -0.6895 -1.8039
  456MOL0     H61555   3.979   0.871  -0.105  0.0329 -0.6160  0.9403
  456MOL0     H61556   3.640   1.102  -0.020  0.5805  1.8681 -1.6251
  456MOL0     H61557   4.393   0.838   0.277 -2.5482  0.8734 -1.9526
  456MOL0     H61558   4.278   0.763   0.596  1.8143  0.8322  1.4643
  456MOL0     H61559   4.413   0.741   0.481 -2.6355 -2.5038 -1.3169
  456MOL0     H61560   4.422   0.856   0.627 -1.4838  1.0182  0.3480
  457MOL0     O61561   9.961   2.897   3.832 -0.6219 -0.2051  0.0504
  457MOL0     C61562  10.055   2.913   3.910  0.5411  1.0071  0.9899
  457MOL0     O61563  10.112   3.020   3.951 -0.0592 -1.2988 -0.1098
  457MOL0     C61564  10.082   3.141   3.886 -0.3971 -0.8913  0.0205
  457MOL0     C61565  10.012   3.164   3.767  0.1414 -0.3473  0.0077
  457MOL0     C61566   9.999   3.295   3.710 -0.5405  0.9230  0.1342
  457MOL0     C61567  10.074   3.406   3.766 -0.3393 -1.5831  0.4967
  457MOL0     O61568  10.073   3.527   3.695 -0.6797  0.9887  0.0967
  457MOL0     C61569  10.193   3.607   3.707  0.7807  0.5483  0.8785
  457MOL0     C61570  10.219   3.635   3.556 -0.0766  0.0524  0.2512
  457MOL0     C61571  10.284   3.768   3.535  0.1330 -0.6833 -0.4913
  457MOL0     C61572  10.342   3.786   3.396  0.2818  0.0989 -0.5699
  457MOL0     C61573  10.401   3.927   3.380  0.0773 -0.3273 -0.6923
  457MOL0     C61574  10.501   3.963   3.261 -0.1470  0.5012  0.1540
  457MOL0     C61575  10.544   4.115   3.270  0.0756 -0.2799  0.0010
  457MOL0     C61576  10.682   4.126   3.186  0.3922  0.4225  0.1798
  457MOL0     N61577  10.731   4.255   3.207 -0.2684  0.5233 -0.8503
  457MOL0     C61578  10.834   4.284   3.289  0.1406 -0.3744  0.0764
  457MOL0     C61579  10.894   4.395   3.246  0.2031 -0.0387 -1.0763
  457MOL0     C61580  11.027   4.462   3.292  0.7708  0.3114 -0.0307
  457MOL0     C61581  11.133   4.490   3.182 -0.9289  0.2401  0.3365
  457MOL0     C61582  11.206   4.371   3.118  0.6145  0.3617  0.6780
  457MOL0     C61583  11.113   4.261   3.051 -0.2948  0.3882  0.1009
  457MOL0     O61584  11.202   4.196   2.959  0.4358  0.3987  0.0716
  457MOL0     C61585  11.143   4.085   2.893  0.3381  0.3380  0.6845
  457MOL0     C61586  11.016   4.090   2.845  0.2244  0.1778 -1.1981
  457MOL0     C61587  10.952   3.977   2.794 -0.4394 -0.4736  0.6274
  457MOL0     C61588  11.022   3.847   2.798  0.2754 -0.3681  0.0638
  457MOL0     C61589  10.952   3.731   2.735 -0.3007 -0.8389 -0.2369
  457MOL0     O61590  10.823   3.763   2.696 -0.9959  0.7701  0.3637
  457MOL0     C61591  10.749   3.663   2.634  0.0473  0.5137  0.4218
  457MOL0     C61592  10.722   3.678   2.500 -0.8837  0.5683 -0.0574
  457MOL0     C61593  10.659   3.569   2.434 -0.0069  0.2645  0.0995
  457MOL0     C61594  10.607   3.458   2.495 -0.9301 -0.8220 -0.5362
  457MOL0     O61595  10.541   3.361   2.423 -0.4065 -0.1415  0.5121
  457MOL0     C61596  10.419   3.412   2.360 -0.3589  0.6410 -2.0552
  457MOL0     C61597  10.306   3.307   2.402  0.1896 -0.8651 -0.1016
  457MOL0     C61598  10.189   3.304   2.296 -0.3928 -0.6347 -0.3406
  457MOL0     C61599  10.202   3.203   2.192 -0.5362  0.9741 -0.0581
  457MOL0     C61600  10.093   3.217   2.084  0.2952  0.2011 -0.2668
  457MOL0     C61601  10.102   3.122   1.969 -0.1309  0.0393 -0.8914
  457MOL0     C61602  10.227   3.120   1.877 -1.2380  0.2034 -0.0659
  457MOL0     C61603  10.262   3.253   1.813  0.3942 -1.1242 -0.6315
  457MOL0    Cl61604  10.381   3.327   1.912  0.4024  0.3359 -0.2110
  457MOL0     C61605  10.658   3.436   2.626  0.7066 -0.3850  0.6160
  457MOL0     C61606  10.732   3.534   2.689  0.1544 -0.1966 -0.2745
  457MOL0     O61607  11.010   3.631   2.697 -0.6541  0.1931  0.1136
  457MOL0     C61608  11.151   3.838   2.854 -0.3710 -1.2281 -0.5202
  457MOL0     C61609  11.210   3.955   2.895 -0.0307 -0.1577  0.6362
  457MOL0     N61610  10.816   4.437   3.145 -0.6661  0.0505  0.0097
  457MOL0     N61611  10.725   4.351   3.117  0.4230  0.3951 -0.1939
  457MOL0     C61612  10.140   3.380   3.878  0.6001 -0.3845 -0.0521
  457MOL0     C61613  10.146   3.257   3.935 -0.0808 -0.0795 -0.0908
  457MOL0     C61614  10.131   2.795   3.936 -0.1370  0.0462 -0.0850
  457MOL0     C61615  10.270   2.808   3.967 -1.3431 -0.3030  0.6650
  457MOL0     C61616  10.360   2.702   4.001  0.6418  0.1983 -0.2549
  457MOL0     C61617  10.309   2.575   3.988  0.4884  0.8648  0.3386
  457MOL0     O61618  10.403   2.471   3.995  1.3392  0.4471 -0.0563
  457MOL0     C61619  10.351   2.332   3.983 -0.1822  0.4811  0.5092
  457MOL0     C61620  10.289   2.252   4.100  0.0983  0.1894 -0.5694
  457MOL0     C61621  10.343   2.292   4.242 -0.3085  0.0090 -1.1276
  457MOL0     C61622  10.493   2.264   4.244  0.2379 -0.3306 -0.1784
  457MOL0     C61623  10.551   2.284   4.376  1.1231  0.0315 -0.4882
  457MOL0     C61624  10.603   2.308   4.486 -1.1517  0.3941 -0.7250
  457MOL0     C61625  10.167   2.558   3.965  0.4826  1.0181  0.9062
  457MOL0     C61626  10.079   2.664   3.935 -0.5367 -0.0685  0.6502
  457MOL0     C61627   9.934   2.634   3.915 -1.2641  0.8562 -0.0409
  457MOL0     H61628   9.950   3.098   3.706 -4.3847  2.9621  0.4983
  457MOL0     H61629   9.944   3.320   3.619  1.9941 -0.1533 -1.8447
  457MOL0     H61630  10.165   3.691   3.770 -3.5873 -1.1168  1.4567
  457MOL0     H61631  10.272   3.550   3.757  2.0874  0.9548 -0.6436
  457MOL0     H61632  10.124   3.632   3.502  0.2554  0.6074 -0.3858
  457MOL0     H61633  10.293   3.569   3.509 -1.7715 -0.7451 -1.4457
  457MOL0     H61634  10.352   3.782   3.620  1.5619 -3.6879 -1.0109
  457MOL0     H61635  10.206   3.844   3.547  2.2249  1.7741 -1.2761
  457MOL0     H61636  10.413   3.712   3.357  2.3685  3.6586 -4.3045
  457MOL0     H61637  10.261   3.785   3.323 -0.7797 -0.1468  0.5965
  457MOL0     H61638  10.315   3.992   3.362  0.3238 -0.7517 -4.0570
  457MOL0     H61639  10.449   3.951   3.475  1.5458  2.8895 -2.0965
  457MOL0     H61640  10.583   3.895   3.285  1.1587  2.1362  0.5283
  457MOL0     H61641  10.465   3.931   3.162 -1.8746  1.4584  0.4326
  457MOL0     H61642  10.563   4.156   3.369  1.6186  1.3896 -0.9050
  457MOL0     H61643  10.460   4.164   3.220 -0.4194 -1.0269  0.0896
  457MOL0     H61644  10.758   4.052   3.213  0.9788  0.7741 -0.4772
  457MOL0     H61645  10.662   4.112   3.080  3.2215  2.0840 -0.7002
  457MOL0     H61646  10.875   4.217   3.363  2.4950  0.1756 -0.6276
  457MOL0     H61647  11.018   4.550   3.356  3.1707 -0.9626  2.2789
  457MOL0     H61648  11.068   4.390   3.364  1.9654 -0.5732 -1.5227
  457MOL0     H61649  11.103   4.566   3.110  0.7273 -1.4146 -2.2637
  457MOL0     H61650  11.215   4.543   3.231 -0.4810  1.3740 -1.5396
  457MOL0     H61651  11.275   4.319   3.185 -0.7294 -0.9487  1.1046
  457MOL0     H61652  11.268   4.408   3.036 -3.2965  0.9378 -2.3013
  457MOL0     H61653  11.037   4.320   2.998  1.5795  1.4452 -1.5451
  457MOL0     H61654  11.072   4.191   3.124  0.4418 -0.2778 -0.1114
  457MOL0     H61655  10.951   4.177   2.848 -1.5496 -1.1315  0.6498
  457MOL0     H61656  10.858   3.989   2.741 -0.6033 -0.4352  0.9294
  457MOL0     H61657  10.745   3.772   2.450  2.7323  0.2127  0.6485
  457MOL0     H61658  10.638   3.561   2.328 -0.0895 -1.4443  0.2196
  457MOL0     H61659  10.393   3.514   2.388 -1.9770  0.3156 -2.2683
  457MOL0     H61660  10.433   3.415   2.252 -1.3728 -0.3973 -2.2305
  457MOL0     H61661  10.356   3.210   2.414  1.7250  0.1960  3.0468
  457MOL0     H61662  10.270   3.333   2.502 -0.5855 -4.1692  0.6162
  457MOL0     H61663  10.089   3.296   2.341 -0.4555  1.1116 -0.0965
  457MOL0     H61664  10.186   3.399   2.241  0.7093  0.1357  0.8724
  457MOL0     H61665  10.189   3.102   2.232  1.5301  1.5945  2.4919
  457MOL0     H61666  10.299   3.203   2.141 -0.3179 -1.0357  0.2560
  457MOL0     H61667  10.111   3.322   2.059  1.3135  0.5996  1.8880
  457MOL0     H61668  10.001   3.215   2.143  0.5562  2.1186  0.3042
  457MOL0     H61669  10.095   3.025   2.018 -2.6106 -0.8901 -2.8457
  457MOL0     H61670  10.014   3.143   1.908 -1.0840  0.5874  0.6241
  457MOL0     H61671  10.228   3.050   1.793 -0.3695  0.0925  0.0293
  457MOL0     H61672  10.311   3.077   1.932 -1.0401 -2.0671 -1.9486
  457MOL0     H61673  10.306   3.237   1.714 -0.1893 -2.4461 -0.7093
  457MOL0     H61674  10.172   3.313   1.794  2.0588  1.7861  0.0739
  457MOL0     H61675  10.651   3.337   2.668  1.4290 -0.9735 -0.6052
  457MOL0     H61676  10.768   3.513   2.790  1.7698  1.6281 -0.4250
  457MOL0     H61677  11.205   3.745   2.867  1.8007  0.3751  3.9508
  457MOL0     H61678  11.310   3.952   2.937  0.9279 -0.2009 -1.5169
  457MOL0     H61679  10.194   3.454   3.937  2.5859 -0.9516 -1.0965
  457MOL0     H61680  10.208   3.248   4.024  3.5340 -0.7497 -2.4600
  457MOL0     H61681  10.316   2.906   3.973  2.1709 -1.8609  1.8224
  457MOL0     H61682  10.461   2.724   4.032  0.4991  0.5662 -0.0441
  457MOL0     H61683  10.440   2.273   3.960  0.6432  0.4883  3.3321
  457MOL0     H61684  10.282   2.325   3.898  0.1637  0.4928  0.2250
  457MOL0     H61685  10.296   2.143   4.098 -1.7054 -0.0762  2.5339
  457MOL0     H61686  10.182   2.271   4.089  0.4363  2.1077 -0.8803
  457MOL0     H61687  10.281   2.226   4.304  0.7311  0.7419  0.7584
  457MOL0     H61688  10.316   2.397   4.253 -2.2553 -0.4067 -1.4478
  457MOL0     H61689  10.505   2.163   4.203  0.4013 -0.5820  0.4772
  457MOL0     H61690  10.540   2.339   4.179 -0.2624  0.7504  0.6822
  457MOL0     H61691  10.627   2.336   4.587 -2.0495  4.4543 -1.4556
  457MOL0     H61692  10.135   2.454   3.961  0.0913  1.1265  1.1107
  457MOL0     H61693   9.895   2.662   3.817  2.8810 -0.3866 -2.2936
  457MOL0     H61694   9.922   2.528   3.939  0.2877  1.1264  2.3529
  457MOL0     H61695   9.893   2.698   3.993  0.6759  1.9775  0.1362
  458MOL0     O61696   1.081   4.421   5.310  1.0154  0.2201  0.7862
  458MOL0     C61697   1.012   4.485   5.231 -0.2447 -0.9202  0.0644
  458MOL0     O61698   0.963   4.443   5.112 -0.3767  0.1698  0.2570
  458MOL0     C61699   0.996   4.323   5.051  0.8301  0.1037 -0.2224
  458MOL0     C61700   1.053   4.316   4.921  0.2428  0.2958 -0.7848
  458MOL0     C61701   1.083   4.191   4.866  0.6652 -0.6062 -0.3044
  458MOL0     C61702   1.045   4.075   4.935 -0.0478 -0.6680 -0.3324
  458MOL0     O61703   1.064   3.953   4.870 -0.1371  0.4907  0.6034
  458MOL0     C61704   1.044   3.831   4.937  0.2510  1.1671  0.1398
  458MOL0     C61705   1.092   3.717   4.839 -0.5994 -0.2460  0.1310
  458MOL0     C61706   1.076   3.584   4.908 -0.0262 -0.2202  0.2506
  458MOL0     C61707   0.972   3.502   4.830  0.9106 -0.2241  0.3065
  458MOL0     C61708   0.949   3.359   4.878  0.0587  0.0863  0.4746
  458MOL0     C61709   1.065   3.259   4.832 -0.1151  0.5938  0.1991
  458MOL0     C61710   1.016   3.116   4.867  0.8479  0.1947 -1.0075
  458MOL0     C61711   1.117   3.004   4.858  0.9386  1.1207  0.4127
  458MOL0     N61712   1.059   2.875   4.916  0.1618  0.1712 -0.4978
  458MOL0     C61713   1.100   2.830   5.045  0.2347  0.2497 -0.4827
  458MOL0     C61714   1.063   2.699   5.050 -0.1744 -0.6976  0.3368
  458MOL0     C61715   1.080   2.599   5.161  0.0758 -0.2696  0.3339
  458MOL0     C61716   1.228   2.576   5.193 -0.0158 -0.1965 -0.1890
  458MOL0     C61717   1.256   2.456   5.284  0.7744  0.6112  0.2633
  458MOL0     C61718   1.275   2.495   5.441  0.3229 -0.9405  0.2410
  458MOL0     O61719   1.308   2.380   5.521 -0.4629 -0.1098 -0.4656
  458MOL0     C61720   1.214   2.282   5.524 -1.0490  0.1269  0.0197
  458MOL0     C61721   1.075   2.303   5.537  0.0297  0.2233 -0.0737
  458MOL0     C61722   0.987   2.200   5.565 -0.3880 -0.4001 -1.3028
  458MOL0     C61723   1.034   2.065   5.570  0.4491 -0.2625  0.3762
  458MOL0     C61724   0.948   1.947   5.597 -0.8005 -0.1608 -0.2553
  458MOL0     O61725   1.007   1.823   5.608 -0.2790  0.5434  0.1937
  458MOL0     C61726   0.972   1.731   5.708 -0.0376 -0.6074  0.3534
  458MOL0     C61727   0.919   1.758   5.837 -0.6670 -0.6497 -0.2426
  458MOL0     C61728   0.883   1.653   5.923  0.2659 -1.0537  0.2069
  458MOL0     C61729   0.915   1.523   5.895  0.4248  0.4382  1.4713
  458MOL0     O61730   0.887   1.426   5.988  0.8334 -1.0538 -0.9201
  458MOL0     C61731   0.766   1.420   6.060 -0.3992 -0.2896  0.4221
  458MOL0     C61732   0.787   1.336   6.182  0.1026  0.9960 -0.3282
  458MOL0     C61733   0.900   1.389   6.274 -0.3140  0.4635 -0.0342
  458MOL0     C61734   0.913   1.301   6.404  0.8298 -0.5132 -0.0896
  458MOL0     C61735   0.812   1.340   6.514 -0.7091  0.4995  0.4991
  458MOL0     C61736   0.844   1.280   6.651 -0.4359  0.3608  0.2441
  458MOL0     C61737   0.755   1.326   6.763 -0.4336 -0.3414 -1.2924
  458MOL0     C61738   0.778   1.239   6.891  0.1587 -0.5563 -0.1724
  458MOL0    Cl61739   0.749   1.069   6.867 -0.5411 -0.2631  0.3285
  458MOL0     C61740   0.981   1.495   5.779 -0.8547 -0.1089  1.2423
  458MOL0     C61741   1.011   1.593   5.679  0.0376 -0.2299  0.1226
  458MOL0     O61742   0.833   1.975   5.622  0.1485  0.0427  0.9324
  458MOL0     C61743   1.175   2.043   5.560  0.0981  0.2932  0.5304
  458MOL0     C61744   1.259   2.155   5.543  0.5544 -0.0726 -0.6164
  458MOL0     N61745   1.013   2.665   4.931  0.4643 -0.4383 -0.4199
  458MOL0     N61746   0.999   2.772   4.854  0.5613 -0.4829  1.1581
  458MOL0     C61747   0.999   4.087   5.065 -0.0950  0.2056  0.9755
  458MOL0     C61748   0.973   4.210   5.124 -0.5703 -0.1804  0.8129
  458MOL0     C61749   0.987   4.631   5.277 -0.1175  1.0448 -0.4939
  458MOL0     C61750   0.999   4.658   5.420 -0.2147 -0.5357  0.6982
  458MOL0     C61751   0.981   4.786   5.471  0.3302  0.4964 -0.9463
  458MOL0     C61752   0.943   4.895   5.385  1.2077  0.6692  0.4318
  458MOL0     O61753   0.937   5.026   5.418 -0.2262 -0.1485 -0.4937
  458MOL0     C61754   0.817   5.079   5.469 -1.0651 -0.5100  0.4095
  458MOL0     C61755   0.850   5.214   5.532 -0.0741  0.1813 -0.5455
  458MOL0     C61756   0.921   5.308   5.436 -0.3172  0.5659 -0.3682
  458MOL0     C61757   0.887   5.452   5.455  0.5301 -1.2957 -0.4112
  458MOL0     C61758   0.885   5.495   5.595  0.4390  0.2669 -0.7547
  458MOL0     C61759   0.845   5.526   5.701  1.3314  0.0513 -0.1976
  458MOL0     C61760   0.909   4.865   5.256 -0.1709 -0.0813  1.2056
  458MOL0     C61761   0.940   4.733   5.197  0.9371 -1.1450  0.3546
  458MOL0     C61762   0.908   4.712   5.052  0.2585 -0.3610  0.4305
  458MOL0     H61763   1.106   4.406   4.890 -2.5083  2.4042  0.1783
  458MOL0     H61764   1.125   4.186   4.766  1.6507  1.8381 -0.0976
  458MOL0     H61765   1.109   3.817   5.023  4.0107  1.6418 -2.4131
  458MOL0     H61766   0.944   3.799   4.968  0.2089  1.5003  0.3576
  458MOL0     H61767   1.199   3.723   4.817  0.1557 -1.8665  2.8699
  458MOL0     H61768   1.033   3.728   4.747 -2.3491 -1.7846  1.0142
  458MOL0     H61769   1.051   3.602   5.013 -2.2203  0.4218 -0.3317
  458MOL0     H61770   1.175   3.537   4.909  0.1619  0.1132 -1.0181
  458MOL0     H61771   0.887   3.570   4.842  2.3993  1.5380  1.2589
  458MOL0     H61772   0.983   3.483   4.723  0.4132 -0.8367  0.3511
  458MOL0     H61773   0.928   3.353   4.985 -0.1750 -0.9222  0.3742
  458MOL0     H61774   0.871   3.321   4.811  0.0168  1.4552 -0.3015
  458MOL0     H61775   1.080   3.274   4.724 -4.8093 -2.5602 -1.1946
  458MOL0     H61776   1.157   3.271   4.889 -0.1577 -1.0345  0.6634
  458MOL0     H61777   0.931   3.090   4.803  1.6870 -1.3658 -1.5566
  458MOL0     H61778   0.977   3.112   4.969  0.2995 -1.3124 -1.2496
  458MOL0     H61779   1.139   3.002   4.751  4.8845  2.7221  1.0258
  458MOL0     H61780   1.213   3.024   4.905  1.3180  0.9874 -0.2878
  458MOL0     H61781   1.171   2.881   5.110  1.6621 -1.2143 -0.8285
  458MOL0     H61782   1.013   2.621   5.245 -2.4209  0.0260 -1.6174
  458MOL0     H61783   1.036   2.504   5.131 -0.5277 -0.5751  2.0682
  458MOL0     H61784   1.289   2.561   5.103  0.7516 -0.6689  0.3947
  458MOL0     H61785   1.273   2.664   5.240  3.7976 -0.7009 -2.4227
  458MOL0     H61786   1.341   2.408   5.236 -2.3378 -2.9440 -2.2494
  458MOL0     H61787   1.179   2.382   5.264  1.7074 -0.9913  2.2086
  458MOL0     H61788   1.179   2.530   5.482  0.3831 -2.8091  2.1647
  458MOL0     H61789   1.357   2.567   5.440 -0.0083 -0.5294 -1.7375
  458MOL0     H61790   1.040   2.406   5.526 -0.2214 -0.0081 -1.7929
  458MOL0     H61791   0.880   2.215   5.573 -0.5836 -2.4813  2.1118
  458MOL0     H61792   0.923   1.863   5.861 -1.4193  0.3222 -3.8315
  458MOL0     H61793   0.850   1.676   6.024  2.1156  1.6032  0.3180
  458MOL0     H61794   0.720   1.519   6.072 -1.3060 -0.6953  0.3711
  458MOL0     H61795   0.708   1.353   5.996 -0.2169  0.0244 -0.0836
  458MOL0     H61796   0.697   1.356   6.241  0.6404  3.3979 -0.2118
  458MOL0     H61797   0.781   1.230   6.158 -1.2673  0.6027  1.5606
  458MOL0     H61798   0.992   1.370   6.218 -1.3592  1.7472 -2.2944
  458MOL0     H61799   0.874   1.491   6.303 -3.0678  0.0792 -0.9110
  458MOL0     H61800   1.020   1.306   6.428  0.6346 -0.3035  0.7553
  458MOL0     H61801   0.897   1.195   6.387 -0.0635 -0.6444  1.4458
  458MOL0     H61802   0.711   1.319   6.477 -0.3326 -1.2703  0.3518
  458MOL0     H61803   0.819   1.448   6.524 -0.5754  0.6227 -0.7713
  458MOL0     H61804   0.847   1.171   6.649 -0.5301  0.3488  0.5690
  458MOL0     H61805   0.947   1.311   6.671 -0.8207  1.7856  0.0971
  458MOL0     H61806   0.649   1.320   6.738 -0.3980  1.0207 -1.8193
  458MOL0     H61807   0.791   1.424   6.795  1.2900 -0.8771 -1.4916
  458MOL0     H61808   0.881   1.256   6.923  0.0961  1.3548 -0.8335
  458MOL0     H61809   0.718   1.264   6.980  0.3728  0.6600 -0.3429
  458MOL0     H61810   1.005   1.390   5.765  0.1002  0.2398  0.0539
  458MOL0     H61811   1.060   1.565   5.586 -1.3503 -0.4543 -0.5651
  458MOL0     H61812   1.231   1.953   5.585 -1.6212 -0.3009  2.5256
  458MOL0     H61813   1.366   2.143   5.533  0.8797 -1.0140  2.7279
  458MOL0     H61814   0.978   3.998   5.124  0.8150 -0.9856 -0.4248
  458MOL0     H61815   0.950   4.209   5.230 -4.7394 -0.7430  0.0641
  458MOL0     H61816   1.041   4.584   5.487 -0.3126  1.0302  2.5596
  458MOL0     H61817   0.985   4.785   5.580 -1.2620  2.0633 -0.8294
  458MOL0     H61818   0.764   5.025   5.548  1.4073 -0.0550  2.5170
  458MOL0     H61819   0.746   5.088   5.386 -1.0829 -2.1679  0.2215
  458MOL0     H61820   0.907   5.192   5.622 -0.8638 -1.6715 -0.4397
  458MOL0     H61821   0.760   5.265   5.568  0.3169 -0.6141  1.7440
  458MOL0     H61822   0.909   5.285   5.330 -2.1918  0.9477 -0.2771
  458MOL0     H61823   1.027   5.290   5.458 -1.0014 -1.9525  1.4375
  458MOL0     H61824   0.949   5.527   5.405 -2.4375  2.6888  1.3291
  458MOL0     H61825   0.786   5.464   5.417  1.4302 -1.7609 -3.1796
  458MOL0     H61826   0.821   5.558   5.800 -0.3459  1.6006 -1.0440
  458MOL0     H61827   0.868   4.942   5.192 -0.4399  0.1062  1.6043
  458MOL0     H61828   0.813   4.658   5.049 -1.0188  1.5267  3.0010
  458MOL0     H61829   0.907   4.809   5.001  1.6282 -0.7047 -0.3144
  458MOL0     H61830   0.980   4.648   5.000  0.6939  0.6573 -0.2707
  459MOL0     O61831   0.773   5.451   9.477 -0.4115 -0.0985  0.7111
  459MOL0     C61832   0.836   5.415   9.375  0.5247 -0.5598 -0.4262
  459MOL0     O61833   0.957   5.347   9.363  0.4535 -0.8157 -0.2131
  459MOL0     C61834   1.023   5.327   9.481  0.5206  0.6276 -0.8020
  459MOL0     C61835   1.061   5.425   9.569  0.6123 -0.5271  0.4610
  459MOL0     C61836   1.145   5.407   9.674  0.6946 -0.8071  1.0038
  459MOL0     C61837   1.191   5.274   9.701 -0.2032 -1.1531  0.3230
  459MOL0     O61838   1.264   5.266   9.812 -1.1073  0.1638 -0.4669
  459MOL0     C61839   1.264   5.150   9.901 -0.6794  0.3206 -0.4564
  459MOL0     C61840   1.189   5.157  10.030  0.0082  0.1390  0.1226
  459MOL0     C61841   1.077   5.264  10.042 -0.0684  0.4315  1.1541
  459MOL0     C61842   0.969   5.217  10.141 -0.5587 -0.0560 -0.3127
  459MOL0     C61843   0.880   5.326  10.195  0.4690  0.2515  0.4368
  459MOL0     C61844   0.794   5.381  10.081 -0.0688  0.1621  0.2988
  459MOL0     C61845   0.811   5.536  10.067  0.6328  0.6667 -0.5210
  459MOL0     C61846   0.895   5.559   9.941 -0.0755 -1.3608  0.0236
  459MOL0     N61847   0.921   5.705   9.924  0.0226 -1.1377  0.6740
  459MOL0     C61848   0.845   5.817   9.922 -0.5458  0.7181 -0.6683
  459MOL0     C61849   0.931   5.915   9.911  0.7583 -0.1751  0.1920
  459MOL0     C61850   0.897   6.060   9.924 -0.1137 -0.8966 -0.7067
  459MOL0     C61851   0.796   6.120   9.825 -0.0437  0.1813 -0.2565
  459MOL0     C61852   0.829   6.269   9.782 -0.3670 -0.7770 -0.2900
  459MOL0     C61853   0.763   6.328   9.657  0.1182 -0.3888 -0.3104
  459MOL0     O61854   0.795   6.469   9.627  0.2797  0.2623 -0.1569
  459MOL0     C61855   0.929   6.509   9.603 -1.1457  0.9950 -0.0261
  459MOL0     C61856   1.028   6.419   9.566  0.1299  0.3212  0.2914
  459MOL0     C61857   1.160   6.452   9.542 -1.0782 -0.0034 -1.1481
  459MOL0     C61858   1.192   6.592   9.539  0.0675 -0.7004  0.5246
  459MOL0     C61859   1.332   6.635   9.524 -0.7880  1.1036  0.3171
  459MOL0     O61860   1.420   6.545   9.558  0.5821  0.2357 -0.2762
  459MOL0     C61861   1.551   6.575   9.572  0.6597 -0.7030 -0.2191
  459MOL0     C61862   1.610   6.678   9.648  0.4685 -0.1772  0.2682
  459MOL0     C61863   1.747   6.688   9.661 -0.7780  0.0304  0.1791
  459MOL0     C61864   1.828   6.617   9.568 -0.4138 -0.5112  0.2064
  459MOL0     O61865   1.955   6.655   9.553 -0.0064 -0.1859 -0.3976
  459MOL0     C61866   1.973   6.714   9.424 -0.5118 -0.5069 -0.5464
  459MOL0     C61867   2.122   6.725   9.421  0.1305 -0.0394  0.3034
  459MOL0     C61868   2.162   6.806   9.294  0.0297  0.4032 -0.9497
  459MOL0     C61869   2.191   6.702   9.179  0.2194  0.3753 -0.3643
  459MOL0     C61870   2.189   6.779   9.050 -0.2971  0.4903  1.2523
  459MOL0     C61871   2.237   6.696   8.927 -0.9398 -0.5680 -0.2794
  459MOL0     C61872   2.255   6.786   8.806 -0.4730 -0.5146  0.6644
  459MOL0     C61873   2.319   6.724   8.679  0.0081  0.2627 -0.4023
  459MOL0    Cl61874   2.189   6.637   8.583  0.2065  0.1992  0.2661
  459MOL0     C61875   1.774   6.513   9.500 -0.4120 -0.1667  0.1296
  459MOL0     C61876   1.639   6.493   9.504  0.1276  0.1281  0.4970
  459MOL0     O61877   1.364   6.741   9.465  0.4352 -0.2724 -0.5297
  459MOL0     C61878   1.090   6.689   9.563  0.1034  1.3285 -0.6495
  459MOL0     C61879   0.954   6.646   9.591  0.5287  0.0945  0.2311
  459MOL0     N61880   1.059   5.874   9.919  0.7708 -0.3926 -0.0283
  459MOL0     N61881   1.048   5.745   9.918  0.3691 -0.9335  0.8556
  459MOL0     C61882   1.155   5.173   9.615 -0.0637  1.0307  0.5458
  459MOL0     C61883   1.066   5.198   9.510 -0.9210  0.6742 -0.2015
  459MOL0     C61884   0.770   5.435   9.245  0.0836  0.4689 -1.0384
  459MOL0     C61885   0.839   5.381   9.130  0.0096 -0.5688 -0.2604
  459MOL0     C61886   0.769   5.372   9.007 -0.5852 -0.6418 -0.1855
  459MOL0     C61887   0.640   5.429   8.991 -0.5341 -0.0546 -1.1602
  459MOL0     O61888   0.568   5.418   8.876 -0.0322  0.2470 -0.6965
  459MOL0     C61889   0.635   5.447   8.749  0.1222  0.4511  0.7033
  459MOL0     C61890   0.702   5.589   8.728 -0.8308  0.3865  0.6630
  459MOL0     C61891   0.788   5.609   8.596 -0.3495 -0.6070  0.6378
  459MOL0     C61892   0.831   5.752   8.570 -0.0073 -0.4263 -0.4606
  459MOL0     C61893   0.710   5.834   8.533 -0.7212  0.2119 -0.1567
  459MOL0     C61894   0.605   5.900   8.524 -0.4259 -0.4344 -0.8609
  459MOL0     C61895   0.590   5.494   9.100  0.5151 -0.2523 -0.3557
  459MOL0     C61896   0.649   5.502   9.223  1.1092  0.1459 -0.8984
  459MOL0     C61897   0.565   5.568   9.336 -0.3905 -0.0913  0.5605
  459MOL0     H61898   1.017   5.523   9.555  0.3121 -0.7125  0.0896
  459MOL0     H61899   1.164   5.483   9.750  2.4149 -2.9988  2.9351
  459MOL0     H61900   1.229   5.060   9.850 -3.3931  1.0109  0.0307
  459MOL0     H61901   1.368   5.132   9.929 -1.6088 -2.1092  1.8654
  459MOL0     H61902   1.262   5.174  10.110  1.2834 -0.4246 -0.8871
  459MOL0     H61903   1.148   5.056  10.045 -2.3177  0.8489 -1.0476
  459MOL0     H61904   1.026   5.280   9.946 -2.1697 -1.2038  1.9131
  459MOL0     H61905   1.107   5.360  10.084 -0.9877  1.3737 -0.2761
  459MOL0     H61906   0.912   5.146  10.081  2.3612  0.3843 -4.0121
  459MOL0     H61907   1.011   5.153  10.218 -1.6653  0.9707  1.2044
  459MOL0     H61908   0.821   5.301  10.284 -0.1360  1.4522  0.3926
  459MOL0     H61909   0.945   5.395  10.250 -0.2380 -0.3224  2.0669
  459MOL0     H61910   0.831   5.353   9.982 -1.8893 -0.6345 -0.1774
  459MOL0     H61911   0.690   5.349  10.092  0.4430 -1.1451  1.7437
  459MOL0     H61912   0.866   5.576  10.152  2.1400  1.8738 -1.9951
  459MOL0     H61913   0.717   5.586  10.043  1.2952  1.8990 -0.6265
  459MOL0     H61914   0.995   5.515   9.950  1.7636  2.5439  0.8501
  459MOL0     H61915   0.853   5.516   9.850  0.4593 -0.5774 -0.6074
  459MOL0     H61916   0.739   5.830   9.945  0.0314  2.4380  1.3727
  459MOL0     H61917   0.862   6.078  10.026 -1.2959  2.9838 -1.6502
  459MOL0     H61918   0.986   6.122   9.908 -1.6327  1.8610  0.8531
  459MOL0     H61919   0.798   6.060   9.733  0.1118  2.9349 -2.1536
  459MOL0     H61920   0.698   6.108   9.871  0.2706 -3.8211 -0.2256
  459MOL0     H61921   0.938   6.274   9.772 -0.1070 -1.2809  1.7966
  459MOL0     H61922   0.800   6.341   9.859  3.1916  1.2285 -0.6092
  459MOL0     H61923   0.657   6.309   9.679 -0.4732  0.8487 -1.9194
  459MOL0     H61924   0.780   6.268   9.567 -3.6506 -0.5099 -1.1153
  459MOL0     H61925   1.008   6.313   9.551 -0.2853  0.4054  0.2130
  459MOL0     H61926   1.239   6.383   9.515 -0.8493  0.1599 -0.8907
  459MOL0     H61927   1.540   6.745   9.699  0.6834  0.2890 -0.0455
  459MOL0     H61928   1.794   6.759   9.728 -1.0456  1.5238 -1.1464
  459MOL0     H61929   1.933   6.654   9.342 -4.6594  1.2169 -0.0227
  459MOL0     H61930   1.920   6.810   9.423 -0.3788 -0.4337 -0.7636
  459MOL0     H61931   2.155   6.776   9.513  4.0162 -0.5883 -0.5867
  459MOL0     H61932   2.156   6.621   9.422 -0.3603 -0.2225 -1.0515
  459MOL0     H61933   2.081   6.871   9.260 -2.6925 -0.1823  3.6027
  459MOL0     H61934   2.240   6.879   9.318 -0.9923  1.3201 -0.3412
  459MOL0     H61935   2.115   6.623   9.177  0.4010  0.0491  2.3953
  459MOL0     H61936   2.282   6.653   9.215 -1.1780 -0.2545  2.5687
  459MOL0     H61937   2.243   6.873   9.060 -3.1894  2.3248  0.6892
  459MOL0     H61938   2.090   6.818   9.029 -0.5746 -1.6623 -2.1747
  459MOL0     H61939   2.324   6.630   8.937 -0.1512 -0.0011 -2.8054
  459MOL0     H61940   2.147   6.639   8.903 -1.2428 -0.1126 -0.2397
  459MOL0     H61941   2.330   6.859   8.839  1.0569 -1.7916  0.1569
  459MOL0     H61942   2.167   6.848   8.785  1.3631  2.2251  0.5478
  459MOL0     H61943   2.367   6.801   8.619  0.4361 -1.8287 -2.9111
  459MOL0     H61944   2.388   6.648   8.717  0.0795  0.1874 -0.6798
  459MOL0     H61945   1.827   6.443   9.436  1.1627 -0.9047  2.1403
  459MOL0     H61946   1.593   6.411   9.450  1.1938  0.7277 -1.4201
  459MOL0     H61947   1.097   6.797   9.568 -0.2637  1.3317 -0.1144
  459MOL0     H61948   0.884   6.725   9.613  2.3197  2.0782 -0.7567
  459MOL0     H61949   1.167   5.069   9.644 -3.7499  0.1012 -0.6251
  459MOL0     H61950   1.043   5.106   9.456  0.6906  1.2081 -1.9016
  459MOL0     H61951   0.940   5.342   9.131  0.2351 -0.0640 -1.5949
  459MOL0     H61952   0.811   5.303   8.935 -2.0203  2.0299 -3.9248
  459MOL0     H61953   0.560   5.446   8.669  1.1239 -0.0400 -0.2570
  459MOL0     H61954   0.699   5.360   8.737  1.2099  1.4231 -0.9263
  459MOL0     H61955   0.777   5.605   8.805 -0.6137  0.6068  0.4085
  459MOL0     H61956   0.629   5.670   8.720  1.6512  3.1551  3.6356
  459MOL0     H61957   0.733   5.591   8.503  2.4461  0.9261 -1.4798
  459MOL0     H61958   0.886   5.560   8.592  0.3008  0.7261 -1.8182
  459MOL0     H61959   0.887   5.805   8.648 -0.2009  0.7266 -1.0818
  459MOL0     H61960   0.902   5.755   8.487 -0.2092 -0.9518 -0.6495
  459MOL0     H61961   0.524   5.971   8.529 -0.8619 -0.9099  4.2344
  459MOL0     H61962   0.491   5.539   9.094  0.9936  0.7143 -1.2695
  459MOL0     H61963   0.628   5.632   9.400 -0.5433 -0.5925  1.2180
  459MOL0     H61964   0.507   5.650   9.293 -0.7088 -0.4243  0.3506
  459MOL0     H61965   0.509   5.491   9.390 -0.3394 -0.6768 -0.2155
  460MOL0     O61966   1.321   2.347   7.852  0.0555 -0.2164 -0.6285
  460MOL0     C61967   1.410   2.433   7.849  0.3898  1.4796 -0.1661
  460MOL0     O61968   1.420   2.526   7.747  0.5580 -0.7919 -0.7672
  460MOL0     C61969   1.321   2.515   7.647  0.1398 -0.5010 -0.7863
  460MOL0     C61970   1.182   2.527   7.662 -0.0709  1.2400  0.4335
  460MOL0     C61971   1.089   2.525   7.554 -0.2417 -0.6456  0.9948
  460MOL0     C61972   1.126   2.496   7.418  1.1710  0.3862 -0.2905
  460MOL0     O61973   1.037   2.449   7.324  0.6299 -0.7395 -0.2868
  460MOL0     C61974   0.927   2.538   7.308 -0.0412 -0.0149  0.6526
  460MOL0     C61975   0.980   2.617   7.181  0.0432  0.1971 -0.6939
  460MOL0     C61976   0.855   2.651   7.089 -0.5332 -0.1273  0.1024
  460MOL0     C61977   0.860   2.721   6.956  0.1488 -0.0167 -0.3654
  460MOL0     C61978   0.732   2.714   6.878  1.2614 -0.0054 -0.0394
  460MOL0     C61979   0.690   2.573   6.834 -0.0420 -0.5522  0.1815
  460MOL0     C61980   0.586   2.596   6.721  0.1915  1.4889 -0.1383
  460MOL0     C61981   0.516   2.474   6.661 -1.0908  0.2805 -0.3585
  460MOL0     N61982   0.459   2.385   6.762 -0.8895 -0.0632 -0.8243
  460MOL0     C61983   0.326   2.355   6.789  0.3534 -0.2225  0.3371
  460MOL0     C61984   0.319   2.251   6.880  0.7247  0.0817 -0.9557
  460MOL0     C61985   0.192   2.206   6.945 -0.0820  0.8650  0.4607
  460MOL0     C61986   0.177   2.053   6.934  0.5252 -0.0086  0.3831
  460MOL0     C61987   0.031   2.019   6.980 -1.2549 -0.4391 -0.4943
  460MOL0     C61988  -0.004   1.879   6.927 -0.4010  0.6545  1.0033
  460MOL0     O61989   0.074   1.800   7.013  0.1869  0.4384 -0.0190
  460MOL0     C61990   0.107   1.682   6.960 -0.6618 -1.2362 -0.5474
  460MOL0     C61991   0.059   1.623   6.839  0.4466 -0.0127 -0.2314
  460MOL0     C61992   0.098   1.501   6.802 -0.4591 -0.2059 -0.4146
  460MOL0     C61993   0.208   1.447   6.859 -0.1126  0.5752 -0.1415
  460MOL0     C61994   0.251   1.317   6.809  0.5037  0.3199  0.9878
  460MOL0     O61995   0.209   1.279   6.683 -0.1922  0.1690 -0.5859
  460MOL0     C61996   0.250   1.160   6.633  0.0004 -0.1004 -0.6920
  460MOL0     C61997   0.388   1.125   6.632 -1.0499 -0.0344  0.3882
  460MOL0     C61998   0.433   0.998   6.586 -0.2899 -0.0164 -0.6727
  460MOL0     C61999   0.345   0.923   6.516  0.2047  0.0136  0.3516
  460MOL0     O62000   0.391   0.810   6.452  0.2911 -0.0412  0.3719
  460MOL0     C62001   0.318   0.691   6.488 -0.4495  0.0881  0.8290
  460MOL0     C62002   0.383   0.561   6.429 -0.1668  0.1612 -0.4126
  460MOL0     C62003   0.474   0.577   6.320  0.0353  0.0379  0.7949
  460MOL0     C62004   0.501   0.446   6.241 -1.0296  0.4465 -0.0767
  460MOL0     C62005   0.595   0.473   6.118 -0.6760  0.0178 -0.3611
  460MOL0     C62006   0.592   0.347   6.026  0.2096 -0.2533 -0.3281
  460MOL0     C62007   0.738   0.339   5.952 -0.1052  0.0986  0.2903
  460MOL0     C62008   0.747   0.447   5.847  0.0856 -0.0438  0.0472
  460MOL0    Cl62009   0.840   0.586   5.911  0.2006  0.5729  0.0599
  460MOL0     C62010   0.202   0.959   6.501  0.1320  0.0469  0.1207
  460MOL0     C62011   0.155   1.077   6.574  0.2861  0.1274 -0.0673
  460MOL0     O62012   0.313   1.250   6.893 -0.6526  0.2199 -0.0183
  460MOL0     C62013   0.265   1.507   6.974  0.6478 -0.4325  0.9331
  460MOL0     C62014   0.211   1.624   7.028 -0.1914  0.3499 -0.5251
  460MOL0     N62015   0.457   2.218   6.900  0.1657  0.3318  0.3669
  460MOL0     N62016   0.534   2.288   6.828  0.0042 -0.9623 -0.5941
  460MOL0     C62017   1.266   2.492   7.400  0.5671  0.0442 -0.0883
  460MOL0     C62018   1.361   2.504   7.510  0.5241 -0.1723  0.7214
  460MOL0     C62019   1.522   2.437   7.942 -0.1585 -0.1006 -0.4613
  460MOL0     C62020   1.498   2.456   8.082 -0.4341  0.0719  0.5373
  460MOL0     C62021   1.604   2.468   8.171 -1.0350  0.3912 -0.0854
  460MOL0     C62022   1.737   2.436   8.136 -0.2279 -0.3176 -0.2709
  460MOL0     O62023   1.843   2.428   8.227  0.2225 -0.2881 -0.0187
  460MOL0     C62024   1.872   2.292   8.252  0.1549  0.3266 -0.2797
  460MOL0     C62025   1.975   2.271   8.364  0.4944  0.5681  0.5374
  460MOL0     C62026   1.919   2.332   8.493  0.6470  0.0219  1.1524
  460MOL0     C62027   1.945   2.244   8.623 -0.0186 -0.1793 -0.4498
  460MOL0     C62028   1.868   2.118   8.606  0.3081  0.3434 -0.4727
  460MOL0     C62029   1.821   2.009   8.591  0.0017  0.0041 -0.3585
  460MOL0     C62030   1.756   2.411   8.003 -0.6251 -0.1030  0.4449
  460MOL0     C62031   1.661   2.414   7.904  0.1677  0.1132  0.3022
  460MOL0     C62032   1.687   2.373   7.765  0.3214  0.8579 -0.8997
  460MOL0     H62033   1.127   2.536   7.755  0.7505 -0.2151  1.0951
  460MOL0     H62034   0.984   2.544   7.575 -0.9006  0.5434 -2.7077
  460MOL0     H62035   0.835   2.484   7.282  1.9733 -3.0389 -0.7347
  460MOL0     H62036   0.900   2.602   7.391 -1.4679  1.3120 -0.7677
  460MOL0     H62037   1.038   2.548   7.119 -2.1043 -0.6628 -1.8505
  460MOL0     H62038   1.057   2.691   7.205  0.2020 -0.7810  2.1277
  460MOL0     H62039   0.788   2.717   7.144 -3.6366 -2.5315 -0.4513
  460MOL0     H62040   0.813   2.551   7.071 -0.0931 -0.3671  0.3790
  460MOL0     H62041   0.899   2.819   6.983 -0.9418  0.4564 -0.4827
  460MOL0     H62042   0.933   2.666   6.895  1.2582  1.3389 -0.3092
  460MOL0     H62043   0.644   2.759   6.925 -0.3833 -0.9970 -1.9980
  460MOL0     H62044   0.734   2.777   6.788 -1.0031 -1.4686 -1.2115
  460MOL0     H62045   0.773   2.514   6.795 -1.2754 -3.0488  1.0893
  460MOL0     H62046   0.644   2.513   6.913 -0.8304 -1.4845 -0.9477
  460MOL0     H62047   0.628   2.642   6.631 -0.3569  2.4371  0.0654
  460MOL0     H62048   0.506   2.658   6.763 -1.6678 -1.4843  0.9786
  460MOL0     H62049   0.433   2.508   6.598 -0.6499  0.6253 -0.7543
  460MOL0     H62050   0.595   2.423   6.605  1.1711  2.3219  0.8461
  460MOL0     H62051   0.242   2.400   6.737 -1.3233 -1.1074  2.1394
  460MOL0     H62052   0.201   2.224   7.053  4.2529  0.4227  0.3825
  460MOL0     H62053   0.111   2.256   6.892 -1.7001 -1.8247  0.2342
  460MOL0     H62054   0.189   2.004   6.837  1.2452  0.2175  0.3527
  460MOL0     H62055   0.261   2.005   6.985  1.2081 -1.3153 -1.8307
  460MOL0     H62056  -0.043   2.093   6.950 -0.3567  0.6875 -0.0370
  460MOL0     H62057   0.025   2.023   7.089  2.2801 -1.7904 -0.1024
  460MOL0     H62058   0.030   1.866   6.824  0.7195  0.6215  1.3612
  460MOL0     H62059  -0.109   1.854   6.943 -0.8078  2.2399  1.0121
  460MOL0     H62060  -0.033   1.665   6.800  0.4053  0.8008  0.6891
  460MOL0     H62061   0.030   1.451   6.733 -3.6454  3.8093 -0.5675
  460MOL0     H62062   0.455   1.197   6.677  1.6495 -0.7140 -2.2293
  460MOL0     H62063   0.532   0.961   6.607  0.3012  1.1140 -1.3485
  460MOL0     H62064   0.325   0.690   6.597  0.4984  0.2040  0.7786
  460MOL0     H62065   0.215   0.703   6.453  0.1479  3.4089 -0.1930
  460MOL0     H62066   0.432   0.503   6.508 -1.0320  1.5365  1.2022
  460MOL0     H62067   0.296   0.501   6.400 -0.4046  0.9486 -1.3765
  460MOL0     H62068   0.426   0.649   6.253  1.8406  1.3312  0.8172
  460MOL0     H62069   0.567   0.621   6.356 -1.6773  3.2407  1.6664
  460MOL0     H62070   0.397   0.418   6.223 -1.9020  1.9885  2.0401
  460MOL0     H62071   0.547   0.377   6.313  3.0307  3.5539  0.6907
  460MOL0     H62072   0.694   0.493   6.162 -0.7427 -2.7078  1.2534
  460MOL0     H62073   0.559   0.563   6.067  0.2403  1.5003  1.4617
  460MOL0     H62074   0.571   0.250   6.073  0.8282  0.2350  1.0098
  460MOL0     H62075   0.512   0.358   5.952 -0.4720 -3.4868 -0.2244
  460MOL0     H62076   0.742   0.242   5.903  2.1057 -0.5793  1.6948
  460MOL0     H62077   0.816   0.354   6.027  0.3426 -1.7756  0.2272
  460MOL0     H62078   0.808   0.408   5.764 -0.1300  1.1950 -0.7179
  460MOL0     H62079   0.650   0.477   5.808 -0.2526 -2.6666 -1.4081
  460MOL0     H62080   0.128   0.895   6.454 -1.4214 -1.5340  4.2181
  460MOL0     H62081   0.053   1.113   6.580 -0.5526 -2.0384 -0.3866
  460MOL0     H62082   0.346   1.444   7.010  0.1012 -1.5226  0.3093
  460MOL0     H62083   0.253   1.667   7.118 -3.7574  0.5560  1.1790
  460MOL0     H62084   1.305   2.467   7.302  2.3350 -5.6558  1.6585
  460MOL0     H62085   1.459   2.498   7.464 -0.1585 -1.6009 -0.6171
  460MOL0     H62086   1.397   2.473   8.116  0.9389  1.4542  4.5716
  460MOL0     H62087   1.576   2.515   8.265 -0.9048  1.9559 -0.7920
  460MOL0     H62088   1.924   2.245   8.168  2.3099 -1.9000  2.1253
  460MOL0     H62089   1.789   2.222   8.264  1.4036 -1.9223 -3.3908
  460MOL0     H62090   2.075   2.312   8.347  1.0857 -0.2803  1.8129
  460MOL0     H62091   1.996   2.164   8.366  3.5107  1.0893  1.0280
  460MOL0     H62092   1.815   2.362   8.477  0.5320 -1.4027 -1.0597
  460MOL0     H62093   1.963   2.431   8.509  0.2878  0.0339  2.1415
  460MOL0     H62094   2.049   2.211   8.612  0.0358  0.6836 -3.7010
  460MOL0     H62095   1.926   2.305   8.712  1.2027  1.4894 -1.2627
  460MOL0     H62096   1.762   1.924   8.561  1.6645 -1.3460  0.0545
  460MOL0     H62097   1.854   2.394   7.960 -1.2193  1.1991 -1.5751
  460MOL0     H62098   1.647   2.446   7.693 -2.7933  0.2083 -0.0072
  460MOL0     H62099   1.788   2.332   7.765 -0.6836 -2.1803  2.3598
  460MOL0     H62100   1.633   2.279   7.748  4.0493 -1.7698  0.5952
  461MOL0     O62101   4.935   6.663   1.856  0.7571 -0.0267  0.0487
  461MOL0     C62102   5.036   6.677   1.924  0.9438  0.2093  0.0050
  461MOL0     O62103   5.124   6.783   1.911 -1.0576  0.2592  0.1212
  461MOL0     C62104   5.097   6.885   1.826  0.7437 -0.4167  0.1021
  461MOL0     C62105   5.095   6.869   1.689 -0.4381 -0.5819  0.6052
  461MOL0     C62106   5.080   6.976   1.601  0.3466  0.0966 -0.0995
  461MOL0     C62107   5.073   7.096   1.649  1.3730  0.6552 -1.0602
  461MOL0     O62108   5.063   7.204   1.566  1.0574  0.0554  0.1068
  461MOL0     C62109   5.188   7.255   1.508  0.1468 -0.0930 -0.8927
  461MOL0     C62110   5.162   7.382   1.416 -1.2487  0.1706  0.2099
  461MOL0     C62111   5.252   7.386   1.294  1.6170 -0.1920  0.3297
  461MOL0     C62112   5.263   7.522   1.216  0.4608 -0.0970 -1.1546
  461MOL0     C62113   5.349   7.481   1.095 -0.6252  0.0060  0.7594
  461MOL0     C62114   5.496   7.453   1.112 -0.5263  0.0884  0.0043
  461MOL0     C62115   5.564   7.431   0.975  0.6234 -1.0688 -0.2754
  461MOL0     C62116   5.583   7.280   0.942 -0.7207  0.9086  0.1508
  461MOL0     N62117   5.654   7.268   0.812  0.0054  0.9154 -0.0749
  461MOL0     C62118   5.776   7.222   0.796 -0.0773 -0.0594 -0.1492
  461MOL0     C62119   5.795   7.214   0.664  0.9670  0.3318 -0.2672
  461MOL0     C62120   5.916   7.164   0.583 -0.2322  0.6727 -0.1952
  461MOL0     C62121   5.958   7.279   0.492  0.5264 -0.4661 -0.0588
  461MOL0     C62122   5.996   7.216   0.357 -0.4762 -0.1198 -0.8009
  461MOL0     C62123   5.878   7.160   0.267 -0.2587  0.0456 -0.9056
  461MOL0     O62124   5.928   7.100   0.153 -0.4841  0.7344  0.6934
  461MOL0     C62125   6.001   7.176   0.057  0.1728  0.3760 -0.2287
  461MOL0     C62126   6.094   7.099  -0.027 -0.3960  0.1338 -0.3160
  461MOL0     C62127   6.169   7.163  -0.126  0.2208  0.1055 -0.2915
  461MOL0     C62128   6.158   7.310  -0.150 -1.5186  0.4178  0.0084
  461MOL0     C62129   6.250   7.375  -0.248 -0.3230  0.2645 -0.4405
  461MOL0     O62130   6.263   7.515  -0.241  0.0033 -0.0227  0.7117
  461MOL0     C62131   6.395   7.555  -0.257  0.5680 -0.2899 -0.0540
  461MOL0     C62132   6.409   7.654  -0.354 -0.2790 -0.3085  1.2620
  461MOL0     C62133   6.535   7.707  -0.376  0.2346 -0.8007  0.4232
  461MOL0     C62134   6.655   7.669  -0.306  0.9754 -0.1049  0.2250
  461MOL0     O62135   6.773   7.707  -0.338 -0.1914 -0.8178  0.1015
  461MOL0     C62136   6.905   7.655  -0.307  0.7952 -0.7526 -0.2687
  461MOL0     C62137   6.936   7.672  -0.161  0.5343  0.1257  0.9730
  461MOL0     C62138   7.081   7.710  -0.155  0.0939  0.5515  0.2592
  461MOL0     C62139   7.124   7.750  -0.019 -0.1539 -0.1071 -0.0012
  461MOL0     C62140   7.265   7.800  -0.025 -0.1259  0.9444 -0.2816
  461MOL0     C62141   7.325   7.821   0.113 -1.2253 -0.8933  0.2550
  461MOL0     C62142   7.452   7.901   0.114  0.2000 -0.2329 -0.5027
  461MOL0     C62143   7.497   7.913   0.262  0.4508  0.0538 -0.1932
  461MOL0    Cl62144   7.669   7.992   0.264 -0.3668  0.1631  0.0686
  461MOL0     C62145   6.623   7.579  -0.195  0.5173 -0.2579  0.2061
  461MOL0     C62146   6.501   7.513  -0.177 -0.2317 -0.1020 -0.1537
  461MOL0     O62147   6.322   7.300  -0.320 -1.0332 -0.4381 -0.4453
  461MOL0     C62148   6.059   7.381  -0.077  0.3286 -0.6677  0.1646
  461MOL0     C62149   5.977   7.312   0.018  0.5098 -0.0988 -0.1412
  461MOL0     N62150   5.678   7.255   0.596  0.3978 -0.2995 -0.0971
  461MOL0     N62151   5.592   7.276   0.695  0.1245  0.4877  0.2471
  461MOL0     C62152   5.066   7.124   1.785  0.2199  0.1318 -0.2917
  461MOL0     C62153   5.076   7.014   1.873 -0.1671 -0.2493  0.3364
  461MOL0     C62154   5.080   6.583   2.027  1.3803  0.2204 -0.0177
  461MOL0     C62155   5.172   6.623   2.125 -0.2545  0.0976  0.0716
  461MOL0     C62156   5.209   6.537   2.230 -0.8093  0.1399 -0.7089
  461MOL0     C62157   5.141   6.414   2.244 -0.4658  0.3559  0.1430
  461MOL0     O62158   5.184   6.317   2.340 -0.3168 -0.0359 -0.6608
  461MOL0     C62159   5.263   6.360   2.444 -0.0198 -0.2997 -2.0431
  461MOL0     C62160   5.270   6.246   2.553 -0.2526 -0.2735  0.9488
  461MOL0     C62161   5.335   6.115   2.500  0.5224  1.2484  0.4253
  461MOL0     C62162   5.339   6.004   2.597  0.3606 -0.3669 -0.1829
  461MOL0     C62163   5.205   5.949   2.620  0.3658 -0.3895 -0.0726
  461MOL0     C62164   5.084   5.929   2.632  0.9133  0.2030  0.4424
  461MOL0     C62165   5.045   6.382   2.153 -1.5155  0.0414  0.5825
  461MOL0     C62166   5.007   6.467   2.052  0.9591 -0.0148 -0.3149
  461MOL0     C62167   4.901   6.401   1.961 -0.0142 -0.2976 -0.4473
  461MOL0     H62168   5.122   6.769   1.655  0.8813  0.1366 -0.5690
  461MOL0     H62169   5.085   6.945   1.497  1.7963  1.0029 -0.3194
  461MOL0     H62170   5.249   7.295   1.589 -0.3712 -0.5642 -0.2580
  461MOL0     H62171   5.228   7.168   1.456 -1.8673 -1.6674  0.0381
  461MOL0     H62172   5.176   7.469   1.482  0.0109  0.4036 -0.3258
  461MOL0     H62173   5.060   7.395   1.381 -0.7143 -1.1459 -2.0769
  461MOL0     H62174   5.221   7.311   1.221 -3.5662 -0.5104  2.4226
  461MOL0     H62175   5.352   7.368   1.334  0.1490 -3.4228  3.0733
  461MOL0     H62176   5.162   7.553   1.189 -0.6411 -2.8921 -0.5850
  461MOL0     H62177   5.308   7.596   1.282 -3.9182 -0.6059  2.9623
  461MOL0     H62178   5.300   7.404   1.034  0.1262  0.0622  0.0727
  461MOL0     H62179   5.335   7.567   1.030  0.3973 -1.7385 -1.9573
  461MOL0     H62180   5.547   7.531   1.169  3.5666 -0.9785 -1.8120
  461MOL0     H62181   5.509   7.361   1.169 -3.0798  0.9742  2.2186
  461MOL0     H62182   5.658   7.487   0.982 -0.4091  0.4706  3.0419
  461MOL0     H62183   5.505   7.472   0.893  0.1085 -3.4774 -1.2097
  461MOL0     H62184   5.644   7.234   1.020 -1.4982  0.7471  0.6770
  461MOL0     H62185   5.484   7.233   0.936  0.2367 -1.0794 -0.7620
  461MOL0     H62186   5.849   7.205   0.875  0.7433 -2.3935 -1.3274
  461MOL0     H62187   5.993   7.154   0.660 -1.8380 -0.6802  1.3430
  461MOL0     H62188   5.900   7.073   0.525  2.3603  1.0797 -1.6649
  461MOL0     H62189   5.884   7.356   0.469  3.0191  0.9642 -4.4058
  461MOL0     H62190   6.050   7.323   0.532  0.0600  0.3727  0.1174
  461MOL0     H62191   6.081   7.147   0.366 -1.4287 -1.1714  0.5843
  461MOL0     H62192   6.033   7.299   0.296  0.6986  0.7719  1.0327
  461MOL0     H62193   5.821   7.249   0.240  0.3455 -0.0115 -2.4242
  461MOL0     H62194   5.820   7.087   0.324  0.8940 -1.4134 -1.5597
  461MOL0     H62195   6.109   6.994  -0.006 -0.1127  0.0714 -0.8153
  461MOL0     H62196   6.238   7.095  -0.175 -0.1372  0.0309 -0.6940
  461MOL0     H62197   6.326   7.691  -0.414 -0.7543  0.8671  2.5751
  461MOL0     H62198   6.562   7.771  -0.459  2.1232 -0.7642  1.0192
  461MOL0     H62199   6.922   7.549  -0.329  3.2183 -0.1252 -1.8159
  461MOL0     H62200   6.980   7.698  -0.374  1.6603  0.3745  1.3619
  461MOL0     H62201   6.877   7.747  -0.108  1.6020  1.6208  0.1238
  461MOL0     H62202   6.924   7.577  -0.108  1.4125 -0.9858 -0.7574
  461MOL0     H62203   7.145   7.630  -0.193  0.9351  2.2954 -2.3020
  461MOL0     H62204   7.101   7.797  -0.219  0.4369  1.6721  1.8193
  461MOL0     H62205   7.123   7.660   0.042 -1.7652  0.1999  0.4741
  461MOL0     H62206   7.048   7.820   0.018 -0.4544 -0.8281  0.7788
  461MOL0     H62207   7.259   7.899  -0.072  1.3859  2.0249  1.6240
  461MOL0     H62208   7.327   7.723  -0.071  0.7383  0.4764  1.5778
  461MOL0     H62209   7.245   7.869   0.169  0.1725  0.5221  1.1084
  461MOL0     H62210   7.349   7.721   0.149  1.0652 -1.1138 -1.6755
  461MOL0     H62211   7.432   8.001   0.075  1.9150  0.6027  0.5830
  461MOL0     H62212   7.531   7.855   0.054 -0.1560  0.9367 -1.9099
  461MOL0     H62213   7.428   7.967   0.327  0.5043  1.2576 -1.0978
  461MOL0     H62214   7.513   7.815   0.308  1.7376 -0.0662 -0.8514
  461MOL0     H62215   6.700   7.522  -0.145  0.9749 -2.8705 -3.0914
  461MOL0     H62216   6.497   7.429  -0.108  1.8657  0.0651  0.2391
  461MOL0     H62217   6.054   7.487  -0.097  0.9967 -0.8615 -1.1901
  461MOL0     H62218   5.902   7.374   0.067 -1.0074 -1.5546 -0.5144
  461MOL0     H62219   5.045   7.225   1.817  0.4600  0.3773 -0.8891
  461MOL0     H62220   5.066   7.037   1.979  0.7681 -3.3212  1.1695
  461MOL0     H62221   5.232   6.712   2.107  1.4859 -0.7314  1.4685
  461MOL0     H62222   5.288   6.560   2.300 -0.2715 -0.6172 -1.0446
  461MOL0     H62223   5.209   6.442   2.490 -1.7931 -1.1895 -2.4480
  461MOL0     H62224   5.366   6.384   2.414 -0.6714  0.8144 -3.5055
  461MOL0     H62225   5.166   6.235   2.586 -0.7735  1.3754 -0.0333
  461MOL0     H62226   5.326   6.277   2.642  0.0129  1.7150  0.1336
  461MOL0     H62227   5.436   6.133   2.462 -0.2277 -1.0424 -3.0952
  461MOL0     H62228   5.276   6.093   2.410 -0.8531  0.9431  1.3640
  461MOL0     H62229   5.400   5.921   2.561 -0.4624 -0.5961 -1.0765
  461MOL0     H62230   5.401   6.030   2.684 -0.2773  1.9647 -0.3633
  461MOL0     H62231   4.977   5.934   2.635  0.6296  0.6010 -3.9529
  461MOL0     H62232   4.997   6.286   2.162 -1.8481  0.2985  1.8024
  461MOL0     H62233   4.808   6.458   1.970 -0.7276 -0.9365 -3.0866
  461MOL0     H62234   4.926   6.410   1.855 -3.3803  2.1627 -1.2013
  461MOL0     H62235   4.868   6.301   1.991  0.7621 -0.8057 -1.2533
  462MOL0     O62236   1.314   9.709  10.061  0.4973 -0.3217  0.4284
  462MOL0     C62237   1.305   9.814  10.115  0.1555 -0.3592  1.2713
  462MOL0     O62238   1.287   9.929  10.041 -0.1144 -0.1316 -0.3524
  462MOL0     C62239   1.219   9.924   9.920  0.2774  0.2353 -1.6884
  462MOL0     C62240   1.266  10.008   9.819 -0.7065  0.1856 -1.0392
  462MOL0     C62241   1.203  10.000   9.700  0.7029 -0.0976  0.7141
  462MOL0     C62242   1.091   9.926   9.674 -0.0772  0.3677  0.1564
  462MOL0     O62243   1.029   9.949   9.550  0.1876  0.2167 -0.1796
  462MOL0     C62244   0.886   9.938   9.540 -0.2081  0.0968 -0.4603
  462MOL0     C62245   0.819  10.050   9.454 -0.5610 -0.0713 -0.3056
  462MOL0     C62246   0.829  10.189   9.526 -0.3854 -0.7813  0.3691
  462MOL0     C62247   0.964  10.259   9.491  0.5516  0.2930 -0.1407
  462MOL0     C62248   1.044  10.315   9.610 -0.5182 -0.0022 -0.9955
  462MOL0     C62249   1.172  10.393   9.546 -0.3567 -0.1301 -0.3202
  462MOL0     C62250   1.283  10.439   9.647 -0.1233 -0.0637 -0.5290
  462MOL0     C62251   1.228  10.518   9.769 -0.0190  0.3058  0.3413
  462MOL0     N62252   1.194  10.436   9.878  0.5387 -0.3413 -0.0799
  462MOL0     C62253   1.071  10.428   9.933  0.5440  0.6617 -0.2246
  462MOL0     C62254   1.090  10.343  10.036  0.2489  0.9832 -0.1502
  462MOL0     C62255   0.980  10.304  10.143 -0.2843  0.9263  0.5774
  462MOL0     C62256   0.850  10.242  10.082  0.3914 -0.1841  0.1576
  462MOL0     C62257   0.874  10.127   9.993  0.5692 -0.8337  0.2938
  462MOL0     C62258   0.767  10.034   9.951 -0.0875  0.6088 -0.3706
  462MOL0     O62259   0.681  10.096   9.859  0.2341  0.9387  0.1156
  462MOL0     C62260   0.570  10.026   9.813  0.3229 -0.3805 -0.7208
  462MOL0     C62261   0.472  10.097   9.753 -0.0937  0.1401  0.0828
  462MOL0     C62262   0.357  10.034   9.694 -0.5256 -0.1000  0.5672
  462MOL0     C62263   0.341   9.894   9.695 -0.6951 -0.5021 -0.3043
  462MOL0     C62264   0.232   9.828   9.621 -0.1164 -0.3768  0.1119
  462MOL0     O62265   0.119   9.901   9.596  0.1580  0.6515 -0.5675
  462MOL0     C62266  -0.007   9.847   9.562 -0.8613  0.1616 -0.5206
  462MOL0     C62267  -0.100   9.923   9.492  0.2885 -0.1845 -0.3383
  462MOL0     C62268  -0.237   9.877   9.486 -0.5138 -0.1650  0.5000
  462MOL0     C62269  -0.268   9.753   9.528  0.9293 -1.0059  0.9123
  462MOL0     O62270  -0.396   9.722   9.493 -0.2768 -0.2332 -0.2210
  462MOL0     C62271  -0.422   9.589   9.458  0.1427  0.3260  0.6847
  462MOL0     C62272  -0.538   9.583   9.346 -1.1454  0.1045  0.2904
  462MOL0     C62273  -0.504   9.668   9.218  0.0960 -0.1557 -0.5607
  462MOL0     C62274  -0.635   9.670   9.136 -0.4683 -0.3499 -0.0228
  462MOL0     C62275  -0.609   9.680   8.985  1.0502 -0.1174 -0.5820
  462MOL0     C62276  -0.724   9.613   8.902 -0.5519  1.1814  0.0528
  462MOL0     C62277  -0.849   9.702   8.900 -0.0326  0.1051 -0.2114
  462MOL0     C62278  -0.977   9.630   8.926 -0.1681 -0.4377 -0.8023
  462MOL0    Cl62279  -0.978   9.523   9.061  0.1177 -0.2094 -0.3362
  462MOL0     C62280  -0.174   9.683   9.598 -0.0028  0.1157  0.4932
  462MOL0     C62281  -0.042   9.722   9.613  0.4416 -0.5001  0.8043
  462MOL0     O62282   0.248   9.706   9.602 -0.0859 -0.7209 -0.2128
  462MOL0     C62283   0.440   9.829   9.768 -0.2557  0.5843 -0.2189
  462MOL0     C62284   0.548   9.888   9.825  0.6515 -0.8731  0.1320
  462MOL0     N62285   1.223  10.299  10.040 -0.2702 -0.7772 -0.8798
  462MOL0     N62286   1.286  10.356   9.946 -0.2951 -0.0747 -0.1372
  462MOL0     C62287   1.047   9.836   9.770 -1.0843 -0.7026 -0.2753
  462MOL0     C62288   1.097   9.851   9.902  0.2049 -0.1947 -0.4466
  462MOL0     C62289   1.332   9.818  10.262  0.8755 -0.3277 -0.9839
  462MOL0     C62290   1.308   9.954  10.313 -0.0097  0.0659 -0.0867
  462MOL0     C62291   1.333   9.983  10.445 -0.3868  1.1698  0.4307
  462MOL0     C62292   1.398   9.892  10.534  0.6336 -0.1720 -0.0880
  462MOL0     O62293   1.405   9.917  10.666  0.6144 -0.4865 -0.0485
  462MOL0     C62294   1.529   9.963  10.702  0.6462  0.0933 -0.9335
  462MOL0     C62295   1.545   9.949  10.851 -0.5590  0.5877 -1.7693
  462MOL0     C62296   1.549   9.795  10.889 -0.1733 -0.6147 -0.0911
  462MOL0     C62297   1.607   9.774  11.031  0.9936 -0.7509  0.1649
  462MOL0     C62298   1.520   9.851  11.123 -0.6766  0.4377 -1.0040
  462MOL0     C62299   1.457   9.922  11.198 -0.4605  0.8025  0.2201
  462MOL0     C62300   1.420   9.762  10.487 -0.0998 -0.7530  0.2390
  462MOL0     C62301   1.398   9.726  10.354 -0.2657 -0.2846 -0.1346
  462MOL0     C62302   1.444   9.589  10.299 -0.7158  0.1821 -0.1063
  462MOL0     H62303   1.344  10.082   9.832 -0.3637 -0.5422  1.4743
  462MOL0     H62304   1.245  10.064   9.622 -1.9085  1.2785  0.3233
  462MOL0     H62305   0.873   9.838   9.497  0.3443  1.0641 -3.0072
  462MOL0     H62306   0.855   9.948   9.645  3.3058  1.0446  0.6282
  462MOL0     H62307   0.714  10.018   9.446 -0.6265  0.5787 -2.6637
  462MOL0     H62308   0.852  10.054   9.350 -3.7353  4.8362 -1.5181
  462MOL0     H62309   0.818  10.166   9.633  1.9125 -0.3832  0.7415
  462MOL0     H62310   0.749  10.255   9.492  0.7392  1.0183  1.0400
  462MOL0     H62311   1.030  10.181   9.452 -0.0542 -0.2216 -0.1480
  462MOL0     H62312   0.963  10.326   9.405  2.1520  1.4862  0.7217
  462MOL0     H62313   0.984  10.381   9.673 -0.6278  0.5523 -1.6699
  462MOL0     H62314   1.068  10.231   9.675  2.0984  0.2525 -1.4991
  462MOL0     H62315   1.219  10.318   9.482 -1.7576 -1.7029  0.4374
  462MOL0     H62316   1.124  10.480   9.500 -2.2111 -1.8903 -1.8832
  462MOL0     H62317   1.350  10.513   9.601  0.5147  0.2010  0.7733
  462MOL0     H62318   1.342  10.354   9.681 -0.9235 -0.3637  0.1188
  462MOL0     H62319   1.294  10.601   9.796 -0.2512  0.1606  1.4191
  462MOL0     H62320   1.135  10.561   9.731 -1.3573 -0.6705  2.3079
  462MOL0     H62321   0.977  10.480   9.912  0.1868  1.0894  2.1444
  462MOL0     H62322   1.029  10.244  10.221 -0.4583 -0.3475 -0.2698
  462MOL0     H62323   0.941  10.392  10.196 -2.2560 -0.1395  0.9699
  462MOL0     H62324   0.799  10.210  10.174  2.7422  1.4218  2.1807
  462MOL0     H62325   0.796  10.320  10.028  0.6158  0.1560  0.4189
  462MOL0     H62326   0.952  10.065  10.038  1.2344 -0.2653 -0.0621
  462MOL0     H62327   0.929  10.165   9.906  1.2853 -1.2334  0.5634
  462MOL0     H62328   0.699  10.001  10.030 -3.1118 -2.3983 -3.8446
  462MOL0     H62329   0.809   9.950   9.894 -0.6095 -0.0497  0.1936
  462MOL0     H62330   0.480  10.206   9.746  3.4321  0.4281  4.4466
  462MOL0     H62331   0.292  10.108   9.648 -1.0103 -0.8150  0.0757
  462MOL0     H62332  -0.079  10.021   9.451  2.4628  0.4096  1.9756
  462MOL0     H62333  -0.318   9.938   9.445 -1.0243 -0.1983  1.4340
  462MOL0     H62334  -0.339   9.533   9.413 -1.9939 -2.5627  0.0203
  462MOL0     H62335  -0.460   9.531   9.542  0.2762 -2.8444 -1.2708
  462MOL0     H62336  -0.562   9.481   9.316 -0.1889 -0.3947  1.1331
  462MOL0     H62337  -0.632   9.624   9.383 -2.5417 -2.5134 -0.1664
  462MOL0     H62338  -0.473   9.771   9.239  2.3615 -1.2192  1.7856
  462MOL0     H62339  -0.427   9.618   9.157  0.5464 -2.0895  1.4822
  462MOL0     H62340  -0.694   9.757   9.167  3.3316  2.6571 -0.3810
  462MOL0     H62341  -0.697   9.583   9.160 -2.9954  2.4026  4.8309
  462MOL0     H62342  -0.515   9.626   8.972  0.6572 -0.9185 -0.2087
  462MOL0     H62343  -0.583   9.781   8.951  1.9796 -0.0495  0.2709
  462MOL0     H62344  -0.682   9.601   8.802  0.3672 -2.1358  0.6934
  462MOL0     H62345  -0.735   9.507   8.928 -0.4061  1.6356  2.1807
  462MOL0     H62346  -0.870   9.749   8.803  0.4511  1.6116  0.3744
  462MOL0     H62347  -0.832   9.784   8.971  1.0915  0.2763 -0.6512
  462MOL0     H62348  -1.052   9.709   8.917  1.5792  1.8806  2.8023
  462MOL0     H62349  -1.007   9.572   8.838  1.9307 -0.3346 -1.6502
  462MOL0     H62350  -0.195   9.581   9.628  1.2847 -0.9051 -1.8467
  462MOL0     H62351   0.028   9.658   9.665  1.9838  1.2515  1.0173
  462MOL0     H62352   0.432   9.721   9.767 -0.2380  0.4058  3.4896
  462MOL0     H62353   0.623   9.819   9.862 -0.3735 -2.5086 -0.7041
  462MOL0     H62354   0.969   9.761   9.757 -1.1407 -0.4595 -1.5549
  462MOL0     H62355   1.059   9.794   9.986 -0.1571  1.0314  0.2459
  462MOL0     H62356   1.259  10.034  10.259 -0.7627  0.0330  0.5447
  462MOL0     H62357   1.300  10.084  10.469  0.0538  1.9478 -1.9145
  462MOL0     H62358   1.529  10.069  10.676  4.0523  0.3314 -0.4072
  462MOL0     H62359   1.616   9.916  10.655  2.2306  1.1202  0.8587
  462MOL0     H62360   1.458   9.993  10.900 -0.6251 -3.8512  2.9283
  462MOL0     H62361   1.636   9.995  10.890  0.5758 -0.4808 -3.0716
  462MOL0     H62362   1.602   9.740  10.811 -1.4927 -0.3855 -1.1929
  462MOL0     H62363   1.449   9.752  10.875 -0.0637 -1.6134  1.7569
  462MOL0     H62364   1.603   9.671  11.067  0.1742 -1.0183 -0.6461
  462MOL0     H62365   1.711   9.807  11.029  0.6199  0.5494  0.8893
  462MOL0     H62366   1.402   9.986  11.264 -0.4986 -1.1759  2.2578
  462MOL0     H62367   1.443   9.675  10.547  0.3642 -0.8114 -0.0157
  462MOL0     H62368   1.357   9.533  10.262 -0.2323 -1.3031  0.9048
  462MOL0     H62369   1.513   9.596  10.215 -0.6640 -3.1796 -0.5084
  462MOL0     H62370   1.498   9.536  10.378  0.1029 -1.1142 -1.4740
  463MOL0     O62371   4.563   1.258   1.052  0.4915 -0.1127 -0.2859
  463MOL0     C62372   4.566   1.197   1.158  0.6864 -0.6928  0.7273
  463MOL0     O62373   4.623   1.243   1.267  0.5494 -0.0989 -0.3815
  463MOL0     C62374   4.718   1.339   1.251  0.4726 -0.9816  0.7665
  463MOL0     C62375   4.675   1.473   1.248 -0.3167 -0.2595 -0.1804
  463MOL0     C62376   4.768   1.574   1.212  1.0345 -0.0834  0.0063
  463MOL0     C62377   4.901   1.543   1.183 -0.5834  0.8334 -0.9306
  463MOL0     O62378   4.982   1.650   1.182  0.3345 -0.7608 -0.4549
  463MOL0     C62379   5.098   1.636   1.263 -0.6929 -0.9205 -0.4493
  463MOL0     C62380   5.122   1.775   1.327  0.4723 -0.4338 -0.4093
  463MOL0     C62381   5.023   1.792   1.451 -0.3990 -0.3968 -0.6492
  463MOL0     C62382   5.030   1.933   1.513  0.6968 -0.6968  0.0846
  463MOL0     C62383   4.927   1.939   1.622  0.5888 -1.0222 -0.2406
  463MOL0     C62384   4.933   2.070   1.693 -0.3498  0.6851 -0.3737
  463MOL0     C62385   4.800   2.092   1.771 -0.1128 -0.1351 -0.4683
  463MOL0     C62386   4.805   2.226   1.845  0.5246  0.5086  0.5378
  463MOL0     N62387   4.676   2.240   1.919  0.4160  0.2889  0.0012
  463MOL0     C62388   4.548   2.258   1.864 -0.4695  0.0284 -0.1970
  463MOL0     C62389   4.466   2.229   1.973 -0.2325 -0.5563  0.2665
  463MOL0     C62390   4.320   2.221   1.970 -0.2233 -0.0611 -1.0720
  463MOL0     C62391   4.266   2.256   1.831  0.0336 -0.3560  0.8513
  463MOL0     C62392   4.108   2.269   1.804  0.5724 -0.1260  0.8322
  463MOL0     C62393   4.030   2.179   1.905 -0.2274 -0.5276 -0.2148
  463MOL0     O62394   3.894   2.198   1.887 -0.5750 -0.2884  0.0680
  463MOL0     C62395   3.796   2.158   1.970  0.1254  0.7602 -0.0046
  463MOL0     C62396   3.737   2.258   2.052 -0.0407  0.3760 -0.0414
  463MOL0     C62397   3.637   2.226   2.141  0.2931 -0.2422  0.2723
  463MOL0     C62398   3.580   2.098   2.140 -0.0475  0.0683  1.3263
  463MOL0     C62399   3.455   2.074   2.220  0.1181 -0.2665 -0.6938
  463MOL0     O62400   3.403   1.948   2.212  0.1420  0.2954 -0.1428
  463MOL0     C62401   3.267   1.934   2.255  0.6014  0.2382 -0.9880
  463MOL0     C62402   3.245   1.913   2.392  0.1404  0.0232  0.0235
  463MOL0     C62403   3.120   1.907   2.447  0.9049  0.0041 -0.3643
  463MOL0     C62404   3.011   1.918   2.357 -0.7114 -0.5806 -0.4404
  463MOL0     O62405   2.880   1.913   2.396 -0.0861  0.3062  0.0277
  463MOL0     C62406   2.818   1.790   2.384  0.2943 -0.0498 -0.3876
  463MOL0     C62407   2.732   1.760   2.512  0.5515 -0.2872 -0.0427
  463MOL0     C62408   2.816   1.783   2.643 -0.1762  0.1666 -0.7749
  463MOL0     C62409   2.727   1.845   2.751  0.6184  0.1374  1.1533
  463MOL0     C62410   2.806   1.887   2.877  0.0758 -0.1391  1.2257
  463MOL0     C62411   2.707   1.942   2.972  0.5518 -0.4748  0.8573
  463MOL0     C62412   2.619   1.837   3.039 -0.1735 -0.0491 -0.5115
  463MOL0     C62413   2.545   1.899   3.157  0.0808 -0.0532 -0.5938
  463MOL0    Cl62414   2.636   1.871   3.303  0.3417  0.3915 -0.0153
  463MOL0     C62415   3.034   1.927   2.219 -0.4039  0.0805 -0.2786
  463MOL0     C62416   3.163   1.933   2.166 -0.0510  0.1221  0.3762
  463MOL0     O62417   3.408   2.167   2.293  0.1778  0.0562 -0.4377
  463MOL0     C62418   3.631   1.998   2.056  0.2714 -0.0285 -0.8031
  463MOL0     C62419   3.740   2.032   1.975  0.5227  0.1724  1.0389
  463MOL0     N62420   4.535   2.217   2.091 -0.3053  0.1032 -0.3544
  463MOL0     N62421   4.658   2.220   2.050  0.1861 -0.3151  0.0705
  463MOL0     C62422   4.946   1.408   1.188 -0.7212 -0.2218 -0.0374
  463MOL0     C62423   4.845   1.312   1.215  0.1931 -0.1612  0.0052
  463MOL0     C62424   4.484   1.073   1.168 -0.0490  0.2808  1.0102
  463MOL0     C62425   4.400   1.048   1.055 -0.0784 -0.2214 -0.3273
  463MOL0     C62426   4.323   0.927   1.051  0.2721 -0.4376 -0.5916
  463MOL0     C62427   4.336   0.838   1.158  0.0437  0.3494 -1.4994
  463MOL0     O62428   4.251   0.732   1.165 -0.5509  0.0778 -1.1780
  463MOL0     C62429   4.141   0.759   1.253  0.9839 -0.5104  0.4773
  463MOL0     C62430   4.014   0.807   1.186 -0.8372 -0.5327  0.5086
  463MOL0     C62431   3.926   0.883   1.285  0.8420 -0.0332  0.3333
  463MOL0     C62432   3.804   0.951   1.217  0.0250  0.0707  0.0284
  463MOL0     C62433   3.730   1.025   1.315 -0.6370  0.1200  0.8279
  463MOL0     C62434   3.673   1.084   1.402  0.2534  0.0214  0.1557
  463MOL0     C62435   4.426   0.857   1.267 -0.0737  0.1729 -0.1929
  463MOL0     C62436   4.510   0.971   1.265 -0.5413  0.5395 -0.7180
  463MOL0     C62437   4.614   0.974   1.369 -0.2039  0.7068 -0.4907
  463MOL0     H62438   4.575   1.503   1.280  0.1700 -0.3350  1.5141
  463MOL0     H62439   4.728   1.675   1.222  0.5659 -0.4889  3.5231
  463MOL0     H62440   5.092   1.555   1.337  1.0013  0.5036  1.3633
  463MOL0     H62441   5.178   1.603   1.196 -2.1474 -0.7802 -2.3246
  463MOL0     H62442   5.121   1.858   1.256  0.5309  0.3811  0.5259
  463MOL0     H62443   5.221   1.771   1.373 -0.0193 -2.2026  0.5953
  463MOL0     H62444   5.048   1.720   1.530  0.1552  0.7822  0.2832
  463MOL0     H62445   4.919   1.779   1.421 -0.9360  0.0213  0.9253
  463MOL0     H62446   5.130   1.944   1.558  0.2981 -0.9019  1.0419
  463MOL0     H62447   5.021   2.016   1.442  3.5419 -1.0255 -0.8227
  463MOL0     H62448   4.826   1.939   1.579 -0.2809  1.3216  1.5482
  463MOL0     H62449   4.933   1.858   1.694 -0.7788 -2.0127 -1.1947
  463MOL0     H62450   5.018   2.067   1.761  0.5057  0.1463 -1.4376
  463MOL0     H62451   4.940   2.147   1.616 -0.3798  1.7402  0.6627
  463MOL0     H62452   4.781   2.002   1.831 -3.8646 -0.1656 -1.4104
  463MOL0     H62453   4.716   2.098   1.701 -2.0118 -1.8782  1.4785
  463MOL0     H62454   4.896   2.215   1.904 -0.1867 -2.1713  1.2394
  463MOL0     H62455   4.813   2.315   1.781  3.2536 -1.5006 -2.1904
  463MOL0     H62456   4.527   2.270   1.758 -0.4075 -4.3183 -0.8853
  463MOL0     H62457   4.286   2.120   1.996  0.8879 -0.1268  0.2293
  463MOL0     H62458   4.287   2.287   2.051  1.6177  1.2373 -1.3342
  463MOL0     H62459   4.301   2.359   1.814 -2.7226  0.3358 -1.6674
  463MOL0     H62460   4.308   2.175   1.771 -1.1048 -0.5587  0.3030
  463MOL0     H62461   4.080   2.236   1.703  1.9338  1.2999 -0.0485
  463MOL0     H62462   4.085   2.375   1.809  5.8834  1.3120  0.8379
  463MOL0     H62463   4.045   2.196   2.012 -2.1043 -3.2414  0.5877
  463MOL0     H62464   4.067   2.078   1.883 -0.6143 -0.3574 -1.7950
  463MOL0     H62465   3.777   2.358   2.061 -3.4425  1.7848  1.1311
  463MOL0     H62466   3.584   2.304   2.194  2.4024  0.0552  2.0655
  463MOL0     H62467   3.333   1.913   2.455 -0.0997 -1.0130  0.3819
  463MOL0     H62468   3.106   1.912   2.555 -1.2657 -2.2551 -0.4479
  463MOL0     H62469   2.749   1.781   2.300 -0.1430 -4.0034  0.2104
  463MOL0     H62470   2.898   1.716   2.375  2.3921  1.9707  0.4836
  463MOL0     H62471   2.641   1.821   2.513  0.9182  0.3155 -1.4843
  463MOL0     H62472   2.692   1.659   2.523 -0.3431  0.1261  0.6746
  463MOL0     H62473   2.856   1.685   2.671 -0.7963  1.1623  4.7622
  463MOL0     H62474   2.907   1.844   2.633 -0.2076  0.7746  1.9757
  463MOL0     H62475   2.652   1.773   2.784 -1.2643  0.6224 -1.7268
  463MOL0     H62476   2.672   1.928   2.704  2.8310  1.1042  0.1075
  463MOL0     H62477   2.866   1.973   2.845  0.1947  0.1089  2.0744
  463MOL0     H62478   2.861   1.804   2.922  0.4594 -1.0836 -0.8620
  463MOL0     H62479   2.754   2.012   3.042 -1.1016  0.5344  1.0103
  463MOL0     H62480   2.630   2.004   2.925  0.0709 -1.2139  0.6617
  463MOL0     H62481   2.680   1.752   3.072 -1.3160 -1.0412 -0.8847
  463MOL0     H62482   2.549   1.784   2.973  0.3278 -3.6687  1.6227
  463MOL0     H62483   2.526   2.003   3.132 -2.1578 -0.1437  0.5150
  463MOL0     H62484   2.458   1.833   3.165  0.0186  0.0911 -0.0537
  463MOL0     H62485   2.954   1.927   2.147  0.6382 -0.8969 -1.4837
  463MOL0     H62486   3.197   1.935   2.063 -0.2633  1.3940  0.3150
  463MOL0     H62487   3.578   1.903   2.054  0.8015 -0.3314 -3.1888
  463MOL0     H62488   3.760   1.956   1.900  2.0129  0.9042  0.6515
  463MOL0     H62489   5.052   1.388   1.179 -0.8149 -0.6079 -0.3318
  463MOL0     H62490   4.882   1.214   1.244 -1.5210 -0.8415  0.0179
  463MOL0     H62491   4.396   1.108   0.966 -0.8949  0.9069  0.4416
  463MOL0     H62492   4.243   0.929   0.977 -2.4857  2.5484  2.1289
  463MOL0     H62493   4.163   0.828   1.336  1.0468  2.9354 -2.1623
  463MOL0     H62494   4.124   0.665   1.306  1.9376 -0.3438  1.1081
  463MOL0     H62495   3.951   0.728   1.145 -0.5386  0.9868 -3.2745
  463MOL0     H62496   4.038   0.878   1.106 -0.2389  0.3833  1.4831
  463MOL0     H62497   3.993   0.944   1.347  1.9583 -0.7209 -0.1673
  463MOL0     H62498   3.878   0.805   1.346 -1.2837 -1.7394 -3.2088
  463MOL0     H62499   3.844   1.021   1.144  1.0704 -0.9485 -0.4108
  463MOL0     H62500   3.748   0.871   1.167 -1.9417  1.7007 -0.5186
  463MOL0     H62501   3.622   1.138   1.479 -1.7110 -2.4265  0.7013
  463MOL0     H62502   4.449   0.777   1.336  0.5604 -0.0881 -0.6968
  463MOL0     H62503   4.696   1.027   1.320  0.2159  0.2447 -0.2860
  463MOL0     H62504   4.583   1.025   1.461  1.2788 -0.5009  0.7246
  463MOL0     H62505   4.643   0.872   1.396 -0.3206  1.3192  2.3579
  464MOL0     O62506   2.517   8.947   9.405 -0.2003 -0.2664  0.8842
  464MOL0     C62507   2.609   8.939   9.482  0.6351 -0.8683 -0.4913
  464MOL0     O62508   2.594   8.963   9.621 -0.1328  0.2235  0.0089
  464MOL0     C62509   2.482   8.915   9.685  1.1072  0.2881  0.5677
  464MOL0     C62510   2.369   8.841   9.631  0.5420  0.5673  0.6856
  464MOL0     C62511   2.263   8.798   9.709  0.4572 -0.2688 -0.8059
  464MOL0     C62512   2.253   8.831   9.844  0.7520  0.1900  0.7886
  464MOL0     O62513   2.158   8.812   9.934  0.3537 -0.1749  0.4766
  464MOL0     C62514   2.026   8.762   9.896  0.3681  0.0044  0.2281
  464MOL0     C62515   1.919   8.784  10.007  0.1069 -0.2397 -0.4645
  464MOL0     C62516   1.779   8.807   9.959  1.3151  0.2977 -0.0711
  464MOL0     C62517   1.724   8.714   9.846 -0.4232  0.1729  0.4285
  464MOL0     C62518   1.713   8.778   9.702  0.3976 -0.1434 -0.1648
  464MOL0     C62519   1.687   8.914   9.681 -0.9672  0.2909  0.3917
  464MOL0     C62520   1.661   8.932   9.536  0.4976 -0.4014 -0.1035
  464MOL0     C62521   1.624   9.083   9.499 -0.7000 -0.1410 -0.0443
  464MOL0     N62522   1.729   9.181   9.539  0.2613  0.1515 -0.2218
  464MOL0     C62523   1.869   9.160   9.511  0.0748  0.3702  0.0363
  464MOL0     C62524   1.920   9.260   9.589 -0.0217 -0.0231  0.2428
  464MOL0     C62525   2.057   9.286   9.633 -0.2276 -0.8486 -0.0806
  464MOL0     C62526   2.186   9.236   9.558 -0.2392  0.3397 -0.9875
  464MOL0     C62527   2.318   9.297   9.616  0.7827  0.1793 -0.3540
  464MOL0     C62528   2.451   9.280   9.537  0.3434 -0.1329 -0.4174
  464MOL0     O62529   2.533   9.386   9.569  0.2574 -0.0160 -0.3535
  464MOL0     C62530   2.652   9.398   9.516  0.0104 -0.3546 -0.4351
  464MOL0     C62531   2.706   9.321   9.415  0.3346 -0.3887 -0.4027
  464MOL0     C62532   2.840   9.363   9.365  0.1911 -0.4645  0.6237
  464MOL0     C62533   2.914   9.476   9.407  0.4428 -0.3726  0.0809
  464MOL0     C62534   3.034   9.519   9.352  0.3343 -0.6925  0.0284
  464MOL0     O62535   3.084   9.624   9.417  0.3124 -0.6147  0.0687
  464MOL0     C62536   3.165   9.721   9.367 -0.4132  1.0955 -0.4132
  464MOL0     C62537   3.195   9.733   9.233 -0.0398 -0.2001  0.8468
  464MOL0     C62538   3.277   9.839   9.178  0.5123 -0.3840 -0.0663
  464MOL0     C62539   3.317   9.940   9.268  0.4833  0.2560  0.1172
  464MOL0     O62540   3.381  10.051   9.233  0.6176 -0.4328 -0.8906
  464MOL0     C62541   3.336  10.145   9.142  1.0761 -0.6019  0.8518
  464MOL0     C62542   3.414  10.276   9.117  0.3726  1.0022  0.4741
  464MOL0     C62543   3.503  10.263   8.987 -0.1205  0.5899 -0.5317
  464MOL0     C62544   3.579  10.394   8.964  0.2809  1.1275  0.4321
  464MOL0     C62545   3.674  10.414   9.081 -0.4844  0.4647  0.3070
  464MOL0     C62546   3.756  10.545   9.057 -0.4514  0.6286  0.7859
  464MOL0     C62547   3.898  10.537   9.112 -0.2674 -1.1096  0.2855
  464MOL0     C62548   3.896  10.514   9.269 -0.6537  0.2706  0.3922
  464MOL0    Cl62549   3.811  10.638   9.368  0.0084 -0.2516  0.0619
  464MOL0     C62550   3.307   9.910   9.405 -0.4158 -0.4526 -0.8414
  464MOL0     C62551   3.227   9.807   9.461 -0.2453 -0.5621  0.0572
  464MOL0     O62552   3.078   9.468   9.249  0.0886  0.4491 -1.1397
  464MOL0     C62553   2.851   9.546   9.513  0.2156  0.1487 -0.1678
  464MOL0     C62554   2.726   9.501   9.566 -0.1619 -0.1537 -0.1241
  464MOL0     N62555   1.821   9.319   9.673 -0.8053  0.3094 -0.6006
  464MOL0     N62556   1.707   9.286   9.624  0.6097 -0.6005 -0.1174
  464MOL0     C62557   2.362   8.903   9.891  0.0954  0.4732  0.0587
  464MOL0     C62558   2.475   8.943   9.821  1.1200 -0.5740  0.8432
  464MOL0     C62559   2.752   8.941   9.439 -0.3984 -0.7126 -0.5176
  464MOL0     C62560   2.838   9.034   9.496  0.2918 -0.3364 -0.5260
  464MOL0     C62561   2.973   9.045   9.461  0.2308 -0.5303 -0.0941
  464MOL0     C62562   3.023   8.963   9.358  0.1066 -0.5576 -0.0261
  464MOL0     O62563   3.142   9.004   9.311 -0.4276  0.8143  0.4060
  464MOL0     C62564   3.205   8.974   9.182 -0.0933 -0.1745 -0.2157
  464MOL0     C62565   3.198   9.088   9.084  0.3438 -0.1002 -0.1713
  464MOL0     C62566   3.292   9.064   8.966 -0.0574  0.2483  0.7215
  464MOL0     C62567   3.265   9.182   8.861 -0.6747  0.2131  0.6634
  464MOL0     C62568   3.341   9.170   8.735 -0.4048 -0.2143  1.5745
  464MOL0     C62569   3.413   9.169   8.634  0.0359 -0.0888  0.6218
  464MOL0     C62570   2.935   8.874   9.296 -0.0441 -0.0591  0.4441
  464MOL0     C62571   2.799   8.863   9.330 -0.4517 -0.2903 -0.5433
  464MOL0     C62572   2.713   8.771   9.247  0.7296 -0.3294  0.0407
  464MOL0     H62573   2.370   8.808   9.528 -0.9552 -1.3751  1.2333
  464MOL0     H62574   2.176   8.752   9.662 -0.8983  1.3925 -0.0712
  464MOL0     H62575   1.993   8.816   9.807 -2.7379  0.8694  1.7882
  464MOL0     H62576   2.035   8.658   9.863  1.5977 -0.3450  1.5400
  464MOL0     H62577   1.941   8.868  10.073  0.3871 -1.0882  0.5456
  464MOL0     H62578   1.909   8.696  10.071 -1.7846  2.9821  4.2716
  464MOL0     H62579   1.751   8.910   9.934 -0.9312 -0.1180  0.5774
  464MOL0     H62580   1.711   8.785  10.041  1.5938 -1.0996 -0.1827
  464MOL0     H62581   1.777   8.622   9.820 -2.0431 -0.0112 -2.7407
  464MOL0     H62582   1.624   8.680   9.874 -1.0079  1.5079  0.0466
  464MOL0     H62583   1.808   8.768   9.649  1.2923  0.0250  1.3402
  464MOL0     H62584   1.644   8.719   9.641 -0.7016  2.4654 -1.6568
  464MOL0     H62585   1.611   8.945   9.754 -0.2768 -1.9211  2.1878
  464MOL0     H62586   1.786   8.959   9.694  0.7918 -2.9606 -0.6332
  464MOL0     H62587   1.580   8.867   9.501  0.6554 -1.3790  1.2784
  464MOL0     H62588   1.752   8.907   9.480 -0.8918 -2.5336 -1.5342
  464MOL0     H62589   1.609   9.100   9.392 -2.8476 -0.2116  0.2077
  464MOL0     H62590   1.529   9.111   9.545 -0.1976  1.7731 -0.1064
  464MOL0     H62591   1.913   9.078   9.456 -0.1380 -0.7772  1.5007
  464MOL0     H62592   2.068   9.392   9.655  0.4116 -1.2573  1.6907
  464MOL0     H62593   2.061   9.247   9.735  0.8705  0.8646  0.5778
  464MOL0     H62594   2.182   9.129   9.580  1.5621  0.4744  0.2235
  464MOL0     H62595   2.165   9.258   9.453  2.0935 -0.0299 -1.5937
  464MOL0     H62596   2.337   9.266   9.720  1.6352  0.7171 -0.3448
  464MOL0     H62597   2.304   9.405   9.619 -1.6632 -0.0856  0.7430
  464MOL0     H62598   2.437   9.281   9.428 -1.0600 -1.8298 -0.3071
  464MOL0     H62599   2.499   9.189   9.574 -0.8273 -0.7902 -0.4647
  464MOL0     H62600   2.649   9.238   9.375 -1.2518  2.4301 -4.6146
  464MOL0     H62601   2.893   9.308   9.288  0.9712 -2.6947  2.6243
  464MOL0     H62602   3.156   9.668   9.156 -0.1325  1.9931 -1.0829
  464MOL0     H62603   3.298   9.862   9.074  0.1379  1.3908  0.2153
  464MOL0     H62604   3.302  10.103   9.047  1.1066  0.3975  0.3816
  464MOL0     H62605   3.237  10.175   9.180  0.2418  0.2074 -1.7623
  464MOL0     H62606   3.343  10.357   9.103 -2.4349 -1.3781  0.0613
  464MOL0     H62607   3.475  10.297   9.205  1.3254 -2.4647  0.7855
  464MOL0     H62608   3.569  10.180   9.012  1.2653  2.1813  1.4329
  464MOL0     H62609   3.430  10.250   8.907 -0.4584 -5.5535  0.3126
  464MOL0     H62610   3.500  10.471   8.962  1.2072  2.1945 -3.8551
  464MOL0     H62611   3.617  10.383   8.862 -2.6389  0.6874 -0.7058
  464MOL0     H62612   3.732  10.323   9.095 -0.4454  0.6376  1.3245
  464MOL0     H62613   3.628  10.435   9.178 -1.7059  2.5259 -0.6424
  464MOL0     H62614   3.756  10.562   8.949 -4.1157 -3.8692 -0.2117
  464MOL0     H62615   3.710  10.632   9.104 -0.6255 -0.4314  2.6885
  464MOL0     H62616   3.946  10.634   9.100 -0.8477 -0.1435  4.2998
  464MOL0     H62617   3.965  10.460   9.073  4.6425  0.9306  3.6629
  464MOL0     H62618   3.875  10.413   9.307  0.9198  0.5969  2.2749
  464MOL0     H62619   3.996  10.521   9.313 -1.4334  0.0286  2.2889
  464MOL0     H62620   3.353   9.976   9.478 -0.5341 -0.0611 -1.1130
  464MOL0     H62621   3.193   9.805   9.565  0.3552  2.4582  0.3843
  464MOL0     H62622   2.879   9.644   9.548 -1.4608  0.5357  0.1803
  464MOL0     H62623   2.678   9.561   9.643 -1.8105 -1.4147 -0.1171
  464MOL0     H62624   2.359   8.945   9.991  1.3765  2.7934 -0.7928
  464MOL0     H62625   2.553   9.005   9.864  0.6029  0.2802  0.5657
  464MOL0     H62626   2.809   9.102   9.575 -1.8962 -1.4625 -0.2632
  464MOL0     H62627   3.026   9.125   9.513 -0.3712  0.0468 -0.3508
  464MOL0     H62628   3.159   8.887   9.133 -1.7251 -0.3874  1.5712
  464MOL0     H62629   3.309   8.943   9.193  0.1678  0.5779 -0.5239
  464MOL0     H62630   3.240   9.177   9.133  1.2549  1.3854 -3.4022
  464MOL0     H62631   3.095   9.104   9.051 -0.0209 -1.2808  0.3606
  464MOL0     H62632   3.274   8.965   8.922  1.6429  0.4772 -0.5640
  464MOL0     H62633   3.392   9.067   9.010  0.1880 -2.3677  0.5101
  464MOL0     H62634   3.160   9.206   8.841 -0.0872  2.6160  0.1434
  464MOL0     H62635   3.300   9.274   8.910  0.9889 -0.0623  0.0292
  464MOL0     H62636   3.459   9.166   8.538 -0.4198  1.7231  0.3120
  464MOL0     H62637   2.971   8.835   9.201  1.3325  1.3390  0.3466
  464MOL0     H62638   2.609   8.765   9.281  1.0393 -0.5353  0.9879
  464MOL0     H62639   2.706   8.818   9.148  0.8694  1.4987  0.8744
  464MOL0     H62640   2.768   8.677   9.238  1.6166  0.3510 -2.3564
  465MOL0     O62641   7.710   4.426   7.464  0.7593  0.0051  0.0004
  465MOL0     C62642   7.777   4.521   7.419  0.1590  1.0586  0.0022
  465MOL0     O62643   7.727   4.638   7.368  0.5074  0.4327 -0.3253
  465MOL0     C62644   7.584   4.644   7.349 -0.5087 -0.3664  0.9118
  465MOL0     C62645   7.534   4.646   7.221 -0.5497 -0.3242  0.1976
  465MOL0     C62646   7.395   4.648   7.190  0.5584 -1.0899 -0.0648
  465MOL0     C62647   7.309   4.637   7.304  0.6021 -0.3904  0.2787
  465MOL0     O62648   7.176   4.635   7.285 -0.1206  0.2650 -0.2873
  465MOL0     C62649   7.115   4.582   7.165  0.0790  0.5825  0.5018
  465MOL0     C62650   6.985   4.504   7.198  0.9805 -0.1703 -0.1267
  465MOL0     C62651   6.992   4.419   7.322  0.3470  0.6643 -0.7310
  465MOL0     C62652   6.863   4.339   7.354 -0.1024 -0.5831 -0.2298
  465MOL0     C62653   6.899   4.257   7.480  0.4722 -0.2854  0.0888
  465MOL0     C62654   6.924   4.355   7.604  0.4784  0.4884 -0.3867
  465MOL0     C62655   6.900   4.266   7.728  0.1861  0.3830  0.0714
  465MOL0     C62656   6.921   4.340   7.865  0.3459  0.3735 -0.2683
  465MOL0     N62657   7.052   4.416   7.875 -0.7608 -0.0664 -0.1880
  465MOL0     C62658   7.167   4.341   7.891  0.1297  0.0695 -0.2996
  465MOL0     C62659   7.268   4.432   7.887 -0.3740 -0.3291 -0.5131
  465MOL0     C62660   7.414   4.403   7.880  0.0188  0.7515 -0.0295
  465MOL0     C62661   7.468   4.383   7.735  0.7702  0.5420  0.0557
  465MOL0     C62662   7.428   4.239   7.689 -0.4098 -0.9179  0.1667
  465MOL0     C62663   7.424   4.231   7.538 -0.0328 -0.4874 -0.1053
  465MOL0     O62664   7.418   4.093   7.499 -0.0187  0.8172 -0.3166
  465MOL0     C62665   7.523   4.026   7.457 -0.6439  0.8772  0.5664
  465MOL0     C62666   7.645   4.081   7.409  0.5765 -0.2608  0.4878
  465MOL0     C62667   7.745   4.006   7.358  0.8360  0.2690 -0.2304
  465MOL0     C62668   7.729   3.863   7.346  0.7217 -0.2536  0.0042
  465MOL0     C62669   7.827   3.774   7.308  0.5038  0.6722  0.4348
  465MOL0     O62670   7.799   3.688   7.203 -0.4783  0.2185 -0.6828
  465MOL0     C62671   7.899   3.612   7.153 -0.6010 -0.1804 -0.9700
  465MOL0     C62672   8.011   3.683   7.093  0.0705 -0.5281  0.6183
  465MOL0     C62673   8.120   3.604   7.043  0.4267  0.1105  0.6394
  465MOL0     C62674   8.118   3.461   7.048  0.5049 -0.2487 -0.1574
  465MOL0     O62675   8.238   3.409   7.009  0.6633  0.1300  0.1563
  465MOL0     C62676   8.257   3.264   7.022  0.5639 -0.1251  0.1399
  465MOL0     C62677   8.408   3.230   7.006 -0.5003  0.2078  0.0615
  465MOL0     C62678   8.461   3.248   6.853 -0.2236 -0.0273  0.1316
  465MOL0     C62679   8.355   3.257   6.738  0.0294  1.5864  0.3161
  465MOL0     C62680   8.417   3.238   6.592 -0.4921 -0.1300  0.3398
  465MOL0     C62681   8.512   3.338   6.552  0.3678 -0.0620 -0.1285
  465MOL0     C62682   8.577   3.324   6.418 -0.1881  0.0437  0.5536
  465MOL0     C62683   8.606   3.459   6.351  0.9257 -0.8573 -0.0190
  465MOL0    Cl62684   8.704   3.439   6.204  0.1733 -0.0251  0.3528
  465MOL0     C62685   7.998   3.394   7.083  0.5488 -0.4437 -1.1142
  465MOL0     C62686   7.896   3.474   7.131 -0.0299 -0.0139  0.5023
  465MOL0     O62687   7.943   3.791   7.355  0.5173  0.5558  0.2074
  465MOL0     C62688   7.630   3.802   7.425  0.0037  0.1312 -0.1030
  465MOL0     C62689   7.529   3.884   7.474  1.1224 -0.1699  0.6778
  465MOL0     N62690   7.211   4.560   7.885 -0.3469 -0.3815  0.6931
  465MOL0     N62691   7.085   4.544   7.877 -0.7941 -0.2451 -0.2349
  465MOL0     C62692   7.359   4.631   7.434  0.0307  0.1240  0.3123
  465MOL0     C62693   7.498   4.638   7.451 -0.7172 -0.3392  0.0135
  465MOL0     C62694   7.921   4.511   7.434  0.1965 -0.0792 -0.3223
  465MOL0     C62695   7.981   4.604   7.523  0.4512  0.1078  1.0163
  465MOL0     C62696   8.114   4.632   7.517 -0.2790  0.8914  1.1402
  465MOL0     C62697   8.196   4.564   7.442 -0.2074  0.2324  0.6960
  465MOL0     O62698   8.321   4.601   7.441 -0.0807 -0.2114  0.5874
  465MOL0     C62699   8.414   4.497   7.487 -0.0518 -0.4309 -0.3115
  465MOL0     C62700   8.552   4.552   7.475 -1.4427  0.2211 -0.8373
  465MOL0     C62701   8.581   4.597   7.331 -0.9318  0.1684  0.8410
  465MOL0     C62702   8.730   4.596   7.291 -0.1077  0.3195 -1.2419
  465MOL0     C62703   8.809   4.681   7.385  0.4493  0.5571  0.3581
  465MOL0     C62704   8.872   4.753   7.457  0.1387 -0.2212  0.2506
  465MOL0     C62705   8.147   4.467   7.363  0.6379  0.3346  0.2359
  465MOL0     C62706   8.009   4.438   7.357  0.7538 -0.4759  0.2392
  465MOL0     C62707   7.956   4.325   7.274 -0.2975  0.0455 -0.5949
  465MOL0     H62708   7.617   4.640   7.152 -0.6224 -0.1835  0.0963
  465MOL0     H62709   7.346   4.662   7.094  0.0564 -4.3778 -0.4107
  465MOL0     H62710   7.089   4.662   7.095 -2.2474 -1.7937 -1.5997
  465MOL0     H62711   7.182   4.506   7.123  0.3954  2.2778 -2.2779
  465MOL0     H62712   6.948   4.439   7.117 -1.5318  0.7127  0.2234
  465MOL0     H62713   6.899   4.567   7.222 -2.1213 -2.3308 -4.1876
  465MOL0     H62714   7.015   4.480   7.410  1.4121 -1.6895  0.7445
  465MOL0     H62715   7.068   4.341   7.312 -1.9648 -1.5844 -2.3278
  465MOL0     H62716   6.780   4.407   7.377  0.4318  0.8946 -2.4026
  465MOL0     H62717   6.836   4.272   7.271  1.4897  0.9263 -2.0503
  465MOL0     H62718   6.815   4.193   7.504  1.9935 -1.3773  2.9515
  465MOL0     H62719   6.987   4.197   7.456  1.5130  2.0087 -2.4474
  465MOL0     H62720   7.020   4.408   7.611  0.8421 -0.2173  0.0732
  465MOL0     H62721   6.846   4.431   7.609 -0.1366 -0.1746  0.3399
  465MOL0     H62722   6.963   4.178   7.718  0.5419  0.8706 -3.7581
  465MOL0     H62723   6.800   4.222   7.726  1.0816 -1.9028  1.9245
  465MOL0     H62724   6.835   4.409   7.869 -1.4726 -1.8143  0.1727
  465MOL0     H62725   6.912   4.266   7.945 -2.1430 -0.0140 -0.8024
  465MOL0     H62726   7.173   4.233   7.901  3.0339  0.2320  0.8292
  465MOL0     H62727   7.471   4.492   7.907 -0.0596  2.1709 -3.9301
  465MOL0     H62728   7.445   4.314   7.936 -0.4122  0.1225 -0.7719
  465MOL0     H62729   7.435   4.455   7.660  0.3804 -1.9414 -2.3056
  465MOL0     H62730   7.577   4.386   7.742  0.8996  0.0670 -1.3393
  465MOL0     H62731   7.335   4.198   7.729 -0.8396  0.2108  0.3690
  465MOL0     H62732   7.504   4.178   7.739 -0.7638 -0.7801  0.8851
  465MOL0     H62733   7.514   4.268   7.488  1.4944 -0.2470  2.6443
  465MOL0     H62734   7.334   4.275   7.495  0.8821  0.7015 -0.8436
  465MOL0     H62735   7.674   4.186   7.399 -1.5342  0.3573  0.2896
  465MOL0     H62736   7.832   4.047   7.308 -0.3766 -0.0006 -2.6961
  465MOL0     H62737   8.017   3.791   7.096  2.2357 -0.5263 -1.0934
  465MOL0     H62738   8.207   3.659   7.010  0.3404  1.1303  2.0242
  465MOL0     H62739   8.228   3.230   7.122 -1.2460  0.0826 -0.2877
  465MOL0     H62740   8.201   3.207   6.948 -0.2515  3.5778 -2.3231
  465MOL0     H62741   8.462   3.299   7.072 -0.2791 -1.1634  1.3750
  465MOL0     H62742   8.431   3.128   7.039  0.7939  1.7834  4.7200
  465MOL0     H62743   8.516   3.341   6.839  0.6680 -0.4650  0.6498
  465MOL0     H62744   8.528   3.169   6.819  1.2938  0.2964  2.1945
  465MOL0     H62745   8.304   3.354   6.743 -1.7095  0.6566  2.6937
  465MOL0     H62746   8.280   3.178   6.740  0.6099  0.5817 -4.8399
  465MOL0     H62747   8.334   3.242   6.521  1.8483  3.7394 -2.5212
  465MOL0     H62748   8.467   3.140   6.587  1.5854  0.8126  1.3297
  465MOL0     H62749   8.455   3.431   6.554  1.5119  0.6654 -0.4907
  465MOL0     H62750   8.598   3.338   6.620  0.7555 -3.8646 -0.3869
  465MOL0     H62751   8.512   3.258   6.360 -0.8758 -0.1273  1.5054
  465MOL0     H62752   8.670   3.271   6.439 -0.9832 -0.6499  2.5316
  465MOL0     H62753   8.514   3.514   6.327  1.8685  0.5138 -0.6301
  465MOL0     H62754   8.661   3.519   6.425 -2.4621  0.3952  1.7051
  465MOL0     H62755   7.988   3.286   7.072  1.6381 -0.9014  1.6996
  465MOL0     H62756   7.796   3.441   7.158 -0.6664  2.0772  0.8981
  465MOL0     H62757   7.622   3.693   7.422 -0.1476 -0.0561  3.2541
  465MOL0     H62758   7.448   3.825   7.516 -0.5403  1.4051 -0.1427
  465MOL0     H62759   7.279   4.622   7.506  0.4321  1.0060  0.8806
  465MOL0     H62760   7.528   4.641   7.556 -0.2810  0.4390 -0.1279
  465MOL0     H62761   7.917   4.665   7.586  2.2557  1.4544  1.6138
  465MOL0     H62762   8.152   4.707   7.585  1.6551  1.0375 -0.0349
  465MOL0     H62763   8.404   4.405   7.430 -0.9908 -1.4150  1.3596
  465MOL0     H62764   8.382   4.474   7.589  0.9412 -0.0881  0.0934
  465MOL0     H62765   8.616   4.465   7.490 -1.1332  0.4889 -0.5713
  465MOL0     H62766   8.569   4.627   7.553 -2.9234  0.4000 -0.6447
  465MOL0     H62767   8.547   4.701   7.329  2.0715  1.2923  2.4180
  465MOL0     H62768   8.535   4.542   7.248 -0.5300  0.9230  0.0909
  465MOL0     H62769   8.781   4.500   7.303  0.3669  0.5667 -1.2410
  465MOL0     H62770   8.739   4.638   7.191  0.0533  2.2274 -0.4720
  465MOL0     H62771   8.933   4.833   7.492 -0.8480  0.9107 -0.5567
  465MOL0     H62772   8.212   4.417   7.292  3.7765  3.5062  0.6288
  465MOL0     H62773   7.886   4.358   7.196 -0.3326  0.7388 -0.2722
  465MOL0     H62774   8.043   4.286   7.220  0.9154  0.0482  1.2962
  465MOL0     H62775   7.905   4.252   7.337  0.6368 -1.7260 -1.7989
  466MOL0     O62776   3.583   9.357   0.145 -0.4316 -0.6963 -0.1969
  466MOL0     C62777   3.649   9.317   0.051 -0.6797 -0.8636 -0.7718
  466MOL0     O62778   3.722   9.198   0.063 -0.1697 -0.3924  0.2187
  466MOL0     C62779   3.734   9.126   0.177  0.3420 -1.1056  0.5725
  466MOL0     C62780   3.786   9.177   0.293 -0.1677  0.0552 -0.2047
  466MOL0     C62781   3.786   9.096   0.409  0.1229  0.6151  0.8760
  466MOL0     C62782   3.740   8.966   0.404 -0.1336  0.2612 -0.6792
  466MOL0     O62783   3.728   8.883   0.508  0.6173 -0.2258 -0.0627
  466MOL0     C62784   3.672   8.936   0.626  0.6106 -0.1032 -0.7037
  466MOL0     C62785   3.758   8.910   0.751  0.0978 -0.4022 -0.4918
  466MOL0     C62786   3.893   8.972   0.742  0.9830  0.0098  0.5149
  466MOL0     C62787   3.990   8.944   0.851 -0.3419 -0.3681  0.1084
  466MOL0     C62788   4.135   8.984   0.821 -0.2532 -0.5172 -0.7335
  466MOL0     C62789   4.152   9.138   0.817  0.1441  1.0801 -0.1354
  466MOL0     C62790   4.293   9.176   0.783  1.2890 -0.3829  0.4006
  466MOL0     C62791   4.314   9.328   0.786  0.1194  0.7818  0.2641
  466MOL0     N62792   4.209   9.411   0.723  1.0667 -0.0550 -0.6197
  466MOL0     C62793   4.169   9.397   0.590 -0.2724 -0.5190  0.2942
  466MOL0     C62794   4.099   9.505   0.565  0.0605  0.3634  0.0932
  466MOL0     C62795   4.067   9.566   0.436  0.6690  0.7207 -0.1404
  466MOL0     C62796   3.976   9.685   0.459  0.3722 -0.1651  0.8215
  466MOL0     C62797   3.937   9.750   0.327 -0.2966 -0.5513 -0.2200
  466MOL0     C62798   3.878   9.893   0.349 -0.3489 -0.5150 -0.0728
  466MOL0     O62799   3.876   9.964   0.232 -0.0808  0.0376  0.2855
  466MOL0     C62800   3.770  10.061   0.226  0.3114 -0.0411  0.1102
  466MOL0     C62801   3.704  10.114   0.345  0.1163  0.0470  0.7049
  466MOL0     C62802   3.617  10.227   0.329  0.1484  0.0296 -0.2934
  466MOL0     C62803   3.586  10.279   0.195 -0.5223  0.3122 -1.0022
  466MOL0     C62804   3.474  10.378   0.182 -0.8353  0.3045  0.4853
  466MOL0     O62805   3.451  10.413   0.054 -0.0373  0.6658 -0.5030
  466MOL0     C62806   3.343  10.502   0.041 -0.5773 -0.0086  0.9277
  466MOL0     C62807   3.215  10.454   0.006 -0.4907  0.4736  0.0943
  466MOL0     C62808   3.119  10.539  -0.035  0.7351 -0.7483 -0.3227
  466MOL0     C62809   3.132  10.677  -0.040 -0.3111 -0.3469 -0.8209
  466MOL0     O62810   3.046  10.774  -0.093  0.7930  0.1676  0.3437
  466MOL0     C62811   2.920  10.727  -0.147  0.7349 -0.9676 -0.5693
  466MOL0     C62812   2.848  10.857  -0.188 -1.0627  0.6098 -0.1536
  466MOL0     C62813   2.922  10.922  -0.308  0.1398 -1.3025 -0.0373
  466MOL0     C62814   2.839  10.907  -0.438 -0.8889  0.0366 -0.1473
  466MOL0     C62815   2.935  10.913  -0.562  0.1852 -0.3241 -0.7481
  466MOL0     C62816   3.028  11.033  -0.562  0.8130  0.9394  0.3041
  466MOL0     C62817   2.951  11.162  -0.582  0.4771 -0.8192 -0.5709
  466MOL0     C62818   3.043  11.278  -0.613 -0.8628 -0.3699  0.1878
  466MOL0    Cl62819   3.129  11.249  -0.762 -0.4757  0.0166 -0.6044
  466MOL0     C62820   3.268  10.717  -0.017 -0.4751 -0.5079  0.2614
  466MOL0     C62821   3.380  10.637   0.024  0.6366  0.1302 -0.0716
  466MOL0     O62822   3.414  10.412   0.277 -0.1495 -1.1896  0.2888
  466MOL0     C62823   3.656  10.227   0.088 -0.7569  0.8114 -0.1676
  466MOL0     C62824   3.737  10.121   0.098 -0.2031  0.2318  0.0050
  466MOL0     N62825   4.078   9.569   0.692 -0.3786  0.8973  0.5624
  466MOL0     N62826   4.149   9.512   0.778 -0.2290  0.0295 -1.0894
  466MOL0     C62827   3.703   8.913   0.281 -0.2801 -0.5397 -1.0050
  466MOL0     C62828   3.694   8.996   0.167  0.6112 -0.2676  0.1065
  466MOL0     C62829   3.649   9.399  -0.065  0.1624  0.2523 -0.2569
  466MOL0     C62830   3.637   9.533  -0.054  0.2224 -0.2352 -0.3263
  466MOL0     C62831   3.666   9.631  -0.158 -0.3133  0.1708  0.4334
  466MOL0     C62832   3.706   9.576  -0.281  0.5690  0.1693 -0.4168
  466MOL0     O62833   3.710   9.658  -0.399  0.2869  0.2632 -0.7655
  466MOL0     C62834   3.795   9.626  -0.508 -0.4429 -0.2619 -0.1577
  466MOL0     C62835   3.789   9.742  -0.613  0.1714  0.1842 -0.1893
  466MOL0     C62836   3.909   9.718  -0.709  0.1893  0.7404 -0.2750
  466MOL0     C62837   3.939   9.847  -0.786  0.2159 -0.1147 -1.3365
  466MOL0     C62838   4.029   9.826  -0.898 -0.2761  0.3013  0.0362
  466MOL0     C62839   4.102   9.815  -1.000 -0.3638 -0.0936  0.3362
  466MOL0     C62840   3.712   9.432  -0.299 -0.0187  0.1762  0.3383
  466MOL0     C62841   3.685   9.344  -0.195 -0.7761 -0.2691 -0.8742
  466MOL0     C62842   3.716   9.198  -0.221 -0.2600  0.1733 -0.4088
  466MOL0     H62843   3.831   9.275   0.303  0.6482 -0.3121 -0.1384
  466MOL0     H62844   3.821   9.134   0.504  0.8640  1.2331  0.3639
  466MOL0     H62845   3.648   9.043   0.622  0.6824 -0.0800 -0.4916
  466MOL0     H62846   3.580   8.883   0.652 -0.6347  2.7573  1.1881
  466MOL0     H62847   3.780   8.804   0.768 -0.9042 -0.4650  0.5454
  466MOL0     H62848   3.699   8.956   0.832  1.7704 -2.8236  2.2934
  466MOL0     H62849   3.877   9.080   0.746 -2.6456 -0.3943  0.2609
  466MOL0     H62850   3.941   8.952   0.646  1.2830 -1.5768  0.9693
  466MOL0     H62851   3.953   8.992   0.942 -6.3734  2.4644 -3.2528
  466MOL0     H62852   3.988   8.840   0.886  3.0821 -0.3210  0.7684
  466MOL0     H62853   4.200   8.940   0.898  0.5051  2.4116  0.4523
  466MOL0     H62854   4.158   8.943   0.722 -3.5010  0.9648 -2.2221
  466MOL0     H62855   4.084   9.179   0.741 -0.4260 -3.6532 -2.6153
  466MOL0     H62856   4.129   9.172   0.918  3.4244 -0.0744  1.1465
  466MOL0     H62857   4.308   9.134   0.683 -0.4678  2.4082 -1.1592
  466MOL0     H62858   4.365   9.135   0.855  3.7993  2.9387  0.0410
  466MOL0     H62859   4.327   9.362   0.889 -1.4347  1.3261  0.3072
  466MOL0     H62860   4.417   9.338   0.751  1.0092 -3.4539  1.0850
  466MOL0     H62861   4.200   9.338   0.505  2.3597  1.4534 -0.2325
  466MOL0     H62862   4.156   9.590   0.377  0.4142  0.6400 -0.5603
  466MOL0     H62863   4.012   9.489   0.381  3.5215 -1.2838 -0.4603
  466MOL0     H62864   3.887   9.644   0.509  1.2581 -1.5141  1.3526
  466MOL0     H62865   4.030   9.754   0.525  0.6491  0.8346 -0.4221
  466MOL0     H62866   3.866   9.688   0.273 -1.5511  3.6866 -4.0500
  466MOL0     H62867   4.030   9.752   0.269 -1.0550  2.6611 -1.5543
  466MOL0     H62868   3.938   9.958   0.413 -0.7982  3.2078 -3.0914
  466MOL0     H62869   3.774   9.879   0.380 -0.5528  0.5672 -0.2626
  466MOL0     H62870   3.709  10.076   0.446 -2.6572  0.7986  1.2141
  466MOL0     H62871   3.556  10.262   0.411 -3.9743  1.4578 -3.5883
  466MOL0     H62872   3.197  10.348   0.020  0.1929  0.1774 -1.1227
  466MOL0     H62873   3.025  10.496  -0.065 -1.6333  3.1212  0.7931
  466MOL0     H62874   2.913  10.654  -0.229 -3.0575  1.3031 -2.5474
  466MOL0     H62875   2.864  10.680  -0.066  2.1788  1.1898  1.8325
  466MOL0     H62876   2.745  10.831  -0.212 -0.0221 -1.6897 -2.7623
  466MOL0     H62877   2.858  10.927  -0.105 -1.0555  0.4325 -0.0046
  466MOL0     H62878   2.934  11.029  -0.289  0.7669 -1.8086  2.7796
  466MOL0     H62879   3.020  10.879  -0.328  1.3938  0.0395  2.8238
  466MOL0     H62880   2.768  10.990  -0.432  0.4441  1.1127  3.7544
  466MOL0     H62881   2.798  10.806  -0.441 -0.5326 -0.2299  2.1357
  466MOL0     H62882   2.868  10.920  -0.649 -0.0432 -1.3928 -0.6736
  466MOL0     H62883   2.996  10.823  -0.575  0.6375 -0.1030 -0.1563
  466MOL0     H62884   3.075  11.042  -0.464 -0.6589  1.0228  1.0279
  466MOL0     H62885   3.100  11.012  -0.641 -0.2951  0.7807 -0.7032
  466MOL0     H62886   2.889  11.192  -0.496 -1.1624 -0.1338 -1.9296
  466MOL0     H62887   2.872  11.148  -0.656  0.3528  2.0326 -1.0903
  466MOL0     H62888   2.982  11.369  -0.616 -0.3761  0.1306  3.0039
  466MOL0     H62889   3.116  11.302  -0.536 -0.7025  0.3865 -0.1824
  466MOL0     H62890   3.300  10.821  -0.015 -1.4934 -0.0514  4.7875
  466MOL0     H62891   3.480  10.678   0.029  0.5264  0.3314  0.5673
  466MOL0     H62892   3.660  10.266  -0.014  4.4948 -0.1223 -0.6174
  466MOL0     H62893   3.792  10.095   0.008 -0.5152 -0.1336 -0.0823
  466MOL0     H62894   3.669   8.810   0.279  3.0120 -1.9034  2.1120
  466MOL0     H62895   3.653   8.948   0.079  0.8058  1.4695 -0.9712
  466MOL0     H62896   3.611   9.582   0.039 -2.8917 -1.8173 -0.2508
  466MOL0     H62897   3.664   9.737  -0.134 -0.1409 -0.4739  3.9014
  466MOL0     H62898   3.763   9.534  -0.560  4.6349 -0.6826 -3.2179
  466MOL0     H62899   3.898   9.616  -0.473 -0.1451  1.1182 -0.5934
  466MOL0     H62900   3.799   9.836  -0.558  2.2229  0.5675 -1.1247
  466MOL0     H62901   3.690   9.735  -0.659  0.4284  0.3637 -0.7815
  466MOL0     H62902   3.894   9.638  -0.782 -1.2921  1.9276 -1.3284
  466MOL0     H62903   3.997   9.699  -0.647  1.1156  1.5208 -1.3120
  466MOL0     H62904   3.856   9.900  -0.833  0.7533  0.8128 -1.2731
  466MOL0     H62905   3.982   9.915  -0.712  0.4335 -1.1984 -0.4436
  466MOL0     H62906   4.157   9.817  -1.092 -0.3951 -2.5567  0.2159
  466MOL0     H62907   3.735   9.393  -0.398  1.8090  0.2802  0.6743
  466MOL0     H62908   3.813   9.183  -0.173 -1.6254 -1.4470  2.0856
  466MOL0     H62909   3.653   9.129  -0.164  2.4152 -1.7699  0.3877
  466MOL0     H62910   3.708   9.169  -0.326  1.7448 -1.6243 -0.1223
  467MOL0     O62911   8.398  10.994   6.170  0.9251 -0.4223 -0.5936
  467MOL0     C62912   8.486  10.994   6.086 -0.6796  0.0410 -0.8457
  467MOL0     O62913   8.525  11.103   6.012  0.3645 -0.0212 -0.0419
  467MOL0     C62914   8.454  11.215   6.043  0.1476 -0.4244  0.5210
  467MOL0     C62915   8.360  11.265   5.952  0.2806 -0.3834  0.1617
  467MOL0     C62916   8.277  11.369   5.991  0.8333  0.9716  0.8477
  467MOL0     C62917   8.293  11.434   6.112  0.1807 -0.1235 -0.1867
  467MOL0     O62918   8.199  11.523   6.150 -0.4066  0.8239  0.4185
  467MOL0     C62919   8.234  11.653   6.085  1.1816  0.0077  0.0882
  467MOL0     C62920   8.101  11.726   6.041 -0.1841  0.6907 -0.8564
  467MOL0     C62921   8.132  11.856   5.972  0.4078  0.1417  0.6111
  467MOL0     C62922   8.180  11.831   5.815  0.8818 -0.1585 -1.5002
  467MOL0     C62923   8.198  11.974   5.739  0.6864  0.3329  0.6715
  467MOL0     C62924   8.309  11.984   5.637 -0.1651 -0.2253  1.0092
  467MOL0     C62925   8.319  12.131   5.583  0.8319  0.2897 -0.1532
  467MOL0     C62926   8.446  12.169   5.497  0.1608 -0.0420  0.0562
  467MOL0     N62927   8.547  12.064   5.477 -0.0384  0.9675 -0.4268
  467MOL0     C62928   8.663  12.034   5.553  0.7042 -0.7107 -0.1396
  467MOL0     C62929   8.694  11.900   5.537  0.0734 -0.1664 -0.1140
  467MOL0     C62930   8.792  11.818   5.600 -0.0992  0.3321 -0.3734
  467MOL0     C62931   8.872  11.723   5.504  0.0743  0.4015 -0.0831
  467MOL0     C62932   8.968  11.644   5.588  0.3559  0.8730  0.2377
  467MOL0     C62933   9.053  11.564   5.490 -0.3625  0.2657  0.1620
  467MOL0     O62934   9.145  11.646   5.426  0.0149 -0.3225  0.3865
  467MOL0     C62935   9.277  11.637   5.469  0.1271 -0.2803  0.0778
  467MOL0     C62936   9.328  11.649   5.601  0.8664  1.0088 -0.0697
  467MOL0     C62937   9.458  11.640   5.619  0.4390 -1.0057 -0.5611
  467MOL0     C62938   9.554  11.637   5.518 -0.4796  0.1173 -1.3537
  467MOL0     C62939   9.695  11.646   5.548 -1.1884 -0.4035 -0.9348
  467MOL0     O62940   9.737  11.672   5.673 -0.1223  0.0711  0.3426
  467MOL0     C62941   9.867  11.688   5.711  0.4162 -0.2237 -0.6413
  467MOL0     C62942   9.896  11.635   5.838  0.5944 -0.3809 -0.6442
  467MOL0     C62943  10.026  11.635   5.884 -0.1428  0.0838 -0.5103
  467MOL0     C62944  10.127  11.703   5.811 -0.8295  0.3814 -0.0192
  467MOL0     O62945  10.251  11.703   5.867 -0.3092 -0.3945 -0.4412
  467MOL0     C62946  10.376  11.710   5.787  0.4856  0.8693 -0.5206
  467MOL0     C62947  10.499  11.654   5.871 -0.8373 -0.1655  0.8109
  467MOL0     C62948  10.508  11.502   5.894  0.3422 -0.6983 -0.5398
  467MOL0     C62949  10.651  11.486   5.943  0.1175 -0.0080 -0.5240
  467MOL0     C62950  10.651  11.339   5.996 -1.0514 -0.3542 -0.5996
  467MOL0     C62951  10.777  11.284   6.053  0.2187  0.7393  0.9809
  467MOL0     C62952  10.835  11.359   6.172 -0.4026  0.1006  0.0604
  467MOL0     C62953  10.862  11.264   6.297  0.0029 -0.2003 -0.4158
  467MOL0    Cl62954  10.995  11.148   6.269 -0.0231  0.1989 -0.2299
  467MOL0     C62955  10.101  11.755   5.685 -0.3721 -0.2179 -0.6995
  467MOL0     C62956   9.967  11.735   5.631  0.2194 -0.4519 -0.3888
  467MOL0     O62957   9.768  11.617   5.458  0.0250 -0.5788 -0.6721
  467MOL0     C62958   9.507  11.648   5.389 -0.1289 -0.1368  0.1647
  467MOL0     C62959   9.369  11.641   5.366 -1.3785  0.3180  0.5473
  467MOL0     N62960   8.613  11.855   5.436  0.1765  0.4308  0.8319
  467MOL0     N62961   8.530  11.950   5.404 -0.1643 -0.5083 -0.3512
  467MOL0     C62962   8.397  11.396   6.194  0.2699 -0.1243 -1.4562
  467MOL0     C62963   8.470  11.288   6.164  0.3524  0.0915  0.3095
  467MOL0     C62964   8.567  10.871   6.052  1.6162  0.2561  0.4855
  467MOL0     C62965   8.633  10.866   5.928  0.5280  0.1965  0.8820
  467MOL0     C62966   8.707  10.751   5.893  0.0515 -0.3924  0.8833
  467MOL0     C62967   8.717  10.645   5.970 -0.4734 -0.0037  0.6323
  467MOL0     O62968   8.800  10.542   5.924 -0.6130  0.6380 -1.2277
  467MOL0     C62969   8.834  10.435   6.018  0.1213 -0.1416 -0.4078
  467MOL0     C62970   8.978  10.387   5.989 -0.8584 -0.2976  0.7660
  467MOL0     C62971   8.991  10.326   5.852 -0.8870 -0.5489 -0.5696
  467MOL0     C62972   9.142  10.285   5.828  0.8117  0.7146  0.6546
  467MOL0     C62973   9.163  10.135   5.867 -0.4207 -0.6061  1.2907
  467MOL0     C62974   9.183  10.023   5.891 -0.2110  0.0792 -0.6147
  467MOL0     C62975   8.634  10.634   6.079 -0.1607 -0.1050 -0.7436
  467MOL0     C62976   8.567  10.751   6.128  0.2016  0.9990  0.7860
  467MOL0     C62977   8.491  10.727   6.256  0.0707  0.0834 -0.0736
  467MOL0     H62978   8.331  11.219   5.858 -1.0287  0.3095  0.2142
  467MOL0     H62979   8.191  11.401   5.934  1.0774 -1.0131 -0.7370
  467MOL0     H62980   8.279  11.724   6.155  1.9303  0.7903 -1.1444
  467MOL0     H62981   8.300  11.647   5.998 -1.3747 -1.4877 -1.9010
  467MOL0     H62982   8.047  11.751   6.132 -0.2642 -0.8655 -0.4485
  467MOL0     H62983   8.034  11.660   5.985  0.6482 -0.4758 -0.5283
  467MOL0     H62984   8.222  11.898   6.018 -0.0285  3.4363 -1.1965
  467MOL0     H62985   8.056  11.934   5.984  1.6139  1.1770  1.9092
  467MOL0     H62986   8.266  11.765   5.822  0.8384 -0.0325  1.3937
  467MOL0     H62987   8.105  11.771   5.762  1.3567  1.5461 -4.2575
  467MOL0     H62988   8.110  11.994   5.676 -1.6660 -1.2215  3.2574
  467MOL0     H62989   8.209  12.042   5.823  2.6986 -3.4449  3.7871
  467MOL0     H62990   8.402  11.959   5.689 -0.3713 -3.5326  0.0167
  467MOL0     H62991   8.289  11.915   5.554  0.2952  1.1543 -0.2915
  467MOL0     H62992   8.313  12.202   5.666 -3.1381  2.6361 -2.1327
  467MOL0     H62993   8.229  12.149   5.522 -0.0435 -0.6913  0.8043
  467MOL0     H62994   8.405  12.204   5.402 -1.6266  3.9619  2.0550
  467MOL0     H62995   8.490  12.261   5.538  3.3463 -0.5764 -1.8643
  467MOL0     H62996   8.720  12.096   5.621 -1.4134  2.0494 -0.7255
  467MOL0     H62997   8.859  11.886   5.653  0.7525  0.8464 -2.0068
  467MOL0     H62998   8.742  11.765   5.681 -2.5262  0.6850 -1.5437
  467MOL0     H62999   8.805  11.648   5.462 -0.3759 -0.1962  1.6195
  467MOL0     H63000   8.920  11.782   5.426 -0.6630 -0.8745 -1.5444
  467MOL0     H63001   8.933  11.571   5.662  0.1826  2.0168  1.3271
  467MOL0     H63002   9.023  11.723   5.640 -2.0241  3.5502 -1.0850
  467MOL0     H63003   8.989  11.520   5.412 -0.2093  2.1222 -1.0655
  467MOL0     H63004   9.107  11.488   5.547  2.3294  1.7583 -0.2423
  467MOL0     H63005   9.253  11.674   5.676  0.6718  0.2407 -0.0034
  467MOL0     H63006   9.492  11.661   5.720 -0.9394  0.4678 -0.3703
  467MOL0     H63007   9.830  11.573   5.899  1.8319 -0.9352  0.1800
  467MOL0     H63008  10.062  11.575   5.968 -0.8933  0.2534 -0.0567
  467MOL0     H63009  10.373  11.640   5.704  2.0722  1.7908 -1.4137
  467MOL0     H63010  10.380  11.813   5.751  0.9155  2.6161  3.8017
  467MOL0     H63011  10.590  11.679   5.815  1.4040 -1.7661  3.4710
  467MOL0     H63012  10.511  11.711   5.964 -0.8742  2.3378 -0.6224
  467MOL0     H63013  10.437  11.466   5.969 -0.0250  1.2288  0.0940
  467MOL0     H63014  10.504  11.452   5.797 -0.8610 -0.3274 -0.6968
  467MOL0     H63015  10.684  11.553   6.023  1.1948 -1.3520  0.2097
  467MOL0     H63016  10.719  11.497   5.859  0.6235  0.6598 -0.0340
  467MOL0     H63017  10.628  11.275   5.911 -1.2754 -1.3339  0.1747
  467MOL0     H63018  10.570  11.335   6.070 -0.8334  1.0272 -0.2642
  467MOL0     H63019  10.736  11.188   6.085 -1.5005  1.1253  0.0600
  467MOL0     H63020  10.859  11.282   5.981 -0.9828 -1.9367 -0.4349
  467MOL0     H63021  10.764  11.431   6.214 -0.9731 -2.0052  3.0507
  467MOL0     H63022  10.924  11.416   6.144 -2.1517  2.5128 -0.8904
  467MOL0     H63023  10.874  11.327   6.386 -2.0602  1.0753 -0.9624
  467MOL0     H63024  10.764  11.219   6.315  0.5138 -0.7927  1.0741
  467MOL0     H63025  10.173  11.803   5.620 -0.5720 -1.1465 -1.6314
  467MOL0     H63026   9.950  11.777   5.532 -0.2432  2.9159  0.9791
  467MOL0     H63027   9.568  11.681   5.306  3.5672 -4.3385  0.8306
  467MOL0     H63028   9.327  11.647   5.266 -0.8957  0.7531  0.3676
  467MOL0     H63029   8.423  11.438   6.291 -0.8630 -1.2007 -0.6643
  467MOL0     H63030   8.531  11.241   6.240 -1.2446 -2.1871  0.2869
  467MOL0     H63031   8.644  10.951   5.862 -0.2699 -0.7608 -0.5357
  467MOL0     H63032   8.767  10.771   5.805 -3.0505 -0.8862 -1.4884
  467MOL0     H63033   8.757  10.357   6.009 -0.0497  0.0300 -0.4521
  467MOL0     H63034   8.821  10.467   6.122 -2.5454 -2.6929  0.1918
  467MOL0     H63035   9.013  10.311   6.059  0.2016  0.5237  1.1691
  467MOL0     H63036   9.045  10.474   5.994  0.0715 -1.0556  3.3527
  467MOL0     H63037   8.942  10.382   5.772 -0.9903  1.2229  0.6967
  467MOL0     H63038   8.934  10.232   5.849 -0.4025 -0.8402 -3.3808
  467MOL0     H63039   9.154  10.291   5.720 -1.6321  0.2580  0.2882
  467MOL0     H63040   9.217  10.350   5.873 -0.8061  0.9914  3.1959
  467MOL0     H63041   9.199   9.921   5.920 -0.5531  0.4890  1.1223
  467MOL0     H63042   8.638  10.541   6.134  2.6839 -0.4543 -1.3770
  467MOL0     H63043   8.440  10.630   6.249 -0.6655  0.2121  2.6426
  467MOL0     H63044   8.563  10.709   6.337  0.4617 -0.9034 -0.6241
  467MOL0     H63045   8.411  10.791   6.294  2.6966  2.6060  1.6276
  468MOL0     O63046   2.830  10.322   1.243  1.0342  0.5030  0.2659
  468MOL0     C63047   2.764  10.318   1.350 -0.3908 -1.1325 -0.2652
  468MOL0     O63048   2.822  10.318   1.480 -0.2889 -0.5878  0.5400
  468MOL0     C63049   2.958  10.351   1.500 -0.0136  0.2677 -0.3743
  468MOL0     C63050   3.062  10.259   1.488  0.8410  0.3190  0.2234
  468MOL0     C63051   3.202  10.295   1.503 -0.7699  0.4819 -0.9227
  468MOL0     C63052   3.228  10.433   1.530  0.4996  0.4181  0.2221
  468MOL0     O63053   3.358  10.466   1.551 -0.2906  0.4873  0.3008
  468MOL0     C63054   3.385  10.574   1.630  1.1041 -0.1923  0.0206
  468MOL0     C63055   3.525  10.576   1.691 -0.3088  0.0298 -0.7862
  468MOL0     C63056   3.556  10.458   1.785  0.4072  0.7492 -0.3133
  468MOL0     C63057   3.459  10.443   1.898 -0.1440 -0.0173  0.1417
  468MOL0     C63058   3.477  10.296   1.949 -0.1290 -1.1731  0.1972
  468MOL0     C63059   3.394  10.285   2.078 -0.2704  0.3866  0.9715
  468MOL0     C63060   3.352  10.137   2.103 -0.8514  0.2187 -0.0380
  468MOL0     C63061   3.289  10.116   2.241 -0.2633 -0.0251 -0.4339
  468MOL0     N63062   3.230   9.985   2.276 -0.4560  0.2950 -0.1299
  468MOL0     C63063   3.143   9.970   2.381 -0.1054 -0.0754  0.3591
  468MOL0     C63064   3.147   9.837   2.412 -0.5901 -0.9819  0.8463
  468MOL0     C63065   3.050   9.774   2.507 -0.2843  0.0679 -0.1060
  468MOL0     C63066   3.106   9.750   2.650 -0.5011 -0.4821  0.4591
  468MOL0     C63067   2.993   9.740   2.750 -0.2626 -0.9247 -0.8936
  468MOL0     C63068   2.928   9.607   2.733 -0.7100 -0.2665 -1.0223
  468MOL0     O63069   2.801   9.618   2.800  0.1390  0.2057 -0.2329
  468MOL0     C63070   2.764   9.512   2.876 -0.1307 -0.1526 -0.4321
  468MOL0     C63071   2.786   9.372   2.860 -0.7310 -0.6487  0.6766
  468MOL0     C63072   2.751   9.271   2.950 -0.3366 -0.2875 -0.2652
  468MOL0     C63073   2.686   9.316   3.068 -0.1323 -0.0782  0.4672
  468MOL0     C63074   2.624   9.219   3.154 -0.3596  0.3276 -0.1002
  468MOL0     O63075   2.619   9.088   3.102  0.2558 -0.0149  0.1621
  468MOL0     C63076   2.554   8.990   3.181 -0.5672 -0.1879  0.1361
  468MOL0     C63077   2.579   8.969   3.315  0.0387  0.3345 -0.6216
  468MOL0     C63078   2.496   8.879   3.395 -0.0464  0.4813  0.1416
  468MOL0     C63079   2.386   8.817   3.343  0.8143  0.3534 -0.0762
  468MOL0     O63080   2.316   8.718   3.409 -0.5784  0.2948 -0.4740
  468MOL0     C63081   2.394   8.620   3.489  0.1727 -1.1379  0.0085
  468MOL0     C63082   2.302   8.497   3.513  1.0417  0.3904  1.1818
  468MOL0     C63083   2.304   8.451   3.665 -0.8375 -1.3328  0.0932
  468MOL0     C63084   2.252   8.319   3.675  0.0477  0.4346  0.5140
  468MOL0     C63085   2.116   8.288   3.617 -0.2563 -0.2712 -0.1269
  468MOL0     C63086   2.003   8.385   3.666  0.3673 -0.4054 -0.1070
  468MOL0     C63087   1.962   8.389   3.806  0.8767 -0.4901 -0.6109
  468MOL0     C63088   1.873   8.521   3.839  0.5214  0.0893  0.1890
  468MOL0    Cl63089   1.729   8.510   3.734  0.4532 -0.1785 -0.3869
  468MOL0     C63090   2.354   8.848   3.213 -0.1706 -0.7495  0.3391
  468MOL0     C63091   2.444   8.919   3.135  0.2717 -0.2646  0.6078
  468MOL0     O63092   2.590   9.246   3.266 -1.3222 -0.0818  0.3839
  468MOL0     C63093   2.677   9.451   3.089 -0.4478 -0.7650 -0.4017
  468MOL0     C63094   2.713   9.544   2.993  0.3179  0.1698  0.0252
  468MOL0     N63095   3.242   9.774   2.330  0.0608 -0.6276  0.2061
  468MOL0     N63096   3.284   9.863   2.251 -0.4329 -0.2017 -0.1211
  468MOL0     C63097   3.121  10.523   1.536  0.2418 -0.8768  0.2845
  468MOL0     C63098   2.991  10.483   1.520  0.5139 -0.1766  0.2641
  468MOL0     C63099   2.622  10.318   1.347 -0.1149 -0.9592  0.5096
  468MOL0     C63100   2.554  10.296   1.466  0.4055 -0.1068  0.2607
  468MOL0     C63101   2.414  10.286   1.462 -0.8426  0.7849 -0.5829
  468MOL0     C63102   2.335  10.313   1.351  0.1253 -0.8322 -0.2292
  468MOL0     O63103   2.196  10.325   1.351 -0.4650 -0.2699 -0.1615
  468MOL0     C63104   2.120  10.277   1.458 -0.0039  0.3579 -0.5287
  468MOL0     C63105   1.979  10.319   1.440  0.5050  0.1441  0.7275
  468MOL0     C63106   1.968  10.469   1.438 -0.4215  0.7155 -0.2317
  468MOL0     C63107   1.824  10.526   1.419  0.0121  0.1007 -0.3031
  468MOL0     C63108   1.743  10.481   1.310 -0.4708  1.2861  0.1852
  468MOL0     C63109   1.672  10.456   1.213 -0.5015  0.3030  0.4607
  468MOL0     C63110   2.407  10.340   1.235  0.3685 -0.5818 -0.2607
  468MOL0     C63111   2.547  10.351   1.224 -0.0256 -0.4507 -0.1396
  468MOL0     C63112   2.607  10.379   1.088 -0.6152 -0.9882  0.3795
  468MOL0     H63113   3.046  10.153   1.475  1.4819  0.3596 -0.9998
  468MOL0     H63114   3.283  10.224   1.506 -0.0710  1.2855 -0.4130
  468MOL0     H63115   3.366  10.663   1.568 -0.0403 -0.2117  0.3127
  468MOL0     H63116   3.310  10.571   1.710  1.1625  0.0779  0.0859
  468MOL0     H63117   3.521  10.663   1.757 -1.2127 -0.0525 -0.7123
  468MOL0     H63118   3.605  10.591   1.618 -2.1943 -1.3788 -3.3534
  468MOL0     H63119   3.654  10.468   1.832  0.6311  2.8448 -1.1252
  468MOL0     H63120   3.564  10.369   1.721  1.6292  1.5395 -1.2925
  468MOL0     H63121   3.476  10.515   1.979 -1.0130  0.2878  0.0570
  468MOL0     H63122   3.354  10.459   1.874 -0.7108 -2.4311  0.7084
  468MOL0     H63123   3.437  10.222   1.879 -1.9539 -1.0517  1.0440
  468MOL0     H63124   3.582  10.282   1.977 -0.2454 -0.6429  0.9366
  468MOL0     H63125   3.438  10.340   2.162  1.5250  1.1077 -0.3695
  468MOL0     H63126   3.298  10.336   2.066 -0.3564  0.1145  0.4804
  468MOL0     H63127   3.431  10.067   2.075 -1.1607 -0.6107  1.1244
  468MOL0     H63128   3.284  10.105   2.023 -2.9322 -0.8607  2.0516
  468MOL0     H63129   3.373  10.122   2.312 -1.8829  0.2510  1.5505
  468MOL0     H63130   3.217  10.196   2.263 -2.4792 -1.4983 -2.0105
  468MOL0     H63131   3.082  10.052   2.417 -2.2517 -0.7646 -1.4941
  468MOL0     H63132   2.962   9.837   2.514  0.0074  1.0002 -3.4688
  468MOL0     H63133   3.013   9.681   2.464 -2.8698  1.5074 -1.1761
  468MOL0     H63134   3.168   9.660   2.652  1.9510  1.1202  1.4107
  468MOL0     H63135   3.176   9.828   2.682 -0.9727  0.1280  0.0214
  468MOL0     H63136   2.926   9.826   2.745  1.3142  0.2858 -1.6637
  468MOL0     H63137   3.041   9.748   2.848 -2.1924  1.0692 -0.0351
  468MOL0     H63138   3.000   9.536   2.773 -0.3529 -0.2853 -1.6887
  468MOL0     H63139   2.910   9.575   2.630  0.0962 -2.0116 -0.6616
  468MOL0     H63140   2.836   9.336   2.770 -2.3980 -0.6137 -0.3180
  468MOL0     H63141   2.775   9.169   2.920  1.2031  0.7446 -2.9323
  468MOL0     H63142   2.655   9.021   3.373 -0.4466  1.3545 -0.8899
  468MOL0     H63143   2.528   8.860   3.497 -0.4447 -0.0506  0.1709
  468MOL0     H63144   2.487   8.606   3.434 -0.0468  1.9572 -1.3605
  468MOL0     H63145   2.424   8.665   3.585  3.6843  2.1973 -2.3318
  468MOL0     H63146   2.199   8.530   3.494  0.5255 -2.1842 -1.0252
  468MOL0     H63147   2.337   8.414   3.451  1.7692 -0.3496  2.5405
  468MOL0     H63148   2.401   8.461   3.715 -0.9982 -1.4052  0.4210
  468MOL0     H63149   2.234   8.514   3.720  0.4176  0.2418 -0.0292
  468MOL0     H63150   2.261   8.303   3.783  2.5615 -2.1956  0.0304
  468MOL0     H63151   2.331   8.247   3.653 -1.5682 -0.8371 -1.4299
  468MOL0     H63152   2.083   8.184   3.626 -0.4453 -0.1629  0.4558
  468MOL0     H63153   2.117   8.303   3.508 -1.2459 -0.8837 -0.2355
  468MOL0     H63154   2.021   8.486   3.627  1.0459 -1.1246 -1.7478
  468MOL0     H63155   1.908   8.355   3.621 -1.7773  2.5001  2.0716
  468MOL0     H63156   2.040   8.396   3.883 -1.6256  1.1310  1.9460
  468MOL0     H63157   1.912   8.295   3.833  0.9764 -0.3104  0.2403
  468MOL0     H63158   1.843   8.519   3.944  2.5345  1.3916  0.8523
  468MOL0     H63159   1.923   8.616   3.816  1.9315 -1.4005 -3.7316
  468MOL0     H63160   2.265   8.807   3.168 -0.5399 -0.3163  0.6745
  468MOL0     H63161   2.415   8.940   3.033  1.0383 -0.7403  0.2903
  468MOL0     H63162   2.625   9.492   3.174  1.2993  1.5186 -0.3233
  468MOL0     H63163   2.704   9.649   3.018  0.6425  0.2040 -0.0009
  468MOL0     H63164   3.133  10.629   1.556  0.9857 -1.0983  1.0614
  468MOL0     H63165   2.911  10.551   1.545  2.8068  2.0736  2.0296
  468MOL0     H63166   2.595  10.300   1.567  3.4269 -2.0664 -0.7516
  468MOL0     H63167   2.370  10.266   1.559 -0.2716 -3.3240 -0.9837
  468MOL0     H63168   2.144  10.318   1.556 -2.2413 -3.9781  2.1488
  468MOL0     H63169   2.122  10.168   1.462 -0.0411  0.3950  2.1153
  468MOL0     H63170   1.918  10.278   1.521  0.9914 -6.8021 -1.7180
  468MOL0     H63171   1.936  10.272   1.352 -1.9261 -0.4832  2.1635
  468MOL0     H63172   2.029  10.509   1.358  1.5715  1.8295  1.7392
  468MOL0     H63173   2.002  10.518   1.530  0.1645 -1.0725  0.5509
  468MOL0     H63174   1.773  10.490   1.509  2.0169  0.6075  1.1259
  468MOL0     H63175   1.825  10.635   1.419 -1.1446  0.1249 -1.5728
  468MOL0     H63176   1.602  10.440   1.133 -0.3852  1.4983  0.0867
  468MOL0     H63177   2.345  10.355   1.146 -1.4804  1.8994  1.3012
  468MOL0     H63178   2.535  10.406   1.010 -2.1190 -0.3045  1.9493
  468MOL0     H63179   2.665  10.472   1.086 -1.8148 -0.2396 -0.6980
  468MOL0     H63180   2.660  10.294   1.044 -2.2687 -0.6227 -2.5298
  469MOL0     O63181   1.548   5.022   1.621  1.0118 -0.1311 -0.4343
  469MOL0     C63182   1.621   4.980   1.712 -0.1438 -0.4124  0.0610
  469MOL0     O63183   1.576   4.923   1.831 -0.6171  0.2170  0.2580
  469MOL0     C63184   1.441   4.897   1.857  1.0801  0.2840 -0.6473
  469MOL0     C63185   1.392   4.951   1.975  0.1184  0.0922 -0.0163
  469MOL0     C63186   1.255   4.923   2.009  0.1593  0.5478  0.8682
  469MOL0     C63187   1.176   4.842   1.938  0.4589  0.8428  0.5577
  469MOL0     O63188   1.048   4.815   1.974  0.2542 -0.5130  0.3630
  469MOL0     C63189   0.964   4.927   1.999 -0.2398 -0.0045 -1.1413
  469MOL0     C63190   0.826   4.894   2.041 -0.1961 -0.2991  0.1086
  469MOL0     C63191   0.732   5.006   2.086  0.2739  0.3410 -0.7720
  469MOL0     C63192   0.684   5.095   1.976 -0.1114 -0.5249  0.3705
  469MOL0     C63193   0.564   5.179   2.007  0.2098 -0.4744 -0.2459
  469MOL0     C63194   0.533   5.269   1.878 -0.9879  0.9213  0.0490
  469MOL0     C63195   0.488   5.187   1.759 -0.6705 -0.9203  0.0594
  469MOL0     C63196   0.364   5.094   1.780  0.9679 -0.7812  0.3738
  469MOL0     N63197   0.333   5.007   1.674  0.2031  0.2605 -0.2073
  469MOL0     C63198   0.226   5.016   1.587  0.1675  0.7533  0.1411
  469MOL0     C63199   0.247   4.908   1.500 -0.4652 -0.3369  0.1218
  469MOL0     C63200   0.158   4.881   1.389 -0.8548 -0.0265 -0.2809
  469MOL0     C63201   0.127   4.739   1.341 -0.5901  0.8553 -0.4418
  469MOL0     C63202   0.036   4.720   1.225  1.0000  0.5870  0.5837
  469MOL0     C63203   0.034   4.576   1.166 -0.1407  0.1734 -0.6417
  469MOL0     O63204  -0.057   4.569   1.059  0.0184  0.6748  0.0396
  469MOL0     C63205  -0.035   4.660   0.958  0.3183  0.3617 -0.8300
  469MOL0     C63206  -0.114   4.772   0.941 -0.3978 -0.7760 -0.5734
  469MOL0     C63207  -0.115   4.837   0.817  1.2093 -0.6507 -0.0444
  469MOL0     C63208  -0.031   4.791   0.712 -0.5102  0.5104  0.6505
  469MOL0     C63209  -0.037   4.856   0.579  0.6079  0.0855  0.0128
  469MOL0     O63210   0.067   4.825   0.491  0.0494 -0.3878 -0.0365
  469MOL0     C63211   0.098   4.932   0.409 -0.8048  0.1953 -0.1181
  469MOL0     C63212   0.010   4.943   0.304  1.0170 -1.1476  0.9246
  469MOL0     C63213   0.035   5.056   0.213 -0.2234 -0.0872  0.8939
  469MOL0     C63214   0.145   5.142   0.233 -1.0085 -0.5593  0.1703
  469MOL0     O63215   0.174   5.246   0.153  0.3056 -0.6687 -0.3515
  469MOL0     C63216   0.060   5.338   0.152 -0.6602 -0.0968  0.1679
  469MOL0     C63217   0.103   5.447   0.053  0.1236  0.5546  0.0126
  469MOL0     C63218  -0.017   5.543   0.032 -0.1928 -0.8688 -0.0880
  469MOL0     C63219   0.032   5.658  -0.068 -0.4294 -0.8498 -1.1471
  469MOL0     C63220  -0.085   5.758  -0.110  1.0761  0.0083  0.8289
  469MOL0     C63221  -0.059   5.845  -0.224 -0.0111  0.2005  0.9530
  469MOL0     C63222  -0.156   5.966  -0.228 -0.1180  0.5684  1.0578
  469MOL0     C63223  -0.084   6.078  -0.313 -0.3243  0.2418  0.4880
  469MOL0    Cl63224  -0.208   6.198  -0.378  0.0779 -0.2094 -0.1853
  469MOL0     C63225   0.235   5.102   0.331 -0.2239 -0.3838 -0.2292
  469MOL0     C63226   0.215   5.002   0.417 -0.1664  0.9427 -0.2111
  469MOL0     O63227  -0.101   4.956   0.575  0.9604 -1.1541  0.3637
  469MOL0     C63228   0.043   4.676   0.728 -0.0158  0.5722 -1.1736
  469MOL0     C63229   0.037   4.607   0.852 -0.2094  0.9092 -0.0585
  469MOL0     N63230   0.369   4.843   1.532 -0.0269 -0.0082 -0.3342
  469MOL0     N63231   0.406   4.891   1.643  0.0101 -0.5279  0.5417
  469MOL0     C63232   1.224   4.782   1.816 -0.2619 -0.2137 -0.3514
  469MOL0     C63233   1.359   4.818   1.775 -0.0043  0.2276 -0.1002
  469MOL0     C63234   1.772   4.996   1.692  0.1193  0.2402  0.2094
  469MOL0     C63235   1.859   4.976   1.806 -0.1552 -0.8903 -0.6208
  469MOL0     C63236   1.994   4.992   1.792  0.9225 -0.6914  0.5847
  469MOL0     C63237   2.057   5.006   1.670  0.2498  0.7243 -0.2004
  469MOL0     O63238   2.191   4.998   1.674 -0.6469  0.1732  0.5737
  469MOL0     C63239   2.265   4.989   1.554  0.5817 -0.1124 -0.4036
  469MOL0     C63240   2.404   4.960   1.599  0.6366 -0.3031 -0.4107
  469MOL0     C63241   2.502   4.964   1.481 -0.3171 -0.2072 -0.6211
  469MOL0     C63242   2.641   4.937   1.524 -0.4363 -0.0195 -0.3773
  469MOL0     C63243   2.735   5.025   1.454  0.1862  0.2847  0.0536
  469MOL0     C63244   2.798   5.098   1.374 -0.4949  0.1139  0.5161
  469MOL0     C63245   1.979   5.022   1.557 -1.3095  0.3509  0.2767
  469MOL0     C63246   1.840   5.012   1.561 -0.7704 -0.2601 -0.9074
  469MOL0     C63247   1.764   5.048   1.440 -0.7105 -0.3737 -0.0804
  469MOL0     H63248   1.466   4.995   2.041  2.4105 -1.4925 -1.3894
  469MOL0     H63249   1.210   4.990   2.083  0.2199  1.7005 -0.1053
  469MOL0     H63250   0.993   4.979   2.091  1.0360 -1.7051 -0.5374
  469MOL0     H63251   0.978   5.004   1.922  2.7812 -0.2993 -0.9876
  469MOL0     H63252   0.819   4.823   2.124  0.8565 -2.3283 -1.4532
  469MOL0     H63253   0.779   4.839   1.959 -1.6092 -0.6443  1.1013
  469MOL0     H63254   0.800   5.067   2.146 -1.3261  2.1631 -0.7566
  469MOL0     H63255   0.654   4.962   2.148 -0.1980  3.9450  1.4405
  469MOL0     H63256   0.766   5.159   1.943  1.6770 -3.0226 -0.2866
  469MOL0     H63257   0.643   5.028   1.900  0.8200 -2.3191  1.3724
  469MOL0     H63258   0.480   5.122   2.048  0.3242  1.1826  2.5706
  469MOL0     H63259   0.588   5.247   2.089 -2.8677  1.2819 -0.6463
  469MOL0     H63260   0.452   5.340   1.898 -0.7839  1.8717 -2.2537
  469MOL0     H63261   0.628   5.314   1.846 -0.7550  0.1244 -0.3869
  469MOL0     H63262   0.574   5.123   1.736  1.2217  0.8667  1.7167
  469MOL0     H63263   0.470   5.254   1.675  1.8111 -0.3832 -0.1154
  469MOL0     H63264   0.367   5.036   1.872  2.4574 -2.3209 -0.5871
  469MOL0     H63265   0.275   5.155   1.796  2.4475  0.8405  2.9650
  469MOL0     H63266   0.144   5.086   1.576  2.0587  2.6717 -5.0477
  469MOL0     H63267   0.067   4.937   1.411 -0.6674 -0.0394  0.5579
  469MOL0     H63268   0.213   4.919   1.303  0.6737  1.2644  1.2096
  469MOL0     H63269   0.220   4.711   1.292 -1.5891  0.5384 -2.2370
  469MOL0     H63270   0.110   4.683   1.434  2.7714 -1.1544 -0.8825
  469MOL0     H63271   0.061   4.780   1.138 -3.0670 -1.1911 -2.1171
  469MOL0     H63272  -0.065   4.750   1.255  0.2945 -1.8800  0.9757
  469MOL0     H63273   0.007   4.501   1.241 -1.0511 -0.5608 -1.6809
  469MOL0     H63274   0.141   4.556   1.153  0.1910  1.5480 -0.1569
  469MOL0     H63275  -0.179   4.813   1.017 -1.4157 -1.0111 -1.2814
  469MOL0     H63276  -0.179   4.924   0.803 -1.3085 -2.5742 -1.2968
  469MOL0     H63277  -0.072   4.872   0.302  0.7311 -0.8173 -0.9669
  469MOL0     H63278  -0.033   5.066   0.129 -0.0894 -1.8085  0.5516
  469MOL0     H63279  -0.029   5.284   0.119 -1.6470  1.6713 -0.2277
  469MOL0     H63280   0.043   5.380   0.252 -1.9852  2.1007 -0.9202
  469MOL0     H63281   0.189   5.497   0.099 -0.6100 -0.4422  2.6382
  469MOL0     H63282   0.124   5.400  -0.043  0.2357  2.0192 -0.7165
  469MOL0     H63283  -0.107   5.491  -0.003 -0.6146 -0.8197  0.8862
  469MOL0     H63284  -0.047   5.586   0.128 -1.7910  0.8537 -1.2854
  469MOL0     H63285   0.070   5.622  -0.164 -0.2338 -0.7501 -1.1075
  469MOL0     H63286   0.119   5.710  -0.029  1.1922 -2.5891 -2.2640
  469MOL0     H63287  -0.133   5.816  -0.031 -1.3504 -1.2879  0.4037
  469MOL0     H63288  -0.157   5.681  -0.140  0.8753  0.1252  1.0175
  469MOL0     H63289   0.044   5.880  -0.210  0.5248 -1.2893  0.8566
  469MOL0     H63290  -0.053   5.796  -0.322 -1.9158  2.2637 -0.3150
  469MOL0     H63291  -0.172   6.003  -0.127 -1.2350  0.1463  1.0428
  469MOL0     H63292  -0.246   5.934  -0.282  0.0806  2.1890 -0.3340
  469MOL0     H63293  -0.013   6.129  -0.246  1.3106 -1.0153 -0.2208
  469MOL0     H63294  -0.026   6.043  -0.399 -3.6645  0.0864 -1.8686
  469MOL0     H63295   0.326   5.162   0.338  0.4592 -1.5366  1.5935
  469MOL0     H63296   0.287   4.978   0.495 -0.6433 -1.7909 -0.5269
  469MOL0     H63297   0.108   4.635   0.651  2.9561  0.3611  1.2360
  469MOL0     H63298   0.102   4.522   0.868 -0.1858  0.8075 -0.6779
  469MOL0     H63299   1.166   4.706   1.764  2.0063 -1.6785 -0.9180
  469MOL0     H63300   1.402   4.777   1.684 -1.8396 -0.0432 -0.8801
  469MOL0     H63301   1.806   4.955   1.899 -2.3635 -0.6312 -1.7343
  469MOL0     H63302   2.049   4.987   1.886 -0.1469 -2.0848  1.1899
  469MOL0     H63303   2.245   5.082   1.499 -1.9847  0.2390  0.9735
  469MOL0     H63304   2.237   4.900   1.496  1.7964  1.2794 -3.3481
  469MOL0     H63305   2.376   4.860   1.636 -4.0169  1.3138  1.1234
  469MOL0     H63306   2.434   5.027   1.680 -1.0186 -0.8344  0.6896
  469MOL0     H63307   2.485   5.066   1.444 -0.3480  1.4292  3.3722
  469MOL0     H63308   2.479   4.900   1.396 -0.2540 -2.7927  1.1933
  469MOL0     H63309   2.660   4.947   1.631 -2.9157  0.1146  0.1062
  469MOL0     H63310   2.661   4.830   1.508 -0.5383  0.0885 -1.3250
  469MOL0     H63311   2.832   5.170   1.303  0.1784 -0.5207  0.1861
  469MOL0     H63312   2.015   5.060   1.462 -2.4144 -1.1623 -0.8014
  469MOL0     H63313   1.690   4.972   1.415  0.5254 -2.9928  3.4018
  469MOL0     H63314   1.725   5.147   1.465  1.6860  0.8628 -0.9549
  469MOL0     H63315   1.837   5.054   1.359  0.2312 -0.4336  0.7541
  470MOL0     O63316  11.491   1.644  11.435 -0.3949  0.3414  0.0409
  470MOL0     C63317  11.374   1.655  11.451  0.5032  0.7818  0.4595
  470MOL0     O63318  11.320   1.695  11.567 -0.0972  0.4625 -0.1642
  470MOL0     C63319  11.405   1.762  11.653 -0.0243 -0.1848 -0.1636
  470MOL0     C63320  11.516   1.700  11.714 -0.4731  0.3451 -0.6027
  470MOL0     C63321  11.605   1.774  11.802  0.2626 -0.6348 -0.1522
  470MOL0     C63322  11.592   1.906  11.827  0.3265 -0.6612  0.4612
  470MOL0     O63323  11.684   1.985  11.883  0.0446  1.1477 -1.1616
  470MOL0     C63324  11.794   1.926  11.962  0.5052  0.0034  1.1055
  470MOL0     C63325  11.762   1.932  12.119 -0.5034 -0.5160  0.1891
  470MOL0     C63326  11.889   1.867  12.196 -0.0179  0.0369 -0.4129
  470MOL0     C63327  11.859   1.859  12.343  0.2054  0.6407  0.1915
  470MOL0     C63328  11.961   1.764  12.405  0.0477 -0.1972 -0.0567
  470MOL0     C63329  11.924   1.731  12.549  0.1361 -0.1590  0.1313
  470MOL0     C63330  12.045   1.722  12.646  0.5338 -0.7422 -0.1786
  470MOL0     C63331  12.135   1.613  12.592 -0.4331  0.2863 -0.1670
  470MOL0     N63332  12.230   1.571  12.700  0.1322 -0.4993  0.8562
  470MOL0     C63333  12.192   1.473  12.796 -0.7596 -0.1628  0.6038
  470MOL0     C63334  12.319   1.435  12.844 -0.0215  0.3533 -0.0152
  470MOL0     C63335  12.340   1.322  12.940  0.3023 -0.4533  1.0546
  470MOL0     C63336  12.357   1.190  12.866 -0.4577 -0.3269  0.4288
  470MOL0     C63337  12.395   1.068  12.951 -0.4366 -0.2216  0.4560
  470MOL0     C63338  12.419   0.936  12.885 -0.1980 -0.2960 -0.3112
  470MOL0     O63339  12.314   0.912  12.793  0.3495  0.5110  0.7583
  470MOL0     C63340  12.189   0.864  12.829 -1.5104  0.0497 -0.9448
  470MOL0     C63341  12.080   0.891  12.751 -0.6697  0.8216 -0.2876
  470MOL0     C63342  11.958   0.836  12.778  0.2049 -0.8663 -0.2822
  470MOL0     C63343  11.935   0.774  12.900 -0.5402 -0.3635 -0.5852
  470MOL0     C63344  11.796   0.741  12.942  0.1849 -0.2576 -0.4985
  470MOL0     O63345  11.697   0.769  12.849 -0.7635 -1.1703  0.1262
  470MOL0     C63346  11.567   0.759  12.885 -0.3349 -0.3025 -0.1022
  470MOL0     C63347  11.528   0.777  13.022  0.7597 -0.4610 -0.4198
  470MOL0     C63348  11.392   0.763  13.054  0.2641  0.1647 -0.7082
  470MOL0     C63349  11.290   0.751  12.957 -0.7050 -0.9921 -0.7610
  470MOL0     O63350  11.161   0.740  12.983 -0.2118  0.2387 -0.1422
  470MOL0     C63351  11.110   0.766  13.113  0.9318  0.6013 -0.4474
  470MOL0     C63352  10.972   0.700  13.131  0.3920 -0.6915 -0.6137
  470MOL0     C63353  10.979   0.546  13.096 -0.0493 -0.0236  0.2933
  470MOL0     C63354  10.840   0.487  13.106 -0.1393 -0.0763  0.4961
  470MOL0     C63355  10.841   0.346  13.052 -0.5169  0.1405  0.5982
  470MOL0     C63356  10.832   0.352  12.898 -0.4418 -0.4129 -0.5040
  470MOL0     C63357  10.882   0.219  12.841  0.4703 -0.8743  0.0202
  470MOL0     C63358  10.868   0.228  12.689  0.2960 -0.3385  0.3645
  470MOL0    Cl63359  10.981   0.356  12.627 -0.0583 -0.1029 -0.4063
  470MOL0     C63360  11.332   0.752  12.827 -0.0148 -0.2222 -0.0189
  470MOL0     C63361  11.469   0.770  12.789 -0.8330 -0.1505  0.6358
  470MOL0     O63362  11.786   0.688  13.049  0.0373 -0.1958  1.0254
  470MOL0     C63363  12.042   0.766  12.988  0.3296  0.0217 -0.1985
  470MOL0     C63364  12.169   0.807  12.955 -0.3953  0.0825  0.9456
  470MOL0     N63365  12.417   1.516  12.783  1.2523 -0.8268  0.7438
  470MOL0     N63366  12.367   1.594  12.692 -0.0407 -0.6502  0.7441
  470MOL0     C63367  11.479   1.966  11.768  0.0016 -0.4006 -0.0628
  470MOL0     C63368  11.385   1.896  11.684  0.0002 -1.0601  0.3421
  470MOL0     C63369  11.288   1.615  11.333  0.1253  1.0871  1.0804
  470MOL0     C63370  11.344   1.543  11.223  0.2294  1.1192 -0.7555
  470MOL0     C63371  11.266   1.495  11.119 -0.3340 -1.2350  0.1306
  470MOL0     C63372  11.124   1.483  11.132  0.1232 -1.0585 -0.1361
  470MOL0     O63373  11.035   1.430  11.043  0.6134  0.7345 -0.9389
  470MOL0     C63374  11.085   1.353  10.935  0.1395 -0.5464 -0.9669
  470MOL0     C63375  10.979   1.266  10.886  0.8913  0.5442 -0.8737
  470MOL0     C63376  10.908   1.167  11.000 -0.5497  0.2759 -0.1820
  470MOL0     C63377  11.014   1.117  11.100 -0.2385  0.0660  0.5618
  470MOL0     C63378  10.955   1.030  11.207  0.8152  0.8081  0.1166
  470MOL0     C63379  10.888   0.978  11.287 -0.4478  0.1953  0.9820
  470MOL0     C63380  11.077   1.552  11.243  0.2795 -0.6487  0.0374
  470MOL0     C63381  11.149   1.628  11.343  0.3611  1.1112  1.4944
  470MOL0     C63382  11.066   1.703  11.447  0.4348 -0.2335  0.0133
  470MOL0     H63383  11.545   1.598  11.695 -1.2398 -0.2299  1.1046
  470MOL0     H63384  11.687   1.724  11.853  0.4812  0.1309  0.2630
  470MOL0     H63385  11.841   1.842  11.911  1.0004  0.5364  0.6643
  470MOL0     H63386  11.874   1.999  11.943  1.0993 -1.2468 -1.6929
  470MOL0     H63387  11.672   1.875  12.142 -2.6095  1.2491 -2.9552
  470MOL0     H63388  11.752   2.032  12.162 -0.1059 -0.7831  0.9306
  470MOL0     H63389  11.983   1.922  12.190 -0.4173  1.5613  4.0736
  470MOL0     H63390  11.898   1.766  12.155  0.3207 -2.5614  5.1438
  470MOL0     H63391  11.864   1.961  12.383  1.0936  1.3733 -1.6354
  470MOL0     H63392  11.768   1.812  12.380  1.1335 -0.3849  1.2529
  470MOL0     H63393  11.978   1.671  12.349 -0.8074 -0.2006 -0.3261
  470MOL0     H63394  12.052   1.824  12.397 -0.4815  0.4994 -1.1663
  470MOL0     H63395  11.860   1.804  12.600  2.7009  1.7040  0.9176
  470MOL0     H63396  11.873   1.634  12.551  2.7279 -1.6266 -0.6347
  470MOL0     H63397  12.014   1.705  12.750 -2.4083  1.4193 -0.5922
  470MOL0     H63398  12.087   1.822  12.660 -0.4475 -0.5683  1.9538
  470MOL0     H63399  12.076   1.529  12.556 -0.7032  0.6882 -0.6644
  470MOL0     H63400  12.185   1.642  12.499 -1.7853  0.9421 -0.7041
  470MOL0     H63401  12.087   1.446  12.804 -0.4381 -1.3150  1.0865
  470MOL0     H63402  12.426   1.344  13.004  0.1630  1.9947  0.4972
  470MOL0     H63403  12.261   1.302  13.013  0.2007 -0.9246  0.8232
  470MOL0     H63404  12.263   1.180  12.812  0.8470 -0.6719 -1.8914
  470MOL0     H63405  12.442   1.203  12.798 -2.5015 -2.3470 -2.7471
  470MOL0     H63406  12.321   1.054  13.030  0.2897  0.4544  1.2878
  470MOL0     H63407  12.482   1.089  13.015  0.0926 -3.2273  0.8637
  470MOL0     H63408  12.444   0.867  12.966  1.0662  3.8046  3.1211
  470MOL0     H63409  12.512   0.938  12.827 -0.4321 -1.6432 -0.7643
  470MOL0     H63410  12.083   0.968  12.675  1.2712 -0.8028 -1.9632
  470MOL0     H63411  11.886   0.879  12.709  1.6637  1.5872 -0.3955
  470MOL0     H63412  11.587   0.796  13.111  3.5324 -1.4077 -1.9266
  470MOL0     H63413  11.371   0.766  13.161  1.3421  3.5863 -0.4894
  470MOL0     H63414  11.176   0.703  13.172 -1.0021 -2.9667 -1.7648
  470MOL0     H63415  11.106   0.872  13.140 -1.1664 -0.6288  5.4127
  470MOL0     H63416  10.955   0.718  13.238 -0.4193  0.3726 -0.9094
  470MOL0     H63417  10.890   0.748  13.077 -0.0792  1.7065  1.9784
  470MOL0     H63418  11.007   0.540  12.991  0.9109 -2.6336  0.6339
  470MOL0     H63419  11.053   0.487  13.151  1.3674  0.3689 -1.1187
  470MOL0     H63420  10.775   0.551  13.045 -0.2325  1.1205  1.7909
  470MOL0     H63421  10.790   0.486  13.203 -0.2612 -0.1215  0.4324
  470MOL0     H63422  10.765   0.282  13.098  1.0561  0.0654  3.2745
  470MOL0     H63423  10.934   0.304  13.092 -0.8424 -2.4825 -1.1292
  470MOL0     H63424  10.727   0.365  12.870 -0.8768  4.0678  2.1308
  470MOL0     H63425  10.885   0.436  12.852  0.2709 -0.6177 -0.0549
  470MOL0     H63426  10.824   0.139  12.887 -0.8585  0.7576  1.2946
  470MOL0     H63427  10.987   0.224  12.870 -0.6098  2.7337  4.3295
  470MOL0     H63428  10.896   0.134  12.641 -2.1709  0.1707 -2.3567
  470MOL0     H63429  10.767   0.259  12.661  1.2067  2.9228  0.2671
  470MOL0     H63430  11.249   0.726  12.763 -0.3987  1.5741 -0.2878
  470MOL0     H63431  11.503   0.771  12.686 -1.7592 -0.0983  0.3189
  470MOL0     H63432  12.033   0.727  13.089 -0.1624  0.9683  0.1314
  470MOL0     H63433  12.245   0.780  13.029 -2.1356  0.8387  3.1401
  470MOL0     H63434  11.464   2.072  11.787  1.8130 -0.1242 -0.0612
  470MOL0     H63435  11.301   1.950  11.642 -0.1914 -0.3029  1.6717
  470MOL0     H63436  11.451   1.526  11.214  0.8262  2.4389  2.4502
  470MOL0     H63437  11.319   1.457  11.032  1.0943  0.0303  0.4122
  470MOL0     H63438  11.173   1.300  10.970 -0.0069  1.2863  2.6106
  470MOL0     H63439  11.113   1.419  10.852 -0.1747 -1.8801 -2.1855
  470MOL0     H63440  11.017   1.206  10.802  1.2845  1.9154 -1.7042
  470MOL0     H63441  10.913   1.327  10.824  1.2204 -0.6822 -2.5016
  470MOL0     H63442  10.852   1.088  10.949 -1.2086 -0.6357  1.8887
  470MOL0     H63443  10.829   1.222  11.051  0.6778  1.8465  0.1101
  470MOL0     H63444  11.095   1.072  11.041 -0.7430 -1.4667  1.0067
  470MOL0     H63445  11.046   1.210  11.147  1.2842  1.1128 -2.2554
  470MOL0     H63446  10.801   0.947  11.341  0.0494 -0.5652  1.3656
  470MOL0     H63447  10.969   1.553  11.254 -0.0484  5.7309 -0.2867
  470MOL0     H63448  10.975   1.739  11.399  0.5066 -2.8570 -2.3425
  470MOL0     H63449  11.030   1.631  11.522 -0.3660  1.9889  1.8625
  470MOL0     H63450  11.116   1.783  11.503 -3.2828  3.1203 -0.9981
  471MOL0     O63451   1.468   8.831   6.949  0.2639 -0.9253  0.9451
  471MOL0     C63452   1.356   8.828   7.000 -0.4554  0.5775  0.2417
  471MOL0     O63453   1.336   8.806   7.135  0.0843 -0.4559 -0.5787
  471MOL0     C63454   1.433   8.820   7.227  0.4558 -0.1409 -0.4990
  471MOL0     C63455   1.461   8.952   7.273 -1.1099 -0.0300 -0.0747
  471MOL0     C63456   1.542   8.969   7.393 -0.2193 -0.3786  0.0667
  471MOL0     C63457   1.603   8.855   7.456  0.4212  0.2622  1.6362
  471MOL0     O63458   1.687   8.891   7.556 -0.8859 -0.0688  0.0470
  471MOL0     C63459   1.760   8.779   7.615  0.5995 -0.2354  0.7143
  471MOL0     C63460   1.834   8.825   7.746 -0.1077  0.0209  0.5300
  471MOL0     C63461   1.901   8.724   7.834  0.0656  0.0758 -0.2476
  471MOL0     C63462   1.930   8.806   7.963  0.4486 -0.2411 -0.0203
  471MOL0     C63463   1.983   8.711   8.066 -0.8390  0.0833 -0.2592
  471MOL0     C63464   2.053   8.792   8.177 -0.2717  0.2581  0.7131
  471MOL0     C63465   2.068   8.693   8.295 -0.1726  0.4986  0.3971
  471MOL0     C63466   1.936   8.691   8.376 -0.1172  0.2610 -0.5254
  471MOL0     N63467   1.935   8.609   8.501 -0.2885  0.1812 -0.4969
  471MOL0     C63468   1.954   8.473   8.484  0.9671 -0.4752 -0.3156
  471MOL0     C63469   1.948   8.424   8.613 -0.9181  0.0370 -0.0437
  471MOL0     C63470   1.944   8.289   8.670 -0.9258  0.9242 -0.3845
  471MOL0     C63471   2.051   8.278   8.782  0.1596  0.1845  0.7284
  471MOL0     C63472   2.090   8.141   8.802 -0.7040  0.0829 -0.1106
  471MOL0     C63473   1.967   8.043   8.847 -0.9978 -0.6673  0.4186
  471MOL0     O63474   2.010   7.905   8.809  0.1977  0.3271 -0.1944
  471MOL0     C63475   1.925   7.799   8.801 -0.1400 -0.5309  0.1796
  471MOL0     C63476   1.971   7.677   8.749 -0.6261  0.2604 -0.2135
  471MOL0     C63477   1.887   7.570   8.751  0.1694 -0.9984  0.0315
  471MOL0     C63478   1.755   7.574   8.801 -1.3620  0.0886  0.7145
  471MOL0     C63479   1.676   7.452   8.787 -0.0734  0.2902  0.9100
  471MOL0     O63480   1.704   7.368   8.683 -0.0067  0.6965 -0.7044
  471MOL0     C63481   1.663   7.240   8.702 -0.4909  0.4416 -0.8418
  471MOL0     C63482   1.578   7.185   8.605 -0.4342 -0.0238  0.1443
  471MOL0     C63483   1.544   7.049   8.606  0.6303 -0.7302 -0.6912
  471MOL0     C63484   1.610   6.958   8.692 -0.3831 -0.6616  0.5537
  471MOL0     O63485   1.579   6.820   8.690 -0.6216 -0.8699 -0.5297
  471MOL0     C63486   1.499   6.759   8.594  0.2639  0.9461 -0.6061
  471MOL0     C63487   1.384   6.694   8.664 -0.0347  0.8198  0.7289
  471MOL0     C63488   1.273   6.782   8.692  1.0563 -0.6495 -0.0404
  471MOL0     C63489   1.181   6.738   8.814 -0.5113 -0.6912  0.3820
  471MOL0     C63490   1.065   6.837   8.815  0.5675 -0.8752  1.0725
  471MOL0     C63491   0.943   6.793   8.884 -0.1424 -0.4224 -0.2404
  471MOL0     C63492   0.980   6.760   9.031 -0.0405 -0.0807 -0.1386
  471MOL0     C63493   0.896   6.640   9.074  0.7295 -0.2463  0.3425
  471MOL0    Cl63494   0.918   6.485   8.990  0.1832  0.9613 -0.6468
  471MOL0     C63495   1.708   7.009   8.776 -0.2940 -0.2860  0.3764
  471MOL0     C63496   1.726   7.153   8.793 -0.9879 -0.1863  1.1233
  471MOL0     O63497   1.590   7.437   8.867 -0.1096 -0.2386 -0.2760
  471MOL0     C63498   1.708   7.695   8.855 -0.2004  0.0624  0.1066
  471MOL0     C63499   1.796   7.808   8.855  0.2655 -0.3191 -0.6431
  471MOL0     N63500   1.921   8.532   8.700 -0.1253  0.3691  0.1469
  471MOL0     N63501   1.920   8.644   8.628 -0.6303  0.8918 -1.0210
  471MOL0     C63502   1.579   8.726   7.403  0.7511  0.8720  0.8503
  471MOL0     C63503   1.497   8.705   7.291 -0.3187  0.2681 -0.6160
  471MOL0     C63504   1.233   8.846   6.931 -0.5709  0.9465 -1.0099
  471MOL0     C63505   1.218   8.957   6.849  0.4112 -0.0420  0.0355
  471MOL0     C63506   1.097   8.977   6.780  0.0134  0.2793  0.3310
  471MOL0     C63507   0.988   8.908   6.809  1.7744  0.6806  0.6820
  471MOL0     O63508   0.862   8.934   6.746 -0.3857 -0.5712 -0.7332
  471MOL0     C63509   0.742   8.868   6.775  0.2896 -0.7301 -0.2226
  471MOL0     C63510   0.625   8.935   6.706  0.2856  1.1209  0.0692
  471MOL0     C63511   0.623   8.916   6.546 -0.9300 -0.8721  0.6277
  471MOL0     C63512   0.543   9.017   6.463 -0.6085  0.6156  0.3634
  471MOL0     C63513   0.395   9.005   6.473 -0.2198  0.2192  0.0762
  471MOL0     C63514   0.274   9.021   6.465  0.0473  0.5681 -1.3310
  471MOL0     C63515   0.996   8.812   6.909  0.1537  0.3491  0.0287
  471MOL0     C63516   1.118   8.767   6.958 -0.4880  0.6138  1.3557
  471MOL0     C63517   1.125   8.644   7.044  0.2399 -0.7841 -0.1366
  471MOL0     H63518   1.415   9.036   7.222 -2.7539 -2.4526 -2.8356
  471MOL0     H63519   1.563   9.058   7.451 -1.0726 -0.5531  0.6675
  471MOL0     H63520   1.685   8.703   7.640  1.1862 -1.3872 -0.8843
  471MOL0     H63521   1.827   8.728   7.546  0.3107 -0.1729  0.3848
  471MOL0     H63522   1.757   8.874   7.806 -0.9208 -1.5120  0.7881
  471MOL0     H63523   1.906   8.903   7.721  2.7244 -1.9123  2.0591
  471MOL0     H63524   1.989   8.680   7.787  0.0155 -0.7142  0.3750
  471MOL0     H63525   1.841   8.640   7.871  1.5209 -0.0488  2.0326
  471MOL0     H63526   1.991   8.895   7.943  1.0047 -0.6901 -0.3615
  471MOL0     H63527   1.835   8.836   8.007 -0.0627 -1.5021 -0.2384
  471MOL0     H63528   1.901   8.647   8.100  0.6720 -3.8948 -3.3065
  471MOL0     H63529   2.058   8.657   8.009  1.0527  2.0782  0.2023
  471MOL0     H63530   2.155   8.799   8.137 -1.0701 -2.8558 -2.3113
  471MOL0     H63531   2.010   8.887   8.209 -2.9856  0.8093 -3.6878
  471MOL0     H63532   2.150   8.725   8.359  0.3144  1.6450 -0.7501
  471MOL0     H63533   2.101   8.596   8.255 -0.0179  0.7189 -0.0088
  471MOL0     H63534   1.927   8.794   8.414 -1.5109  1.0035 -2.7250
  471MOL0     H63535   1.844   8.676   8.320 -0.3358  1.0137 -0.3765
  471MOL0     H63536   1.961   8.424   8.388  2.2886  1.4759 -1.2968
  471MOL0     H63537   1.844   8.274   8.713 -0.8869 -0.2397 -0.6462
  471MOL0     H63538   1.955   8.209   8.596  3.5132  0.0959  0.9148
  471MOL0     H63539   2.141   8.334   8.756 -0.6501  0.7493 -0.9727
  471MOL0     H63540   1.999   8.318   8.869 -3.1874 -0.8001 -0.6713
  471MOL0     H63541   2.169   8.130   8.877 -0.2201 -2.3820 -0.9075
  471MOL0     H63542   2.128   8.102   8.708 -1.1879  0.5764 -0.5221
  471MOL0     H63543   1.874   8.074   8.799  0.8910  4.0745 -0.7282
  471MOL0     H63544   1.950   8.046   8.955 -0.5764 -3.6896  0.6572
  471MOL0     H63545   2.071   7.657   8.712 -0.8682 -0.9487 -0.2479
  471MOL0     H63546   1.925   7.476   8.713  1.7777 -0.4190  0.1137
  471MOL0     H63547   1.538   7.250   8.528  2.1935  3.1950  1.2733
  471MOL0     H63548   1.474   7.004   8.536  1.5873 -4.0142  0.2973
  471MOL0     H63549   1.491   6.810   8.498 -1.0039  4.1113  1.0318
  471MOL0     H63550   1.562   6.673   8.567  4.5966  2.8137  2.5375
  471MOL0     H63551   1.353   6.607   8.605  1.1275  1.4227 -0.8476
  471MOL0     H63552   1.417   6.640   8.753  0.9981  0.0006 -0.1168
  471MOL0     H63553   1.309   6.883   8.714  1.2105  0.4411 -4.3238
  471MOL0     H63554   1.201   6.777   8.609  0.3736  0.7116  0.4393
  471MOL0     H63555   1.236   6.756   8.907  1.4630 -2.9525 -0.2233
  471MOL0     H63556   1.146   6.635   8.822  0.6433 -1.0140  1.6842
  471MOL0     H63557   1.040   6.870   8.714  1.4449  2.9473  1.9676
  471MOL0     H63558   1.106   6.928   8.859 -0.1560 -0.7016  1.3960
  471MOL0     H63559   0.866   6.871   8.891 -0.0679 -0.4451  0.9797
  471MOL0     H63560   0.906   6.712   8.821 -1.3008  1.1273 -1.6799
  471MOL0     H63561   0.960   6.845   9.097  1.4080 -0.2868  0.6093
  471MOL0     H63562   1.083   6.730   9.052 -0.5200 -2.4084 -0.7814
  471MOL0     H63563   0.910   6.626   9.182  0.7767 -0.8980  0.2548
  471MOL0     H63564   0.790   6.664   9.058  1.6261  2.5273 -2.3380
  471MOL0     H63565   1.764   6.947   8.845  2.6812  0.8724 -0.8390
  471MOL0     H63566   1.792   7.195   8.868  0.3181  1.7397 -0.9819
  471MOL0     H63567   1.611   7.696   8.904 -0.2785  1.0696 -0.0464
  471MOL0     H63568   1.758   7.897   8.903  0.4772 -0.3795 -0.3558
  471MOL0     H63569   1.635   8.638   7.433 -0.9653 -1.1791 -1.4844
  471MOL0     H63570   1.476   8.607   7.248 -0.1023  0.8779 -2.1461
  471MOL0     H63571   1.298   9.027   6.829  0.9693 -0.4225  0.8889
  471MOL0     H63572   1.078   9.058   6.709 -0.0264 -1.7736 -2.1392
  471MOL0     H63573   0.719   8.870   6.882 -2.2056 -2.4259 -0.6585
  471MOL0     H63574   0.754   8.766   6.740 -1.8029 -0.1831 -2.7946
  471MOL0     H63575   0.637   9.041   6.727  0.7002  1.1390 -0.2170
  471MOL0     H63576   0.535   8.893   6.750  1.2615 -1.5249 -0.2704
  471MOL0     H63577   0.599   8.815   6.512  2.5451 -1.2726 -1.0549
  471MOL0     H63578   0.724   8.937   6.511 -0.2848 -1.3372  2.1803
  471MOL0     H63579   0.572   9.114   6.503 -0.6304  0.8288 -0.1295
  471MOL0     H63580   0.571   9.011   6.358 -0.9305 -0.2335  0.3120
  471MOL0     H63581   0.169   9.019   6.447 -0.0077 -0.5340 -0.9858
  471MOL0     H63582   0.907   8.759   6.943 -0.0691  1.2255  0.8630
  471MOL0     H63583   1.226   8.608   7.063  0.1055 -0.6822  0.8132
  471MOL0     H63584   1.095   8.674   7.145 -0.3654 -1.5705 -0.0662
  471MOL0     H63585   1.064   8.568   6.993 -0.5138  1.3767 -2.6770
  472MOL0     O63586   8.266   3.006   8.535 -0.3306  0.3460  0.0521
  472MOL0     C63587   8.239   3.097   8.465 -0.4411  0.9009 -0.2313
  472MOL0     O63588   8.155   3.192   8.502  0.3803 -0.4559  0.2132
  472MOL0     C63589   8.100   3.199   8.623  0.4637  0.3693 -0.6536
  472MOL0     C63590   8.175   3.178   8.740  0.1278 -0.3556  0.2638
  472MOL0     C63591   8.118   3.181   8.865 -0.0742 -0.2573  0.3806
  472MOL0     C63592   7.989   3.204   8.880 -0.5607 -0.8876  0.2832
  472MOL0     O63593   7.939   3.202   9.006 -0.8590 -0.4336 -0.2843
  472MOL0     C63594   7.838   3.295   9.041  0.0568  0.2197  0.0933
  472MOL0     C63595   7.826   3.275   9.194 -0.2725 -1.2637 -0.5802
  472MOL0     C63596   7.966   3.268   9.275 -0.5966  0.3123 -0.8930
  472MOL0     C63597   8.060   3.375   9.234  0.5144 -0.2294 -0.4416
  472MOL0     C63598   8.173   3.384   9.340  0.0642  0.3056  0.3546
  472MOL0     C63599   8.269   3.490   9.306 -0.0182 -0.3139 -0.2726
  472MOL0     C63600   8.312   3.563   9.432  0.1658  0.3045 -0.5860
  472MOL0     C63601   8.233   3.684   9.464 -0.6525  0.1304  0.1936
  472MOL0     N63602   8.316   3.765   9.547 -0.8229 -0.1628  0.0800
  472MOL0     C63603   8.375   3.736   9.663  0.3526  0.1111 -0.8779
  472MOL0     C63604   8.463   3.839   9.688 -0.2838  1.0785  0.2389
  472MOL0     C63605   8.550   3.843   9.811 -0.8406 -0.1400 -0.1345
  472MOL0     C63606   8.460   3.815   9.937 -1.1091 -0.4284 -0.7063
  472MOL0     C63607   8.543   3.812  10.060 -0.2116  0.2987  0.5918
  472MOL0     C63608   8.544   3.940  10.147 -0.6035 -0.0974 -0.0120
  472MOL0     O63609   8.605   3.894  10.266 -0.0042 -0.3312 -0.1067
  472MOL0     C63610   8.741   3.905  10.273 -0.2890 -0.7663 -0.0035
  472MOL0     C63611   8.822   4.008  10.252 -0.5401  0.1514 -0.0335
  472MOL0     C63612   8.965   4.007  10.260  0.0726 -0.0912  0.2645
  472MOL0     C63613   9.022   3.886  10.315  0.0225 -0.1565  0.4347
  472MOL0     C63614   9.173   3.870  10.341  0.4463 -0.7992 -0.6703
  472MOL0     O63615   9.216   3.742  10.377 -0.1220 -0.6959 -0.1077
  472MOL0     C63616   9.345   3.713  10.383 -0.0906  0.4538  0.7513
  472MOL0     C63617   9.408   3.698  10.506  0.0915  0.3027  0.7260
  472MOL0     C63618   9.541   3.656  10.508  0.7082 -0.3287 -0.0301
  472MOL0     C63619   9.611   3.624  10.381  0.4773 -0.1514  0.7033
  472MOL0     O63620   9.742   3.582  10.382  0.2526 -0.0713 -0.1932
  472MOL0     C63621   9.838   3.616  10.279  0.3059 -0.0176 -1.1332
  472MOL0     C63622   9.944   3.516  10.299  0.3142 -0.3155  0.3363
  472MOL0     C63623  10.056   3.546  10.193  0.0244 -0.5955  0.5164
  472MOL0     C63624  10.025   3.599  10.054 -0.5994 -0.2635 -0.7410
  472MOL0     C63625  10.138   3.585   9.959 -0.1320  0.0499  0.2446
  472MOL0     C63626  10.195   3.444   9.935 -0.4815  0.2470 -0.6826
  472MOL0     C63627  10.150   3.402   9.791 -0.6494 -0.0881  0.1556
  472MOL0     C63628  10.197   3.263   9.763  0.4631 -0.5005  0.1215
  472MOL0    Cl63629  10.131   3.207   9.604  0.3862  0.4153  0.1925
  472MOL0     C63630   9.547   3.643  10.268 -0.2108 -0.3078  0.4857
  472MOL0     C63631   9.414   3.677  10.262 -0.0234 -0.5089  0.4307
  472MOL0     O63632   9.242   3.968  10.348  0.3300 -0.1622  1.2101
  472MOL0     C63633   8.938   3.777  10.335 -0.1768 -0.2838 -0.2713
  472MOL0     C63634   8.798   3.783  10.316  0.7329  0.5220 -0.5908
  472MOL0     N63635   8.469   3.925   9.578  0.9628 -0.6083 -0.3432
  472MOL0     N63636   8.367   3.880   9.501 -0.0584 -0.4458 -0.5645
  472MOL0     C63637   7.907   3.213   8.771 -0.3420 -0.5723  0.7804
  472MOL0     C63638   7.961   3.217   8.643  0.1547  0.0470  0.2061
  472MOL0     C63639   8.246   3.068   8.316 -0.1387  0.7667  0.6983
  472MOL0     C63640   8.156   3.133   8.231 -0.3544 -1.2167  0.6948
  472MOL0     C63641   8.137   3.097   8.105 -0.5266  0.0829  0.5069
  472MOL0     C63642   8.219   3.000   8.046 -0.0281 -0.6425  0.5063
  472MOL0     O63643   8.204   2.988   7.906 -0.3028  0.2729 -0.3516
  472MOL0     C63644   8.294   3.043   7.810  1.2571  0.0513 -0.2687
  472MOL0     C63645   8.227   3.010   7.667  0.1120 -0.0361 -0.0231
  472MOL0     C63646   8.321   3.051   7.551 -0.7163  0.4558 -0.3993
  472MOL0     C63647   8.271   3.046   7.406  0.7413  0.4856  0.7781
  472MOL0     C63648   8.272   2.914   7.334 -0.8770  0.8207  0.6097
  472MOL0     C63649   8.270   2.801   7.294 -0.4343  0.3580  0.4626
  472MOL0     C63650   8.323   2.939   8.116 -0.4962  0.2469  0.1567
  472MOL0     C63651   8.334   2.969   8.253 -0.2103  0.3242  0.0604
  472MOL0     C63652   8.441   2.888   8.333  0.4597 -0.2495 -0.8666
  472MOL0     H63653   8.282   3.167   8.730 -0.0157 -0.2472 -1.6324
  472MOL0     H63654   8.166   3.163   8.960  1.8488  4.4697  0.5267
  472MOL0     H63655   7.883   3.389   9.007  0.6827 -0.0741  0.1022
  472MOL0     H63656   7.740   3.293   8.991  0.0259  1.4194  0.0722
  472MOL0     H63657   7.771   3.182   9.215 -2.7981  0.0439 -0.9861
  472MOL0     H63658   7.767   3.358   9.233 -2.4374 -2.8576 -0.2386
  472MOL0     H63659   8.002   3.165   9.267  2.1448  1.0692  0.3770
  472MOL0     H63660   7.944   3.284   9.380 -0.0205 -0.4583 -0.6434
  472MOL0     H63661   8.115   3.345   9.144  3.2136 -0.8757  1.3066
  472MOL0     H63662   8.003   3.467   9.221  0.7669  0.2516  1.4816
  472MOL0     H63663   8.120   3.400   9.435 -1.5785  2.4506 -0.8234
  472MOL0     H63664   8.228   3.290   9.340 -0.8871 -0.2778  1.4835
  472MOL0     H63665   8.350   3.458   9.241 -1.3426  2.8035 -3.8065
  472MOL0     H63666   8.223   3.559   9.235 -0.9095 -1.2297 -0.6107
  472MOL0     H63667   8.411   3.598   9.402  1.8223 -1.0386  2.7994
  472MOL0     H63668   8.332   3.492   9.513  4.0309 -1.3241 -2.6626
  472MOL0     H63669   8.189   3.734   9.377 -0.2511  0.9424  0.4462
  472MOL0     H63670   8.147   3.643   9.518  0.5375 -3.9763 -0.6397
  472MOL0     H63671   8.352   3.653   9.729 -4.5414  1.8752  0.0927
  472MOL0     H63672   8.630   3.768   9.813 -0.7014 -0.0187  1.9431
  472MOL0     H63673   8.596   3.942   9.815 -1.2383  0.2627 -3.3914
  472MOL0     H63674   8.373   3.880   9.953 -0.2067  0.8934 -1.0427
  472MOL0     H63675   8.414   3.718   9.916 -1.3858  0.0155 -2.2648
  472MOL0     H63676   8.645   3.780  10.036  1.2163  1.2680  4.5928
  472MOL0     H63677   8.505   3.731  10.123  0.0673 -1.2361 -1.1215
  472MOL0     H63678   8.440   3.974  10.150 -0.5873 -0.0412 -0.0786
  472MOL0     H63679   8.602   4.014  10.091  0.2715 -1.9053 -1.6369
  472MOL0     H63680   8.771   4.100  10.224 -0.5155 -0.1334 -1.0554
  472MOL0     H63681   9.013   4.103  10.240  3.5753 -1.2601  2.3179
  472MOL0     H63682   9.346   3.730  10.590 -0.8531  1.2420 -0.2992
  472MOL0     H63683   9.597   3.646  10.601 -1.2192  1.0828  1.3820
  472MOL0     H63684   9.786   3.603  10.184 -1.2420 -0.2841 -0.2707
  472MOL0     H63685   9.891   3.711  10.292 -1.1990  0.3832  4.3301
  472MOL0     H63686   9.989   3.533  10.397  1.3045  3.5041 -0.6264
  472MOL0     H63687   9.904   3.415  10.282  0.2672  0.2612 -4.1047
  472MOL0     H63688  10.140   3.605  10.232 -2.1862  1.6487  2.1665
  472MOL0     H63689  10.086   3.441  10.191  0.0084 -0.5815 -0.6235
  472MOL0     H63690  10.017   3.708  10.059  1.0066 -0.1561  0.4203
  472MOL0     H63691   9.931   3.555  10.018 -1.6207 -3.1633  4.4863
  472MOL0     H63692  10.218   3.656   9.979  0.0809 -0.3402  0.7947
  472MOL0     H63693  10.104   3.617   9.860 -0.0792 -0.8807 -0.0840
  472MOL0     H63694  10.304   3.449   9.935 -0.0461 -4.4758 -1.0216
  472MOL0     H63695  10.165   3.369  10.009  1.8305  1.9551  2.1814
  472MOL0     H63696  10.174   3.468   9.707  0.7416  0.7706  1.1908
  472MOL0     H63697  10.044   3.376   9.794 -0.7125  0.1944  0.3707
  472MOL0     H63698  10.305   3.249   9.749  0.3419 -1.5316  0.1494
  472MOL0     H63699  10.162   3.197   9.843 -3.3570 -0.8599 -1.6240
  472MOL0     H63700   9.591   3.610  10.175 -2.3591 -1.5258 -0.1718
  472MOL0     H63701   9.369   3.683  10.163 -1.1686  0.1092  0.9732
  472MOL0     H63702   8.981   3.682  10.365 -0.1549 -1.0217 -2.4495
  472MOL0     H63703   8.741   3.694  10.344 -2.5329  3.3103  2.7807
  472MOL0     H63704   7.799   3.217   8.775 -0.3345  2.0220 -0.1478
  472MOL0     H63705   7.895   3.241   8.560  0.6401  0.4265 -0.0750
  472MOL0     H63706   8.102   3.217   8.274  0.5222  0.8069 -1.8627
  472MOL0     H63707   8.064   3.142   8.039 -0.0137  2.5615  1.5355
  472MOL0     H63708   8.392   2.997   7.821  0.8416 -1.3481 -1.8361
  472MOL0     H63709   8.297   3.152   7.813 -0.9130  0.1810 -0.9573
  472MOL0     H63710   8.136   3.067   7.647  0.5787  0.9637  0.6001
  472MOL0     H63711   8.194   2.907   7.655 -1.2668  0.3220  0.5663
  472MOL0     H63712   8.413   2.993   7.563 -1.8382 -0.8721  3.4978
  472MOL0     H63713   8.354   3.154   7.565  1.5972 -0.1480 -0.9116
  472MOL0     H63714   8.174   3.094   7.387  1.8374  1.3931 -3.6977
  472MOL0     H63715   8.347   3.099   7.347  2.2165  1.3665  3.2770
  472MOL0     H63716   8.272   2.694   7.281 -1.9236  0.4851 -1.3257
  472MOL0     H63717   8.382   2.862   8.068 -0.2051  0.1118  0.7164
  472MOL0     H63718   8.499   2.967   8.381 -1.0926  0.1134  0.4919
  472MOL0     H63719   8.392   2.827   8.410 -0.6495  1.9712  0.2881
  472MOL0     H63720   8.511   2.829   8.272  0.9514 -0.0641 -0.4874
  473MOL0     O63721   6.979   7.961   6.675 -0.1765  0.3988  0.0955
  473MOL0     C63722   7.009   7.903   6.778 -0.3039 -0.1593  0.0957
  473MOL0     O63723   6.998   7.962   6.901  0.3085 -0.0953 -0.1229
  473MOL0     C63724   6.966   8.097   6.922  0.1774  0.4319 -0.6792
  473MOL0     C63725   6.859   8.175   6.864 -0.1788  1.2166 -0.0179
  473MOL0     C63726   6.853   8.315   6.886  0.7044 -0.3655 -0.1392
  473MOL0     C63727   6.942   8.374   6.971 -0.0198  0.3738 -0.4178
  473MOL0     O63728   6.947   8.510   6.981  0.3708 -0.0106 -1.1232
  473MOL0     C63729   6.910   8.560   7.111  0.4498 -0.7265  0.3877
  473MOL0     C63730   6.768   8.629   7.116  0.1147 -0.2252  0.4612
  473MOL0     C63731   6.657   8.523   7.116  0.3693  0.1199  0.9223
  473MOL0     C63732   6.626   8.432   7.241 -0.1823  0.2474 -0.3462
  473MOL0     C63733   6.567   8.530   7.344 -0.1276  0.0421  0.8012
  473MOL0     C63734   6.600   8.491   7.487 -0.1808 -0.7544 -0.3043
  473MOL0     C63735   6.508   8.399   7.567  0.2711 -0.0901 -0.5783
  473MOL0     C63736   6.539   8.259   7.529  0.3676  0.8150 -0.3068
  473MOL0     N63737   6.456   8.142   7.582 -0.6170 -0.3968  0.9983
  473MOL0     C63738   6.390   8.151   7.704 -0.0984 -0.8630  0.8102
  473MOL0     C63739   6.295   8.055   7.702  0.1660  0.4100  0.3433
  473MOL0     C63740   6.194   8.056   7.816 -0.0809  0.1344  0.9522
  473MOL0     C63741   6.067   7.990   7.757  0.6466 -0.2669 -0.2362
  473MOL0     C63742   6.068   7.839   7.750 -0.9708 -0.6955  0.4122
  473MOL0     C63743   5.949   7.778   7.683 -0.6075  0.6186  0.8323
  473MOL0     O63744   5.945   7.642   7.728 -0.3890 -0.2212  0.2280
  473MOL0     C63745   5.892   7.606   7.851 -0.2234  1.0887  0.1476
  473MOL0     C63746   5.903   7.473   7.904 -1.1169  0.0973  0.3685
  473MOL0     C63747   5.853   7.436   8.037  0.0760  0.0440  0.1193
  473MOL0     C63748   5.795   7.531   8.123  0.7724  0.4373 -0.5700
  473MOL0     C63749   5.774   7.495   8.270  1.0669  0.3304  0.5218
  473MOL0     O63750   5.856   7.399   8.331  0.8833 -0.1992 -1.2061
  473MOL0     C63751   5.871   7.411   8.474  0.0250 -1.0438 -0.3702
  473MOL0     C63752   5.997   7.460   8.524  0.0738  0.1504  0.1767
  473MOL0     C63753   6.006   7.486   8.667 -1.2293  0.5983 -0.0171
  473MOL0     C63754   5.907   7.450   8.757 -0.3242  0.0595  0.2231
  473MOL0     O63755   5.934   7.445   8.896 -0.8407 -0.4868 -0.8335
  473MOL0     C63756   5.873   7.557   8.974  0.1015  0.9573  0.6982
  473MOL0     C63757   5.862   7.514   9.115  0.1593  0.3394 -0.4708
  473MOL0     C63758   5.728   7.561   9.182 -0.5704  0.7299  0.4180
  473MOL0     C63759   5.750   7.706   9.227 -0.0172  0.0027  0.1349
  473MOL0     C63760   5.661   7.750   9.344 -0.1117 -0.9342  0.1291
  473MOL0     C63761   5.695   7.685   9.482  0.4198 -0.1562  0.3182
  473MOL0     C63762   5.588   7.695   9.593 -0.0251 -0.0221 -0.1554
  473MOL0     C63763   5.518   7.835   9.598 -0.0883  0.4408 -0.7278
  473MOL0    Cl63764   5.509   7.878   9.772  0.5716 -0.0159  0.0470
  473MOL0     C63765   5.789   7.405   8.702 -0.7633  0.3710 -0.9180
  473MOL0     C63766   5.766   7.389   8.568  0.3734  0.6424  0.1815
  473MOL0     O63767   5.701   7.580   8.318  0.7915 -0.2787  0.7569
  473MOL0     C63768   5.786   7.657   8.069  0.0250 -0.3769 -0.8121
  473MOL0     C63769   5.831   7.695   7.941  0.2912 -0.6183 -0.6546
  473MOL0     N63770   6.293   8.001   7.570 -0.2962 -0.1815  0.0584
  473MOL0     N63771   6.396   8.052   7.496  0.6081  0.0604  0.8523
  473MOL0     C63772   7.034   8.296   7.043 -0.2015 -0.1662  0.7359
  473MOL0     C63773   7.055   8.159   7.010  1.0590 -0.0877 -0.1957
  473MOL0     C63774   7.082   7.771   6.784 -0.6291  0.6443  0.4165
  473MOL0     C63775   7.127   7.724   6.911  0.6758  0.8758  0.8340
  473MOL0     C63776   7.178   7.600   6.929 -0.7042 -0.4750  0.1669
  473MOL0     C63777   7.194   7.503   6.824  1.0615  0.0046 -0.0580
  473MOL0     O63778   7.246   7.379   6.842 -0.5326  0.4681 -0.3226
  473MOL0     C63779   7.155   7.271   6.865 -0.3890  0.9082  0.4629
  473MOL0     C63780   7.200   7.200   6.988  0.9751  0.0338 -0.2537
  473MOL0     C63781   7.350   7.161   6.979  0.2598  0.1458  0.1050
  473MOL0     C63782   7.370   7.036   7.068  0.2189  0.7080  0.9908
  473MOL0     C63783   7.369   7.063   7.211  1.1297  0.1606  0.4402
  473MOL0     C63784   7.377   7.056   7.332 -0.4604  0.5770 -0.2736
  473MOL0     C63785   7.159   7.556   6.696 -0.1091  0.3528 -0.4516
  473MOL0     C63786   7.096   7.676   6.673  0.7156  1.5311 -0.2023
  473MOL0     C63787   7.060   7.696   6.529 -0.2490 -0.8580  0.2220
  473MOL0     H63788   6.794   8.122   6.795 -0.4678  1.4856  0.0457
  473MOL0     H63789   6.775   8.366   6.830  2.0471  1.8613 -0.1261
  473MOL0     H63790   6.918   8.480   7.185  0.8871  0.2342  1.3928
  473MOL0     H63791   6.994   8.626   7.135  0.2430  0.2185 -1.3284
  473MOL0     H63792   6.775   8.697   7.031 -1.9015  2.4188  2.2276
  473MOL0     H63793   6.766   8.684   7.211  2.3896  1.3768 -0.3182
  473MOL0     H63794   6.674   8.460   7.028  0.3022  5.1467 -3.1925
  473MOL0     H63795   6.558   8.565   7.094  0.2189 -0.3418  0.7124
  473MOL0     H63796   6.556   8.351   7.216 -0.3270 -0.1902  1.3442
  473MOL0     H63797   6.725   8.391   7.262  1.1086  2.9086 -0.8806
  473MOL0     H63798   6.595   8.633   7.320 -2.5928  0.5012 -0.3691
  473MOL0     H63799   6.458   8.526   7.332 -0.0589 -1.7987  0.4969
  473MOL0     H63800   6.703   8.455   7.492  0.7551  1.6045 -0.9773
  473MOL0     H63801   6.600   8.588   7.538  0.9156  0.8891 -3.1163
  473MOL0     H63802   6.403   8.424   7.551  0.3734  0.6673 -0.0708
  473MOL0     H63803   6.538   8.402   7.672 -0.2645 -2.6801 -0.2917
  473MOL0     H63804   6.528   8.252   7.420 -1.2591 -1.7511 -0.0558
  473MOL0     H63805   6.645   8.238   7.543  0.3103  0.7363  0.0199
  473MOL0     H63806   6.408   8.228   7.779 -1.4358  2.4873 -2.0470
  473MOL0     H63807   6.229   7.986   7.892 -0.1040 -0.7459  0.1808
  473MOL0     H63808   6.169   8.154   7.856 -0.3690  0.2928  0.4031
  473MOL0     H63809   5.984   8.024   7.819 -1.0457 -1.6253 -1.6627
  473MOL0     H63810   6.051   8.041   7.661  1.3771 -1.2263 -0.8875
  473MOL0     H63811   6.073   7.791   7.848  1.7950 -0.4843  0.4542
  473MOL0     H63812   6.154   7.803   7.692 -1.5878 -3.4523  1.0326
  473MOL0     H63813   5.955   7.776   7.574 -2.5630 -1.2925  0.6958
  473MOL0     H63814   5.861   7.831   7.722 -1.0004 -1.3629  2.8499
  473MOL0     H63815   5.956   7.398   7.847  2.4930  0.5332  2.7610
  473MOL0     H63816   5.868   7.338   8.082 -1.3169 -0.6615 -0.8834
  473MOL0     H63817   6.071   7.500   8.456  2.4019 -3.1457  0.5775
  473MOL0     H63818   6.098   7.533   8.702 -0.7963 -0.1415 -0.1499
  473MOL0     H63819   5.926   7.652   8.968 -0.6264  1.5730  2.9263
  473MOL0     H63820   5.769   7.561   8.940  0.0186 -0.7087  0.6586
  473MOL0     H63821   5.869   7.405   9.124  1.1279  0.5523  1.8783
  473MOL0     H63822   5.950   7.558   9.161  1.2189  0.0022 -2.0948
  473MOL0     H63823   5.643   7.550   9.114  0.4032 -1.6697 -0.5671
  473MOL0     H63824   5.706   7.499   9.270 -3.2778  0.1630 -0.5603
  473MOL0     H63825   5.725   7.769   9.141 -1.3475 -1.8860 -0.9631
  473MOL0     H63826   5.852   7.717   9.265  0.5340  1.2727 -1.6183
  473MOL0     H63827   5.556   7.729   9.320  0.5617 -1.8644 -2.2640
  473MOL0     H63828   5.661   7.859   9.358 -0.8332 -1.1658  2.3016
  473MOL0     H63829   5.725   7.581   9.467  0.5918 -0.4542  2.4326
  473MOL0     H63830   5.780   7.743   9.520  1.9937 -1.8094 -0.5392
  473MOL0     H63831   5.638   7.648   9.679  1.2823  1.5100 -0.0250
  473MOL0     H63832   5.509   7.629   9.556  0.0588 -1.3823  1.9078
  473MOL0     H63833   5.587   7.907   9.552  2.0178 -1.8518 -1.3626
  473MOL0     H63834   5.420   7.825   9.552 -0.5778 -3.1155  0.8060
  473MOL0     H63835   5.707   7.390   8.771 -1.6503 -2.3532 -2.4119
  473MOL0     H63836   5.663   7.372   8.539 -0.1196  1.8728  1.1019
  473MOL0     H63837   5.729   7.728   8.128  0.2729  1.2859 -2.4630
  473MOL0     H63838   5.809   7.796   7.910  2.4806  0.1836  0.2092
  473MOL0     H63839   7.113   8.350   7.095  1.1439 -0.6740 -0.7021
  473MOL0     H63840   7.133   8.100   7.058  0.0903 -1.4509 -0.2362
  473MOL0     H63841   7.105   7.787   6.997 -0.3743 -0.6775  1.7646
  473MOL0     H63842   7.219   7.560   7.021  2.5265 -0.7083 -1.2477
  473MOL0     H63843   7.157   7.206   6.777 -0.7323 -0.7429  1.6336
  473MOL0     H63844   7.050   7.299   6.874 -1.8366 -1.1215 -5.5084
  473MOL0     H63845   7.136   7.111   6.994 -0.9299  0.9546 -3.5993
  473MOL0     H63846   7.185   7.279   7.062 -1.1464 -0.9103  0.3950
  473MOL0     H63847   7.414   7.239   7.020  2.3913 -0.6841 -1.4533
  473MOL0     H63848   7.370   7.137   6.874 -2.4866  1.8121 -0.9205
  473MOL0     H63849   7.287   6.969   7.041 -0.3716  1.1045  1.7653
  473MOL0     H63850   7.462   6.982   7.046  0.6234  0.1751  3.5708
  473MOL0     H63851   7.368   7.053   7.439  1.3254 -1.6722 -0.0984
  473MOL0     H63852   7.158   7.486   6.613  0.4262  1.5465 -1.4958
  473MOL0     H63853   7.045   7.608   6.465 -0.6652 -0.2945 -0.4667
  473MOL0     H63854   6.967   7.753   6.531  0.5218  0.4102  1.2702
  473MOL0     H63855   7.138   7.749   6.472 -0.1038 -3.7669 -2.5780
  474MOL0     O63856   4.120   9.465   8.245 -0.3793  0.3946 -0.4801
  474MOL0     C63857   4.244   9.452   8.248 -0.4182  0.9336 -0.3012
  474MOL0     O63858   4.310   9.379   8.333 -0.4167  0.1945  0.2809
  474MOL0     C63859   4.234   9.321   8.432 -0.1125 -0.2853  0.5375
  474MOL0     C63860   4.165   9.389   8.519  0.4276 -0.5187  0.2448
  474MOL0     C63861   4.090   9.318   8.614  0.0757 -0.5966  0.1400
  474MOL0     C63862   4.075   9.182   8.613 -0.2796 -0.1612  0.2806
  474MOL0     O63863   3.982   9.130   8.702 -0.1687  0.1731 -0.5649
  474MOL0     C63864   4.024   9.037   8.807  0.4313 -0.6815  0.2940
  474MOL0     C63865   4.058   9.123   8.933  0.0038  0.0611  0.8280
  474MOL0     C63866   4.138   9.034   9.038  0.0514 -0.0576  0.4184
  474MOL0     C63867   4.145   9.115   9.170 -0.1090  0.2968  0.0965
  474MOL0     C63868   4.198   9.028   9.277  1.2679 -0.1031 -0.2749
  474MOL0     C63869   4.279   9.117   9.375 -0.1642 -0.2602 -0.0706
  474MOL0     C63870   4.422   9.152   9.328  0.1409 -0.6941 -0.0775
  474MOL0     C63871   4.513   9.033   9.345 -0.8782 -0.5001  0.0859
  474MOL0     N63872   4.659   9.070   9.348  0.4923 -0.5305  1.0437
  474MOL0     C63873   4.720   9.134   9.245  0.2936  1.3701  0.2587
  474MOL0     C63874   4.853   9.124   9.282  0.9683  0.6839 -0.7882
  474MOL0     C63875   4.979   9.163   9.194  0.9218 -0.7397  0.2978
  474MOL0     C63876   4.960   9.296   9.112  0.2508  0.1253 -0.3210
  474MOL0     C63877   4.939   9.420   9.199  0.1141 -0.0189  0.6007
  474MOL0     C63878   4.859   9.503   9.115 -0.3667 -0.0734 -0.2382
  474MOL0     O63879   4.724   9.453   9.117 -0.2572 -0.1063 -0.4811
  474MOL0     C63880   4.629   9.505   9.031  0.1555 -0.1776  0.0609
  474MOL0     C63881   4.641   9.623   8.964 -0.2205  0.3284  0.2683
  474MOL0     C63882   4.533   9.680   8.895  0.2851 -0.0516  0.2046
  474MOL0     C63883   4.407   9.622   8.896 -0.1971  1.0182  1.0739
  474MOL0     C63884   4.288   9.694   8.831 -0.6880 -0.3521 -0.4378
  474MOL0     O63885   4.314   9.777   8.721 -0.2209  0.0765 -0.8828
  474MOL0     C63886   4.217   9.811   8.635  1.2025 -0.6049  0.1356
  474MOL0     C63887   4.092   9.744   8.615  0.8817  0.6230 -0.2391
  474MOL0     C63888   4.000   9.800   8.522  0.3418 -0.7033  0.0455
  474MOL0     C63889   4.025   9.930   8.453 -0.1128  0.2578 -0.0946
  474MOL0     O63890   3.943   9.986   8.359 -0.0958  0.7489  0.1677
  474MOL0     C63891   3.814   9.927   8.335  0.0000  0.5536  0.1809
  474MOL0     C63892   3.737   9.983   8.214  0.5171  0.7031 -0.5341
  474MOL0     C63893   3.681  10.119   8.266  0.3783 -0.2805 -0.4503
  474MOL0     C63894   3.679  10.217   8.151  0.0890 -0.4240 -0.0178
  474MOL0     C63895   3.617  10.354   8.176  0.6830  0.3517  0.2905
  474MOL0     C63896   3.625  10.440   8.053  0.7531  0.8538 -0.4919
  474MOL0     C63897   3.590  10.587   8.085 -0.4966  0.4492 -0.4161
  474MOL0     C63898   3.451  10.621   8.147 -0.5084  0.3479  0.2624
  474MOL0    Cl63899   3.333  10.573   8.037  0.1236  0.7083  0.1726
  474MOL0     C63900   4.151   9.986   8.464 -0.3726 -0.7766 -0.1592
  474MOL0     C63901   4.248   9.930   8.558  1.3261 -0.2531  1.4064
  474MOL0     O63902   4.179   9.663   8.872 -0.0335  0.1266 -0.3069
  474MOL0     C63903   4.395   9.502   8.970 -0.5897 -0.0937  0.1291
  474MOL0     C63904   4.507   9.442   9.028  1.1350  0.0087 -0.2140
  474MOL0     N63905   4.863   9.057   9.400  0.7090 -0.2685 -0.4068
  474MOL0     N63906   4.748   9.023   9.442 -0.1875 -0.0884 -0.6161
  474MOL0     C63907   4.142   9.111   8.520 -0.4730  0.0522  1.4448
  474MOL0     C63908   4.226   9.185   8.433  0.5739  0.2140  0.5841
  474MOL0     C63909   4.325   9.533   8.153 -0.2272  1.0793  1.0690
  474MOL0     C63910   4.457   9.498   8.134  0.5518 -0.3558 -0.1156
  474MOL0     C63911   4.533   9.554   8.029 -0.0261  0.0883 -0.1005
  474MOL0     C63912   4.491   9.659   7.955 -0.2215 -0.5806  0.3063
  474MOL0     O63913   4.561   9.726   7.860  0.4300 -1.0551  0.6695
  474MOL0     C63914   4.687   9.699   7.807 -1.3634  0.1241  0.7517
  474MOL0     C63915   4.795   9.723   7.899  0.3065 -0.6553 -0.1889
  474MOL0     C63916   4.931   9.698   7.834 -0.3451  0.1919  0.3992
  474MOL0     C63917   5.056   9.737   7.914 -0.8904  0.8676  0.0677
  474MOL0     C63918   5.086   9.879   7.905  0.1595 -1.4819 -0.0949
  474MOL0     C63919   5.105   9.996   7.883 -0.5115  1.0008 -0.3291
  474MOL0     C63920   4.369   9.707   7.981 -0.8591  0.4329 -0.5705
  474MOL0     C63921   4.282   9.648   8.078 -0.3411  0.3366  0.4210
  474MOL0     C63922   4.152   9.724   8.111 -0.6068 -0.3729  0.3701
  474MOL0     H63923   4.160   9.497   8.521 -0.0494 -0.5322  2.5829
  474MOL0     H63924   4.048   9.391   8.682  3.3709  3.0577 -1.3360
  474MOL0     H63925   3.944   8.968   8.836  0.6841 -0.0099  2.7381
  474MOL0     H63926   4.110   8.973   8.787 -0.6833 -2.3599  0.5995
  474MOL0     H63927   3.962   9.167   8.964  0.3598  1.3089  0.2362
  474MOL0     H63928   4.129   9.195   8.892  1.5756 -2.1226 -0.4853
  474MOL0     H63929   4.243   9.033   9.007  0.3289  3.6559  0.6835
  474MOL0     H63930   4.090   8.937   9.026 -0.5961  0.3615 -0.5416
  474MOL0     H63931   4.200   9.208   9.156 -1.9670  1.5211  0.5583
  474MOL0     H63932   4.043   9.150   9.192  0.5398  2.6790 -0.4197
  474MOL0     H63933   4.114   8.979   9.327  1.3485 -0.2152 -0.2474
  474MOL0     H63934   4.258   8.943   9.243  1.7488 -0.7446  2.0317
  474MOL0     H63935   4.224   9.206   9.409 -1.4223 -1.0830  0.1445
  474MOL0     H63936   4.291   9.051   9.462 -1.6310  0.5938  0.8321
  474MOL0     H63937   4.464   9.227   9.397  1.2420 -0.3824 -1.0528
  474MOL0     H63938   4.427   9.200   9.230  0.4435 -3.5013 -1.5228
  474MOL0     H63939   4.502   9.004   9.450 -0.4841 -0.1870  0.2179
  474MOL0     H63940   4.496   8.960   9.265  2.9168  0.9635 -2.3390
  474MOL0     H63941   4.677   9.167   9.152 -0.5340 -2.4900 -0.8976
  474MOL0     H63942   5.066   9.181   9.259  0.8953 -1.8358  0.6634
  474MOL0     H63943   5.003   9.086   9.120  0.1987 -1.0937  0.4271
  474MOL0     H63944   5.040   9.305   9.037  0.1242  2.0676 -0.2837
  474MOL0     H63945   4.871   9.282   9.051  0.4261  3.3229 -1.5333
  474MOL0     H63946   5.034   9.467   9.227  0.7515  0.2042 -1.7492
  474MOL0     H63947   4.876   9.392   9.284 -2.9125  0.7069 -1.2485
  474MOL0     H63948   4.886   9.511   9.010 -3.4785  1.4856 -1.0404
  474MOL0     H63949   4.854   9.602   9.162 -1.2305  0.0486 -0.5701
  474MOL0     H63950   4.735   9.678   8.969 -1.0336  2.0547 -1.7651
  474MOL0     H63951   4.545   9.768   8.832  1.5403 -0.3356  0.0071
  474MOL0     H63952   4.058   9.661   8.676  1.2392  1.3481  0.9742
  474MOL0     H63953   3.902   9.759   8.500 -0.0431  0.8510 -1.3461
  474MOL0     H63954   3.834   9.822   8.313 -2.0652  0.8325 -4.0892
  474MOL0     H63955   3.745   9.922   8.420  1.5625 -3.7564  1.4507
  474MOL0     H63956   3.787   9.983   8.117  0.1638 -2.5097 -0.8414
  474MOL0     H63957   3.653   9.914   8.200  0.5460 -0.1788  2.6746
  474MOL0     H63958   3.585  10.094   8.313 -1.0453  1.5240 -2.1767
  474MOL0     H63959   3.748  10.171   8.335 -0.2016  0.6215 -0.5503
  474MOL0     H63960   3.622  10.166   8.073  1.5380 -0.2432 -1.2566
  474MOL0     H63961   3.783  10.224   8.118  0.6795 -1.6325  1.4410
  474MOL0     H63962   3.659  10.394   8.269  0.4568  0.0223  0.5347
  474MOL0     H63963   3.509  10.337   8.188  0.6720  0.4282  0.3012
  474MOL0     H63964   3.728  10.427   8.021  0.9340 -3.1722  1.2471
  474MOL0     H63965   3.558  10.397   7.978  1.1359 -2.1734  0.7717
  474MOL0     H63966   3.594  10.645   7.992 -0.1654  0.8082 -0.1827
  474MOL0     H63967   3.669  10.614   8.155 -2.1659 -1.0123  2.1841
  474MOL0     H63968   3.437  10.562   8.239  3.6500 -1.1257  0.1644
  474MOL0     H63969   3.445  10.729   8.163  0.2365  0.3584  0.5100
  474MOL0     H63970   4.189  10.077   8.420  0.5942  0.4623  2.9595
  474MOL0     H63971   4.345   9.973   8.577  3.0242 -2.6817 -1.0918
  474MOL0     H63972   4.301   9.446   8.965 -0.1641 -0.8208  0.0259
  474MOL0     H63973   4.494   9.351   9.085 -0.6463 -0.9064 -1.9910
  474MOL0     H63974   4.123   9.004   8.512  0.5061 -0.1846  2.0729
  474MOL0     H63975   4.285   9.126   8.364  0.0083 -1.6900  1.6614
  474MOL0     H63976   4.499   9.419   8.195 -0.5783 -0.9678 -0.1114
  474MOL0     H63977   4.627   9.513   7.993 -1.6339 -4.6364  0.4408
  474MOL0     H63978   4.705   9.757   7.716 -3.0216 -0.8168 -0.2437
  474MOL0     H63979   4.682   9.593   7.778 -0.5718 -0.3144  2.1367
  474MOL0     H63980   4.789   9.650   7.981 -0.5067 -0.7910 -0.3695
  474MOL0     H63981   4.781   9.815   7.956  1.9446 -1.7501  2.1658
  474MOL0     H63982   4.941   9.745   7.736  0.6663  1.2319  0.9782
  474MOL0     H63983   4.926   9.590   7.817 -3.3767 -0.0122  1.9126
  474MOL0     H63984   5.022   9.707   8.014 -2.5802 -0.0983 -0.7451
  474MOL0     H63985   5.140   9.672   7.890 -1.0027  0.8125 -0.1812
  474MOL0     H63986   5.116  10.098   7.852 -0.3773  0.4850 -2.0798
  474MOL0     H63987   4.335   9.803   7.944 -1.3828  1.1111  1.5252
  474MOL0     H63988   4.082   9.686   8.037  0.4831 -0.1591 -0.8003
  474MOL0     H63989   4.116   9.703   8.212  0.6488 -0.9805  0.7061
  474MOL0     H63990   4.177   9.830   8.097 -0.7541 -0.4821 -0.7857
  475MOL0     O63991   7.681   0.332   6.864 -1.4092 -0.4412  0.0552
  475MOL0     C63992   7.656   0.447   6.898  0.8407  1.7939  0.0874
  475MOL0     O63993   7.614   0.472   7.026  0.3009  0.2137  0.1227
  475MOL0     C63994   7.698   0.419   7.127 -0.4996  0.6536 -0.2923
  475MOL0     C63995   7.825   0.476   7.150 -1.2504 -0.1718 -0.1189
  475MOL0     C63996   7.910   0.419   7.237 -0.3872 -0.2804  0.3028
  475MOL0     C63997   7.876   0.293   7.295 -0.1266  0.1232  0.3359
  475MOL0     O63998   7.948   0.239   7.390 -0.2259 -0.6520 -0.2963
  475MOL0     C63999   7.953   0.333   7.497 -0.0596 -0.0092  0.7881
  475MOL0     C64000   8.039   0.276   7.596  0.1471 -0.1774 -0.2886
  475MOL0     C64001   8.043   0.338   7.729  0.3692 -0.4470  0.0962
  475MOL0     C64002   7.958   0.266   7.833  0.5578 -0.6005  1.0951
  475MOL0     C64003   7.976   0.344   7.968 -0.9058 -0.3899 -0.6195
  475MOL0     C64004   7.866   0.291   8.056  0.1374 -0.3693 -0.5180
  475MOL0     C64005   7.870   0.335   8.199  0.6146 -0.1860  0.5188
  475MOL0     C64006   7.731   0.301   8.271 -0.7887  0.0312 -0.3118
  475MOL0     N64007   7.617   0.376   8.219  0.1916 -0.6610  0.7072
  475MOL0     C64008   7.529   0.330   8.126  0.0032 -1.0281 -0.1427
  475MOL0     C64009   7.453   0.433   8.107  0.6337  0.2229  0.6658
  475MOL0     C64010   7.341   0.435   8.013 -0.3453 -1.3088 -0.9571
  475MOL0     C64011   7.375   0.513   7.881 -0.7582  0.0337  0.7005
  475MOL0     C64012   7.263   0.502   7.777  0.6938 -0.0713 -0.3142
  475MOL0     C64013   7.230   0.359   7.726 -0.5208  0.3822  0.6685
  475MOL0     O64014   7.359   0.296   7.676 -0.0054 -1.2118  0.1745
  475MOL0     C64015   7.359   0.176   7.610 -0.1249  0.5561 -0.2529
  475MOL0     C64016   7.473   0.137   7.546 -0.1823  0.1127  0.4787
  475MOL0     C64017   7.491   0.015   7.475  0.0857  0.2245 -0.4810
  475MOL0     C64018   7.386  -0.071   7.472  0.2775 -0.4191 -0.6951
  475MOL0     C64019   7.398  -0.193   7.397 -0.6892 -0.1815  0.2184
  475MOL0     O64020   7.305  -0.292   7.406 -0.1050 -0.2032 -0.7631
  475MOL0     C64021   7.349  -0.405   7.350  0.7382 -0.3486  0.1918
  475MOL0     C64022   7.337  -0.425   7.211 -0.2788  0.3433 -0.6598
  475MOL0     C64023   7.382  -0.550   7.153 -0.0136 -0.2548 -0.6857
  475MOL0     C64024   7.430  -0.654   7.237 -0.5114  0.2726 -0.0850
  475MOL0     O64025   7.479  -0.778   7.193 -0.3869  0.8128 -0.0690
  475MOL0     C64026   7.418  -0.834   7.066 -0.3982 -0.5267 -0.9660
  475MOL0     C64027   7.418  -0.977   7.073  0.1239  0.8663 -0.0476
  475MOL0     C64028   7.558  -1.050   7.112 -0.9834  0.7885  1.1529
  475MOL0     C64029   7.575  -1.182   7.039 -0.4797 -0.8001  0.3834
  475MOL0     C64030   7.725  -1.221   7.026  0.0995 -0.3742  1.3469
  475MOL0     C64031   7.743  -1.358   6.946  0.3629  0.1233  0.2300
  475MOL0     C64032   7.878  -1.402   6.903  0.1585 -0.6229 -0.1724
  475MOL0     C64033   7.977  -1.397   7.018 -0.5735  0.1612  0.6846
  475MOL0    Cl64034   7.940  -1.540   7.120 -0.4658  0.1395 -0.5210
  475MOL0     C64035   7.449  -0.625   7.372  0.1953  0.5108 -1.6074
  475MOL0     C64036   7.412  -0.501   7.432  0.1242  0.6438 -0.7661
  475MOL0     O64037   7.491  -0.196   7.322 -0.3343  0.0862 -0.4317
  475MOL0     C64038   7.274  -0.034   7.551  0.0439  0.5955  0.4179
  475MOL0     C64039   7.259   0.085   7.618 -0.0577  0.8477  0.7123
  475MOL0     N64040   7.497   0.548   8.167  0.4177 -0.3439 -0.6443
  475MOL0     N64041   7.606   0.510   8.228  0.5239 -0.3623 -0.2679
  475MOL0     C64042   7.752   0.238   7.280  0.2268  0.2453  0.2479
  475MOL0     C64043   7.668   0.299   7.188 -0.1719  0.1991 -1.0530
  475MOL0     C64044   7.651   0.571   6.810  0.2668 -0.8031 -0.1562
  475MOL0     C64045   7.636   0.688   6.873 -0.5082 -0.0037  0.6147
  475MOL0     C64046   7.612   0.808   6.806  0.4234 -0.7843 -0.1414
  475MOL0     C64047   7.618   0.815   6.667  0.2541 -0.5821  0.6984
  475MOL0     O64048   7.585   0.939   6.600  0.4385 -0.2025  0.1024
  475MOL0     C64049   7.668   0.976   6.495  0.4837  0.6363  0.7425
  475MOL0     C64050   7.699   1.125   6.486 -0.1997 -0.7901 -0.0899
  475MOL0     C64051   7.835   1.169   6.432 -0.3368  0.2823  0.4937
  475MOL0     C64052   7.850   1.325   6.420  0.5818 -0.9537  0.0348
  475MOL0     C64053   7.981   1.374   6.389  0.6924 -0.9250  0.0066
  475MOL0     C64054   8.088   1.415   6.345  0.4141  0.7743  0.3263
  475MOL0     C64055   7.647   0.699   6.598 -0.5303  0.0556  0.5066
  475MOL0     C64056   7.656   0.580   6.666  0.1823 -0.7124 -0.7733
  475MOL0     C64057   7.677   0.460   6.586 -0.4061  0.1873  0.4199
  475MOL0     H64058   7.844   0.573   7.106  2.8781 -1.1097 -0.8556
  475MOL0     H64059   8.006   0.465   7.259 -1.2124  0.8063  1.8472
  475MOL0     H64060   7.985   0.432   7.464  3.5200 -0.8310  1.4343
  475MOL0     H64061   7.850   0.344   7.532 -0.9955 -1.4737 -1.2429
  475MOL0     H64062   8.141   0.253   7.566  0.1271 -3.4898  1.6670
  475MOL0     H64063   7.995   0.176   7.606 -4.2516  1.3820 -1.7361
  475MOL0     H64064   8.004   0.441   7.730 -0.7420 -0.3044 -7.3291
  475MOL0     H64065   8.147   0.342   7.763  0.7215  0.9187 -1.0694
  475MOL0     H64066   7.854   0.280   7.801  0.4997  0.8460  1.8162
  475MOL0     H64067   7.982   0.160   7.824 -0.8724 -0.8085 -0.8068
  475MOL0     H64068   8.078   0.340   8.008 -1.4050  1.6838  1.0339
  475MOL0     H64069   7.963   0.452   7.961  3.4760  0.5545  2.0997
  475MOL0     H64070   7.767   0.314   8.016 -2.2550 -0.4912  4.5963
  475MOL0     H64071   7.868   0.182   8.061  0.8284 -0.5719 -3.2380
  475MOL0     H64072   7.888   0.443   8.198 -1.8398  0.2735 -0.8530
  475MOL0     H64073   7.944   0.273   8.252 -0.0961  0.4324  2.3291
  475MOL0     H64074   7.708   0.195   8.255  0.4209 -0.5937  1.7989
  475MOL0     H64075   7.740   0.314   8.379  3.0152 -3.8109  0.0674
  475MOL0     H64076   7.529   0.235   8.074  1.5406 -0.9644 -0.3115
  475MOL0     H64077   7.301   0.335   7.993 -0.7606 -1.1643 -0.8449
  475MOL0     H64078   7.258   0.489   8.060  1.0060  0.5193 -0.5491
  475MOL0     H64079   7.397   0.619   7.895  1.5241 -0.2766 -0.1428
  475MOL0     H64080   7.470   0.478   7.840 -0.9705  2.3923 -2.1347
  475MOL0     H64081   7.304   0.555   7.690  1.2365 -0.8152 -0.5208
  475MOL0     H64082   7.171   0.551   7.812  0.9035  0.3087 -0.2868
  475MOL0     H64083   7.156   0.369   7.645  0.3923 -0.1624 -0.2575
  475MOL0     H64084   7.194   0.296   7.808  0.3435 -0.3588  0.4954
  475MOL0     H64085   7.561   0.200   7.547  1.4815 -1.9222 -2.1832
  475MOL0     H64086   7.584   0.008   7.420 -0.7483 -2.1562 -1.7273
  475MOL0     H64087   7.277  -0.356   7.152 -0.5096 -0.0180 -0.8510
  475MOL0     H64088   7.372  -0.552   7.045 -0.8385  2.2734 -0.7266
  475MOL0     H64089   7.316  -0.795   7.056  1.0972  4.2675 -0.1258
  475MOL0     H64090   7.488  -0.812   6.984 -0.4676 -1.3437 -1.2588
  475MOL0     H64091   7.353  -1.005   7.157 -0.0859 -2.2867 -1.1336
  475MOL0     H64092   7.382  -1.015   6.977 -1.3094  0.6333  0.5499
  475MOL0     H64093   7.636  -0.984   7.074 -2.3010  2.0965  0.6023
  475MOL0     H64094   7.556  -1.066   7.220 -1.1148  1.1600  1.2056
  475MOL0     H64095   7.558  -1.160   6.933  0.2227  0.6626  0.5625
  475MOL0     H64096   7.514  -1.266   7.075  2.2570 -2.4167  1.5269
  475MOL0     H64097   7.772  -1.218   7.124  0.8046 -2.1938  1.1053
  475MOL0     H64098   7.764  -1.137   6.968  2.1607 -3.8588 -2.9001
  475MOL0     H64099   7.690  -1.430   7.009  1.4044 -0.7416  0.1406
  475MOL0     H64100   7.699  -1.340   6.848  1.7450  1.3434 -0.2056
  475MOL0     H64101   7.909  -1.330   6.827 -2.6009  1.8541  0.8425
  475MOL0     H64102   7.871  -1.503   6.862 -0.7294 -0.2343 -1.0215
  475MOL0     H64103   8.077  -1.395   6.973 -2.1158  0.8643 -3.1161
  475MOL0     H64104   7.969  -1.301   7.070 -1.9162 -0.1043  1.0116
  475MOL0     H64105   7.506  -0.693   7.435 -1.1486  2.3715  1.8530
  475MOL0     H64106   7.442  -0.494   7.536 -0.7843 -1.3511 -0.3222
  475MOL0     H64107   7.196  -0.110   7.549  0.7246 -0.2098 -3.1511
  475MOL0     H64108   7.172   0.093   7.682 -1.3098 -0.1370 -0.7903
  475MOL0     H64109   7.717   0.163   7.350 -2.6630  1.5364  0.3117
  475MOL0     H64110   7.573   0.252   7.163 -0.0911 -1.6816  1.7310
  475MOL0     H64111   7.621   0.702   6.979 -4.0818 -0.1968  0.2534
  475MOL0     H64112   7.590   0.903   6.853  0.6643 -0.2937 -1.0013
  475MOL0     H64113   7.650   0.924   6.400  3.1929 -1.8584  1.4688
  475MOL0     H64114   7.760   0.921   6.513 -0.9454 -2.3973 -0.5660
  475MOL0     H64115   7.691   1.169   6.585 -1.2006  2.6837 -1.5674
  475MOL0     H64116   7.625   1.179   6.425  0.5078 -1.5174 -1.6427
  475MOL0     H64117   7.854   1.149   6.326 -2.0161  4.7427 -0.9172
  475MOL0     H64118   7.916   1.123   6.489 -1.6321 -1.4566  0.9864
  475MOL0     H64119   7.778   1.369   6.352 -0.9196 -0.0670  2.1094
  475MOL0     H64120   7.833   1.381   6.512  1.9150  1.7129 -1.2382
  475MOL0     H64121   8.175   1.454   6.297 -0.0933 -0.8653 -2.0933
  475MOL0     H64122   7.640   0.706   6.490  0.1183  2.7173  0.5668
  475MOL0     H64123   7.611   0.378   6.614 -0.9576  0.1117 -1.0241
  475MOL0     H64124   7.658   0.482   6.481 -0.9858  0.0718  0.4998
  475MOL0     H64125   7.778   0.418   6.595 -1.7535 -3.6747 -0.5710
  476MOL0     O64126   8.336   3.107   4.208  0.1278 -0.6593  0.0121
  476MOL0     C64127   8.312   3.203   4.130  0.7438  0.4302 -0.5668
  476MOL0     O64128   8.400   3.256   4.040  0.0913 -0.6723  0.3354
  476MOL0     C64129   8.535   3.221   4.031  0.1746 -0.0499  0.6158
  476MOL0     C64130   8.614   3.292   3.939 -0.6091 -0.1068  0.4852
  476MOL0     C64131   8.753   3.283   3.939  0.0595 -0.8068  0.3129
  476MOL0     C64132   8.817   3.193   4.024 -0.7127 -0.0018 -0.7395
  476MOL0     O64133   8.949   3.173   4.022 -0.4916  0.7433  0.8361
  476MOL0     C64134   9.004   3.279   4.107 -0.6262  0.4265 -0.0262
  476MOL0     C64135   9.139   3.303   4.045 -0.2355 -0.5728 -0.9128
  476MOL0     C64136   9.242   3.358   4.142  0.4988  0.0860  0.3653
  476MOL0     C64137   9.391   3.381   4.079  0.5710  0.6775  0.3356
  476MOL0     C64138   9.455   3.248   4.039  0.9907  0.4321  0.0959
  476MOL0     C64139   9.590   3.281   3.981  0.9676  0.8101 -0.2770
  476MOL0     C64140   9.654   3.162   3.898 -0.9937  0.4593  0.0480
  476MOL0     C64141   9.671   3.034   3.976 -0.3863 -0.1481  0.4910
  476MOL0     N64142   9.730   3.052   4.113  0.7350  0.0748  0.7070
  476MOL0     C64143   9.833   3.137   4.155  0.1225 -0.8541 -0.0730
  476MOL0     C64144   9.859   3.102   4.277 -0.5387 -0.1295  0.0472
  476MOL0     C64145   9.959   3.157   4.371 -0.6681  0.4627 -0.9804
  476MOL0     C64146  10.065   3.064   4.413  0.5611  0.3726 -0.2927
  476MOL0     C64147  10.166   3.033   4.310  0.1903 -0.9643 -0.3459
  476MOL0     C64148  10.257   2.920   4.366  0.0626  0.1065  0.0151
  476MOL0     O64149  10.357   2.986   4.456 -0.0138 -0.1505 -0.5859
  476MOL0     C64150  10.439   2.902   4.532  0.0544 -0.7543  0.9153
  476MOL0     C64151  10.448   2.770   4.530 -0.2149  0.8038 -0.0261
  476MOL0     C64152  10.533   2.695   4.616  0.1730 -0.0713  0.9225
  476MOL0     C64153  10.623   2.772   4.694 -0.5865 -0.4836 -0.4394
  476MOL0     C64154  10.728   2.696   4.767  0.0740  0.1916 -0.0697
  476MOL0     O64155  10.760   2.578   4.705  1.1351 -0.4590  0.0660
  476MOL0     C64156  10.862   2.497   4.748 -0.3981  0.0314  0.2734
  476MOL0     C64157  10.997   2.523   4.706 -0.9115 -0.6690 -0.2818
  476MOL0     C64158  11.103   2.442   4.739 -0.1900 -0.1771  0.3640
  476MOL0     C64159  11.079   2.344   4.834  0.3337 -0.6948 -0.1916
  476MOL0     O64160  11.172   2.255   4.887  0.7898  0.1860 -0.4867
  476MOL0     C64161  11.310   2.268   4.860 -0.3650  1.2838  0.2656
  476MOL0     C64162  11.370   2.126   4.861  0.4492  0.3388  0.4002
  476MOL0     C64163  11.296   2.021   4.777 -0.8107  0.8817  1.0041
  476MOL0     C64164  11.336   1.874   4.814  0.2223 -1.3249  0.5438
  476MOL0     C64165  11.222   1.780   4.812  0.1425  0.2899  0.5428
  476MOL0     C64166  11.279   1.639   4.783  0.3554 -0.6895 -0.4071
  476MOL0     C64167  11.173   1.531   4.776 -0.0459 -0.2332  0.4081
  476MOL0     C64168  11.227   1.396   4.787 -0.6161  0.0355 -0.9672
  476MOL0    Cl64169  11.281   1.356   4.955  0.2012  0.0768 -0.2763
  476MOL0     C64170  10.947   2.306   4.871  0.6990 -0.5903  0.0295
  476MOL0     C64171  10.832   2.384   4.826  0.2412  0.5939  0.9993
  476MOL0     O64172  10.790   2.732   4.867 -0.1503 -0.7886 -0.6197
  476MOL0     C64173  10.619   2.912   4.692 -0.1227  0.3890  0.1090
  476MOL0     C64174  10.519   2.978   4.627 -0.2505 -0.1629  0.2295
  476MOL0     N64175   9.780   2.999   4.313  0.2897 -0.0694 -0.6967
  476MOL0     N64176   9.707   2.969   4.212  0.5097 -0.3263  0.1918
  476MOL0     C64177   8.740   3.108   4.098 -0.8333 -0.5432 -0.3753
  476MOL0     C64178   8.602   3.127   4.106 -0.3312 -0.3193 -0.8086
  476MOL0     C64179   8.171   3.268   4.138 -1.1766 -0.0464 -1.2076
  476MOL0     C64180   8.073   3.188   4.200 -0.8139  0.1599  0.5600
  476MOL0     C64181   7.954   3.237   4.232 -0.4787  0.2612 -0.2241
  476MOL0     C64182   7.927   3.365   4.188  0.1753 -0.4875  0.4725
  476MOL0     O64183   7.802   3.422   4.199  0.2102 -0.7060 -0.6677
  476MOL0     C64184   7.788   3.463   4.332  0.7806  0.3640 -0.2277
  476MOL0     C64185   7.675   3.381   4.390  0.6901  0.1171  0.3132
  476MOL0     C64186   7.645   3.383   4.539 -0.1052  0.7580 -0.2764
  476MOL0     C64187   7.519   3.300   4.573  0.8057 -0.1168  1.1152
  476MOL0     C64188   7.397   3.384   4.549 -1.1413 -1.0200  0.0856
  476MOL0     C64189   7.299   3.446   4.522  0.3323 -0.2689 -0.0895
  476MOL0     C64190   8.011   3.440   4.110 -0.0289 -0.1701 -0.3295
  476MOL0     C64191   8.139   3.395   4.086 -0.1858  0.4402 -0.7534
  476MOL0     C64192   8.239   3.485   4.018 -0.5799  0.5347 -0.0550
  476MOL0     H64193   8.559   3.369   3.885 -1.6540 -1.1817 -0.0403
  476MOL0     H64194   8.813   3.344   3.872 -1.1355 -0.0372 -0.0790
  476MOL0     H64195   8.932   3.360   4.119 -2.1584 -1.0657  1.4925
  476MOL0     H64196   9.016   3.241   4.209 -0.0268  1.5969  0.3577
  476MOL0     H64197   9.122   3.366   3.958  3.9504 -0.1502 -1.6215
  476MOL0     H64198   9.178   3.215   3.993  2.0836  0.7466 -1.5262
  476MOL0     H64199   9.242   3.286   4.224 -1.2543 -2.1809 -1.4917
  476MOL0     H64200   9.213   3.461   4.166  1.2008  0.4448 -0.2752
  476MOL0     H64201   9.395   3.455   3.999 -0.6852 -1.2134 -1.5783
  476MOL0     H64202   9.454   3.422   4.159  1.9570 -1.1409  0.2420
  476MOL0     H64203   9.468   3.177   4.121  0.2934 -0.9617 -0.9458
  476MOL0     H64204   9.389   3.204   3.963 -0.2912  1.5199  0.5551
  476MOL0     H64205   9.576   3.356   3.903 -1.0020 -1.4717 -2.3105
  476MOL0     H64206   9.658   3.327   4.053 -1.1497  1.2060  1.5639
  476MOL0     H64207   9.750   3.206   3.870 -1.0573  1.6082  1.4996
  476MOL0     H64208   9.595   3.135   3.810 -0.9726 -0.3243  0.2668
  476MOL0     H64209   9.578   2.977   3.990 -0.9417  0.5023 -0.4543
  476MOL0     H64210   9.739   2.966   3.923 -0.1981 -0.3235  0.9486
  476MOL0     H64211   9.881   3.206   4.086 -4.2447 -0.4095 -3.0148
  476MOL0     H64212  10.011   3.240   4.322 -0.3368  0.5794 -0.4394
  476MOL0     H64213   9.908   3.187   4.464  0.4980  0.1134 -0.2088
  476MOL0     H64214  10.114   3.088   4.508 -0.8091 -1.5221  0.9844
  476MOL0     H64215  10.017   2.966   4.426 -2.1838  1.4605 -1.4665
  476MOL0     H64216  10.238   3.113   4.293  1.6573 -1.3129  3.2513
  476MOL0     H64217  10.124   3.007   4.212 -3.0584  1.8720  0.1423
  476MOL0     H64218  10.313   2.878   4.282 -1.6411  1.8467 -2.1285
  476MOL0     H64219  10.202   2.840   4.416  1.5991 -1.6776 -1.0539
  476MOL0     H64220  10.365   2.721   4.479 -0.4452  0.0634  1.0347
  476MOL0     H64221  10.523   2.587   4.613 -3.9735  0.1523  0.3345
  476MOL0     H64222  11.011   2.604   4.634  1.1035 -2.0635 -1.5554
  476MOL0     H64223  11.202   2.454   4.697  0.6916  0.7411  2.5497
  476MOL0     H64224  11.317   2.314   4.761  0.2122  3.8964  1.4352
  476MOL0     H64225  11.364   2.330   4.933  2.8540  0.9673 -1.6467
  476MOL0     H64226  11.477   2.134   4.841  0.4071 -0.0782 -0.0237
  476MOL0     H64227  11.366   2.091   4.965  0.1928 -2.9870 -0.6162
  476MOL0     H64228  11.191   2.040   4.798 -1.4273 -1.5698  0.4774
  476MOL0     H64229  11.330   2.033   4.673 -0.9934  2.9400  1.1453
  476MOL0     H64230  11.399   1.880   4.903  5.4341  0.7457 -2.8270
  476MOL0     H64231  11.408   1.841   4.738 -1.2180 -2.3655 -0.4242
  476MOL0     H64232  11.140   1.800   4.743  0.2104  1.5229  0.8007
  476MOL0     H64233  11.184   1.788   4.914 -0.6309 -0.5085  0.3236
  476MOL0     H64234  11.332   1.650   4.689  1.4217  2.3004  0.4219
  476MOL0     H64235  11.359   1.630   4.858  0.1778  0.1427 -0.1035
  476MOL0     H64236  11.129   1.541   4.676  0.2323 -0.6076  0.2484
  476MOL0     H64237  11.100   1.530   4.858  3.9228 -0.5181  4.3202
  476MOL0     H64238  11.154   1.318   4.762  0.1845 -0.6596 -1.1777
  476MOL0     H64239  11.304   1.380   4.711 -1.8493  1.1301 -2.5170
  476MOL0     H64240  10.925   2.219   4.931 -0.1178 -1.3041 -1.2469
  476MOL0     H64241  10.732   2.349   4.850  0.0200 -0.4157 -1.1668
  476MOL0     H64242  10.674   2.972   4.763 -1.0387  1.2032  0.1611
  476MOL0     H64243  10.506   3.084   4.611  1.3256 -0.2468 -2.2515
  476MOL0     H64244   8.793   3.037   4.161 -0.3243  1.2127  1.2714
  476MOL0     H64245   8.554   3.065   4.181  1.6610 -0.8706  0.0955
  476MOL0     H64246   8.098   3.088   4.234 -0.0621  0.8295  2.0974
  476MOL0     H64247   7.887   3.187   4.301 -0.3207 -1.0844 -0.9976
  476MOL0     H64248   7.773   3.571   4.328  0.5750  0.4005  1.1724
  476MOL0     H64249   7.882   3.453   4.387  0.2568  2.6023  1.2045
  476MOL0     H64250   7.694   3.276   4.365  1.1964  0.4764 -0.8905
  476MOL0     H64251   7.586   3.405   4.332  1.4550  1.3707 -0.4041
  476MOL0     H64252   7.637   3.481   4.586 -0.8431  0.6342 -0.1369
  476MOL0     H64253   7.738   3.339   4.577  1.3713  0.3697 -3.9176
  476MOL0     H64254   7.505   3.206   4.518 -3.6212  1.0985 -0.2455
  476MOL0     H64255   7.527   3.272   4.679  0.6684 -4.0347  0.2502
  476MOL0     H64256   7.208   3.482   4.478 -0.5671 -3.9055 -1.5579
  476MOL0     H64257   7.980   3.538   4.076  1.2279 -0.0204 -1.0890
  476MOL0     H64258   8.340   3.490   4.061 -1.6727  3.5928  2.5745
  476MOL0     H64259   8.261   3.457   3.915  1.4272 -5.7745  1.6453
  476MOL0     H64260   8.197   3.586   4.013 -2.5866 -0.3198 -2.3864
  477MOL0     O64261   1.311   6.762   9.120  0.3584 -1.0205  0.5469
  477MOL0     C64262   1.427   6.733   9.144  0.4159 -0.3017 -0.6702
  477MOL0     O64263   1.537   6.818   9.148  0.6874 -1.3152 -0.4247
  477MOL0     C64264   1.510   6.950   9.174  0.8305 -0.7837 -0.5506
  477MOL0     C64265   1.516   7.012   9.301  0.2043 -0.3335  0.3691
  477MOL0     C64266   1.517   7.146   9.315 -0.2654  0.0527  1.0338
  477MOL0     C64267   1.500   7.227   9.203 -0.6049 -0.2857  0.3954
  477MOL0     O64268   1.501   7.362   9.229  0.7021 -0.2557  0.5041
  477MOL0     C64269   1.376   7.427   9.183 -0.8948  0.3673 -0.6300
  477MOL0     C64270   1.278   7.453   9.297  0.8253 -0.0749 -0.1839
  477MOL0     C64271   1.142   7.500   9.250 -1.7595 -0.1949 -0.3406
  477MOL0     C64272   1.144   7.625   9.160  0.3206  0.4689  0.6408
  477MOL0     C64273   1.007   7.688   9.119  0.7463  0.0416  0.2665
  477MOL0     C64274   1.053   7.795   9.008  0.8727  0.1512 -0.8265
  477MOL0     C64275   1.070   7.749   8.866 -0.0931  0.2435 -0.5827
  477MOL0     C64276   0.930   7.752   8.794  0.1673 -0.0337 -0.1717
  477MOL0     N64277   0.894   7.870   8.712 -0.2946  0.6483  0.4986
  477MOL0     C64278   0.979   7.964   8.650 -0.5662 -0.6835 -0.0734
  477MOL0     C64279   0.884   8.046   8.589 -0.0725  0.0948 -0.7325
  477MOL0     C64280   0.895   8.157   8.484  0.8464  0.0901 -1.0851
  477MOL0     C64281   0.949   8.115   8.345  0.1403  0.0015 -0.8254
  477MOL0     C64282   0.895   7.997   8.273  0.3323  0.5683  0.4828
  477MOL0     C64283   0.736   7.980   8.270 -0.3170  0.0031 -0.5026
  477MOL0     O64284   0.714   7.844   8.223  0.0241 -0.4260 -0.1176
  477MOL0     C64285   0.724   7.816   8.086  0.7320 -0.5692 -0.4433
  477MOL0     C64286   0.699   7.905   7.978 -0.7383 -0.4755 -0.0808
  477MOL0     C64287   0.733   7.866   7.845 -0.0530 -0.4179 -0.0072
  477MOL0     C64288   0.781   7.743   7.816 -0.3515  0.7464 -0.7499
  477MOL0     C64289   0.814   7.699   7.677 -0.6550 -0.2252  0.5492
  477MOL0     O64290   0.860   7.570   7.674 -0.7580 -0.9929 -0.3657
  477MOL0     C64291   0.875   7.498   7.559 -0.1752 -0.2766 -0.5538
  477MOL0     C64292   0.821   7.524   7.428  0.0225  0.1377  0.2036
  477MOL0     C64293   0.829   7.426   7.323 -0.0426  0.7117 -0.3397
  477MOL0     C64294   0.895   7.306   7.344 -0.8435  0.1787 -0.0406
  477MOL0     O64295   0.904   7.212   7.246  0.8060  0.1404 -0.1950
  477MOL0     C64296   1.028   7.146   7.220  0.2352  0.3566 -0.4341
  477MOL0     C64297   1.016   6.998   7.221  0.4937 -0.4087 -0.6051
  477MOL0     C64298   1.144   6.917   7.193 -0.1246 -0.2647  0.0146
  477MOL0     C64299   1.115   6.774   7.158  0.2094  0.1245  0.6219
  477MOL0     C64300   1.240   6.713   7.097 -0.5649 -0.2347 -0.7428
  477MOL0     C64301   1.245   6.562   7.113 -0.9350  1.1030  0.2031
  477MOL0     C64302   1.142   6.487   7.018 -0.3059  0.8389 -1.0385
  477MOL0     C64303   1.151   6.525   6.876  0.4039 -0.1701  0.7317
  477MOL0    Cl64304   1.001   6.473   6.789 -0.1867 -0.0354  0.0397
  477MOL0     C64305   0.954   7.287   7.469  0.3865  0.0536 -0.8776
  477MOL0     C64306   0.944   7.376   7.574  0.2191 -0.2261 -0.0073
  477MOL0     O64307   0.807   7.774   7.579  0.0865 -1.2432  0.2050
  477MOL0     C64308   0.801   7.657   7.928  0.0602 -0.9867  1.6474
  477MOL0     C64309   0.778   7.687   8.063  0.1292 -0.6439 -0.1573
  477MOL0     N64310   0.757   8.009   8.619 -0.5325 -0.5771 -0.1937
  477MOL0     N64311   0.763   7.906   8.693  0.2251  0.0919 -0.6747
  477MOL0     C64312   1.481   7.171   9.083 -0.5836 -0.8258  1.5487
  477MOL0     C64313   1.483   7.031   9.066 -0.6256 -0.0971 -0.3830
  477MOL0     C64314   1.454   6.581   9.160  0.6712 -0.2020  0.0105
  477MOL0     C64315   1.362   6.499   9.222 -0.6540 -0.0463 -0.3723
  477MOL0     C64316   1.385   6.363   9.228  0.6656  0.4593 -0.3403
  477MOL0     C64317   1.487   6.306   9.167  0.2046  0.7194 -0.0385
  477MOL0     O64318   1.521   6.168   9.166  0.2673 -0.7161 -0.1112
  477MOL0     C64319   1.409   6.078   9.177 -0.0818  0.4804  0.1045
  477MOL0     C64320   1.304   6.077   9.063 -0.0337 -0.0851  0.7632
  477MOL0     C64321   1.203   5.960   9.071  0.6125  0.4499 -0.5489
  477MOL0     C64322   1.120   5.949   8.947  0.2035 -0.1657 -1.1097
  477MOL0     C64323   1.008   6.046   8.958  0.6141 -0.5028 -0.6019
  477MOL0     C64324   0.928   6.141   8.972 -0.3908 -0.5962  0.3579
  477MOL0     C64325   1.591   6.386   9.107  0.5119  0.9260  0.3632
  477MOL0     C64326   1.580   6.521   9.107 -0.5261 -0.5509  0.4264
  477MOL0     C64327   1.704   6.592   9.041 -0.4060  0.9512 -0.4154
  477MOL0     H64328   1.518   6.961   9.396 -1.0920  0.1505  0.6847
  477MOL0     H64329   1.513   7.199   9.410 -3.4077 -0.9965  1.6326
  477MOL0     H64330   1.405   7.522   9.138  1.4595 -0.0121 -0.0791
  477MOL0     H64331   1.333   7.373   9.098 -1.1465  1.3588 -1.1387
  477MOL0     H64332   1.316   7.523   9.371  0.2110 -1.6020  1.6597
  477MOL0     H64333   1.260   7.359   9.350  1.0064  0.2616  0.4721
  477MOL0     H64334   1.084   7.518   9.341 -2.3131 -0.5095 -0.6221
  477MOL0     H64335   1.100   7.421   9.187  0.6461 -0.2209 -2.0227
  477MOL0     H64336   1.198   7.706   9.210 -0.7292  1.7549 -0.2351
  477MOL0     H64337   1.204   7.604   9.072  0.2944  1.0656  0.4776
  477MOL0     H64338   0.938   7.616   9.075 -1.2942  1.9195  0.2495
  477MOL0     H64339   0.958   7.730   9.207  1.0700  1.0156  0.0033
  477MOL0     H64340   0.962   7.855   9.006  0.8911  0.2455 -4.6508
  477MOL0     H64341   1.144   7.854   9.027  1.9547 -0.6665 -3.1059
  477MOL0     H64342   1.098   7.644   8.867 -0.0641  0.2139 -1.8577
  477MOL0     H64343   1.139   7.813   8.811  0.7103 -1.0795 -1.1585
  477MOL0     H64344   0.931   7.675   8.716  1.1843  0.2169 -0.4138
  477MOL0     H64345   0.844   7.730   8.859  2.2284  3.1174  4.1151
  477MOL0     H64346   1.087   7.953   8.642 -0.7866 -2.7699 -0.6923
  477MOL0     H64347   0.792   8.192   8.480 -0.3138 -2.5391  1.3599
  477MOL0     H64348   0.959   8.234   8.529 -1.5813  0.3182  2.4206
  477MOL0     H64349   0.937   8.202   8.279  0.2584  1.5110  1.0319
  477MOL0     H64350   1.058   8.112   8.356  0.5126  3.9656 -1.7112
  477MOL0     H64351   0.931   7.912   8.332 -1.9042 -1.0430 -0.3361
  477MOL0     H64352   0.943   7.978   8.176 -0.2774 -0.7393  0.4117
  477MOL0     H64353   0.694   8.070   8.225 -2.1501  0.6369  2.2172
  477MOL0     H64354   0.708   7.982   8.376  4.0746 -1.1908  0.8873
  477MOL0     H64355   0.645   7.997   7.994 -0.8406 -0.6401  0.5500
  477MOL0     H64356   0.720   7.931   7.759  1.0444 -0.1285  0.0248
  477MOL0     H64357   0.781   7.623   7.408 -1.8202  0.2245  3.6852
  477MOL0     H64358   0.783   7.443   7.227 -0.1623  1.9206 -0.0848
  477MOL0     H64359   1.064   7.164   7.118  0.3558 -1.5763 -0.7719
  477MOL0     H64360   1.100   7.168   7.299 -1.1833 -2.2275  1.7297
  477MOL0     H64361   0.987   6.981   7.325  2.1672 -0.8594 -0.1847
  477MOL0     H64362   0.930   6.981   7.155 -1.9836  1.9535  1.7198
  477MOL0     H64363   1.190   6.965   7.106  0.2773  3.4327  2.0258
  477MOL0     H64364   1.217   6.936   7.273 -1.5029  2.3552  0.7682
  477MOL0     H64365   1.046   6.774   7.073  0.5117  3.1219  0.2738
  477MOL0     H64366   1.083   6.720   7.247  2.6946  0.2246  1.6493
  477MOL0     H64367   1.328   6.755   7.147  1.0122 -1.2737 -2.5238
  477MOL0     H64368   1.264   6.735   6.993  1.3964 -1.3151 -0.5566
  477MOL0     H64369   1.347   6.533   7.086 -1.7589  0.6841 -2.7287
  477MOL0     H64370   1.225   6.532   7.217 -0.9363 -1.6090 -0.4892
  477MOL0     H64371   1.040   6.504   7.055 -0.8261 -0.1669 -1.9597
  477MOL0     H64372   1.167   6.381   7.023  1.5513  1.2696  1.8121
  477MOL0     H64373   1.138   6.632   6.856 -0.6467 -0.2147  1.1278
  477MOL0     H64374   1.245   6.493   6.831  1.7359  3.4869  0.5836
  477MOL0     H64375   0.991   7.189   7.497  1.0705  0.7134  0.6000
  477MOL0     H64376   0.984   7.338   7.667 -4.5730 -2.5994  1.4072
  477MOL0     H64377   0.845   7.559   7.913 -0.3512 -1.3388  2.6492
  477MOL0     H64378   0.795   7.611   8.138 -0.9775 -2.8551 -2.0098
  477MOL0     H64379   1.468   7.221   8.987  5.4769  0.5318  1.0315
  477MOL0     H64380   1.479   6.984   8.968  0.2017  1.0043 -0.9773
  477MOL0     H64381   1.270   6.546   9.255  0.2534 -0.1831  2.6740
  477MOL0     H64382   1.317   6.298   9.282  2.3085 -0.5609  0.5968
  477MOL0     H64383   1.358   6.077   9.274  0.8359 -0.7657  0.6065
  477MOL0     H64384   1.454   5.979   9.164  1.8419  0.8734  2.9237
  477MOL0     H64385   1.359   6.083   8.969  2.7306  1.2528  2.3463
  477MOL0     H64386   1.244   6.168   9.066 -0.7866 -0.5368 -0.1208
  477MOL0     H64387   1.136   5.977   9.156 -0.9454 -0.8701 -1.4601
  477MOL0     H64388   1.254   5.866   9.095  1.8875  0.8719 -1.4540
  477MOL0     H64389   1.172   5.951   8.851  3.2222  0.7888  0.4181
  477MOL0     H64390   1.073   5.851   8.955 -1.0840  0.5445  0.7475
  477MOL0     H64391   0.849   6.213   8.980  0.7965  0.7380  0.4463
  477MOL0     H64392   1.666   6.343   9.041 -1.0563 -3.1691  0.9549
  477MOL0     H64393   1.717   6.677   9.108  1.2003 -0.3586  1.0572
  477MOL0     H64394   1.792   6.528   9.054 -1.0754  0.0896 -0.0025
  477MOL0     H64395   1.694   6.639   8.943 -1.5491  0.9849 -0.2929
  478MOL0     O64396   8.491   5.232   4.012 -0.6915  0.1894 -0.8956
  478MOL0     C64397   8.471   5.140   4.091 -0.0861  0.2277 -0.0295
  478MOL0     O64398   8.396   5.028   4.069  0.1442 -0.2371  0.1550
  478MOL0     C64399   8.313   5.025   3.951  0.5301 -0.6679  0.3773
  478MOL0     C64400   8.376   5.013   3.828  0.7997  0.2438 -0.3223
  478MOL0     C64401   8.301   5.009   3.709 -0.0739  0.2891 -0.6276
  478MOL0     C64402   8.162   5.025   3.724  1.3210  0.7739 -0.9614
  478MOL0     O64403   8.065   5.022   3.622 -0.0705 -0.4756  0.5242
  478MOL0     C64404   7.960   4.927   3.612  0.2547  0.2078  0.1273
  478MOL0     C64405   8.005   4.786   3.579 -0.2923  0.1357 -0.1441
  478MOL0     C64406   7.952   4.672   3.675 -1.2175 -0.1711 -0.2238
  478MOL0     C64407   8.032   4.667   3.814  0.9493  0.1611 -0.4519
  478MOL0     C64408   8.176   4.615   3.792 -0.1424  0.5504 -0.6477
  478MOL0     C64409   8.239   4.576   3.931  0.2916 -0.2930  0.2961
  478MOL0     C64410   8.389   4.563   3.905  0.3731 -0.4340  0.8053
  478MOL0     C64411   8.401   4.424   3.836  0.4740 -0.4670  0.5476
  478MOL0     N64412   8.533   4.354   3.820  0.9128  0.2399 -0.6024
  478MOL0     C64413   8.632   4.346   3.908 -0.0033 -0.1071  1.0048
  478MOL0     C64414   8.733   4.272   3.851 -0.4120  0.4832 -0.3466
  478MOL0     C64415   8.872   4.250   3.908  0.8395  0.4982  0.2703
  478MOL0     C64416   8.904   4.357   4.017 -0.5027  0.3270 -0.6226
  478MOL0     C64417   9.041   4.324   4.083  0.5049  0.6296  0.8675
  478MOL0     C64418   9.079   4.436   4.178 -0.1236  0.5120 -1.5545
  478MOL0     O64419   9.154   4.370   4.286  0.6770  0.2426  0.0156
  478MOL0     C64420   9.260   4.429   4.353 -0.0240 -0.1263 -0.1087
  478MOL0     C64421   9.327   4.337   4.438  0.0207 -0.5574  0.0067
  478MOL0     C64422   9.436   4.379   4.518 -0.4901 -0.1747  0.1975
  478MOL0     C64423   9.496   4.509   4.498 -0.0667 -0.1076  0.1808
  478MOL0     C64424   9.607   4.552   4.587  0.2801 -0.1258 -0.4819
  478MOL0     O64425   9.668   4.454   4.662 -0.4668  0.2951  1.2085
  478MOL0     C64426   9.769   4.494   4.743  1.1365  0.0389 -0.3388
  478MOL0     C64427   9.893   4.413   4.748  0.3203 -0.0137  0.8950
  478MOL0     C64428   9.984   4.429   4.858 -0.5575 -0.5960  0.5787
  478MOL0     C64429   9.952   4.534   4.953 -0.6286 -0.1844  0.0196
  478MOL0     O64430  10.046   4.548   5.054  0.1486  0.9368  0.4763
  478MOL0     C64431  10.022   4.633   5.171  0.5546 -0.4619 -0.5325
  478MOL0     C64432  10.032   4.784   5.128 -0.1501  0.1107  0.8178
  478MOL0     C64433  10.179   4.817   5.076 -0.9910 -0.0985  0.4940
  478MOL0     C64434  10.202   4.961   5.014  1.6303  0.0219 -0.9654
  478MOL0     C64435  10.328   4.995   4.932  0.2954 -0.8023 -1.4105
  478MOL0     C64436  10.303   5.143   4.888 -0.3800  0.8557  0.0662
  478MOL0     C64437  10.400   5.188   4.787 -0.5513 -0.0053 -0.4562
  478MOL0     C64438  10.545   5.149   4.832  0.7671  0.0780 -0.2164
  478MOL0    Cl64439  10.588   5.189   5.011  0.6816 -0.1493  0.2745
  478MOL0     C64440   9.823   4.594   4.954  0.1350 -0.5953 -0.2306
  478MOL0     C64441   9.734   4.574   4.855  0.3594 -0.4549 -0.1141
  478MOL0     O64442   9.637   4.672   4.588  0.2973 -0.4877 -0.4416
  478MOL0     C64443   9.424   4.599   4.411  0.1089  0.5917 -0.4205
  478MOL0     C64444   9.311   4.553   4.340  0.0930  0.0613  0.0643
  478MOL0     N64445   8.691   4.235   3.727  0.2380 -0.6529 -0.6462
  478MOL0     N64446   8.562   4.270   3.718 -0.1772  0.4785  0.4530
  478MOL0     C64447   8.105   5.036   3.849 -0.9378 -0.6712 -0.8150
  478MOL0     C64448   8.172   5.038   3.962 -0.5942 -0.4481  1.2988
  478MOL0     C64449   8.545   5.155   4.222  0.5169  0.1308 -0.6064
  478MOL0     C64450   8.611   5.276   4.259  0.1448  0.6902  0.3124
  478MOL0     C64451   8.697   5.285   4.368  0.0613 -0.4457  1.1305
  478MOL0     C64452   8.719   5.182   4.459 -0.7476  0.7797  0.4659
  478MOL0     O64453   8.805   5.179   4.568  0.5692  0.8817 -0.7045
  478MOL0     C64454   8.870   5.285   4.619  0.3112  0.7327 -0.4442
  478MOL0     C64455   8.818   5.331   4.755  0.2931 -0.0687  0.6441
  478MOL0     C64456   8.881   5.461   4.798 -0.0711 -0.9213  0.8177
  478MOL0     C64457   8.838   5.574   4.703  0.2023 -1.5077 -0.1983
  478MOL0     C64458   8.830   5.710   4.769  0.0851  0.2664  0.1947
  478MOL0     C64459   8.819   5.825   4.799 -1.2127  0.5804 -0.1264
  478MOL0     C64460   8.635   5.072   4.442 -0.1726 -0.1213 -0.1610
  478MOL0     C64461   8.559   5.059   4.325  0.9646  0.3499 -0.8763
  478MOL0     C64462   8.485   4.923   4.318 -0.6301  0.3572  0.3197
  478MOL0     H64463   8.482   4.988   3.826  0.8962  0.4819  1.0622
  478MOL0     H64464   8.362   5.006   3.619  2.7812  0.2398  1.1793
  478MOL0     H64465   7.914   4.921   3.712  0.8986 -2.7629  0.3323
  478MOL0     H64466   7.885   4.952   3.537 -1.3629 -2.0754  0.8460
  478MOL0     H64467   8.114   4.788   3.579 -0.2809  0.5358  1.2238
  478MOL0     H64468   7.960   4.765   3.481 -3.9845  1.4478  1.0867
  478MOL0     H64469   7.961   4.573   3.629 -0.0171 -0.2952  0.2501
  478MOL0     H64470   7.845   4.688   3.691 -1.6626 -0.0903 -2.8435
  478MOL0     H64471   8.030   4.768   3.856 -3.8563 -0.2400  0.9094
  478MOL0     H64472   7.976   4.616   3.893 -0.5011  2.3896  0.0734
  478MOL0     H64473   8.167   4.521   3.736  1.4157 -0.5433  0.8215
  478MOL0     H64474   8.227   4.696   3.738  0.5261  0.5194 -0.0686
  478MOL0     H64475   8.216   4.663   3.993 -2.7839  0.3229 -1.5009
  478MOL0     H64476   8.195   4.484   3.970 -3.1692  0.8036 -0.6836
  478MOL0     H64477   8.447   4.560   3.999 -0.4406  1.4676  1.4150
  478MOL0     H64478   8.417   4.635   3.828 -0.2866 -0.8139  0.2011
  478MOL0     H64479   8.335   4.348   3.878  2.9641 -2.3045  1.3832
  478MOL0     H64480   8.357   4.444   3.738  1.6151  1.3018  0.3571
  478MOL0     H64481   8.622   4.377   4.012 -0.0195  0.3771  0.8647
  478MOL0     H64482   8.888   4.152   3.953  2.9759  0.2879 -0.8481
  478MOL0     H64483   8.942   4.256   3.825 -0.8703 -1.5470 -1.4491
  478MOL0     H64484   8.905   4.459   3.978 -0.7269  2.0788  3.4337
  478MOL0     H64485   8.828   4.354   4.096  0.0016  3.6336  0.1324
  478MOL0     H64486   9.119   4.321   4.006 -1.2691  0.4044 -0.9939
  478MOL0     H64487   9.034   4.231   4.139  0.7572 -0.1785 -0.3949
  478MOL0     H64488   8.985   4.485   4.208 -2.2140 -2.6689 -2.4816
  478MOL0     H64489   9.146   4.509   4.132 -1.2573  2.7695  0.1500
  478MOL0     H64490   9.295   4.233   4.437  0.1772 -0.6799  2.1706
  478MOL0     H64491   9.470   4.306   4.590  0.4102 -0.1382 -0.1850
  478MOL0     H64492   9.907   4.346   4.664 -2.0684  0.4672  0.0266
  478MOL0     H64493  10.072   4.365   4.859  1.2501  1.6815 -0.7227
  478MOL0     H64494   9.919   4.617   5.207 -0.2836  0.9127 -2.1825
  478MOL0     H64495  10.078   4.589   5.254 -3.7566 -1.4583  2.2367
  478MOL0     H64496   9.963   4.807   5.046 -0.4558  1.2123  1.3598
  478MOL0     H64497  10.010   4.845   5.216  1.1353  2.3219 -0.3163
  478MOL0     H64498  10.240   4.795   5.164 -1.4889  1.0851  1.1647
  478MOL0     H64499  10.197   4.742   4.999 -3.3865 -0.5856  0.3113
  478MOL0     H64500  10.194   5.031   5.097 -2.4670  0.0746 -1.1898
  478MOL0     H64501  10.116   4.975   4.947  0.6541 -1.9060 -0.1845
  478MOL0     H64502  10.332   4.920   4.852  2.7003 -1.4197 -0.7988
  478MOL0     H64503  10.418   4.979   4.992  0.7873 -1.9313 -2.3914
  478MOL0     H64504  10.203   5.147   4.843 -1.6730  0.0108  2.6498
  478MOL0     H64505  10.307   5.213   4.973 -2.9202  0.3713  0.6730
  478MOL0     H64506  10.408   5.297   4.782  2.8615  0.0170  1.9812
  478MOL0     H64507  10.369   5.142   4.693  1.0024 -2.6212  0.1981
  478MOL0     H64508  10.567   5.043   4.818 -0.7369  0.1544 -4.3198
  478MOL0     H64509  10.615   5.194   4.762 -0.0093 -3.1030 -3.2800
  478MOL0     H64510   9.794   4.669   5.027 -2.4414 -1.2496 -0.4689
  478MOL0     H64511   9.639   4.626   4.857  0.4092 -0.3746  0.1332
  478MOL0     H64512   9.463   4.698   4.391 -0.2996  1.0606  0.9901
  478MOL0     H64513   9.258   4.620   4.273  0.7857  0.9247  0.3593
  478MOL0     H64514   7.997   5.049   3.857 -0.7305  0.5229  0.6619
  478MOL0     H64515   8.124   5.027   4.059  0.5632  2.3571  2.2967
  478MOL0     H64516   8.591   5.358   4.191  0.9791  2.2816  1.8956
  478MOL0     H64517   8.753   5.378   4.374 -0.2693 -0.1610  0.0718
  478MOL0     H64518   8.869   5.367   4.547 -0.8731  0.0601 -1.2080
  478MOL0     H64519   8.977   5.261   4.628 -0.0747 -1.8589 -1.7503
  478MOL0     H64520   8.843   5.265   4.838  0.3559 -0.3015  0.4417
  478MOL0     H64521   8.710   5.338   4.737  0.5477  0.0412 -0.9809
  478MOL0     H64522   8.989   5.447   4.797  0.0194 -0.3603  2.0393
  478MOL0     H64523   8.865   5.483   4.904  2.4788 -1.2329  1.3238
  478MOL0     H64524   8.915   5.598   4.629 -0.0052  0.1476  0.0693
  478MOL0     H64525   8.748   5.552   4.645  0.5259  1.0032 -1.8047
  478MOL0     H64526   8.800   5.930   4.812 -2.9207  0.6846 -2.7901
  478MOL0     H64527   8.625   4.995   4.518  1.2334  0.9535  1.1875
  478MOL0     H64528   8.519   4.869   4.407  2.0008  3.7692  1.5973
  478MOL0     H64529   8.376   4.936   4.326 -0.9020 -2.4169  3.8277
  478MOL0     H64530   8.501   4.879   4.220 -2.2472 -0.1215  0.2373
  479MOL0     O64531   2.333   8.227   3.185  0.1735 -0.1687 -0.4402
  479MOL0     C64532   2.446   8.191   3.210  0.5645 -0.1202  0.6657
  479MOL0     O64533   2.485   8.108   3.303  0.5892  0.1580 -0.1143
  479MOL0     C64534   2.386   8.013   3.344 -0.4777 -0.4186 -1.2270
  479MOL0     C64535   2.339   8.012   3.482  0.9355  0.4322 -0.1001
  479MOL0     C64536   2.225   7.947   3.525 -0.1721 -0.5952  0.1131
  479MOL0     C64537   2.161   7.854   3.434  0.8764 -0.3696 -0.3266
  479MOL0     O64538   2.063   7.780   3.491  0.3252 -0.1416 -0.1673
  479MOL0     C64539   2.085   7.637   3.497 -0.5715  0.0654 -0.7130
  479MOL0     C64540   1.981   7.566   3.401  0.3148 -0.3441  0.5998
  479MOL0     C64541   1.840   7.545   3.478 -1.6418  0.5023 -0.3817
  479MOL0     C64542   1.761   7.674   3.479 -0.7863 -0.9998  0.1581
  479MOL0     C64543   1.654   7.664   3.581 -0.5996 -0.1727 -0.8468
  479MOL0     C64544   1.529   7.764   3.576 -0.1274  0.1164  0.1923
  479MOL0     C64545   1.418   7.733   3.683 -0.3191  0.4348 -0.2790
  479MOL0     C64546   1.367   7.591   3.689  0.2600  0.3496  0.1850
  479MOL0     N64547   1.259   7.583   3.787  0.4133  0.7589 -0.4693
  479MOL0     C64548   1.129   7.620   3.778  0.3042  1.0686  1.0054
  479MOL0     C64549   1.076   7.623   3.910 -0.5475  0.9766 -0.1899
  479MOL0     C64550   0.938   7.636   3.956  0.3828  0.0235  0.5946
  479MOL0     C64551   0.849   7.512   3.937 -0.4832  1.0108 -0.1910
  479MOL0     C64552   0.711   7.538   3.896 -0.4789 -0.3939  0.1120
  479MOL0     C64553   0.611   7.602   3.997 -0.1999 -0.8881 -0.4828
  479MOL0     O64554   0.584   7.538   4.125 -0.1383 -0.0430 -0.0231
  479MOL0     C64555   0.557   7.408   4.104 -0.2008  0.9427 -0.0513
  479MOL0     C64556   0.471   7.364   4.006 -0.2641 -0.4120 -0.0374
  479MOL0     C64557   0.424   7.232   3.996  1.3003 -0.0269 -0.5542
  479MOL0     C64558   0.451   7.137   4.091  0.5049  0.2263  0.4117
  479MOL0     C64559   0.394   6.998   4.065  0.1364 -0.4594 -0.4938
  479MOL0     O64560   0.469   6.890   4.098 -0.1552 -0.0317 -0.0107
  479MOL0     C64561   0.416   6.767   4.090 -0.5142 -0.2039 -0.0640
  479MOL0     C64562   0.348   6.703   4.192 -0.3633 -1.3535  0.0458
  479MOL0     C64563   0.295   6.578   4.179  1.1290 -0.3856  0.3904
  479MOL0     C64564   0.308   6.504   4.062 -0.1664  0.2748 -0.2274
  479MOL0     O64565   0.271   6.372   4.040 -0.4162 -0.1884  0.3053
  479MOL0     C64566   0.145   6.337   4.099 -0.2340 -0.2202 -0.6488
  479MOL0     C64567   0.018   6.362   4.017  0.4728 -0.1577 -0.1312
  479MOL0     C64568   0.019   6.264   3.896  0.1566  0.2543  0.3464
  479MOL0     C64569  -0.111   6.255   3.817  1.0551  0.2977  0.0984
  479MOL0     C64570  -0.247   6.235   3.895 -0.5275 -1.0057  0.3169
  479MOL0     C64571  -0.371   6.256   3.805 -0.0050 -0.1681  0.3423
  479MOL0     C64572  -0.502   6.273   3.884 -0.2768  0.5071  0.1727
  479MOL0     C64573  -0.631   6.258   3.806 -0.9190 -0.1361  0.3524
  479MOL0    Cl64574  -0.764   6.258   3.924  0.1722 -0.1125  0.1456
  479MOL0     C64575   0.378   6.566   3.956  0.6913 -0.0338  0.0875
  479MOL0     C64576   0.422   6.700   3.963 -0.5272  0.7105 -0.6273
  479MOL0     O64577   0.278   6.994   4.043 -0.4070  0.0288 -0.8351
  479MOL0     C64578   0.543   7.167   4.194  0.5843  0.4495  0.0964
  479MOL0     C64579   0.602   7.305   4.190  1.8060 -0.6338 -0.4138
  479MOL0     N64580   1.185   7.589   3.998  0.2029 -0.6697 -0.1952
  479MOL0     N64581   1.281   7.546   3.919  0.2703 -0.3138 -0.2926
  479MOL0     C64582   2.201   7.852   3.296 -0.3337  0.0963  1.1233
  479MOL0     C64583   2.318   7.930   3.254  0.9497 -0.3708  0.4440
  479MOL0     C64584   2.543   8.264   3.129 -0.7877 -0.6546  0.5750
  479MOL0     C64585   2.532   8.406   3.114 -0.6435 -0.7390  0.4819
  479MOL0     C64586   2.632   8.481   3.041  0.2201 -0.4702  0.2398
  479MOL0     C64587   2.729   8.418   2.963  0.0599  0.6934  0.3129
  479MOL0     O64588   2.830   8.482   2.877 -0.5535  0.2164  0.7969
  479MOL0     C64589   2.817   8.630   2.868 -0.0176 -0.2276  0.8221
  479MOL0     C64590   2.949   8.709   2.830  0.5007 -0.0634  0.1459
  479MOL0     C64591   2.930   8.859   2.845 -0.6674  0.5591 -0.2622
  479MOL0     C64592   3.066   8.930   2.815  0.2121 -0.0105  0.1712
  479MOL0     C64593   3.099   8.908   2.677  1.0296 -0.1215  0.0344
  479MOL0     C64594   3.142   8.904   2.562  0.5746  0.5194 -0.0957
  479MOL0     C64595   2.731   8.287   2.976 -0.2268 -0.6885 -0.1006
  479MOL0     C64596   2.651   8.206   3.066 -0.0636 -0.4491 -0.0088
  479MOL0     C64597   2.696   8.059   3.089  0.1395  0.7653  0.8463
  479MOL0     H64598   2.405   8.059   3.553 -1.9378 -1.8927  4.6041
  479MOL0     H64599   2.207   7.965   3.631  0.4839 -1.4674  0.3818
  479MOL0     H64600   2.180   7.606   3.453 -1.3543 -1.5908 -1.3035
  479MOL0     H64601   2.072   7.592   3.596  0.0185  0.3547 -0.5019
  479MOL0     H64602   2.022   7.466   3.382  1.6735  0.2938  0.0849
  479MOL0     H64603   1.963   7.625   3.311 -0.9464  0.0822  1.1004
  479MOL0     H64604   1.865   7.495   3.572  0.1787 -1.7746 -1.9620
  479MOL0     H64605   1.785   7.469   3.421 -3.3521  1.2808  0.1458
  479MOL0     H64606   1.828   7.759   3.493 -1.6161 -0.4809  1.1365
  479MOL0     H64607   1.713   7.689   3.381  2.4985  2.3425 -1.1866
  479MOL0     H64608   1.622   7.560   3.584 -0.0277 -0.3294  0.3397
  479MOL0     H64609   1.702   7.693   3.674  0.4555  2.6192 -2.1499
  479MOL0     H64610   1.561   7.868   3.578  0.3534  0.0257 -1.3582
  479MOL0     H64611   1.485   7.740   3.478 -1.6568 -0.5577  1.0198
  479MOL0     H64612   1.330   7.795   3.668  0.6187  1.4662 -1.8505
  479MOL0     H64613   1.470   7.759   3.776 -1.2727  0.6091  0.2186
  479MOL0     H64614   1.322   7.568   3.592  1.8066  0.7295 -0.6716
  479MOL0     H64615   1.437   7.512   3.719 -0.6510 -0.9242 -0.9462
  479MOL0     H64616   1.084   7.639   3.680 -2.1206 -0.4014  1.7429
  479MOL0     H64617   0.944   7.652   4.064 -1.4648 -4.2555  1.5492
  479MOL0     H64618   0.879   7.716   3.910  0.3078  0.4265  1.3648
  479MOL0     H64619   0.894   7.454   3.856  4.3258  3.2755  0.4871
  479MOL0     H64620   0.838   7.443   4.021 -1.6260 -0.9626 -1.8812
  479MOL0     H64621   0.684   7.437   3.863  1.6260 -0.1187 -2.7869
  479MOL0     H64622   0.717   7.599   3.805  3.2019 -0.4517  0.1698
  479MOL0     H64623   0.519   7.618   3.940 -1.1897  1.0921  1.4663
  479MOL0     H64624   0.642   7.707   4.007 -1.3372 -0.6278  0.5867
  479MOL0     H64625   0.424   7.436   3.940  2.0134  0.0283 -1.3152
  479MOL0     H64626   0.354   7.210   3.916  0.5616  0.6585 -0.1064
  479MOL0     H64627   0.359   6.750   4.289  0.2187 -0.6740 -0.3380
  479MOL0     H64628   0.247   6.539   4.268 -0.0358 -1.9606 -0.8795
  479MOL0     H64629   0.141   6.231   4.126  0.4935 -0.6871 -2.2309
  479MOL0     H64630   0.124   6.387   4.194 -0.2412 -1.1972 -0.1282
  479MOL0     H64631  -0.066   6.337   4.083  0.8149 -1.2453 -0.0898
  479MOL0     H64632  -0.002   6.468   3.998  2.6704  0.8937  2.7791
  479MOL0     H64633   0.103   6.290   3.832  1.1739 -2.9912  0.1716
  479MOL0     H64634   0.036   6.166   3.942 -3.2244  0.1848  1.7793
  479MOL0     H64635  -0.095   6.169   3.752  1.3530 -0.6786  1.4180
  479MOL0     H64636  -0.103   6.347   3.759  2.5669 -0.0912 -0.3463
  479MOL0     H64637  -0.240   6.321   3.963  1.1609 -1.7488  1.1515
  479MOL0     H64638  -0.253   6.140   3.949  1.7449 -0.1419  2.2699
  479MOL0     H64639  -0.356   6.341   3.737 -0.1692 -2.1227 -2.3055
  479MOL0     H64640  -0.380   6.160   3.754  3.2446 -2.6885  3.9262
  479MOL0     H64641  -0.503   6.363   3.946  0.6941 -0.5730  1.8409
  479MOL0     H64642  -0.482   6.193   3.956  1.4867  0.4133 -0.3722
  479MOL0     H64643  -0.635   6.337   3.730 -0.5574 -2.9964 -2.8649
  479MOL0     H64644  -0.643   6.162   3.756 -0.9117 -0.0572  0.1975
  479MOL0     H64645   0.398   6.501   3.872 -2.9347 -0.7041 -0.4233
  479MOL0     H64646   0.480   6.726   3.875  0.7524 -2.0023 -0.6762
  479MOL0     H64647   0.561   7.089   4.267  1.3129 -1.8704 -2.3983
  479MOL0     H64648   0.679   7.335   4.260  0.0817 -1.1983  1.8327
  479MOL0     H64649   2.148   7.797   3.219  3.3209 -1.6988 -0.3803
  479MOL0     H64650   2.350   7.932   3.150 -1.3758  0.3211 -0.3048
  479MOL0     H64651   2.450   8.463   3.157 -0.8036  0.8393 -1.7405
  479MOL0     H64652   2.615   8.588   3.048  2.3222 -0.1232  0.9174
  479MOL0     H64653   2.786   8.671   2.965 -1.2962  0.9841 -0.0705
  479MOL0     H64654   2.741   8.643   2.791  1.8014  1.1172 -0.8503
  479MOL0     H64655   2.968   8.679   2.727  0.9131  1.4364 -0.2408
  479MOL0     H64656   3.032   8.674   2.891  0.2205 -2.1513 -0.6187
  479MOL0     H64657   2.888   8.881   2.944 -0.8798  0.5874 -0.3574
  479MOL0     H64658   2.864   8.896   2.766  1.7245 -1.7607 -3.6259
  479MOL0     H64659   3.062   9.037   2.838 -2.0080 -0.4165  1.9573
  479MOL0     H64660   3.149   8.891   2.874  1.0766  1.3389 -0.0879
  479MOL0     H64661   3.147   8.919   2.456 -1.0859  2.6637  0.0449
  479MOL0     H64662   2.805   8.242   2.910  1.0273  2.7823 -1.2929
  479MOL0     H64663   2.713   8.033   3.194  1.2183 -1.0229  0.2602
  479MOL0     H64664   2.615   7.999   3.047 -0.9267  2.1217  0.8735
  479MOL0     H64665   2.786   8.022   3.040  1.0765  0.0161  2.9885
  480MOL0     O64666  10.936   6.620   9.421  1.0200 -0.1005 -0.1500
  480MOL0     C64667  11.037   6.668   9.368  0.4113  0.5429  0.4009
  480MOL0     O64668  11.079   6.624   9.239 -0.2173 -0.5326 -1.1126
  480MOL0     C64669  11.017   6.520   9.179 -0.1064 -0.2119  0.1857
  480MOL0     C64670  11.085   6.421   9.114 -1.9186 -0.0656 -0.1111
  480MOL0     C64671  11.038   6.328   9.029  1.0989  0.2207 -1.1831
  480MOL0     C64672  10.902   6.319   9.006  0.0391  0.6537  0.4935
  480MOL0     O64673  10.834   6.230   8.928  0.1128  0.4732 -0.2581
  480MOL0     C64674  10.851   6.087   8.948  0.0386 -0.4940 -0.1654
  480MOL0     C64675  10.739   6.001   8.894 -0.6208  0.2329  0.2569
  480MOL0     C64676  10.783   5.858   8.839 -0.2623  0.9466  0.7786
  480MOL0     C64677  10.836   5.887   8.705  0.8956  0.1282  0.5606
  480MOL0     C64678  10.878   5.744   8.650  0.4280 -1.6833 -0.2906
  480MOL0     C64679  10.976   5.758   8.536  1.1438 -0.9596  0.0326
  480MOL0     C64680  10.997   5.621   8.486 -0.6029  0.6839 -0.7002
  480MOL0     C64681  11.040   5.618   8.339  0.3967 -0.3399  0.6996
  480MOL0     N64682  11.162   5.695   8.304  0.4891  0.0089 -0.2958
  480MOL0     C64683  11.198   5.705   8.171  0.2865 -0.3852  0.5588
  480MOL0     C64684  11.323   5.744   8.177  0.2713  0.6218  0.6829
  480MOL0     C64685  11.415   5.777   8.064  1.0951 -0.0801 -0.6331
  480MOL0     C64686  11.440   5.926   8.058  0.3533  0.1404 -0.0097
  480MOL0     C64687  11.538   5.951   7.945 -0.6742  0.0092 -0.9534
  480MOL0     C64688  11.545   6.099   7.919 -0.7891 -0.0805  0.4352
  480MOL0     O64689  11.644   6.121   7.825  0.2664 -0.8996 -0.4373
  480MOL0     C64690  11.737   6.211   7.825 -0.5052  0.6020  0.5972
  480MOL0     C64691  11.718   6.347   7.840 -1.2009  0.0184 -1.5021
  480MOL0     C64692  11.823   6.437   7.817  0.8159 -0.4328  0.1384
  480MOL0     C64693  11.947   6.401   7.767 -0.0589 -0.2925 -0.3117
  480MOL0     C64694  12.047   6.504   7.731 -0.5810  0.8758  0.4011
  480MOL0     O64695  12.165   6.464   7.679  0.3119 -0.1982 -0.1651
  480MOL0     C64696  12.273   6.551   7.646 -0.2104  0.1245 -0.0277
  480MOL0     C64697  12.271   6.693   7.644 -0.1299  0.5810  0.1142
  480MOL0     C64698  12.373   6.767   7.598  0.0546 -0.8550 -0.3291
  480MOL0     C64699  12.491   6.719   7.556 -0.0264 -0.0750  0.5334
  480MOL0     O64700  12.591   6.812   7.529 -0.7213  0.3597 -0.3521
  480MOL0     C64701  12.734   6.781   7.532  0.8077  0.0561  0.6136
  480MOL0     C64702  12.822   6.891   7.592 -0.0423 -0.6295 -0.3840
  480MOL0     C64703  12.766   6.939   7.725  0.8787 -0.3478 -0.6236
  480MOL0     C64704  12.768   6.834   7.826  0.8986  0.0523  0.4285
  480MOL0     C64705  12.745   6.881   7.964  0.3286  0.4977 -0.0504
  480MOL0     C64706  12.869   6.912   8.043  0.9904 -0.5029 -0.8109
  480MOL0     C64707  12.846   6.902   8.192 -0.5212 -0.4391 -0.2748
  480MOL0     C64708  12.713   6.963   8.231  0.1499 -0.8074 -0.1661
  480MOL0    Cl64709  12.702   6.974   8.413  0.1117 -0.3627  0.3037
  480MOL0     C64710  12.496   6.577   7.556  0.4163  0.0967  0.1518
  480MOL0     C64711  12.387   6.490   7.595 -0.2286 -0.0981  0.5198
  480MOL0     O64712  12.019   6.618   7.777  0.0531  0.2190 -0.2269
  480MOL0     C64713  11.970   6.264   7.760  0.1371  0.5775 -0.1470
  480MOL0     C64714  11.868   6.173   7.784 -0.0810 -0.2094  1.3181
  480MOL0     N64715  11.366   5.746   8.310 -0.3103  0.1144 -0.1003
  480MOL0     N64716  11.270   5.712   8.384 -0.3546 -0.1764  0.1510
  480MOL0     C64717  10.823   6.417   9.073  0.2477 -0.1707 -0.3880
  480MOL0     C64718  10.882   6.518   9.158  0.1660 -0.8570  1.2900
  480MOL0     C64719  11.127   6.751   9.444  0.6391 -0.5842  0.3700
  480MOL0     C64720  11.078   6.845   9.537 -0.5762  0.4579  0.7407
  480MOL0     C64721  11.159   6.937   9.608 -0.3463 -0.8704  0.4884
  480MOL0     C64722  11.294   6.940   9.584  0.0645 -0.0145  1.0958
  480MOL0     O64723  11.388   7.027   9.639 -0.5416  0.3664 -0.4445
  480MOL0     C64724  11.343   7.095   9.757 -0.1295 -0.0486 -0.2638
  480MOL0     C64725  11.462   7.167   9.827  0.9423  0.4352  0.1979
  480MOL0     C64726  11.478   7.319   9.778 -0.6615  0.3955  0.1110
  480MOL0     C64727  11.511   7.328   9.633  0.3756  0.2208 -0.3800
  480MOL0     C64728  11.502   7.474   9.595  0.2807  0.5761  0.3271
  480MOL0     C64729  11.530   7.587   9.553 -0.4272 -0.0919  0.4901
  480MOL0     C64730  11.347   6.847   9.491 -1.0968 -0.0566 -0.7214
  480MOL0     C64731  11.267   6.747   9.426 -0.0523 -0.0027 -0.2250
  480MOL0     C64732  11.353   6.649   9.356  0.4531 -0.0732  0.1863
  480MOL0     H64733  11.192   6.413   9.130 -2.1340  1.4950  2.7842
  480MOL0     H64734  11.092   6.239   8.997  1.1443  0.3081 -1.3538
  480MOL0     H64735  10.949   6.067   8.905  0.6094  1.0932  0.3472
  480MOL0     H64736  10.874   6.050   9.048  2.1277 -1.0641 -0.8098
  480MOL0     H64737  10.688   6.055   8.814 -0.0740  5.0851  2.8078
  480MOL0     H64738  10.665   5.994   8.975 -1.4305 -0.3284 -0.5153
  480MOL0     H64739  10.689   5.804   8.827 -1.5537  3.2937 -0.1405
  480MOL0     H64740  10.858   5.804   8.899  0.3378 -0.3813 -1.0630
  480MOL0     H64741  10.754   5.934   8.650 -0.8706 -1.4612  1.7086
  480MOL0     H64742  10.926   5.948   8.719  3.3410 -3.6929  3.5911
  480MOL0     H64743  10.925   5.692   8.734  0.7591  2.2645  2.2672
  480MOL0     H64744  10.788   5.691   8.616 -0.0437 -1.6208  0.8327
  480MOL0     H64745  10.948   5.839   8.468  0.9213  1.2725  2.6276
  480MOL0     H64746  11.066   5.800   8.580  1.0594  0.3515 -0.9831
  480MOL0     H64747  10.903   5.565   8.496 -0.4523  0.8145  3.2853
  480MOL0     H64748  11.068   5.576   8.556 -2.3242  1.2151  1.5158
  480MOL0     H64749  11.049   5.514   8.304  0.6548 -0.8570  2.2153
  480MOL0     H64750  10.958   5.665   8.284 -1.1145  0.4557  3.4603
  480MOL0     H64751  11.140   5.702   8.079  1.7739  1.9403 -0.5619
  480MOL0     H64752  11.507   5.718   8.071  1.1300  0.1184  0.7102
  480MOL0     H64753  11.370   5.744   7.969  0.3458 -1.2306  0.0871
  480MOL0     H64754  11.358   5.995   8.033 -0.5915  0.1135  2.6284
  480MOL0     H64755  11.474   5.958   8.157  1.8008 -4.6375  1.2705
  480MOL0     H64756  11.506   5.906   7.851  3.0237 -0.5568 -2.1217
  480MOL0     H64757  11.638   5.914   7.972 -0.5228  0.6650 -0.5823
  480MOL0     H64758  11.567   6.155   8.011 -0.7412  1.4930 -0.4934
  480MOL0     H64759  11.450   6.137   7.880 -0.1236 -0.4306 -1.6627
  480MOL0     H64760  11.627   6.400   7.865 -1.8910 -1.4675 -0.7653
  480MOL0     H64761  11.799   6.542   7.830 -0.1301 -0.4251 -1.4357
  480MOL0     H64762  12.196   6.755   7.691 -0.1453  0.3695  0.3726
  480MOL0     H64763  12.376   6.875   7.586  1.7723 -0.8092  0.2723
  480MOL0     H64764  12.748   6.696   7.600  0.5105  0.5723  1.3340
  480MOL0     H64765  12.770   6.752   7.433 -3.4540 -1.7508 -0.6398
  480MOL0     H64766  12.928   6.870   7.611 -0.6801 -1.8072  2.3562
  480MOL0     H64767  12.833   6.982   7.533  2.7448 -0.0759  0.8321
  480MOL0     H64768  12.827   7.023   7.760  0.6170 -0.4282  0.0490
  480MOL0     H64769  12.670   6.987   7.700 -0.2226 -0.6220  2.5564
  480MOL0     H64770  12.853   6.765   7.818 -1.3009 -2.7182 -0.3051
  480MOL0     H64771  12.675   6.782   7.803  0.3631  0.9277  0.5642
  480MOL0     H64772  12.676   6.816   8.019  0.7389  0.4626  0.4230
  480MOL0     H64773  12.688   6.974   7.953 -0.1454  0.1843 -0.2801
  480MOL0     H64774  12.950   6.847   8.008 -0.4154 -2.4746 -0.6208
  480MOL0     H64775  12.905   7.012   8.021  1.0395 -0.0074  1.2975
  480MOL0     H64776  12.935   6.951   8.234  1.1967 -0.6642 -3.3810
  480MOL0     H64777  12.859   6.796   8.215  4.3257  0.3548  2.0019
  480MOL0     H64778  12.711   7.062   8.184 -1.2278 -0.4065  0.6890
  480MOL0     H64779  12.633   6.895   8.199  1.8448 -3.6317  1.1662
  480MOL0     H64780  12.585   6.520   7.530 -0.4397 -1.6025  0.8319
  480MOL0     H64781  12.398   6.384   7.576  3.4759  0.4892 -1.4725
  480MOL0     H64782  12.065   6.230   7.720  0.0982  1.3006 -0.8983
  480MOL0     H64783  11.890   6.068   7.774  0.3664  0.0248 -0.3773
  480MOL0     H64784  10.717   6.428   9.055 -0.4370 -2.5349  1.6447
  480MOL0     H64785  10.817   6.597   9.194  0.3877  0.5553 -1.1961
  480MOL0     H64786  10.973   6.832   9.562 -2.0053 -2.2290 -4.8701
  480MOL0     H64787  11.110   7.011   9.671 -0.5349  1.1246 -1.8586
  480MOL0     H64788  11.313   7.018   9.829  1.5195  0.8833  1.5051
  480MOL0     H64789  11.270   7.170   9.724 -1.6948 -1.0136  0.8292
  480MOL0     H64790  11.541   7.097   9.796 -2.1105 -3.7745  1.0032
  480MOL0     H64791  11.467   7.150   9.935 -0.0869 -0.0542  0.1799
  480MOL0     H64792  11.561   7.373   9.824 -0.9501  1.8549 -1.0252
  480MOL0     H64793  11.388   7.367   9.816 -0.0380  1.4076  0.3584
  480MOL0     H64794  11.614   7.294   9.622  0.4874 -0.2053  1.6644
  480MOL0     H64795  11.450   7.276   9.558  0.6421 -0.3553 -0.2027
  480MOL0     H64796  11.556   7.681   9.508 -2.3763  0.4414  0.3832
  480MOL0     H64797  11.454   6.852   9.473 -1.0897 -1.0053 -1.0147
  480MOL0     H64798  11.459   6.666   9.375  1.1566 -4.4962  1.5616
  480MOL0     H64799  11.348   6.546   9.394  0.6293  0.0062  0.4234
  480MOL0     H64800  11.344   6.662   9.247  0.1957  2.3540  0.4435
  481MOL0     O64801   4.628   2.086   1.334  0.5171 -0.2953  0.0820
  481MOL0     C64802   4.526   2.153   1.328  0.0130  0.3936 -0.5120
  481MOL0     O64803   4.413   2.115   1.266  0.4502 -0.1587  0.6552
  481MOL0     C64804   4.418   2.011   1.180  0.5618 -0.4804 -0.1451
  481MOL0     C64805   4.418   1.878   1.221  0.5773  0.0187  0.2015
  481MOL0     C64806   4.418   1.769   1.139 -0.1509 -0.6060  1.1626
  481MOL0     C64807   4.417   1.794   0.999 -0.5444 -0.1257  0.0546
  481MOL0     O64808   4.418   1.699   0.898 -0.5318  0.3959 -0.0405
  481MOL0     C64809   4.374   1.564   0.929  0.5514 -0.7224  0.9606
  481MOL0     C64810   4.346   1.505   0.788  0.5625 -0.4513  0.5816
  481MOL0     C64811   4.468   1.439   0.726 -0.1525 -0.3140  0.3806
  481MOL0     C64812   4.432   1.385   0.586 -0.8354  0.6463 -0.0967
  481MOL0     C64813   4.547   1.306   0.508 -0.0272 -0.4562  0.8208
  481MOL0     C64814   4.573   1.179   0.580 -0.8853  0.1234  0.7926
  481MOL0     C64815   4.658   1.084   0.496 -0.2400  0.0857  0.4989
  481MOL0     C64816   4.703   0.964   0.584 -0.2010  0.5193  1.0998
  481MOL0     N64817   4.772   0.860   0.510  1.1694  0.6873  0.0446
  481MOL0     C64818   4.889   0.866   0.444 -0.2719 -0.9110  0.3918
  481MOL0     C64819   4.895   0.747   0.381  0.5349 -0.8776  0.4940
  481MOL0     C64820   5.032   0.710   0.331  0.6243  0.9223  0.3543
  481MOL0     C64821   5.123   0.685   0.454  0.2489 -0.2942 -1.1106
  481MOL0     C64822   5.242   0.592   0.444 -0.4645  0.2292  0.1973
  481MOL0     C64823   5.292   0.556   0.587  0.1443 -0.0609  0.4115
  481MOL0     O64824   5.309   0.665   0.672 -0.1554  0.7290 -0.2552
  481MOL0     C64825   5.351   0.639   0.801 -1.0415  0.0313  0.7154
  481MOL0     C64826   5.341   0.756   0.881 -0.9729 -1.4635 -0.0936
  481MOL0     C64827   5.363   0.739   1.019 -0.1525  0.4401 -0.6452
  481MOL0     C64828   5.403   0.624   1.086 -0.3204  0.0166  0.4647
  481MOL0     C64829   5.428   0.625   1.223  0.1069 -0.0647 -0.6062
  481MOL0     O64830   5.422   0.504   1.292 -0.0454  0.1803 -0.0960
  481MOL0     C64831   5.441   0.501   1.427 -0.3259  0.4946  0.6768
  481MOL0     C64832   5.332   0.477   1.508 -1.2354  0.0485 -0.4765
  481MOL0     C64833   5.367   0.482   1.648  0.4266  0.7782  0.3754
  481MOL0     C64834   5.492   0.516   1.706  0.3905  0.7424  0.3843
  481MOL0     O64835   5.507   0.533   1.839 -0.1614 -0.3468 -0.8910
  481MOL0     C64836   5.602   0.440   1.897  0.9411 -0.0488  0.2349
  481MOL0     C64837   5.592   0.419   2.050  0.3222 -0.0600 -0.5967
  481MOL0     C64838   5.668   0.285   2.100 -0.2093  0.1846  0.1596
  481MOL0     C64839   5.816   0.277   2.056 -0.8878 -0.3808 -1.6418
  481MOL0     C64840   5.882   0.152   2.111 -0.2751 -0.0464  0.1215
  481MOL0     C64841   5.827   0.020   2.061  0.5219 -0.0753  0.6333
  481MOL0     C64842   5.856   0.012   1.908 -0.1465  0.2640  0.3720
  481MOL0     C64843   5.849  -0.130   1.863  0.0851 -0.0655 -0.0544
  481MOL0    Cl64844   5.680  -0.196   1.859 -0.1322  0.1604 -0.0526
  481MOL0     C64845   5.598   0.545   1.615  0.2472 -0.2220 -0.1883
  481MOL0     C64846   5.570   0.534   1.478  0.3109  0.1512  0.0566
  481MOL0     O64847   5.458   0.727   1.281 -0.5283 -0.0640  0.4584
  481MOL0     C64848   5.414   0.510   1.003 -0.9915  0.3551  0.2235
  481MOL0     C64849   5.388   0.513   0.867  0.2389 -0.8113  0.2742
  481MOL0     N64850   4.780   0.677   0.401 -0.6955  0.0535  0.1009
  481MOL0     N64851   4.710   0.743   0.491 -0.3440 -0.1628  0.4358
  481MOL0     C64852   4.427   1.922   0.950 -0.1004 -0.6196 -0.1330
  481MOL0     C64853   4.418   2.033   1.041 -0.5565 -0.7287  0.1753
  481MOL0     C64854   4.522   2.269   1.422 -0.7198 -0.3209 -0.6671
  481MOL0     C64855   4.394   2.299   1.467  0.4015  0.5938 -0.6930
  481MOL0     C64856   4.371   2.396   1.561 -0.0726 -0.0187 -0.3187
  481MOL0     C64857   4.471   2.474   1.612  0.3745  0.1942 -0.0949
  481MOL0     O64858   4.442   2.571   1.691  0.0952 -0.5244 -0.5455
  481MOL0     C64859   4.538   2.667   1.747  0.3849  0.6336  0.1382
  481MOL0     C64860   4.611   2.600   1.861 -0.4265  0.0651 -0.2455
  481MOL0     C64861   4.697   2.702   1.933  0.3740  0.3366  0.3970
  481MOL0     C64862   4.826   2.742   1.856 -0.7462 -0.9316 -0.5373
  481MOL0     C64863   4.909   2.835   1.931 -0.0249 -0.6901 -0.2379
  481MOL0     C64864   5.002   2.899   1.976 -0.2949 -0.1159  0.1732
  481MOL0     C64865   4.600   2.451   1.570 -0.3620 -1.0384  0.7414
  481MOL0     C64866   4.633   2.347   1.474  0.4029 -0.1496  0.1002
  481MOL0     C64867   4.777   2.310   1.448  0.3659 -0.6099  0.4335
  481MOL0     H64868   4.422   1.862   1.328  2.1903 -0.1086  0.1524
  481MOL0     H64869   4.428   1.674   1.190 -2.2764 -1.4690  0.1052
  481MOL0     H64870   4.448   1.505   0.985  2.8223  1.6635  0.7227
  481MOL0     H64871   4.284   1.564   0.991  0.3894 -1.2993  0.7229
  481MOL0     H64872   4.308   1.585   0.724  0.3971 -0.1939  0.9960
  481MOL0     H64873   4.277   1.421   0.794 -0.8096  0.3277 -2.3852
  481MOL0     H64874   4.520   1.367   0.789  2.5632  0.6497 -0.6174
  481MOL0     H64875   4.551   1.509   0.712  0.0859 -0.6877 -0.0716
  481MOL0     H64876   4.343   1.325   0.610 -0.3462 -0.6945 -1.4298
  481MOL0     H64877   4.405   1.474   0.529  0.0055  2.8155  2.6733
  481MOL0     H64878   4.528   1.287   0.402  2.7492 -1.4196  0.4225
  481MOL0     H64879   4.635   1.371   0.511 -0.3999  0.5225 -3.2142
  481MOL0     H64880   4.615   1.196   0.679 -4.6026  1.4698  2.2658
  481MOL0     H64881   4.482   1.119   0.589 -0.2826 -1.7035 -3.0440
  481MOL0     H64882   4.743   1.143   0.460 -1.0860  2.5902  2.3699
  481MOL0     H64883   4.613   1.037   0.408  4.2200 -2.6991 -0.6522
  481MOL0     H64884   4.772   0.999   0.661 -1.5006  0.8918  2.1274
  481MOL0     H64885   4.612   0.936   0.637 -1.9623  1.8119 -1.0395
  481MOL0     H64886   4.958   0.950   0.445 -0.7327 -0.4362 -1.8588
  481MOL0     H64887   5.026   0.620   0.269 -3.5269  2.7114 -2.2143
  481MOL0     H64888   5.075   0.785   0.264  2.8902 -0.7315 -0.1557
  481MOL0     H64889   5.162   0.780   0.493 -0.7056 -0.5575  0.5523
  481MOL0     H64890   5.057   0.653   0.535  0.5949 -1.6087 -1.3261
  481MOL0     H64891   5.331   0.632   0.395  0.7028  2.5755  3.8930
  481MOL0     H64892   5.222   0.490   0.409  1.7205 -0.2673  0.2126
  481MOL0     H64893   5.386   0.501   0.578  0.6157  0.7000  0.6259
  481MOL0     H64894   5.209   0.500   0.632 -0.8633  2.4883  1.9150
  481MOL0     H64895   5.309   0.846   0.829  0.5179 -0.4207  0.7123
  481MOL0     H64896   5.335   0.816   1.089 -1.6081  0.9321 -1.7321
  481MOL0     H64897   5.234   0.457   1.467 -2.0415  1.9226  0.4592
  481MOL0     H64898   5.281   0.468   1.713  1.3349 -1.6005  1.1358
  481MOL0     H64899   5.603   0.342   1.847  1.9117 -0.5455  1.1661
  481MOL0     H64900   5.703   0.475   1.874  1.1161 -1.0103 -0.5502
  481MOL0     H64901   5.625   0.506   2.108 -2.8221  0.4389  0.6370
  481MOL0     H64902   5.493   0.413   2.096  0.0120  3.4918 -0.5311
  481MOL0     H64903   5.647   0.278   2.207  0.7844 -0.8308  0.3045
  481MOL0     H64904   5.610   0.202   2.059 -0.3497 -2.6860  5.3902
  481MOL0     H64905   5.870   0.367   2.087 -4.8734  1.3205  1.2669
  481MOL0     H64906   5.821   0.286   1.947  2.4831  0.2634 -1.5305
  481MOL0     H64907   5.864   0.140   2.218 -1.2561 -2.1867 -0.2390
  481MOL0     H64908   5.990   0.162   2.095 -0.0075 -2.6425 -0.0635
  481MOL0     H64909   5.880  -0.064   2.109  1.8885  0.5281  0.2352
  481MOL0     H64910   5.719   0.013   2.069  0.4849  1.6164  2.4730
  481MOL0     H64911   5.959   0.049   1.898  0.5891 -1.6748  0.2784
  481MOL0     H64912   5.789   0.071   1.845 -1.2246 -0.9432  0.3532
  481MOL0     H64913   5.885  -0.145   1.761 -3.2114 -1.4564 -1.1644
  481MOL0     H64914   5.908  -0.187   1.936 -0.4752  0.2038  0.6204
  481MOL0     H64915   5.698   0.582   1.637  1.0982 -3.1501  1.2443
  481MOL0     H64916   5.644   0.557   1.402  0.5896  2.3100  0.9021
  481MOL0     H64917   5.466   0.427   1.050  0.7802  1.7257  0.7795
  481MOL0     H64918   5.392   0.429   0.798 -2.1759 -2.7278  2.2487
  481MOL0     H64919   4.421   1.954   0.846 -0.4568  2.3029  0.7131
  481MOL0     H64920   4.390   2.131   1.003 -1.3911 -1.2617 -0.6440
  481MOL0     H64921   4.312   2.237   1.435  0.0095  1.3670 -1.2286
  481MOL0     H64922   4.269   2.407   1.597  0.4845  2.0680  0.8614
  481MOL0     H64923   4.483   2.748   1.796  0.5312  0.9376 -0.1948
  481MOL0     H64924   4.614   2.700   1.675 -1.8987  0.0562 -2.7445
  481MOL0     H64925   4.682   2.525   1.826 -0.4021 -2.2771  4.1507
  481MOL0     H64926   4.542   2.565   1.939  0.6065  1.2542  1.2590
  481MOL0     H64927   4.721   2.665   2.033  1.4763  1.0276  0.4055
  481MOL0     H64928   4.631   2.789   1.945 -0.1584  0.0710 -0.5292
  481MOL0     H64929   4.887   2.653   1.836  0.5225  0.1938 -1.9450
  481MOL0     H64930   4.804   2.782   1.756 -0.3727 -0.3729 -0.3976
  481MOL0     H64931   5.080   2.963   2.010  0.0124 -0.0891 -0.5692
  481MOL0     H64932   4.684   2.513   1.600 -0.2776  0.2544 -1.8168
  481MOL0     H64933   4.809   2.212   1.486  0.2142 -1.6104 -1.8249
  481MOL0     H64934   4.795   2.295   1.340  3.5354 -3.7576  1.1736
  481MOL0     H64935   4.856   2.375   1.486  0.1237  0.0295 -0.1433
  482MOL0     O64936   5.893   4.411   1.070  0.0162  0.0850  0.0375
  482MOL0     C64937   5.995   4.351   1.078 -0.4388 -1.4107  0.8123
  482MOL0     O64938   6.015   4.222   1.049  0.1316  0.1230 -0.0866
  482MOL0     C64939   5.907   4.145   1.021  0.6579 -0.6613 -0.0952
  482MOL0     C64940   5.895   4.082   0.903  0.1871  0.0505 -0.1088
  482MOL0     C64941   5.788   3.993   0.874 -0.8106  0.6861  0.2040
  482MOL0     C64942   5.685   3.976   0.967  0.2182 -0.6900  0.9473
  482MOL0     O64943   5.580   3.889   0.945  0.0791  0.3108  0.3773
  482MOL0     C64944   5.621   3.775   0.871  0.6172  0.2883 -0.3395
  482MOL0     C64945   5.511   3.676   0.850  0.6219  0.4222  0.5538
  482MOL0     C64946   5.553   3.543   0.772  0.4437 -0.4020 -0.4777
  482MOL0     C64947   5.433   3.445   0.778 -0.0640 -0.1528  0.1489
  482MOL0     C64948   5.447   3.324   0.687 -1.0429  0.3767 -0.8900
  482MOL0     C64949   5.345   3.222   0.732 -0.4498 -0.0267 -0.4090
  482MOL0     C64950   5.343   3.101   0.638 -0.3139  0.0747  0.3250
  482MOL0     C64951   5.232   3.136   0.526  0.2190 -0.1401 -1.0349
  482MOL0     N64952   5.229   3.026   0.429  0.0566  0.2825  0.6558
  482MOL0     C64953   5.118   2.944   0.426 -0.0103  0.4099  0.4584
  482MOL0     C64954   5.152   2.869   0.317  1.6264  0.7746  1.5670
  482MOL0     C64955   5.060   2.768   0.248  0.9789  0.4111 -0.7988
  482MOL0     C64956   5.014   2.643   0.327 -0.0951  0.1990 -0.6540
  482MOL0     C64957   5.120   2.527   0.324  1.0045 -0.2592 -0.4776
  482MOL0     C64958   5.258   2.572   0.374  0.5017 -0.5545 -0.3524
  482MOL0     O64959   5.350   2.461   0.367  0.0062  0.7297 -0.3514
  482MOL0     C64960   5.482   2.473   0.341  0.7279 -0.2489  1.0848
  482MOL0     C64961   5.556   2.589   0.340  0.1816 -0.2146  0.6945
  482MOL0     C64962   5.691   2.576   0.302  0.8913 -0.8443 -0.6610
  482MOL0     C64963   5.740   2.450   0.269 -0.7905 -0.4993 -0.1457
  482MOL0     C64964   5.885   2.447   0.241  0.5967  0.5892 -0.3364
  482MOL0     O64965   5.959   2.381   0.331 -0.1715 -1.1845  0.6880
  482MOL0     C64966   6.089   2.415   0.361  0.9049 -0.6541  0.1494
  482MOL0     C64967   6.109   2.549   0.407  0.0110 -0.1651  0.2387
  482MOL0     C64968   6.239   2.585   0.441  0.3912  0.0811 -0.7344
  482MOL0     C64969   6.348   2.494   0.440 -0.5767  0.3267 -0.3280
  482MOL0     O64970   6.470   2.531   0.481 -0.0434 -0.2336 -0.8212
  482MOL0     C64971   6.580   2.446   0.463 -0.0905 -0.2013 -0.9093
  482MOL0     C64972   6.712   2.515   0.489  0.0062 -0.1869  0.4496
  482MOL0     C64973   6.839   2.423   0.471  0.6906  0.5160 -0.4362
  482MOL0     C64974   6.867   2.345   0.600 -0.4346 -0.4032  0.2985
  482MOL0     C64975   6.791   2.220   0.636 -0.6467  0.1695 -0.7597
  482MOL0     C64976   6.813   2.111   0.530  0.1200 -0.6576 -0.7408
  482MOL0     C64977   6.748   1.980   0.579  0.6614 -0.1911  0.3388
  482MOL0     C64978   6.764   1.867   0.476 -0.4776 -0.3882  0.5005
  482MOL0    Cl64979   6.627   1.870   0.360 -0.3365 -0.5340 -0.1787
  482MOL0     C64980   6.316   2.360   0.405 -0.6725  0.0109  0.5868
  482MOL0     C64981   6.195   2.325   0.354  0.3779  0.8715  0.5862
  482MOL0     O64982   5.926   2.516   0.151  0.8897 -0.2912  0.0023
  482MOL0     C64983   5.663   2.340   0.268  1.2510 -0.0578 -0.3262
  482MOL0     C64984   5.526   2.347   0.306  0.0337  0.1421  0.4925
  482MOL0     N64985   5.278   2.903   0.271  0.2286 -0.0687  0.0335
  482MOL0     N64986   5.323   3.004   0.337  1.7364  1.2583  0.3241
  482MOL0     C64987   5.690   4.051   1.082 -0.5366  0.9185 -0.6363
  482MOL0     C64988   5.799   4.124   1.113 -1.5737  0.6596  0.2339
  482MOL0     C64989   6.110   4.441   1.114  0.5709  0.8520  0.2213
  482MOL0     C64990   6.093   4.578   1.090  0.1807 -0.9130 -1.0527
  482MOL0     C64991   6.196   4.669   1.125  0.3106  0.1856  0.2496
  482MOL0     C64992   6.320   4.626   1.175  1.5092 -0.4284  0.5034
  482MOL0     O64993   6.423   4.711   1.192 -0.4695  0.7827 -0.5529
  482MOL0     C64994   6.465   4.733   1.330  0.7731  1.1363 -0.3927
  482MOL0     C64995   6.456   4.890   1.353 -0.6779 -0.4145  0.3158
  482MOL0     C64996   6.335   4.970   1.292 -0.4727  0.1105  0.0700
  482MOL0     C64997   6.207   4.939   1.378 -0.0877  0.1057  0.2771
  482MOL0     C64998   6.228   4.987   1.517 -0.4753  0.0556  2.0020
  482MOL0     C64999   6.248   5.013   1.636 -0.5855 -0.4207  0.3681
  482MOL0     C65000   6.333   4.484   1.181  0.1042  0.1553  0.2026
  482MOL0     C65001   6.230   4.389   1.160  0.8260  0.5179  0.1336
  482MOL0     C65002   6.264   4.248   1.228 -0.6983  1.0941  0.0933
  482MOL0     H65003   5.972   4.081   0.827  2.7364 -3.7712  2.2198
  482MOL0     H65004   5.800   3.947   0.776 -2.4291  1.1276 -0.2378
  482MOL0     H65005   5.640   3.806   0.768  1.3407  2.2141  0.3229
  482MOL0     H65006   5.704   3.723   0.919  1.1066  0.6317 -0.8033
  482MOL0     H65007   5.430   3.727   0.797 -1.6961 -0.1980  3.2745
  482MOL0     H65008   5.467   3.657   0.948 -4.5513 -0.6578 -1.6501
  482MOL0     H65009   5.645   3.494   0.808 -0.7293 -1.9796  0.5014
  482MOL0     H65010   5.564   3.579   0.669  3.7117  1.4978  0.3771
  482MOL0     H65011   5.433   3.407   0.880  1.3735 -0.5822  0.0194
  482MOL0     H65012   5.339   3.492   0.750 -1.3356 -2.7964 -0.3550
  482MOL0     H65013   5.427   3.355   0.584 -1.6493 -4.5666 -2.5314
  482MOL0     H65014   5.542   3.269   0.689 -2.3862 -2.0484 -0.6236
  482MOL0     H65015   5.361   3.200   0.838 -1.1706  2.1220  0.1936
  482MOL0     H65016   5.242   3.259   0.736 -0.6002 -0.5372  1.9025
  482MOL0     H65017   5.313   3.016   0.699  1.1618  0.1913  1.2638
  482MOL0     H65018   5.439   3.078   0.592 -1.3845  0.3359 -2.2257
  482MOL0     H65019   5.131   3.152   0.565  0.5999  1.4313 -0.6196
  482MOL0     H65020   5.259   3.227   0.472 -2.2696  0.6413 -1.0884
  482MOL0     H65021   5.024   2.942   0.481 -1.1253  0.7925 -1.3269
  482MOL0     H65022   4.973   2.825   0.216  1.0245  0.9388 -0.0138
  482MOL0     H65023   5.119   2.722   0.168  3.1678  0.9824  0.3977
  482MOL0     H65024   5.005   2.670   0.432  1.0433  3.4064 -1.2799
  482MOL0     H65025   4.921   2.598   0.288 -0.0785  0.8204 -1.4354
  482MOL0     H65026   5.123   2.478   0.226  1.5817  0.1967 -0.6943
  482MOL0     H65027   5.087   2.433   0.368  0.7753 -0.1501 -0.4132
  482MOL0     H65028   5.257   2.620   0.472  2.8051  0.8548 -0.9285
  482MOL0     H65029   5.300   2.632   0.292 -0.8804 -1.5366 -1.8478
  482MOL0     H65030   5.518   2.686   0.370 -3.0963 -1.5409  1.2197
  482MOL0     H65031   5.761   2.657   0.320  1.1878 -1.1814 -0.2850
  482MOL0     H65032   6.026   2.617   0.421 -0.8940 -1.2901  0.5132
  482MOL0     H65033   6.248   2.685   0.483 -1.1609  1.5904 -3.6388
  482MOL0     H65034   6.569   2.374   0.545  0.9711 -1.2401 -1.6350
  482MOL0     H65035   6.571   2.392   0.369 -3.0377  2.0264 -2.0662
  482MOL0     H65036   6.708   2.587   0.407 -1.9905 -1.2068 -0.4207
  482MOL0     H65037   6.716   2.572   0.582  7.2277 -0.9127  1.1437
  482MOL0     H65038   6.823   2.350   0.391 -3.6083  0.4205  0.2739
  482MOL0     H65039   6.927   2.481   0.440  2.2491 -1.7057 -0.4390
  482MOL0     H65040   6.879   2.416   0.683 -1.3665  2.3462 -1.7580
  482MOL0     H65041   6.967   2.301   0.594  1.0446  2.6426  0.7956
  482MOL0     H65042   6.684   2.242   0.637 -1.0596 -1.5294 -2.9349
  482MOL0     H65043   6.813   2.188   0.739  0.1807  3.2930  0.1488
  482MOL0     H65044   6.757   2.147   0.443  1.8903  1.5169 -1.0630
  482MOL0     H65045   6.915   2.104   0.491 -0.2332 -0.9332 -1.6584
  482MOL0     H65046   6.647   1.989   0.622  1.2894 -1.2357  2.1592
  482MOL0     H65047   6.796   1.950   0.673  0.6057 -2.7231 -0.3640
  482MOL0     H65048   6.858   1.869   0.419 -0.4728  0.4379  0.5251
  482MOL0     H65049   6.766   1.768   0.522  2.4723 -0.9896 -0.6769
  482MOL0     H65050   6.386   2.277   0.406  0.5730  0.9230 -1.9353
  482MOL0     H65051   6.174   2.221   0.328 -1.5109  0.0883  4.5631
  482MOL0     H65052   5.704   2.246   0.233 -0.6539 -0.4846 -1.5794
  482MOL0     H65053   5.469   2.255   0.298 -0.5998  0.5025  0.8934
  482MOL0     H65054   5.610   4.056   1.156  0.7287  2.1955  0.7068
  482MOL0     H65055   5.802   4.183   1.205 -1.2151  0.2994  0.4572
  482MOL0     H65056   6.002   4.624   1.053  1.0621  2.2978  0.4248
  482MOL0     H65057   6.182   4.773   1.098  0.9068  0.1175 -0.3380
  482MOL0     H65058   6.564   4.691   1.351 -0.0406 -1.6021 -1.6410
  482MOL0     H65059   6.401   4.675   1.398  1.6707 -1.1886 -1.4197
  482MOL0     H65060   6.548   4.937   1.319  0.6345 -0.2822  3.6657
  482MOL0     H65061   6.468   4.897   1.462 -0.3636 -5.3857  0.8070
  482MOL0     H65062   6.328   4.951   1.184  1.8588 -0.7926  0.0188
  482MOL0     H65063   6.354   5.077   1.303  2.7592  0.0557 -2.9774
  482MOL0     H65064   6.133   5.007   1.336 -0.7852 -1.2595 -0.7629
  482MOL0     H65065   6.160   4.841   1.377 -2.9736  1.3499  1.7177
  482MOL0     H65066   6.251   5.059   1.733 -0.2432  1.2539 -0.3986
  482MOL0     H65067   6.430   4.451   1.218  1.6626  0.5542 -3.1497
  482MOL0     H65068   6.185   4.173   1.212  0.2937 -0.1384  0.7581
  482MOL0     H65069   6.353   4.216   1.172 -1.2576  2.0660 -1.4111
  482MOL0     H65070   6.276   4.243   1.336  1.0823  0.1416 -0.1013
  483MOL0     O65071   6.132   6.068   7.795 -0.3097 -0.3510  0.2399
  483MOL0     C65072   6.075   6.096   7.689 -0.5533 -0.4846 -0.1290
  483MOL0     O65073   6.043   6.227   7.648 -0.3448 -0.6782 -0.1378
  483MOL0     C65074   6.104   6.328   7.712  0.2781  1.1665  1.1578
  483MOL0     C65075   6.244   6.332   7.740  1.4766  1.5456  0.4152
  483MOL0     C65076   6.307   6.438   7.799 -0.4811  0.1856  0.9883
  483MOL0     C65077   6.228   6.548   7.846 -0.0557  0.1529 -0.1102
  483MOL0     O65078   6.283   6.652   7.911 -0.0512 -0.7267  0.2336
  483MOL0     C65079   6.418   6.685   7.886 -0.0808  0.1862 -0.7760
  483MOL0     C65080   6.459   6.812   7.957  0.3807  0.4945  0.0001
  483MOL0     C65081   6.607   6.825   7.987  0.7207  0.7272 -0.5360
  483MOL0     C65082   6.669   6.713   8.074 -0.2271 -0.1275 -0.0080
  483MOL0     C65083   6.800   6.752   8.126  0.0065 -0.6703 -0.7326
  483MOL0     C65084   6.795   6.841   8.251 -0.8692 -0.1433  0.3522
  483MOL0     C65085   6.934   6.826   8.328  0.9367  0.2660  0.0376
  483MOL0     C65086   7.067   6.829   8.248  0.2855 -0.1676  0.0390
  483MOL0     N65087   7.117   6.965   8.213 -0.7061 -0.7606  1.3977
  483MOL0     C65088   7.242   7.024   8.223  0.7546  0.9815 -0.4214
  483MOL0     C65089   7.234   7.143   8.172 -0.2230 -0.1961  0.6659
  483MOL0     C65090   7.366   7.222   8.171  0.6130 -0.4597 -0.4895
  483MOL0     C65091   7.400   7.275   8.026 -0.6393  0.3016 -0.8369
  483MOL0     C65092   7.451   7.167   7.923  0.4350 -0.6633 -0.8957
  483MOL0     C65093   7.452   7.216   7.779 -0.7235 -0.4082  0.2330
  483MOL0     O65094   7.531   7.337   7.767  0.4260 -0.4656  0.0715
  483MOL0     C65095   7.513   7.404   7.653 -0.4642  0.4283  0.6739
  483MOL0     C65096   7.408   7.385   7.562  0.0437  0.0733  0.2957
  483MOL0     C65097   7.409   7.455   7.442  0.7130 -0.1442 -0.4382
  483MOL0     C65098   7.505   7.554   7.405 -1.4611 -0.8941  0.5841
  483MOL0     C65099   7.517   7.605   7.260  0.1392 -0.1562  0.8079
  483MOL0     O65100   7.634   7.654   7.211  0.5025 -0.1183 -1.2226
  483MOL0     C65101   7.674   7.642   7.085 -0.8336  1.0012 -0.5484
  483MOL0     C65102   7.754   7.737   7.019  0.1956 -0.1743  0.4074
  483MOL0     C65103   7.784   7.728   6.890  0.4421  0.6879  0.2505
  483MOL0     C65104   7.736   7.619   6.815 -1.0927  0.1786  0.2810
  483MOL0     O65105   7.756   7.613   6.684 -0.2550  0.7969  0.8711
  483MOL0     C65106   7.891   7.582   6.644 -0.1850 -0.4570 -0.0145
  483MOL0     C65107   7.880   7.466   6.544 -0.7403 -0.3718  0.2704
  483MOL0     C65108   8.015   7.427   6.476 -0.5475  0.0042 -0.8442
  483MOL0     C65109   8.015   7.281   6.422  0.1930 -0.4124 -0.3132
  483MOL0     C65110   8.134   7.252   6.339  0.7965  0.4544 -0.9597
  483MOL0     C65111   8.255   7.195   6.421 -0.9278  0.4870 -0.2978
  483MOL0     C65112   8.359   7.132   6.316  0.1351 -0.7744 -0.2757
  483MOL0     C65113   8.310   7.007   6.241  0.1786 -0.0664 -0.3908
  483MOL0    Cl65114   8.338   6.873   6.349  0.2010  0.4585 -0.0814
  483MOL0     C65115   7.672   7.516   6.877 -0.1047 -0.2944 -0.0797
  483MOL0     C65116   7.641   7.519   7.011 -0.6387 -0.3513  0.2567
  483MOL0     O65117   7.418   7.584   7.196  0.4569 -0.2822  0.3296
  483MOL0     C65118   7.607   7.580   7.499  0.3576 -0.1386  0.0975
  483MOL0     C65119   7.602   7.500   7.619 -1.5587  0.6195 -0.8930
  483MOL0     N65120   7.111   7.163   8.117  0.1767  0.9439  0.2219
  483MOL0     N65121   7.043   7.051   8.133  0.2848  1.4037 -0.0436
  483MOL0     C65122   6.087   6.539   7.828 -0.3723 -0.6669  0.1289
  483MOL0     C65123   6.026   6.433   7.757 -0.3963  0.7080  0.3819
  483MOL0     C65124   6.027   5.979   7.600  1.0217  0.5051 -0.3400
  483MOL0     C65125   6.058   5.847   7.655 -0.3041 -0.8298 -0.2913
  483MOL0     C65126   6.012   5.724   7.598 -0.4473 -1.2743 -0.1023
  483MOL0     C65127   5.935   5.732   7.481  0.2535  0.2708  0.4248
  483MOL0     O65128   5.885   5.620   7.412  0.6575 -0.2503 -0.6749
  483MOL0     C65129   5.972   5.509   7.407 -0.0482  0.1140 -0.3021
  483MOL0     C65130   5.907   5.400   7.318 -1.1700 -0.1468  1.0167
  483MOL0     C65131   5.908   5.437   7.168 -0.1447 -0.5527  0.5983
  483MOL0     C65132   6.039   5.395   7.106  0.4158  0.4230  0.9420
  483MOL0     C65133   6.020   5.260   7.051 -1.0169 -0.1591  0.7683
  483MOL0     C65134   6.012   5.146   7.004  0.3086 -0.0506  0.9959
  483MOL0     C65135   5.905   5.859   7.425  0.0744  0.3469 -0.3377
  483MOL0     C65136   5.948   5.983   7.481  0.7642 -0.4398  0.8581
  483MOL0     C65137   5.888   6.106   7.408 -0.9463  0.3510 -0.5478
  483MOL0     H65138   6.294   6.247   7.696  0.7959  1.1237  0.4426
  483MOL0     H65139   6.414   6.439   7.820 -0.4737  0.1013  0.9535
  483MOL0     H65140   6.497   6.615   7.913  1.8830  2.1604 -1.0837
  483MOL0     H65141   6.435   6.703   7.779  1.9334  2.6365 -0.1496
  483MOL0     H65142   6.405   6.797   8.051  0.2756 -0.9299 -0.2612
  483MOL0     H65143   6.427   6.906   7.911  1.2503  0.4086 -0.8211
  483MOL0     H65144   6.609   6.918   8.044  1.6196 -0.7120  1.9443
  483MOL0     H65145   6.668   6.820   7.896  0.9531 -2.0405 -0.3119
  483MOL0     H65146   6.601   6.693   8.158 -1.3662 -3.2003 -1.5142
  483MOL0     H65147   6.684   6.619   8.020  4.5694  2.4699 -4.0343
  483MOL0     H65148   6.840   6.653   8.152 -3.5275 -1.8842  0.6713
  483MOL0     H65149   6.861   6.801   8.050 -1.4791 -0.3496 -1.7716
  483MOL0     H65150   6.785   6.947   8.228  0.6468  1.0790  4.3446
  483MOL0     H65151   6.710   6.827   8.319 -0.0177 -1.7126  1.1504
  483MOL0     H65152   6.942   6.731   8.381  0.2971  0.8010  1.1122
  483MOL0     H65153   6.926   6.904   8.404 -2.1179 -0.1698  0.2610
  483MOL0     H65154   7.142   6.794   8.320 -0.6117 -3.5442 -0.4998
  483MOL0     H65155   7.069   6.766   8.159  0.4450  0.5023 -0.4331
  483MOL0     H65156   7.316   6.987   8.294 -0.0955 -2.3304 -1.1188
  483MOL0     H65157   7.369   7.302   8.246 -0.6366 -1.4030  0.6365
  483MOL0     H65158   7.441   7.152   8.208  1.8830  0.8723 -0.4767
  483MOL0     H65159   7.313   7.323   7.981 -1.4473  0.0588  0.4163
  483MOL0     H65160   7.474   7.356   8.033 -0.0809 -0.2889  0.5001
  483MOL0     H65161   7.373   7.091   7.928  0.7252 -0.9520 -0.7426
  483MOL0     H65162   7.545   7.117   7.946 -0.0226 -0.9176  0.5074
  483MOL0     H65163   7.350   7.232   7.745 -0.3014  2.4692  0.1418
  483MOL0     H65164   7.490   7.132   7.720  0.0228 -0.5742  0.9329
  483MOL0     H65165   7.326   7.315   7.577  0.2713 -0.9817 -2.6734
  483MOL0     H65166   7.332   7.408   7.382 -0.5577 -1.6563  2.1738
  483MOL0     H65167   7.788   7.815   7.087  1.6241  2.3854 -2.9507
  483MOL0     H65168   7.841   7.807   6.843 -1.1290  0.4224 -2.2622
  483MOL0     H65169   7.937   7.669   6.596 -0.1386  0.3685  1.4656
  483MOL0     H65170   7.955   7.560   6.731  0.4319  0.9037 -0.1012
  483MOL0     H65171   7.827   7.387   6.597 -0.0394  0.4977  2.3794
  483MOL0     H65172   7.808   7.499   6.468 -3.6033  0.0928  3.0013
  483MOL0     H65173   8.022   7.485   6.384 -0.5143  0.0180 -0.8331
  483MOL0     H65174   8.096   7.436   6.550 -0.6409  0.5172 -0.8012
  483MOL0     H65175   7.929   7.271   6.355 -1.4923 -0.2476  1.7220
  483MOL0     H65176   8.002   7.208   6.503 -0.8820 -1.5121 -1.4233
  483MOL0     H65177   8.160   7.335   6.273 -3.3464  1.8082 -1.1528
  483MOL0     H65178   8.094   7.171   6.279 -1.6671 -0.3420  1.5720
  483MOL0     H65179   8.300   7.264   6.493 -1.0377 -2.7793  3.2546
  483MOL0     H65180   8.224   7.118   6.493  4.1664 -2.5666 -0.8422
  483MOL0     H65181   8.452   7.106   6.367  1.7812 -1.4578 -3.3901
  483MOL0     H65182   8.379   7.219   6.252  0.8886  0.2003  1.2323
  483MOL0     H65183   8.211   7.010   6.193 -0.4875 -2.6717  0.6287
  483MOL0     H65184   8.387   6.986   6.166  0.8577 -1.2173  0.6016
  483MOL0     H65185   7.662   7.421   6.826  0.6397 -1.6810  2.1931
  483MOL0     H65186   7.594   7.437   7.065 -1.6109  0.7568  1.1314
  483MOL0     H65187   7.691   7.647   7.485 -0.2189  0.9748  1.6681
  483MOL0     H65188   7.674   7.526   7.696 -0.1055 -1.0290 -1.6153
  483MOL0     H65189   6.028   6.626   7.853  0.1262 -0.5382  0.9067
  483MOL0     H65190   5.923   6.451   7.728  0.0896  0.5608 -1.5865
  483MOL0     H65191   6.118   5.841   7.745  1.5358  1.3310 -1.2724
  483MOL0     H65192   6.046   5.628   7.637  2.6066  0.4369  1.8745
  483MOL0     H65193   5.981   5.457   7.503 -1.1843 -2.7589 -1.6368
  483MOL0     H65194   6.073   5.537   7.374  0.1278 -0.5233 -0.3210
  483MOL0     H65195   5.804   5.386   7.353 -1.3652  1.0065  0.9299
  483MOL0     H65196   5.951   5.300   7.325 -1.6267 -0.5433 -0.9990
  483MOL0     H65197   5.911   5.544   7.145  1.0929 -0.6039  0.4346
  483MOL0     H65198   5.817   5.397   7.122 -1.2625  0.9508  1.3744
  483MOL0     H65199   6.076   5.474   7.040  0.7208  2.2522  3.1843
  483MOL0     H65200   6.110   5.391   7.189 -0.7980  1.2337  2.0495
  483MOL0     H65201   6.011   5.054   6.950  1.6970  1.6650 -2.2093
  483MOL0     H65202   5.844   5.860   7.336 -0.1557 -0.8604 -0.2140
  483MOL0     H65203   5.809   6.082   7.336 -0.0013  1.8894 -2.1681
  483MOL0     H65204   5.859   6.186   7.476  0.5629 -0.7034  1.4298
  483MOL0     H65205   5.963   6.140   7.337 -1.8743 -1.8576 -2.7488
  484MOL0     O65206   1.284   6.766  10.139 -0.1425  0.1393  0.0702
  484MOL0     C65207   1.190   6.787  10.063  0.0384  0.2112 -0.4482
  484MOL0     O65208   1.084   6.699  10.041  0.5425  0.1133 -0.8313
  484MOL0     C65209   1.063   6.601  10.137  0.1091  1.0086  0.0854
  484MOL0     C65210   1.049   6.463  10.097 -1.0735  0.3015 -0.3013
  484MOL0     C65211   1.054   6.358  10.183 -0.7602  0.7436 -0.5310
  484MOL0     C65212   1.067   6.379  10.317  0.5425  0.8920 -0.7443
  484MOL0     O65213   1.070   6.266  10.396 -0.1835 -0.6279  0.5232
  484MOL0     C65214   1.180   6.180  10.371  0.2600 -0.4168 -0.0518
  484MOL0     C65215   1.141   6.037  10.313 -0.3620 -0.0839 -0.9054
  484MOL0     C65216   1.238   5.922  10.342  0.5824 -0.3967  0.1045
  484MOL0     C65217   1.199   5.792  10.268 -0.3310 -0.5976  0.2252
  484MOL0     C65218   1.305   5.681  10.296  0.1669  0.2759  0.9811
  484MOL0     C65219   1.305   5.577  10.185 -0.0847  0.8154 -0.7376
  484MOL0     C65220   1.386   5.455  10.223 -0.0430 -0.6340  0.4493
  484MOL0     C65221   1.537   5.481  10.262 -0.4709 -0.6923 -0.5541
  484MOL0     N65222   1.609   5.362  10.221 -1.4111  0.8503 -0.8202
  484MOL0     C65223   1.590   5.249  10.297 -1.1515  1.2264 -0.3739
  484MOL0     C65224   1.685   5.170  10.246  0.1139  0.0563  0.0385
  484MOL0     C65225   1.708   5.019  10.269 -0.8060 -0.3688 -0.2651
  484MOL0     C65226   1.573   4.945  10.273 -0.3790 -0.8606  0.3339
  484MOL0     C65227   1.583   4.792  10.296  0.8152 -0.5328 -0.7234
  484MOL0     C65228   1.449   4.732  10.282  0.0211  0.3652  0.1510
  484MOL0     O65229   1.457   4.591  10.252 -1.0155  0.9179 -0.4264
  484MOL0     C65230   1.343   4.519  10.230 -0.5976  0.1193 -0.3341
  484MOL0     C65231   1.224   4.558  10.281 -0.0027  0.6632  0.9344
  484MOL0     C65232   1.107   4.498  10.238  0.2873 -0.3752  0.9941
  484MOL0     C65233   1.113   4.388  10.152 -0.6720  0.0532  0.1954
  484MOL0     C65234   0.991   4.318  10.111 -0.1440 -0.1653  0.4427
  484MOL0     O65235   1.004   4.215  10.020 -0.6726 -0.4575 -1.9376
  484MOL0     C65236   0.899   4.180   9.939  1.0034  0.2604  0.4818
  484MOL0     C65237   0.863   4.050   9.909  0.3073 -0.0710  0.4525
  484MOL0     C65238   0.766   4.019   9.813  0.3607  0.0552 -0.3273
  484MOL0     C65239   0.697   4.123   9.744 -0.2571 -0.4859 -0.2654
  484MOL0     O65240   0.606   4.079   9.646 -0.1009 -0.2483  0.5418
  484MOL0     C65241   0.498   4.173   9.605 -0.1989  0.6720 -0.7932
  484MOL0     C65242   0.455   4.122   9.462  0.0252  0.2100  0.4850
  484MOL0     C65243   0.410   3.973   9.451 -1.3887  0.4447 -0.9342
  484MOL0     C65244   0.519   3.886   9.379  0.3684 -0.3752  0.3031
  484MOL0     C65245   0.460   3.751   9.335 -0.1844  0.3487 -0.1593
  484MOL0     C65246   0.559   3.652   9.278 -0.3296 -0.0900 -0.1432
  484MOL0     C65247   0.502   3.523   9.212  0.2247  0.5033  0.4542
  484MOL0     C65248   0.600   3.421   9.151  0.1648 -0.2332  0.0299
  484MOL0    Cl65249   0.755   3.413   9.244 -0.0806 -0.2011 -0.1772
  484MOL0     C65250   0.746   4.254   9.760  0.2509  0.3653  0.4776
  484MOL0     C65251   0.841   4.285   9.855 -0.4028 -0.5031 -0.0132
  484MOL0     O65252   0.880   4.362  10.149  0.0815  0.1272 -0.5995
  484MOL0     C65253   1.235   4.347  10.097 -0.6797  0.6476  0.2844
  484MOL0     C65254   1.350   4.408  10.146 -0.6002 -0.1672  0.0180
  484MOL0     N65255   1.766   5.232  10.166 -0.8465  1.5635 -0.3391
  484MOL0     N65256   1.739   5.353  10.157 -0.1596  0.0773  0.7039
  484MOL0     C65257   1.067   6.507  10.360  0.4763  0.3065 -0.4217
  484MOL0     C65258   1.071   6.616  10.275  0.1498 -0.1136 -0.3474
  484MOL0     C65259   1.179   6.913   9.970 -0.1046  0.7884  0.3635
  484MOL0     C65260   1.078   6.921   9.873 -0.6923 -0.1363 -0.4654
  484MOL0     C65261   1.052   7.024   9.792 -0.9377  0.6232  0.6620
  484MOL0     C65262   1.154   7.121   9.779  0.6961 -0.6476 -0.5122
  484MOL0     O65263   1.147   7.227   9.696 -0.3452  0.5007  0.5262
  484MOL0     C65264   1.060   7.217   9.581  0.2104 -0.2518 -0.0283
  484MOL0     C65265   1.116   7.112   9.476 -0.0708 -0.2541  0.3877
  484MOL0     C65266   1.021   7.101   9.352 -0.8860  0.5388  0.2997
  484MOL0     C65267   0.903   7.009   9.378  0.1677  0.2134  0.8097
  484MOL0     C65268   0.810   7.024   9.265 -0.5435  1.1642 -0.4757
  484MOL0     C65269   0.732   7.052   9.181 -0.3891 -0.2898  0.0535
  484MOL0     C65270   1.258   7.122   9.874 -1.1436  0.5086 -0.4321
  484MOL0     C65271   1.272   7.013   9.963 -0.4644 -0.0090  0.3814
  484MOL0     C65272   1.373   7.038  10.075 -0.0788 -0.5337  0.0964
  484MOL0     H65273   1.041   6.436   9.992  0.0051  1.6921 -0.7689
  484MOL0     H65274   1.042   6.257  10.145  0.8698  0.4922 -0.4333
  484MOL0     H65275   1.251   6.231  10.305  0.5222 -2.9188 -1.8273
  484MOL0     H65276   1.236   6.170  10.464  0.0199 -2.8216 -0.1084
  484MOL0     H65277   1.132   6.037  10.204  3.1250  0.1677 -1.2898
  484MOL0     H65278   1.039   6.016  10.347 -0.6446  1.6480 -0.6108
  484MOL0     H65279   1.234   5.913  10.451 -5.4470 -1.3308  0.1515
  484MOL0     H65280   1.332   5.960  10.301 -1.9690  2.2183 -4.1167
  484MOL0     H65281   1.099   5.752  10.290 -0.5538 -0.3642 -0.3362
  484MOL0     H65282   1.197   5.811  10.160  0.7357  2.3402  0.6387
  484MOL0     H65283   1.407   5.718  10.310  0.6736 -0.7637  0.1515
  484MOL0     H65284   1.263   5.635  10.386  1.4698 -1.8329  0.5712
  484MOL0     H65285   1.203   5.540  10.178 -0.7344  2.0366  1.4547
  484MOL0     H65286   1.330   5.623  10.089 -0.3859 -1.5421 -2.0218
  484MOL0     H65287   1.371   5.406  10.126 -2.8608 -0.2331  0.5949
  484MOL0     H65288   1.332   5.401  10.301 -2.2634  1.3645  0.4086
  484MOL0     H65289   1.578   5.575  10.225  0.8971 -0.7859  0.6260
  484MOL0     H65290   1.530   5.493  10.370 -2.2854  2.4399 -0.9006
  484MOL0     H65291   1.504   5.234  10.362  0.3943  0.2256  1.5568
  484MOL0     H65292   1.762   4.970  10.187  1.2728  0.1099  0.7535
  484MOL0     H65293   1.751   5.006  10.368  1.6219 -1.3824 -1.3488
  484MOL0     H65294   1.516   4.984  10.357  1.9216  0.0730  1.5618
  484MOL0     H65295   1.528   4.965  10.176  1.3668  0.1239 -0.3234
  484MOL0     H65296   1.619   4.770  10.397  0.0157 -0.7378 -0.4823
  484MOL0     H65297   1.655   4.760  10.219  2.1834  0.2177  0.1937
  484MOL0     H65298   1.380   4.773  10.207 -2.3022 -0.0291  1.9470
  484MOL0     H65299   1.395   4.745  10.376 -1.8375  1.8188 -1.0310
  484MOL0     H65300   1.209   4.628  10.363  4.2487 -0.0183  2.5367
  484MOL0     H65301   1.011   4.534  10.274 -1.2923  0.6084 -3.5859
  484MOL0     H65302   0.912   3.963   9.952  0.2748  1.6692  4.4601
  484MOL0     H65303   0.743   3.919   9.775 -1.2129  0.2052  0.1430
  484MOL0     H65304   0.419   4.170   9.680  0.3461  0.9818 -0.1984
  484MOL0     H65305   0.540   4.272   9.585  1.1734  0.6465  1.5377
  484MOL0     H65306   0.374   4.188   9.430 -0.5513  0.5738  2.5309
  484MOL0     H65307   0.534   4.145   9.390 -3.3191  1.5333 -3.0586
  484MOL0     H65308   0.397   3.930   9.550 -2.0855 -1.3967 -1.7747
  484MOL0     H65309   0.317   3.953   9.398 -1.0621 -1.4519 -0.8496
  484MOL0     H65310   0.612   3.885   9.435  1.6488  2.1250 -1.5521
  484MOL0     H65311   0.538   3.950   9.292 -0.9711 -1.9792 -1.2427
  484MOL0     H65312   0.380   3.765   9.260 -0.5770 -2.6775 -0.4247
  484MOL0     H65313   0.420   3.698   9.422 -1.8623  0.1461 -0.9980
  484MOL0     H65314   0.609   3.709   9.199 -3.1300  1.6139 -0.8085
  484MOL0     H65315   0.634   3.627   9.354  4.6375  2.3250 -3.6578
  484MOL0     H65316   0.422   3.534   9.138  2.6747  2.0524 -2.1180
  484MOL0     H65317   0.459   3.469   9.297 -0.2936  0.9000  0.4493
  484MOL0     H65318   0.567   3.317   9.160 -1.6842  0.0600 -2.4570
  484MOL0     H65319   0.619   3.459   9.051 -0.7179 -2.8280 -1.2198
  484MOL0     H65320   0.700   4.333   9.703  0.6111  0.4214  0.2605
  484MOL0     H65321   0.878   4.385   9.874  1.3014 -1.2808  1.0268
  484MOL0     H65322   1.251   4.291  10.005  4.4636  2.5245 -0.2809
  484MOL0     H65323   1.446   4.381  10.103  1.3634  1.1699  3.1900
  484MOL0     H65324   1.049   6.543  10.461 -1.3786 -0.3747 -0.4685
  484MOL0     H65325   1.070   6.713  10.325  0.5342 -0.0330 -0.4879
  484MOL0     H65326   1.007   6.839   9.875  0.3357 -1.1043  3.1075
  484MOL0     H65327   0.961   7.024   9.732  0.2837 -0.6726 -1.3004
  484MOL0     H65328   1.078   7.317   9.539  3.4106  0.3113  2.2287
  484MOL0     H65329   0.956   7.208   9.614 -0.9077  1.1475 -2.8721
  484MOL0     H65330   1.136   7.012   9.516  1.2837 -0.1880 -0.0647
  484MOL0     H65331   1.214   7.143   9.438 -1.2984  1.7018 -1.4067
  484MOL0     H65332   1.085   7.066   9.271  1.4067  2.1853  1.2836
  484MOL0     H65333   0.999   7.204   9.323  0.2555  0.5387 -0.6574
  484MOL0     H65334   0.936   6.908   9.404  3.3206  1.1740  1.0154
  484MOL0     H65335   0.845   7.044   9.463 -0.8771  0.9491 -0.1685
  484MOL0     H65336   0.672   7.072   9.094 -1.0963 -2.7875 -0.1127
  484MOL0     H65337   1.324   7.206   9.888  1.3779 -1.2065 -1.2684
  484MOL0     H65338   1.452   6.963  10.070 -0.1322 -0.5142 -1.6950
  484MOL0     H65339   1.420   7.135  10.057 -0.1162 -1.0106 -3.1525
  484MOL0     H65340   1.326   7.035  10.174 -2.7926  2.2685 -0.9255
  485MOL0     O65341  10.957   8.556   8.316 -0.2688 -0.6473 -0.6831
  485MOL0     C65342  10.951   8.554   8.434 -0.3521 -0.4713  0.5342
  485MOL0     O65343  10.928   8.654   8.516  0.2058 -0.0543 -0.1017
  485MOL0     C65344  10.917   8.784   8.470 -0.4322 -0.3515 -0.6471
  485MOL0     C65345  10.956   8.887   8.558  0.0243  0.0889 -0.3518
  485MOL0     C65346  10.947   9.022   8.530  0.1307  1.9090  0.0460
  485MOL0     C65347  10.879   9.061   8.412  0.3019 -0.3782  0.1071
  485MOL0     O65348  10.847   9.193   8.373  0.0034 -0.3120 -0.7230
  485MOL0     C65349  10.886   9.299   8.452 -0.1547  0.0034  0.5226
  485MOL0     C65350  10.827   9.444   8.397 -0.1067  0.4868 -1.4540
  485MOL0     C65351  10.871   9.566   8.478  0.3332 -0.6493  0.7671
  485MOL0     C65352  10.814   9.706   8.442  0.2439  0.3981  0.3125
  485MOL0     C65353  10.862   9.823   8.534  0.5116 -0.6057 -0.1532
  485MOL0     C65354  10.838   9.968   8.481  0.2121  0.8637 -0.6501
  485MOL0     C65355  10.920  10.017   8.362 -0.6823 -0.2288  0.1814
  485MOL0     C65356  11.080  10.001   8.375  0.3714 -0.0298  0.5995
  485MOL0     N65357  11.133   9.869   8.360 -0.0164  0.7142 -0.0842
  485MOL0     C65358  11.099   9.785   8.254  0.5142  0.2639 -1.0745
  485MOL0     C65359  11.174   9.677   8.281  0.5847  0.6258 -1.1047
  485MOL0     C65360  11.179   9.565   8.183  0.3718  0.0738 -0.8496
  485MOL0     C65361  11.189   9.429   8.260 -0.1153 -0.1519 -0.0593
  485MOL0     C65362  11.158   9.322   8.159 -0.0887 -0.3127  0.3454
  485MOL0     C65363  11.165   9.177   8.216 -1.1160  0.7376 -0.5148
  485MOL0     O65364  11.301   9.139   8.248 -0.0974 -0.0985  0.4237
  485MOL0     C65365  11.329   8.998   8.241  0.9958  0.0679  0.1704
  485MOL0     C65366  11.457   8.954   8.234 -0.4071  0.5262 -0.1126
  485MOL0     C65367  11.487   8.820   8.254  0.5329  0.3088 -0.2467
  485MOL0     C65368  11.383   8.720   8.247  0.0586  0.3298 -0.4033
  485MOL0     C65369  11.418   8.576   8.232 -0.1558 -1.3219 -0.5771
  485MOL0     O65370  11.317   8.490   8.211 -0.4836 -0.0915  0.4980
  485MOL0     C65371  11.349   8.355   8.185 -0.0687 -0.3043 -0.0158
  485MOL0     C65372  11.437   8.304   8.085 -0.4090 -0.4997 -1.0011
  485MOL0     C65373  11.464   8.167   8.077  0.7608 -0.4671  0.5423
  485MOL0     C65374  11.398   8.080   8.161  0.9812  0.8897  0.4464
  485MOL0     O65375  11.418   7.946   8.147 -0.3572  0.0534  0.2143
  485MOL0     C65376  11.507   7.883   8.051 -0.3865  0.3267  0.5179
  485MOL0     C65377  11.461   7.736   8.057  0.7046 -0.1139  0.5416
  485MOL0     C65378  11.546   7.655   7.968 -0.1817  0.4255 -0.1786
  485MOL0     C65379  11.512   7.498   7.962  0.7814 -0.0135  0.7929
  485MOL0     C65380  11.489   7.445   7.824 -0.9451  0.1715  0.0765
  485MOL0     C65381  11.514   7.291   7.802 -0.0526 -0.7663 -0.1112
  485MOL0     C65382  11.650   7.250   7.832 -0.1074  0.0535  0.4993
  485MOL0     C65383  11.676   7.097   7.798  0.0474 -0.9127  0.1878
  485MOL0    Cl65384  11.848   7.063   7.797 -0.0718  0.1842 -0.3548
  485MOL0     C65385  11.307   8.116   8.256 -0.5040 -0.9993 -0.1118
  485MOL0     C65386  11.288   8.254   8.270 -0.4218 -0.2457  0.4449
  485MOL0     O65387  11.538   8.550   8.243 -0.1214 -0.7055 -0.2300
  485MOL0     C65388  11.251   8.764   8.255 -0.1651  0.2307  0.4394
  485MOL0     C65389  11.224   8.900   8.252  0.5426 -1.0847 -0.2310
  485MOL0     N65390  11.244   9.690   8.408  0.1806  0.1670 -0.4620
  485MOL0     N65391  11.223   9.812   8.443 -0.1507  0.1746 -0.6019
  485MOL0     C65392  10.829   8.971   8.328  0.4175 -0.1490  0.0514
  485MOL0     C65393  10.839   8.831   8.358 -0.1047  1.0381 -0.0385
  485MOL0     C65394  10.939   8.420   8.496 -0.1001  0.2274 -0.2930
  485MOL0     C65395  10.941   8.413   8.640 -0.0264 -0.9548  0.2279
  485MOL0     C65396  10.913   8.290   8.708 -1.5594  1.3476 -1.0649
  485MOL0     C65397  10.917   8.169   8.637  0.1781 -0.3862  0.6534
  485MOL0     O65398  10.916   8.056   8.711  0.0872  0.1289 -0.3684
  485MOL0     C65399  10.886   7.935   8.641 -0.3253 -1.0614 -0.2104
  485MOL0     C65400  10.823   7.834   8.734  0.2384 -0.7722 -0.8972
  485MOL0     C65401  10.721   7.889   8.834  1.4175 -0.5209  0.2291
  485MOL0     C65402  10.637   7.772   8.896  0.3048 -0.6188 -0.4616
  485MOL0     C65403  10.733   7.707   8.991  1.1590  1.1249  0.0024
  485MOL0     C65404  10.830   7.672   9.050 -0.2520  0.2599  0.2647
  485MOL0     C65405  10.921   8.175   8.497 -0.4282 -0.0667 -0.6611
  485MOL0     C65406  10.937   8.294   8.425 -0.4486  0.3294  0.3401
  485MOL0     C65407  10.941   8.273   8.277 -0.2837 -0.5734 -0.1146
  485MOL0     H65408  11.024   8.860   8.638  1.1079  1.8282 -0.6392
  485MOL0     H65409  10.998   9.091   8.596 -0.3987  1.2841  1.1377
  485MOL0     H65410  10.854   9.289   8.556  0.1506  2.3139  0.9000
  485MOL0     H65411  10.995   9.302   8.451 -0.1640  0.3654  0.4851
  485MOL0     H65412  10.718   9.438   8.387 -0.3338 -0.8126  1.0787
  485MOL0     H65413  10.864   9.453   8.294  2.0445 -3.1384 -1.1743
  485MOL0     H65414  10.979   9.571   8.462  0.5028  1.5665  2.1636
  485MOL0     H65415  10.867   9.539   8.584  2.4697  1.4049  1.4652
  485MOL0     H65416  10.840   9.740   8.342 -0.4678  3.3087  1.0274
  485MOL0     H65417  10.705   9.698   8.434  0.1843  1.9316 -0.7845
  485MOL0     H65418  10.816   9.795   8.628  0.8036 -3.1848 -0.7108
  485MOL0     H65419  10.969   9.820   8.556 -0.0140  1.2381  3.3943
  485MOL0     H65420  10.731   9.974   8.459  0.1404  1.2793 -0.1825
  485MOL0     H65421  10.864  10.041   8.558 -0.8999  0.8049 -0.2044
  485MOL0     H65422  10.906  10.126   8.370  0.1230 -0.0733 -0.3799
  485MOL0     H65423  10.877   9.976   8.270 -0.5643 -0.0894  0.0632
  485MOL0     H65424  11.111  10.055   8.285 -1.0490 -0.7407 -0.3391
  485MOL0     H65425  11.114  10.059   8.462 -3.8075  2.0741  1.0975
  485MOL0     H65426  11.031   9.809   8.172 -0.4569  1.5174  0.0493
  485MOL0     H65427  11.100   9.570   8.108 -1.2567  0.3857  0.8115
  485MOL0     H65428  11.277   9.584   8.138  2.0121 -2.4440  1.3174
  485MOL0     H65429  11.285   9.427   8.311  1.3197  3.5130 -2.1670
  485MOL0     H65430  11.099   9.437   8.322 -1.1633 -0.0931 -1.5158
  485MOL0     H65431  11.210   9.343   8.065 -3.0674  2.9645 -0.7858
  485MOL0     H65432  11.053   9.321   8.127  0.2983  3.6251 -1.6943
  485MOL0     H65433  11.121   9.107   8.144 -0.1368  1.1048 -1.5037
  485MOL0     H65434  11.103   9.176   8.306 -1.0803  0.8190 -0.4887
  485MOL0     H65435  11.537   9.026   8.248 -2.3432  2.3608  2.6450
  485MOL0     H65436  11.591   8.801   8.278 -0.1018  0.1522  2.7715
  485MOL0     H65437  11.494   8.368   8.019 -1.6084  1.9819  0.2172
  485MOL0     H65438  11.544   8.148   8.006  1.4647  2.3099  0.4741
  485MOL0     H65439  11.500   7.922   7.949  0.6643 -1.9509 -0.4789
  485MOL0     H65440  11.611   7.886   8.086 -0.2120  0.8778 -0.0136
  485MOL0     H65441  11.473   7.701   8.160 -2.1542 -1.9711  0.3612
  485MOL0     H65442  11.355   7.716   8.037  0.7347 -1.3300  1.4996
  485MOL0     H65443  11.547   7.692   7.865 -1.0641 -3.6669 -1.8828
  485MOL0     H65444  11.647   7.662   8.009  1.1436 -6.4482 -1.0069
  485MOL0     H65445  11.421   7.475   8.018 -0.4890  0.4823 -0.9818
  485MOL0     H65446  11.587   7.433   8.007  0.0902 -1.6767 -0.3564
  485MOL0     H65447  11.558   7.489   7.752  0.1125 -0.3326  0.7567
  485MOL0     H65448  11.391   7.479   7.789 -0.4220  0.5473 -1.0657
  485MOL0     H65449  11.448   7.241   7.873  0.1377 -1.7217 -0.5831
  485MOL0     H65450  11.478   7.265   7.702 -3.6414 -0.2775  0.9213
  485MOL0     H65451  11.677   7.264   7.937 -2.9587 -0.6481  1.4157
  485MOL0     H65452  11.718   7.310   7.771 -0.1268  1.0173  1.3937
  485MOL0     H65453  11.639   7.031   7.877 -0.0780 -1.5340 -0.3820
  485MOL0     H65454  11.639   7.063   7.700  0.2293 -1.3260  0.2586
  485MOL0     H65455  11.264   8.044   8.325 -1.6422 -0.8290 -0.6238
  485MOL0     H65456  11.229   8.297   8.350 -2.4057  0.0590 -1.1112
  485MOL0     H65457  11.175   8.687   8.245  2.3385 -2.3212 -0.1995
  485MOL0     H65458  11.123   8.940   8.258  1.0434  0.2350 -0.2461
  485MOL0     H65459  10.767   9.006   8.246  0.5154  0.1568  0.1088
  485MOL0     H65460  10.789   8.767   8.286  0.2122  0.7033  0.0354
  485MOL0     H65461  10.960   8.504   8.697 -0.7130 -2.6831  3.4406
  485MOL0     H65462  10.897   8.299   8.815 -0.3649  2.6065 -0.9565
  485MOL0     H65463  10.974   7.893   8.592  1.0227 -0.7754  1.8507
  485MOL0     H65464  10.808   7.963   8.570  1.1630  0.3260 -1.3841
  485MOL0     H65465  10.900   7.781   8.790  1.3604  1.0201 -0.6853
  485MOL0     H65466  10.773   7.756   8.674 -3.7137  0.2772  0.7051
  485MOL0     H65467  10.656   7.956   8.777 -0.2380 -1.4654  0.9253
  485MOL0     H65468  10.776   7.932   8.918  1.3463 -1.0610  0.5529
  485MOL0     H65469  10.561   7.821   8.957  2.5585 -0.4801  2.4499
  485MOL0     H65470  10.591   7.696   8.832 -3.5129  0.1462  1.0606
  485MOL0     H65471  10.920   7.645   9.100 -1.0341  0.9253  2.1455
  485MOL0     H65472  10.925   8.075   8.454 -2.8137 -0.7534  0.4985
  485MOL0     H65473  11.024   8.333   8.239 -1.7709  0.8827 -1.2028
  485MOL0     H65474  10.946   8.169   8.244  5.3074 -0.2496 -1.2644
  485MOL0     H65475  10.860   8.320   8.221 -0.4536  0.9249  1.3061
  486MOL0     O65476   8.240   0.374   8.673 -0.1147 -0.8656 -0.3584
  486MOL0     C65477   8.243   0.369   8.552 -0.4138 -0.4343 -0.3846
  486MOL0     O65478   8.182   0.460   8.464 -0.0806  0.2456 -0.0558
  486MOL0     C65479   8.144   0.590   8.503 -0.9617  0.1539 -0.9212
  486MOL0     C65480   8.034   0.654   8.444 -0.1602  0.2939 -0.4354
  486MOL0     C65481   8.005   0.793   8.472 -0.1826  0.0600 -0.4420
  486MOL0     C65482   8.080   0.868   8.558  0.0142  1.0227 -0.7609
  486MOL0     O65483   8.051   0.995   8.578 -0.2673 -0.3242  0.8232
  486MOL0     C65484   8.115   1.085   8.670  0.3402  0.5254  0.3796
  486MOL0     C65485   8.068   1.228   8.688 -0.4595  0.0517  0.7565
  486MOL0     C65486   7.932   1.247   8.756 -0.2580  0.3680 -0.2542
  486MOL0     C65487   7.891   1.396   8.758 -0.5763 -0.3085 -0.2951
  486MOL0     C65488   7.770   1.418   8.861 -0.4925 -0.0684  0.3841
  486MOL0     C65489   7.702   1.550   8.858  0.3774 -0.4305  0.0844
  486MOL0     C65490   7.559   1.554   8.920  0.7266  0.4419 -0.1522
  486MOL0     C65491   7.497   1.698   8.932 -0.4296 -0.7281  0.1489
  486MOL0     N65492   7.532   1.758   9.064  1.1566 -0.2647 -0.0126
  486MOL0     C65493   7.462   1.850   9.141  0.3472 -0.2279  0.0172
  486MOL0     C65494   7.536   1.879   9.250  1.7758 -0.1724 -0.5718
  486MOL0     C65495   7.491   1.977   9.361  0.9215  0.1493  0.5680
  486MOL0     C65496   7.491   2.121   9.298  0.9584  0.6717  0.2740
  486MOL0     C65497   7.479   2.224   9.410  0.2308 -0.4425  1.1204
  486MOL0     C65498   7.357   2.226   9.496 -0.7023 -0.5823  0.4578
  486MOL0     O65499   7.240   2.267   9.429  0.1028  0.0327 -0.0044
  486MOL0     C65500   7.205   2.395   9.396 -0.0004  0.7866 -0.1902
  486MOL0     C65501   7.274   2.506   9.435  0.4853  0.2673  0.4287
  486MOL0     C65502   7.229   2.635   9.410 -0.3666  0.5392  0.2511
  486MOL0     C65503   7.114   2.666   9.326 -0.2266 -0.0757 -0.6959
  486MOL0     C65504   7.051   2.793   9.291 -0.2830  0.3579 -0.4984
  486MOL0     O65505   6.962   2.787   9.185 -0.4927  0.3953  0.1688
  486MOL0     C65506   6.893   2.905   9.166 -0.8011 -0.3120  1.2305
  486MOL0     C65507   6.961   3.015   9.121 -0.5089 -1.5815  0.5654
  486MOL0     C65508   6.895   3.142   9.099 -1.0471 -0.1414 -0.4539
  486MOL0     C65509   6.756   3.153   9.128 -0.4074 -1.1013 -0.1078
  486MOL0     O65510   6.682   3.256   9.084 -0.2554  0.5351  0.4291
  486MOL0     C65511   6.702   3.393   9.135  0.1881  0.9420  0.4279
  486MOL0     C65512   6.694   3.400   9.290 -0.1446  0.3049  0.6000
  486MOL0     C65513   6.544   3.366   9.319 -0.1273  1.5214  0.4209
  486MOL0     C65514   6.521   3.386   9.475 -0.2183  0.3459  0.3205
  486MOL0     C65515   6.395   3.317   9.537  1.0674  0.0508  0.6161
  486MOL0     C65516   6.415   3.187   9.610  0.5276 -0.1909  0.7844
  486MOL0     C65517   6.440   3.062   9.533 -0.3243 -0.8714 -0.3534
  486MOL0     C65518   6.324   3.037   9.445  0.5676 -0.6082  0.5940
  486MOL0    Cl65519   6.351   2.918   9.309  0.2587  0.1362  0.2357
  486MOL0     C65520   6.685   3.034   9.174  0.4035 -0.1119 -0.5566
  486MOL0     C65521   6.754   2.920   9.188 -0.6217  0.9188 -0.8290
  486MOL0     O65522   7.090   2.894   9.351 -0.8641  0.2019 -0.2200
  486MOL0     C65523   7.051   2.548   9.281 -1.0316 -0.4296  0.0522
  486MOL0     C65524   7.090   2.421   9.320  0.1276  0.3832 -0.0996
  486MOL0     N65525   7.653   1.810   9.236  0.7983  0.5452 -0.5199
  486MOL0     N65526   7.653   1.751   9.119  0.0952 -0.3384  0.7764
  486MOL0     C65527   8.182   0.802   8.631 -0.3037  0.1602 -0.8175
  486MOL0     C65528   8.222   0.670   8.598  0.1463 -0.3082  0.1464
  486MOL0     C65529   8.312   0.243   8.516 -0.2906  0.1113  0.2245
  486MOL0     C65530   8.244   0.167   8.417  0.1295 -1.0204 -0.4168
  486MOL0     C65531   8.279   0.038   8.387  0.5088  0.1879 -0.6684
  486MOL0     C65532   8.400  -0.009   8.437  1.1666 -1.1599 -0.2525
  486MOL0     O65533   8.452  -0.124   8.386  0.4512 -1.2895 -0.8692
  486MOL0     C65534   8.503  -0.229   8.467  0.1238  0.3905  0.3804
  486MOL0     C65535   8.420  -0.256   8.583 -0.5690  0.8702 -0.2615
  486MOL0     C65536   8.426  -0.392   8.661  0.1948  1.0868 -0.6536
  486MOL0     C65537   8.568  -0.432   8.702 -1.2423 -0.5020 -0.4236
  486MOL0     C65538   8.661  -0.463   8.599 -0.2556  0.4847 -0.5190
  486MOL0     C65539   8.749  -0.487   8.531 -0.5819  1.8484  0.3243
  486MOL0     C65540   8.478   0.059   8.531  0.3896 -0.3686 -0.0691
  486MOL0     C65541   8.440   0.193   8.558  0.0869  0.4204 -0.4921
  486MOL0     C65542   8.528   0.268   8.649  1.0640  1.0443  0.5946
  486MOL0     H65543   7.975   0.595   8.375 -2.3075 -0.2022  1.6865
  486MOL0     H65544   7.921   0.834   8.418 -1.4769  1.3700  2.3640
  486MOL0     H65545   8.113   1.036   8.768 -0.9859  1.0949  0.6583
  486MOL0     H65546   8.215   1.093   8.626  0.4718  0.5376  0.6795
  486MOL0     H65547   8.065   1.274   8.589  1.2590  0.4010  0.8413
  486MOL0     H65548   8.143   1.281   8.746 -0.7566 -0.4111  1.5762
  486MOL0     H65549   7.946   1.213   8.859  0.6101  1.2151 -0.0754
  486MOL0     H65550   7.850   1.199   8.702 -1.0571  1.4281 -0.0191
  486MOL0     H65551   7.981   1.439   8.802 -0.1858 -2.1363  0.7835
  486MOL0     H65552   7.873   1.442   8.660 -1.8215 -1.2424 -0.5360
  486MOL0     H65553   7.688   1.348   8.849  1.1729 -1.9608 -0.5482
  486MOL0     H65554   7.817   1.389   8.955  2.7786  1.6229 -0.5672
  486MOL0     H65555   7.749   1.638   8.902 -0.5370  1.7365 -2.9874
  486MOL0     H65556   7.683   1.574   8.753 -0.4218 -1.3119  0.0140
  486MOL0     H65557   7.569   1.508   9.019  0.5698 -0.8891 -0.7354
  486MOL0     H65558   7.485   1.496   8.866  1.3323 -1.1422  0.6471
  486MOL0     H65559   7.515   1.771   8.852 -1.2266  0.2698  0.8591
  486MOL0     H65560   7.390   1.678   8.944 -0.4367 -1.0655 -0.4216
  486MOL0     H65561   7.364   1.884   9.109  0.9532 -1.2551 -3.2439
  486MOL0     H65562   7.393   1.954   9.404 -0.3582 -1.3873 -2.7511
  486MOL0     H65563   7.568   1.968   9.438 -0.1352  0.3917  1.6796
  486MOL0     H65564   7.576   2.131   9.231 -0.5977  3.1387 -1.5012
  486MOL0     H65565   7.403   2.124   9.233 -0.9037  1.6574  2.6853
  486MOL0     H65566   7.496   2.323   9.366  2.4375 -0.7232  1.2713
  486MOL0     H65567   7.563   2.208   9.477 -0.3079  1.3820  2.3094
  486MOL0     H65568   7.370   2.283   9.588  0.8212  0.5104 -0.3771
  486MOL0     H65569   7.332   2.125   9.528 -3.9809  0.7160  2.4625
  486MOL0     H65570   7.356   2.508   9.507  0.7122  3.2432  0.2333
  486MOL0     H65571   7.278   2.721   9.454  1.5482  1.3835 -3.1412
  486MOL0     H65572   7.068   3.010   9.104 -0.6654 -3.0472 -0.0818
  486MOL0     H65573   6.944   3.230   9.058 -0.5729 -0.0387  0.3181
  486MOL0     H65574   6.806   3.419   9.114  0.4775 -2.0918 -2.8505
  486MOL0     H65575   6.632   3.464   9.091  1.6211  1.4417 -1.1457
  486MOL0     H65576   6.764   3.325   9.327  0.8560 -0.1901 -2.0601
  486MOL0     H65577   6.720   3.499   9.327  1.6732 -0.4639  1.4852
  486MOL0     H65578   6.485   3.434   9.257 -1.1341 -1.0673 -1.6746
  486MOL0     H65579   6.506   3.269   9.286 -0.3104  1.1672  1.6154
  486MOL0     H65580   6.517   3.493   9.499 -2.7019  0.0481  1.5305
  486MOL0     H65581   6.602   3.350   9.540 -0.9670  0.9830  1.6600
  486MOL0     H65582   6.317   3.305   9.462  0.9654 -1.5462  0.9388
  486MOL0     H65583   6.353   3.398   9.597 -0.8190  2.1522 -3.1867
  486MOL0     H65584   6.489   3.195   9.690  0.5250  0.6535  0.7053
  486MOL0     H65585   6.317   3.154   9.648  0.9403 -2.5387  0.0126
  486MOL0     H65586   6.460   2.982   9.605  2.4909 -0.7471 -0.8941
  486MOL0     H65587   6.534   3.072   9.478  0.3427  0.2418  0.9397
  486MOL0     H65588   6.246   2.996   9.511 -0.8487  1.7009  0.4466
  486MOL0     H65589   6.275   3.119   9.393 -2.5935 -2.2256  0.7523
  486MOL0     H65590   6.579   3.026   9.193  0.3853 -1.4263 -1.0294
  486MOL0     H65591   6.718   2.829   9.235  3.7615 -1.2517 -1.1403
  486MOL0     H65592   6.959   2.537   9.224  0.0127 -3.8640 -1.2342
  486MOL0     H65593   7.042   2.335   9.274 -0.9465  1.7890 -1.7210
  486MOL0     H65594   8.244   0.858   8.700 -2.1748  0.0581  1.0458
  486MOL0     H65595   8.308   0.619   8.639  1.0963  0.7833 -0.4360
  486MOL0     H65596   8.155   0.214   8.376 -0.5844 -1.4100  0.6541
  486MOL0     H65597   8.220  -0.011   8.309 -0.5187  0.6811 -0.2156
  486MOL0     H65598   8.607  -0.217   8.499  1.3507 -2.7921 -1.8163
  486MOL0     H65599   8.504  -0.316   8.400  0.8878 -1.7682  3.0303
  486MOL0     H65600   8.320  -0.237   8.543 -2.2424 -4.9433  0.1169
  486MOL0     H65601   8.464  -0.187   8.655  1.5804 -1.4175  0.7988
  486MOL0     H65602   8.372  -0.474   8.613  0.8183 -0.2739  0.8822
  486MOL0     H65603   8.369  -0.385   8.754  1.1473 -0.2106  0.0559
  486MOL0     H65604   8.592  -0.339   8.753 -0.3471 -1.1550  0.3924
  486MOL0     H65605   8.562  -0.516   8.773 -0.6269 -2.2846 -2.3729
  486MOL0     H65606   8.826  -0.505   8.459  0.9287 -2.6569  2.6757
  486MOL0     H65607   8.568   0.007   8.560  1.3198 -0.3548 -2.6183
  486MOL0     H65608   8.625   0.219   8.647  0.4223 -0.3020  0.9359
  486MOL0     H65609   8.534   0.369   8.610 -1.1989  0.6518 -0.9840
  486MOL0     H65610   8.488   0.274   8.751 -0.7396 -1.1112  0.0904
  487MOL0     O65611   2.350   6.156  11.042  0.1305  0.0349 -0.8006
  487MOL0     C65612   2.318   6.059  11.122  0.5429 -1.2397 -0.7118
  487MOL0     O65613   2.360   6.052  11.253 -0.0584  1.1581 -0.1792
  487MOL0     C65614   2.451   6.139  11.302 -0.6532 -0.0738 -0.8488
  487MOL0     C65615   2.431   6.275  11.313 -0.1367  0.2130 -0.0771
  487MOL0     C65616   2.527   6.366  11.353 -0.7982  0.8046  0.2115
  487MOL0     C65617   2.662   6.318  11.394 -0.7092 -0.4532  0.4940
  487MOL0     O65618   2.774   6.400  11.429  0.1934 -0.5137  0.2592
  487MOL0     C65619   2.729   6.534  11.464 -0.0663  0.3104  0.6211
  487MOL0     C65620   2.837   6.586  11.540 -0.6182 -0.3633 -0.1899
  487MOL0     C65621   2.788   6.718  11.601  0.2804  0.3584  0.1503
  487MOL0     C65622   2.883   6.792  11.693  1.0384  0.2203  0.2292
  487MOL0     C65623   2.812   6.894  11.792 -0.1840 -0.1391 -0.4840
  487MOL0     C65624   2.750   7.019  11.732 -0.0626  0.1479 -0.7392
  487MOL0     C65625   2.843   7.108  11.653  0.0355 -0.2865  1.2158
  487MOL0     C65626   2.791   7.251  11.650 -0.0845  0.5302 -0.2641
  487MOL0     N65627   2.670   7.273  11.570  0.4859 -0.3127 -0.4858
  487MOL0     C65628   2.624   7.394  11.526 -0.5517  0.4389 -0.1565
  487MOL0     C65629   2.517   7.375  11.451 -0.1176  1.6222 -0.7916
  487MOL0     C65630   2.431   7.487  11.395  0.0893  1.1786 -0.5588
  487MOL0     C65631   2.283   7.479  11.442  0.0001 -0.2037 -0.7947
  487MOL0     C65632   2.197   7.594  11.383  0.6254  0.0099  1.2258
  487MOL0     C65633   2.158   7.584  11.234  0.1298  0.0001 -0.5823
  487MOL0     O65634   2.233   7.663  11.146  0.3462 -0.8252 -0.2657
  487MOL0     C65635   2.219   7.641  11.013  0.0485 -0.4461  0.0211
  487MOL0     C65636   2.300   7.709  10.924 -0.3645  0.0626  0.8766
  487MOL0     C65637   2.284   7.695  10.787 -0.1572  0.7588 -0.0103
  487MOL0     C65638   2.191   7.602  10.733 -0.1245  0.6013  0.1746
  487MOL0     C65639   2.182   7.577  10.589 -0.8874  0.2848  0.1490
  487MOL0     O65640   2.073   7.504  10.546  1.1983  0.0034 -0.0745
  487MOL0     C65641   2.054   7.486  10.409 -0.1253  0.3039 -0.5211
  487MOL0     C65642   1.966   7.576  10.334 -0.0326 -0.8236  0.3587
  487MOL0     C65643   1.956   7.565  10.195 -0.3233  0.5236 -0.2337
  487MOL0     C65644   2.027   7.460  10.124 -0.2159 -0.0190  0.7283
  487MOL0     O65645   2.021   7.463   9.988 -0.4567 -0.3522  0.8738
  487MOL0     C65646   2.061   7.347   9.913  0.6942 -0.4637  0.6692
  487MOL0     C65647   2.203   7.378   9.855  0.0572  0.5264  0.6595
  487MOL0     C65648   2.177   7.447   9.714  0.1286  0.3605 -0.7942
  487MOL0     C65649   2.306   7.445   9.631  0.9158 -0.2197 -0.2471
  487MOL0     C65650   2.294   7.508   9.489  0.4168  0.5440 -0.3046
  487MOL0     C65651   2.424   7.513   9.403 -0.1593  0.5299  0.6254
  487MOL0     C65652   2.547   7.534   9.474 -0.5992 -0.2581 -0.1347
  487MOL0     C65653   2.636   7.590   9.365  0.0956  0.2329 -0.4459
  487MOL0    Cl65654   2.799   7.567   9.429 -0.2005  0.1427 -0.2410
  487MOL0     C65655   2.097   7.370  10.209  0.1885  0.4071  0.9805
  487MOL0     C65656   2.109   7.378  10.346 -0.0982  0.9282  0.1037
  487MOL0     O65657   2.278   7.610  10.521  0.1820 -0.0114 -0.9317
  487MOL0     C65658   2.104   7.542  10.830 -0.5802  0.3086  0.7646
  487MOL0     C65659   2.113   7.561  10.961 -0.0926 -0.5994  0.3329
  487MOL0     N65660   2.500   7.236  11.437 -0.1577  0.9321  0.3064
  487MOL0     N65661   2.591   7.178  11.511  0.1010 -0.1572  0.2114
  487MOL0     C65662   2.681   6.183  11.389  0.2613 -0.2143  0.7218
  487MOL0     C65663   2.583   6.099  11.339  0.5202  0.3010 -0.5532
  487MOL0     C65664   2.217   5.956  11.090  0.3727 -0.9120 -0.1400
  487MOL0     C65665   2.171   5.865  11.191 -0.5403 -0.1822 -0.2312
  487MOL0     C65666   2.097   5.753  11.154 -0.5460 -0.5817  0.0573
  487MOL0     C65667   2.052   5.729  11.023  0.1398  0.5615 -1.4730
  487MOL0     O65668   1.957   5.638  10.996 -1.0680  0.6114 -0.5585
  487MOL0     C65669   1.831   5.653  11.063 -0.2217  0.5022  0.1093
  487MOL0     C65670   1.733   5.579  10.970 -0.3854 -1.4285 -0.0586
  487MOL0     C65671   1.615   5.530  11.047 -0.3646 -0.5214 -0.3669
  487MOL0     C65672   1.518   5.643  11.082  0.2350 -0.1781 -0.0575
  487MOL0     C65673   1.417   5.662  10.973 -0.4258 -0.3231 -0.1766
  487MOL0     C65674   1.345   5.694  10.882 -0.3378 -0.3400  0.1084
  487MOL0     C65675   2.086   5.828  10.931 -0.9323 -1.1871  0.8099
  487MOL0     C65676   2.174   5.938  10.950  0.2682  1.0914 -0.0632
  487MOL0     C65677   2.212   6.019  10.837 -0.2823  0.1796 -0.1834
  487MOL0     H65678   2.342   6.318  11.267  1.0538  3.4525  0.4277
  487MOL0     H65679   2.490   6.467  11.337 -1.7469  0.2595 -1.2499
  487MOL0     H65680   2.714   6.610  11.387 -0.2527  1.8675  2.1323
  487MOL0     H65681   2.640   6.537  11.527  0.7499  1.4157  1.7588
  487MOL0     H65682   2.917   6.600  11.467 -1.2413 -0.5633 -0.9173
  487MOL0     H65683   2.860   6.519  11.623 -0.8368  0.1543  0.2973
  487MOL0     H65684   2.706   6.679  11.662 -2.7430  2.0474 -2.5189
  487MOL0     H65685   2.739   6.783  11.529 -1.3145 -2.5782 -1.6103
  487MOL0     H65686   2.934   6.718  11.756  0.7201  0.0094  0.2424
  487MOL0     H65687   2.951   6.843  11.624  1.0657 -0.1544 -0.0240
  487MOL0     H65688   2.733   6.843  11.849 -2.0010  0.2622 -2.4983
  487MOL0     H65689   2.874   6.935  11.872  1.2967 -0.2321 -1.5436
  487MOL0     H65690   2.653   7.009  11.682  0.2321  1.5609 -1.6627
  487MOL0     H65691   2.719   7.075  11.821 -0.4663  0.0591 -0.8211
  487MOL0     H65692   2.864   7.071  11.552  1.1530  0.3783  1.1843
  487MOL0     H65693   2.940   7.113  11.702  1.1212  2.5857 -0.9136
  487MOL0     H65694   2.784   7.287  11.753  0.0463 -0.8983  0.2714
  487MOL0     H65695   2.864   7.323  11.613 -0.3493  1.4692  0.9907
  487MOL0     H65696   2.658   7.493  11.552  1.9502 -0.0809 -1.1961
  487MOL0     H65697   2.481   7.579  11.424  1.1422  0.5416 -0.2955
  487MOL0     H65698   2.433   7.479  11.286 -3.9116 -4.2577 -0.6868
  487MOL0     H65699   2.218   7.392  11.430 -1.6604  0.6103  1.5153
  487MOL0     H65700   2.300   7.490  11.549  3.2168 -1.6687 -1.0433
  487MOL0     H65701   2.237   7.696  11.388  1.1136 -0.1664  1.0140
  487MOL0     H65702   2.111   7.594  11.450  0.4794 -1.0625  1.0546
  487MOL0     H65703   2.052   7.613  11.230 -0.0666  0.3911  3.2633
  487MOL0     H65704   2.177   7.481  11.204  1.0774  0.0767 -0.2934
  487MOL0     H65705   2.386   7.769  10.954  2.3822 -1.8799 -2.4102
  487MOL0     H65706   2.352   7.749  10.722 -1.0067  1.6450 -0.1865
  487MOL0     H65707   1.921   7.668  10.370  2.1606  0.5542 -0.2020
  487MOL0     H65708   1.897   7.641  10.146  1.1116  1.0735 -1.1672
  487MOL0     H65709   2.063   7.270   9.991 -0.7267  2.9697  4.4626
  487MOL0     H65710   1.985   7.315   9.841  1.3913 -3.7942  1.2490
  487MOL0     H65711   2.262   7.440   9.922  4.2287 -2.1394 -0.1914
  487MOL0     H65712   2.256   7.283   9.844 -2.0696 -0.4114 -3.0916
  487MOL0     H65713   2.107   7.386   9.657  1.2481  0.2460 -2.0818
  487MOL0     H65714   2.142   7.551   9.721 -0.2975  0.2956 -1.8346
  487MOL0     H65715   2.355   7.348   9.620  0.9426 -0.1011 -1.2675
  487MOL0     H65716   2.385   7.504   9.679 -0.1814  2.0794 -1.0741
  487MOL0     H65717   2.252   7.608   9.494 -1.0077 -0.0851  1.7265
  487MOL0     H65718   2.227   7.444   9.432  0.0762 -0.1403  0.8375
  487MOL0     H65719   2.442   7.418   9.352 -0.3463  1.3338 -1.0444
  487MOL0     H65720   2.411   7.581   9.318 -1.8866  0.3978  0.7563
  487MOL0     H65721   2.582   7.441   9.518  0.0607 -0.3751 -0.8815
  487MOL0     H65722   2.529   7.604   9.556 -1.0333 -0.2955 -0.1945
  487MOL0     H65723   2.610   7.547   9.268 -1.8148  1.8569 -0.7272
  487MOL0     H65724   2.620   7.699   9.364 -1.4859  0.0303  0.0697
  487MOL0     H65725   2.140   7.276  10.175 -0.4950  1.1632 -2.4324
  487MOL0     H65726   2.148   7.298  10.408 -0.3539  0.2856 -0.5541
  487MOL0     H65727   2.021   7.483  10.792 -2.5172  2.1615  1.8830
  487MOL0     H65728   2.044   7.511  11.028 -3.1230  0.6268 -1.6741
  487MOL0     H65729   2.777   6.138  11.411 -1.2377 -2.7693  2.4696
  487MOL0     H65730   2.593   5.992  11.329 -0.4462  0.2527 -1.1057
  487MOL0     H65731   2.195   5.873  11.297  0.2714  2.6078 -0.5434
  487MOL0     H65732   2.053   5.693  11.233 -0.0618  0.3471  1.0738
  487MOL0     H65733   1.809   5.760  11.068  0.9949  0.7402  0.7395
  487MOL0     H65734   1.834   5.622  11.168  1.0774  0.9055  0.2117
  487MOL0     H65735   1.786   5.489  10.939 -0.3338 -0.4978 -3.0906
  487MOL0     H65736   1.708   5.652  10.892 -0.0968 -0.7204  0.4957
  487MOL0     H65737   1.659   5.475  11.130 -0.4788 -4.3844 -2.6083
  487MOL0     H65738   1.560   5.449  10.997  2.2533 -3.2955  0.9620
  487MOL0     H65739   1.455   5.626  11.170 -1.3899  1.5892 -0.7894
  487MOL0     H65740   1.565   5.739  11.106 -3.2624  1.4680  0.9689
  487MOL0     H65741   1.290   5.726  10.796 -2.1722 -0.9894  0.9803
  487MOL0     H65742   2.046   5.826  10.830 -0.2762 -0.1894  0.5104
  487MOL0     H65743   2.210   5.962  10.744  3.3272 -2.7870  1.2748
  487MOL0     H65744   2.139   6.101  10.835 -1.7734 -1.0671  0.6703
  487MOL0     H65745   2.317   6.046  10.852 -0.5163  0.3442  1.3559
  488MOL0     O65746   1.597   2.017   0.375  0.9421  0.2933 -0.9498
  488MOL0     C65747   1.495   1.998   0.444 -0.0744 -0.1907 -0.3219
  488MOL0     O65748   1.496   1.943   0.571 -0.0122  0.2705  0.3169
  488MOL0     C65749   1.572   1.832   0.595 -0.2049  0.0144  0.0927
  488MOL0     C65750   1.627   1.740   0.501 -0.1683 -0.6588  0.0321
  488MOL0     C65751   1.686   1.623   0.551 -0.3904  0.0513 -0.6434
  488MOL0     C65752   1.698   1.597   0.702 -0.5710  0.6871 -0.6260
  488MOL0     O65753   1.769   1.492   0.764  0.4504  0.0825  0.2735
  488MOL0     C65754   1.820   1.392   0.681 -0.3827  0.1196 -0.1235
  488MOL0     C65755   1.851   1.268   0.774 -0.3576  0.8867  0.1288
  488MOL0     C65756   1.960   1.274   0.887  0.2505 -0.4599  0.6443
  488MOL0     C65757   1.924   1.349   1.020  0.5505 -0.1999  0.7198
  488MOL0     C65758   2.051   1.363   1.108  0.6367  0.3468  0.8723
  488MOL0     C65759   2.013   1.450   1.231 -0.9841 -0.4689 -0.1805
  488MOL0     C65760   1.973   1.602   1.212 -0.8096  0.3614  1.3280
  488MOL0     C65761   1.931   1.662   1.351 -0.3827  0.3274 -0.1202
  488MOL0     N65762   1.902   1.808   1.349 -0.7609  0.3533 -0.1884
  488MOL0     C65763   1.997   1.899   1.336  0.7579  0.3607  0.4913
  488MOL0     C65764   1.930   2.009   1.306  1.0036 -0.7999  0.4720
  488MOL0     C65765   1.979   2.147   1.284  0.1303 -0.2024  0.0411
  488MOL0     C65766   2.014   2.219   1.409 -0.8603 -0.9089  0.0106
  488MOL0     C65767   1.899   2.286   1.489 -1.2135 -0.4114 -0.1912
  488MOL0     C65768   1.948   2.368   1.612 -0.1705 -0.1456  0.0727
  488MOL0     O65769   1.836   2.437   1.682 -0.0130  0.4850 -0.1212
  488MOL0     C65770   1.749   2.354   1.748 -0.2184  0.6016 -0.6229
  488MOL0     C65771   1.786   2.228   1.796  0.1182 -0.0931  0.2403
  488MOL0     C65772   1.686   2.153   1.852  0.8960  1.3235  1.1105
  488MOL0     C65773   1.555   2.205   1.877 -0.1176 -0.6528  0.0456
  488MOL0     C65774   1.451   2.119   1.929 -0.2125 -0.1365  0.1300
  488MOL0     O65775   1.322   2.163   1.905 -0.0695 -0.0648 -0.2715
  488MOL0     C65776   1.215   2.096   1.958  0.1608 -0.1020 -0.9301
  488MOL0     C65777   1.178   1.967   1.924 -0.9445  0.4214  0.1877
  488MOL0     C65778   1.077   1.900   2.001 -0.7292  0.3113  0.4135
  488MOL0     C65779   0.987   1.963   2.089 -0.8489  0.5630 -1.1389
  488MOL0     O65780   0.889   1.916   2.173 -0.4007 -0.1710  0.5554
  488MOL0     C65781   0.888   1.774   2.170  0.4710  0.3756 -0.1575
  488MOL0     C65782   0.815   1.741   2.296  0.1830  0.3000 -1.0811
  488MOL0     C65783   0.764   1.592   2.297  0.1465 -0.4560  0.3438
  488MOL0     C65784   0.610   1.563   2.263 -0.2377 -0.8350 -0.4067
  488MOL0     C65785   0.580   1.421   2.238 -0.6258  0.4923  0.1381
  488MOL0     C65786   0.435   1.403   2.203  0.5151 -0.2589 -0.0829
  488MOL0     C65787   0.397   1.256   2.179  0.0327 -0.3756 -0.7321
  488MOL0     C65788   0.464   1.140   2.259  1.1599  0.4609 -0.5740
  488MOL0    Cl65789   0.373   1.001   2.225 -0.1533  0.0687 -0.0673
  488MOL0     C65790   1.026   2.093   2.128 -0.3572 -0.5043  1.0926
  488MOL0     C65791   1.137   2.164   2.062 -0.8933  0.7321  0.3652
  488MOL0     O65792   1.485   2.011   1.974  0.4811 -0.1386  0.1981
  488MOL0     C65793   1.531   2.340   1.841 -0.4400  0.4258  0.5949
  488MOL0     C65794   1.628   2.404   1.767  0.4374 -0.2187 -0.5528
  488MOL0     N65795   1.799   1.990   1.289  0.3159  0.0715  0.0010
  488MOL0     N65796   1.782   1.859   1.310  0.1158  0.4805 -0.6557
  488MOL0     C65797   1.659   1.713   0.780  0.0280  0.5300  0.1704
  488MOL0     C65798   1.598   1.820   0.728 -0.0680 -0.9318 -0.8900
  488MOL0     C65799   1.358   2.048   0.395  0.6639  0.3426 -0.2448
  488MOL0     C65800   1.276   2.108   0.498  0.2059  0.1770 -0.1191
  488MOL0     C65801   1.177   2.197   0.464  0.0085 -0.7849 -0.5439
  488MOL0     C65802   1.132   2.222   0.334  0.0273 -0.7671 -0.8416
  488MOL0     O65803   1.022   2.300   0.316 -0.3439  0.4020  0.0339
  488MOL0     C65804   0.993   2.368   0.193  0.7263  0.8671 -0.1861
  488MOL0     C65805   0.882   2.303   0.108  0.4403  0.6921 -0.3487
  488MOL0     C65806   0.742   2.324   0.164  0.3481 -0.9378 -0.1209
  488MOL0     C65807   0.668   2.196   0.207  0.3402 -0.8690 -0.4050
  488MOL0     C65808   0.562   2.232   0.294  0.4890  0.0723 -0.7167
  488MOL0     C65809   0.476   2.262   0.366  0.3824 -0.0804 -1.1047
  488MOL0     C65810   1.198   2.145   0.231  0.1116 -0.0473 -0.0711
  488MOL0     C65811   1.308   2.058   0.262 -0.3638  0.5178  0.5816
  488MOL0     C65812   1.396   2.032   0.140  0.1108 -0.6649  0.0254
  488MOL0     H65813   1.615   1.761   0.395  0.6093 -1.6314 -0.2671
  488MOL0     H65814   1.724   1.563   0.469 -0.8963 -1.3846  0.1248
  488MOL0     H65815   1.747   1.358   0.606 -1.7781  0.3534  1.0914
  488MOL0     H65816   1.908   1.428   0.627  1.3893 -1.5138  1.5343
  488MOL0     H65817   1.870   1.177   0.716 -1.6057 -0.4049  1.6363
  488MOL0     H65818   1.761   1.251   0.835 -0.1120  0.7007  0.4437
  488MOL0     H65819   2.050   1.316   0.841  0.6611  1.5195  3.0354
  488MOL0     H65820   1.978   1.173   0.924 -1.1602 -0.4536  1.4108
  488MOL0     H65821   1.886   1.447   0.989  2.0965  0.2221  0.0308
  488MOL0     H65822   1.851   1.297   1.082 -2.7955  2.2078 -0.8617
  488MOL0     H65823   2.085   1.262   1.131 -3.4624 -1.7345 -1.2499
  488MOL0     H65824   2.121   1.420   1.046  0.2797 -0.7023 -0.5360
  488MOL0     H65825   1.929   1.411   1.289 -0.8484 -1.0770 -0.3759
  488MOL0     H65826   2.098   1.453   1.300 -0.8190 -0.5689 -0.3777
  488MOL0     H65827   1.888   1.632   1.151 -0.2033 -0.5657 -0.0472
  488MOL0     H65828   2.064   1.649   1.174 -0.0705 -1.4020  0.7816
  488MOL0     H65829   1.845   1.608   1.390 -0.6644  2.2578  2.1925
  488MOL0     H65830   2.008   1.649   1.428 -2.0258 -1.6436  1.2834
  488MOL0     H65831   2.102   1.887   1.362  1.5325 -0.3651 -2.5808
  488MOL0     H65832   2.053   2.149   1.203 -3.0061  1.3257 -3.0681
  488MOL0     H65833   1.902   2.211   1.241  0.5009  0.3986  0.2512
  488MOL0     H65834   2.063   2.137   1.462 -2.1804 -2.5846 -1.2353
  488MOL0     H65835   2.073   2.305   1.377  0.3985 -1.4826  0.7402
  488MOL0     H65836   1.829   2.211   1.526 -3.0180  2.1147  1.7367
  488MOL0     H65837   1.851   2.363   1.428  1.3470  1.3443 -0.1637
  488MOL0     H65838   2.020   2.446   1.585  2.5120 -0.8526  4.3670
  488MOL0     H65839   2.017   2.319   1.681  0.2385  1.1709  0.6287
  488MOL0     H65840   1.870   2.162   1.779 -0.7042 -0.9205 -0.7557
  488MOL0     H65841   1.700   2.050   1.883  0.2442  0.5794 -0.9381
  488MOL0     H65842   1.232   1.928   1.839  1.5200  0.0435  1.8150
  488MOL0     H65843   1.055   1.797   1.974 -1.5071  0.5930 -0.0721
  488MOL0     H65844   0.832   1.723   2.091 -0.1705 -3.8697  2.6861
  488MOL0     H65845   0.987   1.728   2.182  0.4360  0.8741  2.5350
  488MOL0     H65846   0.887   1.738   2.379 -1.2534  0.7847  0.2235
  488MOL0     H65847   0.739   1.814   2.326 -0.4616 -1.5977  2.4913
  488MOL0     H65848   0.830   1.532   2.234 -0.2205  0.7555 -1.2864
  488MOL0     H65849   0.761   1.542   2.394  1.8815 -1.7157 -0.2123
  488MOL0     H65850   0.588   1.612   2.168 -0.2104 -0.4575 -0.2187
  488MOL0     H65851   0.551   1.605   2.345  0.5004 -1.8470  0.6844
  488MOL0     H65852   0.596   1.366   2.331  0.7377 -2.8367 -1.8720
  488MOL0     H65853   0.636   1.372   2.158 -0.0286 -0.1137  0.9146
  488MOL0     H65854   0.374   1.428   2.290 -1.3606 -2.7039 -0.5942
  488MOL0     H65855   0.406   1.475   2.126  0.2950  0.0913  0.3237
  488MOL0     H65856   0.416   1.241   2.073  1.5328 -0.7664 -0.4337
  488MOL0     H65857   0.289   1.250   2.197  0.0930 -0.3826 -0.3662
  488MOL0     H65858   0.571   1.134   2.236  1.4036  2.8027 -0.2760
  488MOL0     H65859   0.458   1.171   2.363  0.8585  2.0414 -1.0343
  488MOL0     H65860   0.978   2.147   2.209  0.8533  4.4613 -1.0920
  488MOL0     H65861   1.173   2.261   2.096 -0.5893  0.0700  2.0342
  488MOL0     H65862   1.439   2.396   1.847 -1.3686 -0.7209 -1.7365
  488MOL0     H65863   1.604   2.500   1.722 -0.7660  0.7409  1.9235
  488MOL0     H65864   1.656   1.696   0.887  1.3339  1.4116  0.3703
  488MOL0     H65865   1.551   1.884   0.803  0.7740  0.2331 -1.3289
  488MOL0     H65866   1.279   2.100   0.606  0.1328  4.6131  0.4124
  488MOL0     H65867   1.111   2.240   0.538 -2.4759 -5.4694  0.4077
  488MOL0     H65868   1.081   2.365   0.129 -1.1394 -2.1783 -2.9753
  488MOL0     H65869   0.959   2.471   0.201 -3.4128 -0.4561  4.4046
  488MOL0     H65870   0.905   2.196   0.105 -0.5796  0.4580 -0.0232
  488MOL0     H65871   0.882   2.330   0.002 -1.3016 -0.8604 -0.7900
  488MOL0     H65872   0.679   2.382   0.096  1.0536  0.5499  0.4588
  488MOL0     H65873   0.750   2.374   0.261 -1.3992 -1.6772  0.4499
  488MOL0     H65874   0.636   2.129   0.127  0.2149  0.3195 -1.3752
  488MOL0     H65875   0.735   2.125   0.255  1.3525 -0.5812 -1.3593
  488MOL0     H65876   0.395   2.269   0.436  2.4887  0.2699  1.4116
  488MOL0     H65877   1.164   2.141   0.128  2.4965 -0.0286 -0.9149
  488MOL0     H65878   1.345   1.955   0.080  2.8285 -3.3060  0.8725
  488MOL0     H65879   1.403   2.119   0.074  2.7632  1.3701  2.7274
  488MOL0     H65880   1.497   2.003   0.167  0.7111  1.8849  0.8327
  489MOL0     O65881   1.524   4.380   9.854  0.4331  1.2601  0.1247
  489MOL0     C65882   1.586   4.473   9.794 -0.2131  0.1820 -0.3508
  489MOL0     O65883   1.577   4.610   9.811 -0.0098 -0.0919 -1.5700
  489MOL0     C65884   1.458   4.658   9.838  0.3924 -0.6845  0.3046
  489MOL0     C65885   1.455   4.766   9.928 -0.4459 -1.0578  0.4169
  489MOL0     C65886   1.332   4.815   9.973 -1.0592  0.7086  0.8617
  489MOL0     C65887   1.210   4.760   9.930 -0.3562 -0.3197 -0.3678
  489MOL0     O65888   1.095   4.789   9.989  0.0275 -0.4489 -0.1115
  489MOL0     C65889   1.004   4.848   9.887  0.2157  0.6818 -0.3521
  489MOL0     C65890   0.858   4.782   9.907  0.1889  0.0046  0.8720
  489MOL0     C65891   0.790   4.826  10.042  1.0349 -0.2571 -0.8726
  489MOL0     C65892   0.837   4.735  10.160 -1.1144  0.0907  0.1741
  489MOL0     C65893   0.758   4.768  10.284  0.1220 -0.6086 -0.0784
  489MOL0     C65894   0.747   4.679  10.404 -0.2664  0.9513 -0.6156
  489MOL0     C65895   0.654   4.711  10.523  1.0587  0.6055 -0.2539
  489MOL0     C65896   0.611   4.575  10.594  0.3014 -0.4168  0.5471
  489MOL0     N65897   0.728   4.500  10.630 -0.5000  0.9276 -0.0025
  489MOL0     C65898   0.789   4.398  10.559  0.5615  0.0150 -0.4430
  489MOL0     C65899   0.876   4.342  10.648 -0.7911 -0.6614 -0.7733
  489MOL0     C65900   0.967   4.224  10.604  0.4617 -0.7581 -0.9110
  489MOL0     C65901   0.897   4.115  10.546  0.5376  0.7497  0.2957
  489MOL0     C65902   0.937   4.066  10.408 -0.5300 -0.1507  0.2643
  489MOL0     C65903   0.866   3.939  10.370  0.7397 -0.3380  0.3706
  489MOL0     O65904   0.951   3.823  10.391  0.1027  0.2134 -0.5811
  489MOL0     C65905   0.930   3.696  10.333  0.6111  0.3779  0.0359
  489MOL0     C65906   0.985   3.577  10.387  0.2703 -0.0029  0.0607
  489MOL0     C65907   0.962   3.453  10.322 -0.2063  0.5361 -0.6709
  489MOL0     C65908   0.883   3.448  10.208 -0.4479 -0.2052  0.1237
  489MOL0     C65909   0.854   3.323  10.144  0.4231  0.1445 -0.6465
  489MOL0     O65910   0.749   3.311  10.055  0.4282 -0.5829 -0.1956
  489MOL0     C65911   0.699   3.185  10.032 -0.0478  0.1626  0.0371
  489MOL0     C65912   0.577   3.156  10.092  0.3000  0.2913 -0.4172
  489MOL0     C65913   0.522   3.022  10.072 -1.2699 -0.3415  1.1627
  489MOL0     C65914   0.576   2.931   9.979  0.6606 -0.2835 -0.2336
  489MOL0     O65915   0.521   2.801   9.978 -0.1831  0.4994  0.8159
  489MOL0     C65916   0.609   2.706   9.912 -0.0693 -0.1659  0.0450
  489MOL0     C65917   0.567   2.572   9.940  0.3434 -0.4436 -0.0745
  489MOL0     C65918   0.459   2.516   9.861  0.0164 -0.4286  0.0824
  489MOL0     C65919   0.423   2.367   9.880 -0.1436  0.2304  0.3456
  489MOL0     C65920   0.524   2.258   9.883  0.1220  0.5715  0.2070
  489MOL0     C65921   0.594   2.248   9.755  0.0750  0.1146  0.0235
  489MOL0     C65922   0.678   2.128   9.726 -0.9942 -0.5260  0.6614
  489MOL0     C65923   0.809   2.108   9.800  0.0863  0.7936  1.0706
  489MOL0    Cl65924   0.913   1.997   9.692 -0.0499  0.0307 -0.2615
  489MOL0     C65925   0.692   2.971   9.907 -0.0562 -0.7011 -0.6140
  489MOL0     C65926   0.749   3.102   9.936  0.0413 -0.1786 -0.1401
  489MOL0     O65927   0.927   3.232  10.167 -0.5448 -1.0037  0.1634
  489MOL0     C65928   0.822   3.563  10.162  0.8014 -0.1247  0.2718
  489MOL0     C65929   0.845   3.690  10.220 -0.9413  0.2405 -0.6367
  489MOL0     N65930   0.875   4.420  10.765  0.6329 -0.1269  0.5114
  489MOL0     N65931   0.781   4.506  10.754 -0.7688  0.6501  0.5102
  489MOL0     C65932   1.212   4.653   9.845 -0.1853  0.4768  0.5871
  489MOL0     C65933   1.333   4.606   9.795 -0.1849  0.3198  0.2385
  489MOL0     C65934   1.693   4.432   9.701  0.8545  0.4469  0.3918
  489MOL0     C65935   1.805   4.519   9.691 -0.4072  1.0874 -1.1745
  489MOL0     C65936   1.922   4.484   9.618  1.1139  0.0025 -0.9490
  489MOL0     C65937   1.926   4.362   9.554  0.0700 -1.2679 -0.4519
  489MOL0     O65938   2.042   4.327   9.495 -0.3272  0.0706  0.7977
  489MOL0     C65939   2.018   4.238   9.376  0.1973 -0.1953  0.1354
  489MOL0     C65940   2.142   4.229   9.289  0.7381  0.0512 -0.0117
  489MOL0     C65941   2.104   4.129   9.175 -0.4035  0.2286  0.1963
  489MOL0     C65942   2.233   4.058   9.103 -0.1920  0.2259 -0.8476
  489MOL0     C65943   2.331   4.150   9.048  0.6738  0.5858  0.8140
  489MOL0     C65944   2.403   4.235   8.997 -0.3770 -0.5715 -0.5101
  489MOL0     C65945   1.811   4.286   9.546  0.4899  1.0740 -0.2045
  489MOL0     C65946   1.697   4.306   9.625  0.2452 -0.3595  0.7663
  489MOL0     C65947   1.576   4.217   9.587 -0.0318  0.4769 -0.7579
  489MOL0     H65948   1.553   4.799   9.963 -0.4218  1.3952 -1.6806
  489MOL0     H65949   1.325   4.903  10.037  0.5806  2.2752 -0.9654
  489MOL0     H65950   0.985   4.953   9.910 -2.2810  0.3472 -0.5986
  489MOL0     H65951   1.044   4.836   9.786  3.3437  0.5193  0.8039
  489MOL0     H65952   0.844   4.674   9.912 -2.6366 -0.0171 -2.9780
  489MOL0     H65953   0.796   4.817   9.823 -0.1818  1.3201  1.6524
  489MOL0     H65954   0.684   4.804  10.029  0.5374  1.1511  0.4381
  489MOL0     H65955   0.813   4.930  10.069 -0.3082 -0.6216  2.1522
  489MOL0     H65956   0.837   4.627  10.144  0.9438 -0.0487  0.8051
  489MOL0     H65957   0.944   4.755  10.176 -0.7802  0.1935 -1.9334
  489MOL0     H65958   0.791   4.867  10.318  2.1586 -2.2050  3.0859
  489MOL0     H65959   0.651   4.770  10.262 -0.5529  2.1304  2.7693
  489MOL0     H65960   0.730   4.578  10.366  3.3063 -0.2865  0.7076
  489MOL0     H65961   0.846   4.681  10.450  1.5334  2.6707 -4.1948
  489MOL0     H65962   0.563   4.767  10.499 -0.6016 -1.5579  0.6202
  489MOL0     H65963   0.711   4.759  10.603  0.7997 -0.2092  0.4389
  489MOL0     H65964   0.555   4.603  10.684 -1.2770 -3.3732  0.5888
  489MOL0     H65965   0.545   4.519  10.528  2.8017 -0.6659 -1.9046
  489MOL0     H65966   0.753   4.361  10.464  0.6532 -1.4415  0.0572
  489MOL0     H65967   1.020   4.277  10.524 -2.7507  2.9872 -0.8874
  489MOL0     H65968   1.023   4.193  10.693  0.3525  1.4667 -0.0131
  489MOL0     H65969   0.929   4.035  10.614  2.1239  1.7356  0.7697
  489MOL0     H65970   0.789   4.120  10.565  0.6098 -1.1628  1.5550
  489MOL0     H65971   1.046   4.055  10.401 -0.2744 -1.3971  4.0283
  489MOL0     H65972   0.905   4.146  10.340  2.9566 -0.6701 -2.2721
  489MOL0     H65973   0.816   3.948  10.273  1.0307 -0.3057  0.2206
  489MOL0     H65974   0.779   3.928  10.435  1.5440  0.8249  1.6966
  489MOL0     H65975   1.046   3.602  10.474 -0.7218 -1.9739  1.4005
  489MOL0     H65976   1.002   3.359  10.361 -0.5994 -0.9541 -3.5760
  489MOL0     H65977   0.545   3.208  10.183  0.0077  0.4839 -0.6262
  489MOL0     H65978   0.431   3.008  10.131 -2.0903  2.2115  0.6283
  489MOL0     H65979   0.627   2.723   9.805  0.4758 -0.5000  0.0837
  489MOL0     H65980   0.708   2.714   9.957  0.2006 -1.7601 -0.2138
  489MOL0     H65981   0.662   2.521   9.919  0.8321 -0.2085  1.3786
  489MOL0     H65982   0.561   2.554  10.048  2.3763  0.1038  0.1841
  489MOL0     H65983   0.373   2.581   9.876 -0.8178 -0.8771 -2.4366
  489MOL0     H65984   0.504   2.525   9.762  2.7261  0.4166  1.2700
  489MOL0     H65985   0.370   2.335   9.790  2.2564  0.2482 -1.1601
  489MOL0     H65986   0.370   2.364   9.976  0.7113 -0.3657  0.8076
  489MOL0     H65987   0.487   2.159   9.910  4.3292 -1.4270 -0.5954
  489MOL0     H65988   0.602   2.286   9.955  0.2034  0.7313  0.0586
  489MOL0     H65989   0.521   2.253   9.673 -1.6040 -1.6608  1.3301
  489MOL0     H65990   0.651   2.341   9.741  0.1286 -0.1916 -2.3621
  489MOL0     H65991   0.703   2.124   9.619 -3.0683 -1.5019  0.1565
  489MOL0     H65992   0.611   2.045   9.748 -2.1900  0.4491  0.8426
  489MOL0     H65993   0.860   2.204   9.807  0.6702  0.4435  1.7108
  489MOL0     H65994   0.797   2.056   9.896 -1.8231 -2.5856 -0.8047
  489MOL0     H65995   0.743   2.911   9.833  1.2736  0.4419 -0.6625
  489MOL0     H65996   0.832   3.141   9.878 -1.1623  1.9371 -0.5467
  489MOL0     H65997   0.753   3.568  10.078  0.8831  2.5648  0.2764
  489MOL0     H65998   0.789   3.775  10.184 -2.3910 -0.4594 -0.1294
  489MOL0     H65999   1.125   4.602   9.803  0.8173 -1.6956  1.0427
  489MOL0     H66000   1.343   4.518   9.733  0.5070  0.0434  0.7256
  489MOL0     H66001   1.800   4.610   9.749  0.1607 -0.9685  2.3801
  489MOL0     H66002   1.997   4.556   9.587  0.6946 -0.9090 -4.5053
  489MOL0     H66003   1.944   4.287   9.312 -0.6851 -3.2580 -1.3909
  489MOL0     H66004   1.985   4.139   9.409  0.5609 -0.2548  0.3208
  489MOL0     H66005   2.229   4.200   9.349 -0.0884 -1.5250  0.4696
  489MOL0     H66006   2.153   4.327   9.241 -3.9971  0.8370  0.0213
  489MOL0     H66007   2.048   4.181   9.096  0.7049  2.9893  1.1249
  489MOL0     H66008   2.045   4.047   9.216 -1.7078  2.6253  3.5302
  489MOL0     H66009   2.282   4.004   9.184 -1.4800 -0.9827 -0.8303
  489MOL0     H66010   2.202   3.980   9.033 -0.8180 -1.0941  0.8270
  489MOL0     H66011   2.470   4.312   8.965 -0.8052 -0.2898 -0.7392
  489MOL0     H66012   1.804   4.190   9.496 -1.3511  1.2913 -0.4329
  489MOL0     H66013   1.603   4.118   9.548 -2.4836 -1.9653  3.1120
  489MOL0     H66014   1.509   4.195   9.670  0.6037  4.7512  1.1727
  489MOL0     H66015   1.515   4.260   9.508 -0.3601 -0.6131 -1.1199
  490MOL0     O66016   0.621   1.149  11.390 -0.5888 -0.0328  0.5171
  490MOL0     C66017   0.585   1.194  11.497  0.6696 -0.0885 -0.1795
  490MOL0     O66018   0.656   1.184  11.609 -0.2906  0.1900  0.4832
  490MOL0     C66019   0.789   1.171  11.586 -0.8202  0.5294  0.2709
  490MOL0     C66020   0.860   1.291  11.620 -0.3252  0.2874  0.4647
  490MOL0     C66021   0.997   1.304  11.593  0.5512 -0.7890 -1.2574
  490MOL0     C66022   1.069   1.195  11.525  1.0247  0.0892 -1.3777
  490MOL0     O66023   1.202   1.187  11.495 -0.6092 -0.5893 -0.0041
  490MOL0     C66024   1.286   1.306  11.509  0.9714 -0.3475 -0.6553
  490MOL0     C66025   1.441   1.275  11.503 -0.7505 -0.5202  0.1335
  490MOL0     C66026   1.487   1.244  11.361  0.3287 -0.3593 -0.2358
  490MOL0     C66027   1.415   1.120  11.313 -0.0019 -0.3216 -0.4086
  490MOL0     C66028   1.502   1.053  11.198  0.3801  0.2007 -0.4079
  490MOL0     C66029   1.519   1.121  11.062 -0.5074 -0.1425  0.7561
  490MOL0     C66030   1.388   1.151  10.996 -0.3928 -0.5233  1.4973
  490MOL0     C66031   1.411   1.212  10.854  0.2020  0.3949  0.7136
  490MOL0     N66032   1.287   1.217  10.767 -0.2924  0.4836  0.0321
  490MOL0     C66033   1.223   1.109  10.709  0.3092 -0.6096  0.4123
  490MOL0     C66034   1.133   1.173  10.620  0.1839 -0.6717 -0.6856
  490MOL0     C66035   1.028   1.103  10.545  0.1804  0.2102  0.1325
  490MOL0     C66036   0.909   1.116  10.651 -0.3981  0.5947  0.0008
  490MOL0     C66037   0.783   1.033  10.636  0.5469  0.6341 -0.6131
  490MOL0     C66038   0.795   0.877  10.662 -0.0152 -0.5132  0.5861
  490MOL0     O66039   0.894   0.805  10.582  0.5651 -0.1530 -0.1474
  490MOL0     C66040   0.859   0.744  10.460 -0.1922 -0.7756 -0.6186
  490MOL0     C66041   0.944   0.630  10.421 -0.5629 -0.6240  0.0090
  490MOL0     C66042   0.920   0.550  10.308  0.1777  0.6152  0.4407
  490MOL0     C66043   0.820   0.596  10.213  0.8811  0.1805  0.2569
  490MOL0     C66044   0.809   0.527  10.085 -0.5772 -0.1100  0.4199
  490MOL0     O66045   0.738   0.592   9.987 -0.1599 -0.7890 -0.1458
  490MOL0     C66046   0.701   0.502   9.887  0.5104  0.3855 -0.0123
  490MOL0     C66047   0.569   0.450   9.899 -0.2917 -0.5978 -0.7898
  490MOL0     C66048   0.528   0.360   9.790  0.0094 -0.3804 -0.2499
  490MOL0     C66049   0.604   0.341   9.675 -0.2021 -0.2074 -0.9707
  490MOL0     O66050   0.550   0.253   9.585 -0.7972 -0.1143 -0.7623
  490MOL0     C66051   0.619   0.242   9.465 -0.9269  0.1555  0.6485
  490MOL0     C66052   0.554   0.143   9.370  0.4773 -1.3199 -0.2079
  490MOL0     C66053   0.490   0.208   9.248 -0.3653 -0.8348 -0.0849
  490MOL0     C66054   0.363   0.296   9.295  0.3698  0.4851  0.8419
  490MOL0     C66055   0.253   0.295   9.187  0.3294 -0.0911 -0.2315
  490MOL0     C66056   0.297   0.375   9.063  0.2575  0.1680  0.3097
  490MOL0     C66057   0.221   0.326   8.946  0.0620  0.1882 -0.5278
  490MOL0     C66058   0.228   0.408   8.822 -0.2242 -1.6946  0.3862
  490MOL0    Cl66059   0.375   0.399   8.739  0.0715  0.5435  0.0412
  490MOL0     C66060   0.730   0.409   9.668 -0.2065 -0.4922  0.2792
  490MOL0     C66061   0.782   0.490   9.774  0.3664  0.5191 -0.5845
  490MOL0     O66062   0.871   0.424  10.065  0.3020  0.0071  0.6844
  490MOL0     C66063   0.738   0.705  10.251  0.0835  0.6137  0.0882
  490MOL0     C66064   0.769   0.785  10.364  0.3106 -0.8486 -1.0142
  490MOL0     N66065   1.141   1.307  10.637 -0.8910 -1.0117  0.2820
  490MOL0     N66066   1.247   1.335  10.714  0.2121 -0.0670  0.7144
  490MOL0     C66067   0.997   1.076  11.517  0.9293  0.6786 -0.0053
  490MOL0     C66068   0.858   1.066  11.534  0.1194  0.0752  0.9173
  490MOL0     C66069   0.434   1.238  11.522  0.5666  0.7894  0.0527
  490MOL0     C66070   0.399   1.273  11.651 -0.7538 -0.2332 -0.0345
  490MOL0     C66071   0.272   1.299  11.691  0.9880  0.8557 -0.3676
  490MOL0     C66072   0.169   1.278  11.605  0.3400  0.5242  0.4475
  490MOL0     O66073   0.037   1.291  11.644  0.6566 -0.0012 -0.5533
  490MOL0     C66074  -0.065   1.263  11.556 -0.2611 -0.3095  0.1630
  490MOL0     C66075  -0.198   1.304  11.630  0.3442  1.4630  0.2179
  490MOL0     C66076  -0.322   1.313  11.532  0.1520 -1.0869 -0.5414
  490MOL0     C66077  -0.433   1.206  11.563 -0.1339 -0.3973 -0.0080
  490MOL0     C66078  -0.482   1.209  11.702  0.3959 -0.3380  0.0766
  490MOL0     C66079  -0.525   1.205  11.815  0.9160 -0.0547 -0.1065
  490MOL0     C66080   0.200   1.259  11.466 -0.0244  0.3177 -0.4129
  490MOL0     C66081   0.330   1.223  11.426 -0.6901  0.3956  0.7738
  490MOL0     C66082   0.347   1.203  11.279 -0.7840  0.6648 -0.2296
  490MOL0     H66083   0.817   1.382  11.660  1.8232  0.7763  1.8289
  490MOL0     H66084   1.039   1.393  11.638 -0.8916 -1.9413  2.7851
  490MOL0     H66085   1.258   1.376  11.429 -0.2917 -0.5428 -0.3922
  490MOL0     H66086   1.262   1.356  11.603 -1.3054  3.6116 -3.0441
  490MOL0     H66087   1.464   1.198  11.577 -0.6306  1.5140  2.3250
  490MOL0     H66088   1.492   1.367  11.532 -0.1757 -0.0940 -2.0314
  490MOL0     H66089   1.595   1.225  11.356  0.1868 -1.6648 -5.7299
  490MOL0     H66090   1.466   1.326  11.292  1.2531  0.1309  0.0570
  490MOL0     H66091   1.409   1.044  11.391 -1.6907  0.8373  0.6517
  490MOL0     H66092   1.311   1.133  11.282 -0.9983  2.3276  3.3710
  490MOL0     H66093   1.602   1.043  11.242  0.5295  2.9921  0.1132
  490MOL0     H66094   1.460   0.955  11.177 -4.0154  1.8325 -0.2495
  490MOL0     H66095   1.575   1.214  11.068 -0.6550 -0.0006 -0.0142
  490MOL0     H66096   1.574   1.056  10.993  0.0764  0.3701  0.7338
  490MOL0     H66097   1.322   1.223  11.045 -1.3256 -1.0739  1.0636
  490MOL0     H66098   1.344   1.052  10.986  0.3216 -0.7501  0.4283
  490MOL0     H66099   1.454   1.313  10.857 -1.0615  0.9656  0.6581
  490MOL0     H66100   1.485   1.146  10.808 -0.0552  2.2341 -2.7265
  490MOL0     H66101   1.249   1.004  10.716 -0.2211 -0.7646  0.1210
  490MOL0     H66102   0.998   1.143  10.447 -1.2981 -1.2014 -0.0382
  490MOL0     H66103   1.053   0.997  10.535  6.0676  1.1108  1.5063
  490MOL0     H66104   0.944   1.099  10.754  0.7423  0.1185 -0.4504
  490MOL0     H66105   0.884   1.223  10.645  1.0410  1.1659  2.6216
  490MOL0     H66106   0.739   1.044  10.537 -1.4641 -0.4828  0.0979
  490MOL0     H66107   0.714   1.065  10.715 -1.8175  1.4578 -2.8828
  490MOL0     H66108   0.695   0.835  10.647 -0.1300 -0.1428  0.3094
  490MOL0     H66109   0.820   0.866  10.768  0.2092  0.6184  0.6693
  490MOL0     H66110   1.020   0.594  10.489 -2.0807 -4.1413  0.0599
  490MOL0     H66111   0.989   0.468  10.287  1.9571  1.5768  2.1548
  490MOL0     H66112   0.517   0.490   9.985  1.6872  4.4213 -1.6182
  490MOL0     H66113   0.439   0.297   9.785 -0.7801  0.7918 -1.4195
  490MOL0     H66114   0.606   0.342   9.423  1.8883  0.3078 -0.0471
  490MOL0     H66115   0.727   0.239   9.482 -1.0784 -1.8777  1.5949
  490MOL0     H66116   0.637   0.083   9.331 -0.0261 -1.2698 -1.4020
  490MOL0     H66117   0.482   0.074   9.416 -0.8094  0.2930  0.2676
  490MOL0     H66118   0.564   0.271   9.197 -1.7971 -1.4632 -3.1520
  490MOL0     H66119   0.465   0.131   9.175 -0.1863 -2.3597  1.3992
  490MOL0     H66120   0.398   0.397   9.319  0.3057  0.2691  1.8991
  490MOL0     H66121   0.327   0.251   9.388  0.4596 -3.6131 -0.8886
  490MOL0     H66122   0.167   0.334   9.242  1.7643  1.4124  1.0724
  490MOL0     H66123   0.237   0.188   9.171 -0.8399  0.1059 -0.4776
  490MOL0     H66124   0.304   0.484   9.066  3.2313  0.1571 -1.5813
  490MOL0     H66125   0.398   0.339   9.039 -0.0431 -0.9556  0.6882
  490MOL0     H66126   0.116   0.333   8.975 -0.8701 -0.7089 -3.3286
  490MOL0     H66127   0.232   0.220   8.924 -1.4942 -0.0358 -0.2973
  490MOL0     H66128   0.143   0.378   8.760  0.0064  0.9359 -1.3780
  490MOL0     H66129   0.224   0.513   8.853 -1.0028 -2.0539  1.5970
  490MOL0     H66130   0.785   0.409   9.575 -1.4046 -1.9759 -0.4795
  490MOL0     H66131   0.879   0.537   9.788 -0.3330  1.5867  1.0287
  490MOL0     H66132   0.656   0.729  10.183  1.6290  2.2591 -1.3061
  490MOL0     H66133   0.710   0.874  10.387 -1.6916 -1.8460 -1.9639
  490MOL0     H66134   1.049   0.983  11.496  1.0540  0.8277 -0.3620
  490MOL0     H66135   0.803   0.973  11.523  1.6059 -0.7246 -0.0907
  490MOL0     H66136   0.477   1.299  11.722 -1.5445 -1.1625  1.2120
  490MOL0     H66137   0.241   1.320  11.793  0.1422 -0.0842 -0.4151
  490MOL0     H66138  -0.066   1.160  11.520  2.1196 -0.6716  0.9679
  490MOL0     H66139  -0.046   1.329  11.470  0.5568  2.1137  2.0785
  490MOL0     H66140  -0.186   1.407  11.665  2.2431  0.1577  4.0482
  490MOL0     H66141  -0.217   1.244  11.720  1.1225 -2.8963 -2.2289
  490MOL0     H66142  -0.290   1.306  11.427 -1.7125 -1.9480 -1.0894
  490MOL0     H66143  -0.376   1.406  11.546  2.7447  0.2046  2.0099
  490MOL0     H66144  -0.512   1.217  11.488 -0.4535 -0.2807  0.3434
  490MOL0     H66145  -0.396   1.107  11.536  0.1865  0.1006 -1.5404
  490MOL0     H66146  -0.569   1.196  11.913  3.8927  1.3617  1.4859
  490MOL0     H66147   0.120   1.245  11.395 -0.0654 -0.1371 -0.2840
  490MOL0     H66148   0.429   1.273  11.258  0.6895  0.9010  4.9997
  490MOL0     H66149   0.368   1.098  11.253 -2.0793 -0.4130  2.6446
  490MOL0     H66150   0.260   1.230  11.219  0.8497  0.8907 -2.6856
  491MOL0     O66151   5.819   0.489   0.300 -0.0459 -1.1165 -0.6979
  491MOL0     C66152   5.710   0.484   0.257 -0.1226  0.0123 -0.0892
  491MOL0     O66153   5.602   0.525   0.329  0.0194  0.4572  0.2076
  491MOL0     C66154   5.629   0.592   0.449  0.4143  0.3653 -0.0675
  491MOL0     C66155   5.620   0.725   0.448  0.2151 -0.5590  0.5117
  491MOL0     C66156   5.636   0.808   0.559 -0.0681 -0.0576  0.4910
  491MOL0     C66157   5.653   0.752   0.685 -0.6940 -0.0481 -0.6973
  491MOL0     O66158   5.645   0.807   0.818 -0.2104  0.9366 -0.0058
  491MOL0     C66159   5.656   0.947   0.825 -0.6414 -0.0963 -0.1248
  491MOL0     C66160   5.736   0.963   0.949  0.1164  0.4351 -0.3171
  491MOL0     C66161   5.677   0.920   1.085 -0.6555  0.2073 -0.6081
  491MOL0     C66162   5.624   1.041   1.167  0.6669  0.4161 -0.3530
  491MOL0     C66163   5.515   1.124   1.093  0.5555  0.1621 -1.0788
  491MOL0     C66164   5.420   1.190   1.198  0.9363 -0.3195  0.6770
  491MOL0     C66165   5.306   1.097   1.239  0.6074  0.1157 -0.5398
  491MOL0     C66166   5.265   1.125   1.386 -0.1386 -0.1630  0.4259
  491MOL0     N66167   5.173   1.032   1.426  0.7725  0.0114  0.6032
  491MOL0     C66168   5.187   0.890   1.433 -0.6103 -0.2346  0.1522
  491MOL0     C66169   5.057   0.861   1.465  0.7618  0.2965 -0.9630
  491MOL0     C66170   4.992   0.723   1.464 -0.3781  0.0052  0.9777
  491MOL0     C66171   4.962   0.692   1.610  0.3545  0.5813  0.1146
  491MOL0     C66172   4.877   0.570   1.642 -0.6576  0.2419  1.1593
  491MOL0     C66173   4.961   0.448   1.651 -0.7859 -0.2553 -0.0002
  491MOL0     O66174   5.056   0.474   1.752 -0.6468 -0.0988 -0.4451
  491MOL0     C66175   5.034   0.411   1.875 -0.0719  0.5505 -0.1904
  491MOL0     C66176   4.907   0.385   1.924 -1.0410 -0.0399  0.0390
  491MOL0     C66177   4.896   0.329   2.059  0.0802  0.1835  0.9164
  491MOL0     C66178   5.018   0.301   2.130  0.4834  0.4627  0.4313
  491MOL0     C66179   5.004   0.238   2.267 -0.2693  0.5635 -0.2875
  491MOL0     O66180   4.878   0.206   2.314 -0.5722 -0.9131  0.2419
  491MOL0     C66181   4.853   0.140   2.434 -0.2702 -1.1657  0.0785
  491MOL0     C66182   4.923   0.024   2.480 -0.6362 -0.0093  0.1566
  491MOL0     C66183   4.875  -0.035   2.593  0.5215 -0.0196 -0.5958
  491MOL0     C66184   4.765   0.022   2.667  0.3356  0.6787  0.2736
  491MOL0     O66185   4.752  -0.030   2.801  0.0951 -0.1990 -0.0901
  491MOL0     C66186   4.622  -0.054   2.833 -0.2897  0.3649 -0.3223
  491MOL0     C66187   4.606  -0.108   2.972 -0.1983 -0.0965  0.2516
  491MOL0     C66188   4.458  -0.129   3.016  0.1767 -0.5998  0.5053
  491MOL0     C66189   4.381   0.005   3.046 -0.4382 -0.7084 -0.0572
  491MOL0     C66190   4.228  -0.039   3.077 -0.0033 -0.4693 -0.1636
  491MOL0     C66191   4.208  -0.111   3.213 -1.0605 -0.7016  0.0530
  491MOL0     C66192   4.072  -0.103   3.274 -0.0186 -0.0834  0.6280
  491MOL0     C66193   4.046  -0.176   3.396 -0.2911 -0.0354  0.7886
  491MOL0    Cl66194   3.907  -0.097   3.478  0.0030  0.1608  0.0491
  491MOL0     C66195   4.699   0.136   2.619 -0.2936  0.0839 -0.2365
  491MOL0     C66196   4.744   0.193   2.503  0.1563 -0.7411  0.2708
  491MOL0     O66197   5.107   0.234   2.337 -0.0607  0.0023  0.0574
  491MOL0     C66198   5.146   0.317   2.068  0.3551 -0.6751  0.4108
  491MOL0     C66199   5.155   0.378   1.942  0.6079  0.0378  0.1564
  491MOL0     N66200   4.974   0.967   1.458 -0.1627 -0.7856 -0.5240
  491MOL0     N66201   5.046   1.071   1.444  0.5835  0.3853 -0.1354
  491MOL0     C66202   5.674   0.613   0.689 -0.5600 -0.0695  0.1373
  491MOL0     C66203   5.652   0.531   0.578  0.0689  0.6755 -0.3362
  491MOL0     C66204   5.695   0.415   0.121 -0.2518 -0.0381  0.5557
  491MOL0     C66205   5.566   0.407   0.071 -0.1316 -0.3451 -0.2705
  491MOL0     C66206   5.519   0.336  -0.041 -0.4205 -0.9557 -1.3342
  491MOL0     C66207   5.618   0.262  -0.101  0.8705 -0.0689 -0.3098
  491MOL0     O66208   5.594   0.186  -0.216 -0.0511 -0.0480 -0.8285
  491MOL0     C66209   5.461   0.164  -0.264  0.0501  0.0201  0.3511
  491MOL0     C66210   5.394   0.061  -0.170 -0.6556  0.6560 -0.6721
  491MOL0     C66211   5.294  -0.031  -0.241 -0.5187  0.8584 -0.4638
  491MOL0     C66212   5.234  -0.136  -0.147 -0.0228 -0.5042  0.2053
  491MOL0     C66213   5.124  -0.206  -0.209 -0.1031  0.0396 -0.3547
  491MOL0     C66214   5.022  -0.237  -0.265  0.2086  0.4051  1.0110
  491MOL0     C66215   5.755   0.269  -0.061  0.0564 -1.0755  0.9389
  491MOL0     C66216   5.794   0.347   0.048  0.2727 -0.7104  0.5483
  491MOL0     C66217   5.938   0.392   0.057  0.9409  0.1957 -0.2065
  491MOL0     H66218   5.603   0.776   0.354  0.8898 -1.7593 -0.2809
  491MOL0     H66219   5.644   0.915   0.543  0.8784 -0.3482 -1.1464
  491MOL0     H66220   5.710   0.997   0.745 -1.0850  1.2656  0.3978
  491MOL0     H66221   5.558   0.993   0.837 -0.9967 -1.0640  0.9218
  491MOL0     H66222   5.770   1.067   0.948  0.6755  0.2612 -0.1719
  491MOL0     H66223   5.829   0.908   0.932  0.2276  0.9849 -1.6319
  491MOL0     H66224   5.757   0.869   1.139 -1.3949 -0.7713 -0.3862
  491MOL0     H66225   5.603   0.839   1.076  0.4379 -0.6664 -2.1009
  491MOL0     H66226   5.592   1.001   1.264  4.2200 -0.8632  0.4166
  491MOL0     H66227   5.706   1.109   1.189  1.5721 -0.5475 -0.6673
  491MOL0     H66228   5.574   1.210   1.061  1.0825  1.2908  2.4798
  491MOL0     H66229   5.471   1.067   1.010  2.2980  1.2308 -2.8418
  491MOL0     H66230   5.481   1.207   1.287  1.5434  0.1226  0.1798
  491MOL0     H66231   5.375   1.283   1.162 -3.2372 -2.1220  0.6424
  491MOL0     H66232   5.344   0.995   1.231 -0.8605 -0.4453 -0.6167
  491MOL0     H66233   5.220   1.098   1.172 -0.6148  0.6145  0.9666
  491MOL0     H66234   5.353   1.118   1.450 -0.0972  4.5490  1.2295
  491MOL0     H66235   5.220   1.224   1.401 -0.1034 -0.2102  0.8553
  491MOL0     H66236   5.272   0.824   1.417  1.1869  1.5823  1.6903
  491MOL0     H66237   4.913   0.707   1.390  2.3518 -0.8360 -1.9414
  491MOL0     H66238   5.068   0.653   1.430 -4.3900 -3.0066 -3.1287
  491MOL0     H66239   5.056   0.692   1.667 -0.2681 -0.2648  1.1558
  491MOL0     H66240   4.900   0.776   1.642  0.2990  0.2570  0.8790
  491MOL0     H66241   4.796   0.558   1.571 -0.3320  1.8292  0.4644
  491MOL0     H66242   4.833   0.575   1.742  1.1696  0.6821  1.9819
  491MOL0     H66243   5.017   0.425   1.560 -1.2484  0.6502 -0.5300
  491MOL0     H66244   4.900   0.361   1.678 -1.1603 -0.1460 -0.4818
  491MOL0     H66245   4.820   0.403   1.862  1.5036  1.3127 -3.3867
  491MOL0     H66246   4.795   0.314   2.096 -1.4263  2.6968 -1.7508
  491MOL0     H66247   5.008  -0.027   2.434  1.2386 -0.6775  3.9768
  491MOL0     H66248   4.920  -0.125   2.633 -0.9407  0.1815  1.6786
  491MOL0     H66249   4.563   0.037   2.820 -0.8863  0.1454  0.7280
  491MOL0     H66250   4.575  -0.132   2.772  1.2591 -0.7225 -0.1836
  491MOL0     H66251   4.652  -0.205   2.990 -0.9817  0.1042  4.1827
  491MOL0     H66252   4.652  -0.036   3.041 -1.6746  0.2461  0.9284
  491MOL0     H66253   4.395  -0.186   2.947 -0.9985  1.3962 -0.1571
  491MOL0     H66254   4.473  -0.190   3.105 -0.9577 -1.3099  0.2309
  491MOL0     H66255   4.379   0.060   2.952 -2.2352 -1.0248 -0.2432
  491MOL0     H66256   4.423   0.067   3.126  1.5698 -0.3660 -1.3142
  491MOL0     H66257   4.191  -0.094   2.990 -0.3823  1.0791 -1.0185
  491MOL0     H66258   4.157   0.043   3.090  1.4784  1.1000 -1.5816
  491MOL0     H66259   4.225  -0.218   3.200 -2.8764 -0.9759 -0.3706
  491MOL0     H66260   4.279  -0.068   3.284 -1.9697  2.2477 -0.6939
  491MOL0     H66261   3.999  -0.132   3.198 -1.4963  2.3630  1.0023
  491MOL0     H66262   4.068   0.004   3.299 -1.2989 -0.1400  0.6837
  491MOL0     H66263   4.016  -0.279   3.371 -0.2413  0.1255  0.0418
  491MOL0     H66264   4.134  -0.200   3.456  2.4768  0.6356 -2.7351
  491MOL0     H66265   4.620   0.187   2.674  0.1814  0.4578  0.1162
  491MOL0     H66266   4.711   0.294   2.483 -1.2264 -0.4311  3.4687
  491MOL0     H66267   5.248   0.307   2.104  0.5742  3.5182  1.4077
  491MOL0     H66268   5.250   0.418   1.908  0.6346 -0.2514 -0.1172
  491MOL0     H66269   5.679   0.568   0.787  1.7529  3.0502  1.6061
  491MOL0     H66270   5.663   0.423   0.575  2.4184  0.7674  1.8297
  491MOL0     H66271   5.485   0.466   0.114  1.7764  0.5327  2.4075
  491MOL0     H66272   5.413   0.335  -0.067 -0.0238 -1.0098 -3.0697
  491MOL0     H66273   5.472   0.118  -0.362  0.8969  2.9347 -1.0390
  491MOL0     H66274   5.408   0.259  -0.276 -0.4878 -0.3210 -0.0218
  491MOL0     H66275   5.333   0.114  -0.096  1.5194 -0.6053  2.2857
  491MOL0     H66276   5.468   0.003  -0.113  0.0548  2.6841  0.5652
  491MOL0     H66277   5.339  -0.083  -0.327 -1.2432  2.1841 -1.7081
  491MOL0     H66278   5.207   0.030  -0.267 -1.3541  1.1234  2.6484
  491MOL0     H66279   5.304  -0.213  -0.114  0.8118 -0.5276 -1.5244
  491MOL0     H66280   5.173  -0.085  -0.072 -2.7375 -2.4135 -0.5520
  491MOL0     H66281   4.932  -0.258  -0.319  1.3791  0.9025 -1.2355
  491MOL0     H66282   5.822   0.227  -0.135 -0.7837  2.3942 -2.0565
  491MOL0     H66283   5.940   0.500   0.074 -3.6290  0.2501  1.4382
  491MOL0     H66284   5.977   0.340   0.144  0.4844  0.4179  0.1327
  491MOL0     H66285   5.994   0.374  -0.035  1.7562  3.3964 -0.4714
  492MOL0     O66286   7.407   2.500   0.928 -0.5656 -0.1106 -0.5455
  492MOL0     C66287   7.441   2.606   0.882 -0.4370  0.0793  0.4417
  492MOL0     O66288   7.445   2.643   0.749 -0.2465 -0.8618 -0.2372
  492MOL0     C66289   7.410   2.542   0.659 -0.5530 -0.3469  0.8109
  492MOL0     C66290   7.276   2.532   0.618 -1.0291  0.5594 -1.1028
  492MOL0     C66291   7.239   2.422   0.539 -0.3505 -0.0241 -0.0951
  492MOL0     C66292   7.337   2.333   0.502 -0.7219 -0.1037  0.3398
  492MOL0     O66293   7.285   2.233   0.427 -0.0818 -0.3735 -0.2649
  492MOL0     C66294   7.331   2.236   0.296 -0.7226 -0.1849  0.0058
  492MOL0     C66295   7.262   2.125   0.216 -1.2576 -0.7075 -0.0029
  492MOL0     C66296   7.355   1.993   0.238  1.3943  1.0213  0.5916
  492MOL0     C66297   7.465   1.978   0.349 -0.4474  0.5139 -0.1502
  492MOL0     C66298   7.485   1.831   0.384 -0.5791 -0.5420 -0.2064
  492MOL0     C66299   7.589   1.751   0.303  0.0791  1.0285  0.2260
  492MOL0     C66300   7.723   1.808   0.263  0.0580  0.2506 -1.2854
  492MOL0     C66301   7.790   1.866   0.387  0.6148 -0.2146 -1.0343
  492MOL0     N66302   7.849   1.762   0.482 -0.2601 -0.1285 -0.1159
  492MOL0     C66303   7.805   1.737   0.613  0.0001  1.4027 -0.0440
  492MOL0     C66304   7.888   1.637   0.661 -0.9108  0.1464  0.4167
  492MOL0     C66305   7.901   1.565   0.789  0.5102 -0.0943  0.3165
  492MOL0     C66306   8.019   1.610   0.867  0.2641 -0.0058 -0.1000
  492MOL0     C66307   8.003   1.640   1.020 -0.8731  0.3728  0.0010
  492MOL0     C66308   7.967   1.521   1.106  0.4710  0.5494 -0.1495
  492MOL0     O66309   7.954   1.546   1.249  0.3360 -0.0905  0.4133
  492MOL0     C66310   7.866   1.641   1.286 -0.7315 -0.3425  0.3668
  492MOL0     C66311   7.915   1.757   1.331 -0.3254 -0.7024 -0.2274
  492MOL0     C66312   7.839   1.862   1.383 -0.3477 -0.1402  0.4388
  492MOL0     C66313   7.706   1.836   1.374  0.2021 -0.3052 -0.4920
  492MOL0     C66314   7.622   1.941   1.430 -0.5534  0.0502  0.0232
  492MOL0     O66315   7.491   1.907   1.452 -0.2540 -0.0017 -0.4550
  492MOL0     C66316   7.411   2.006   1.492 -0.1682 -0.0333 -0.0770
  492MOL0     C66317   7.361   2.019   1.617  0.6062  0.2821 -0.8552
  492MOL0     C66318   7.280   2.130   1.653 -0.7059  0.5740  0.2003
  492MOL0     C66319   7.243   2.234   1.563 -0.0383  0.2649 -0.6081
  492MOL0     O66320   7.159   2.328   1.605  0.0924 -0.4593 -0.5763
  492MOL0     C66321   7.115   2.423   1.507  0.0874  0.5549 -0.9857
  492MOL0     C66322   7.034   2.524   1.593 -0.4929 -0.4453 -0.3778
  492MOL0     C66323   6.885   2.462   1.597 -0.0316 -0.0516 -0.7542
  492MOL0     C66324   6.794   2.547   1.684  0.8132  0.3704 -0.6700
  492MOL0     C66325   6.665   2.480   1.711 -0.1119  1.5250  0.5187
  492MOL0     C66326   6.682   2.347   1.793 -0.0769  0.7677  0.0338
  492MOL0     C66327   6.549   2.274   1.816  0.9040 -0.0718 -0.5478
  492MOL0     C66328   6.422   2.349   1.853  0.6893 -1.2578  0.3100
  492MOL0    Cl66329   6.287   2.231   1.855  0.1162 -0.2471 -0.2897
  492MOL0     C66330   7.309   2.229   1.445 -1.1837  0.4653  0.3028
  492MOL0     C66331   7.383   2.112   1.406 -0.3183  0.4101 -0.3044
  492MOL0     O66332   7.670   2.051   1.457 -0.5178  0.5930  0.0944
  492MOL0     C66333   7.647   1.717   1.342 -0.5958  0.1038 -0.0953
  492MOL0     C66334   7.736   1.614   1.295 -0.3512 -0.0247  0.3327
  492MOL0     N66335   7.980   1.619   0.559 -0.7674 -0.3396  0.3726
  492MOL0     N66336   7.956   1.690   0.452 -0.4202 -0.2440 -0.4305
  492MOL0     C66337   7.472   2.339   0.534 -0.3975 -1.2330 -1.0785
  492MOL0     C66338   7.512   2.451   0.609 -0.1530 -0.1949  1.3368
  492MOL0     C66339   7.489   2.715   0.978  0.0343 -0.2699  1.5014
  492MOL0     C66340   7.543   2.840   0.936 -0.0957  0.3191  0.1621
  492MOL0     C66341   7.595   2.939   1.018 -0.1177  0.7141  0.2153
  492MOL0     C66342   7.589   2.926   1.155 -0.6315  0.5356  0.3467
  492MOL0     O66343   7.620   3.019   1.255 -0.5034  0.5451  0.6540
  492MOL0     C66344   7.732   3.110   1.227  0.4898  0.3177  0.2548
  492MOL0     C66345   7.742   3.223   1.334 -0.6172  0.9373  0.7097
  492MOL0     C66346   7.725   3.357   1.250 -0.4928  0.7663  0.2522
  492MOL0     C66347   7.727   3.483   1.341  0.1516  0.3700  0.2682
  492MOL0     C66348   7.627   3.485   1.448  0.0153 -0.3915 -0.2338
  492MOL0     C66349   7.560   3.502   1.552  0.1566  0.8885  0.5265
  492MOL0     C66350   7.528   2.803   1.202 -0.7151 -0.5540  0.5713
  492MOL0     C66351   7.487   2.701   1.117 -0.0495 -0.1461 -0.1273
  492MOL0     C66352   7.425   2.586   1.196 -0.1873  0.0301  0.0241
  492MOL0     H66353   7.202   2.607   0.643 -1.0754  0.2571 -0.2833
  492MOL0     H66354   7.137   2.408   0.506  0.1309 -2.4335 -0.7600
  492MOL0     H66355   7.304   2.320   0.232 -3.4414 -1.4496 -0.6825
  492MOL0     H66356   7.439   2.224   0.301 -0.3794  2.5253  0.3786
  492MOL0     H66357   7.272   2.140   0.108 -0.1059  0.2304  0.2217
  492MOL0     H66358   7.159   2.106   0.248 -1.0048 -3.0028 -0.4299
  492MOL0     H66359   7.401   1.963   0.143  1.4515  1.1562  0.5775
  492MOL0     H66360   7.271   1.926   0.259  2.5648 -0.4464  0.7325
  492MOL0     H66361   7.562   2.028   0.336  0.7604 -1.5298  0.5284
  492MOL0     H66362   7.437   2.021   0.445  1.2832 -0.5497  0.8864
  492MOL0     H66363   7.518   1.820   0.487 -0.1723 -0.9982 -0.3762
  492MOL0     H66364   7.388   1.781   0.381 -2.8656  3.4387  0.5953
  492MOL0     H66365   7.600   1.659   0.361 -3.2717 -1.5338 -2.7239
  492MOL0     H66366   7.535   1.713   0.215 -3.4890 -1.5015  3.1916
  492MOL0     H66367   7.707   1.886   0.187  3.1221  0.4702 -1.8467
  492MOL0     H66368   7.786   1.733   0.215 -1.1150 -1.0027 -0.9058
  492MOL0     H66369   7.866   1.940   0.360  0.3419 -0.5336 -2.7899
  492MOL0     H66370   7.714   1.925   0.440 -0.9119 -2.2323 -0.8803
  492MOL0     H66371   7.718   1.781   0.660 -1.5635  1.0674 -2.4674
  492MOL0     H66372   7.810   1.595   0.841  1.1240 -0.2375  1.5145
  492MOL0     H66373   7.900   1.463   0.752  0.9514 -0.4715  1.2946
  492MOL0     H66374   8.091   1.530   0.852 -0.4371 -1.7409  4.1337
  492MOL0     H66375   8.066   1.698   0.823 -0.6589  0.9460  0.7564
  492MOL0     H66376   7.938   1.724   1.045 -0.5664  1.1954 -1.7843
  492MOL0     H66377   8.100   1.685   1.043 -0.4464  0.6311 -2.0299
  492MOL0     H66378   8.047   1.447   1.099 -0.5607 -0.5503 -0.7392
  492MOL0     H66379   7.871   1.480   1.072  0.6538  0.7140 -0.8760
  492MOL0     H66380   8.023   1.769   1.322  0.2418 -3.9940  0.9426
  492MOL0     H66381   7.873   1.955   1.429  2.1009 -1.3547  1.2718
  492MOL0     H66382   7.375   1.941   1.692 -0.0990  0.5344 -0.4526
  492MOL0     H66383   7.242   2.142   1.754  0.1856  0.8209  0.5193
  492MOL0     H66384   7.199   2.469   1.454  0.5299  1.8907  0.8101
  492MOL0     H66385   7.056   2.381   1.424 -0.9933  1.0260 -0.4757
  492MOL0     H66386   7.073   2.536   1.694 -3.3095 -2.1170  1.0369
  492MOL0     H66387   7.036   2.618   1.536  7.4367 -0.1003 -0.5667
  492MOL0     H66388   6.853   2.458   1.493 -1.6324 -0.7140 -0.2667
  492MOL0     H66389   6.889   2.355   1.619  4.2112  0.0905  0.0002
  492MOL0     H66390   6.785   2.646   1.639  2.1286  0.7037 -0.2489
  492MOL0     H66391   6.839   2.574   1.780 -1.2588  1.1386  0.1596
  492MOL0     H66392   6.617   2.451   1.618  0.4356  1.3632  0.2814
  492MOL0     H66393   6.599   2.551   1.762 -0.7977  2.0954 -1.1038
  492MOL0     H66394   6.758   2.282   1.749  0.5546  0.9682  0.8032
  492MOL0     H66395   6.711   2.376   1.895  1.4496  1.2145 -0.5040
  492MOL0     H66396   6.566   2.201   1.896 -1.2652 -1.1964 -1.0516
  492MOL0     H66397   6.520   2.211   1.732 -1.0788 -0.3442  0.2865
  492MOL0     H66398   6.432   2.407   1.944 -0.1282 -1.1621  0.3438
  492MOL0     H66399   6.401   2.425   1.776  1.6515 -1.6234 -0.3390
  492MOL0     H66400   7.296   2.308   1.371  0.1136  0.0149 -0.4451
  492MOL0     H66401   7.419   2.123   1.304 -3.7806 -1.1770 -1.8720
  492MOL0     H66402   7.541   1.695   1.353 -0.6301  0.0762 -0.4761
  492MOL0     H66403   7.707   1.513   1.268  3.1247 -0.9160 -0.4375
  492MOL0     H66404   7.541   2.259   0.511  1.1425 -0.8524  1.7156
  492MOL0     H66405   7.618   2.462   0.629  0.4664 -0.0487 -1.5632
  492MOL0     H66406   7.533   2.856   0.829  1.7225 -0.5253 -0.1823
  492MOL0     H66407   7.628   3.031   0.971  0.1728  0.5782  0.1510
  492MOL0     H66408   7.719   3.159   1.130 -0.2593 -0.4773 -0.0642
  492MOL0     H66409   7.825   3.053   1.227 -1.0601 -2.5157  2.5961
  492MOL0     H66410   7.842   3.221   1.381 -1.0632 -0.5972  1.6739
  492MOL0     H66411   7.656   3.205   1.399 -0.6802  0.1108  0.4000
  492MOL0     H66412   7.640   3.363   1.181 -0.4994  1.5206  0.3222
  492MOL0     H66413   7.817   3.361   1.192 -0.1010 -1.9298  0.5449
  492MOL0     H66414   7.827   3.507   1.380  0.0468  0.5852  0.4063
  492MOL0     H66415   7.714   3.569   1.275  3.4027  0.2565 -0.6912
  492MOL0     H66416   7.501   3.504   1.641  1.0640 -2.9806  1.3819
  492MOL0     H66417   7.521   2.795   1.310  2.8489  0.9053  1.0772
  492MOL0     H66418   7.442   2.587   1.304  0.7897 -1.2122 -0.0964
  492MOL0     H66419   7.318   2.573   1.179  0.0492 -2.5768  0.0517
  492MOL0     H66420   7.482   2.494   1.179  2.0353  1.0100  1.6857
  493MOL0     O66421   7.950  11.173   9.785  0.0598  0.3264  0.6733
  493MOL0     C66422   7.959  11.151   9.910 -0.8560 -0.5766  0.2817
  493MOL0     O66423   7.886  11.218  10.001  0.1933  0.6206 -0.2502
  493MOL0     C66424   7.783  11.291   9.946 -0.4344 -0.2649 -0.8112
  493MOL0     C66425   7.807  11.416   9.876 -0.1471 -0.9794 -0.4555
  493MOL0     C66426   7.694  11.492   9.845 -0.4370  0.9689 -0.9952
  493MOL0     C66427   7.562  11.452   9.877  0.0933  0.2788  0.0908
  493MOL0     O66428   7.454  11.535   9.856  0.3146  0.5914 -0.4802
  493MOL0     C66429   7.472  11.674   9.878 -0.6806 -0.5514 -0.6352
  493MOL0     C66430   7.336  11.742   9.906 -0.2538 -0.2333  0.1075
  493MOL0     C66431   7.341  11.898   9.902 -0.3198 -0.7274 -0.2654
  493MOL0     C66432   7.352  11.962   9.764  0.0086 -0.3707  0.9465
  493MOL0     C66433   7.356  12.120   9.769  0.2200 -0.0439 -0.2410
  493MOL0     C66434   7.452  12.157   9.877 -0.3604  0.2233 -0.0229
  493MOL0     C66435   7.489  12.302   9.882  0.6129 -0.4695  0.5517
  493MOL0     C66436   7.591  12.320  10.001  0.0609  0.4798  0.7882
  493MOL0     N66437   7.637  12.460  10.031  0.0397  0.9284  0.3825
  493MOL0     C66438   7.581  12.575   9.995 -0.7588 -0.7949 -0.0188
  493MOL0     C66439   7.671  12.675  10.032  0.9813 -0.1913  0.6923
  493MOL0     C66440   7.642  12.819  10.017  1.4455 -0.9325  0.5048
  493MOL0     C66441   7.699  12.890   9.889  0.2901 -0.4736  0.1728
  493MOL0     C66442   7.855  12.917   9.894  0.5789 -0.1908  0.4283
  493MOL0     C66443   7.899  13.019  10.001 -0.1631 -0.1352 -0.6731
  493MOL0     O66444   8.033  13.065   9.996  0.7270 -0.3509  0.2458
  493MOL0     C66445   8.131  12.975  10.033 -1.1817 -1.1284 -0.3794
  493MOL0     C66446   8.257  13.033  10.016  0.5264  1.6332  0.2203
  493MOL0     C66447   8.370  12.953  10.060 -1.2963 -0.7980 -0.7249
  493MOL0     C66448   8.358  12.816  10.100  0.4789  0.1182 -0.8206
  493MOL0     C66449   8.480  12.728  10.117 -0.9544  0.2426  0.1324
  493MOL0     O66450   8.466  12.592  10.093  0.6137 -0.3370 -0.1528
  493MOL0     C66451   8.571  12.509  10.118  0.4890  0.4960  1.1228
  493MOL0     C66452   8.685  12.510  10.033 -0.9130  0.4654 -0.3819
  493MOL0     C66453   8.769  12.394  10.040 -1.0598 -0.2818 -0.8949
  493MOL0     C66454   8.753  12.303  10.141 -1.0459  0.0106 -1.1259
  493MOL0     O66455   8.849  12.194  10.148  0.7107  0.2002  1.0763
  493MOL0     C66456   8.863  12.132  10.270 -0.5386  0.3339  0.4861
  493MOL0     C66457   9.011  12.120  10.308  0.8738  0.2826  0.2662
  493MOL0     C66458   9.026  12.060  10.450 -0.0564  0.4008 -0.5367
  493MOL0     C66459   8.990  12.148  10.563 -0.2062 -0.6334 -0.5510
  493MOL0     C66460   9.042  12.092  10.702 -0.2008  0.3454  0.2704
  493MOL0     C66461   9.029  12.189  10.811  0.0759 -0.6891  0.3492
  493MOL0     C66462   9.140  12.301  10.809  0.0069  1.2141 -0.5685
  493MOL0     C66463   9.271  12.278  10.880  0.6475 -0.4457 -0.1252
  493MOL0    Cl66464   9.259  12.219  11.052 -0.7605  0.2991 -0.2131
  493MOL0     C66465   8.632  12.298  10.213  0.7601 -0.5444 -0.4728
  493MOL0     C66466   8.538  12.399  10.201  0.8711  0.4742  0.1277
  493MOL0     O66467   8.585  12.790  10.149 -0.2627 -0.0031  0.1718
  493MOL0     C66468   8.226  12.769  10.103  0.4192 -0.0738  0.1238
  493MOL0     C66469   8.113  12.845  10.081 -0.0915 -0.5056 -0.6171
  493MOL0     N66470   7.770  12.618  10.108 -0.4931  0.2853  0.6121
  493MOL0     N66471   7.752  12.489  10.105  1.1226  0.0914  1.3057
  493MOL0     C66472   7.538  11.329   9.934  0.4006 -1.2106 -0.0218
  493MOL0     C66473   7.647  11.256   9.974 -0.3910 -0.1481  0.1133
  493MOL0     C66474   8.055  11.043   9.953 -0.1466  0.8783  0.8483
  493MOL0     C66475   8.184  11.047   9.888 -0.0332  0.6531  1.0486
  493MOL0     C66476   8.286  10.957   9.927  1.5112 -0.9127 -0.0338
  493MOL0     C66477   8.266  10.857  10.019 -0.0179  0.2426 -0.4233
  493MOL0     O66478   8.356  10.756  10.033  0.1904 -0.3659  0.1906
  493MOL0     C66479   8.447  10.723   9.939  0.4359  0.1635  0.8085
  493MOL0     C66480   8.506  10.589   9.953  0.3056  0.0116  0.3815
  493MOL0     C66481   8.409  10.474   9.931 -0.4650  0.2732  0.3013
  493MOL0     C66482   8.472  10.336   9.896  0.3517  0.2688 -0.4674
  493MOL0     C66483   8.550  10.294  10.017  0.0552 -0.2726 -0.1521
  493MOL0     C66484   8.614  10.265  10.116 -1.2285  0.6589 -0.1317
  493MOL0     C66485   8.140  10.844  10.078  0.1042  0.8734  0.2356
  493MOL0     C66486   8.037  10.937  10.054 -0.1462 -0.2436  1.5347
  493MOL0     C66487   7.899  10.901  10.120 -0.5481  0.7771 -0.5648
  493MOL0     H66488   7.898  11.460   9.836 -0.7110 -0.1519 -0.8424
  493MOL0     H66489   7.713  11.587   9.796  0.7197  1.5594  0.5168
  493MOL0     H66490   7.541  11.695   9.960 -0.5637 -1.1948 -0.5644
  493MOL0     H66491   7.503  11.725   9.787 -3.0673  0.9503 -0.6860
  493MOL0     H66492   7.296  11.698   9.997 -2.2142 -0.1227 -0.6462
  493MOL0     H66493   7.262  11.720   9.828 -0.0513  1.8237 -0.7216
  493MOL0     H66494   7.410  11.929   9.982 -2.1927 -2.6658  2.2530
  493MOL0     H66495   7.240  11.932   9.927  0.5503  1.4650  0.5892
  493MOL0     H66496   7.447  11.932   9.719 -0.1120  0.7916 -0.1258
  493MOL0     H66497   7.269  11.931   9.700 -0.1911 -2.0280  1.9344
  493MOL0     H66498   7.380  12.177   9.679 -0.5909  3.8391  1.8006
  493MOL0     H66499   7.256  12.156   9.796  1.4605  3.6579 -0.1306
  493MOL0     H66500   7.398  12.142   9.971 -1.1744  1.8698 -0.1832
  493MOL0     H66501   7.537  12.090   9.866 -1.0019 -0.1623 -3.9129
  493MOL0     H66502   7.407  12.371   9.908 -1.3678 -1.9011 -1.5436
  493MOL0     H66503   7.537  12.327   9.787 -2.2192 -1.0905 -1.1533
  493MOL0     H66504   7.553  12.272  10.092  0.4435  1.1686  1.3238
  493MOL0     H66505   7.676  12.262   9.965 -1.2481 -1.2440  0.3452
  493MOL0     H66506   7.479  12.586   9.957 -1.5304 -2.2774  1.4711
  493MOL0     H66507   7.533  12.819  10.018  1.3993 -2.9211 -0.3602
  493MOL0     H66508   7.681  12.866  10.108  1.5394 -2.0450  1.0537
  493MOL0     H66509   7.664  12.843   9.797 -1.3044  1.3159 -0.2104
  493MOL0     H66510   7.659  12.992   9.882  0.9726 -0.0295  2.0396
  493MOL0     H66511   7.890  12.956   9.799 -2.5181  0.0642 -0.7473
  493MOL0     H66512   7.905  12.821   9.909 -1.5107 -0.8465  5.4160
  493MOL0     H66513   7.877  12.972  10.097 -0.5813 -0.5958 -0.9898
  493MOL0     H66514   7.833  13.106   9.996 -0.4281 -0.2464  0.5359
  493MOL0     H66515   8.268  13.136   9.984  2.3029  1.4912  0.2683
  493MOL0     H66516   8.470  12.994  10.051 -1.4001 -0.3916 -0.1052
  493MOL0     H66517   8.696  12.590   9.961  1.0033  2.3594  1.8468
  493MOL0     H66518   8.855  12.387   9.973  2.7456  3.8241  2.8584
  493MOL0     H66519   8.813  12.193  10.346 -1.0401 -1.0361  1.2825
  493MOL0     H66520   8.832  12.027  10.265  2.9958 -0.9621  2.3169
  493MOL0     H66521   9.067  12.065  10.231 -2.2152 -3.5199  0.4451
  493MOL0     H66522   9.042  12.225  10.305 -1.4400  0.9941 -0.7624
  493MOL0     H66523   8.964  11.970  10.445  0.3477  0.1938 -2.7157
  493MOL0     H66524   9.133  12.046  10.467  0.5499  1.5430 -2.9510
  493MOL0     H66525   8.881  12.139  10.566 -0.1782 -1.5654 -1.5583
  493MOL0     H66526   9.026  12.250  10.548 -0.0121 -0.0398  3.1423
  493MOL0     H66527   9.148  12.065  10.695  0.1009  1.5195  0.0586
  493MOL0     H66528   8.991  12.003  10.740  1.4901  0.7700  3.9482
  493MOL0     H66529   8.932  12.236  10.793 -0.8901 -2.4245  0.8267
  493MOL0     H66530   9.031  12.139  10.908 -1.1410  0.1569  0.8333
  493MOL0     H66531   9.089  12.376  10.870 -3.1655 -2.1024  1.2068
  493MOL0     H66532   9.153  12.344  10.709 -2.3233  2.7213 -0.2929
  493MOL0     H66533   9.326  12.195  10.835  0.1854 -2.5243  2.8390
  493MOL0     H66534   9.321  12.375  10.872 -0.7468  0.3017  0.0320
  493MOL0     H66535   8.611  12.215  10.280  0.2103  0.2346  0.3288
  493MOL0     H66536   8.442  12.392  10.251  1.4489 -3.2655  1.0012
  493MOL0     H66537   8.215  12.664  10.126 -2.3230 -0.2446 -1.5555
  493MOL0     H66538   8.017  12.797  10.095  0.8818 -1.8048  2.2103
  493MOL0     H66539   7.440  11.290   9.959 -1.8600  3.9411  0.4115
  493MOL0     H66540   7.637  11.161  10.026  0.9775 -0.9250 -0.9806
  493MOL0     H66541   8.197  11.116   9.807 -1.0808 -1.0353 -0.6526
  493MOL0     H66542   8.371  10.947   9.861 -0.0964 -0.2965 -2.3165
  493MOL0     H66543   8.530  10.790   9.963 -0.2352  0.2135  3.2367
  493MOL0     H66544   8.423  10.725   9.832  1.7339  4.7530  0.3683
  493MOL0     H66545   8.553  10.587  10.052  3.2277 -1.0516 -0.9152
  493MOL0     H66546   8.588  10.578   9.881  0.6498 -0.8664  0.8839
  493MOL0     H66547   8.331  10.493   9.856 -0.6309  2.5461  0.9712
  493MOL0     H66548   8.354  10.467  10.025 -1.4524 -1.0396 -0.3387
  493MOL0     H66549   8.393  10.261   9.885 -1.5781  2.0454  0.6994
  493MOL0     H66550   8.539  10.345   9.810 -1.6867  0.9674 -2.0660
  493MOL0     H66551   8.681  10.235  10.194  0.9191  2.4295 -1.1944
  493MOL0     H66552   8.124  10.756  10.139 -0.2984  2.0854  1.9663
  493MOL0     H66553   7.899  10.794  10.142  0.1205  1.0017  0.5779
  493MOL0     H66554   7.877  10.961  10.208 -0.6959 -1.1820  0.7983
  493MOL0     H66555   7.807  10.918  10.063 -1.0754  1.1352  0.3881
  494MOL0     O66556   0.923   9.475  10.569 -0.0746 -0.0482  0.0421
  494MOL0     C66557   1.010   9.488  10.656  0.4100  0.1859  0.6904
  494MOL0     O66558   1.106   9.398  10.695 -0.6332  1.0118 -0.4235
  494MOL0     C66559   1.121   9.277  10.614  0.7251 -0.1485  0.0794
  494MOL0     C66560   1.203   9.277  10.499 -0.1708 -0.2113  0.7799
  494MOL0     C66561   1.210   9.165  10.408  0.6416 -0.0437  1.1239
  494MOL0     C66562   1.140   9.047  10.444  0.0171  0.7276  0.1861
  494MOL0     O66563   1.129   8.930  10.376 -0.2768  0.4179  0.8385
  494MOL0     C66564   1.243   8.902  10.292  0.0848  0.1684  0.0623
  494MOL0     C66565   1.267   8.755  10.278  0.8036  0.9691 -0.0263
  494MOL0     C66566   1.181   8.699  10.165 -0.0847  1.2087  0.2467
  494MOL0     C66567   1.264   8.641  10.053  0.8190 -0.6448 -0.8002
  494MOL0     C66568   1.178   8.569   9.946 -0.0719 -0.3972  0.0062
  494MOL0     C66569   1.089   8.660   9.858 -1.3424 -0.0524 -0.7298
  494MOL0     C66570   1.133   8.670   9.707  0.8159  0.4886  0.5055
  494MOL0     C66571   1.275   8.742   9.698  0.1526 -0.9849 -0.8170
  494MOL0     N66572   1.247   8.888   9.695 -0.4378 -0.2452 -0.3846
  494MOL0     C66573   1.250   8.975   9.801  0.4561 -0.3528  0.0512
  494MOL0     C66574   1.228   9.102   9.743 -0.4294 -0.4311  0.3817
  494MOL0     C66575   1.219   9.231   9.823  0.3007 -0.2180  0.1948
  494MOL0     C66576   1.370   9.275   9.840  0.9502  0.0558 -1.0019
  494MOL0     C66577   1.393   9.409   9.909 -0.0068  0.1335  0.2618
  494MOL0     C66578   1.532   9.431   9.958 -0.0188  0.2006 -0.0992
  494MOL0     O66579   1.564   9.344  10.074 -0.4765  0.2049  1.3486
  494MOL0     C66580   1.702   9.343  10.098  0.4550  0.0854  0.0008
  494MOL0     C66581   1.786   9.247  10.040 -0.4307 -0.4607  0.8495
  494MOL0     C66582   1.926   9.253  10.040  0.3218 -0.7508 -0.5487
  494MOL0     C66583   1.988   9.349  10.116  0.4152  0.5077 -0.0641
  494MOL0     C66584   2.135   9.366  10.117  0.0640  0.1005  1.0390
  494MOL0     O66585   2.207   9.291  10.025  0.1703  0.2548  0.1340
  494MOL0     C66586   2.345   9.312  10.029  0.1881  0.2380  0.0789
  494MOL0     C66587   2.429   9.245  10.120  0.0736  0.1619  1.0077
  494MOL0     C66588   2.568   9.278  10.117 -1.1707  0.1569  1.2760
  494MOL0     C66589   2.621   9.375  10.030 -0.1827 -0.3158  1.2545
  494MOL0     O66590   2.752   9.375  10.028 -0.7869  0.2071 -0.9064
  494MOL0     C66591   2.812   9.407   9.907 -0.8632  0.1277 -0.3011
  494MOL0     C66592   2.950   9.340   9.912  0.1328  0.5522  0.6814
  494MOL0     C66593   3.043   9.406   9.810 -0.2955 -0.3651 -0.4342
  494MOL0     C66594   3.190   9.413   9.852 -0.8918 -0.4741  0.0415
  494MOL0     C66595   3.297   9.445   9.741  0.3167 -0.8633 -0.4749
  494MOL0     C66596   3.300   9.344   9.631 -0.3536 -0.5926  0.0185
  494MOL0     C66597   3.378   9.379   9.503  1.1788  0.6006  0.4871
  494MOL0     C66598   3.364   9.262   9.399 -0.2644  0.4082  0.0104
  494MOL0    Cl66599   3.439   9.096   9.440 -0.2532  0.3011  0.0811
  494MOL0     C66600   2.529   9.446   9.950 -0.1429  0.6161  0.1600
  494MOL0     C66601   2.393   9.412   9.949  0.2567  0.8533  0.9742
  494MOL0     O66602   2.186   9.449  10.190 -0.0511 -0.0113 -0.8370
  494MOL0     C66603   1.907   9.441  10.185  0.5784 -0.1677 -0.8194
  494MOL0     C66604   1.767   9.445  10.174 -0.4724 -0.5618 -0.5506
  494MOL0     N66605   1.227   9.092   9.607 -0.0625  0.2752 -0.3787
  494MOL0     N66606   1.237   8.962   9.585 -0.3914 -0.1622  1.0059
  494MOL0     C66607   1.070   9.040  10.562 -0.1949 -0.2056  0.2837
  494MOL0     C66608   1.051   9.153  10.640 -0.8632 -1.2079 -0.0521
  494MOL0     C66609   1.002   9.606  10.736  0.1853 -0.9268 -1.3830
  494MOL0     C66610   1.117   9.676  10.760  0.5678 -0.0706  0.2592
  494MOL0     C66611   1.128   9.779  10.853 -0.1415 -0.2981 -0.2342
  494MOL0     C66612   1.017   9.823  10.923 -0.1932 -0.2182 -0.7447
  494MOL0     O66613   1.020   9.919  11.018  0.5341  0.0426 -0.6132
  494MOL0     C66614   1.122  10.015  11.036 -0.4902  0.1401 -0.0910
  494MOL0     C66615   1.084  10.163  10.995 -0.2869  0.5582  0.8757
  494MOL0     C66616   1.195  10.256  11.029 -0.3984 -0.0836 -1.1683
  494MOL0     C66617   1.213  10.381  10.942 -0.0699  0.2368 -1.0140
  494MOL0     C66618   1.095  10.458  10.913  0.2029 -0.0330 -0.6257
  494MOL0     C66619   1.001  10.542  10.904 -1.0091  1.0784 -0.1385
  494MOL0     C66620   0.898   9.753  10.901  0.0562  0.4512 -0.5791
  494MOL0     C66621   0.887   9.659  10.793 -0.7772  0.2738  0.4349
  494MOL0     C66622   0.743   9.624  10.758  0.1985  0.1249  0.5446
  494MOL0     H66623   1.264   9.365  10.480  0.7992 -1.2977 -1.5509
  494MOL0     H66624   1.274   9.159  10.320  1.9966 -0.9524  2.1212
  494MOL0     H66625   1.234   8.938  10.190 -2.4517 -1.6648 -0.4537
  494MOL0     H66626   1.338   8.942  10.328 -0.5166  1.1139  0.6548
  494MOL0     H66627   1.240   8.708  10.373  2.6343 -0.8809 -0.3478
  494MOL0     H66628   1.372   8.731  10.260  0.4776  2.0165 -4.1713
  494MOL0     H66629   1.110   8.776  10.137  0.7331  2.5494  1.6698
  494MOL0     H66630   1.128   8.611  10.202  1.8466 -0.0938  0.0831
  494MOL0     H66631   1.316   8.724  10.005 -1.6584  0.8538 -1.0910
  494MOL0     H66632   1.335   8.565  10.089  2.4548  0.7422 -0.9899
  494MOL0     H66633   1.226   8.505   9.872  0.5830 -2.3405  2.0230
  494MOL0     H66634   1.117   8.497  10.002  1.3401  0.1273  2.3343
  494MOL0     H66635   0.990   8.614   9.857 -0.5822 -1.7439 -1.3163
  494MOL0     H66636   1.086   8.763   9.894 -2.8568 -0.0752 -0.7538
  494MOL0     H66637   1.059   8.729   9.651  1.3982  0.8780  0.1317
  494MOL0     H66638   1.135   8.572   9.659  0.6400  1.9010 -2.6481
  494MOL0     H66639   1.333   8.708   9.784 -3.3336 -0.2752  2.0824
  494MOL0     H66640   1.309   8.705   9.601 -0.1488 -1.6750 -0.6712
  494MOL0     H66641   1.263   8.958   9.908 -1.2002 -2.2005  0.0180
  494MOL0     H66642   1.173   9.319   9.777  1.3788 -0.8874 -2.3708
  494MOL0     H66643   1.175   9.220   9.923  1.9702  0.2183  1.0220
  494MOL0     H66644   1.422   9.199   9.899 -0.3707  0.9881  1.4771
  494MOL0     H66645   1.424   9.284   9.745 -0.4947 -0.8954 -1.9695
  494MOL0     H66646   1.316   9.419   9.985 -1.4556  2.8915 -1.4026
  494MOL0     H66647   1.387   9.495   9.841 -0.4177  3.4188  4.0545
  494MOL0     H66648   1.557   9.530   9.996 -2.1537  0.9580 -0.5202
  494MOL0     H66649   1.600   9.419   9.874 -2.2598 -2.4175 -1.7200
  494MOL0     H66650   1.738   9.165   9.986  0.3659 -1.7209  1.9831
  494MOL0     H66651   1.982   9.181   9.981  3.6331  2.5697 -1.9142
  494MOL0     H66652   2.388   9.171  10.188 -2.4316  0.5740  0.0338
  494MOL0     H66653   2.616   9.217  10.193 -3.7396  0.3580  3.2426
  494MOL0     H66654   2.761   9.373   9.816 -1.2510 -1.1542  0.3801
  494MOL0     H66655   2.825   9.515   9.892  2.3823  0.1946  1.9723
  494MOL0     H66656   2.996   9.331  10.012  0.9622  0.6976  0.3248
  494MOL0     H66657   2.931   9.238   9.879 -1.2465  0.1057  2.6458
  494MOL0     H66658   3.025   9.356   9.715 -1.9282 -0.7393  0.0499
  494MOL0     H66659   3.010   9.507   9.782  4.4512  0.5692 -3.9802
  494MOL0     H66660   3.223   9.315   9.887  0.6726  0.6204  1.8231
  494MOL0     H66661   3.200   9.476   9.941  0.8720  0.2939 -0.6477
  494MOL0     H66662   3.395   9.446   9.791  0.6227  0.5054 -1.0699
  494MOL0     H66663   3.276   9.549   9.718 -3.3080 -1.1135  1.0099
  494MOL0     H66664   3.332   9.249   9.674 -2.7795 -1.6611 -0.3510
  494MOL0     H66665   3.199   9.322   9.594 -0.2671 -1.3426  0.2098
  494MOL0     H66666   3.485   9.388   9.524  1.2592  1.0409 -0.0630
  494MOL0     H66667   3.346   9.472   9.454  4.3508  0.8645 -1.4135
  494MOL0     H66668   3.257   9.243   9.390 -0.9602  3.7981 -0.1056
  494MOL0     H66669   3.399   9.285   9.298 -0.1982  0.3517  0.0210
  494MOL0     H66670   2.540   9.517   9.869 -2.7437 -0.6838 -1.4851
  494MOL0     H66671   2.337   9.481   9.887  1.0469  2.7783  2.2771
  494MOL0     H66672   1.947   9.513  10.255 -0.8555 -2.0407  2.1108
  494MOL0     H66673   1.709   9.519  10.228 -1.5395 -1.5505 -0.2923
  494MOL0     H66674   1.016   8.946  10.574 -2.5033  1.0499  0.3489
  494MOL0     H66675   0.999   9.150  10.735 -0.3004  0.4039  0.3375
  494MOL0     H66676   1.208   9.633  10.720 -0.7293 -1.4954 -1.2992
  494MOL0     H66677   1.227   9.818  10.873  0.7936 -2.3457 -0.6835
  494MOL0     H66678   1.218   9.984  10.994 -1.7395  0.4127 -3.4802
  494MOL0     H66679   1.143  10.017  11.143 -0.8294 -2.1612  0.0536
  494MOL0     H66680   0.987  10.185  11.042 -2.7023 -2.8276 -1.9784
  494MOL0     H66681   1.071  10.163  10.887  0.0835 -5.8054  0.4690
  494MOL0     H66682   1.293  10.208  11.023 -0.0459  0.2244  1.1644
  494MOL0     H66683   1.178  10.293  11.131 -1.2252 -1.0762 -0.9351
  494MOL0     H66684   1.278  10.454  10.991  3.0299  0.6240 -5.1308
  494MOL0     H66685   1.264  10.352  10.850 -0.4402  1.3458 -1.5877
  494MOL0     H66686   0.911  10.601  10.901 -2.6632 -1.0708  2.2090
  494MOL0     H66687   0.802   9.783  10.944  0.4792 -1.0282  1.5779
  494MOL0     H66688   0.666   9.657  10.830  1.0171 -1.6424  2.3471
  494MOL0     H66689   0.715   9.660  10.659 -1.2897 -2.7039 -0.1917
  494MOL0     H66690   0.732   9.516  10.741 -2.6150  0.2920  0.7767
  495MOL0     O66691  11.214   2.843   4.518  0.0739  0.0453 -0.0039
  495MOL0     C66692  11.212   2.967   4.513 -0.3773  0.3854 -0.4004
  495MOL0     O66693  11.231   3.036   4.398 -1.4624  0.1957 -0.0193
  495MOL0     C66694  11.270   2.964   4.287  0.2856 -0.7548  0.2875
  495MOL0     C66695  11.403   2.945   4.261  0.6286 -0.0435  0.6445
  495MOL0     C66696  11.442   2.872   4.154  0.3747  0.0002 -0.1568
  495MOL0     C66697  11.355   2.805   4.070  0.4066 -0.0406 -0.6879
  495MOL0     O66698  11.378   2.713   3.974 -0.5692 -0.5428 -0.8324
  495MOL0     C66699  11.517   2.692   3.935  1.0459 -0.7125  0.6061
  495MOL0     C66700  11.533   2.592   3.826  1.0393  0.1662  1.2887
  495MOL0     C66701  11.430   2.608   3.710 -0.5578  0.5852  0.7926
  495MOL0     C66702  11.302   2.524   3.732 -0.4904 -0.0631 -0.3780
  495MOL0     C66703  11.190   2.583   3.639 -0.0882 -0.2498  0.0961
  495MOL0     C66704  11.091   2.660   3.718  0.4942  0.1032 -0.2657
  495MOL0     C66705  10.963   2.691   3.633 -0.6550  0.8696 -1.5720
  495MOL0     C66706  10.975   2.795   3.526 -0.1572 -0.8767  0.2286
  495MOL0     N66707  10.922   2.921   3.584 -0.5098  0.4351 -0.2970
  495MOL0     C66708  11.002   3.007   3.664 -0.5802 -0.5720  0.6621
  495MOL0     C66709  10.902   3.093   3.715 -0.9197 -0.2875 -0.2276
  495MOL0     C66710  10.924   3.193   3.821 -1.3557 -0.1295  0.4442
  495MOL0     C66711  10.981   3.119   3.945  1.1239 -0.0121 -0.3113
  495MOL0     C66712  10.999   3.205   4.074 -0.1958 -0.5362 -0.1526
  495MOL0     C66713  10.902   3.327   4.080 -0.1124 -0.1276 -0.3996
  495MOL0     O66714  10.918   3.399   4.200 -0.2947  0.7802 -0.6508
  495MOL0     C66715  10.841   3.504   4.219  0.8770 -0.2598 -0.1547
  495MOL0     C66716  10.845   3.608   4.137 -0.2927 -0.4920  0.4672
  495MOL0     C66717  10.766   3.714   4.152  0.5961 -0.4300  1.6615
  495MOL0     C66718  10.672   3.722   4.249 -0.1983 -0.1790  0.2597
  495MOL0     C66719  10.573   3.830   4.258 -0.5481  1.1605  0.5498
  495MOL0     O66720  10.584   3.928   4.162 -0.0014 -0.0750  0.1438
  495MOL0     C66721  10.481   4.012   4.145  0.9503  0.5178 -0.6244
  495MOL0     C66722  10.490   4.137   4.203 -1.1093 -0.2271 -0.7344
  495MOL0     C66723  10.385   4.229   4.181 -0.5708 -0.1216  0.5997
  495MOL0     C66724  10.272   4.193   4.104 -0.4984 -0.2039  0.9216
  495MOL0     O66725  10.168   4.282   4.106 -0.5202  0.5712  0.3400
  495MOL0     C66726  10.023   4.255   4.093  0.0523  0.4549  0.2704
  495MOL0     C66727   9.950   4.366   4.174 -0.7575  0.1285 -0.3941
  495MOL0     C66728  10.006   4.392   4.318 -0.1352  0.0381 -0.5290
  495MOL0     C66729   9.926   4.505   4.391  0.2735  0.6211 -0.0432
  495MOL0     C66730   9.969   4.653   4.347  0.0502  0.4988 -0.9193
  495MOL0     C66731   9.942   4.754   4.452  1.5512  0.2995  0.1372
  495MOL0     C66732  10.041   4.739   4.577  0.5507 -0.2732 -0.0158
  495MOL0     C66733  10.051   4.868   4.662  0.4536  0.2756 -0.4926
  495MOL0    Cl66734   9.912   4.872   4.772 -0.5125  0.2667 -0.3888
  495MOL0     C66735  10.265   4.066   4.050 -0.5657 -0.4823 -0.8966
  495MOL0     C66736  10.373   3.970   4.071  0.7026 -1.6529  0.4694
  495MOL0     O66737  10.482   3.820   4.338  0.3060 -0.4656 -0.2696
  495MOL0     C66738  10.669   3.617   4.339 -0.8140  0.5303  0.8324
  495MOL0     C66739  10.759   3.509   4.326 -0.1746  0.6736  0.8312
  495MOL0     N66740  10.774   3.043   3.675  0.9915  0.1017 -0.3307
  495MOL0     N66741  10.791   2.950   3.587 -0.1428 -0.1279 -0.6320
  495MOL0     C66742  11.219   2.825   4.095  0.2923  0.1464 -0.2807
  495MOL0     C66743  11.174   2.902   4.203 -0.6000  0.1989 -0.3391
  495MOL0     C66744  11.218   3.042   4.643  0.0806  0.0270  0.5754
  495MOL0     C66745  11.287   3.167   4.640 -0.3835 -0.2331 -0.4928
  495MOL0     C66746  11.306   3.247   4.752 -0.0526  0.4652  0.7691
  495MOL0     C66747  11.271   3.198   4.875  0.4297 -0.1925 -0.2031
  495MOL0     O66748  11.289   3.254   5.003 -0.9918 -0.8644 -0.1598
  495MOL0     C66749  11.354   3.384   5.018 -0.3359  1.4808  0.4547
  495MOL0     C66750  11.235   3.483   5.034  0.1362 -0.7392 -0.6466
  495MOL0     C66751  11.176   3.469   5.176  0.5511  0.8445  0.1922
  495MOL0     C66752  11.255   3.516   5.299  0.2397  0.2412  0.2410
  495MOL0     C66753  11.308   3.642   5.263 -1.8207 -0.4504  0.5599
  495MOL0     C66754  11.358   3.754   5.241  0.2671  0.9011  0.5218
  495MOL0     C66755  11.208   3.071   4.879 -0.2513  0.2062  0.1359
  495MOL0     C66756  11.181   2.988   4.772 -0.3167  0.3535 -0.2791
  495MOL0     C66757  11.110   2.852   4.798 -0.1849 -0.3346  0.2658
  495MOL0     H66758  11.480   3.011   4.299 -0.7503  1.6900  0.5424
  495MOL0     H66759  11.548   2.871   4.128  0.2475  3.1257 -1.3560
  495MOL0     H66760  11.569   2.782   3.899  3.3575 -2.9821 -2.2474
  495MOL0     H66761  11.576   2.657   4.021  4.1914  0.7412 -0.7947
  495MOL0     H66762  11.540   2.492   3.871  1.3115 -0.7797 -0.7544
  495MOL0     H66763  11.635   2.607   3.788  0.1816  1.4510 -0.6702
  495MOL0     H66764  11.480   2.576   3.618 -0.9426  0.5300  0.5971
  495MOL0     H66765  11.412   2.713   3.684  4.5418  1.7974  1.2367
  495MOL0     H66766  11.310   2.417   3.713 -3.5320 -0.3914 -0.3518
  495MOL0     H66767  11.268   2.545   3.834 -1.7825  0.4311 -0.8848
  495MOL0     H66768  11.220   2.637   3.549  1.2980 -0.6542  0.2918
  495MOL0     H66769  11.145   2.491   3.600 -1.7801  0.0339  1.2501
  495MOL0     H66770  11.057   2.598   3.801  2.2018  0.1929  0.5488
  495MOL0     H66771  11.140   2.746   3.764  1.5421  0.3481 -1.7415
  495MOL0     H66772  10.891   2.727   3.708  1.1497  3.4965 -0.9699
  495MOL0     H66773  10.925   2.597   3.590  2.8765 -1.0790 -0.7754
  495MOL0     H66774  11.077   2.800   3.488  0.5547 -2.6667  1.7797
  495MOL0     H66775  10.906   2.762   3.447 -0.8418  2.2185 -0.6276
  495MOL0     H66776  11.108   3.014   3.688 -0.4341  2.6996 -0.4146
  495MOL0     H66777  11.004   3.262   3.792  0.5892 -2.9172 -1.2764
  495MOL0     H66778  10.836   3.254   3.843 -0.8515  0.4850  0.7894
  495MOL0     H66779  10.895   3.058   3.974  2.5969 -0.4747  3.7119
  495MOL0     H66780  11.079   3.073   3.930  0.4711 -0.7372 -2.7699
  495MOL0     H66781  11.105   3.233   4.066 -0.7055  1.1985 -1.1648
  495MOL0     H66782  10.987   3.138   4.160 -2.9707 -2.1455 -1.6246
  495MOL0     H66783  10.797   3.295   4.087  0.3756 -1.3404  3.5151
  495MOL0     H66784  10.911   3.394   3.994 -2.5831  0.3010 -0.4044
  495MOL0     H66785  10.922   3.602   4.061 -1.0107 -2.1676 -0.1949
  495MOL0     H66786  10.779   3.799   4.086 -2.8086  2.8552  4.7137
  495MOL0     H66787  10.573   4.162   4.269  0.3265 -3.8716 -0.9235
  495MOL0     H66788  10.401   4.325   4.228 -2.5172 -0.4395  2.0301
  495MOL0     H66789  10.002   4.260   3.986 -0.2841 -2.5410  0.0943
  495MOL0     H66790  10.006   4.154   4.134  2.0683 -0.4706 -1.0002
  495MOL0     H66791   9.953   4.455   4.111  1.3424  0.0799 -0.4637
  495MOL0     H66792   9.848   4.329   4.190  0.1107 -2.4327 -0.2047
  495MOL0     H66793  10.019   4.308   4.387  3.0400  1.7291  1.1560
  495MOL0     H66794  10.113   4.416   4.309  0.8571 -3.3643  0.7474
  495MOL0     H66795   9.944   4.487   4.498 -4.8851 -3.0961  0.5883
  495MOL0     H66796   9.820   4.485   4.409  1.1947 -2.4309  3.2232
  495MOL0     H66797   9.910   4.678   4.258  0.8409  2.7132 -0.8787
  495MOL0     H66798  10.073   4.664   4.316  0.0585 -3.1029 -2.7615
  495MOL0     H66799   9.957   4.851   4.404 -2.0923  1.5457  1.1883
  495MOL0     H66800   9.836   4.748   4.480  1.9420 -1.1186  1.4368
  495MOL0     H66801  10.142   4.728   4.537  0.9193  0.8172  0.5669
  495MOL0     H66802  10.021   4.646   4.632 -1.8422 -0.3332 -0.8530
  495MOL0     H66803  10.137   4.846   4.726 -2.1900 -1.5799  2.7835
  495MOL0     H66804  10.066   4.963   4.611 -0.9210  0.8442  0.1017
  495MOL0     H66805  10.176   4.040   3.993 -1.3656 -0.7853  0.4528
  495MOL0     H66806  10.367   3.868   4.035 -0.5055 -1.2654 -0.5439
  495MOL0     H66807  10.600   3.615   4.423 -2.8342 -1.3450 -0.7425
  495MOL0     H66808  10.771   3.432   4.402  3.9588 -1.8944 -1.9540
  495MOL0     H66809  11.144   2.761   4.050  1.5301  0.5109 -3.0546
  495MOL0     H66810  11.071   2.931   4.217 -1.1326 -0.6416 -2.1280
  495MOL0     H66811  11.331   3.193   4.544  0.4033  1.0730  0.1939
  495MOL0     H66812  11.356   3.343   4.758 -3.2811  2.2252  2.4665
  495MOL0     H66813  11.421   3.406   4.935 -1.8549  2.3701 -0.5911
  495MOL0     H66814  11.415   3.379   5.109 -0.9816  2.8789  1.0009
  495MOL0     H66815  11.154   3.472   4.961 -2.8730  1.9669  1.9608
  495MOL0     H66816  11.272   3.585   5.021  0.9983 -0.9233  0.2659
  495MOL0     H66817  11.159   3.363   5.194 -2.1125  1.3577  1.1228
  495MOL0     H66818  11.080   3.521   5.180  0.5384  0.8499 -0.1719
  495MOL0     H66819  11.182   3.528   5.380  0.6018  1.0856  0.4463
  495MOL0     H66820  11.327   3.438   5.325  2.2202  0.6016 -3.5101
  495MOL0     H66821  11.395   3.845   5.198  3.8066 -0.3144  0.6991
  495MOL0     H66822  11.177   3.050   4.981 -3.6687 -1.0090 -1.0343
  495MOL0     H66823  11.004   2.869   4.778 -0.8691 -3.2803  0.8389
  495MOL0     H66824  11.149   2.770   4.736  1.1605  0.4121  0.0896
  495MOL0     H66825  11.127   2.827   4.904  1.0924  1.4103  0.5183
  496MOL0     O66826   9.507   2.148  10.630  0.3240  0.4456  0.4895
  496MOL0     C66827   9.440   2.107  10.535 -0.7781  0.4299  0.7022
  496MOL0     O66828   9.397   1.978  10.518  0.1440  0.2545 -0.1292
  496MOL0     C66829   9.367   1.901  10.626  0.8705 -0.9430 -0.3972
  496MOL0     C66830   9.254   1.922  10.705  0.6628  0.0229 -0.1586
  496MOL0     C66831   9.215   1.823  10.804  0.3631 -0.3057  0.2673
  496MOL0     C66832   9.302   1.720  10.841 -0.1271 -0.0711 -0.3869
  496MOL0     O66833   9.276   1.639  10.950  0.5496 -0.0482  0.3697
  496MOL0     C66834   9.384   1.558  11.008  1.0159 -0.4995  0.0001
  496MOL0     C66835   9.349   1.480  11.128 -1.0132  0.9216  0.0489
  496MOL0     C66836   9.339   1.577  11.248  0.1038  0.5350  0.2763
  496MOL0     C66837   9.252   1.507  11.358  0.1570  0.0345  0.3337
  496MOL0     C66838   9.233   1.595  11.487  0.1009 -0.3614  0.2129
  496MOL0     C66839   9.367   1.635  11.547  0.0789 -0.2959 -0.3701
  496MOL0     C66840   9.363   1.700  11.684 -0.4421 -0.6116  0.7046
  496MOL0     C66841   9.359   1.855  11.676 -0.9837 -0.2792 -0.5453
  496MOL0     N66842   9.502   1.888  11.673  0.6580  0.1359  0.0672
  496MOL0     C66843   9.596   1.888  11.783  0.1592  0.4721  0.7947
  496MOL0     C66844   9.708   1.918  11.728  0.4331  0.3475 -0.3574
  496MOL0     C66845   9.829   1.953  11.814 -0.0574  0.2565 -0.3863
  496MOL0     C66846   9.868   2.097  11.809  0.7680 -0.6274  0.5990
  496MOL0     C66847   9.794   2.176  11.918 -0.4967  0.3738 -0.3537
  496MOL0     C66848   9.862   2.204  12.048  0.3931 -0.6543  0.7546
  496MOL0     O66849   9.992   2.271  12.023  0.0419  0.7064 -0.9507
  496MOL0     C66850  10.001   2.406  11.998 -0.3371 -0.1601 -0.5106
  496MOL0     C66851   9.898   2.499  12.004 -0.6563  0.6258 -0.2653
  496MOL0     C66852   9.918   2.636  11.992 -0.1349 -0.3472  0.9618
  496MOL0     C66853  10.046   2.681  11.961 -0.1867  0.2556 -0.2417
  496MOL0     C66854  10.070   2.828  11.944 -0.4991  1.3238 -0.3687
  496MOL0     O66855   9.956   2.902  11.937  0.0926 -0.2146 -0.1357
  496MOL0     C66856   9.950   3.034  11.960  0.0405 -0.2341  0.5057
  496MOL0     C66857   9.824   3.099  11.943  0.2231  0.6135  0.3219
  496MOL0     C66858   9.812   3.235  11.960  0.4705  0.2439  0.5085
  496MOL0     C66859   9.915   3.313  11.993 -0.7668 -0.0952 -0.5245
  496MOL0     O66860   9.898   3.449  11.984 -0.3690 -0.9573 -0.1586
  496MOL0     C66861   9.933   3.531  12.105  1.0025 -0.8625  0.2496
  496MOL0     C66862   9.850   3.661  12.097  0.1131  0.8257 -0.0907
  496MOL0     C66863   9.857   3.720  12.244 -0.1389 -0.5388 -0.2452
  496MOL0     C66864   9.815   3.864  12.258  0.1346 -0.4946 -0.4566
  496MOL0     C66865   9.794   3.898  12.413 -0.5106  1.2532  0.0709
  496MOL0     C66866   9.931   3.958  12.482  1.0628  0.2310  0.5249
  496MOL0     C66867   9.910   3.954  12.634 -0.3512  1.2912  0.0998
  496MOL0     C66868  10.021   3.995  12.730 -0.3967  0.9332 -0.0067
  496MOL0    Cl66869  10.175   3.918  12.677  0.1330 -0.0336 -0.1535
  496MOL0     C66870  10.044   3.260  12.026  0.8880  0.1705  0.4511
  496MOL0     C66871  10.055   3.118  12.014  0.0347  0.5316  0.8011
  496MOL0     O66872  10.188   2.869  11.941 -0.0628 -0.2879  0.1982
  496MOL0     C66873  10.154   2.589  11.944  1.2516 -0.0009 -0.2099
  496MOL0     C66874  10.129   2.449  11.954 -0.2850  0.2809 -0.2052
  496MOL0     N66875   9.696   1.937  11.598  0.5831 -0.1331  0.0688
  496MOL0     N66876   9.576   1.906  11.558  0.1804  0.3675  0.3700
  496MOL0     C66877   9.421   1.708  10.763  0.5211  0.7347 -0.3281
  496MOL0     C66878   9.445   1.793  10.656  0.0237  0.8561  1.3598
  496MOL0     C66879   9.423   2.193  10.431  0.6402 -0.5674 -0.0241
  496MOL0     C66880   9.430   2.146  10.297  0.7868  0.1819  0.6610
  496MOL0     C66881   9.396   2.229  10.194  0.9087  0.5267 -0.3866
  496MOL0     C66882   9.352   2.355  10.215 -0.0335  0.3149  0.0592
  496MOL0     O66883   9.344   2.421  10.099 -0.4215 -0.3583  0.1504
  496MOL0     C66884   9.265   2.536  10.090  1.4259 -0.5875 -0.2025
  496MOL0     C66885   9.110   2.495  10.117  0.1087  0.0608 -0.6289
  496MOL0     C66886   9.018   2.621  10.115 -1.4668  0.3323  0.0446
  496MOL0     C66887   8.886   2.590  10.195 -0.8859 -0.5333 -0.4451
  496MOL0     C66888   8.803   2.512  10.105  0.8177  0.0974  0.3013
  496MOL0     C66889   8.743   2.459  10.010  0.2622  0.1541 -0.3990
  496MOL0     C66890   9.339   2.412  10.346  0.2858  0.5844  0.6713
  496MOL0     C66891   9.367   2.328  10.452 -0.3408  0.0512  0.4272
  496MOL0     C66892   9.363   2.398  10.585  0.0650 -0.8704  0.4605
  496MOL0     H66893   9.192   2.005  10.673  0.7927  1.3820  2.7498
  496MOL0     H66894   9.120   1.826  10.856 -0.6032 -2.2832 -1.2273
  496MOL0     H66895   9.402   1.474  10.941 -1.1501 -1.8006  0.9482
  496MOL0     H66896   9.468   1.626  11.022 -1.0446  2.0492  0.7612
  496MOL0     H66897   9.437   1.415  11.133  0.1510  2.1313 -2.5057
  496MOL0     H66898   9.266   1.412  11.108 -0.3585 -0.9289  3.0797
  496MOL0     H66899   9.312   1.678  11.215 -1.2829  0.6072  1.5162
  496MOL0     H66900   9.444   1.586  11.280  0.3184  0.3213 -0.3471
  496MOL0     H66901   9.157   1.498  11.305  0.7841 -0.2643 -0.7778
  496MOL0     H66902   9.294   1.410  11.386 -3.6759 -1.3298  1.9663
  496MOL0     H66903   9.160   1.675  11.476 -2.5044 -2.3882  1.7166
  496MOL0     H66904   9.180   1.532  11.560 -1.5464 -0.1284 -0.7366
  496MOL0     H66905   9.416   1.538  11.561  0.9849  0.4270  2.0263
  496MOL0     H66906   9.431   1.699  11.485 -0.0123 -0.7164 -0.8986
  496MOL0     H66907   9.444   1.666  11.748 -1.8956 -0.8773  2.5027
  496MOL0     H66908   9.273   1.662  11.734 -1.7580  0.0382 -1.0503
  496MOL0     H66909   9.306   1.886  11.586  1.0639 -0.7096 -1.9572
  496MOL0     H66910   9.303   1.883  11.766  0.0524 -0.6985  0.2490
  496MOL0     H66911   9.574   1.866  11.887 -0.1154 -0.1800  0.6081
  496MOL0     H66912   9.803   1.930  11.918 -1.4593  0.6985 -0.6191
  496MOL0     H66913   9.916   1.893  11.785  1.8174  0.0318  4.6807
  496MOL0     H66914   9.977   2.113  11.809  1.0304 -2.2961  0.2018
  496MOL0     H66915   9.836   2.134  11.711 -1.0250  0.8911  1.6902
  496MOL0     H66916   9.696   2.132  11.939  0.3699 -3.0025 -2.5342
  496MOL0     H66917   9.785   2.273  11.868  0.5122 -1.2781 -4.1354
  496MOL0     H66918   9.896   2.113  12.097  1.5227 -1.6368 -1.6758
  496MOL0     H66919   9.789   2.261  12.106  0.5819  0.5573 -0.1445
  496MOL0     H66920   9.798   2.463  12.026  0.8406 -3.4718  0.7047
  496MOL0     H66921   9.831   2.699  12.004  2.3155  3.4597  0.2310
  496MOL0     H66922   9.744   3.035  11.906  1.3269 -0.8701  0.4149
  496MOL0     H66923   9.716   3.282  11.940 -0.4645 -2.6265 -2.9094
  496MOL0     H66924   9.897   3.475  12.192 -4.1554 -0.5158 -1.3211
  496MOL0     H66925  10.036   3.565  12.120 -0.0939  3.1727 -0.1531
  496MOL0     H66926   9.903   3.720  12.021  4.4574 -2.4350 -0.0096
  496MOL0     H66927   9.745   3.636  12.082  0.6283 -1.2752 -0.5355
  496MOL0     H66928   9.796   3.661  12.313  2.5092  0.1563  2.9469
  496MOL0     H66929   9.964   3.720  12.271 -0.0131  0.3740 -0.7296
  496MOL0     H66930   9.727   3.891  12.200 -2.0097 -0.6845  2.4618
  496MOL0     H66931   9.890   3.926  12.208 -0.9610 -0.3496 -1.9575
  496MOL0     H66932   9.741   3.820  12.468 -1.2180  2.7731  1.6393
  496MOL0     H66933   9.733   3.988  12.418  0.5182  2.0243 -0.7574
  496MOL0     H66934  10.005   3.879  12.469  1.4862  0.5748  0.8188
  496MOL0     H66935   9.964   4.058  12.452  1.4857  1.1518  3.6530
  496MOL0     H66936   9.890   3.852  12.665  0.8500  1.8924  3.1099
  496MOL0     H66937   9.823   4.005  12.675  0.2204  2.3544  0.0302
  496MOL0     H66938  10.033   4.104  12.741  2.8095  1.2607 -4.1704
  496MOL0     H66939   9.990   3.955  12.827  2.7427  1.1827  1.2559
  496MOL0     H66940  10.131   3.318  12.054  0.0288  0.7090  2.1020
  496MOL0     H66941  10.150   3.074  12.043  2.5362  2.8487 -3.1276
  496MOL0     H66942  10.257   2.614  11.917  0.9989 -1.3961 -2.8135
  496MOL0     H66943  10.211   2.387  11.918  1.1301  2.3661 -0.7585
  496MOL0     H66944   9.494   1.634  10.792  0.9512  2.3610  3.3786
  496MOL0     H66945   9.532   1.781  10.592 -1.2148 -0.4265 -0.1594
  496MOL0     H66946   9.454   2.041  10.287  4.3848  0.8883  0.4810
  496MOL0     H66947   9.412   2.182  10.097  2.5029  0.5567 -0.1615
  496MOL0     H66948   9.281   2.585   9.994  1.6956 -2.9450 -1.4146
  496MOL0     H66949   9.293   2.605  10.171 -3.6843  1.0606  0.5762
  496MOL0     H66950   9.105   2.438  10.210  4.1228 -0.7951 -0.7383
  496MOL0     H66951   9.085   2.429  10.034 -0.3026  0.7141 -1.0337
  496MOL0     H66952   8.982   2.640  10.014 -0.6635  0.8597 -0.1551
  496MOL0     H66953   9.073   2.701  10.165  1.2842 -1.3773 -0.0489
  496MOL0     H66954   8.917   2.544  10.289 -1.0656  1.3097  0.5609
  496MOL0     H66955   8.833   2.683  10.217 -0.5622 -1.1091  3.4403
  496MOL0     H66956   8.713   2.409   9.921 -0.8769  0.8905 -0.4370
  496MOL0     H66957   9.312   2.515  10.365  1.9909  1.0349  0.8124
  496MOL0     H66958   9.307   2.488  10.560  2.0074 -0.1563 -1.6494
  496MOL0     H66959   9.322   2.343  10.670 -1.3766 -0.7472 -0.1250
  496MOL0     H66960   9.461   2.436  10.616  0.2630 -0.3702 -0.7468
  497MOL0     O66961   1.263  10.820   8.880  0.5298  0.5430  0.5459
  497MOL0     C66962   1.181  10.722   8.878 -0.7110 -0.2675  0.4308
  497MOL0     O66963   1.094  10.691   8.971 -0.2937  0.3844 -0.3523
  497MOL0     C66964   1.079  10.758   9.083  0.9318 -0.0514  0.2290
  497MOL0     C66965   1.128  10.890   9.114 -0.7022 -0.4018 -0.3467
  497MOL0     C66966   1.108  10.951   9.238 -0.2099 -0.2490 -0.9030
  497MOL0     C66967   1.042  10.883   9.336 -0.4311  0.5088 -0.0560
  497MOL0     O66968   1.037  10.924   9.466  0.5134  0.0204  0.0284
  497MOL0     C66969   1.136  11.022   9.504  0.4689  0.3124 -0.1621
  497MOL0     C66970   1.148  11.023   9.662  0.4195 -0.0038  0.5833
  497MOL0     C66971   1.020  11.017   9.751  0.1702 -0.8660 -1.4058
  497MOL0     C66972   1.012  10.873   9.788  0.2434  0.2817  0.4295
  497MOL0     C66973   0.878  10.833   9.856 -0.7360  0.2408  0.0424
  497MOL0     C66974   0.799  10.717   9.785 -0.1960  0.7031  0.5906
  497MOL0     C66975   0.744  10.742   9.646  0.0219  0.0298 -1.0061
  497MOL0     C66976   0.613  10.825   9.656  0.4842  0.1996 -1.2255
  497MOL0     N66977   0.572  10.878   9.522  0.0759 -0.8515 -0.4261
  497MOL0     C66978   0.562  10.797   9.408  0.0698  0.3183  0.0572
  497MOL0     C66979   0.571  10.886   9.302  1.1829 -1.3035  0.4416
  497MOL0     C66980   0.557  10.851   9.153  0.2388 -0.3705 -0.5790
  497MOL0     C66981   0.680  10.860   9.079 -0.3817  0.0748 -0.0311
  497MOL0     C66982   0.666  10.917   8.932  0.3737  0.4658 -0.6899
  497MOL0     C66983   0.636  10.797   8.851  0.9893  0.5610  0.3286
  497MOL0     O66984   0.510  10.724   8.868 -0.3318  1.0632 -0.6805
  497MOL0     C66985   0.395  10.799   8.850 -0.6754  0.3831 -0.6768
  497MOL0     C66986   0.385  10.928   8.795 -0.1076  0.8664  0.4743
  497MOL0     C66987   0.264  10.996   8.798 -0.4942  0.1412  0.1289
  497MOL0     C66988   0.151  10.933   8.854 -0.6561  0.5327 -0.0608
  497MOL0     C66989   0.029  11.002   8.870 -0.1259 -0.0358  0.1518
  497MOL0     O66990   0.034  11.138   8.842 -0.4765 -0.4686 -0.1575
  497MOL0     C66991  -0.056  11.237   8.885  1.2591  0.0334  0.3926
  497MOL0     C66992  -0.029  11.367   8.836  0.2016 -0.5686  0.1641
  497MOL0     C66993  -0.115  11.471   8.859 -1.5415  0.7965 -0.1381
  497MOL0     C66994  -0.228  11.448   8.927 -0.3003 -0.2674  0.1012
  497MOL0     O66995  -0.317  11.546   8.959  0.4108 -0.2336 -0.3662
  497MOL0     C66996  -0.341  11.659   8.871  0.1767 -0.7561 -0.1006
  497MOL0     C66997  -0.457  11.615   8.778  0.8565  0.6579 -0.9496
  497MOL0     C66998  -0.476  11.709   8.664  0.0890 -0.4367 -0.2493
  497MOL0     C66999  -0.597  11.674   8.586 -0.1497 -0.6056  0.7012
  497MOL0     C67000  -0.621  11.769   8.467 -0.3980 -1.0286  0.1444
  497MOL0     C67001  -0.740  11.726   8.389 -0.1016  0.3232  0.4815
  497MOL0     C67002  -0.698  11.605   8.304  0.2971  0.3813 -1.1417
  497MOL0     C67003  -0.814  11.572   8.221  0.6965  1.1228 -0.7454
  497MOL0    Cl67004  -0.759  11.488   8.068  0.6537 -0.0397  0.2617
  497MOL0     C67005  -0.265  11.325   8.974 -0.1840  1.0881 -0.6325
  497MOL0     C67006  -0.185  11.211   8.948 -0.5400 -0.0655  0.0445
  497MOL0     O67007  -0.071  10.937   8.903 -0.9297  0.2113  0.5685
  497MOL0     C67008   0.163  10.805   8.908  0.6439  0.2391  1.0054
  497MOL0     C67009   0.286  10.738   8.899  0.1037 -0.3430  0.8574
  497MOL0     N67010   0.590  11.018   9.342 -0.0030 -0.3509  0.5657
  497MOL0     N67011   0.585  11.001   9.472  0.4147  0.7091  0.1332
  497MOL0     C67012   0.983  10.765   9.311  0.3812  0.0598  0.6351
  497MOL0     C67013   1.008  10.703   9.190  1.0010 -0.6347  0.7714
  497MOL0     C67014   1.198  10.624   8.759 -0.2755 -0.2441  0.8737
  497MOL0     C67015   1.097  10.522   8.735 -0.6352  0.1666  0.6216
  497MOL0     C67016   1.114  10.419   8.639  0.1640  0.0022  0.3007
  497MOL0     C67017   1.219  10.423   8.556 -0.4866 -1.3919  0.1405
  497MOL0     O67018   1.226  10.341   8.452  0.2070 -0.3954  0.2317
  497MOL0     C67019   1.137  10.230   8.456  0.7823 -0.0909 -0.2572
  497MOL0     C67020   1.195  10.135   8.355 -0.7477 -0.2374 -0.1995
  497MOL0     C67021   1.152   9.981   8.371  0.5040  0.1731 -0.1514
  497MOL0     C67022   1.006   9.967   8.351 -0.6419 -0.7303 -0.9176
  497MOL0     C67023   0.960   9.993   8.213  0.2880  0.9801  0.1723
  497MOL0     C67024   0.923  10.010   8.104 -0.4725 -1.0106  0.8814
  497MOL0     C67025   1.320  10.515   8.575 -1.1671  0.6051  0.4904
  497MOL0     C67026   1.315  10.613   8.678  0.6547  0.1228  0.1591
  497MOL0     C67027   1.422  10.718   8.680  1.0729  0.5294  0.5235
  497MOL0     H67028   1.183  10.948   9.040  0.8089 -2.0595 -0.6246
  497MOL0     H67029   1.142  11.053   9.256 -0.2920 -0.6164  1.7817
  497MOL0     H67030   1.233  10.984   9.471  0.4753 -2.1763  2.3639
  497MOL0     H67031   1.110  11.118   9.458 -0.4322 -0.7852 -2.1024
  497MOL0     H67032   1.205  11.112   9.689  0.5712  0.6236 -1.6021
  497MOL0     H67033   1.208  10.934   9.684 -0.5113 -1.1343 -1.2666
  497MOL0     H67034   0.939  11.047   9.685  0.9892 -1.7407 -2.8652
  497MOL0     H67035   1.032  11.089   9.833 -0.6784 -0.1454 -1.8954
  497MOL0     H67036   1.028  10.806   9.703 -0.8572  0.6543 -0.0975
  497MOL0     H67037   1.095  10.860   9.857  0.3810  1.6516  0.5501
  497MOL0     H67038   0.911  10.793   9.953  1.7938  2.1858  0.0810
  497MOL0     H67039   0.821  10.923   9.876  0.4721  1.1832 -0.6362
  497MOL0     H67040   0.877  10.640   9.791 -1.1018 -0.1015  3.2306
  497MOL0     H67041   0.726  10.682   9.858 -1.0016 -3.6129 -1.9658
  497MOL0     H67042   0.736  10.650   9.587 -0.1640 -0.5228 -0.1310
  497MOL0     H67043   0.818  10.803   9.592 -1.0498  1.9512 -0.3917
  497MOL0     H67044   0.543  10.744   9.680  1.0739 -0.3160 -1.2263
  497MOL0     H67045   0.615  10.893   9.741  0.6496 -0.6047 -0.5786
  497MOL0     H67046   0.533  10.693   9.405 -3.4401  0.9835  3.3246
  497MOL0     H67047   0.509  10.753   9.147 -2.2979  0.7120  0.7993
  497MOL0     H67048   0.492  10.926   9.107 -0.1868 -1.1982 -1.3500
  497MOL0     H67049   0.746  10.924   9.137 -0.0182 -0.7986  0.5307
  497MOL0     H67050   0.737  10.766   9.081 -0.1229  0.2479  0.7250
  497MOL0     H67051   0.763  10.953   8.896  0.3925  0.1159 -0.9979
  497MOL0     H67052   0.597  11.002   8.933 -0.1937  0.0157 -0.6292
  497MOL0     H67053   0.718  10.728   8.867 -0.2590 -1.9972 -3.0240
  497MOL0     H67054   0.647  10.830   8.747 -2.3562  0.7698 -0.0948
  497MOL0     H67055   0.463  10.983   8.744 -0.2811 -0.4817 -1.3362
  497MOL0     H67056   0.258  11.096   8.757 -0.9896 -1.0403 -2.9333
  497MOL0     H67057   0.069  11.387   8.794  0.3535 -0.5864  0.5034
  497MOL0     H67058  -0.080  11.573   8.844  0.6060 -0.2524 -3.3183
  497MOL0     H67059  -0.376  11.743   8.931 -0.9359 -3.0772  2.7608
  497MOL0     H67060  -0.259  11.691   8.805  0.0219  0.7584  0.3942
  497MOL0     H67061  -0.443  11.515   8.737  1.2680  0.8084 -1.1863
  497MOL0     H67062  -0.551  11.615   8.833  1.6158 -1.6923  0.5416
  497MOL0     H67063  -0.489  11.810   8.704 -1.2999  0.0893 -1.9240
  497MOL0     H67064  -0.386  11.712   8.602  0.0690  2.9401 -0.2851
  497MOL0     H67065  -0.678  11.677   8.659  0.6816 -1.4384  1.6726
  497MOL0     H67066  -0.590  11.574   8.542 -0.1377 -0.3033 -0.0121
  497MOL0     H67067  -0.529  11.766   8.407 -0.5950  2.2197 -0.5337
  497MOL0     H67068  -0.637  11.870   8.506  3.1398 -0.5517  0.6942
  497MOL0     H67069  -0.826  11.718   8.457 -0.7731  0.8151 -0.2909
  497MOL0     H67070  -0.763  11.804   8.315 -1.9703 -0.5673  0.0632
  497MOL0     H67071  -0.660  11.523   8.365  0.0453  2.3938  1.9288
  497MOL0     H67072  -0.626  11.652   8.237  1.0603  0.7479 -0.0869
  497MOL0     H67073  -0.890  11.512   8.272  2.4665  0.6448  1.5152
  497MOL0     H67074  -0.873  11.659   8.192 -1.7858  0.1636  1.1249
  497MOL0     H67075  -0.350  11.312   9.040  1.4296 -2.1229  1.0457
  497MOL0     H67076  -0.198  11.111   8.988 -2.4739  0.0970 -0.1257
  497MOL0     H67077   0.071  10.761   8.945 -2.1803  2.2568 -2.9072
  497MOL0     H67078   0.275  10.639   8.942 -1.4605 -0.4220  0.3502
  497MOL0     H67079   0.935  10.723   9.399  1.1706 -2.3301  0.0047
  497MOL0     H67080   0.951  10.612   9.177 -2.8469  1.1979  3.2403
  497MOL0     H67081   1.010  10.523   8.800  0.8641 -1.2640  2.7849
  497MOL0     H67082   1.034  10.346   8.641  2.4601 -2.7342 -0.6036
  497MOL0     H67083   1.038  10.251   8.414 -0.7196 -2.7792  1.6534
  497MOL0     H67084   1.111  10.179   8.549 -0.4255  2.5212  0.9316
  497MOL0     H67085   1.303  10.120   8.356 -0.6928  0.0320 -1.1831
  497MOL0     H67086   1.178  10.171   8.253  2.5306 -0.3073 -0.8638
  497MOL0     H67087   1.185   9.959   8.472  0.1053  1.8635  0.3790
  497MOL0     H67088   1.202   9.907   8.308  1.4273  0.5692  0.1095
  497MOL0     H67089   0.981   9.867   8.384 -0.2155 -0.2663  0.9274
  497MOL0     H67090   0.957  10.037   8.419 -0.5855 -0.7468 -0.8615
  497MOL0     H67091   0.892  10.032   8.003 -0.5044 -3.6942  0.2184
  497MOL0     H67092   1.412  10.500   8.520 -0.4026  3.3757  0.9024
  497MOL0     H67093   1.469  10.724   8.779 -3.1002 -1.7726  2.9694
  497MOL0     H67094   1.491  10.695   8.599  0.7613  2.2165 -0.2627
  497MOL0     H67095   1.396  10.820   8.652 -1.0318  0.2094  1.1191
  498MOL0     O67096   7.363   5.785  11.303 -0.7158 -0.2080 -0.2340
  498MOL0     C67097   7.253   5.847  11.289  0.3440 -0.1424  0.3261
  498MOL0     O67098   7.139   5.823  11.357  0.6282 -0.1339  0.0476
  498MOL0     C67099   7.132   5.738  11.462  0.3099 -0.8326 -0.2943
  498MOL0     C67100   7.174   5.609  11.466  0.3447  0.8815  0.0166
  498MOL0     C67101   7.157   5.518  11.576 -0.8448  0.1015  0.7056
  498MOL0     C67102   7.099   5.570  11.698 -0.6819 -0.3496 -0.3579
  498MOL0     O67103   7.108   5.494  11.812  1.1399 -0.0783  0.9004
  498MOL0     C67104   7.070   5.561  11.937  0.2956 -0.0825  0.2088
  498MOL0     C67105   7.069   5.464  12.061  0.4009  0.5340 -0.1692
  498MOL0     C67106   7.045   5.522  12.199  0.2360 -0.4087  0.2341
  498MOL0     C67107   6.993   5.426  12.306  0.0690 -0.2713 -0.2972
  498MOL0     C67108   6.926   5.484  12.427 -0.0807  0.1882  0.1148
  498MOL0     C67109   6.880   5.365  12.517 -0.0731  0.8102 -0.4860
  498MOL0     C67110   6.736   5.310  12.474 -0.1605  0.0779 -0.0622
  498MOL0     C67111   6.706   5.174  12.535  0.6709  0.5357  0.9125
  498MOL0     N67112   6.772   5.065  12.456 -0.7946 -0.1688  0.7678
  498MOL0     C67113   6.741   5.014  12.328 -0.1139 -0.6481 -1.0639
  498MOL0     C67114   6.829   4.912  12.307 -0.0076 -0.7134 -0.3736
  498MOL0     C67115   6.847   4.818  12.189  0.4949  0.9974  0.3291
  498MOL0     C67116   6.716   4.746  12.162  0.6792 -0.0687 -0.5648
  498MOL0     C67117   6.725   4.696  12.020  0.4043 -0.5926  0.5345
  498MOL0     C67118   6.601   4.613  11.980 -0.0411 -0.1881  0.7820
  498MOL0     O67119   6.620   4.581  11.843  0.6029  0.5368 -0.4730
  498MOL0     C67120   6.518   4.530  11.764 -0.1358 -0.2962  1.0135
  498MOL0     C67121   6.396   4.500  11.814  0.8973  1.1859 -0.2241
  498MOL0     C67122   6.289   4.443  11.738 -0.6078  0.1671  0.1442
  498MOL0     C67123   6.301   4.428  11.601 -0.7209 -0.4074 -1.4679
  498MOL0     C67124   6.191   4.367  11.520  0.4134  1.1341 -0.3381
  498MOL0     O67125   6.063   4.361  11.585  0.5380  0.8440  0.8973
  498MOL0     C67126   5.950   4.323  11.517  0.3288 -0.3176  0.5309
  498MOL0     C67127   5.944   4.204  11.459 -0.2835 -0.4323  0.2999
  498MOL0     C67128   5.830   4.149  11.407  1.5907 -0.2867 -0.5224
  498MOL0     C67129   5.706   4.220  11.418 -0.9435 -0.2490  0.3009
  498MOL0     O67130   5.592   4.174  11.371 -0.5433  0.0822  0.1495
  498MOL0     C67131   5.544   4.046  11.392 -0.1866  0.9905 -0.3513
  498MOL0     C67132   5.421   4.001  11.321 -0.5199  0.4009 -0.1940
  498MOL0     C67133   5.400   4.067  11.181 -0.7308  0.4640 -0.1955
  498MOL0     C67134   5.295   3.996  11.085 -0.5933 -0.0131 -0.0976
  498MOL0     C67135   5.332   4.015  10.936  0.4759 -0.2379 -0.2219
  498MOL0     C67136   5.334   4.160  10.886  0.3471 -0.3926 -1.2791
  498MOL0     C67137   5.208   4.245  10.915  0.3668 -0.6368 -0.0219
  498MOL0     C67138   5.073   4.173  10.866  0.1033 -0.3843  1.0759
  498MOL0    Cl67139   4.932   4.271  10.904  0.2274  0.3324 -0.1432
  498MOL0     C67140   5.710   4.345  11.477  0.0720  0.1337  0.3497
  498MOL0     C67141   5.839   4.403  11.521  0.6457 -1.1079  0.1429
  498MOL0     O67142   6.208   4.333  11.402 -0.6998 -0.4798 -0.4515
  498MOL0     C67143   6.424   4.458  11.543 -0.4412  0.4112 -0.0201
  498MOL0     C67144   6.528   4.506  11.622 -0.3673  0.6169 -0.6988
  498MOL0     N67145   6.910   4.905  12.413  0.1464  0.2387  0.0987
  498MOL0     N67146   6.876   4.988  12.509  1.1833 -0.6335  0.9691
  498MOL0     C67147   7.049   5.702  11.693  0.0222  0.1382  0.0728
  498MOL0     C67148   7.067   5.784  11.581 -0.9727 -0.0470 -0.0556
  498MOL0     C67149   7.245   5.962  11.189  0.6251  0.1834 -0.0984
  498MOL0     C67150   7.359   6.028  11.146  0.3699  0.7124  0.5616
  498MOL0     C67151   7.358   6.144  11.073  0.1734  0.6819 -0.0818
  498MOL0     C67152   7.240   6.219  11.050  0.1153  0.5723  0.6710
  498MOL0     O67153   7.252   6.355  11.011 -0.0733 -0.8245 -0.4479
  498MOL0     C67154   7.128   6.438  11.011 -0.3231  0.5290  0.4449
  498MOL0     C67155   7.158   6.580  10.962  0.3264  0.0742 -1.1558
  498MOL0     C67156   7.042   6.675  10.921  0.4749  0.5262 -0.3708
  498MOL0     C67157   6.939   6.712  11.034  0.0054 -0.9152 -0.4969
  498MOL0     C67158   6.862   6.842  11.017 -0.6167 -0.1437 -0.6477
  498MOL0     C67159   6.776   6.930  11.006 -0.5565  0.3548 -0.7737
  498MOL0     C67160   7.120   6.152  11.086  0.1373 -1.1273  0.9337
  498MOL0     C67161   7.119   6.021  11.151 -0.3923 -0.1537 -0.3566
  498MOL0     C67162   6.986   5.964  11.184 -0.1074  0.3042 -0.0606
  498MOL0     H67163   7.223   5.562  11.381  2.7445 -1.2059  2.3930
  498MOL0     H67164   7.202   5.419  11.571 -2.6911 -0.8497  1.9691
  498MOL0     H67165   7.153   5.631  11.942  1.3310 -1.3392  2.5526
  498MOL0     H67166   6.974   5.610  11.921  1.1415  1.1399 -1.3516
  498MOL0     H67167   7.166   5.414  12.058  0.3345  0.4534 -2.1290
  498MOL0     H67168   6.994   5.387  12.045  0.1421  0.6165  0.6180
  498MOL0     H67169   6.956   5.586  12.201 -0.8013 -1.7276  3.5628
  498MOL0     H67170   7.131   5.572  12.243 -1.3816  2.4643  0.3831
  498MOL0     H67171   6.911   5.372  12.256  0.1361  0.7345 -1.5490
  498MOL0     H67172   7.068   5.357  12.346 -0.4246 -0.5380  0.1853
  498MOL0     H67173   6.998   5.552  12.473  0.6537  0.1820 -0.9868
  498MOL0     H67174   6.842   5.544  12.391 -0.9379 -0.6400  0.6913
  498MOL0     H67175   6.958   5.288  12.516  0.2677  1.1285  0.3697
  498MOL0     H67176   6.877   5.400  12.621 -1.0708  1.5272 -0.7462
  498MOL0     H67177   6.716   5.301  12.367 -0.3607  4.9159 -0.6370
  498MOL0     H67178   6.654   5.370  12.513  0.6188  1.6236 -0.7533
  498MOL0     H67179   6.754   5.167  12.633 -1.7773 -1.4088  2.0815
  498MOL0     H67180   6.598   5.162  12.551  0.4771  2.5366  1.4122
  498MOL0     H67181   6.672   5.063  12.260 -4.4203 -1.2213  2.4475
  498MOL0     H67182   6.878   4.886  12.110  1.5857 -0.0049 -0.1326
  498MOL0     H67183   6.932   4.749  12.198 -0.5400 -0.3852 -0.2464
  498MOL0     H67184   6.696   4.667  12.236  0.3072  2.6564  2.4756
  498MOL0     H67185   6.632   4.815  12.177  1.2490  0.6995 -0.8868
  498MOL0     H67186   6.815   4.635  12.015 -0.1335 -1.5844  2.1929
  498MOL0     H67187   6.736   4.778  11.948 -2.2725  3.9186  4.6399
  498MOL0     H67188   6.510   4.670  12.002  0.1950  0.3858  0.3043
  498MOL0     H67189   6.590   4.524  12.042 -2.2821 -0.4951  0.0342
  498MOL0     H67190   6.376   4.511  11.920  1.2693 -1.0891  0.1273
  498MOL0     H67191   6.195   4.426  11.788  0.4785 -2.8352  1.3798
  498MOL0     H67192   6.036   4.146  11.454  0.9450  1.4946 -0.9898
  498MOL0     H67193   5.831   4.053  11.357 -0.9943 -0.1893 -0.8985
  498MOL0     H67194   5.627   3.980  11.366 -0.9189  1.4048 -4.5341
  498MOL0     H67195   5.537   4.038  11.501  0.9505  0.8781 -0.2755
  498MOL0     H67196   5.433   3.895  11.295 -0.8460  0.3755 -0.2525
  498MOL0     H67197   5.336   4.020  11.386  1.4925 -0.8264  3.0066
  498MOL0     H67198   5.368   4.171  11.191 -1.0445  0.3495  0.0073
  498MOL0     H67199   5.494   4.082  11.128 -0.9589  0.4395 -0.6084
  498MOL0     H67200   5.193   4.030  11.105 -1.1321 -1.8098  0.4861
  498MOL0     H67201   5.295   3.889  11.109  2.2828 -0.4627 -1.7158
  498MOL0     H67202   5.258   3.958  10.879 -4.2015  2.0245  2.9566
  498MOL0     H67203   5.433   3.979  10.918  0.6154 -0.1446  0.3546
  498MOL0     H67204   5.416   4.217  10.930 -0.5198 -0.6763  0.8003
  498MOL0     H67205   5.363   4.156  10.780 -3.1246  3.1347 -2.5866
  498MOL0     H67206   5.214   4.335  10.852 -1.0786 -1.4986 -1.4466
  498MOL0     H67207   5.204   4.270  11.022 -3.4834 -1.9750  0.3104
  498MOL0     H67208   5.075   4.153  10.759 -4.9445 -3.8214  1.2765
  498MOL0     H67209   5.067   4.081  10.924 -1.6188  0.7347  2.8294
  498MOL0     H67210   5.617   4.401  11.484 -0.8150 -1.0782 -1.0785
  498MOL0     H67211   5.839   4.504  11.560  1.0299 -0.3668 -1.6917
  498MOL0     H67212   6.433   4.439  11.436  4.4461 -0.4041  0.2953
  498MOL0     H67213   6.629   4.516  11.584  0.5624 -0.7663  1.1907
  498MOL0     H67214   6.988   5.741  11.773 -2.3374  0.5267 -1.8176
  498MOL0     H67215   7.016   5.880  11.587  1.1644  1.1015  0.5856
  498MOL0     H67216   7.456   5.988  11.176 -0.2290 -3.2458 -1.9128
  498MOL0     H67217   7.451   6.185  11.035  0.6202  0.3764  0.6667
  498MOL0     H67218   7.084   6.437  11.112 -0.8582  0.6514  0.2153
  498MOL0     H67219   7.056   6.407  10.935  2.7765 -0.3765 -2.3443
  498MOL0     H67220   7.198   6.566  10.861 -0.2276  1.4661 -1.5955
  498MOL0     H67221   7.238   6.621  11.025 -1.4637  0.4219  1.0241
  498MOL0     H67222   6.981   6.631  10.842 -0.6723 -0.5319  1.0306
  498MOL0     H67223   7.087   6.772  10.901  0.6115  1.5200  3.8024
  498MOL0     H67224   6.870   6.630  11.054 -2.5926  1.3326  0.3123
  498MOL0     H67225   7.002   6.724  11.122  0.6749  1.9804 -1.2762
  498MOL0     H67226   6.712   7.016  10.997 -2.9862 -0.7530  3.4021
  498MOL0     H67227   7.023   6.200  11.076  0.8844  0.0140 -1.6303
  498MOL0     H67228   6.905   5.996  11.117  0.6507 -1.1359 -1.7522
  498MOL0     H67229   6.985   5.855  11.178 -0.8659  0.3728 -2.5839
  498MOL0     H67230   6.962   5.995  11.286 -0.3046 -1.6742  0.5309
  499MOL0     O67231   8.088  10.200   0.925 -0.0036 -0.3979  0.1576
  499MOL0     C67232   8.135  10.296   0.992  0.9786  0.1299  0.9943
  499MOL0     O67233   8.084  10.343   1.105  0.4159 -0.0629  0.1645
  499MOL0     C67234   7.990  10.270   1.176 -0.0241 -0.4214  0.6568
  499MOL0     C67235   7.970  10.128   1.163 -0.0081 -0.0937  0.9935
  499MOL0     C67236   7.860  10.067   1.221  0.2004 -0.8343  0.7055
  499MOL0     C67237   7.778  10.141   1.302  0.4328  0.3767 -0.7100
  499MOL0     O67238   7.669  10.070   1.356 -0.6623 -0.3154 -0.1892
  499MOL0     C67239   7.549  10.143   1.366  1.3691 -0.2473  0.3034
  499MOL0     C67240   7.433  10.068   1.444  0.3383 -0.3679 -0.2245
  499MOL0     C67241   7.453  10.074   1.601 -0.0164 -0.0260  0.2214
  499MOL0     C67242   7.578  10.003   1.663  0.4667  0.0129  0.2631
  499MOL0     C67243   7.575  10.007   1.804  0.0347 -0.2724  0.5734
  499MOL0     C67244   7.686   9.904   1.855 -0.9620 -0.1203 -0.3366
  499MOL0     C67245   7.678   9.886   2.008  0.6733  0.8149  0.0046
  499MOL0     C67246   7.588   9.769   2.059 -0.2016 -0.0591  0.6827
  499MOL0     N67247   7.452   9.754   2.002 -0.3405  0.3127  0.7486
  499MOL0     C67248   7.432   9.701   1.876  0.5883 -0.2800  0.0693
  499MOL0     C67249   7.300   9.727   1.856 -0.7367  1.2714 -0.3231
  499MOL0     C67250   7.231   9.694   1.730 -0.5381 -0.4716  1.0023
  499MOL0     C67251   7.080   9.722   1.723  0.0432 -0.2211 -0.5961
  499MOL0     C67252   7.031   9.707   1.576  0.5189  1.0284  0.8163
  499MOL0     C67253   6.876   9.730   1.553 -0.0315  0.2711 -0.3243
  499MOL0     O67254   6.823   9.597   1.543 -0.9312  0.9139 -0.1179
  499MOL0     C67255   6.721   9.570   1.627 -1.0498  0.0274 -0.3797
  499MOL0     C67256   6.698   9.447   1.696  0.2885 -0.0301  1.1379
  499MOL0     C67257   6.587   9.422   1.776  0.2978  0.3519 -0.5897
  499MOL0     C67258   6.486   9.528   1.804 -0.7398 -0.1435  0.9632
  499MOL0     C67259   6.377   9.508   1.901 -0.1524 -0.4268  0.8942
  499MOL0     O67260   6.280   9.600   1.916 -0.9845 -0.6807 -0.4986
  499MOL0     C67261   6.159   9.576   1.981 -0.0494  0.0695 -0.3737
  499MOL0     C67262   6.084   9.687   2.014  0.1392  0.6069 -0.3783
  499MOL0     C67263   5.955   9.671   2.060  0.2679 -0.6240 -0.2491
  499MOL0     C67264   5.899   9.546   2.072  0.1296  0.5262  0.4971
  499MOL0     O67265   5.762   9.544   2.099 -0.0121 -0.0994  0.4032
  499MOL0     C67266   5.719   9.432   2.181 -0.1556 -0.2429  0.5602
  499MOL0     C67267   5.609   9.346   2.120 -0.4678  0.1053  0.2101
  499MOL0     C67268   5.567   9.243   2.222  0.7496 -0.0781  0.3034
  499MOL0     C67269   5.573   9.101   2.169  0.3380 -0.3267  0.3872
  499MOL0     C67270   5.534   8.997   2.267 -0.2489 -0.0170  0.2350
  499MOL0     C67271   5.394   9.010   2.322  0.5512 -0.5656  0.4549
  499MOL0     C67272   5.361   8.867   2.374 -0.2463  0.3912  0.7067
  499MOL0     C67273   5.233   8.878   2.450 -0.8494 -0.7208 -0.3392
  499MOL0    Cl67274   5.173   8.721   2.517 -0.2101  0.2568  0.0012
  499MOL0     C67275   5.967   9.435   2.030 -0.0670  0.9963 -0.3397
  499MOL0     C67276   6.093   9.454   1.988  0.0350  0.2624 -0.6496
  499MOL0     O67277   6.380   9.407   1.976 -0.0357  0.2836  0.0893
  499MOL0     C67278   6.507   9.651   1.742  0.2163 -1.4123 -0.1591
  499MOL0     C67279   6.619   9.675   1.656 -0.2617  0.0873  0.3536
  499MOL0     N67280   7.240   9.800   1.955  0.0999 -0.1170 -0.1948
  499MOL0     N67281   7.332   9.814   2.043 -0.3130 -0.3590 -0.3062
  499MOL0     C67282   7.816  10.267   1.342 -0.6925 -0.5708  0.1426
  499MOL0     C67283   7.916  10.334   1.273  0.4563  0.7757  0.3047
  499MOL0     C67284   8.271  10.333   0.952 -0.4826  0.8003  0.6231
  499MOL0     C67285   8.313  10.316   0.820 -0.7707 -0.6667  0.5742
  499MOL0     C67286   8.443  10.330   0.773  0.5640  0.2321  0.1078
  499MOL0     C67287   8.539  10.377   0.860 -0.1076 -0.5390  0.5361
  499MOL0     O67288   8.652  10.423   0.810  0.0670  0.9117  0.5577
  499MOL0     C67289   8.720  10.362   0.692  0.2035 -0.1847 -0.2818
  499MOL0     C67290   8.774  10.221   0.726  0.5562  0.2511  0.4552
  499MOL0     C67291   8.871  10.210   0.848  0.3760  0.1332  0.4552
  499MOL0     C67292   8.850  10.087   0.944  0.4767 -0.1584  1.3016
  499MOL0     C67293   8.897   9.960   0.882  0.3057  0.6111 -0.7974
  499MOL0     C67294   8.933   9.852   0.821  0.6106  0.4469 -0.4547
  499MOL0     C67295   8.502  10.400   1.000 -0.3849 -0.5152  0.5487
  499MOL0     C67296   8.371  10.366   1.049 -0.6218  1.7337  0.3167
  499MOL0     C67297   8.350  10.383   1.204  0.0869  0.1826  0.7458
  499MOL0     H67298   8.034  10.067   1.101  1.9596  4.1226 -1.5318
  499MOL0     H67299   7.850   9.959   1.210  1.0253 -1.1850  2.9217
  499MOL0     H67300   7.567  10.242   1.409  1.0476  0.0034 -0.1360
  499MOL0     H67301   7.528  10.156   1.259  3.1890 -2.1423 -0.3540
  499MOL0     H67302   7.422   9.963   1.414  1.9335 -0.5329 -0.3372
  499MOL0     H67303   7.341  10.120   1.417  0.6180  0.0821 -0.3112
  499MOL0     H67304   7.358  10.030   1.630 -1.8237  2.0702 -2.0631
  499MOL0     H67305   7.454  10.178   1.636  1.0777 -0.9037  3.0860
  499MOL0     H67306   7.579   9.898   1.634  0.3823 -0.0211  0.3865
  499MOL0     H67307   7.668  10.057   1.633  0.1025 -0.7521 -2.5310
  499MOL0     H67308   7.607  10.105   1.840  1.2883 -1.1239  1.8558
  499MOL0     H67309   7.477   9.987   1.849 -0.8816  1.5887 -0.4769
  499MOL0     H67310   7.678   9.803   1.813 -2.1847 -0.9417  1.6932
  499MOL0     H67311   7.787   9.940   1.834 -0.5242 -1.1451 -0.0650
  499MOL0     H67312   7.621   9.973   2.042  0.5791  0.3690  1.0137
  499MOL0     H67313   7.772   9.876   2.062  1.1743  0.3175 -0.9344
  499MOL0     H67314   7.638   9.672   2.052 -0.3651 -0.1514  0.7818
  499MOL0     H67315   7.579   9.793   2.165  2.8763  1.2482  0.7714
  499MOL0     H67316   7.512   9.662   1.814  0.7500  2.2061 -1.4396
  499MOL0     H67317   7.285   9.754   1.657 -3.4120 -0.5531 -1.3990
  499MOL0     H67318   7.235   9.589   1.701  1.2697  0.2605 -1.7912
  499MOL0     H67319   7.019   9.656   1.786  1.9088 -1.5229 -0.0711
  499MOL0     H67320   7.071   9.828   1.752 -1.8230  0.1892 -2.4397
  499MOL0     H67321   7.048   9.604   1.542 -3.7291  0.5468 -0.4548
  499MOL0     H67322   7.095   9.774   1.517  0.7376 -0.5033 -0.7860
  499MOL0     H67323   6.852   9.784   1.461 -3.6789 -0.8113 -0.1757
  499MOL0     H67324   6.857   9.790   1.642  3.6016  1.2139 -0.0138
  499MOL0     H67325   6.775   9.377   1.667 -0.4521 -0.4073  0.0237
  499MOL0     H67326   6.579   9.320   1.812 -0.0209  1.7251  3.8107
  499MOL0     H67327   6.111   9.792   2.006  0.7482  0.5883  1.1374
  499MOL0     H67328   5.897   9.756   2.093  0.9019  0.4023 -1.6525
  499MOL0     H67329   5.810   9.384   2.218  0.5944  0.4802 -0.2923
  499MOL0     H67330   5.664   9.479   2.263  0.2071  2.0610 -0.4417
  499MOL0     H67331   5.523   9.408   2.091 -0.7790  0.3019  1.5085
  499MOL0     H67332   5.651   9.311   2.025 -2.5926  2.7401 -1.9244
  499MOL0     H67333   5.628   9.242   2.313  1.0142 -1.7291  0.1377
  499MOL0     H67334   5.460   9.256   2.238  0.5808  1.2689 -1.6477
  499MOL0     H67335   5.674   9.081   2.133  0.0247  0.7008 -1.1765
  499MOL0     H67336   5.506   9.104   2.082 -0.0318  0.7607  0.6854
  499MOL0     H67337   5.603   9.002   2.352  0.7174  1.6872 -0.5923
  499MOL0     H67338   5.536   8.903   2.211  0.6470  1.2168 -1.9495
  499MOL0     H67339   5.388   9.084   2.402 -4.6176  1.6931 -1.6200
  499MOL0     H67340   5.331   9.053   2.244  2.6782  1.2696 -0.3372
  499MOL0     H67341   5.437   8.820   2.436 -1.3273 -4.3415 -1.1013
  499MOL0     H67342   5.337   8.802   2.289 -2.1627 -0.3982  1.7756
  499MOL0     H67343   5.261   8.948   2.529 -1.2208 -1.0411  0.0858
  499MOL0     H67344   5.156   8.921   2.385 -0.5626  1.7984  0.8505
  499MOL0     H67345   5.927   9.334   2.040  0.4656  0.7563 -0.5685
  499MOL0     H67346   6.135   9.356   1.968 -0.9466 -0.7216  1.6924
  499MOL0     H67347   6.435   9.731   1.759 -0.1784 -2.0351  1.1767
  499MOL0     H67348   6.626   9.770   1.604 -0.6734  0.4736  0.9838
  499MOL0     H67349   7.766  10.319   1.423  2.7172  1.8998  0.8642
  499MOL0     H67350   7.940  10.431   1.316  4.6064 -0.3454  0.9720
  499MOL0     H67351   8.237  10.273   0.755 -1.1397  0.8387 -0.0191
  499MOL0     H67352   8.454  10.311   0.666  1.2817 -1.6917  0.4885
  499MOL0     H67353   8.803  10.430   0.671 -0.2095  0.3642 -0.1539
  499MOL0     H67354   8.651  10.365   0.606 -2.0158  3.5028  1.3945
  499MOL0     H67355   8.833  10.186   0.641  2.7521  0.6357  1.7627
  499MOL0     H67356   8.687  10.154   0.727  0.7083  0.0455  0.1336
  499MOL0     H67357   8.860  10.299   0.911  0.9610  0.5831 -0.0607
  499MOL0     H67358   8.977  10.219   0.822  0.1473  0.3060 -0.4331
  499MOL0     H67359   8.907  10.112   1.034  2.9445 -2.2289  0.4433
  499MOL0     H67360   8.746  10.098   0.975  0.3835  3.7449  0.2026
  499MOL0     H67361   8.961   9.772   0.755 -0.6172 -0.0196 -0.4428
  499MOL0     H67362   8.573  10.426   1.077 -1.3998  0.2159  1.2667
  499MOL0     H67363   8.251  10.402   1.247  0.4096 -1.2502  2.2512
  499MOL0     H67364   8.364  10.282   1.243 -0.2490 -0.7988 -1.5597
  499MOL0     H67365   8.435  10.430   1.255 -0.6124  0.1751  1.9548
  500MOL0     O67366   6.331   4.637   3.635  0.8532  0.6726 -0.2547
  500MOL0     C67367   6.430   4.615   3.701  0.0327  0.8281  0.0410
  500MOL0     O67368   6.424   4.555   3.821 -0.1924  0.8728 -0.5379
  500MOL0     C67369   6.311   4.528   3.893 -0.4533 -0.1114  0.0624
  500MOL0     C67370   6.246   4.400   3.874 -0.9661  0.6369 -1.3618
  500MOL0     C67371   6.128   4.374   3.952  0.6959  0.6633 -0.1176
  500MOL0     C67372   6.070   4.466   4.046 -1.4340 -0.4478  0.3891
  500MOL0     O67373   5.957   4.438   4.122 -0.0583 -0.7286 -0.8476
  500MOL0     C67374   5.844   4.396   4.046  0.9585  0.3885 -0.3497
  500MOL0     C67375   5.713   4.402   4.122 -0.1173 -0.3538  0.1306
  500MOL0     C67376   5.580   4.409   4.045  0.6623  0.1314 -0.8498
  500MOL0     C67377   5.550   4.302   3.932  0.0100  0.6102 -0.1083
  500MOL0     C67378   5.535   4.173   4.008  0.1308  0.5280 -0.1782
  500MOL0     C67379   5.519   4.072   3.902 -0.6094 -0.9188 -1.2928
  500MOL0     C67380   5.509   3.932   3.971 -1.2948 -0.0376 -0.4008
  500MOL0     C67381   5.656   3.880   3.997  0.0719 -0.0736 -0.4444
  500MOL0     N67382   5.637   3.755   4.077 -0.2316  0.3286  0.2109
  500MOL0     C67383   5.578   3.739   4.201 -0.4559  0.3695  0.3164
  500MOL0     C67384   5.557   3.607   4.212 -0.8088 -0.3671  0.0880
  500MOL0     C67385   5.485   3.535   4.324 -0.5640 -0.3353  0.4994
  500MOL0     C67386   5.541   3.565   4.468  0.3223 -0.5041  0.5738
  500MOL0     C67387   5.470   3.468   4.560 -0.2836 -0.9388 -0.6191
  500MOL0     C67388   5.512   3.483   4.700  0.4091 -0.6733  0.1316
  500MOL0     O67389   5.451   3.393   4.780 -0.0680  0.9192  0.8990
  500MOL0     C67390   5.532   3.331   4.878  0.5676  0.7302 -0.5633
  500MOL0     C67391   5.642   3.398   4.945  0.2798  0.0399  0.1755
  500MOL0     C67392   5.705   3.334   5.050 -0.8089 -0.5606  0.1540
  500MOL0     C67393   5.674   3.204   5.090  0.5163  0.1510 -0.1201
  500MOL0     C67394   5.748   3.144   5.205 -0.1541 -1.4152  0.7385
  500MOL0     O67395   5.715   3.016   5.239  0.3084 -0.3766  0.2105
  500MOL0     C67396   5.765   2.952   5.350 -0.7928 -0.1022 -0.1148
  500MOL0     C67397   5.686   2.862   5.430 -0.1307 -0.3736 -0.0115
  500MOL0     C67398   5.730   2.781   5.528  0.2004  0.1362  1.2689
  500MOL0     C67399   5.862   2.808   5.563 -0.8846 -0.7613 -0.3805
  500MOL0     O67400   5.896   2.738   5.673  0.0433  0.0933 -0.9064
  500MOL0     C67401   6.018   2.650   5.669 -0.7122 -0.1658 -0.1469
  500MOL0     C67402   6.023   2.528   5.760 -0.3149  0.4014  0.4537
  500MOL0     C67403   6.153   2.441   5.770  0.5469 -0.9846 -0.6774
  500MOL0     C67404   6.165   2.376   5.908  1.3101 -0.5028  0.0447
  500MOL0     C67405   6.087   2.238   5.918  0.0640  0.5127 -0.8442
  500MOL0     C67406   6.128   2.160   6.040 -0.5835  0.7099 -0.6456
  500MOL0     C67407   6.019   2.065   6.080 -0.5750 -0.2386  0.2007
  500MOL0     C67408   6.083   1.982   6.195 -0.5020  1.1011  0.3081
  500MOL0    Cl67409   6.213   1.876   6.125  0.0828 -0.3363 -0.2912
  500MOL0     C67410   5.942   2.900   5.503  0.0747  0.1415  0.1294
  500MOL0     C67411   5.902   2.975   5.394  0.5518 -0.0089  0.7363
  500MOL0     O67412   5.814   3.222   5.277 -0.0837 -0.5169  0.4091
  500MOL0     C67413   5.577   3.123   5.010 -0.1274 -0.3551  0.4916
  500MOL0     C67414   5.500   3.196   4.921  0.2218 -0.2094 -0.4413
  500MOL0     N67415   5.595   3.547   4.099 -0.0192  0.5521  0.3824
  500MOL0     N67416   5.650   3.627   4.018  0.2272  1.5171  0.1051
  500MOL0     C67417   6.142   4.581   4.062 -0.7285 -0.9894  0.3062
  500MOL0     C67418   6.262   4.611   3.993 -0.7704 -0.0291  0.0456
  500MOL0     C67419   6.560   4.662   3.639  0.3888  0.4285  0.5143
  500MOL0     C67420   6.554   4.703   3.503  0.4183 -0.2889 -0.3211
  500MOL0     C67421   6.665   4.753   3.435 -0.6141  0.9450 -0.5573
  500MOL0     C67422   6.788   4.768   3.497  0.6389  0.0707  0.5028
  500MOL0     O67423   6.895   4.821   3.433  0.9846 -0.1837 -0.4132
  500MOL0     C67424   6.951   4.737   3.333 -0.2604 -0.6173 -0.1893
  500MOL0     C67425   7.020   4.612   3.386  0.1154  0.3605  0.3623
  500MOL0     C67426   7.164   4.649   3.437 -0.5643  0.8552 -0.2485
  500MOL0     C67427   7.216   4.538   3.531  0.2230  1.2527  0.7230
  500MOL0     C67428   7.238   4.404   3.464 -1.1326  0.5911  0.1790
  500MOL0     C67429   7.260   4.299   3.411  0.2548  0.1656 -0.7887
  500MOL0     C67430   6.798   4.716   3.632  0.7913  0.1884 -0.5182
  500MOL0     C67431   6.686   4.669   3.705 -0.0926  0.4246  0.7951
  500MOL0     C67432   6.711   4.621   3.842 -1.0382 -0.3623  0.3542
  500MOL0     H67433   6.280   4.332   3.797  2.4902  1.8369 -1.0681
  500MOL0     H67434   6.082   4.277   3.932  1.4584  0.8765 -3.3382
  500MOL0     H67435   5.822   4.464   3.963 -0.0686  2.9464  1.8559
  500MOL0     H67436   5.858   4.300   3.996 -2.7950 -0.1950 -0.5829
  500MOL0     H67437   5.718   4.492   4.184  0.6852 -0.8689  0.8332
  500MOL0     H67438   5.714   4.331   4.205  1.0309 -0.2001  0.2594
  500MOL0     H67439   5.575   4.506   3.995 -2.1821  0.1028 -0.7683
  500MOL0     H67440   5.500   4.403   4.119  1.7982  2.2901  0.6547
  500MOL0     H67441   5.458   4.325   3.877  1.2597  2.6333 -1.4816
  500MOL0     H67442   5.629   4.299   3.857  1.3194 -2.8931  1.2171
  500MOL0     H67443   5.625   4.154   4.068  0.8171 -3.4617 -2.0766
  500MOL0     H67444   5.457   4.191   4.082  4.7199  2.8839  4.7711
  500MOL0     H67445   5.421   4.096   3.860 -2.0870 -1.4818  1.5382
  500MOL0     H67446   5.600   4.081   3.829  0.5440 -1.9265 -0.1839
  500MOL0     H67447   5.470   3.860   3.899  3.6353 -0.7136 -2.8350
  500MOL0     H67448   5.453   3.933   4.065 -0.4067  1.0400  0.1520
  500MOL0     H67449   5.690   3.841   3.901 -2.6168 -1.3774 -0.9725
  500MOL0     H67450   5.721   3.955   4.042  0.2053 -0.3924 -0.1019
  500MOL0     H67451   5.552   3.813   4.276  1.9989  1.4396  0.2017
  500MOL0     H67452   5.383   3.570   4.308 -0.2985  1.8314  2.9556
  500MOL0     H67453   5.491   3.426   4.313 -4.8601 -0.9290  2.1681
  500MOL0     H67454   5.650   3.558   4.482  0.1296 -1.1890  1.8833
  500MOL0     H67455   5.512   3.666   4.498 -1.7459 -1.4983  2.1369
  500MOL0     H67456   5.482   3.364   4.527 -1.8328 -2.9996  4.3777
  500MOL0     H67457   5.362   3.487   4.562 -0.1094  0.0725  1.3524
  500MOL0     H67458   5.479   3.578   4.742 -1.9858 -1.4851  0.2517
  500MOL0     H67459   5.620   3.468   4.711 -0.0562 -2.9035  2.7658
  500MOL0     H67460   5.679   3.497   4.920 -0.9673  0.5421  0.2164
  500MOL0     H67461   5.788   3.390   5.093  0.7406 -0.3899 -2.7625
  500MOL0     H67462   5.584   2.849   5.397  0.3572 -1.3634 -1.2235
  500MOL0     H67463   5.671   2.706   5.580 -1.2059  1.6732  1.9693
  500MOL0     H67464   6.011   2.599   5.573 -2.4595 -0.7399  0.2456
  500MOL0     H67465   6.114   2.701   5.669 -0.7299 -0.0977 -1.4702
  500MOL0     H67466   6.020   2.564   5.863 -0.3732 -3.5669  1.9912
  500MOL0     H67467   5.939   2.460   5.743  0.3865  0.2192 -3.1674
  500MOL0     H67468   6.159   2.365   5.692  2.8579 -1.2482 -0.3163
  500MOL0     H67469   6.234   2.511   5.747 -0.7422  0.0547 -2.2217
  500MOL0     H67470   6.132   2.434   5.995  2.2827 -0.7947  0.6360
  500MOL0     H67471   6.270   2.347   5.923  0.6983 -2.2627  1.2602
  500MOL0     H67472   6.124   2.180   5.832 -1.2209 -0.7516 -0.5841
  500MOL0     H67473   5.978   2.250   5.909  0.2814  1.7180 -2.2720
  500MOL0     H67474   6.214   2.100   6.010 -0.4652  0.6236 -0.1427
  500MOL0     H67475   6.149   2.230   6.121  1.3766  0.8707 -1.2498
  500MOL0     H67476   5.993   1.994   6.001  0.1508 -3.1044  2.3840
  500MOL0     H67477   5.927   2.117   6.109  0.0570  1.0368 -0.0109
  500MOL0     H67478   6.139   2.041   6.267 -1.0390  1.5708  0.3380
  500MOL0     H67479   6.014   1.929   6.261  3.3635 -1.5996  2.5755
  500MOL0     H67480   6.041   2.924   5.542  0.0923  1.8801 -0.8972
  500MOL0     H67481   5.955   3.051   5.339 -1.5693  3.0042  2.5034
  500MOL0     H67482   5.572   3.016   5.024  1.0382 -0.7238 -1.6244
  500MOL0     H67483   5.424   3.137   4.872 -1.6859 -1.7458  3.8242
  500MOL0     H67484   6.089   4.642   4.135  0.0615 -1.4739  1.3040
  500MOL0     H67485   6.308   4.707   4.015 -2.4377  0.8513 -0.1587
  500MOL0     H67486   6.465   4.691   3.442  0.4229  2.4168 -1.0137
  500MOL0     H67487   6.661   4.781   3.330  0.3954 -1.6190 -1.3679
  500MOL0     H67488   7.016   4.803   3.275  1.5679 -0.4518  1.9117
  500MOL0     H67489   6.867   4.707   3.270 -0.6398 -1.7753  0.8225
  500MOL0     H67490   7.035   4.544   3.302  1.5278  1.2879 -0.1691
  500MOL0     H67491   6.962   4.557   3.461 -0.9972 -0.9702 -1.3868
  500MOL0     H67492   7.172   4.738   3.500  0.3763  1.4092 -1.1034
  500MOL0     H67493   7.226   4.639   3.347 -1.1785 -3.3537 -0.4254
  500MOL0     H67494   7.299   4.575   3.593 -0.9474  1.7371  2.0514
  500MOL0     H67495   7.146   4.521   3.613 -3.4581  1.0633 -2.1958
  500MOL0     H67496   7.275   4.203   3.366  1.2683  1.0143 -2.3920
  500MOL0     H67497   6.893   4.722   3.684 -0.8855  1.9387  2.6975
  500MOL0     H67498   6.727   4.513   3.850  0.4714 -0.1765  0.2809
  500MOL0     H67499   6.810   4.654   3.876 -0.3319 -0.7565 -1.1883
  500MOL0     H67500   6.629   4.648   3.908  0.9452 -1.0401  3.2574
  501MOL0     O67501  10.375  10.424   9.241  0.5485  0.2471  0.6406
  501MOL0     C67502  10.257  10.387   9.248 -1.2438 -0.1855 -0.2287
  501MOL0     O67503  10.192  10.344   9.355 -0.5982 -0.3288 -0.1716
  501MOL0     C67504  10.256  10.344   9.473 -0.8735  0.2034  0.3529
  501MOL0     C67505  10.258  10.457   9.546  0.0897  0.5170 -0.5088
  501MOL0     C67506  10.349  10.462   9.660  0.3568 -0.4024 -0.3899
  501MOL0     C67507  10.418  10.344   9.709 -0.5558  0.3125 -0.1980
  501MOL0     O67508  10.503  10.337   9.816 -0.0001  0.5724 -0.3084
  501MOL0     C67509  10.532  10.452   9.907  0.2012 -0.2276  1.0076
  501MOL0     C67510  10.609  10.403  10.019 -0.2220 -0.4019  0.5078
  501MOL0     C67511  10.741  10.315  10.005  1.1348 -0.4207 -0.8323
  501MOL0     C67512  10.840  10.337  10.113  0.4261  0.7479  0.6988
  501MOL0     C67513  10.780  10.290  10.246 -0.2383 -0.6497 -0.6942
  501MOL0     C67514  10.758  10.400  10.344  0.6192 -0.1018 -0.3482
  501MOL0     C67515  10.724  10.342  10.473  0.3400 -1.0612 -0.7137
  501MOL0     C67516  10.751  10.439  10.589 -0.5563 -0.7459 -0.0574
  501MOL0     N67517  10.635  10.519  10.632  1.1489 -0.5413 -0.3981
  501MOL0     C67518  10.617  10.658  10.605  0.9369  0.3227 -0.6381
  501MOL0     C67519  10.510  10.687  10.691  0.7525  0.0895 -0.0542
  501MOL0     C67520  10.454  10.819  10.713 -0.3788  0.0004 -0.4066
  501MOL0     C67521  10.300  10.832  10.703 -0.2875  0.3312 -0.0832
  501MOL0     C67522  10.231  10.754  10.589 -0.1809 -0.1049 -0.0068
  501MOL0     C67523  10.220  10.845  10.464 -0.6240 -0.8542 -0.5859
  501MOL0     O67524  10.204  10.760  10.347  0.5251 -0.5909  0.4587
  501MOL0     C67525  10.307  10.759  10.267  0.3769 -1.1481 -1.3807
  501MOL0     C67526  10.433  10.734  10.312  0.0098 -0.2634  1.4245
  501MOL0     C67527  10.541  10.753  10.230  0.3004 -0.3546  0.5122
  501MOL0     C67528  10.525  10.778  10.092  0.3197 -0.5029 -0.4792
  501MOL0     C67529  10.654  10.770  10.010  0.4494 -0.1218 -0.2273
  501MOL0     O67530  10.774  10.749  10.077  0.7556  0.3738 -0.4055
  501MOL0     C67531  10.886  10.768  10.009 -0.4442  0.2735 -0.6075
  501MOL0     C67532  10.936  10.690   9.900 -0.0677 -0.2998 -0.1856
  501MOL0     C67533  11.046  10.736   9.828 -0.3418  1.2268 -0.0222
  501MOL0     C67534  11.121  10.847   9.859  0.8343 -0.4036 -0.4376
  501MOL0     O67535  11.233  10.891   9.794 -0.4368  0.5794 -0.3669
  501MOL0     C67536  11.258  10.846   9.661 -0.1621 -0.0628 -0.2848
  501MOL0     C67537  11.380  10.913   9.605 -1.1096  0.2744 -0.6817
  501MOL0     C67538  11.341  11.060   9.586  0.2121 -0.4947  0.2069
  501MOL0     C67539  11.266  11.076   9.454  0.2146  0.0148  0.3796
  501MOL0     C67540  11.272  11.212   9.390  0.2061  1.2761  0.6601
  501MOL0     C67541  11.208  11.318   9.481  0.2734  0.2556  0.0700
  501MOL0     C67542  11.191  11.455   9.405  0.4722 -0.4368 -0.0661
  501MOL0     C67543  11.298  11.553   9.434 -0.6812 -0.1114  1.1143
  501MOL0    Cl67544  11.253  11.699   9.338  0.2999  0.5036 -0.3796
  501MOL0     C67545  11.066  10.930   9.960 -0.2239 -0.6502  0.3790
  501MOL0     C67546  10.950  10.894  10.031  0.1002  0.3800  0.9833
  501MOL0     O67547  10.634  10.779   9.889  0.5186 -0.0578 -0.1148
  501MOL0     C67548  10.388  10.799  10.062 -0.5503 -0.9719  1.2070
  501MOL0     C67549  10.281  10.783  10.142 -0.9743 -1.0324 -0.2512
  501MOL0     N67550  10.462  10.573  10.757  0.1273  0.2419 -0.3161
  501MOL0     N67551  10.532  10.480  10.717  0.0634  0.5478 -0.0747
  501MOL0     C67552  10.401  10.227   9.631  0.2370 -0.1514  0.3841
  501MOL0     C67553  10.320  10.231   9.518  0.2759  0.1321  0.3907
  501MOL0     C67554  10.172  10.391   9.129 -0.8753 -0.5972 -0.4293
  501MOL0     C67555  10.061  10.295   9.118 -0.2990 -0.7321 -1.3077
  501MOL0     C67556   9.978  10.290   8.997 -0.6656  0.2884 -0.4596
  501MOL0     C67557  10.006  10.376   8.890 -0.7662  0.0776 -0.3421
  501MOL0     O67558   9.933  10.383   8.774  0.3558  0.4134  0.2422
  501MOL0     C67559   9.837  10.280   8.750 -0.3639 -0.2784  0.3523
  501MOL0     C67560   9.787  10.294   8.610  0.4741  0.5330 -1.0513
  501MOL0     C67561   9.889  10.239   8.502 -0.4242 -0.4929 -0.2501
  501MOL0     C67562   9.955  10.360   8.434 -1.1169 -0.1019  0.1667
  501MOL0     C67563  10.037  10.315   8.319 -0.0323 -0.6943  0.2573
  501MOL0     C67564  10.103  10.297   8.218 -0.2988 -0.6426 -0.1811
  501MOL0     C67565  10.102  10.466   8.902 -0.2993 -0.3353 -0.0099
  501MOL0     C67566  10.181  10.487   9.022 -0.0418  0.7135 -0.1400
  501MOL0     C67567  10.264  10.613   9.033  0.6238  0.0056 -0.0436
  501MOL0     H67568  10.207  10.549   9.520 -1.7446  0.3563  2.1331
  501MOL0     H67569  10.356  10.561   9.704  1.1733  0.2093 -1.8090
  501MOL0     H67570  10.594  10.522   9.851 -1.0017 -1.8798 -2.7261
  501MOL0     H67571  10.436  10.487   9.945 -0.6662 -2.0762  0.6609
  501MOL0     H67572  10.548  10.333  10.076 -1.6062 -1.1470 -1.7821
  501MOL0     H67573  10.642  10.491  10.076  1.5409  2.6239 -4.5148
  501MOL0     H67574  10.781  10.343   9.906  1.9997  1.3299 -0.0317
  501MOL0     H67575  10.707  10.211   9.998  1.7421 -0.7505  0.7221
  501MOL0     H67576  10.925  10.272  10.089  0.6814  0.7555  1.5516
  501MOL0     H67577  10.861  10.445  10.113  0.3606  0.7906 -1.2110
  501MOL0     H67578  10.691  10.228  10.234 -1.0357  0.6018 -1.5425
  501MOL0     H67579  10.859  10.228  10.289  1.1027  2.1769  1.2961
  501MOL0     H67580  10.851  10.456  10.332  0.7235 -0.2039 -0.0438
  501MOL0     H67581  10.679  10.471  10.318 -0.0705 -0.9052 -0.4847
  501MOL0     H67582  10.781  10.250  10.488 -0.1992 -1.2185  0.5501
  501MOL0     H67583  10.615  10.334  10.468  0.5074 -3.2108 -1.7980
  501MOL0     H67584  10.770  10.388  10.684 -0.0871  0.0999  0.3096
  501MOL0     H67585  10.838  10.502  10.571 -1.9673  0.9891 -1.1364
  501MOL0     H67586  10.680  10.726  10.548  1.1184  2.4567  1.9116
  501MOL0     H67587  10.493  10.840  10.813 -1.2203  0.5483 -0.1780
  501MOL0     H67588  10.482  10.899  10.645 -3.2187  2.9660  1.5652
  501MOL0     H67589  10.254  10.783  10.789  2.0700 -0.7236  0.6435
  501MOL0     H67590  10.261  10.934  10.693 -0.7780  0.1496 -0.0639
  501MOL0     H67591  10.128  10.751  10.625 -0.4061  3.2284 -0.0776
  501MOL0     H67592  10.270  10.655  10.560  0.3851 -0.2485  1.2062
  501MOL0     H67593  10.313  10.902  10.457  2.5292 -5.4866 -0.7849
  501MOL0     H67594  10.135  10.915  10.468  0.2051  0.1157  1.8954
  501MOL0     H67595  10.448  10.725  10.419  3.1393  4.1341  1.6561
  501MOL0     H67596  10.640  10.739  10.274  0.5040  0.3541  0.2873
  501MOL0     H67597  10.868  10.614   9.862 -2.1009 -1.0063  4.2609
  501MOL0     H67598  11.081  10.680   9.741 -3.1229  3.3258 -2.7094
  501MOL0     H67599  11.296  10.743   9.668 -2.2592 -0.9010 -0.4013
  501MOL0     H67600  11.170  10.851   9.596 -1.7031 -1.4097  1.5688
  501MOL0     H67601  11.463  10.908   9.676 -0.9059  0.0309 -0.9362
  501MOL0     H67602  11.417  10.871   9.512  1.2074  1.1288 -0.2034
  501MOL0     H67603  11.285  11.103   9.669  1.9682 -2.2356  2.4065
  501MOL0     H67604  11.437  11.113   9.586  1.1447 -2.0920  1.8243
  501MOL0     H67605  11.160  11.049   9.462 -0.7047  2.8642 -1.1717
  501MOL0     H67606  11.305  10.994   9.393 -0.7859 -0.7392  0.7212
  501MOL0     H67607  11.216  11.215   9.297 -1.3823  1.7940  1.5908
  501MOL0     H67608  11.376  11.229   9.364  0.3074 -1.1549 -0.7954
  501MOL0     H67609  11.106  11.301   9.516  0.2471  4.0540  2.4479
  501MOL0     H67610  11.261  11.327   9.577 -2.0165  1.6754  1.2984
  501MOL0     H67611  11.095  11.499   9.432  1.0489  0.2458  0.9127
  501MOL0     H67612  11.196  11.442   9.296  0.3124  0.0230 -0.1315
  501MOL0     H67613  11.299  11.580   9.540 -0.0722  2.8566  0.4486
  501MOL0     H67614  11.396  11.517   9.403 -2.2309 -2.7097 -1.1875
  501MOL0     H67615  11.112  11.026   9.981  0.3050 -0.4099 -1.6896
  501MOL0     H67616  10.902  10.956  10.105  0.9489  1.4995  0.6179
  501MOL0     H67617  10.368  10.828   9.959  1.4721 -3.0423  0.1254
  501MOL0     H67618  10.182  10.782  10.099 -0.0943  0.9208 -2.5877
  501MOL0     H67619  10.450  10.134   9.657 -1.7153 -0.6159  2.7268
  501MOL0     H67620  10.316  10.136   9.465  1.3919  1.0841 -1.4986
  501MOL0     H67621  10.040  10.242   9.210  0.3955  1.0980 -0.0391
  501MOL0     H67622   9.894  10.221   8.990  0.7846 -1.4199 -2.5691
  501MOL0     H67623   9.754  10.291   8.820  1.4482 -1.9977  2.9478
  501MOL0     H67624   9.888  10.185   8.766  1.1803  0.3704 -0.4818
  501MOL0     H67625   9.755  10.397   8.593  0.5278  0.6857 -0.2493
  501MOL0     H67626   9.697  10.232   8.600  1.3892 -0.6493 -2.4044
  501MOL0     H67627   9.842  10.182   8.422 -0.1287 -0.3054 -0.5633
  501MOL0     H67628   9.961  10.172   8.550  1.5462  1.4025 -0.4127
  501MOL0     H67629   9.879  10.430   8.397 -0.0278  0.8230 -0.3632
  501MOL0     H67630  10.007  10.414   8.513 -1.7486  0.7122  0.0420
  501MOL0     H67631  10.158  10.282   8.128 -3.6625  1.8783 -2.9392
  501MOL0     H67632  10.129  10.536   8.823  0.4122  1.1460  1.4989
  501MOL0     H67633  10.370  10.587   9.020  0.8062 -0.3428  1.8340
  501MOL0     H67634  10.231  10.696   8.969 -0.7895  0.3157  1.0491
  501MOL0     H67635  10.248  10.651   9.134  3.0733 -4.5197  2.3568
  502MOL0     O67636   3.297   5.390   7.661  0.0717 -0.7045 -0.1750
  502MOL0     C67637   3.377   5.311   7.712  0.6251  0.5331  0.3187
  502MOL0     O67638   3.454   5.338   7.817  0.3040 -0.2235 -0.3197
  502MOL0     C67639   3.470   5.466   7.861  0.7440 -1.4132 -0.9352
  502MOL0     C67640   3.410   5.589   7.823  0.1489  0.3346  0.3246
  502MOL0     C67641   3.455   5.707   7.870 -0.2354  0.3661 -1.0101
  502MOL0     C67642   3.556   5.716   7.966 -0.4892  0.6444 -0.0919
  502MOL0     O67643   3.588   5.840   8.019 -0.5397  0.0354  0.0410
  502MOL0     C67644   3.724   5.874   8.071  0.0941  0.6131  0.3895
  502MOL0     C67645   3.832   5.856   7.960 -0.3126 -0.0998  0.2602
  502MOL0     C67646   3.971   5.820   8.013 -0.0134 -1.1645 -0.2240
  502MOL0     C67647   4.072   5.796   7.901 -0.6688 -0.3238 -0.3849
  502MOL0     C67648   4.186   5.703   7.938 -0.0495 -0.2029  0.6601
  502MOL0     C67649   4.280   5.741   8.065 -0.0682 -0.6552 -0.5615
  502MOL0     C67650   4.330   5.613   8.141  0.9704  0.1252  0.3683
  502MOL0     C67651   4.413   5.644   8.266 -0.1686 -0.1183 -0.5323
  502MOL0     N67652   4.323   5.715   8.365  0.1840  0.3250 -0.0729
  502MOL0     C67653   4.290   5.848   8.370  0.4621  0.2533 -0.6017
  502MOL0     C67654   4.225   5.868   8.483  0.6663 -0.8438 -0.1542
  502MOL0     C67655   4.176   5.997   8.538  0.3961 -0.1877  0.0671
  502MOL0     C67656   4.177   6.006   8.697  0.2577 -0.1314  1.1482
  502MOL0     C67657   4.312   5.968   8.754 -0.2200  0.5927 -0.2241
  502MOL0     C67658   4.301   5.971   8.911 -0.6671  0.0491  0.0326
  502MOL0     O67659   4.279   6.106   8.952 -0.3347  0.0385  0.4743
  502MOL0     C67660   4.245   6.129   9.084 -0.0783  0.0010  0.7883
  502MOL0     C67661   4.227   6.259   9.126  0.8086  0.1908  0.5724
  502MOL0     C67662   4.211   6.294   9.260  0.0602  0.4546 -0.1030
  502MOL0     C67663   4.209   6.184   9.355 -0.2919 -0.6718  0.2143
  502MOL0     C67664   4.186   6.222   9.498 -0.3644 -0.7400 -0.4445
  502MOL0     O67665   4.149   6.348   9.532 -0.5951 -0.4307  0.1364
  502MOL0     C67666   4.157   6.387   9.660 -0.1996 -0.1755 -0.5485
  502MOL0     C67667   4.048   6.450   9.708  0.1383  0.4034  0.9127
  502MOL0     C67668   4.049   6.499   9.842  0.5592  0.9031  0.1643
  502MOL0     C67669   4.155   6.497   9.922 -0.6190 -0.0064 -0.6762
  502MOL0     O67670   4.147   6.536  10.049  0.1864  0.1287  0.4206
  502MOL0     C67671   4.277   6.543  10.114 -0.4801 -0.8099 -0.3077
  502MOL0     C67672   4.264   6.628  10.245  0.0592 -0.2309  0.5672
  502MOL0     C67673   4.403   6.667  10.300  0.0493  0.7865  0.6618
  502MOL0     C67674   4.434   6.817  10.307  0.9460  0.3158 -0.4712
  502MOL0     C67675   4.569   6.853  10.382  0.2355  0.1829  0.2044
  502MOL0     C67676   4.552   6.856  10.538  0.6416  0.5951 -0.3355
  502MOL0     C67677   4.691   6.876  10.601 -0.6039 -0.0388  0.4176
  502MOL0     C67678   4.776   6.746  10.609 -0.1536 -0.1240 -0.0681
  502MOL0    Cl67679   4.941   6.775  10.660  0.1295  0.2405 -0.3262
  502MOL0     C67680   4.270   6.434   9.872 -0.6203  0.2149  0.4832
  502MOL0     C67681   4.273   6.389   9.741 -1.0107 -0.9295  0.5762
  502MOL0     O67682   4.207   6.131   9.578  0.6062 -0.1031  0.2508
  502MOL0     C67683   4.221   6.056   9.312 -0.4263  0.1899 -0.6503
  502MOL0     C67684   4.247   6.026   9.180 -0.0836  0.4303  0.5155
  502MOL0     N67685   4.211   5.742   8.546  0.9977 -0.1484  0.1293
  502MOL0     N67686   4.281   5.654   8.483 -0.5865 -0.1916  1.0833
  502MOL0     C67687   3.620   5.599   7.999  0.6384 -0.5800 -0.0245
  502MOL0     C67688   3.581   5.479   7.946 -0.5239  0.5975 -0.2023
  502MOL0     C67689   3.380   5.176   7.646  0.0766 -0.5651  0.2155
  502MOL0     C67690   3.495   5.120   7.596  0.2541 -1.8924 -0.1206
  502MOL0     C67691   3.484   5.001   7.519 -0.0404 -0.3609 -0.3049
  502MOL0     C67692   3.373   4.928   7.509 -0.1083  0.3564  0.6232
  502MOL0     O67693   3.366   4.818   7.431 -0.4920  0.6169  0.3161
  502MOL0     C67694   3.490   4.744   7.407 -0.2384  0.2127  0.0892
  502MOL0     C67695   3.449   4.608   7.332 -0.5744 -0.0510  0.0992
  502MOL0     C67696   3.325   4.536   7.376 -0.3081  0.3849 -0.7207
  502MOL0     C67697   3.361   4.484   7.522  0.1285  0.5417  1.1190
  502MOL0     C67698   3.245   4.417   7.573  0.1644 -0.3176 -0.3242
  502MOL0     C67699   3.143   4.358   7.612 -0.4454 -0.5199  0.3167
  502MOL0     C67700   3.262   4.977   7.577 -1.0139  0.5354 -0.1148
  502MOL0     C67701   3.265   5.095   7.646  0.1039 -0.7621 -0.4018
  502MOL0     C67702   3.129   5.146   7.687 -1.0934 -1.1491  0.2447
  502MOL0     H67703   3.328   5.600   7.752  0.3758  2.7562  0.3577
  502MOL0     H67704   3.402   5.796   7.836 -2.7993 -0.1512  1.2714
  502MOL0     H67705   3.712   5.977   8.105  2.9397  0.8368  0.9471
  502MOL0     H67706   3.758   5.825   8.162 -0.3074  1.7991  1.2044
  502MOL0     H67707   3.838   5.944   7.896  1.9584 -0.5177 -0.2064
  502MOL0     H67708   3.804   5.772   7.896  0.2522  0.2854 -0.5089
  502MOL0     H67709   3.956   5.730   8.073  3.3909 -1.3991  0.4958
  502MOL0     H67710   4.009   5.906   8.070  0.1854 -1.1333 -0.4045
  502MOL0     H67711   4.016   5.745   7.823 -0.8421  0.0167 -0.4831
  502MOL0     H67712   4.124   5.886   7.868  1.6042 -0.4451  2.4695
  502MOL0     H67713   4.135   5.611   7.966  1.8140 -1.4810  0.0045
  502MOL0     H67714   4.248   5.687   7.850 -0.9630  0.5569 -0.1512
  502MOL0     H67715   4.359   5.812   8.039 -1.2134  0.1604 -1.9260
  502MOL0     H67716   4.210   5.793   8.131  1.0834  1.0997 -0.6599
  502MOL0     H67717   4.403   5.560   8.079  1.0644 -1.8951  2.1137
  502MOL0     H67718   4.246   5.547   8.165  1.0892  0.2085  1.0272
  502MOL0     H67719   4.449   5.558   8.323 -1.2114 -0.2456 -0.0201
  502MOL0     H67720   4.497   5.705   8.234  2.7167 -1.9391  2.7977
  502MOL0     H67721   4.321   5.924   8.299 -2.0710  1.3848 -0.5975
  502MOL0     H67722   4.251   6.069   8.505  2.1961 -2.0683 -0.1631
  502MOL0     H67723   4.079   6.025   8.496  0.8524  0.4943 -0.5552
  502MOL0     H67724   4.147   6.109   8.721 -3.1586 -0.2628 -1.7905
  502MOL0     H67725   4.100   5.936   8.731 -0.3183 -0.0034  0.1503
  502MOL0     H67726   4.381   6.044   8.717  0.2481  0.4186  0.2737
  502MOL0     H67727   4.335   5.867   8.717 -3.8855 -0.9469  1.1361
  502MOL0     H67728   4.396   5.937   8.951 -2.3098 -1.2668  3.1584
  502MOL0     H67729   4.214   5.914   8.945 -1.5149  2.3191  1.9249
  502MOL0     H67730   4.202   6.336   9.053 -1.7610 -0.2442  0.9052
  502MOL0     H67731   4.197   6.399   9.283 -0.8761  0.8504 -2.2506
  502MOL0     H67732   3.963   6.463   9.642  1.3072  1.1372 -0.5211
  502MOL0     H67733   3.956   6.542   9.877 -0.6095 -2.6189  1.9080
  502MOL0     H67734   4.301   6.440  10.142 -0.6818 -1.3995 -2.2117
  502MOL0     H67735   4.362   6.594  10.068  0.1571  0.4101  2.0329
  502MOL0     H67736   4.208   6.717  10.215  0.1579  0.2531  1.7233
  502MOL0     H67737   4.208   6.562  10.311 -0.2661 -1.9661 -1.3575
  502MOL0     H67738   4.400   6.640  10.406 -1.7411  1.8167  0.9297
  502MOL0     H67739   4.480   6.610  10.247 -1.4309 -0.5628 -0.0990
  502MOL0     H67740   4.348   6.872  10.347  0.0052 -1.6567  0.3383
  502MOL0     H67741   4.438   6.855  10.205  0.2909  0.6194 -0.3927
  502MOL0     H67742   4.573   6.958  10.350  0.3050  1.4110  3.7999
  502MOL0     H67743   4.656   6.795  10.348  0.8736  0.5534  1.1637
  502MOL0     H67744   4.486   6.940  10.563 -1.7848 -0.1394 -3.6257
  502MOL0     H67745   4.497   6.770  10.577 -0.9600  2.0205  0.6840
  502MOL0     H67746   4.672   6.907  10.705  1.6657 -1.5237  1.3541
  502MOL0     H67747   4.751   6.949  10.547 -1.3541  0.6848  0.5381
  502MOL0     H67748   4.731   6.682  10.686  1.7694 -1.4675 -0.0053
  502MOL0     H67749   4.775   6.692  10.514  1.4157 -0.4789  0.1010
  502MOL0     H67750   4.359   6.410   9.928  1.0100 -3.5869 -3.1700
  502MOL0     H67751   4.363   6.337   9.709 -0.9208 -1.3990  1.5618
  502MOL0     H67752   4.219   5.981   9.391 -1.4800 -2.2911 -2.8742
  502MOL0     H67753   4.277   5.922   9.175 -0.5173  0.0019  4.0358
  502MOL0     H67754   3.703   5.609   8.068 -0.4184  1.8295  1.0061
  502MOL0     H67755   3.629   5.387   7.978 -1.2168  0.0433 -0.7091
  502MOL0     H67756   3.585   5.181   7.597 -1.3759  0.6497  0.8887
  502MOL0     H67757   3.555   4.961   7.448 -2.4436 -4.3762 -0.7821
  502MOL0     H67758   3.538   4.712   7.500  2.1039 -0.0128 -1.1292
  502MOL0     H67759   3.568   4.795   7.350 -1.0713  0.4772 -0.8467
  502MOL0     H67760   3.537   4.543   7.343  0.2633  0.7993 -1.2892
  502MOL0     H67761   3.442   4.620   7.224 -2.2826 -3.3253 -0.2740
  502MOL0     H67762   3.296   4.457   7.306  0.8575 -1.8094  1.1365
  502MOL0     H67763   3.240   4.604   7.385 -0.5161  0.3167 -2.0389
  502MOL0     H67764   3.438   4.407   7.526 -1.6180 -1.7268 -2.9701
  502MOL0     H67765   3.376   4.574   7.583 -0.5095  0.6098  1.1858
  502MOL0     H67766   3.069   4.284   7.635 -1.4465  0.6327  0.8999
  502MOL0     H67767   3.166   4.932   7.552 -1.8642  2.4209 -0.4025
  502MOL0     H67768   3.061   5.062   7.687  1.1287 -3.0803 -1.3071
  502MOL0     H67769   3.140   5.181   7.790 -0.6220 -0.7007  0.0497
  502MOL0     H67770   3.101   5.226   7.617 -2.0135 -1.2468  0.4893
  503MOL0     O67771   4.409   0.191   4.230 -0.1987 -0.0264 -0.0854
  503MOL0     C67772   4.532   0.214   4.229  0.7904  0.6675 -1.0163
  503MOL0     O67773   4.611   0.257   4.340  0.8041 -0.2395  0.8543
  503MOL0     C67774   4.533   0.306   4.450  0.1063 -0.1012 -0.6447
  503MOL0     C67775   4.476   0.218   4.543  0.3890 -0.2541 -0.1092
  503MOL0     C67776   4.398   0.262   4.653  0.4598  0.2483 -0.2505
  503MOL0     C67777   4.355   0.400   4.665  0.1856  0.5856  0.1460
  503MOL0     O67778   4.287   0.443   4.781  0.0992  0.8537  0.3711
  503MOL0     C67779   4.173   0.367   4.835  0.5040  1.2193  0.2691
  503MOL0     C67780   4.103   0.450   4.945  0.3430 -1.2260  0.6238
  503MOL0     C67781   4.163   0.453   5.078 -0.0597 -0.0555  0.0266
  503MOL0     C67782   4.279   0.551   5.086 -0.4839  0.4445  0.6660
  503MOL0     C67783   4.317   0.581   5.239  0.2521  0.7198  0.5919
  503MOL0     C67784   4.404   0.468   5.291 -0.1886  0.1962 -0.8359
  503MOL0     C67785   4.540   0.451   5.235 -0.3184 -0.2271 -0.3503
  503MOL0     C67786   4.635   0.569   5.267 -0.0795 -0.3916  0.9962
  503MOL0     N67787   4.664   0.584   5.408  0.9443  0.1104  0.5787
  503MOL0     C67788   4.743   0.485   5.466 -0.9174  0.3872  0.4273
  503MOL0     C67789   4.743   0.522   5.596  0.0347 -0.6457  0.8007
  503MOL0     C67790   4.796   0.456   5.720  0.9560  0.6119  0.2043
  503MOL0     C67791   4.943   0.492   5.724 -0.2877  0.3391  0.4302
  503MOL0     C67792   4.956   0.608   5.820 -0.1312  0.4011  0.1286
  503MOL0     C67793   4.954   0.564   5.968 -0.6485 -0.5006 -0.3827
  503MOL0     O67794   4.991   0.677   6.050  0.1073 -0.4475 -0.6351
  503MOL0     C67795   4.938   0.700   6.177 -0.4536  0.8435 -0.0230
  503MOL0     C67796   4.961   0.831   6.223  0.2947 -0.6871  0.0211
  503MOL0     C67797   4.907   0.865   6.346 -0.5258 -0.8163  0.6502
  503MOL0     C67798   4.854   0.774   6.439  0.5630  0.5411 -0.2305
  503MOL0     C67799   4.837   0.817   6.583  0.6391  0.3433  0.4078
  503MOL0     O67800   4.787   0.718   6.664 -0.0967 -0.1592  1.6038
  503MOL0     C67801   4.752   0.760   6.791  0.5978  0.5855  1.1931
  503MOL0     C67802   4.846   0.791   6.895 -0.6841  0.3916  0.3054
  503MOL0     C67803   4.794   0.828   7.021 -0.5126 -0.6532  0.8407
  503MOL0     C67804   4.661   0.815   7.055 -0.2135 -0.0079  0.1895
  503MOL0     O67805   4.641   0.824   7.186 -0.4343  0.8289 -0.7392
  503MOL0     C67806   4.529   0.759   7.243  1.9088  1.0836  0.0270
  503MOL0     C67807   4.566   0.623   7.303 -0.2336 -0.0614 -0.1627
  503MOL0     C67808   4.601   0.513   7.194 -0.8049  0.0861 -0.0739
  503MOL0     C67809   4.622   0.377   7.268 -0.2854  0.6342  0.0100
  503MOL0     C67810   4.762   0.369   7.320 -0.8314 -0.3711 -0.1550
  503MOL0     C67811   4.788   0.236   7.402  0.1154 -0.0791  0.1333
  503MOL0     C67812   4.936   0.233   7.438 -0.6415  0.3880 -0.0367
  503MOL0     C67813   4.963   0.103   7.499  1.0679 -0.1299 -0.4753
  503MOL0    Cl67814   5.126   0.077   7.526  0.1754 -0.4422 -0.0450
  503MOL0     C67815   4.564   0.793   6.954  0.3920  0.9752  0.1557
  503MOL0     C67816   4.616   0.756   6.830  0.1733  0.3801 -0.2748
  503MOL0     O67817   4.857   0.936   6.621  0.0639 -0.3659 -0.0666
  503MOL0     C67818   4.857   0.639   6.393 -0.7498  0.8976 -1.1081
  503MOL0     C67819   4.890   0.602   6.260 -0.6553  0.9372 -0.2054
  503MOL0     N67820   4.658   0.636   5.607 -0.3029  0.9143 -0.3266
  503MOL0     N67821   4.606   0.678   5.489  0.3696  0.6429  0.7048
  503MOL0     C67822   4.388   0.481   4.557  0.3946  0.4205  0.6592
  503MOL0     C67823   4.480   0.437   4.461 -0.4722  0.4443  0.9674
  503MOL0     C67824   4.605   0.188   4.107  0.1667  0.1601 -0.0759
  503MOL0     C67825   4.536   0.114   4.006  0.0926  0.8841 -0.6398
  503MOL0     C67826   4.608   0.077   3.891  0.4192 -0.7489  0.2440
  503MOL0     C67827   4.744   0.094   3.865 -1.0366  0.4979  0.1859
  503MOL0     O67828   4.798   0.054   3.744 -0.6316  0.5777  0.3410
  503MOL0     C67829   4.739  -0.066   3.679  0.0793  0.5134 -0.3174
  503MOL0     C67830   4.722  -0.190   3.766  0.6613  0.0768  0.0910
  503MOL0     C67831   4.653  -0.302   3.693 -0.1138  0.3140 -0.2392
  503MOL0     C67832   4.614  -0.426   3.772  0.1695  0.2133 -0.1855
  503MOL0     C67833   4.551  -0.402   3.903  0.0053  0.2169 -0.2864
  503MOL0     C67834   4.487  -0.377   4.006  0.5444 -0.4442  0.3008
  503MOL0     C67835   4.815   0.151   3.969 -0.0808 -0.2328 -0.0152
  503MOL0     C67836   4.750   0.206   4.088 -1.1343  0.7053 -0.3502
  503MOL0     C67837   4.844   0.277   4.189 -0.9251  0.1430  0.5628
  503MOL0     H67838   4.495   0.112   4.550 -2.2206 -0.8678 -1.2655
  503MOL0     H67839   4.353   0.184   4.714  0.9588 -0.7762 -1.1695
  503MOL0     H67840   4.112   0.328   4.754 -1.4937 -0.4299  2.4128
  503MOL0     H67841   4.206   0.273   4.881 -2.3512  1.6003  3.5403
  503MOL0     H67842   3.999   0.417   4.956 -1.3811  3.2198  0.0160
  503MOL0     H67843   4.082   0.553   4.915 -1.8178 -1.6877  0.3934
  503MOL0     H67844   4.209   0.357   5.102 -1.4230 -0.4236  1.3194
  503MOL0     H67845   4.090   0.475   5.156  0.5241 -0.6419  0.7600
  503MOL0     H67846   4.367   0.517   5.030  1.3275  2.6814  1.9585
  503MOL0     H67847   4.246   0.643   5.037  0.3288  0.0181 -0.7403
  503MOL0     H67848   4.375   0.672   5.252  0.4781  0.5852  0.5335
  503MOL0     H67849   4.225   0.590   5.298 -0.5473  0.7901 -0.6303
  503MOL0     H67850   4.410   0.481   5.399  3.6337  1.7110 -1.0849
  503MOL0     H67851   4.349   0.377   5.266  2.8142 -2.3414  1.0778
  503MOL0     H67852   4.536   0.438   5.127  1.8708 -0.6940 -0.4210
  503MOL0     H67853   4.588   0.365   5.283 -1.1290 -0.7994 -0.5425
  503MOL0     H67854   4.724   0.543   5.210 -1.7321 -2.3987 -0.8027
  503MOL0     H67855   4.597   0.661   5.222 -1.3769 -2.1794 -1.8592
  503MOL0     H67856   4.775   0.392   5.422  1.2169  1.2468  0.0564
  503MOL0     H67857   4.741   0.476   5.813  0.6678 -3.0827  1.0042
  503MOL0     H67858   4.783   0.348   5.707 -0.7450  0.1901  4.1095
  503MOL0     H67859   4.999   0.410   5.770 -3.0118 -1.2682  1.1430
  503MOL0     H67860   4.993   0.521   5.631 -1.4380 -0.1987 -0.3898
  503MOL0     H67861   4.873   0.679   5.811 -2.0305 -1.2823  2.8737
  503MOL0     H67862   5.056   0.649   5.803  0.7510 -0.9422  1.7485
  503MOL0     H67863   5.025   0.484   5.992 -1.6707 -1.8865 -1.7644
  503MOL0     H67864   4.853   0.526   5.986 -0.3368 -0.1087  2.7063
  503MOL0     H67865   5.027   0.885   6.157 -0.0802  0.5770  0.6536
  503MOL0     H67866   4.918   0.967   6.381  1.5804 -1.3082  1.6153
  503MOL0     H67867   4.952   0.788   6.871  0.5752  0.0733  4.9698
  503MOL0     H67868   4.867   0.856   7.096 -0.9985 -1.6759  1.7089
  503MOL0     H67869   4.480   0.827   7.313  2.4299  0.8867  0.5965
  503MOL0     H67870   4.439   0.755   7.182  1.6545 -2.1166  0.4681
  503MOL0     H67871   4.655   0.648   7.361  2.2219  0.3356 -3.7866
  503MOL0     H67872   4.485   0.591   7.370 -0.4659  3.2601  1.3570
  503MOL0     H67873   4.532   0.495   7.111 -0.1678  1.2041 -0.8814
  503MOL0     H67874   4.698   0.535   7.147  0.3341 -1.3072  1.5312
  503MOL0     H67875   4.607   0.301   7.191 -4.1188  0.1803  0.9733
  503MOL0     H67876   4.557   0.353   7.353  0.2217 -1.5299 -0.1742
  503MOL0     H67877   4.786   0.452   7.387  1.6458 -0.2927 -1.0338
  503MOL0     H67878   4.834   0.379   7.238 -1.2633  0.9999 -0.4049
  503MOL0     H67879   4.733   0.226   7.496  1.8498 -0.7164  1.1346
  503MOL0     H67880   4.763   0.151   7.339  0.9523 -0.5442  0.4176
  503MOL0     H67881   4.958   0.311   7.511 -0.7374 -1.4684  2.1033
  503MOL0     H67882   5.003   0.249   7.354 -0.7759 -0.6177 -0.3457
  503MOL0     H67883   4.908   0.089   7.592 -0.5980 -2.8904 -1.7524
  503MOL0     H67884   4.941   0.027   7.423  1.8730 -0.4369 -0.4082
  503MOL0     H67885   4.457   0.778   6.962  0.4940 -0.3421 -0.7004
  503MOL0     H67886   4.545   0.732   6.751 -3.3821  1.0461  2.4412
  503MOL0     H67887   4.822   0.572   6.471 -0.5559  3.2245  1.1044
  503MOL0     H67888   4.900   0.504   6.215  2.5949  2.1842 -2.6052
  503MOL0     H67889   4.342   0.579   4.546 -0.3340  0.4329  3.1844
  503MOL0     H67890   4.515   0.495   4.376  0.0021 -0.5750  0.4511
  503MOL0     H67891   4.430   0.091   4.008 -1.3602  6.2145  1.4799
  503MOL0     H67892   4.552   0.024   3.814 -0.9212 -2.5815  2.3512
  503MOL0     H67893   4.803  -0.099   3.597  2.2127 -1.8528  2.0814
  503MOL0     H67894   4.641  -0.040   3.638 -1.0839  0.4257  2.2149
  503MOL0     H67895   4.670  -0.168   3.860  1.4896  2.3451  0.0678
  503MOL0     H67896   4.822  -0.226   3.790  2.2625  3.2394 -1.3011
  503MOL0     H67897   4.709  -0.331   3.604 -1.2882  0.4907 -1.0544
  503MOL0     H67898   4.563  -0.256   3.652 -1.9459  1.3122  4.2843
  503MOL0     H67899   4.544  -0.488   3.716  1.0656 -0.5989 -0.4293
  503MOL0     H67900   4.702  -0.489   3.786  1.2527  1.8925  1.0647
  503MOL0     H67901   4.423  -0.344   4.086 -0.9022  1.1437 -1.4297
  503MOL0     H67902   4.921   0.172   3.958 -0.5480  2.6512  0.1027
  503MOL0     H67903   4.949   0.266   4.163 -0.0082  0.7573  3.6284
  503MOL0     H67904   4.823   0.385   4.192 -0.6284  0.1750  1.6229
  503MOL0     H67905   4.846   0.234   4.289  0.4950 -1.5306 -0.1455
  504MOL0     O67906   9.474  10.125   8.065 -0.5747  0.6795  0.3173
  504MOL0     C67907   9.452  10.076   8.179  0.1180  0.4405  0.1499
  504MOL0     O67908   9.330  10.056   8.240  0.0889  0.7019 -0.7771
  504MOL0     C67909   9.223  10.132   8.207 -0.3875 -0.4027  0.4393
  504MOL0     C67910   9.102  10.072   8.212  0.2847  0.0064 -0.5565
  504MOL0     C67911   8.984  10.145   8.199  0.2398  0.3177 -0.3744
  504MOL0     C67912   8.989  10.282   8.189  0.2801  0.3522 -0.2022
  504MOL0     O67913   8.869  10.353   8.165 -0.7981 -0.2738 -0.1502
  504MOL0     C67914   8.862  10.495   8.166 -0.2082  0.0270  0.1539
  504MOL0     C67915   8.716  10.531   8.163  0.8838 -0.3452  0.1769
  504MOL0     C67916   8.676  10.671   8.194 -0.6148  0.4460 -1.2731
  504MOL0     C67917   8.736  10.776   8.115 -0.8398  0.9087  0.8521
  504MOL0     C67918   8.710  10.914   8.189 -0.2046  0.0236 -0.3154
  504MOL0     C67919   8.731  11.038   8.097 -0.6628 -1.0661 -0.1741
  504MOL0     C67920   8.645  11.044   7.971  0.3684  0.4572 -0.5338
  504MOL0     C67921   8.494  11.052   7.993  0.9278 -0.7029  0.4485
  504MOL0     N67922   8.448  11.198   8.007  0.5561 -0.8358  0.6943
  504MOL0     C67923   8.450  11.287   7.899 -0.4449 -0.3431  0.1122
  504MOL0     C67924   8.421  11.407   7.951  0.6585  0.6783  0.0662
  504MOL0     C67925   8.408  11.546   7.896  0.3349  0.5708 -0.0029
  504MOL0     C67926   8.523  11.627   7.942 -0.0597  0.0890 -0.4926
  504MOL0     C67927   8.504  11.685   8.078 -0.2012 -0.0019  0.1991
  504MOL0     C67928   8.519  11.832   8.096 -0.0539  0.1421 -0.2001
  504MOL0     O67929   8.401  11.899   8.058  0.5718 -0.6963 -0.1483
  504MOL0     C67930   8.415  12.038   8.023  0.5651  0.4188 -0.6500
  504MOL0     C67931   8.496  12.089   7.922  0.1293 -0.2759 -0.2618
  504MOL0     C67932   8.506  12.232   7.896  0.1628  0.8147 -0.3233
  504MOL0     C67933   8.418  12.320   7.966  0.8377 -0.1025  0.1608
  504MOL0     C67934   8.401  12.469   7.937 -0.3597  0.5964  0.1124
  504MOL0     O67935   8.493  12.516   7.853 -0.6384 -0.3027 -0.4010
  504MOL0     C67936   8.556  12.636   7.891  0.5898  0.3526 -0.0036
  504MOL0     C67937   8.518  12.749   7.825  0.0435  0.2050 -0.7931
  504MOL0     C67938   8.572  12.868   7.875 -0.7001 -0.3268 -0.9404
  504MOL0     C67939   8.663  12.871   7.979 -1.2210  0.6250  0.9208
  504MOL0     O67940   8.728  12.989   8.005  0.9556  0.4961  0.1661
  504MOL0     C67941   8.728  13.033   8.144  0.7637  0.1612  0.0456
  504MOL0     C67942   8.657  13.167   8.142 -0.8940 -0.4736 -1.3102
  504MOL0     C67943   8.620  13.211   8.291  0.3668  0.9596  0.8146
  504MOL0     C67944   8.639  13.362   8.311  0.1223 -0.1091 -0.1980
  504MOL0     C67945   8.511  13.429   8.307  0.7266 -0.9300 -0.1732
  504MOL0     C67946   8.547  13.568   8.260 -0.0952 -0.1857  0.8516
  504MOL0     C67947   8.417  13.659   8.263  0.2701  0.4237 -0.1698
  504MOL0     C67948   8.371  13.665   8.107  0.1981  0.2042 -1.1172
  504MOL0    Cl67949   8.467  13.777   8.009  0.2393 -0.1603  0.2359
  504MOL0     C67950   8.693  12.752   8.047  0.2786 -0.2293  0.0109
  504MOL0     C67951   8.640  12.634   8.004 -0.3627 -0.3930 -0.3056
  504MOL0     O67952   8.341  12.536   8.025  0.2080 -0.3821  0.0929
  504MOL0     C67953   8.311  12.265   8.041  0.0113  0.4778  0.3224
  504MOL0     C67954   8.315  12.130   8.067 -0.0534  0.2545  0.5125
  504MOL0     N67955   8.389  11.382   8.082 -0.5167  0.6680  0.1298
  504MOL0     N67956   8.388  11.259   8.110 -0.0630  0.3349  0.5406
  504MOL0     C67957   9.111  10.348   8.165  0.1419 -0.2417  0.5123
  504MOL0     C67958   9.227  10.269   8.170 -0.1754 -0.2411 -0.1470
  504MOL0     C67959   9.559  10.016   8.252  1.0818  1.3035 -0.9378
  504MOL0     C67960   9.528   9.968   8.388 -0.7291  0.3767  0.9345
  504MOL0     C67961   9.617   9.873   8.443 -0.0558 -0.8646  0.1885
  504MOL0     C67962   9.735   9.826   8.386  1.2985  0.9309 -0.6771
  504MOL0     O67963   9.812   9.725   8.431  0.0304  0.3067 -0.1174
  504MOL0     C67964   9.790   9.666   8.564 -1.0061  0.4234  0.2682
  504MOL0     C67965   9.854   9.771   8.660 -0.3389 -0.5548  0.6193
  504MOL0     C67966  10.005   9.795   8.639  0.4791  0.8375  0.2965
  504MOL0     C67967  10.097   9.674   8.668 -0.2400 -0.2904  0.3277
  504MOL0     C67968  10.242   9.709   8.658 -0.6520  0.1137  0.5248
  504MOL0     C67969  10.356   9.750   8.643 -0.6672 -0.4438  0.1668
  504MOL0     C67970   9.768   9.881   8.267 -0.2215  0.1596  0.8016
  504MOL0     C67971   9.691   9.976   8.202 -0.0280 -0.7942 -0.2379
  504MOL0     C67972   9.756  10.048   8.078  0.4793  0.5267 -1.1571
  504MOL0     H67973   9.099   9.966   8.239  2.2606  0.9968  4.8067
  504MOL0     H67974   8.893  10.086   8.204  0.6795 -0.2920  0.7931
  504MOL0     H67975   8.900  10.539   8.259  4.3511  1.0573 -1.9470
  504MOL0     H67976   8.908  10.542   8.079  1.3558  2.5714  2.2010
  504MOL0     H67977   8.667  10.476   8.243  0.0123 -0.6873 -0.5733
  504MOL0     H67978   8.669  10.510   8.066 -2.7060  2.5509  1.0780
  504MOL0     H67979   8.710  10.702   8.293 -0.0788  0.7722 -1.5565
  504MOL0     H67980   8.567  10.680   8.181 -1.1425 -0.0271  1.9884
  504MOL0     H67981   8.842  10.755   8.099 -0.9430 -2.3520  3.3800
  504MOL0     H67982   8.680  10.780   8.021 -0.2987 -1.5071  0.3606
  504MOL0     H67983   8.607  10.923   8.226 -0.6750 -0.3663 -1.4985
  504MOL0     H67984   8.785  10.917   8.269 -1.2214  0.3430  0.6563
  504MOL0     H67985   8.717  11.132   8.151 -2.2393 -1.0411 -0.5664
  504MOL0     H67986   8.837  11.039   8.071 -0.9205 -1.3995 -1.2942
  504MOL0     H67987   8.669  10.957   7.909  0.3993 -2.0725  2.7175
  504MOL0     H67988   8.683  11.137   7.929 -0.7496  0.2803 -2.0009
  504MOL0     H67989   8.446  11.007   7.906 -1.2535  2.7031 -0.3154
  504MOL0     H67990   8.461  10.993   8.079 -2.0807 -2.2360 -1.5925
  504MOL0     H67991   8.461  11.257   7.796  1.5801 -2.9092  0.9684
  504MOL0     H67992   8.409  11.548   7.787 -4.7977  2.3793 -0.3191
  504MOL0     H67993   8.315  11.593   7.931  1.3003  1.8159  0.9957
  504MOL0     H67994   8.619  11.578   7.923 -0.2285 -0.0553 -1.0135
  504MOL0     H67995   8.532  11.707   7.868  0.1302  0.6422  0.1280
  504MOL0     H67996   8.584  11.646   8.142 -1.2502 -1.5672  0.6164
  504MOL0     H67997   8.411  11.654   8.126 -0.8724 -0.3257 -1.2653
  504MOL0     H67998   8.611  11.845   8.038 -0.4976 -2.6808 -1.7043
  504MOL0     H67999   8.534  11.863   8.200  1.4442 -1.7278  0.1809
  504MOL0     H68000   8.557  12.016   7.870 -1.3624 -2.1650  0.5369
  504MOL0     H68001   8.581  12.265   7.825  3.9646 -2.9148  1.4655
  504MOL0     H68002   8.459  12.749   7.733  1.0366 -3.7446 -1.6099
  504MOL0     H68003   8.552  12.960   7.820 -0.1637 -0.8927 -2.1240
  504MOL0     H68004   8.673  12.962   8.207 -2.7252  0.2492 -2.5875
  504MOL0     H68005   8.826  13.021   8.191 -0.6378  0.0552  3.2117
  504MOL0     H68006   8.724  13.241   8.096 -1.5692  0.9566 -0.0946
  504MOL0     H68007   8.562  13.161   8.090 -0.6517  0.4303 -1.8888
  504MOL0     H68008   8.521  13.176   8.320  0.2448 -1.3671 -1.9433
  504MOL0     H68009   8.697  13.162   8.351 -0.7757 -1.2304  0.5825
  504MOL0     H68010   8.710  13.391   8.234 -0.3702 -0.0165 -0.6184
  504MOL0     H68011   8.684  13.371   8.411  0.8828 -2.9087 -0.1918
  504MOL0     H68012   8.465  13.440   8.405 -0.5836 -0.5593 -0.8039
  504MOL0     H68013   8.429  13.387   8.248 -2.1174  0.9940  2.1382
  504MOL0     H68014   8.618  13.608   8.333 -0.4892 -2.9303  2.8924
  504MOL0     H68015   8.591  13.572   8.160 -2.1706 -0.5544 -0.1280
  504MOL0     H68016   8.444  13.759   8.300 -0.8183  1.1304 -1.1862
  504MOL0     H68017   8.352  13.608   8.334  1.1279  0.5924  0.7537
  504MOL0     H68018   8.373  13.566   8.061 -0.5510  0.1050 -0.9373
  504MOL0     H68019   8.268  13.699   8.111 -0.2192 -1.0648 -0.5726
  504MOL0     H68020   8.768  12.747   8.126 -2.1051 -1.0444  2.3566
  504MOL0     H68021   8.660  12.544   8.061  2.0138 -1.0419 -1.9955
  504MOL0     H68022   8.224  12.315   8.081 -1.4378  0.7837 -2.8555
  504MOL0     H68023   8.231  12.080   8.117 -0.0088  0.4421  0.7759
  504MOL0     H68024   9.130  10.454   8.171  2.9552 -0.7206  5.6828
  504MOL0     H68025   9.326  10.312   8.157 -0.2256 -0.8392 -3.3706
  504MOL0     H68026   9.435  10.002   8.434  1.4841  5.9454  2.1699
  504MOL0     H68027   9.598   9.848   8.547  2.2212 -4.3832 -0.0770
  504MOL0     H68028   9.850   9.577   8.586 -0.4629  1.0091  1.2577
  504MOL0     H68029   9.685   9.652   8.593 -0.6915 -0.0227  1.2463
  504MOL0     H68030   9.848   9.732   8.762 -0.6099  0.3201  0.9441
  504MOL0     H68031   9.799   9.865   8.672  0.3804 -0.0600  0.1221
  504MOL0     H68032  10.050   9.888   8.675  0.7947  0.8144 -0.0321
  504MOL0     H68033  10.008   9.819   8.533  0.9377  0.9378  0.3292
  504MOL0     H68034  10.065   9.652   8.770 -0.9853 -1.5443 -0.1472
  504MOL0     H68035  10.072   9.584   8.611 -3.4253  0.8101 -0.2442
  504MOL0     H68036  10.457   9.781   8.629  0.0312 -2.1103  1.0906
  504MOL0     H68037   9.862   9.842   8.230  0.1593 -0.1907  2.0828
  504MOL0     H68038   9.865  10.039   8.076  0.3343 -1.8158 -2.7909
  504MOL0     H68039   9.726  10.011   7.979  3.5967  3.0567 -3.2239
  504MOL0     H68040   9.725  10.152   8.069  1.6854  1.0220  0.1338
  505MOL0     O68041   0.893  10.444   4.208  0.6843  0.5982 -1.0011
  505MOL0     C68042   0.815  10.534   4.191 -0.2459 -0.0355 -1.0388
  505MOL0     O68043   0.838  10.662   4.145 -0.0010  0.6315 -0.7896
  505MOL0     C68044   0.959  10.708   4.096  0.6176  1.1963 -0.6376
  505MOL0     C68045   1.044  10.777   4.181  0.4769 -1.1570 -0.7869
  505MOL0     C68046   1.160  10.827   4.122  0.0342  0.0198 -0.8179
  505MOL0     C68047   1.202  10.780   3.994 -0.2034  1.1227  0.1968
  505MOL0     O68048   1.320  10.829   3.933  1.3344 -0.2445 -0.5053
  505MOL0     C68049   1.418  10.888   4.019  0.3092  0.4895 -0.2275
  505MOL0     C68050   1.557  10.906   3.954  0.0316 -1.1419  0.3089
  505MOL0     C68051   1.558  11.000   3.836  0.4516 -0.6334  0.4090
  505MOL0     C68052   1.707  11.012   3.786 -0.0915  0.8016 -0.8291
  505MOL0     C68053   1.708  11.115   3.675 -0.4526 -0.0456  0.0072
  505MOL0     C68054   1.843  11.137   3.602 -0.3001  0.2889  0.1363
  505MOL0     C68055   1.894  10.999   3.543 -0.0538  0.0511 -1.0349
  505MOL0     C68056   1.787  10.935   3.455 -0.4535  0.1400  0.3809
  505MOL0     N68057   1.748  11.021   3.343 -0.0932 -0.4345  0.3629
  505MOL0     C68058   1.836  11.059   3.245 -0.4630 -0.7151 -0.3988
  505MOL0     C68059   1.762  11.158   3.181 -0.7263 -0.6083 -0.5123
  505MOL0     C68060   1.816  11.252   3.069  0.5601  0.7694 -0.7586
  505MOL0     C68061   1.838  11.166   2.944 -0.3214 -0.3435 -0.3006
  505MOL0     C68062   1.744  11.204   2.835  0.0297 -0.7842 -0.5145
  505MOL0     C68063   1.607  11.141   2.860  0.2302 -0.2100 -1.1202
  505MOL0     O68064   1.528  11.158   2.744  0.1801  0.3962 -0.5217
  505MOL0     C68065   1.401  11.108   2.754 -0.4503  0.3738  0.3281
  505MOL0     C68066   1.320  11.144   2.651  0.5588  0.0808  0.1486
  505MOL0     C68067   1.188  11.117   2.641 -0.2926  1.5269 -0.3559
  505MOL0     C68068   1.124  11.045   2.740  0.8965  0.0409  0.3888
  505MOL0     C68069   0.974  11.000   2.726  0.1345  1.1075 -0.0375
  505MOL0     O68070   0.911  10.943   2.833 -0.0142  0.0524  0.0376
  505MOL0     C68071   0.784  10.906   2.802  0.4513 -0.6952 -0.7820
  505MOL0     C68072   0.763  10.769   2.770 -0.5508 -0.4440  0.0511
  505MOL0     C68073   0.629  10.716   2.766 -0.8162 -0.3515  0.6969
  505MOL0     C68074   0.520  10.798   2.792 -0.1629 -0.3387  0.3666
  505MOL0     O68075   0.394  10.743   2.799  1.3493  0.1891  0.1221
  505MOL0     C68076   0.318  10.771   2.685 -0.3584 -1.1666  0.1866
  505MOL0     C68077   0.180  10.830   2.728  0.2598  0.4923  0.1301
  505MOL0     C68078   0.183  10.983   2.739  0.0977 -0.3833 -0.6296
  505MOL0     C68079   0.044  11.038   2.727  0.6474 -0.2727  0.0893
  505MOL0     C68080   0.038  11.190   2.692 -0.5888 -0.8527 -0.0723
  505MOL0     C68081  -0.094  11.237   2.642 -0.1802  0.4028 -0.4418
  505MOL0     C68082  -0.193  11.273   2.755 -0.4525  0.0757  0.5777
  505MOL0     C68083  -0.188  11.426   2.780  0.1692 -1.1732  0.3373
  505MOL0    Cl68084  -0.304  11.460   2.913  0.3016 -0.0597 -0.6176
  505MOL0     C68085   0.545  10.934   2.811 -0.1758 -0.4491 -0.3360
  505MOL0     C68086   0.672  10.986   2.815  0.2370  0.4402 -0.2157
  505MOL0     O68087   0.923  11.030   2.622 -0.0589 -0.7297 -0.5302
  505MOL0     C68088   1.202  11.000   2.847 -1.7110  0.4254 -0.6468
  505MOL0     C68089   1.348  11.027   2.858 -0.3140  0.4424 -0.0300
  505MOL0     N68090   1.631  11.171   3.234  0.0055 -0.0910  1.1395
  505MOL0     N68091   1.624  11.080   3.322 -0.4154  0.5415  0.4100
  505MOL0     C68092   1.110  10.721   3.910 -0.7540 -0.2678  0.3372
  505MOL0     C68093   0.987  10.678   3.958  0.5339 -0.0524 -0.5606
  505MOL0     C68094   0.669  10.497   4.225  0.1001 -0.2054  0.5323
  505MOL0     C68095   0.557  10.573   4.164  0.1259 -0.1276  0.7080
  505MOL0     C68096   0.424  10.541   4.193  0.4674  0.5415 -0.4970
  505MOL0     C68097   0.393  10.437   4.272 -0.0243  0.5781  0.1700
  505MOL0     O68098   0.260  10.406   4.282 -0.1157  0.4626 -0.2682
  505MOL0     C68099   0.227  10.283   4.349  0.4222 -0.2383 -0.5772
  505MOL0     C68100   0.078  10.264   4.340 -0.0406  0.5256  0.0554
  505MOL0     C68101  -0.012  10.364   4.419 -0.2422 -0.3148 -0.5506
  505MOL0     C68102  -0.160  10.320   4.438  0.3580  0.3326 -0.7284
  505MOL0     C68103  -0.173  10.194   4.520 -0.7668  0.8109  0.0560
  505MOL0     C68104  -0.147  10.090   4.583  0.3104  0.3322 -0.2646
  505MOL0     C68105   0.492  10.347   4.319 -0.8174 -0.0383  0.4637
  505MOL0     C68106   0.631  10.390   4.305 -0.9366  0.2892  0.0237
  505MOL0     C68107   0.740  10.301   4.377 -0.0079 -0.0346  0.3124
  505MOL0     H68108   1.009  10.817   4.276 -0.2261 -0.9268 -1.1365
  505MOL0     H68109   1.227  10.891   4.178  2.0648 -4.6258  2.7862
  505MOL0     H68110   1.381  10.985   4.054  0.0924  0.6630 -0.9201
  505MOL0     H68111   1.427  10.820   4.104  0.4601 -1.8600 -2.0139
  505MOL0     H68112   1.597  10.807   3.930 -2.8192 -2.2189 -0.3948
  505MOL0     H68113   1.629  10.932   4.032  2.3924 -4.0600 -0.6738
  505MOL0     H68114   1.514  11.092   3.874 -0.7430 -1.1167  0.2532
  505MOL0     H68115   1.497  10.957   3.756  1.5458  0.3817 -1.0051
  505MOL0     H68116   1.783  11.038   3.861  0.4903  2.1144 -1.8218
  505MOL0     H68117   1.734  10.916   3.742  2.2518  1.4675 -1.0223
  505MOL0     H68118   1.636  11.084   3.598  1.2375 -0.4083 -1.4723
  505MOL0     H68119   1.687  11.215   3.716  2.4832  1.6733 -2.3031
  505MOL0     H68120   1.830  11.218   3.530 -4.8762  1.1103  1.5535
  505MOL0     H68121   1.913  11.179   3.674 -2.0683  4.7417 -0.4638
  505MOL0     H68122   1.920  10.926   3.620  2.6441 -0.5341 -2.3831
  505MOL0     H68123   1.987  11.016   3.489  2.9570 -2.1830  2.9823
  505MOL0     H68124   1.838  10.846   3.418 -1.5266 -1.4252  2.4669
  505MOL0     H68125   1.696  10.899   3.503  0.6268 -3.7045 -0.0728
  505MOL0     H68126   1.933  11.013   3.223 -2.0650 -3.3472 -2.6818
  505MOL0     H68127   1.741  11.328   3.045  0.1745  1.4008  2.1297
  505MOL0     H68128   1.912  11.298   3.095 -1.7644  6.4307 -0.7358
  505MOL0     H68129   1.937  11.179   2.899 -0.7293 -0.1513 -1.1619
  505MOL0     H68130   1.826  11.061   2.975  2.4502 -0.3384  1.0970
  505MOL0     H68131   1.779  11.177   2.736 -4.3627  1.2926 -2.9438
  505MOL0     H68132   1.739  11.313   2.823  2.6635 -0.9221 -4.7800
  505MOL0     H68133   1.562  11.190   2.946 -0.0853 -0.1099 -1.3427
  505MOL0     H68134   1.624  11.037   2.890  1.7924  0.4904  0.6510
  505MOL0     H68135   1.341  11.198   2.559  0.8208  2.0755  1.3286
  505MOL0     H68136   1.122  11.145   2.560  0.8870  1.2109 -1.4531
  505MOL0     H68137   0.845  10.698   2.768 -0.1365  0.0064  0.5232
  505MOL0     H68138   0.620  10.613   2.733  2.5916  0.0616 -2.1766
  505MOL0     H68139   0.363  10.837   2.610  1.7839  0.9319  3.1217
  505MOL0     H68140   0.295  10.686   2.620 -2.0820 -0.3838 -0.2847
  505MOL0     H68141   0.100  10.798   2.662  0.7232 -3.3007  1.1660
  505MOL0     H68142   0.153  10.779   2.821 -1.4394 -2.1865 -1.7057
  505MOL0     H68143   0.228  11.016   2.833  0.5033  0.4168 -1.0995
  505MOL0     H68144   0.240  11.027   2.657 -0.9284 -0.3853 -1.3645
  505MOL0     H68145  -0.003  11.000   2.818 -0.6585 -3.4541 -1.7676
  505MOL0     H68146  -0.008  10.988   2.645 -2.9354  1.2747  1.2083
  505MOL0     H68147   0.109  11.213   2.612  0.5457  0.7903  1.3292
  505MOL0     H68148   0.073  11.254   2.773 -0.1265  0.1223 -1.0258
  505MOL0     H68149  -0.081  11.321   2.573  0.8998  1.5959  1.1426
  505MOL0     H68150  -0.144  11.154   2.591 -1.7132 -1.3299  3.4777
  505MOL0     H68151  -0.165  11.208   2.838  2.9996 -0.9698 -1.2278
  505MOL0     H68152  -0.299  11.259   2.732 -0.2164  2.2331 -2.3293
  505MOL0     H68153  -0.090  11.456   2.819  0.0051  0.8472 -0.6673
  505MOL0     H68154  -0.215  11.480   2.689 -0.0610 -1.0442  0.4792
  505MOL0     H68155   0.471  11.008   2.839 -1.2012 -1.6257  0.1343
  505MOL0     H68156   0.683  11.090   2.842 -0.8337  0.5740 -0.2545
  505MOL0     H68157   1.159  10.922   2.910  2.0898 -0.5885  0.9757
  505MOL0     H68158   1.405  10.979   2.937  4.9521  1.4752 -2.7495
  505MOL0     H68159   1.128  10.709   3.804 -1.4669 -1.1561  0.3073
  505MOL0     H68160   0.914  10.632   3.892  1.0707  0.2537 -1.3791
  505MOL0     H68161   0.580  10.665   4.112  0.3261  0.1851  1.3360
  505MOL0     H68162   0.346  10.602   4.149 -0.7943 -0.1559  0.7001
  505MOL0     H68163   0.262  10.280   4.453 -2.8306 -1.4394  0.6066
  505MOL0     H68164   0.274  10.197   4.300 -1.6500 -1.1212 -1.1432
  505MOL0     H68165   0.058  10.157   4.351 -0.6210  0.6012 -0.2421
  505MOL0     H68166   0.055  10.278   4.234  1.7446 -2.6749 -0.9087
  505MOL0     H68167   0.003  10.459   4.368  2.5101  0.1030  0.8398
  505MOL0     H68168   0.025  10.384   4.520  1.2417 -0.7687 -0.9819
  505MOL0     H68169  -0.216  10.402   4.483  2.6483  0.5051  2.1492
  505MOL0     H68170  -0.204  10.304   4.340  0.4658  0.1502 -0.7488
  505MOL0     H68171  -0.127  10.005   4.645 -2.3952  0.1920  0.5556
  505MOL0     H68172   0.466  10.249   4.358  2.1296 -1.4312 -0.7770
  505MOL0     H68173   0.819  10.357   4.428 -0.2405  3.0024 -2.3241
  505MOL0     H68174   0.690  10.252   4.462 -1.6005 -1.4756 -1.3730
  505MOL0     H68175   0.784  10.227   4.310  0.2257 -0.3930  0.8510
  506MOL0     O68176   7.018  10.178   9.224 -0.1957  0.0699  0.0651
  506MOL0     C68177   6.945  10.264   9.273 -0.7787  0.5752  0.3684
  506MOL0     O68178   6.887  10.259   9.401 -0.0076  0.7814  0.0563
  506MOL0     C68179   6.950  10.172   9.488 -0.2243 -0.3341 -0.2588
  506MOL0     C68180   7.072  10.212   9.548 -0.5386 -0.2786  0.7787
  506MOL0     C68181   7.130  10.133   9.644  0.2367 -0.3048 -0.6820
  506MOL0     C68182   7.075  10.009   9.680  0.3196  0.2757 -0.5800
  506MOL0     O68183   7.136   9.926   9.772 -0.3817  0.6705  0.4988
  506MOL0     C68184   7.180   9.802   9.708  0.5389 -1.0638  0.1671
  506MOL0     C68185   7.297   9.742   9.782 -0.3423 -0.4528  0.2957
  506MOL0     C68186   7.390   9.653   9.693 -0.2741  0.5959 -0.0113
  506MOL0     C68187   7.525   9.619   9.764 -0.7550 -0.3845  0.4638
  506MOL0     C68188   7.643   9.607   9.666  0.5830  0.7012  0.2281
  506MOL0     C68189   7.778   9.605   9.746 -0.3412 -0.2815 -0.7978
  506MOL0     C68190   7.912   9.563   9.672 -0.0534  0.9324 -0.2244
  506MOL0     C68191   8.029   9.548   9.773  0.4458 -0.7033  0.4821
  506MOL0     N68192   8.007   9.427   9.859  0.4750 -0.0168  0.4356
  506MOL0     C68193   8.082   9.386   9.968  0.5728  0.2925 -0.0166
  506MOL0     C68194   8.043   9.252   9.998 -0.0684 -0.2151  0.8111
  506MOL0     C68195   8.092   9.158  10.105 -0.2076  0.4459  0.7542
  506MOL0     C68196   8.144   9.017  10.057 -1.4743 -0.1147 -0.4204
  506MOL0     C68197   8.214   9.019   9.922  0.0423 -0.4062  0.7627
  506MOL0     C68198   8.340   8.927   9.901  0.5523 -0.4560  0.1279
  506MOL0     O68199   8.401   8.962   9.768 -0.5287 -0.7758  0.8752
  506MOL0     C68200   8.506   8.884   9.738 -1.0461 -0.0933  1.8787
  506MOL0     C68201   8.631   8.949   9.769  1.2956 -0.1792 -0.1963
  506MOL0     C68202   8.744   8.877   9.736  1.1148  0.2923 -0.1727
  506MOL0     C68203   8.742   8.751   9.675 -0.1299 -0.1088 -0.2361
  506MOL0     C68204   8.868   8.671   9.646 -0.4878 -0.6679  0.2126
  506MOL0     O68205   8.985   8.734   9.667 -0.8980 -0.8392 -0.6021
  506MOL0     C68206   9.089   8.707   9.593  0.0839  0.7787  0.3926
  506MOL0     C68207   9.111   8.767   9.473  0.4284 -0.4517  0.3079
  506MOL0     C68208   9.208   8.744   9.392  0.4538 -0.1728 -0.4348
  506MOL0     C68209   9.294   8.638   9.419 -0.0587  0.1550  0.6595
  506MOL0     O68210   9.383   8.599   9.318 -0.2857  0.2499 -0.5199
  506MOL0     C68211   9.489   8.501   9.348  0.3226 -0.3790 -0.9905
  506MOL0     C68212   9.558   8.477   9.213  0.0702  0.1153 -0.3791
  506MOL0     C68213   9.668   8.582   9.178  0.2024 -0.9586 -0.2752
  506MOL0     C68214   9.613   8.700   9.084 -0.1227  0.0657 -0.3667
  506MOL0     C68215   9.728   8.792   9.052  0.6171  0.2039 -0.3377
  506MOL0     C68216   9.693   8.883   8.923 -0.1526 -0.5760 -0.2435
  506MOL0     C68217   9.815   8.927   8.840 -0.5417 -0.4644  0.8177
  506MOL0     C68218   9.792   9.041   8.739 -0.1470  0.5477  0.2384
  506MOL0    Cl68219   9.629   9.027   8.656 -0.2118  0.4980 -0.4590
  506MOL0     C68220   9.281   8.569   9.546  0.4808 -0.2364 -0.3900
  506MOL0     C68221   9.180   8.614   9.633 -0.2579 -0.5581  0.8226
  506MOL0     O68222   8.862   8.558   9.597 -0.4936  0.9468  0.7250
  506MOL0     C68223   8.623   8.704   9.635  1.4476  0.6470  0.7013
  506MOL0     C68224   8.507   8.774   9.661  0.7009 -0.0843 -0.9107
  506MOL0     N68225   7.947   9.220   9.899  0.4206 -0.5929 -0.0351
  506MOL0     N68226   7.933   9.319   9.816 -0.1246  0.0519  0.0200
  506MOL0     C68227   6.964   9.960   9.613  0.2092  0.4731 -0.8182
  506MOL0     C68228   6.899  10.044   9.514 -0.1656 -0.5098 -0.3042
  506MOL0     C68229   6.913  10.380   9.185 -0.4610 -1.0455 -0.0584
  506MOL0     C68230   6.874  10.497   9.257 -0.4233  0.8203 -0.3358
  506MOL0     C68231   6.819  10.603   9.185  0.6289  0.5993  0.0524
  506MOL0     C68232   6.813  10.600   9.039  0.3375  0.1473 -0.2114
  506MOL0     O68233   6.746  10.695   8.965  0.1194  0.6690  0.4596
  506MOL0     C68234   6.652  10.777   9.034  0.6504 -0.6913 -0.8076
  506MOL0     C68235   6.547  10.824   8.934 -0.5955 -0.7776  0.6863
  506MOL0     C68236   6.474  10.710   8.865 -0.6186 -0.7204  0.2057
  506MOL0     C68237   6.349  10.760   8.789 -0.0281  0.0038  0.4414
  506MOL0     C68238   6.269  10.652   8.729 -0.9576 -0.4885 -0.7777
  506MOL0     C68239   6.188  10.576   8.682  0.2551 -0.2039 -0.2844
  506MOL0     C68240   6.858  10.490   8.977 -0.0920 -0.7900 -0.0522
  506MOL0     C68241   6.909  10.374   9.037 -0.5306 -0.0762 -0.9050
  506MOL0     C68242   6.941  10.251   8.952 -0.0771  0.0665 -0.1122
  506MOL0     H68243   7.126  10.294   9.501 -1.4744  0.1403  0.4093
  506MOL0     H68244   7.223  10.149   9.697 -1.4840  0.2366  2.4376
  506MOL0     H68245   7.094   9.735   9.723 -2.3662  2.0472 -1.1769
  506MOL0     H68246   7.203   9.802   9.601 -1.9043 -2.3122 -0.4405
  506MOL0     H68247   7.260   9.691   9.872 -0.6729  0.1442  0.5076
  506MOL0     H68248   7.368   9.820   9.811  2.0086 -2.0488 -0.8681
  506MOL0     H68249   7.412   9.718   9.608 -1.7187 -1.2710 -1.9130
  506MOL0     H68250   7.335   9.567   9.654  0.1995  1.1459 -2.0277
  506MOL0     H68251   7.542   9.694   9.842 -1.1010  2.0059 -1.6413
  506MOL0     H68252   7.497   9.521   9.805  0.6349 -3.4477 -4.9020
  506MOL0     H68253   7.639   9.511   9.613  2.7199 -1.3460  3.4413
  506MOL0     H68254   7.640   9.697   9.604 -3.2795 -0.7938 -2.1004
  506MOL0     H68255   7.787   9.704   9.790  1.8302 -0.9561  0.4243
  506MOL0     H68256   7.769   9.525   9.820  1.5394  0.1645 -0.0534
  506MOL0     H68257   7.930   9.636   9.592  3.6020  1.8211  1.2237
  506MOL0     H68258   7.897   9.464   9.628  1.0212  0.5207  0.3059
  506MOL0     H68259   8.127   9.532   9.727  0.1614  3.2283 -1.8633
  506MOL0     H68260   8.035   9.641   9.830  2.7930 -0.8275  0.5288
  506MOL0     H68261   8.140   9.451  10.033 -1.0182  0.3125  1.4518
  506MOL0     H68262   8.171   9.210  10.161 -1.0703 -0.1138  2.5497
  506MOL0     H68263   8.013   9.146  10.179  1.4335 -2.3436  2.2269
  506MOL0     H68264   8.211   8.988  10.139 -0.6959  1.9535 -0.2598
  506MOL0     H68265   8.064   8.944  10.066 -0.4614 -1.6602 -2.9232
  506MOL0     H68266   8.259   9.118   9.909  0.0857  0.0430  3.5845
  506MOL0     H68267   8.141   9.013   9.841 -3.0577  1.1633  3.2363
  506MOL0     H68268   8.320   8.821   9.883  1.0741  0.0544 -4.8120
  506MOL0     H68269   8.422   8.941   9.972 -0.3647  0.7184  0.9950
  506MOL0     H68270   8.646   9.033   9.836 -0.8476 -1.1737  1.6454
  506MOL0     H68271   8.838   8.921   9.767  0.5988  0.2961  1.4948
  506MOL0     H68272   9.042   8.842   9.435 -0.3732 -1.0171  0.6351
  506MOL0     H68273   9.220   8.796   9.297 -1.5404  1.3955  0.0911
  506MOL0     H68274   9.561   8.537   9.422 -2.0360 -0.4234  1.4806
  506MOL0     H68275   9.448   8.407   9.387  2.7115 -0.8650  0.5208
  506MOL0     H68276   9.607   8.382   9.238  0.4935  1.0304  2.6440
  506MOL0     H68277   9.480   8.458   9.139  1.8581  0.8353 -2.6035
  506MOL0     H68278   9.710   8.623   9.270 -0.5509 -1.0473  0.1171
  506MOL0     H68279   9.745   8.530   9.120 -0.5646 -0.4360 -1.8009
  506MOL0     H68280   9.528   8.755   9.125  0.2461  0.8601 -0.6356
  506MOL0     H68281   9.566   8.671   8.990  0.0463  3.1287 -1.5112
  506MOL0     H68282   9.823   8.738   9.043  1.6852  2.0554 -0.6267
  506MOL0     H68283   9.728   8.855   9.142  1.0878 -3.5579  2.5318
  506MOL0     H68284   9.626   8.818   8.867  0.6225 -3.9689  2.4000
  506MOL0     H68285   9.629   8.970   8.943 -7.0546 -5.0678  0.4213
  506MOL0     H68286   9.845   8.846   8.774  1.7056 -0.7066  2.0518
  506MOL0     H68287   9.902   8.948   8.902 -1.2880  3.4247  0.7881
  506MOL0     H68288   9.786   9.131   8.800  0.4031  0.6065  0.2079
  506MOL0     H68289   9.871   9.052   8.665 -0.9096 -1.6565 -1.0163
  506MOL0     H68290   9.356   8.498   9.579  0.5542  0.3302  0.7107
  506MOL0     H68291   9.176   8.564   9.729  1.1903 -0.8508  0.7607
  506MOL0     H68292   8.625   8.604   9.593  0.7877  1.1050 -0.4771
  506MOL0     H68293   8.412   8.731   9.632  0.4565  0.5571 -1.0823
  506MOL0     H68294   6.922   9.862   9.634 -2.0213  0.4978 -4.3008
  506MOL0     H68295   6.811  10.008   9.462 -0.0924  0.3234 -1.0308
  506MOL0     H68296   6.893  10.517   9.362  0.9898  0.4049 -0.4848
  506MOL0     H68297   6.778  10.679   9.251 -0.5851  0.0440 -0.0283
  506MOL0     H68298   6.695  10.855   9.097  0.9597 -0.9323 -0.7153
  506MOL0     H68299   6.603  10.706   9.101  1.4418 -0.4583  0.0350
  506MOL0     H68300   6.601  10.885   8.861  1.8013  1.1410  3.7905
  506MOL0     H68301   6.473  10.887   8.984 -1.6700 -0.0975 -1.6383
  506MOL0     H68302   6.430  10.639   8.936 -2.7171 -0.4137 -0.7311
  506MOL0     H68303   6.542  10.659   8.796 -3.4142 -1.0249 -2.5687
  506MOL0     H68304   6.296  10.808   8.871  0.4983  3.4426 -1.0790
  506MOL0     H68305   6.379  10.844   8.725  0.2857  2.4916  3.6158
  506MOL0     H68306   6.132  10.487   8.659 -0.8434 -0.1092  1.7617
  506MOL0     H68307   6.835  10.500   8.871  1.5893  4.9048 -0.1982
  506MOL0     H68308   7.036  10.202   8.975 -0.3418 -0.5108 -0.2083
  506MOL0     H68309   6.864  10.174   8.965  0.3778 -0.5324 -0.8837
  506MOL0     H68310   6.937  10.288   8.849  0.7931  0.7246  0.0767
  507MOL0     O68311   7.626   7.938   3.128 -1.2182 -0.0319 -0.6151
  507MOL0     C68312   7.566   7.875   3.042 -0.8042 -0.1435  0.2162
  507MOL0     O68313   7.470   7.783   3.067 -0.6660  0.2139  0.1461
  507MOL0     C68314   7.414   7.794   3.194  0.3265  0.9404 -0.4266
  507MOL0     C68315   7.361   7.909   3.262 -0.7191  0.3017  0.1057
  507MOL0     C68316   7.309   7.904   3.391  0.5123 -0.2024  0.1570
  507MOL0     C68317   7.315   7.777   3.458 -0.1078  0.4047  0.0176
  507MOL0     O68318   7.263   7.760   3.582 -0.3842  0.8805 -0.0337
  507MOL0     C68319   7.374   7.749   3.681  0.3379  1.3319  0.7416
  507MOL0     C68320   7.419   7.892   3.727  0.9175  0.0733 -0.0287
  507MOL0     C68321   7.299   7.982   3.757 -1.0721 -0.9713  0.0730
  507MOL0     C68322   7.213   7.943   3.874  0.5224  0.5726 -0.3713
  507MOL0     C68323   7.155   8.074   3.933 -0.3914  0.0761  0.2242
  507MOL0     C68324   7.072   8.058   4.054  0.2528  0.3847  0.6739
  507MOL0     C68325   7.026   8.190   4.110  0.3194  0.7857 -0.2556
  507MOL0     C68326   6.949   8.282   4.013 -0.1594  0.1979 -0.6126
  507MOL0     N68327   6.840   8.210   3.947  0.0069  0.5119  0.4054
  507MOL0     C68328   6.824   8.208   3.812 -0.5388  0.5694 -0.0638
  507MOL0     C68329   6.715   8.125   3.801  0.2594  0.9221  0.1066
  507MOL0     C68330   6.645   8.087   3.675 -0.2245  0.4597 -0.3353
  507MOL0     C68331   6.753   8.042   3.575 -0.3881 -0.2502  0.3661
  507MOL0     C68332   6.839   7.922   3.618  1.0272  0.5804  0.2458
  507MOL0     C68333   6.927   7.855   3.529 -0.8558  0.6100  0.3662
  507MOL0     O68334   6.855   7.793   3.425 -0.3291 -0.0914  0.0596
  507MOL0     C68335   6.934   7.786   3.305  0.0245 -0.2514  0.5269
  507MOL0     C68336   6.933   7.891   3.214 -0.4626 -0.0430 -0.3147
  507MOL0     C68337   7.009   7.883   3.092 -0.1441  1.1383 -0.3566
  507MOL0     C68338   7.091   7.770   3.061 -0.6340  0.4446 -0.1034
  507MOL0     C68339   7.186   7.779   2.942  0.8775 -0.3726  0.1155
  507MOL0     O68340   7.165   7.893   2.873 -0.1450  0.3919  0.3632
  507MOL0     C68341   7.179   7.890   2.731  0.3587 -0.3026  0.7681
  507MOL0     C68342   7.068   7.943   2.668 -1.0792 -0.4338  0.4617
  507MOL0     C68343   7.077   7.958   2.527 -0.2265  0.9364 -0.5854
  507MOL0     C68344   7.184   7.896   2.452  1.0950  0.4768  0.0559
  507MOL0     O68345   7.180   7.903   2.319  0.3185 -0.2359 -0.0843
  507MOL0     C68346   7.062   7.847   2.262  0.7017  0.6033  0.1377
  507MOL0     C68347   7.118   7.782   2.138  0.2760  0.1123 -0.4879
  507MOL0     C68348   7.017   7.787   2.034  0.2225 -0.2566 -0.0376
  507MOL0     C68349   7.090   7.791   1.896 -0.1195 -0.2358 -0.4915
  507MOL0     C68350   7.003   7.821   1.780 -1.2413  0.4794  0.1629
  507MOL0     C68351   6.901   7.709   1.761  0.6140  0.1377  0.2405
  507MOL0     C68352   6.821   7.746   1.639 -0.7773 -0.4870 -0.4836
  507MOL0     C68353   6.734   7.640   1.598 -0.5772  0.9114  0.3067
  507MOL0    Cl68354   6.840   7.512   1.531 -0.0290 -0.1513  0.4674
  507MOL0     C68355   7.299   7.839   2.518  0.6032 -0.5440  0.2941
  507MOL0     C68356   7.296   7.844   2.656 -0.1199 -0.6594 -0.1804
  507MOL0     O68357   7.228   7.676   2.893  0.1064 -0.5063  0.2130
  507MOL0     C68358   7.091   7.663   3.157 -0.3675  0.6200 -0.0407
  507MOL0     C68359   7.021   7.682   3.278  0.2213  0.1500  0.4332
  507MOL0     N68360   6.671   8.077   3.930 -0.1743 -0.3883  0.2692
  507MOL0     N68361   6.745   8.144   4.015 -0.4224  0.3230 -0.3044
  507MOL0     C68362   7.377   7.671   3.397 -0.5277  0.3042 -1.2440
  507MOL0     C68363   7.415   7.674   3.264  0.1843 -0.2762 -0.5813
  507MOL0     C68364   7.626   7.878   2.909 -0.0815 -0.8112 -0.1210
  507MOL0     C68365   7.688   7.764   2.861 -0.1055  0.2170 -0.4192
  507MOL0     C68366   7.729   7.750   2.734 -0.0905 -0.3267  0.0399
  507MOL0     C68367   7.713   7.858   2.639  0.3757  0.5165  0.6716
  507MOL0     O68368   7.769   7.840   2.521 -0.4274  0.5225  0.0773
  507MOL0     C68369   7.735   7.933   2.420 -0.1541 -0.0759  0.1688
  507MOL0     C68370   7.805   7.898   2.282 -0.1967  0.1657  0.0793
  507MOL0     C68371   7.783   8.005   2.179  0.4719 -0.1098  0.8910
  507MOL0     C68372   7.781   7.958   2.039  0.4732  0.1987  0.3641
  507MOL0     C68373   7.713   8.045   1.944 -0.9571 -0.4693 -0.6377
  507MOL0     C68374   7.673   8.120   1.857  0.4003 -0.3688  0.5537
  507MOL0     C68375   7.660   7.974   2.688 -0.3941  0.1881  0.5460
  507MOL0     C68376   7.620   7.995   2.822 -0.6959  0.9945  0.6245
  507MOL0     C68377   7.560   8.124   2.868  0.3491  1.0785 -0.5386
  507MOL0     H68378   7.382   7.998   3.204  1.4204 -0.7642 -0.8752
  507MOL0     H68379   7.268   7.994   3.435 -0.7916 -0.2836 -0.8316
  507MOL0     H68380   7.338   7.691   3.766 -1.4143 -0.0354 -0.8623
  507MOL0     H68381   7.463   7.693   3.654  1.1338  1.3574  3.0495
  507MOL0     H68382   7.488   7.937   3.655  1.0910  1.7554  1.1156
  507MOL0     H68383   7.478   7.876   3.817  1.2434 -1.1128 -0.4402
  507MOL0     H68384   7.243   7.998   3.664  2.7116  1.0628 -2.0793
  507MOL0     H68385   7.348   8.079   3.766 -3.5031  0.2737  0.6629
  507MOL0     H68386   7.134   7.880   3.833 -0.2035  1.8821 -1.0360
  507MOL0     H68387   7.275   7.897   3.952 -2.4134  1.4145  2.7349
  507MOL0     H68388   7.230   8.146   3.967 -2.2148  1.3426  1.8031
  507MOL0     H68389   7.106   8.131   3.853 -0.0571  2.3947  1.5849
  507MOL0     H68390   6.984   7.999   4.029  0.3561  0.8990 -1.0909
  507MOL0     H68391   7.127   8.007   4.133  0.0415  2.9307  2.5892
  507MOL0     H68392   7.113   8.246   4.148 -0.3462  1.3417  0.4921
  507MOL0     H68393   6.967   8.169   4.199  0.7384 -0.6754 -0.3018
  507MOL0     H68394   6.897   8.359   4.070 -1.9926 -0.8396 -0.8150
  507MOL0     H68395   7.026   8.327   3.949 -0.2072 -0.8428 -1.4509
  507MOL0     H68396   6.882   8.266   3.740 -0.1232  1.3939  0.9214
  507MOL0     H68397   6.582   8.000   3.697  0.7477  0.3651  2.4579
  507MOL0     H68398   6.579   8.166   3.638 -0.3254  1.8535  2.5384
  507MOL0     H68399   6.721   8.023   3.472  0.4333 -2.0989  0.4045
  507MOL0     H68400   6.818   8.129   3.567 -1.9435  0.8949 -0.5013
  507MOL0     H68401   6.763   7.854   3.658  0.1568  2.3072  1.6399
  507MOL0     H68402   6.904   7.946   3.702  0.8006  1.0508  0.2876
  507MOL0     H68403   6.992   7.786   3.582  0.5481  2.0634  0.6346
  507MOL0     H68404   7.004   7.925   3.492 -0.6019 -1.0287 -2.4756
  507MOL0     H68405   6.860   7.965   3.244  1.2279  1.7926 -0.5442
  507MOL0     H68406   6.995   7.953   3.010  3.4386  1.9311 -0.4712
  507MOL0     H68407   6.981   7.966   2.729  0.2359  0.4948  2.0510
  507MOL0     H68408   7.004   8.013   2.468 -0.4068  0.6443 -0.6369
  507MOL0     H68409   7.004   7.782   2.329  1.3747  0.0751  0.2131
  507MOL0     H68410   6.993   7.927   2.236 -1.4770 -2.0889 -3.2275
  507MOL0     H68411   7.213   7.830   2.112  1.3818 -1.8111 -0.1691
  507MOL0     H68412   7.138   7.681   2.174  0.5582  0.8927  1.6945
  507MOL0     H68413   6.963   7.691   2.026 -0.0857 -0.0886  0.0087
  507MOL0     H68414   6.949   7.872   2.032  0.3628 -0.0899  1.5876
  507MOL0     H68415   7.135   7.691   1.895  0.8589  0.1886 -0.2812
  507MOL0     H68416   7.179   7.854   1.888  0.9278 -1.3894  1.2982
  507MOL0     H68417   7.062   7.836   1.688 -1.1328  0.4189  0.2219
  507MOL0     H68418   6.957   7.918   1.799 -0.9691  0.7093 -0.3179
  507MOL0     H68419   6.962   7.623   1.732 -0.5654  0.1124 -2.4684
  507MOL0     H68420   6.840   7.698   1.851 -1.2600  0.7206 -0.9128
  507MOL0     H68421   6.898   7.747   1.561 -0.6080  1.5762 -0.3375
  507MOL0     H68422   6.774   7.845   1.643  4.2555  2.2368 -0.3790
  507MOL0     H68423   6.674   7.605   1.683  0.1222 -0.3021  0.3219
  507MOL0     H68424   6.668   7.673   1.516 -0.4562 -0.6689 -0.4697
  507MOL0     H68425   7.387   7.792   2.475  2.2267 -0.0903  2.9445
  507MOL0     H68426   7.383   7.807   2.709 -0.3771 -0.8006  0.1476
  507MOL0     H68427   7.163   7.587   3.129  0.5058  1.7688 -1.0199
  507MOL0     H68428   7.033   7.601   3.350  4.1820 -0.6967 -0.9065
  507MOL0     H68429   7.403   7.587   3.460  0.9363  1.5309 -0.1321
  507MOL0     H68430   7.448   7.594   3.199  3.3297 -1.3750  2.1294
  507MOL0     H68431   7.698   7.676   2.924  0.9661  1.6354  1.5022
  507MOL0     H68432   7.777   7.657   2.704  1.5355  0.9306 -1.4728
  507MOL0     H68433   7.771   8.031   2.455  1.6016 -1.2788  1.9652
  507MOL0     H68434   7.627   7.941   2.408 -0.4668 -0.7357  2.1362
  507MOL0     H68435   7.776   7.798   2.251  0.4923 -0.0318  0.0608
  507MOL0     H68436   7.912   7.878   2.295 -0.0415  0.8645 -0.0606
  507MOL0     H68437   7.856   8.085   2.193  0.0109  0.6681 -0.8611
  507MOL0     H68438   7.683   8.047   2.196  0.2895  0.8703 -2.0814
  507MOL0     H68439   7.884   7.939   2.005  2.2775  2.9051  3.6857
  507MOL0     H68440   7.726   7.863   2.034 -0.2240  0.6449 -1.4436
  507MOL0     H68441   7.646   8.172   1.767  1.2481  0.1972  0.6133
  507MOL0     H68442   7.645   8.059   2.621  1.9865 -0.8377 -1.4442
  507MOL0     H68443   7.484   8.165   2.802 -0.1505  2.5065  0.8572
  507MOL0     H68444   7.505   8.109   2.961 -0.3260  0.1930 -1.0686
  507MOL0     H68445   7.645   8.191   2.882  1.5829 -0.5186  0.0111
  508MOL0     O68446   5.803   1.567   6.759 -0.4433 -0.0981  0.4174
  508MOL0     C68447   5.921   1.532   6.783  0.5235  0.5631  0.1800
  508MOL0     O68448   5.991   1.580   6.884  0.3152 -0.6906  0.0239
  508MOL0     C68449   5.927   1.652   6.979  0.0369  0.0557  0.0724
  508MOL0     C68450   5.930   1.795   6.967 -0.5215  1.4900  0.0818
  508MOL0     C68451   5.896   1.875   7.072 -0.6248  0.8355  0.9461
  508MOL0     C68452   5.833   1.814   7.182  0.0818  1.0432 -0.1529
  508MOL0     O68453   5.769   1.909   7.270 -0.2221 -0.1699  0.2565
  508MOL0     C68454   5.861   1.957   7.372  0.6542 -0.4699  0.3398
  508MOL0     C68455   5.857   1.868   7.497  0.2218 -0.2289 -0.0551
  508MOL0     C68456   5.978   1.906   7.575 -0.1031  0.2883 -0.4119
  508MOL0     C68457   6.010   1.819   7.697 -0.6584  0.5935  0.6132
  508MOL0     C68458   6.119   1.882   7.782 -0.1489 -0.4084 -0.3373
  508MOL0     C68459   6.144   1.806   7.909  0.4747 -0.2803 -0.4023
  508MOL0     C68460   6.195   1.660   7.905  1.1928  0.2098 -0.1199
  508MOL0     C68461   6.317   1.636   7.810 -0.6486 -0.1548  0.0453
  508MOL0     N68462   6.385   1.498   7.825 -0.3724 -0.7571  1.6902
  508MOL0     C68463   6.366   1.394   7.905 -0.2730 -0.9794 -0.8080
  508MOL0     C68464   6.464   1.306   7.894  0.2673 -0.1404  1.6301
  508MOL0     C68465   6.502   1.201   7.985  0.0348  0.8559  0.0197
  508MOL0     C68466   6.586   1.250   8.097 -0.7400 -0.8835  0.4207
  508MOL0     C68467   6.494   1.309   8.201 -0.1245 -0.3100  0.3265
  508MOL0     C68468   6.549   1.397   8.293 -0.2163 -0.5536 -0.7190
  508MOL0     O68469   6.524   1.354   8.423  0.3169 -0.5214  0.7377
  508MOL0     C68470   6.613   1.264   8.475  0.0965  0.2961  0.1358
  508MOL0     C68471   6.555   1.147   8.532 -0.1872 -0.7819  1.7499
  508MOL0     C68472   6.627   1.050   8.596  0.2665  0.4514 -0.3110
  508MOL0     C68473   6.764   1.074   8.612 -0.0371 -0.3818  0.3986
  508MOL0     C68474   6.854   0.963   8.666  1.2515  0.4180 -0.6830
  508MOL0     O68475   6.795   0.843   8.692 -1.0619 -0.7773 -0.2524
  508MOL0     C68476   6.858   0.732   8.737  0.8265  0.1979  0.1065
  508MOL0     C68477   6.811   0.614   8.686 -1.1311 -1.3453 -0.0527
  508MOL0     C68478   6.855   0.494   8.732  0.5186 -0.3128 -1.6141
  508MOL0     C68479   6.959   0.489   8.824  0.0920 -0.2084 -1.6321
  508MOL0     O68480   7.006   0.361   8.861  0.8006  0.2273 -0.7195
  508MOL0     C68481   7.143   0.338   8.880  0.0629  0.3290 -0.1698
  508MOL0     C68482   7.178   0.192   8.902  0.5727  0.2506  0.1475
  508MOL0     C68483   7.330   0.159   8.911  0.1990  0.5646 -0.0196
  508MOL0     C68484   7.346   0.010   8.935  0.4860 -0.5988 -0.8034
  508MOL0     C68485   7.494  -0.040   8.931  0.4505 -0.1173  0.2038
  508MOL0     C68486   7.520  -0.172   8.995  0.0700  0.1564  0.2018
  508MOL0     C68487   7.674  -0.205   8.962  0.3640 -0.7852  0.1191
  508MOL0     C68488   7.719  -0.340   8.995  0.6380  0.1456  0.1588
  508MOL0    Cl68489   7.659  -0.446   8.856 -0.2091 -0.0991  0.0062
  508MOL0     C68490   7.012   0.612   8.863 -0.5066 -0.0822  0.2620
  508MOL0     C68491   6.962   0.731   8.828  0.3466 -0.3593 -0.3879
  508MOL0     O68492   6.973   0.988   8.669  0.1436  0.1066  0.5045
  508MOL0     C68493   6.824   1.192   8.562 -0.2856 -0.1630 -0.5194
  508MOL0     C68494   6.749   1.289   8.497  0.0570 -0.0869  1.1163
  508MOL0     N68495   6.542   1.345   7.786 -0.0257 -0.7120 -0.7465
  508MOL0     N68496   6.499   1.468   7.756  0.0143  0.5616 -1.6613
  508MOL0     C68497   5.824   1.672   7.197  0.4409 -0.1712 -0.9883
  508MOL0     C68498   5.883   1.590   7.098  0.6335 -0.6967 -0.7685
  508MOL0     C68499   5.992   1.455   6.678 -0.1645  0.5122  0.1791
  508MOL0     C68500   6.136   1.465   6.663 -0.2911 -0.4369 -0.7398
  508MOL0     C68501   6.203   1.396   6.564  0.2539  0.5170  0.2368
  508MOL0     C68502   6.134   1.323   6.471 -0.4401 -0.0770  0.6068
  508MOL0     O68503   6.207   1.262   6.366 -0.0285 -0.0921  0.5454
  508MOL0     C68504   6.134   1.165   6.281 -0.2585 -0.2448 -0.5176
  508MOL0     C68505   6.229   1.091   6.183  0.5902  0.5157  0.3705
  508MOL0     C68506   6.344   1.023   6.256 -0.1754 -0.7103 -0.1801
  508MOL0     C68507   6.401   0.917   6.163 -0.1146  0.1461 -0.0956
  508MOL0     C68508   6.451   0.985   6.051 -1.0143  0.1952  0.2920
  508MOL0     C68509   6.517   1.028   5.957 -0.0748  0.5195 -0.1086
  508MOL0     C68510   5.998   1.320   6.476  0.0894  0.4805 -0.9134
  508MOL0     C68511   5.923   1.389   6.576  0.6404 -0.4843 -0.6397
  508MOL0     C68512   5.771   1.372   6.556  0.5398 -0.4040  0.1710
  508MOL0     H68513   5.981   1.824   6.876 -1.8040 -0.0329 -1.1785
  508MOL0     H68514   5.901   1.983   7.066 -3.1327  0.9646  0.1610
  508MOL0     H68515   5.964   1.968   7.336  0.7887 -0.8184  0.6122
  508MOL0     H68516   5.818   2.051   7.406 -3.2344 -3.0592  3.5187
  508MOL0     H68517   5.841   1.766   7.464  4.0691 -0.3603 -2.0445
  508MOL0     H68518   5.774   1.903   7.559  1.5628  1.5036  0.8756
  508MOL0     H68519   5.960   2.011   7.601 -3.4906 -0.4878  0.9158
  508MOL0     H68520   6.069   1.905   7.516 -1.5730  1.6203 -2.8506
  508MOL0     H68521   5.925   1.796   7.762 -0.4841  0.8000  0.9210
  508MOL0     H68522   6.034   1.719   7.662  4.3126  1.5740  0.4184
  508MOL0     H68523   6.219   1.891   7.739 -0.3333 -0.3455 -0.7538
  508MOL0     H68524   6.095   1.985   7.811  2.3479  0.0496  0.3390
  508MOL0     H68525   6.220   1.861   7.966 -2.2720  0.8631  2.4338
  508MOL0     H68526   6.056   1.804   7.974  1.2309  0.0555  0.6541
  508MOL0     H68527   6.114   1.590   7.883  0.5079  0.3053  1.8766
  508MOL0     H68528   6.214   1.625   8.007  2.0068  0.9413 -0.0093
  508MOL0     H68529   6.288   1.642   7.705 -1.1345 -0.9820  0.1232
  508MOL0     H68530   6.397   1.705   7.837 -0.6027 -0.3804  0.5009
  508MOL0     H68531   6.283   1.388   7.974  0.4230  1.2109  0.2921
  508MOL0     H68532   6.412   1.164   8.034  0.1217  1.0095  0.2962
  508MOL0     H68533   6.537   1.110   7.935 -0.3182  0.4089  0.5685
  508MOL0     H68534   6.650   1.169   8.133 -0.0606 -1.1865 -1.3766
  508MOL0     H68535   6.652   1.326   8.054  0.4119 -2.4985 -0.7821
  508MOL0     H68536   6.448   1.222   8.249 -5.0704  0.9433 -1.4784
  508MOL0     H68537   6.413   1.370   8.159  0.0260 -0.1857  0.2176
  508MOL0     H68538   6.524   1.503   8.284 -1.1448 -0.6866  0.1929
  508MOL0     H68539   6.658   1.391   8.289 -0.2685 -4.3055 -0.1930
  508MOL0     H68540   6.452   1.122   8.509 -0.3922 -1.9346  3.7254
  508MOL0     H68541   6.601   0.950   8.631  4.1734 -0.4218  0.5642
  508MOL0     H68542   6.731   0.621   8.613  0.8330  2.0330 -2.1940
  508MOL0     H68543   6.822   0.400   8.688 -1.1900 -0.0174 -1.0593
  508MOL0     H68544   7.194   0.383   8.795 -0.7011 -1.5161 -1.6779
  508MOL0     H68545   7.191   0.381   8.969  0.0316 -0.0230  0.0217
  508MOL0     H68546   7.140   0.171   9.003 -0.7432  2.4579  0.1809
  508MOL0     H68547   7.137   0.125   8.827  2.0196  1.9090 -2.2817
  508MOL0     H68548   7.381   0.183   8.818  3.6974  0.4736  1.6873
  508MOL0     H68549   7.388   0.209   8.989  2.9652 -0.5132 -1.2477
  508MOL0     H68550   7.279  -0.046   8.868 -0.4541 -2.7607  1.7351
  508MOL0     H68551   7.312   0.002   9.039  1.5556  4.6589  0.2047
  508MOL0     H68552   7.571   0.026   8.972  0.5855 -1.3266  1.9946
  508MOL0     H68553   7.517  -0.044   8.824 -4.4918  0.8936 -1.1338
  508MOL0     H68554   7.506  -0.165   9.104 -0.1226  0.5090  0.1600
  508MOL0     H68555   7.456  -0.247   8.948  0.0916 -0.6016  1.3302
  508MOL0     H68556   7.733  -0.125   9.009 -1.6765 -1.5189  4.4478
  508MOL0     H68557   7.689  -0.177   8.858  0.8570 -2.7680 -0.3881
  508MOL0     H68558   7.828  -0.336   9.004  0.5310 -0.7012  2.7617
  508MOL0     H68559   7.683  -0.375   9.092 -1.5352 -2.1390 -1.3378
  508MOL0     H68560   7.101   0.614   8.926  2.1410 -0.3033 -3.1728
  508MOL0     H68561   7.000   0.823   8.872  0.0379 -0.9330  1.1401
  508MOL0     H68562   6.931   1.206   8.554 -0.2300 -0.4358 -0.2983
  508MOL0     H68563   6.802   1.374   8.455 -1.4756  0.5122  0.3280
  508MOL0     H68564   5.778   1.631   7.286  3.6163  1.0042  1.3439
  508MOL0     H68565   5.899   1.483   7.099 -0.7686 -0.9365 -0.6962
  508MOL0     H68566   6.203   1.504   6.738  3.8446 -0.7755 -3.9165
  508MOL0     H68567   6.310   1.406   6.552  0.1529  0.9903 -0.3161
  508MOL0     H68568   6.067   1.228   6.222  0.4255  4.7082  3.3414
  508MOL0     H68569   6.089   1.094   6.352  0.8460 -0.9177 -0.4708
  508MOL0     H68570   6.267   1.170   6.118  1.3837 -0.6263 -0.6010
  508MOL0     H68571   6.166   1.020   6.129  0.1765  1.7943 -0.8799
  508MOL0     H68572   6.303   0.981   6.349  0.7525 -0.1550  0.4970
  508MOL0     H68573   6.430   1.088   6.274 -2.1074  2.3869 -1.3731
  508MOL0     H68574   6.485   0.870   6.216 -0.7500 -0.6476  0.2405
  508MOL0     H68575   6.318   0.852   6.134 -0.5214  0.3837  0.5096
  508MOL0     H68576   6.564   1.065   5.868  0.6379  4.1329  1.5679
  508MOL0     H68577   5.939   1.280   6.395 -0.2245  0.1779 -0.5382
  508MOL0     H68578   5.718   1.467   6.544  2.1945  0.6693  1.0025
  508MOL0     H68579   5.748   1.313   6.467  0.6552  0.6734 -0.5809
  508MOL0     H68580   5.732   1.315   6.641  0.0880  4.6872  3.8363
  509MOL0     O68581   9.375   0.818   1.988  0.1307  0.0298 -0.5769
  509MOL0     C68582   9.402   0.787   1.875 -0.8384  0.0615  0.8574
  509MOL0     O68583   9.535   0.775   1.827  0.0674  0.1580  0.0789
  509MOL0     C68584   9.626   0.768   1.930 -0.2065  0.3520  0.0352
  509MOL0     C68585   9.678   0.883   1.981 -0.5422 -0.0178  0.1304
  509MOL0     C68586   9.771   0.885   2.093  0.3863  0.2501  0.8329
  509MOL0     C68587   9.798   0.753   2.149 -0.3804  0.4248  0.3904
  509MOL0     O68588   9.877   0.753   2.263  0.0934  0.1337  0.1671
  509MOL0     C68589   9.880   0.632   2.340 -0.7410  0.0356  0.0627
  509MOL0     C68590   9.951   0.638   2.479 -1.0166  0.1652  0.2771
  509MOL0     C68591   9.893   0.734   2.580 -0.1833 -0.0304 -0.3417
  509MOL0     C68592   9.960   0.703   2.717 -0.3924 -0.1465  0.9223
  509MOL0     C68593   9.868   0.748   2.832  0.1549 -0.8605 -0.3846
  509MOL0     C68594   9.836   0.903   2.807  0.4533 -1.4025  0.3696
  509MOL0     C68595   9.775   0.973   2.931 -0.1402  0.6471  0.4318
  509MOL0     C68596   9.866   0.953   3.050  0.6125 -0.8361  0.1348
  509MOL0     N68597   9.866   1.077   3.138  0.2521 -0.3016 -0.0341
  509MOL0     C68598   9.757   1.153   3.181 -0.5148  0.7572  0.0287
  509MOL0     C68599   9.806   1.230   3.278 -0.1584 -0.5973 -1.0022
  509MOL0     C68600   9.716   1.327   3.350 -1.0542  0.3936  0.2811
  509MOL0     C68601   9.798   1.441   3.413 -0.1639  0.4787 -1.2738
  509MOL0     C68602   9.830   1.557   3.312 -0.0003 -0.8609  0.2045
  509MOL0     C68603   9.899   1.677   3.376 -0.8519  0.5891  0.2397
  509MOL0     O68604   9.879   1.798   3.301  1.1244 -0.7941 -0.4431
  509MOL0     C68605   9.929   1.916   3.369  0.1842  0.3074 -0.3130
  509MOL0     C68606  10.010   1.921   3.480  0.2442 -0.4414  0.0255
  509MOL0     C68607  10.066   2.038   3.535  0.8693 -0.5762 -0.1878
  509MOL0     C68608  10.018   2.158   3.499  0.0800 -0.1613  0.1837
  509MOL0     C68609  10.049   2.275   3.572  0.2623  0.9002 -0.2012
  509MOL0     O68610  10.065   2.372   3.486  0.5893 -0.8034 -0.1668
  509MOL0     C68611  10.114   2.492   3.527 -0.6244 -0.3868  0.9544
  509MOL0     C68612  10.239   2.505   3.585 -0.1080 -0.7190 -0.5483
  509MOL0     C68613  10.287   2.633   3.634  0.1073  0.1384 -0.7535
  509MOL0     C68614  10.210   2.747   3.615  0.3113  0.7633  0.8269
  509MOL0     O68615  10.265   2.867   3.649  0.1868 -0.1399  0.0450
  509MOL0     C68616  10.394   2.912   3.617 -0.2624 -0.1609  0.2831
  509MOL0     C68617  10.422   3.058   3.633 -0.0118 -0.1478  0.4001
  509MOL0     C68618  10.317   3.139   3.559 -0.1867 -0.5861 -0.7940
  509MOL0     C68619  10.356   3.284   3.515 -0.9681 -0.2853  0.1495
  509MOL0     C68620  10.357   3.305   3.362 -0.0379  0.4050 -0.6555
  509MOL0     C68621  10.226   3.263   3.295 -0.3819 -0.9102 -1.1341
  509MOL0     C68622  10.110   3.367   3.320  0.0583 -0.2727  0.7244
  509MOL0     C68623   9.983   3.311   3.267 -0.7231  0.0930  0.0366
  509MOL0    Cl68624   9.993   3.244   3.096  0.2827  0.0383  0.1795
  509MOL0     C68625  10.086   2.730   3.556 -0.2856  0.4393  0.5532
  509MOL0     C68626  10.038   2.608   3.502  0.5232 -0.3746 -0.0765
  509MOL0     O68627  10.064   2.280   3.696  1.2434  0.1410  0.5793
  509MOL0     C68628   9.927   2.156   3.393 -0.7605  0.5123  0.2132
  509MOL0     C68629   9.883   2.036   3.325  0.5540 -0.5139  0.5246
  509MOL0     N68630   9.942   1.215   3.295 -0.3076  1.0816 -0.5263
  509MOL0     N68631   9.973   1.131   3.199 -0.3898 -0.7664  0.0016
  509MOL0     C68632   9.754   0.636   2.080 -0.4676 -0.3629 -0.0691
  509MOL0     C68633   9.656   0.646   1.973 -0.6212  0.1160 -0.3413
  509MOL0     C68634   9.286   0.770   1.778 -0.6073  0.7321 -0.5462
  509MOL0     C68635   9.162   0.845   1.800 -0.5525  0.0467 -1.0337
  509MOL0     C68636   9.062   0.859   1.708 -0.6100  1.2551  0.5802
  509MOL0     C68637   9.070   0.787   1.590  0.2500 -0.2738  0.8636
  509MOL0     O68638   8.980   0.820   1.489 -0.2839  0.5551  0.6969
  509MOL0     C68639   9.005   0.804   1.345  0.0073 -0.2518 -0.6010
  509MOL0     C68640   9.123   0.898   1.301  0.2575  0.3093  0.1122
  509MOL0     C68641   9.080   1.034   1.257 -0.1274 -0.3431 -0.6506
  509MOL0     C68642   9.204   1.125   1.225 -0.3490 -0.5266 -0.1657
  509MOL0     C68643   9.297   1.097   1.110 -0.2678 -0.3387 -0.1328
  509MOL0     C68644   9.376   1.062   1.026  0.3437  0.5393 -1.2165
  509MOL0     C68645   9.184   0.713   1.563  1.2159  0.4832 -0.6272
  509MOL0     C68646   9.287   0.705   1.656 -0.0623 -0.0600  0.0197
  509MOL0     C68647   9.406   0.617   1.617  0.7120 -0.1828  0.8482
  509MOL0     H68648   9.660   0.986   1.955  2.2673  0.5950  0.3306
  509MOL0     H68649   9.809   0.980   2.128 -1.0427  0.8419  0.8576
  509MOL0     H68650   9.777   0.595   2.350 -0.7695  0.7848  4.2436
  509MOL0     H68651   9.945   0.566   2.282  0.1711  1.9713 -1.2199
  509MOL0     H68652  10.059   0.653   2.471 -0.6461 -0.1823  3.3552
  509MOL0     H68653   9.953   0.536   2.519  2.1670 -0.6972 -1.7798
  509MOL0     H68654   9.786   0.712   2.575  0.1521 -1.5612 -2.4087
  509MOL0     H68655   9.916   0.834   2.541  1.0137 -0.1124  0.1077
  509MOL0     H68656   9.972   0.595   2.729 -1.1361 -0.1715  1.4634
  509MOL0     H68657  10.058   0.749   2.732 -1.5562  1.7947  3.2208
  509MOL0     H68658   9.782   0.682   2.844  0.3239 -1.0849 -0.4235
  509MOL0     H68659   9.929   0.738   2.923  2.3010 -0.5174 -1.7147
  509MOL0     H68660   9.928   0.958   2.788 -0.3020 -0.0981  0.4021
  509MOL0     H68661   9.772   0.916   2.720  1.5271 -0.3045 -0.2815
  509MOL0     H68662   9.683   0.922   2.961 -1.2065  2.0177 -0.3738
  509MOL0     H68663   9.748   1.076   2.910  0.1088  0.7807  0.7584
  509MOL0     H68664   9.822   0.875   3.113  0.7403 -0.9302  0.1065
  509MOL0     H68665   9.963   0.936   3.003 -0.9291 -0.6841 -3.4492
  509MOL0     H68666   9.653   1.154   3.150 -1.2217  2.9277  2.2408
  509MOL0     H68667   9.648   1.357   3.270 -2.4128 -1.0895  0.8151
  509MOL0     H68668   9.651   1.279   3.425 -1.8560 -2.5002 -2.0654
  509MOL0     H68669   9.744   1.498   3.490  1.2883  0.3336 -0.0977
  509MOL0     H68670   9.892   1.402   3.454 -0.9110  1.6794  1.9215
  509MOL0     H68671   9.739   1.594   3.265  0.4580 -0.7369 -0.5992
  509MOL0     H68672   9.901   1.523   3.236 -0.5755 -2.6363  0.4170
  509MOL0     H68673  10.002   1.645   3.357 -0.2325  3.0196 -0.9285
  509MOL0     H68674   9.881   1.676   3.484 -2.1378 -0.8301  0.0414
  509MOL0     H68675  10.031   1.829   3.533 -0.4790  0.7288  2.4768
  509MOL0     H68676  10.133   2.014   3.617 -3.7366 -0.3425  4.1175
  509MOL0     H68677  10.314   2.428   3.595  3.7417  2.7988  0.6033
  509MOL0     H68678  10.389   2.651   3.664 -0.7342  0.7103  2.0190
  509MOL0     H68679  10.467   2.865   3.684 -1.2743 -1.3114  0.6172
  509MOL0     H68680  10.407   2.888   3.511  0.2231  0.1735  0.2615
  509MOL0     H68681  10.419   3.081   3.740  2.5596  3.4472 -0.1186
  509MOL0     H68682  10.526   3.069   3.600  0.9137  0.1268  3.1513
  509MOL0     H68683  10.304   3.083   3.466  3.3693 -0.8744 -1.2613
  509MOL0     H68684  10.220   3.148   3.609 -0.4100 -1.4356 -1.0607
  509MOL0     H68685  10.458   3.313   3.545  0.6657 -2.7019 -2.5704
  509MOL0     H68686  10.292   3.361   3.559 -0.8240  0.8670 -1.5954
  509MOL0     H68687  10.429   3.236   3.318  1.9761  2.4042 -0.6979
  509MOL0     H68688  10.400   3.401   3.333  1.4226  1.0617  3.0746
  509MOL0     H68689  10.255   3.253   3.191  0.5923 -3.3392 -0.6856
  509MOL0     H68690  10.194   3.168   3.340  2.6156 -1.3564  0.3057
  509MOL0     H68691  10.130   3.459   3.264 -1.0175  1.2400  2.6872
  509MOL0     H68692  10.110   3.400   3.424  4.2906 -1.4758  1.3112
  509MOL0     H68693   9.956   3.228   3.333 -0.8715  2.2448  2.8323
  509MOL0     H68694   9.904   3.386   3.270 -0.9221 -0.1498  1.6825
  509MOL0     H68695  10.043   2.827   3.537  3.5397  1.9983 -1.0461
  509MOL0     H68696   9.943   2.600   3.451  0.9651  0.6806 -1.1002
  509MOL0     H68697   9.871   2.247   3.371 -2.7220 -1.1478 -2.3317
  509MOL0     H68698   9.808   2.034   3.247  2.3281 -0.1445 -1.2867
  509MOL0     H68699   9.771   0.539   2.127 -3.3641 -0.7190  0.4428
  509MOL0     H68700   9.620   0.558   1.921 -0.2624  0.2933 -0.8926
  509MOL0     H68701   9.145   0.896   1.894  0.1372 -0.6748 -0.5065
  509MOL0     H68702   8.968   0.907   1.732 -1.6084 -0.1524 -0.4335
  509MOL0     H68703   8.909   0.809   1.292 -1.3672 -0.8433  1.7064
  509MOL0     H68704   9.033   0.700   1.332  2.7177  0.1339  1.2407
  509MOL0     H68705   9.190   0.851   1.229 -0.4481  1.2499 -1.2207
  509MOL0     H68706   9.193   0.913   1.384  1.1789 -2.7084 -0.0108
  509MOL0     H68707   9.031   1.082   1.342 -0.3856 -0.3835 -0.7771
  509MOL0     H68708   9.006   1.027   1.177 -3.8188 -0.2623  2.4664
  509MOL0     H68709   9.164   1.223   1.200  1.4767 -0.3635 -2.9027
  509MOL0     H68710   9.269   1.127   1.313  0.5745 -1.1611 -0.8053
  509MOL0     H68711   9.458   1.012   0.978  2.0693  1.5273  0.5411
  509MOL0     H68712   9.192   0.657   1.470  0.8102  0.3594 -0.5874
  509MOL0     H68713   9.497   0.677   1.605 -0.8145  2.2330  0.6592
  509MOL0     H68714   9.395   0.540   1.694 -2.8923  1.1886  1.9186
  509MOL0     H68715   9.388   0.578   1.516  1.7468  4.3840 -1.3858
  510MOL0     O68716   0.452   3.050   6.960 -0.0143  1.1041 -0.2849
  510MOL0     C68717   0.381   3.138   6.916  0.1611  0.6399  0.3847
  510MOL0     O68718   0.291   3.119   6.815 -0.6605  0.0890  0.2748
  510MOL0     C68719   0.237   2.994   6.789 -0.2383 -0.2328 -1.3043
  510MOL0     C68720   0.107   2.950   6.825 -0.1523  0.1026 -0.3858
  510MOL0     C68721   0.059   2.820   6.795  0.3935  0.2011  0.3053
  510MOL0     C68722   0.150   2.734   6.725 -0.5388  0.0279 -0.6323
  510MOL0     O68723   0.094   2.611   6.690 -0.5515  0.0522 -0.6515
  510MOL0     C68724  -0.042   2.570   6.703  0.4926 -1.0628 -0.5450
  510MOL0     C68725  -0.057   2.430   6.651  0.0843 -0.0845 -0.2792
  510MOL0     C68726  -0.009   2.405   6.505 -0.3699  0.1263 -0.7210
  510MOL0     C68727  -0.071   2.283   6.439  0.1977  0.2834 -0.1635
  510MOL0     C68728  -0.063   2.149   6.509  0.0630  0.5453  0.0480
  510MOL0     C68729  -0.133   2.035   6.436 -0.1539  0.0550 -0.0948
  510MOL0     C68730  -0.138   1.907   6.521 -0.1973 -0.5798 -0.0514
  510MOL0     C68731  -0.206   1.782   6.456  0.5917 -0.8107  0.0710
  510MOL0     N68732  -0.243   1.680   6.553 -0.2822 -0.3248  0.6356
  510MOL0     C68733  -0.292   1.553   6.512 -1.0943 -0.5096  0.3744
  510MOL0     C68734  -0.286   1.482   6.626 -1.0809 -0.2621 -1.2196
  510MOL0     C68735  -0.342   1.344   6.619 -0.2811  0.0808  0.1960
  510MOL0     C68736  -0.242   1.229   6.641  0.2502 -0.7572  0.2882
  510MOL0     C68737  -0.314   1.091   6.609 -0.1382 -0.5005 -0.7575
  510MOL0     C68738  -0.219   0.976   6.616 -0.8502 -0.6161 -0.1556
  510MOL0     O68739  -0.149   0.997   6.733 -0.1548  0.0482 -0.2994
  510MOL0     C68740  -0.224   0.963   6.847 -0.0070 -0.3857 -0.4038
  510MOL0     C68741  -0.305   0.848   6.858  0.5210 -0.2621 -0.0852
  510MOL0     C68742  -0.380   0.819   6.979  0.3338 -0.0803  0.2471
  510MOL0     C68743  -0.361   0.895   7.095  0.3254  0.3859 -1.1439
  510MOL0     C68744  -0.426   0.846   7.224  0.4117 -0.7535 -0.1414
  510MOL0     O68745  -0.394   0.917   7.344  0.4974  0.4206 -0.2521
  510MOL0     C68746  -0.460   0.898   7.454 -0.2488 -0.3574  0.0244
  510MOL0     C68747  -0.587   0.840   7.478 -0.3064  0.5602  0.4439
  510MOL0     C68748  -0.616   0.793   7.609 -0.0726  0.3860  0.3020
  510MOL0     C68749  -0.536   0.819   7.717  0.0998 -0.7733  0.7806
  510MOL0     O68750  -0.557   0.746   7.831 -0.1120  0.5892 -0.1845
  510MOL0     C68751  -0.458   0.744   7.940 -0.5213  0.2369  0.5773
  510MOL0     C68752  -0.507   0.691   8.072 -0.0296  1.1112  0.3619
  510MOL0     C68753  -0.569   0.552   8.054  0.0639 -0.2938 -0.3862
  510MOL0     C68754  -0.463   0.441   8.036  0.2993  0.0051 -0.5747
  510MOL0     C68755  -0.514   0.303   7.988 -0.6082  0.9468 -0.3252
  510MOL0     C68756  -0.390   0.205   7.994 -0.1256 -0.0156 -0.4242
  510MOL0     C68757  -0.436   0.061   8.030  0.3890 -0.1655 -0.5883
  510MOL0     C68758  -0.344  -0.038   7.972 -0.5777  0.7294 -0.8379
  510MOL0    Cl68759  -0.402  -0.208   8.015 -0.1363 -0.0455  0.2869
  510MOL0     C68760  -0.409   0.896   7.696 -0.2984  0.7396  0.1576
  510MOL0     C68761  -0.377   0.926   7.564 -0.1648 -0.3545 -1.0013
  510MOL0     O68762  -0.490   0.741   7.225 -0.5647  0.1875  0.2681
  510MOL0     C68763  -0.269   0.994   7.097 -1.2484  1.7323 -0.4407
  510MOL0     C68764  -0.196   1.020   6.972  0.2737 -1.0205 -0.7114
  510MOL0     N68765  -0.238   1.552   6.729 -0.2563 -1.0116  0.6416
  510MOL0     N68766  -0.219   1.674   6.685  0.5724  0.0015 -0.3599
  510MOL0     C68767   0.275   2.775   6.692  0.8238  0.7545  0.1184
  510MOL0     C68768   0.318   2.904   6.720 -0.0046  0.3767 -0.2752
  510MOL0     C68769   0.397   3.262   6.984  0.3148  0.7320  1.0279
  510MOL0     C68770   0.509   3.283   7.053  0.2329 -0.0322 -0.3366
  510MOL0     C68771   0.520   3.383   7.152 -1.1093 -0.6625  0.0051
  510MOL0     C68772   0.416   3.467   7.187  0.4832  0.2714 -0.0810
  510MOL0     O68773   0.413   3.558   7.286 -0.4235 -0.4374  0.4898
  510MOL0     C68774   0.526   3.570   7.378 -0.1257 -0.3295  0.5589
  510MOL0     C68775   0.503   3.494   7.508 -0.0256 -0.3265 -0.0186
  510MOL0     C68776   0.381   3.530   7.584  0.2382  0.4255 -0.0375
  510MOL0     C68777   0.405   3.649   7.677 -0.9179 -0.6076  0.1730
  510MOL0     C68778   0.411   3.597   7.814  0.8496 -0.1294  0.3540
  510MOL0     C68779   0.411   3.551   7.920 -1.7633  0.9971 -0.4291
  510MOL0     C68780   0.302   3.451   7.106  0.0999  0.6542  0.3861
  510MOL0     C68781   0.291   3.348   7.010 -0.2633 -0.0471 -0.7790
  510MOL0     C68782   0.163   3.351   6.939 -0.0583 -0.5064 -0.2655
  510MOL0     H68783   0.049   3.030   6.872  0.7229  1.4840 -1.5670
  510MOL0     H68784  -0.041   2.786   6.816  1.0189 -1.7779  0.2581
  510MOL0     H68785  -0.069   2.573   6.809  0.6507 -1.8326 -0.4797
  510MOL0     H68786  -0.114   2.631   6.647  0.5291  2.1649  2.5604
  510MOL0     H68787  -0.164   2.406   6.648  0.2775 -1.4269  1.6749
  510MOL0     H68788  -0.002   2.364   6.718  3.0780  0.3550 -2.1522
  510MOL0     H68789   0.101   2.401   6.510 -0.2843 -1.0609 -2.4489
  510MOL0     H68790  -0.038   2.485   6.437 -1.2436 -0.3906 -0.9730
  510MOL0     H68791  -0.175   2.317   6.430  0.1193  0.0379 -0.2030
  510MOL0     H68792  -0.035   2.285   6.335  0.0443  1.7702 -0.2098
  510MOL0     H68793   0.043   2.126   6.518  0.2296  1.9901  2.8193
  510MOL0     H68794  -0.111   2.156   6.607 -0.9484 -1.0188 -0.3009
  510MOL0     H68795  -0.239   2.053   6.412 -0.5785 -2.1633 -0.1157
  510MOL0     H68796  -0.089   2.016   6.338 -3.5294 -1.2486 -1.5301
  510MOL0     H68797  -0.186   1.928   6.617  1.7768 -1.2575  1.1318
  510MOL0     H68798  -0.036   1.876   6.543  0.7007  3.0400  1.5586
  510MOL0     H68799  -0.299   1.828   6.422  0.1133 -1.2634  0.7570
  510MOL0     H68800  -0.152   1.749   6.366 -3.4674 -0.4041 -2.7839
  510MOL0     H68801  -0.334   1.527   6.416 -1.1881 -1.2859  0.6238
  510MOL0     H68802  -0.430   1.321   6.680 -0.1158 -0.8691  0.1003
  510MOL0     H68803  -0.376   1.329   6.516  0.1565  0.6638 -0.0363
  510MOL0     H68804  -0.164   1.238   6.565 -1.5946 -0.8729 -1.7035
  510MOL0     H68805  -0.205   1.235   6.744  0.5414  2.9025  0.1155
  510MOL0     H68806  -0.362   1.098   6.511 -0.0061  4.3415 -0.7087
  510MOL0     H68807  -0.389   1.066   6.685 -0.3363 -3.9037 -1.8869
  510MOL0     H68808  -0.141   0.977   6.540  3.4805 -2.1181  3.8135
  510MOL0     H68809  -0.268   0.879   6.612  0.5121 -1.3566  0.4488
  510MOL0     H68810  -0.329   0.778   6.778 -1.7776 -0.6625  0.8770
  510MOL0     H68811  -0.436   0.726   6.977  0.8131 -0.3766  0.6259
  510MOL0     H68812  -0.652   0.812   7.395 -0.3627  1.8224  0.0315
  510MOL0     H68813  -0.708   0.737   7.621 -0.3803  0.6238 -0.8259
  510MOL0     H68814  -0.379   0.680   7.900  0.3185  2.5231 -1.7035
  510MOL0     H68815  -0.423   0.843   7.972  1.7385 -0.6954  1.1902
  510MOL0     H68816  -0.421   0.681   8.139 -1.2140  2.5099  2.1952
  510MOL0     H68817  -0.581   0.755   8.120 -1.7119 -0.6516  0.2371
  510MOL0     H68818  -0.628   0.516   8.138 -0.1820 -1.5565 -1.0810
  510MOL0     H68819  -0.630   0.559   7.964  1.0943  0.7114 -1.0414
  510MOL0     H68820  -0.413   0.434   8.133 -0.1373 -0.8998 -0.4032
  510MOL0     H68821  -0.386   0.469   7.965  0.1856  0.8365 -0.3763
  510MOL0     H68822  -0.561   0.304   7.889 -2.8472 -0.6874  0.6186
  510MOL0     H68823  -0.587   0.266   8.061  1.1553 -2.4553 -0.0651
  510MOL0     H68824  -0.314   0.220   7.916  1.8998 -0.5711  1.3321
  510MOL0     H68825  -0.338   0.223   8.089  1.2775 -2.2171 -0.6910
  510MOL0     H68826  -0.536   0.032   7.996 -1.4870  4.3593  0.2847
  510MOL0     H68827  -0.440   0.062   8.139 -0.7513 -0.1160 -0.6190
  510MOL0     H68828  -0.353  -0.020   7.864  1.5977  2.2751 -0.8060
  510MOL0     H68829  -0.243  -0.031   8.012 -0.8609 -0.1695  0.0610
  510MOL0     H68830  -0.339   0.906   7.779 -0.2509 -0.3968  0.2657
  510MOL0     H68831  -0.283   0.981   7.553  0.1460 -1.0488 -1.9437
  510MOL0     H68832  -0.234   1.042   7.188 -0.0726  1.8980 -0.9555
  510MOL0     H68833  -0.130   1.105   6.961 -2.5970  1.4034 -0.3923
  510MOL0     H68834   0.341   2.715   6.629  0.6075  0.9919 -0.3345
  510MOL0     H68835   0.415   2.928   6.677  3.0292 -2.4001  4.0998
  510MOL0     H68836   0.599   3.228   7.028 -0.7273 -2.2679  0.8183
  510MOL0     H68837   0.617   3.403   7.195  0.1032 -3.3317 -1.2655
  510MOL0     H68838   0.541   3.675   7.407  0.6711 -0.3117  0.1068
  510MOL0     H68839   0.622   3.540   7.337  0.4384  2.2452 -0.1730
  510MOL0     H68840   0.595   3.511   7.564  0.7954 -0.5324 -1.2615
  510MOL0     H68841   0.502   3.391   7.472  0.5900  0.2973 -1.9552
  510MOL0     H68842   0.351   3.445   7.646 -1.9304  3.0454  2.8114
  510MOL0     H68843   0.303   3.546   7.508  0.3487  0.3267 -0.1703
  510MOL0     H68844   0.504   3.688   7.652 -1.4166  0.1237 -0.7200
  510MOL0     H68845   0.324   3.723   7.677 -1.3837 -1.1132  0.3210
  510MOL0     H68846   0.414   3.496   8.012  0.6947 -2.7300 -2.4529
  510MOL0     H68847   0.219   3.510   7.144  1.4982  1.4003  2.5066
  510MOL0     H68848   0.171   3.373   6.832 -0.9442  0.1059 -0.2255
  510MOL0     H68849   0.105   3.261   6.960 -0.2304 -1.1610 -3.1813
  510MOL0     H68850   0.094   3.421   6.988 -4.3412 -4.7214  0.4936
  511MOL0     O68851   6.888   7.456   8.082 -0.1674  0.4281  0.3627
  511MOL0     C68852   6.859   7.557   8.146 -0.1555  0.4076  0.5979
  511MOL0     O68853   6.948   7.668   8.165  0.6873 -0.7353 -0.0966
  511MOL0     C68854   7.076   7.679   8.105  1.5931 -0.2079  0.0074
  511MOL0     C68855   7.149   7.795   8.145  0.0007  0.0545  0.0813
  511MOL0     C68856   7.270   7.818   8.087 -1.1434  0.3691 -0.5204
  511MOL0     C68857   7.327   7.727   7.995  0.3573  0.0494 -0.0344
  511MOL0     O68858   7.436   7.750   7.919  1.4737 -1.0678  0.5942
  511MOL0     C68859   7.541   7.848   7.943  0.0556 -0.4463  0.7001
  511MOL0     C68860   7.642   7.782   8.043 -0.0682 -0.7769  0.5162
  511MOL0     C68861   7.746   7.703   7.967 -0.1099 -0.2829  0.0589
  511MOL0     C68862   7.853   7.650   8.059  0.2355  0.1040 -0.1746
  511MOL0     C68863   7.938   7.554   7.972  1.0040  0.8893  0.1932
  511MOL0     C68864   8.047   7.516   8.068  0.0118  0.0150  0.0117
  511MOL0     C68865   8.173   7.453   7.999  0.0114  0.0903 -1.0295
  511MOL0     C68866   8.250   7.556   7.926 -0.2973  0.9669 -0.1689
  511MOL0     N68867   8.352   7.491   7.843 -1.0361 -0.0760  0.3394
  511MOL0     C68868   8.483   7.471   7.878  0.0385 -0.0103 -0.5060
  511MOL0     C68869   8.545   7.416   7.768 -0.4019 -0.9077 -0.4106
  511MOL0     C68870   8.696   7.380   7.753 -0.0454 -0.2719 -0.1433
  511MOL0     C68871   8.728   7.267   7.842 -0.4624  0.0671 -0.4987
  511MOL0     C68872   8.653   7.144   7.793  0.2133 -0.2006  0.6535
  511MOL0     C68873   8.688   7.017   7.883 -0.7226  0.3107  0.5131
  511MOL0     O68874   8.705   7.027   8.027 -1.6228  0.1457  0.2670
  511MOL0     C68875   8.610   7.080   8.112 -0.0907  0.6649  0.2981
  511MOL0     C68876   8.488   7.130   8.075 -0.1909  0.4964  0.0818
  511MOL0     C68877   8.400   7.172   8.169  0.0227 -0.6857  1.3881
  511MOL0     C68878   8.443   7.175   8.298  0.5943  0.0068 -0.0235
  511MOL0     C68879   8.353   7.240   8.405  0.3442 -0.7101  0.4321
  511MOL0     O68880   8.392   7.230   8.532  0.6895  0.6618  0.4290
  511MOL0     C68881   8.319   7.285   8.630 -0.1080  0.1080  0.8078
  511MOL0     C68882   8.201   7.227   8.677 -0.2226 -0.0929 -0.1528
  511MOL0     C68883   8.129   7.291   8.773 -0.2455  0.0510  0.2486
  511MOL0     C68884   8.171   7.409   8.824  0.1500  1.1570  0.2756
  511MOL0     O68885   8.106   7.473   8.927 -0.3364 -0.0249 -0.0951
  511MOL0     C68886   8.069   7.399   9.043 -0.4380  0.8421 -0.2599
  511MOL0     C68887   8.188   7.330   9.120 -0.0499 -0.4127  0.6766
  511MOL0     C68888   8.167   7.256   9.247  0.3707  0.6039  0.7848
  511MOL0     C68889   8.070   7.137   9.231 -0.4556  0.2813 -0.6420
  511MOL0     C68890   8.114   7.019   9.314  0.3861  0.2157 -0.9713
  511MOL0     C68891   8.022   6.901   9.291 -0.2615  0.1152 -0.2103
  511MOL0     C68892   8.108   6.784   9.349 -0.8085  0.0336 -0.3938
  511MOL0     C68893   8.037   6.653   9.380  0.4305 -0.0479 -0.2542
  511MOL0    Cl68894   7.956   6.582   9.231 -0.1314  0.8430  0.4137
  511MOL0     C68895   8.280   7.482   8.768 -0.1163  0.5961  0.3318
  511MOL0     C68896   8.357   7.413   8.670  0.5616  0.2877 -0.2592
  511MOL0     O68897   8.244   7.287   8.364  0.1047 -0.1345  0.5372
  511MOL0     C68898   8.571   7.146   8.342  0.0027  1.0958  0.1989
  511MOL0     C68899   8.649   7.088   8.251 -1.0945 -0.6067  0.7418
  511MOL0     N68900   8.456   7.417   7.664  1.2949  0.2743 -0.0863
  511MOL0     N68901   8.345   7.466   7.711 -0.1234 -0.2238 -0.1383
  511MOL0     C68902   7.256   7.613   7.966  1.0020 -1.0727  0.7186
  511MOL0     C68903   7.130   7.583   8.018 -0.3904  0.7372 -0.4329
  511MOL0     C68904   6.737   7.557   8.228  0.0854 -0.4446 -0.3142
  511MOL0     C68905   6.704   7.674   8.303  1.1015  0.2453 -0.4820
  511MOL0     C68906   6.572   7.690   8.362  0.2042 -0.1480 -0.6571
  511MOL0     C68907   6.490   7.582   8.352 -0.1238  0.7677 -0.8124
  511MOL0     O68908   6.359   7.588   8.399 -0.1091  0.6890 -1.0926
  511MOL0     C68909   6.309   7.711   8.451  0.3510  0.5071  1.2298
  511MOL0     C68910   6.253   7.799   8.334 -1.3490 -0.3561  0.3767
  511MOL0     C68911   6.125   7.766   8.257  0.3388  1.0344  0.0178
  511MOL0     C68912   6.146   7.682   8.130 -0.0364 -0.0544  0.2688
  511MOL0     C68913   6.155   7.542   8.164  0.4485  0.1876 -0.7186
  511MOL0     C68914   6.156   7.423   8.191  0.0448  1.0426 -0.0008
  511MOL0     C68915   6.527   7.457   8.295 -0.1518  0.0110 -0.1264
  511MOL0     C68916   6.646   7.441   8.232 -0.3963 -0.4712 -0.2795
  511MOL0     C68917   6.665   7.303   8.177  0.0749 -0.4971  0.9946
  511MOL0     H68918   7.095   7.868   8.203  0.9812  0.7930  0.0837
  511MOL0     H68919   7.318   7.913   8.105 -1.4107  0.2877  0.7298
  511MOL0     H68920   7.588   7.871   7.847 -1.2692  1.1067  0.3901
  511MOL0     H68921   7.516   7.943   7.991 -2.4208  1.4699 -3.7766
  511MOL0     H68922   7.585   7.717   8.110  2.9866 -5.1217 -0.6485
  511MOL0     H68923   7.689   7.855   8.109 -0.6381 -0.9987  1.1868
  511MOL0     H68924   7.798   7.753   7.884 -4.0694 -1.6819 -3.6029
  511MOL0     H68925   7.699   7.613   7.927  1.1215 -0.2130 -1.6875
  511MOL0     H68926   7.903   7.727   8.118  0.1734  0.8898 -1.1032
  511MOL0     H68927   7.808   7.578   8.128  1.0688 -2.4612 -2.1480
  511MOL0     H68928   7.871   7.475   7.936 -1.8978  3.5317 -0.6136
  511MOL0     H68929   7.988   7.602   7.887  3.0586 -1.8107 -0.2672
  511MOL0     H68930   8.096   7.605   8.106  0.5928  0.7482 -2.3128
  511MOL0     H68931   8.023   7.441   8.144 -0.8756 -1.1308 -1.3270
  511MOL0     H68932   8.154   7.366   7.936 -1.9153 -0.1660 -0.1597
  511MOL0     H68933   8.241   7.424   8.080 -0.5451  0.8145 -0.2921
  511MOL0     H68934   8.182   7.619   7.867  1.5401  1.4409 -1.8777
  511MOL0     H68935   8.311   7.611   7.998  1.3450 -1.2704  0.2540
  511MOL0     H68936   8.528   7.507   7.970 -0.6163  0.9106 -0.5382
  511MOL0     H68937   8.715   7.346   7.651 -0.1983 -2.8747  0.6100
  511MOL0     H68938   8.761   7.465   7.776 -0.0104 -0.6111  1.1258
  511MOL0     H68939   8.830   7.228   7.830 -1.4859 -2.6029 -1.4341
  511MOL0     H68940   8.714   7.291   7.947  1.8166  4.6666 -1.0251
  511MOL0     H68941   8.665   7.135   7.685 -4.9982 -0.1342 -0.1903
  511MOL0     H68942   8.547   7.169   7.801  0.7410  2.1956  1.0284
  511MOL0     H68943   8.770   6.968   7.830 -1.6329 -0.9933  0.2649
  511MOL0     H68944   8.593   6.963   7.879  0.3905 -1.7928  1.0037
  511MOL0     H68945   8.442   7.116   7.978  1.1064  0.4230 -0.5530
  511MOL0     H68946   8.300   7.188   8.131 -0.0108 -0.4189  1.5850
  511MOL0     H68947   8.164   7.129   8.648  2.3602 -1.4215  0.6770
  511MOL0     H68948   8.033   7.261   8.812 -0.1696 -1.5146 -0.6788
  511MOL0     H68949   8.030   7.470   9.116  0.0090  0.2088  0.6199
  511MOL0     H68950   7.989   7.329   9.017 -1.5921  2.3657 -0.9623
  511MOL0     H68951   8.229   7.263   9.043  0.1537 -0.4010  0.7745
  511MOL0     H68952   8.264   7.409   9.122 -1.8912  1.5310 -1.0110
  511MOL0     H68953   8.268   7.227   9.275  1.9503  1.5896 -3.2657
  511MOL0     H68954   8.122   7.327   9.317 -0.3935 -0.8131  1.7861
  511MOL0     H68955   8.066   7.121   9.123  1.0704  0.0426 -0.6869
  511MOL0     H68956   7.968   7.168   9.254 -1.3098 -2.3321 -0.6051
  511MOL0     H68957   8.116   7.035   9.423 -1.0426  0.9630 -1.0349
  511MOL0     H68958   8.215   6.988   9.286  0.2611 -0.2739 -0.8729
  511MOL0     H68959   7.927   6.908   9.344 -0.6773 -3.2445 -0.2592
  511MOL0     H68960   8.013   6.895   9.182 -0.6641 -2.7568 -0.1102
  511MOL0     H68961   8.138   6.826   9.445  0.9830 -1.2200 -0.3543
  511MOL0     H68962   8.205   6.775   9.300  1.7448  1.7472  3.8778
  511MOL0     H68963   8.114   6.589   9.422  1.1167 -0.7672 -2.5048
  511MOL0     H68964   7.965   6.668   9.461  2.1836  3.2466  0.8714
  511MOL0     H68965   8.302   7.585   8.794  1.3002  0.0290  1.5163
  511MOL0     H68966   8.443   7.467   8.633  0.8226  1.1263  1.4747
  511MOL0     H68967   8.607   7.148   8.444  2.8933 -0.2852 -0.6809
  511MOL0     H68968   8.743   7.039   8.275  1.4801  1.7404 -3.3244
  511MOL0     H68969   7.299   7.557   7.883  2.8114  2.3309 -0.8659
  511MOL0     H68970   7.081   7.493   7.983  0.1696  0.4614 -0.5069
  511MOL0     H68971   6.764   7.764   8.295 -0.0213  1.0790  0.2326
  511MOL0     H68972   6.542   7.788   8.399  3.1636 -0.6097  3.6927
  511MOL0     H68973   6.384   7.762   8.512  2.2671  2.0708 -2.1724
  511MOL0     H68974   6.230   7.694   8.525 -2.5983  1.8926 -1.3741
  511MOL0     H68975   6.344   7.820   8.278 -0.4279 -3.5943  0.4808
  511MOL0     H68976   6.239   7.902   8.369  0.0672  0.6761 -1.9094
  511MOL0     H68977   6.086   7.858   8.212 -1.8355 -0.7809 -2.0664
  511MOL0     H68978   6.053   7.718   8.323 -0.5324 -1.4819 -2.5376
  511MOL0     H68979   6.060   7.699   8.064  0.1521 -4.2774 -1.3730
  511MOL0     H68980   6.233   7.706   8.069 -0.5273  0.1473 -0.3704
  511MOL0     H68981   6.162   7.319   8.215  2.3284  1.1081 -0.0943
  511MOL0     H68982   6.452   7.381   8.277 -0.9804  1.2984 -2.5167
  511MOL0     H68983   6.601   7.228   8.225 -1.5948 -1.6354 -2.5689
  511MOL0     H68984   6.638   7.311   8.071  1.0256  0.4011  0.8115
  511MOL0     H68985   6.769   7.271   8.181 -0.0779 -1.4197 -0.9624
  512MOL0     O68986   4.616   9.512  11.542  0.1820 -0.7391  0.6348
  512MOL0     C68987   4.583   9.441  11.445 -0.3839  0.4288  0.5182
  512MOL0     O68988   4.570   9.485  11.314 -0.4426 -0.4160  0.3801
  512MOL0     C68989   4.533   9.614  11.298  1.1153 -0.7321  0.2187
  512MOL0     C68990   4.542   9.655  11.157  0.3478  0.6087  0.1766
  512MOL0     C68991   4.515   9.788  11.121  0.3029 -0.7555 -0.1985
  512MOL0     C68992   4.479   9.883  11.222  0.2150  0.2999  0.7084
  512MOL0     O68993   4.443  10.011  11.209 -0.6800 -0.3306 -0.4908
  512MOL0     C68994   4.405  10.054  11.076  0.4741 -0.0404  0.5340
  512MOL0     C68995   4.339  10.192  11.090  0.6654  0.2481 -0.0046
  512MOL0     C68996   4.310  10.267  10.962 -0.3654  0.6208 -0.6561
  512MOL0     C68997   4.188  10.211  10.882 -0.5987  0.4567  0.1436
  512MOL0     C68998   4.140  10.323  10.789  0.2086  0.8522  0.1734
  512MOL0     C68999   4.010  10.289  10.714 -0.6148  0.9607  0.2721
  512MOL0     C69000   4.003  10.385  10.595 -0.3998 -0.1425 -0.4613
  512MOL0     C69001   3.865  10.407  10.544  0.2880 -0.2882  0.4688
  512MOL0     N69002   3.869  10.485  10.421 -0.5994  0.3314 -0.3916
  512MOL0     C69003   3.935  10.607  10.405  0.5381 -0.7469  0.2699
  512MOL0     C69004   3.926  10.623  10.268  0.7991  0.1646  0.4104
  512MOL0     C69005   3.977  10.734  10.187 -0.3049 -0.1543  0.7968
  512MOL0     C69006   4.064  10.670  10.084  0.2434  0.1781 -0.5972
  512MOL0     C69007   4.208  10.647  10.131  0.3027 -0.2585 -0.0381
  512MOL0     C69008   4.267  10.506  10.109  0.5447 -0.0335  0.0619
  512MOL0     O69009   4.160  10.411  10.136 -0.9391 -0.8031 -0.3608
  512MOL0     C69010   4.191  10.279  10.132 -1.4196  0.6730 -0.3798
  512MOL0     C69011   4.302  10.235  10.057 -0.6629  0.1013  0.3062
  512MOL0     C69012   4.335  10.096  10.067  0.6468  0.2665 -0.1229
  512MOL0     C69013   4.260  10.010  10.153  0.6678 -0.0191 -0.3347
  512MOL0     C69014   4.297   9.868  10.182 -0.3347 -0.2181  0.9322
  512MOL0     O69015   4.422   9.837  10.144 -0.5625 -0.4827 -0.2331
  512MOL0     C69016   4.466   9.703  10.143 -0.1365 -0.6392 -0.6369
  512MOL0     C69017   4.467   9.638  10.264  0.1256 -0.2189 -0.0845
  512MOL0     C69018   4.500   9.504  10.252 -0.8955 -0.1482  0.2020
  512MOL0     C69019   4.518   9.431  10.144  1.1703  0.1462  0.3946
  512MOL0     O69020   4.532   9.294  10.145 -0.0582 -0.1256  0.3511
  512MOL0     C69021   4.587   9.239  10.259  0.4689 -0.0093  0.6233
  512MOL0     C69022   4.649   9.097  10.223 -0.0702 -0.3018 -0.0599
  512MOL0     C69023   4.654   9.004  10.350  0.1674  0.1107  0.5959
  512MOL0     C69024   4.755   9.032  10.451  0.1713  0.4258  0.2224
  512MOL0     C69025   4.734   8.948  10.566 -0.3521 -0.0760 -0.5156
  512MOL0     C69026   4.845   8.974  10.675  0.1712 -0.4654 -0.0170
  512MOL0     C69027   4.807   8.898  10.800 -0.3684  0.2829 -0.0330
  512MOL0     C69028   4.934   8.871  10.889 -0.1759  0.1136 -0.5566
  512MOL0    Cl69029   5.037   9.014  10.875 -0.3355  0.3315 -0.3559
  512MOL0     C69030   4.499   9.495  10.023  0.1277  0.0487  0.1212
  512MOL0     C69031   4.488   9.633  10.020  0.5012  0.2201  0.0947
  512MOL0     O69032   4.209   9.792  10.211 -0.2120 -0.0772  0.8912
  512MOL0     C69033   4.141  10.053  10.226  0.2865 -0.5473  0.5994
  512MOL0     C69034   4.117  10.192  10.214 -0.4375 -0.7778  0.6416
  512MOL0     N69035   3.859  10.512  10.212 -0.5528 -0.7958 -0.0964
  512MOL0     N69036   3.829  10.430  10.305  0.1885 -0.4679  0.5847
  512MOL0     C69037   4.451   9.834  11.352  0.2439 -0.0928  0.0452
  512MOL0     C69038   4.478   9.704  11.391 -0.0427 -0.7377 -0.2992
  512MOL0     C69039   4.555   9.301  11.471 -0.0689  0.1737  0.2765
  512MOL0     C69040   4.443   9.246  11.405 -0.6673  0.7253  0.4234
  512MOL0     C69041   4.408   9.112  11.423  0.0059  0.4448 -0.8117
  512MOL0     C69042   4.463   9.037  11.519  0.1281  0.3486  1.0266
  512MOL0     O69043   4.419   8.915  11.542 -0.4098  0.3862 -0.3298
  512MOL0     C69044   4.466   8.836  11.652 -0.2325 -0.4865  0.0256
  512MOL0     C69045   4.452   8.692  11.632 -0.0021  1.1641  0.4703
  512MOL0     C69046   4.312   8.649  11.582  0.1826 -0.1008  0.0931
  512MOL0     C69047   4.313   8.510  11.518 -0.5592  0.3561 -0.1950
  512MOL0     C69048   4.387   8.404  11.592  0.6188  0.2541  0.3935
  512MOL0     C69049   4.441   8.309  11.648  0.1163  0.3404  0.5929
  512MOL0     C69050   4.583   9.084  11.575 -0.6810 -1.2045  0.5957
  512MOL0     C69051   4.626   9.226  11.563 -0.7990 -0.3954 -1.1982
  512MOL0     C69052   4.733   9.282  11.648 -0.1651 -0.4235 -0.4852
  512MOL0     H69053   4.565   9.570  11.092 -0.8555  3.0532 -3.7939
  512MOL0     H69054   4.539   9.818  11.019  1.0223 -3.0380 -0.7437
  512MOL0     H69055   4.499  10.063  11.021 -1.8707  0.2811 -3.9186
  512MOL0     H69056   4.340   9.986  11.019  3.1530 -2.5101  0.2119
  512MOL0     H69057   4.404  10.251  11.156 -0.4569  1.7300 -0.1612
  512MOL0     H69058   4.240  10.188  11.138 -0.6604 -0.0818 -2.5778
  512MOL0     H69059   4.395  10.256  10.895  0.2700  0.6088  0.1393
  512MOL0     H69060   4.296  10.369  10.998 -2.9283 -0.4884  1.9667
  512MOL0     H69061   4.219  10.114  10.840  0.5580  0.1019  1.7239
  512MOL0     H69062   4.109  10.194  10.956 -3.2602  3.7359 -1.7040
  512MOL0     H69063   4.115  10.404  10.859  1.0165 -2.7774  5.1959
  512MOL0     H69064   4.212  10.355  10.713 -0.4940  3.1264  0.3861
  512MOL0     H69065   4.024  10.192  10.665  3.6498  2.3200 -1.6520
  512MOL0     H69066   3.929  10.285  10.787  0.6073 -2.5414  1.6541
  512MOL0     H69067   4.063  10.357  10.508  0.7779 -0.0541  0.2976
  512MOL0     H69068   4.051  10.478  10.630  0.9149 -1.6101  1.9284
  512MOL0     H69069   3.820  10.309  10.525 -0.5918  0.0241  0.8316
  512MOL0     H69070   3.799  10.462  10.613  1.0108 -0.0710  1.0012
  512MOL0     H69071   3.972  10.668  10.487  0.5832 -2.7052  1.7649
  512MOL0     H69072   3.898  10.788  10.135  1.4791 -1.1994 -3.4346
  512MOL0     H69073   4.037  10.803  10.246 -1.1470 -0.8529  2.5413
  512MOL0     H69074   4.023  10.578  10.040 -2.6109  0.5584  0.9927
  512MOL0     H69075   4.059  10.739   9.999  0.5584  1.3668  0.3320
  512MOL0     H69076   4.204  10.660  10.239 -2.2263  3.0166 -0.3911
  512MOL0     H69077   4.281  10.720  10.095  0.4165  1.3369  3.1170
  512MOL0     H69078   4.340  10.486  10.188  0.2225 -1.2296  0.0732
  512MOL0     H69079   4.298  10.502  10.004  0.4991 -3.9614  0.0376
  512MOL0     H69080   4.354  10.295   9.984 -2.3503  0.5663 -0.5815
  512MOL0     H69081   4.412  10.045  10.011  0.9485  2.0356 -1.4003
  512MOL0     H69082   4.455   9.693  10.356 -0.3292 -1.2159  0.4679
  512MOL0     H69083   4.521   9.460  10.349  3.0897 -0.8845 -0.8481
  512MOL0     H69084   4.660   9.305  10.308  1.8809 -1.4153  0.4565
  512MOL0     H69085   4.503   9.218  10.326  1.9537 -2.0813  1.9644
  512MOL0     H69086   4.588   9.039  10.154  0.1690  0.4472 -0.9335
  512MOL0     H69087   4.744   9.108  10.169 -0.1011  0.6711  0.0527
  512MOL0     H69088   4.555   9.020  10.392 -1.3668 -0.0548 -2.6652
  512MOL0     H69089   4.664   8.899  10.320  0.4907  0.5202 -0.8104
  512MOL0     H69090   4.748   9.139  10.474  2.5129  0.8111 -0.5928
  512MOL0     H69091   4.852   9.003  10.411  0.3267  1.4770 -0.2006
  512MOL0     H69092   4.736   8.845  10.529  1.9610  0.6849 -2.8205
  512MOL0     H69093   4.643   8.970  10.623 -0.2064  0.4462 -0.4806
  512MOL0     H69094   4.940   8.933  10.639  1.4231  0.3807  2.1603
  512MOL0     H69095   4.850   9.081  10.697  0.3618 -0.8466  1.9224
  512MOL0     H69096   4.763   8.802  10.775 -2.2308  1.3651 -1.1155
  512MOL0     H69097   4.744   8.957  10.868  2.1090  4.8513 -1.2775
  512MOL0     H69098   4.905   8.859  10.994 -2.5750  2.6646 -0.8017
  512MOL0     H69099   4.988   8.783  10.854  0.2373 -0.6158  1.7988
  512MOL0     H69100   4.501   9.424   9.941 -0.7288  1.6608 -1.3554
  512MOL0     H69101   4.484   9.686   9.925 -0.1279  0.9808  0.5327
  512MOL0     H69102   4.077   9.991  10.287 -1.2020 -0.6091 -0.9623
  512MOL0     H69103   4.038  10.227  10.280  0.9844  1.0521  1.4745
  512MOL0     H69104   4.410   9.904  11.424 -1.2924 -1.7956  0.9022
  512MOL0     H69105   4.472   9.675  11.495 -0.7504 -2.1073 -0.6803
  512MOL0     H69106   4.392   9.300  11.326  0.3678 -0.5274 -1.1708
  512MOL0     H69107   4.337   9.080  11.347 -0.1942 -3.0865  0.6845
  512MOL0     H69108   4.406   8.861  11.741  1.5843  0.0730  1.1561
  512MOL0     H69109   4.574   8.849  11.666 -0.2081 -0.6266 -0.0379
  512MOL0     H69110   4.475   8.636  11.724 -0.0108 -0.1584 -0.3011
  512MOL0     H69111   4.530   8.661  11.562  3.2147  4.9797  2.0300
  512MOL0     H69112   4.267   8.715  11.507 -2.3542 -0.2905  1.3593
  512MOL0     H69113   4.255   8.631  11.674  0.9303 -1.5080  0.3070
  512MOL0     H69114   4.212   8.470  11.501 -0.4039  0.0877 -0.5139
  512MOL0     H69115   4.361   8.516  11.420  1.1541  2.9295  0.6892
  512MOL0     H69116   4.492   8.230  11.700 -2.8455 -3.0977 -1.2456
  512MOL0     H69117   4.659   9.041  11.639  1.8771  2.4097  0.2547
  512MOL0     H69118   4.803   9.350  11.598  1.2407  0.1716  2.1167
  512MOL0     H69119   4.684   9.327  11.735 -1.2725 -1.8863 -0.3051
  512MOL0     H69120   4.787   9.200  11.697 -1.3994 -0.4587  0.8739
  513MOL0     O69121   7.135   4.845   4.204  0.0311  0.0883 -0.0623
  513MOL0     C69122   7.180   4.948   4.151  0.2706 -0.4292  0.4253
  513MOL0     O69123   7.115   5.014   4.057  0.3709 -0.4823  0.0590
  513MOL0     C69124   6.985   4.994   4.022  0.4921 -1.1847  0.1226
  513MOL0     C69125   6.877   4.939   4.098 -0.0466 -0.2535 -0.4365
  513MOL0     C69126   6.749   4.934   4.032 -0.8308 -0.8038 -0.3308
  513MOL0     C69127   6.738   4.968   3.899 -0.2979  0.8507  0.0861
  513MOL0     O69128   6.616   4.947   3.846  0.1378 -0.3763  0.6969
  513MOL0     C69129   6.576   5.031   3.739  0.6913 -0.1356 -0.0551
  513MOL0     C69130   6.423   5.008   3.727 -0.4152 -0.6498 -0.2194
  513MOL0     C69131   6.355   5.034   3.595 -1.6034  0.3974 -0.8096
  513MOL0     C69132   6.379   5.181   3.557 -1.2435  0.6657  0.1068
  513MOL0     C69133   6.370   5.206   3.403 -0.2308 -1.0823  0.2630
  513MOL0     C69134   6.236   5.152   3.346 -0.5781 -0.4319  0.9535
  513MOL0     C69135   6.117   5.247   3.391  0.3838 -0.3224  0.3468
  513MOL0     C69136   5.987   5.199   3.324 -0.5677  0.0877  0.0834
  513MOL0     N69137   5.863   5.254   3.383  0.0783  0.0362 -0.1196
  513MOL0     C69138   5.797   5.213   3.494 -0.3536 -0.0999  0.5515
  513MOL0     C69139   5.681   5.281   3.487  0.6822  0.2394 -0.0414
  513MOL0     C69140   5.579   5.259   3.600  0.4104 -0.2540 -0.1762
  513MOL0     C69141   5.434   5.233   3.554  0.2562  0.8893  0.3419
  513MOL0     C69142   5.335   5.200   3.667 -0.4593 -0.7421  0.1389
  513MOL0     C69143   5.311   5.053   3.679 -0.2573 -0.0036  0.3413
  513MOL0     O69144   5.192   5.024   3.761  0.1741 -0.5640 -0.0796
  513MOL0     C69145   5.171   4.903   3.812 -0.3970 -0.5718  0.8038
  513MOL0     C69146   5.064   4.886   3.898  0.3751  0.8961  0.6182
  513MOL0     C69147   5.027   4.758   3.954 -1.0786 -0.6152 -0.6632
  513MOL0     C69148   5.106   4.645   3.934 -1.3790  0.1332  1.1243
  513MOL0     C69149   5.077   4.518   4.003  0.9842 -0.8996 -0.4950
  513MOL0     O69150   5.130   4.407   3.951 -0.5320 -0.2736 -0.1419
  513MOL0     C69151   5.149   4.293   4.024 -0.0604  0.6436 -0.7546
  513MOL0     C69152   5.150   4.285   4.168  0.9185  0.3059 -0.3363
  513MOL0     C69153   5.176   4.166   4.231  0.1948  0.4688  0.2109
  513MOL0     C69154   5.204   4.043   4.157  0.0788 -0.4508  0.0294
  513MOL0     O69155   5.235   3.933   4.229  0.5261  0.1481  0.1569
  513MOL0     C69156   5.127   3.878   4.311 -0.4864 -0.9900 -0.7528
  513MOL0     C69157   5.169   3.744   4.355 -0.4380  0.5607 -0.9977
  513MOL0     C69158   5.065   3.694   4.468 -0.0671  0.1594  0.8232
  513MOL0     C69159   5.117   3.581   4.557 -0.2444  0.1137 -0.1258
  513MOL0     C69160   5.009   3.539   4.650  0.4174 -0.8205  0.0993
  513MOL0     C69161   5.063   3.428   4.738 -1.1229  0.7739  0.5953
  513MOL0     C69162   5.154   3.481   4.843  0.0143  0.3847 -0.6823
  513MOL0     C69163   5.185   3.369   4.948 -0.1731 -0.9444 -0.0477
  513MOL0    Cl69164   5.031   3.318   5.020  0.2262 -0.2437 -0.0744
  513MOL0     C69165   5.205   4.054   4.018  0.7000  0.4360 -0.4669
  513MOL0     C69166   5.179   4.173   3.955 -0.5388 -0.3512 -0.7597
  513MOL0     O69167   4.992   4.517   4.102  0.4492 -1.1027  0.7039
  513MOL0     C69168   5.209   4.656   3.839 -0.4452 -0.3959  0.5032
  513MOL0     C69169   5.242   4.782   3.778  0.0389 -0.0869  0.0558
  513MOL0     N69170   5.671   5.368   3.386 -0.3251  0.8656 -0.2613
  513MOL0     N69171   5.784   5.350   3.324  0.2866  0.0431  0.0483
  513MOL0     C69172   6.845   5.023   3.828  0.6773  0.3038 -0.2900
  513MOL0     C69173   6.964   5.041   3.890  0.4422 -1.2473 -0.7879
  513MOL0     C69174   7.298   5.026   4.207 -0.5100  0.2100 -0.7620
  513MOL0     C69175   7.350   5.149   4.145 -0.0628  0.1803 -0.3215
  513MOL0     C69176   7.452   5.228   4.204 -1.4197  0.0988 -0.3262
  513MOL0     C69177   7.504   5.187   4.320  0.0862 -0.3238 -0.6524
  513MOL0     O69178   7.606   5.253   4.373 -0.4851 -1.6470  0.2389
  513MOL0     C69179   7.741   5.187   4.359  0.6109 -0.0145  0.3636
  513MOL0     C69180   7.805   5.211   4.227  0.8267  0.2602 -0.6086
  513MOL0     C69181   7.844   5.362   4.212  0.7154 -0.6071  0.5809
  513MOL0     C69182   7.967   5.405   4.309 -0.1139  0.3799 -0.8188
  513MOL0     C69183   8.080   5.317   4.316 -0.2290  0.4955  0.4659
  513MOL0     C69184   8.178   5.240   4.319 -0.8759  0.2029  0.6670
  513MOL0     C69185   7.460   5.063   4.380 -0.0777 -0.5374 -0.1786
  513MOL0     C69186   7.358   4.981   4.327  0.8300 -0.8224 -0.0297
  513MOL0     C69187   7.310   4.873   4.415  0.0018 -0.8817 -1.0894
  513MOL0     H69188   6.903   4.903   4.197  1.9617  1.4538 -0.2593
  513MOL0     H69189   6.654   4.899   4.069 -2.5850  0.3511 -3.3470
  513MOL0     H69190   6.596   5.138   3.753  1.9693  0.1342 -3.1329
  513MOL0     H69191   6.631   5.007   3.648 -0.1497 -0.6798 -0.4341
  513MOL0     H69192   6.369   5.053   3.811  0.3836 -2.5981  1.4352
  513MOL0     H69193   6.413   4.900   3.736  2.8244 -0.9847  0.8761
  513MOL0     H69194   6.246   5.025   3.590 -1.7997  1.8951  0.1879
  513MOL0     H69195   6.410   4.971   3.525  1.9293 -1.7165  3.3590
  513MOL0     H69196   6.297   5.238   3.601 -2.4538 -0.8698 -0.1144
  513MOL0     H69197   6.475   5.218   3.597 -0.3975 -0.5264 -0.7575
  513MOL0     H69198   6.376   5.314   3.389  0.5470 -1.1410  0.1143
  513MOL0     H69199   6.456   5.152   3.362  0.4170  0.7855 -0.9360
  513MOL0     H69200   6.243   5.154   3.237 -0.6535  0.9749  0.9498
  513MOL0     H69201   6.217   5.050   3.380  0.1192 -0.3761  1.5205
  513MOL0     H69202   6.131   5.349   3.355 -0.5438 -0.8207 -1.5753
  513MOL0     H69203   6.112   5.239   3.500  0.7530 -1.0952  0.3168
  513MOL0     H69204   5.993   5.236   3.221 -1.0667  1.8741  0.6649
  513MOL0     H69205   5.994   5.090   3.329  0.3623  0.1840  1.1687
  513MOL0     H69206   5.827   5.146   3.574  0.2890  0.0357  0.4277
  513MOL0     H69207   5.606   5.165   3.649 -1.2200 -0.5270  0.2551
  513MOL0     H69208   5.582   5.344   3.668  0.5859  1.3794 -2.1262
  513MOL0     H69209   5.394   5.324   3.507  0.8525  0.1710 -1.6783
  513MOL0     H69210   5.431   5.150   3.483  0.4823  0.4202  0.8721
  513MOL0     H69211   5.242   5.253   3.645 -0.6022 -1.5760 -1.3647
  513MOL0     H69212   5.374   5.246   3.759 -1.4737 -0.3403  0.3818
  513MOL0     H69213   5.401   5.018   3.729  2.4764  2.3243 -2.5948
  513MOL0     H69214   5.293   5.018   3.577 -2.1305 -1.1404  0.9980
  513MOL0     H69215   5.006   4.964   3.946  1.8454 -1.1073  6.5462
  513MOL0     H69216   4.948   4.758   4.028  1.8171  2.2951  2.7798
  513MOL0     H69217   5.139   4.372   4.232  1.1528  0.0349  0.0771
  513MOL0     H69218   5.172   4.169   4.339 -0.8754 -1.6884  0.2860
  513MOL0     H69219   5.117   3.953   4.390  1.7588  0.2555 -1.5284
  513MOL0     H69220   5.038   3.862   4.250 -0.6266 -3.2409 -0.0491
  513MOL0     H69221   5.182   3.674   4.272  3.2881  3.3008 -3.0603
  513MOL0     H69222   5.271   3.752   4.394 -0.5467 -0.7317 -0.4075
  513MOL0     H69223   5.048   3.781   4.532 -2.4873  0.5965 -0.3172
  513MOL0     H69224   4.969   3.667   4.424  0.1134 -1.7784  1.5328
  513MOL0     H69225   5.208   3.620   4.604  2.2900 -1.4826 -3.2546
  513MOL0     H69226   5.152   3.493   4.501  3.3623  0.3794  1.4253
  513MOL0     H69227   4.927   3.497   4.591 -0.4825 -0.7949  1.2700
  513MOL0     H69228   4.986   3.630   4.706  3.1479 -0.2530  0.4249
  513MOL0     H69229   4.974   3.370   4.762  1.4398 -3.7129  0.5310
  513MOL0     H69230   5.137   3.362   4.690 -0.2929  1.2624  1.1732
  513MOL0     H69231   5.093   3.551   4.902 -0.4032 -1.5144  1.2745
  513MOL0     H69232   5.250   3.524   4.814  0.8347 -1.3184 -0.5743
  513MOL0     H69233   5.245   3.289   4.904  4.1611  0.6317  2.3532
  513MOL0     H69234   5.242   3.411   5.032  1.2330 -2.4308 -0.1907
  513MOL0     H69235   5.237   3.972   3.955  0.9634 -1.2942  1.7731
  513MOL0     H69236   5.191   4.188   3.849  0.8878  4.1982 -0.1783
  513MOL0     H69237   5.282   4.582   3.810  1.7773  2.2387 -1.1727
  513MOL0     H69238   5.328   4.776   3.713  0.3903 -3.1353  0.6530
  513MOL0     H69239   6.838   5.062   3.727  4.2156 -0.0872 -0.8134
  513MOL0     H69240   7.046   5.092   3.841  0.0125  0.0090 -0.2541
  513MOL0     H69241   7.314   5.185   4.049 -1.6949  1.6818  0.7920
  513MOL0     H69242   7.492   5.318   4.160 -4.0310 -0.1127 -3.4922
  513MOL0     H69243   7.737   5.081   4.384 -0.5335 -0.2364 -0.6797
  513MOL0     H69244   7.817   5.225   4.428 -0.2234 -1.1549  1.9735
  513MOL0     H69245   7.749   5.181   4.138 -0.9017 -1.0164  0.8431
  513MOL0     H69246   7.893   5.147   4.232  2.2657  2.1285 -0.6338
  513MOL0     H69247   7.754   5.421   4.230  0.2174 -1.6461  1.6107
  513MOL0     H69248   7.873   5.390   4.110 -0.2896  1.2136  0.7627
  513MOL0     H69249   8.005   5.503   4.279 -2.2102  1.6883  0.5254
  513MOL0     H69250   7.934   5.418   4.412  0.0697  0.2531 -0.7426
  513MOL0     H69251   8.260   5.172   4.321  0.6482  1.9574  2.7503
  513MOL0     H69252   7.495   5.038   4.480 -0.5690 -2.2432 -0.3937
  513MOL0     H69253   7.382   4.867   4.497 -1.4468  0.6031  0.3906
  513MOL0     H69254   7.208   4.881   4.453  0.7043  1.3510  0.5415
  513MOL0     H69255   7.337   4.782   4.361  3.8044  2.4628 -5.6499
  514MOL0     O69256   5.562   3.929   8.836 -0.2840 -0.1276 -0.7102
  514MOL0     C69257   5.506   3.858   8.751  0.0207  0.1997 -0.3204
  514MOL0     O69258   5.561   3.843   8.624  0.3082  0.6118 -0.4292
  514MOL0     C69259   5.660   3.928   8.575  0.1832 -0.0054  0.0302
  514MOL0     C69260   5.725   3.878   8.459  1.9206 -0.7854  0.5052
  514MOL0     C69261   5.808   3.965   8.388  0.1235  0.0359  0.5350
  514MOL0     C69262   5.843   4.090   8.439 -0.4792 -0.6465 -0.3309
  514MOL0     O69263   5.926   4.160   8.347 -0.6751 -0.1445  0.5437
  514MOL0     C69264   5.945   4.303   8.378 -0.8159  0.1583  0.7568
  514MOL0     C69265   6.038   4.365   8.270  0.6662  0.4587  0.5783
  514MOL0     C69266   6.056   4.514   8.296 -0.7322  0.1923 -0.2217
  514MOL0     C69267   6.151   4.575   8.199 -0.1864 -0.4737 -0.3012
  514MOL0     C69268   6.147   4.730   8.205  0.0047 -0.0108 -0.9961
  514MOL0     C69269   6.260   4.796   8.125  0.6500  0.0335 -0.6413
  514MOL0     C69270   6.263   4.956   8.129 -0.1120  0.7940  0.1340
  514MOL0     C69271   6.136   5.014   8.080  0.4215  0.5156  0.3475
  514MOL0     N69272   6.103   4.955   7.947  0.4096  0.1954 -0.2735
  514MOL0     C69273   5.993   4.880   7.907 -0.6127 -0.5522 -0.2290
  514MOL0     C69274   5.983   4.889   7.775  0.5005 -0.5018 -1.2133
  514MOL0     C69275   5.914   4.786   7.685  0.8186 -0.0314  0.5323
  514MOL0     C69276   6.005   4.663   7.658 -0.9281 -1.8632  0.6945
  514MOL0     C69277   6.044   4.586   7.782  0.1135 -0.6384  0.3540
  514MOL0     C69278   5.935   4.485   7.832 -0.0709 -0.1112  0.9366
  514MOL0     O69279   5.902   4.387   7.740 -0.2688  0.0621 -0.1710
  514MOL0     C69280   5.843   4.277   7.787  0.4568  0.9414  0.8042
  514MOL0     C69281   5.810   4.252   7.926  0.0722 -0.0194  0.2334
  514MOL0     C69282   5.779   4.124   7.970  0.8016 -0.2708 -0.7632
  514MOL0     C69283   5.786   4.010   7.881  0.6428  0.1459 -0.2078
  514MOL0     C69284   5.738   3.872   7.922 -0.9474  0.3931 -0.1901
  514MOL0     O69285   5.729   3.767   7.838 -0.1174  1.4511  0.0357
  514MOL0     C69286   5.634   3.675   7.868 -0.3318  0.7144  0.3897
  514MOL0     C69287   5.656   3.578   7.974  0.6178 -0.1241 -0.6243
  514MOL0     C69288   5.565   3.474   7.984 -0.5451 -0.2472  0.1118
  514MOL0     C69289   5.449   3.462   7.917 -0.4730 -0.9602  1.2196
  514MOL0     O69290   5.367   3.357   7.928  0.2536 -0.2319 -0.1700
  514MOL0     C69291   5.221   3.379   7.905  0.2293 -0.1195 -0.2913
  514MOL0     C69292   5.137   3.261   7.972  0.6281  0.5488 -0.0668
  514MOL0     C69293   5.149   3.127   7.891  0.3466  0.1690 -0.1079
  514MOL0     C69294   5.026   3.043   7.923 -0.2746  0.2771  0.1038
  514MOL0     C69295   5.046   2.906   7.847 -0.1157 -0.5701 -0.2302
  514MOL0     C69296   4.922   2.842   7.781 -0.0454  0.5420  0.8298
  514MOL0     C69297   4.843   2.942   7.683 -0.6572  0.0194  0.7283
  514MOL0     C69298   4.698   2.901   7.657  0.1711 -0.9029 -0.0412
  514MOL0    Cl69299   4.608   2.908   7.816  0.0369  0.7761  0.0914
  514MOL0     C69300   5.420   3.566   7.824  1.0715 -0.2296  0.3394
  514MOL0     C69301   5.514   3.668   7.796 -0.6157 -0.4257 -0.2202
  514MOL0     O69302   5.720   3.868   8.038  0.1144 -0.0273  0.4676
  514MOL0     C69303   5.830   4.039   7.751  0.1255 -1.1227 -0.3162
  514MOL0     C69304   5.855   4.168   7.696  0.1623 -0.0558 -0.4153
  514MOL0     N69305   6.066   4.988   7.739  0.0218 -0.0144  0.0889
  514MOL0     N69306   6.148   5.023   7.839 -0.0868 -0.1271 -0.4716
  514MOL0     C69307   5.774   4.142   8.549  0.0058 -0.4108  0.1321
  514MOL0     C69308   5.694   4.057   8.617  0.3144 -0.6582 -0.9368
  514MOL0     C69309   5.390   3.773   8.785 -0.2152  1.1465  0.0928
  514MOL0     C69310   5.374   3.661   8.699  0.2764 -1.1444 -0.8080
  514MOL0     C69311   5.279   3.565   8.726  0.6640 -0.8538  0.6384
  514MOL0     C69312   5.184   3.576   8.831  0.1964  0.8397  1.3872
  514MOL0     O69313   5.098   3.477   8.869 -0.4568 -0.3477 -0.3109
  514MOL0     C69314   5.066   3.373   8.782  0.3869  0.6461 -0.0797
  514MOL0     C69315   4.968   3.275   8.849 -0.0407 -1.1083 -1.2363
  514MOL0     C69316   5.010   3.238   8.990  0.2850  0.6287 -1.4631
  514MOL0     C69317   5.164   3.222   9.019  0.5643 -0.6668  0.3637
  514MOL0     C69318   5.192   3.118   9.121 -1.2659 -1.0657 -0.4020
  514MOL0     C69319   5.210   3.044   9.219  1.0650  0.3301  0.0287
  514MOL0     C69320   5.201   3.677   8.914 -0.9822  0.4793  0.4690
  514MOL0     C69321   5.295   3.781   8.892  0.3832 -0.7825 -0.6955
  514MOL0     C69322   5.298   3.894   8.992  0.2862  0.9470 -0.2131
  514MOL0     H69323   5.675   3.794   8.411 -0.7191  1.4607 -0.9304
  514MOL0     H69324   5.845   3.916   8.299 -1.8486 -2.6724  1.0730
  514MOL0     H69325   5.849   4.355   8.387 -0.3472  2.2198 -3.5027
  514MOL0     H69326   5.990   4.317   8.477  0.8566  0.8090 -0.0614
  514MOL0     H69327   5.999   4.342   8.170  3.0794 -1.2435 -0.0535
  514MOL0     H69328   6.139   4.322   8.274  0.5630 -0.1651 -1.7118
  514MOL0     H69329   6.089   4.533   8.398 -3.3133 -1.0472  0.9388
  514MOL0     H69330   5.959   4.566   8.294 -1.1129 -0.4691  0.5808
  514MOL0     H69331   6.255   4.543   8.213  0.0230  0.6785  1.1011
  514MOL0     H69332   6.111   4.557   8.099 -2.9563  0.2215  0.5918
  514MOL0     H69333   6.061   4.765   8.147  0.3863 -0.9369 -2.1810
  514MOL0     H69334   6.154   4.760   8.310 -3.3077 -3.4062  0.4536
  514MOL0     H69335   6.359   4.768   8.162  0.1472 -1.6989 -0.5254
  514MOL0     H69336   6.268   4.763   8.021 -0.9848  4.1272 -2.2704
  514MOL0     H69337   6.340   5.013   8.075 -0.7077  2.0131  0.5460
  514MOL0     H69338   6.287   4.986   8.231 -0.5703  1.5069  0.0398
  514MOL0     H69339   6.063   4.973   8.150  1.3438 -1.6560  0.1167
  514MOL0     H69340   6.132   5.123   8.092 -0.0369  0.5052  0.3216
  514MOL0     H69341   5.950   4.797   7.962  0.5658 -1.7596 -1.0830
  514MOL0     H69342   5.819   4.750   7.726  0.4455  1.5094  1.0947
  514MOL0     H69343   5.884   4.834   7.592 -2.6724 -1.1770  0.9384
  514MOL0     H69344   5.940   4.597   7.600 -0.6802 -0.2041 -1.5764
  514MOL0     H69345   6.098   4.684   7.604 -2.8653 -1.6699 -2.8658
  514MOL0     H69346   6.070   4.653   7.865  0.5367 -1.2464  0.7169
  514MOL0     H69347   6.132   4.527   7.754  0.6757 -0.7574  2.2747
  514MOL0     H69348   5.842   4.531   7.868 -1.7896 -1.7094 -1.1953
  514MOL0     H69349   6.000   4.438   7.906  2.2518 -0.9737 -1.4984
  514MOL0     H69350   5.807   4.330   8.000 -0.4957  0.3202 -0.1409
  514MOL0     H69351   5.747   4.113   8.073 -1.0468 -0.2752 -1.3055
  514MOL0     H69352   5.742   3.591   8.039 -0.6829  3.7350  0.6573
  514MOL0     H69353   5.594   3.382   8.035  1.6604  0.4137  0.1220
  514MOL0     H69354   5.190   3.474   7.949 -3.3917 -1.3769  0.2245
  514MOL0     H69355   5.208   3.393   7.797 -1.2624 -4.7629 -0.9401
  514MOL0     H69356   5.178   3.252   8.074  0.7071 -0.1030 -0.1537
  514MOL0     H69357   5.030   3.282   7.970  0.2518 -1.2497 -0.0607
  514MOL0     H69358   5.161   3.145   7.784  5.2726  1.7014  0.4665
  514MOL0     H69359   5.239   3.076   7.926 -0.1756 -1.1125 -0.5637
  514MOL0     H69360   4.932   3.089   7.891 -1.2496 -2.4523 -1.3354
  514MOL0     H69361   5.019   3.022   8.031  1.5956  2.6920  0.7881
  514MOL0     H69362   5.092   2.831   7.911  0.0914 -0.8940 -0.7492
  514MOL0     H69363   5.124   2.923   7.772  1.3203 -0.5240  1.2377
  514MOL0     H69364   4.955   2.758   7.719  1.0142  0.1242  1.9436
  514MOL0     H69365   4.864   2.805   7.866  0.5829 -1.8090  0.3162
  514MOL0     H69366   4.899   2.960   7.590 -0.9048  1.8355  0.9100
  514MOL0     H69367   4.841   3.040   7.730  0.5224  0.3405  0.1386
  514MOL0     H69368   4.649   2.966   7.584 -1.7717 -3.1289 -0.8458
  514MOL0     H69369   4.696   2.805   7.604 -2.6055 -1.4683  0.9419
  514MOL0     H69370   5.329   3.568   7.764  0.9891 -4.1245  0.0361
  514MOL0     H69371   5.482   3.743   7.724  1.1450 -0.6825 -1.3464
  514MOL0     H69372   5.837   3.950   7.689  2.7803 -0.9218 -0.4090
  514MOL0     H69373   5.895   4.188   7.597  0.3955  4.5489  0.3849
  514MOL0     H69374   5.787   4.247   8.571 -0.9697 -0.6559  2.0424
  514MOL0     H69375   5.638   4.101   8.699 -0.1624 -0.7356 -1.2189
  514MOL0     H69376   5.452   3.635   8.628  1.1216  1.2263 -0.8534
  514MOL0     H69377   5.268   3.479   8.660  2.4697  0.3362 -1.3506
  514MOL0     H69378   5.155   3.325   8.740  0.6370  1.0075  0.0344
  514MOL0     H69379   5.024   3.414   8.689 -0.0309 -0.1511 -0.2540
  514MOL0     H69380   4.963   3.180   8.795 -0.1539 -1.3665 -0.7750
  514MOL0     H69381   4.866   3.314   8.864 -0.0605 -1.2461 -0.9997
  514MOL0     H69382   4.970   3.139   9.010  3.3939 -0.1347  2.2006
  514MOL0     H69383   4.969   3.302   9.068 -2.6930 -2.9428  0.1903
  514MOL0     H69384   5.211   3.188   8.926  0.7622  1.9265 -0.5583
  514MOL0     H69385   5.201   3.322   9.043 -0.9593  1.5515 -4.8952
  514MOL0     H69386   5.209   2.969   9.296 -2.8398 -0.8047 -0.9043
  514MOL0     H69387   5.122   3.672   8.989 -1.0837 -1.3742  0.2935
  514MOL0     H69388   5.241   3.855   9.077 -2.7847 -1.9697 -3.3035
  514MOL0     H69389   5.402   3.919   9.019  0.5929  0.7745 -1.2086
  514MOL0     H69390   5.250   3.987   8.959  0.9686  2.6728  3.1491
  515MOL0     O69391   9.353   9.791  11.174  0.9292 -0.3220  0.3662
  515MOL0     C69392   9.430   9.827  11.264  0.0937 -1.4836  0.0684
  515MOL0     O69393   9.405   9.848  11.402  0.5366 -0.1305 -0.3006
  515MOL0     C69394   9.279   9.876  11.442  0.6195 -1.2871  0.4685
  515MOL0     C69395   9.180   9.949  11.377 -1.4289 -0.1269 -0.2033
  515MOL0     C69396   9.053   9.967  11.411 -0.3256 -0.5429 -1.1244
  515MOL0     C69397   9.013   9.926  11.540  1.1579  0.3488  0.6261
  515MOL0     O69398   8.888   9.922  11.593 -0.6104  0.6144  0.1653
  515MOL0     C69399   8.783   9.888  11.504  0.4881  0.0028  0.7291
  515MOL0     C69400   8.646   9.936  11.565 -0.0362  0.5366  0.3898
  515MOL0     C69401   8.532   9.894  11.468  0.7600 -0.7774 -0.6954
  515MOL0     C69402   8.504   9.743  11.461  0.6434 -0.2403  0.2136
  515MOL0     C69403   8.419   9.713  11.333  0.3943  1.2158 -0.0940
  515MOL0     C69404   8.292   9.799  11.321 -0.6080  0.3365 -1.0620
  515MOL0     C69405   8.229   9.760  11.182  0.9703 -1.3103 -0.0481
  515MOL0     C69406   8.199   9.607  11.175  0.2198  0.3872 -0.5556
  515MOL0     N69407   8.094   9.569  11.080 -0.0701  0.3126  0.8878
  515MOL0     C69408   7.966   9.612  11.063  0.4185 -0.6718 -0.3233
  515MOL0     C69409   7.912   9.536  10.962  0.9066 -0.4601 -1.9404
  515MOL0     C69410   7.771   9.556  10.932 -0.0658 -0.4784 -0.9849
  515MOL0     C69411   7.759   9.570  10.782  0.1112  0.1898 -0.7392
  515MOL0     C69412   7.824   9.706  10.732 -0.5679  0.4468 -0.2250
  515MOL0     C69413   7.784   9.764  10.592  0.2061  0.3379 -0.0036
  515MOL0     O69414   7.810   9.908  10.575 -0.2468 -0.3017 -0.4338
  515MOL0     C69415   7.939   9.958  10.599 -0.2782 -0.8272  0.4652
  515MOL0     C69416   8.057   9.874  10.599  0.2693  0.6952  0.4123
  515MOL0     C69417   8.188   9.926  10.613  1.1799  0.6637 -0.5285
  515MOL0     C69418   8.206  10.071  10.628 -0.0694 -0.3058 -0.4276
  515MOL0     C69419   8.350  10.117  10.623 -0.4077 -0.5226  0.4455
  515MOL0     O69420   8.465  10.033  10.638 -0.4537  0.0203  0.1125
  515MOL0     C69421   8.593  10.084  10.631 -0.3515 -0.0800 -0.2663
  515MOL0     C69422   8.659  10.130  10.755 -0.2783 -0.3460 -0.0067
  515MOL0     C69423   8.789  10.179  10.748 -0.1264 -1.1903 -0.4502
  515MOL0     C69424   8.867  10.166  10.633 -0.2246  0.0152  0.1839
  515MOL0     O69425   9.001  10.181  10.624  0.0536 -0.1199 -0.4600
  515MOL0     C69426   9.037  10.313  10.614 -0.2136 -0.6959  0.1175
  515MOL0     C69427   9.192  10.332  10.592  0.2181 -0.4963 -0.9659
  515MOL0     C69428   9.226  10.342  10.445  0.0052 -0.7300 -0.2767
  515MOL0     C69429   9.152  10.258  10.333 -0.6868 -1.5671 -0.3828
  515MOL0     C69430   9.193  10.306  10.191 -0.1692 -0.0735 -0.5478
  515MOL0     C69431   9.140  10.207  10.083  0.0473 -0.9078  0.1246
  515MOL0     C69432   8.981  10.207  10.063  0.1980  0.5182 -0.8165
  515MOL0     C69433   8.931  10.314   9.969 -0.3651  0.0482 -0.5898
  515MOL0    Cl69434   8.874  10.454  10.055 -0.2553  0.2487  0.2621
  515MOL0     C69435   8.805  10.117  10.521 -0.2255 -0.4104  0.4114
  515MOL0     C69436   8.672  10.080  10.517 -0.1185 -0.3504  0.0733
  515MOL0     O69437   8.364  10.239  10.610  0.3676  0.4119  0.2499
  515MOL0     C69438   8.093  10.152  10.640 -0.2438 -0.5765 -0.6758
  515MOL0     C69439   7.961  10.096  10.629 -0.5089  0.3288 -0.1826
  515MOL0     N69440   8.008   9.449  10.909  0.2495 -0.5251 -0.0229
  515MOL0     N69441   8.120   9.476  10.977  0.8781  0.5691  0.5859
  515MOL0     C69442   9.112   9.863  11.620  0.9979 -0.1347 -0.1699
  515MOL0     C69443   9.244   9.837  11.578 -0.6319 -0.0249 -0.7393
  515MOL0     C69444   9.569   9.833  11.221 -0.7252 -0.4299  0.9318
  515MOL0     C69445   9.630   9.717  11.170  0.0249  1.1667  0.4488
  515MOL0     C69446   9.763   9.703  11.131  0.4713  0.6117  0.2240
  515MOL0     C69447   9.848   9.819  11.141  0.1961 -0.0377 -0.3502
  515MOL0     O69448   9.984   9.813  11.129  0.2977 -0.5612  0.9260
  515MOL0     C69449  10.059   9.688  11.094 -0.4156  0.7423  0.2088
  515MOL0     C69450  10.091   9.608  11.224  1.0817  0.5490  0.4078
  515MOL0     C69451  10.204   9.501  11.186  0.4960  0.4415 -0.4575
  515MOL0     C69452  10.259   9.408  11.296  0.4199 -0.3939  0.6659
  515MOL0     C69453  10.315   9.488  11.407  0.0380 -0.4385  0.1991
  515MOL0     C69454  10.349   9.570  11.489  1.3341 -0.6004  1.1053
  515MOL0     C69455   9.790   9.938  11.201 -0.0591 -0.4305 -0.4031
  515MOL0     C69456   9.658   9.942  11.243  0.6343  0.1698  0.7346
  515MOL0     C69457   9.615  10.068  11.312  0.0441 -0.0488  0.2444
  515MOL0     H69458   9.205   9.994  11.281 -3.2133  1.9693  0.2445
  515MOL0     H69459   8.983  10.002  11.335 -0.5574  1.6407  0.0085
  515MOL0     H69460   8.798   9.923  11.402 -0.2233 -1.0307  0.2526
  515MOL0     H69461   8.784   9.779  11.493  1.2093 -0.0354  1.1284
  515MOL0     H69462   8.660  10.044  11.572 -0.3195  0.6334 -0.4476
  515MOL0     H69463   8.630   9.879  11.657 -2.3879 -0.8336 -0.7525
  515MOL0     H69464   8.556   9.937  11.370  0.8531 -0.6636 -0.6243
  515MOL0     H69465   8.439   9.948  11.489  1.2282  1.5570 -3.8150
  515MOL0     H69466   8.599   9.690  11.448  0.2740 -0.4208 -2.1305
  515MOL0     H69467   8.453   9.693  11.544 -1.5282 -1.6274 -1.8388
  515MOL0     H69468   8.479   9.727  11.243  2.5223 -2.8126  0.4313
  515MOL0     H69469   8.401   9.607  11.354  1.6275  0.9865 -0.1100
  515MOL0     H69470   8.222   9.777  11.401 -1.1164 -1.0933 -1.8550
  515MOL0     H69471   8.313   9.906  11.326 -1.7666  0.5213  2.9231
  515MOL0     H69472   8.295   9.779  11.098  0.1505  0.8655 -0.2566
  515MOL0     H69473   8.137   9.814  11.156 -0.8671 -4.9632 -1.8916
  515MOL0     H69474   8.291   9.555  11.146 -0.5474 -1.5281  0.3039
  515MOL0     H69475   8.174   9.573  11.275  0.8538  2.2148  0.2696
  515MOL0     H69476   7.920   9.685  11.129  1.5437 -1.7909  1.8072
  515MOL0     H69477   7.725   9.463  10.967  0.5513 -2.3235 -4.6151
  515MOL0     H69478   7.723   9.628  10.999 -0.5663 -1.7705  0.0703
  515MOL0     H69479   7.811   9.489  10.730 -2.1396 -2.2410  0.5805
  515MOL0     H69480   7.653   9.566  10.755 -1.0837 -1.0532  3.3884
  515MOL0     H69481   7.932   9.692  10.744  0.0319  3.4492 -1.2758
  515MOL0     H69482   7.807   9.787  10.803 -0.6678  0.6430 -0.4710
  515MOL0     H69483   7.680   9.736  10.571  1.5412 -3.7614 -2.4019
  515MOL0     H69484   7.831   9.691  10.525  0.5220 -0.3856  0.9602
  515MOL0     H69485   8.037   9.771  10.569 -0.5431  1.3391 -1.4084
  515MOL0     H69486   8.260   9.845  10.618  0.5803  0.1731  0.3459
  515MOL0     H69487   8.596  10.153  10.840 -1.3561  0.2981 -0.9529
  515MOL0     H69488   8.841  10.232  10.827  3.0618 -1.3951 -2.2368
  515MOL0     H69489   8.974  10.366  10.542 -1.2551  0.9317  2.1194
  515MOL0     H69490   9.008  10.359  10.709 -0.2221  1.5744 -0.9105
  515MOL0     H69491   9.222  10.424  10.643  1.1778 -0.7310 -1.0827
  515MOL0     H69492   9.247  10.256  10.650 -1.1656 -0.6131  0.2675
  515MOL0     H69493   9.215  10.448  10.423  0.9950 -0.3477  0.9525
  515MOL0     H69494   9.333  10.327  10.430  0.3336  0.7899  0.4001
  515MOL0     H69495   9.045  10.279  10.336 -0.2087  1.3019 -0.5311
  515MOL0     H69496   9.183  10.155  10.350  1.5364 -1.0699 -1.0394
  515MOL0     H69497   9.302  10.299  10.189 -0.1210 -1.4150  2.0777
  515MOL0     H69498   9.161  10.408  10.169  2.8353  1.2555  0.6670
  515MOL0     H69499   9.191  10.225   9.988 -0.0733  0.3000  0.2798
  515MOL0     H69500   9.189  10.113  10.113  4.8538  1.7515  1.6819
  515MOL0     H69501   8.925  10.210  10.157 -0.9267  0.1944 -1.4637
  515MOL0     H69502   8.974  10.107  10.019 -1.9494 -0.3855  1.3547
  515MOL0     H69503   9.008  10.351   9.900  1.8920  1.9241  2.6831
  515MOL0     H69504   8.845  10.276   9.912 -1.0517  0.8380 -0.0993
  515MOL0     H69505   8.876  10.091  10.443  2.6178 -0.9558  2.9766
  515MOL0     H69506   8.617  10.050  10.429  0.2276  0.9151 -0.5880
  515MOL0     H69507   8.107  10.258  10.657  0.1769 -0.8406  0.7640
  515MOL0     H69508   7.878  10.164  10.644 -1.6692 -1.5628  2.8218
  515MOL0     H69509   9.076   9.825  11.714 -2.4587 -0.2759 -1.4221
  515MOL0     H69510   9.317   9.792  11.644 -0.0739 -1.5576 -2.3504
  515MOL0     H69511   9.563   9.632  11.168 -2.7405  3.1863  1.6026
  515MOL0     H69512   9.791   9.606  11.093  0.7284  1.4285 -1.8016
  515MOL0     H69513  10.154   9.723  11.053 -0.9138  0.4076 -1.2982
  515MOL0     H69514  10.019   9.634  11.007  2.4834 -1.6490  0.2247
  515MOL0     H69515  10.009   9.549  11.266 -2.9019  3.1833 -2.8026
  515MOL0     H69516  10.121   9.682  11.300  0.0895  3.0000 -1.4520
  515MOL0     H69517  10.286   9.545  11.129 -1.1481  2.2456 -1.5373
  515MOL0     H69518  10.157   9.428  11.120  0.9288  1.0338 -1.4384
  515MOL0     H69519  10.188   9.326  11.313 -0.4380 -0.4729 -2.6401
  515MOL0     H69520  10.349   9.357  11.260  2.3125  1.4465  2.4771
  515MOL0     H69521  10.375   9.631  11.573 -0.4201  0.6831  0.7796
  515MOL0     H69522   9.859  10.018  11.227 -3.6923  2.3237  1.6573
  515MOL0     H69523   9.650  10.065  11.416  0.0439 -0.4477  0.2357
  515MOL0     H69524   9.653  10.150  11.251 -1.2143 -0.2313 -0.8374
  515MOL0     H69525   9.507  10.080  11.322 -0.0865 -0.6099 -0.4213
  516MOL0     O69526   7.097   3.585   9.392  0.8896  0.2857 -0.6585
  516MOL0     C69527   7.107   3.466   9.415 -0.0414 -0.3580 -1.2985
  516MOL0     O69528   7.202   3.388   9.364  0.2016  0.4540  0.6868
  516MOL0     C69529   7.268   3.423   9.245 -0.3729  1.3677 -2.1503
  516MOL0     C69530   7.391   3.482   9.258 -0.1226  0.3806  0.0724
  516MOL0     C69531   7.474   3.505   9.142  0.0399  0.1128  0.8790
  516MOL0     C69532   7.425   3.471   9.015 -0.2015 -0.1160 -0.9241
  516MOL0     O69533   7.512   3.511   8.914 -0.0703 -0.8328  0.3045
  516MOL0     C69534   7.529   3.408   8.825  0.0277 -0.8075  0.7519
  516MOL0     C69535   7.592   3.464   8.695  0.5506  0.0169  0.0762
  516MOL0     C69536   7.622   3.354   8.589 -0.0114 -0.3308 -0.2346
  516MOL0     C69537   7.504   3.338   8.484 -0.0849  0.7178 -0.2746
  516MOL0     C69538   7.544   3.248   8.368  0.1240  0.3180 -0.3849
  516MOL0     C69539   7.535   3.091   8.375  0.2563 -0.2423  0.1346
  516MOL0     C69540   7.579   3.018   8.249  0.2317 -0.1885  0.9877
  516MOL0     C69541   7.477   3.044   8.130 -0.9954 -0.5713  0.0661
  516MOL0     N69542   7.528   3.012   7.996 -0.5100 -0.2384 -0.2525
  516MOL0     C69543   7.557   2.894   7.934  0.1437  0.9889 -0.1758
  516MOL0     C69544   7.586   2.915   7.807  1.1354  0.0739 -0.2104
  516MOL0     C69545   7.612   2.812   7.704  0.4086  0.1915  0.0341
  516MOL0     C69546   7.751   2.734   7.711  0.7298  0.3403 -0.1681
  516MOL0     C69547   7.854   2.804   7.806  0.2821 -0.1170 -0.4244
  516MOL0     C69548   7.973   2.712   7.825 -0.0835  0.4757 -0.2924
  516MOL0     O69549   7.946   2.610   7.922  0.6878  0.0422  1.2503
  516MOL0     C69550   7.924   2.668   8.042  0.3841  0.4058 -0.7248
  516MOL0     C69551   7.795   2.645   8.102 -0.7236 -0.3612  0.2056
  516MOL0     C69552   7.762   2.701   8.225  0.2869 -0.1944 -0.0381
  516MOL0     C69553   7.862   2.767   8.293  0.5606 -0.1587  0.4001
  516MOL0     C69554   7.828   2.823   8.427 -0.2390 -0.2468  0.3500
  516MOL0     O69555   7.717   2.792   8.492  0.4395 -0.5505  1.2363
  516MOL0     C69556   7.669   2.846   8.612 -0.2562  0.2851 -0.8532
  516MOL0     C69557   7.748   2.882   8.723 -0.0790  0.0411  0.0707
  516MOL0     C69558   7.687   2.945   8.833  0.1660  0.4016 -0.4897
  516MOL0     C69559   7.552   2.967   8.834 -0.4769 -1.0193 -0.0756
  516MOL0     O69560   7.488   3.039   8.939 -0.0719  1.1629 -0.0511
  516MOL0     C69561   7.495   2.987   9.068  0.7082  1.1700 -0.6196
  516MOL0     C69562   7.382   3.041   9.158  0.0563 -0.3593  1.2376
  516MOL0     C69563   7.416   3.010   9.302 -0.2209 -0.1162 -0.7881
  516MOL0     C69564   7.483   3.122   9.383  0.7983 -0.0331 -0.8668
  516MOL0     C69565   7.413   3.174   9.512 -0.9832 -0.2907 -0.1999
  516MOL0     C69566   7.517   3.256   9.589  0.0242  0.2334  0.0934
  516MOL0     C69567   7.452   3.327   9.704 -0.3492 -0.4584 -1.0552
  516MOL0     C69568   7.398   3.460   9.662 -0.3134  0.7170  0.0813
  516MOL0    Cl69569   7.505   3.602   9.661 -0.2826 -0.0544  0.1525
  516MOL0     C69570   7.473   2.920   8.730 -0.1953 -0.1120  0.1125
  516MOL0     C69571   7.531   2.863   8.622  0.3751  0.2976 -0.1968
  516MOL0     O69572   7.906   2.901   8.477 -0.8573  0.8060 -0.1177
  516MOL0     C69573   7.981   2.789   8.229  0.1338  0.1732 -0.4453
  516MOL0     C69574   8.018   2.740   8.110  0.2425  0.6342  0.0942
  516MOL0     N69575   7.591   3.054   7.794  0.6700 -0.1019  0.2717
  516MOL0     N69576   7.568   3.107   7.908 -0.1954  0.2349 -0.3724
  516MOL0     C69577   7.300   3.411   9.006  0.1627 -0.2135 -0.8509
  516MOL0     C69578   7.226   3.387   9.117 -0.3183  0.5555 -1.0015
  516MOL0     C69579   7.015   3.388   9.500 -1.1533 -0.0199  0.2196
  516MOL0     C69580   7.006   3.239   9.488  0.1268  0.7760  0.1236
  516MOL0     C69581   6.921   3.161   9.566 -0.1092  0.8112 -0.2733
  516MOL0     C69582   6.856   3.210   9.672  0.6275 -0.2724 -0.4569
  516MOL0     O69583   6.758   3.143   9.751 -0.1468 -0.2845  0.8984
  516MOL0     C69584   6.724   3.001   9.747 -0.5920  0.3104 -0.0966
  516MOL0     C69585   6.840   2.911   9.799 -0.0178  0.8695 -0.3642
  516MOL0     C69586   6.853   2.785   9.720 -0.2938 -1.3111 -0.1152
  516MOL0     C69587   6.726   2.700   9.696 -0.1922 -0.6718 -0.1117
  516MOL0     C69588   6.746   2.601   9.592  0.8301 -0.1911 -0.2985
  516MOL0     C69589   6.760   2.526   9.501 -0.1873 -0.1228  0.0547
  516MOL0     C69590   6.858   3.345   9.681  0.5490 -0.2290 -0.0064
  516MOL0     C69591   6.931   3.436   9.600  0.6030 -0.9214 -0.3453
  516MOL0     C69592   6.912   3.576   9.642 -0.6018 -0.9914  0.0972
  516MOL0     H69593   7.416   3.522   9.355 -0.3462 -1.1721  0.7978
  516MOL0     H69594   7.578   3.533   9.154  0.7654 -2.3343  0.8222
  516MOL0     H69595   7.580   3.320   8.866  0.1958 -0.3746  1.4876
  516MOL0     H69596   7.434   3.369   8.788 -0.8330  0.6455  1.3594
  516MOL0     H69597   7.683   3.523   8.714  0.4361  1.5409 -3.3646
  516MOL0     H69598   7.513   3.529   8.655 -0.2258 -1.5589 -1.0257
  516MOL0     H69599   7.625   3.268   8.657  0.9190  1.0115  1.5059
  516MOL0     H69600   7.717   3.360   8.535 -0.3201 -1.6569 -0.9887
  516MOL0     H69601   7.410   3.288   8.511  0.0188  0.0444 -1.1256
  516MOL0     H69602   7.474   3.439   8.453  2.5473  1.8225  0.5195
  516MOL0     H69603   7.491   3.282   8.279 -1.7298 -0.4023  0.4025
  516MOL0     H69604   7.649   3.268   8.342  0.1844  0.0681 -0.3386
  516MOL0     H69605   7.602   3.056   8.454 -1.5953  0.1816  2.0135
  516MOL0     H69606   7.439   3.051   8.408  0.1434 -2.0338 -2.1147
  516MOL0     H69607   7.577   2.911   8.273  1.2746 -0.3949  0.1940
  516MOL0     H69608   7.680   3.043   8.218 -0.4532  0.2230 -1.0859
  516MOL0     H69609   7.385   2.987   8.144 -2.0882  0.3433 -2.7303
  516MOL0     H69610   7.466   3.153   8.133  3.4243  0.0373  0.1290
  516MOL0     H69611   7.554   2.796   7.981  0.1449  1.7197  1.4046
  516MOL0     H69612   7.537   2.732   7.706  0.3909  0.1878 -0.6665
  516MOL0     H69613   7.613   2.859   7.606  0.9114 -1.5972 -0.8613
  516MOL0     H69614   7.734   2.633   7.749  3.7082 -0.4483 -0.6570
  516MOL0     H69615   7.795   2.713   7.613  0.5774  2.6532 -0.8049
  516MOL0     H69616   7.813   2.831   7.903  0.9103 -1.1919  0.1547
  516MOL0     H69617   7.884   2.896   7.756 -0.5551 -0.2063 -1.1230
  516MOL0     H69618   8.061   2.771   7.851 -0.6251 -0.1330  3.5121
  516MOL0     H69619   7.995   2.658   7.732 -2.3143 -2.4724  0.7643
  516MOL0     H69620   7.710   2.596   8.056 -0.1102 -1.7635  0.4969
  516MOL0     H69621   7.661   2.709   8.261  0.5767 -1.1375  1.0037
  516MOL0     H69622   7.852   2.855   8.733  0.3571  0.0497 -3.2369
  516MOL0     H69623   7.742   2.985   8.917 -0.1650 -0.8131  0.3252
  516MOL0     H69624   7.494   2.877   9.064  2.6202  1.1244 -0.9121
  516MOL0     H69625   7.588   3.015   9.118  0.7432 -0.2654  0.1907
  516MOL0     H69626   7.369   3.148   9.136  1.7381 -0.3145  0.2794
  516MOL0     H69627   7.298   2.973   9.142  1.6509 -2.7415  2.4175
  516MOL0     H69628   7.331   2.985   9.365 -0.4196  2.7170  0.2384
  516MOL0     H69629   7.481   2.923   9.306  0.3850  0.3695  0.1130
  516MOL0     H69630   7.498   3.205   9.313  1.5396 -0.0428 -0.7283
  516MOL0     H69631   7.586   3.092   9.405 -0.4563 -2.0321  3.0911
  516MOL0     H69632   7.395   3.087   9.576  0.5126 -0.0344  0.6222
  516MOL0     H69633   7.321   3.229   9.491  1.1093  2.3645 -3.4506
  516MOL0     H69634   7.588   3.184   9.630 -2.1902 -1.7038  0.7092
  516MOL0     H69635   7.572   3.330   9.530 -1.3065  1.0629 -0.1644
  516MOL0     H69636   7.526   3.356   9.779  1.0009 -0.1894 -2.4398
  516MOL0     H69637   7.376   3.272   9.761  2.1954  0.0709  3.2760
  516MOL0     H69638   7.349   3.444   9.566 -1.2694  2.9696  0.1332
  516MOL0     H69639   7.311   3.477   9.726 -1.9652  1.7076 -2.2859
  516MOL0     H69640   7.368   2.941   8.747 -0.9487 -2.6089 -0.9158
  516MOL0     H69641   7.478   2.847   8.528 -1.7355 -1.4055  1.1956
  516MOL0     H69642   8.043   2.852   8.292 -0.2763  1.0204 -0.8794
  516MOL0     H69643   8.118   2.762   8.076  0.3447 -1.8759 -1.4804
  516MOL0     H69644   7.273   3.377   8.906 -1.1501 -0.2749 -0.5037
  516MOL0     H69645   7.124   3.349   9.109 -0.3302 -0.0410  1.4466
  516MOL0     H69646   7.065   3.181   9.418  1.4008  0.3741  1.4642
  516MOL0     H69647   6.911   3.060   9.529  4.2436 -0.4530  1.4195
  516MOL0     H69648   6.694   2.979   9.644 -2.0181 -3.0013  0.9023
  516MOL0     H69649   6.636   2.986   9.810 -1.4999 -1.7259 -1.7533
  516MOL0     H69650   6.821   2.885   9.904 -0.9985  0.0634 -0.7252
  516MOL0     H69651   6.938   2.959   9.789  0.5099  0.2903  1.4618
  516MOL0     H69652   6.926   2.718   9.766  0.1858 -1.1815 -0.6699
  516MOL0     H69653   6.898   2.811   9.623 -0.7954 -2.7088 -0.7533
  516MOL0     H69654   6.691   2.655   9.789  0.7066  2.4660  1.9193
  516MOL0     H69655   6.642   2.767   9.677  0.1601 -0.0271  0.5459
  516MOL0     H69656   6.795   2.461   9.424  1.7699  0.3169  0.5305
  516MOL0     H69657   6.781   3.380   9.748 -2.1228 -5.2273  0.0363
  516MOL0     H69658   6.834   3.584   9.719  1.5138  2.9623  2.1036
  516MOL0     H69659   7.000   3.629   9.678 -1.8252  2.6311 -1.8164
  516MOL0     H69660   6.886   3.634   9.553 -2.3221  1.6860  2.2011
  517MOL0     O69661   3.140   9.270   5.464  0.4984 -0.4635 -0.3361
  517MOL0     C69662   3.095   9.159   5.426  0.7377  0.1781  0.6613
  517MOL0     O69663   3.160   9.044   5.429 -0.0720  1.1309 -0.3456
  517MOL0     C69664   3.292   9.052   5.407 -0.5852 -0.3219 -1.0672
  517MOL0     C69665   3.360   9.059   5.282 -0.5608 -0.7780  1.2795
  517MOL0     C69666   3.498   9.061   5.260  0.1195 -0.1973  0.0704
  517MOL0     C69667   3.574   9.043   5.373 -0.1994  0.2504 -0.3225
  517MOL0     O69668   3.706   9.048   5.361  0.3826 -0.1807 -0.5569
  517MOL0     C69669   3.769   9.170   5.419 -1.1940 -0.5167 -0.5223
  517MOL0     C69670   3.911   9.123   5.456  0.4699  0.8347  0.2888
  517MOL0     C69671   3.990   9.084   5.331 -0.4477  0.3010 -0.3639
  517MOL0     C69672   4.133   9.035   5.372  0.6881  0.0888 -0.8841
  517MOL0     C69673   4.205   8.997   5.246 -1.4030 -0.0583 -1.2131
  517MOL0     C69674   4.344   8.938   5.273 -1.2820 -1.2388 -0.0962
  517MOL0     C69675   4.442   8.900   5.151  0.1243 -0.4964 -1.0434
  517MOL0     C69676   4.467   8.998   5.029  0.6932  0.2701 -0.4674
  517MOL0     N69677   4.555   8.939   4.925 -0.8225  0.0158 -0.1429
  517MOL0     C69678   4.669   8.862   4.957 -0.3942 -0.3525 -0.2685
  517MOL0     C69679   4.714   8.819   4.834  0.1285 -0.5028  0.0695
  517MOL0     C69680   4.821   8.727   4.788 -1.0188  0.8457 -0.3077
  517MOL0     C69681   4.818   8.585   4.849  0.8109 -0.7196 -0.1706
  517MOL0     C69682   4.956   8.528   4.863 -0.2134 -0.5491  0.1428
  517MOL0     C69683   4.995   8.475   4.725  0.1696  0.1189 -0.6573
  517MOL0     O69684   5.113   8.392   4.741 -0.0664  1.0312 -0.0421
  517MOL0     C69685   5.165   8.332   4.629  0.1010 -0.1879  0.5492
  517MOL0     C69686   5.242   8.223   4.656 -0.9597  0.9384  0.1633
  517MOL0     C69687   5.308   8.155   4.555  0.1357 -0.6168  0.5706
  517MOL0     C69688   5.314   8.193   4.427  0.4586 -0.5877 -0.0173
  517MOL0     C69689   5.385   8.119   4.322 -0.6326 -1.3393  0.2043
  517MOL0     O69690   5.466   8.025   4.376 -0.1831 -0.0061  0.0068
  517MOL0     C69691   5.517   7.917   4.306  0.2084 -0.5051 -0.0147
  517MOL0     C69692   5.661   7.910   4.290 -0.0039 -0.8827  0.4436
  517MOL0     C69693   5.716   7.806   4.210 -0.3546 -0.2829 -0.7235
  517MOL0     C69694   5.636   7.696   4.171  0.6108 -0.3572 -1.2280
  517MOL0     O69695   5.672   7.582   4.112 -0.0563 -0.2146 -0.2233
  517MOL0     C69696   5.782   7.595   4.009  0.1723 -0.2186 -0.7133
  517MOL0     C69697   5.789   7.464   3.943 -0.7360 -0.3890 -0.2913
  517MOL0     C69698   5.871   7.468   3.810  0.0240  0.4710  0.7759
  517MOL0     C69699   6.014   7.450   3.842  0.1603  0.7921  0.0400
  517MOL0     C69700   6.103   7.506   3.729  0.7020  0.0082 -0.3601
  517MOL0     C69701   6.234   7.531   3.776 -0.5578  0.3698 -1.8551
  517MOL0     C69702   6.328   7.582   3.669  0.5979  1.8681 -0.2728
  517MOL0     C69703   6.390   7.715   3.703 -0.3542 -0.1068  0.5054
  517MOL0    Cl69704   6.281   7.854   3.716  0.5362 -0.0264  0.2316
  517MOL0     C69705   5.499   7.715   4.178  0.0012  0.8224 -0.3018
  517MOL0     C69706   5.441   7.829   4.237 -0.0140  0.7635 -0.3944
  517MOL0     O69707   5.360   8.146   4.200 -0.6164  0.0532  0.3116
  517MOL0     C69708   5.236   8.311   4.400  0.6338 -0.0547 -0.6203
  517MOL0     C69709   5.164   8.376   4.503  0.3697 -0.5507  1.5038
  517MOL0     N69710   4.627   8.874   4.736  0.0531 -1.0523 -0.9641
  517MOL0     N69711   4.539   8.947   4.787 -0.2055  0.7183  0.5385
  517MOL0     C69712   3.515   9.038   5.497 -0.1933 -1.0986 -0.6295
  517MOL0     C69713   3.376   9.046   5.520  0.2218  1.5649 -0.8732
  517MOL0     C69714   2.951   9.162   5.358 -0.0145 -0.7686  0.3563
  517MOL0     C69715   2.908   9.058   5.277  0.5334  0.8590  0.8274
  517MOL0     C69716   2.796   9.075   5.196 -0.1814 -1.0350  0.3103
  517MOL0     C69717   2.716   9.185   5.195  0.1446 -0.0346  0.9404
  517MOL0     O69718   2.595   9.188   5.132 -0.3112  0.0965 -0.6042
  517MOL0     C69719   2.603   9.211   4.999 -0.0932  0.5864 -0.5268
  517MOL0     C69720   2.466   9.160   4.944  1.4510 -0.4646 -0.1102
  517MOL0     C69721   2.428   9.220   4.811  0.7757  0.5622 -1.0379
  517MOL0     C69722   2.535   9.184   4.707  0.3925 -0.2461 -0.6275
  517MOL0     C69723   2.484   9.205   4.567 -0.5772 -0.2315 -0.8766
  517MOL0     C69724   2.444   9.224   4.456 -0.8923 -0.1924  0.7173
  517MOL0     C69725   2.751   9.285   5.280  0.1675  0.0579 -0.6579
  517MOL0     C69726   2.869   9.282   5.364 -0.1680  0.2015  0.1810
  517MOL0     C69727   2.905   9.398   5.452  0.0490 -0.2933 -0.2532
  517MOL0     H69728   3.294   9.051   5.196 -0.4767 -0.5277  1.1928
  517MOL0     H69729   3.544   9.086   5.165  0.7427  2.1298  0.9308
  517MOL0     H69730   3.775   9.246   5.341 -0.4319 -3.0273 -3.0764
  517MOL0     H69731   3.722   9.196   5.514  2.8420 -3.7866  2.7960
  517MOL0     H69732   3.897   9.038   5.523  0.5338  1.4682  1.1206
  517MOL0     H69733   3.969   9.193   5.516  2.8292  0.2096 -1.1626
  517MOL0     H69734   4.011   9.182   5.287 -0.8261  1.0316  1.0407
  517MOL0     H69735   3.943   9.019   5.256  1.9390 -1.2930 -0.5930
  517MOL0     H69736   4.184   9.107   5.437  2.5368 -1.5793 -0.3814
  517MOL0     H69737   4.115   8.949   5.436  1.9452  1.5145  1.5195
  517MOL0     H69738   4.148   8.925   5.187 -0.1152  0.5912 -3.3378
  517MOL0     H69739   4.226   9.086   5.187 -0.4509  2.3362  2.3751
  517MOL0     H69740   4.400   8.991   5.350 -4.4557 -1.4284  2.5845
  517MOL0     H69741   4.309   8.849   5.327 -2.3661 -1.1523 -0.6248
  517MOL0     H69742   4.400   8.807   5.111  2.0346 -1.0668 -1.7834
  517MOL0     H69743   4.537   8.863   5.189 -0.1557 -0.5251 -0.3382
  517MOL0     H69744   4.369   9.031   4.993 -0.0657 -2.2764 -0.9462
  517MOL0     H69745   4.524   9.086   5.060  2.4721 -1.6051  1.9335
  517MOL0     H69746   4.720   8.841   5.051  1.2874 -2.8214 -1.6249
  517MOL0     H69747   4.832   8.728   4.679 -0.8613  3.0215 -0.3212
  517MOL0     H69748   4.914   8.770   4.826  1.0874 -3.3070 -0.2382
  517MOL0     H69749   4.782   8.599   4.952  2.0845 -0.9762  0.3267
  517MOL0     H69750   4.751   8.520   4.793 -0.7538  0.5459  0.1506
  517MOL0     H69751   4.943   8.449   4.937 -4.0838 -3.0863 -2.8523
  517MOL0     H69752   5.023   8.600   4.912  0.2057 -1.7633  1.4276
  517MOL0     H69753   5.009   8.551   4.648 -2.5660 -0.6616 -2.0583
  517MOL0     H69754   4.912   8.412   4.691 -0.6672  0.6596  0.3182
  517MOL0     H69755   5.243   8.190   4.760 -1.1400 -1.0960 -0.4350
  517MOL0     H69756   5.347   8.060   4.590 -2.2269 -1.7357  0.3702
  517MOL0     H69757   5.704   8.001   4.330 -3.8994 -0.2849  3.9123
  517MOL0     H69758   5.822   7.807   4.187  0.4770  1.0163  2.5366
  517MOL0     H69759   5.757   7.666   3.930 -1.0915 -2.2949 -2.3000
  517MOL0     H69760   5.878   7.615   4.058 -0.2009  0.0428 -0.0712
  517MOL0     H69761   5.829   7.383   4.005  1.2717 -0.4122 -1.5229
  517MOL0     H69762   5.689   7.436   3.909 -1.3747  2.5397 -1.1403
  517MOL0     H69763   5.838   7.384   3.748 -2.0087  1.3844  0.5211
  517MOL0     H69764   5.850   7.564   3.762 -1.9521 -0.1551  0.2875
  517MOL0     H69765   6.027   7.344   3.869  0.7683  1.3488  2.1282
  517MOL0     H69766   6.026   7.517   3.927 -0.7533  3.5721 -1.8958
  517MOL0     H69767   6.064   7.600   3.688  0.4925 -0.3763 -1.0651
  517MOL0     H69768   6.097   7.429   3.651 -2.3848 -0.4345  0.1633
  517MOL0     H69769   6.232   7.589   3.869  3.6379 -1.6401 -0.2501
  517MOL0     H69770   6.282   7.440   3.812 -1.0306  0.6219 -0.5518
  517MOL0     H69771   6.278   7.589   3.572  2.2916  0.9908 -1.2548
  517MOL0     H69772   6.397   7.498   3.658 -1.1264  0.3609  0.0426
  517MOL0     H69773   6.443   7.702   3.798 -0.3876  1.0801  0.7048
  517MOL0     H69774   6.459   7.734   3.620  0.1662 -2.0428  0.4385
  517MOL0     H69775   5.432   7.633   4.152  2.2147 -2.1951  2.5520
  517MOL0     H69776   5.334   7.840   4.247 -0.2760  2.8230 -3.9739
  517MOL0     H69777   5.225   8.364   4.305 -1.4125 -2.9325 -2.1547
  517MOL0     H69778   5.097   8.457   4.474 -0.2732 -1.2104  1.1060
  517MOL0     H69779   3.575   9.017   5.585 -3.6029 -4.2795  1.2091
  517MOL0     H69780   3.344   9.044   5.623  0.3355 -0.2489 -0.8486
  517MOL0     H69781   2.961   8.964   5.266 -2.4069 -0.7347 -1.0099
  517MOL0     H69782   2.755   8.997   5.132 -2.4888 -0.2555  0.7388
  517MOL0     H69783   2.686   9.154   4.957  0.5022  0.1550  1.1677
  517MOL0     H69784   2.620   9.319   4.986 -0.6901  1.0520  2.0925
  517MOL0     H69785   2.381   9.174   5.011  2.5920  0.2034  1.2671
  517MOL0     H69786   2.469   9.051   4.937 -1.5648 -0.5341 -2.3334
  517MOL0     H69787   2.402   9.326   4.813 -1.4356  0.1653 -3.3032
  517MOL0     H69788   2.334   9.180   4.769  0.3323  3.4803 -3.1307
  517MOL0     H69789   2.609   9.261   4.730 -0.9458  0.8654  0.1238
  517MOL0     H69790   2.587   9.089   4.722 -0.0275 -0.3988 -0.0992
  517MOL0     H69791   2.415   9.238   4.354  0.5090 -2.4542 -0.0660
  517MOL0     H69792   2.679   9.366   5.290  0.1385 -0.1903  1.6214
  517MOL0     H69793   2.983   9.452   5.398  0.8435 -0.4292  0.7278
  517MOL0     H69794   2.812   9.454   5.469  1.2813  2.9586 -2.9530
  517MOL0     H69795   2.943   9.358   5.546  1.4273  1.1177 -0.1671
  518MOL0     O69796   5.064   9.009  10.258  0.6067  0.4785  0.3471
  518MOL0     C69797   5.050   9.019  10.134  1.0656  0.6508  0.0834
  518MOL0     O69798   5.023   9.141  10.075 -0.3597  0.7614 -0.0045
  518MOL0     C69799   5.028   9.246  10.159  0.6129 -0.2079  0.8202
  518MOL0     C69800   5.135   9.296  10.244 -0.1238  0.0958  0.6290
  518MOL0     C69801   5.120   9.408  10.316 -0.5785  0.2168 -0.1427
  518MOL0     C69802   5.010   9.494  10.291  0.5466 -0.2700 -0.8435
  518MOL0     O69803   4.994   9.617  10.357 -0.2513 -0.5489 -0.0391
  518MOL0     C69804   4.877   9.699  10.346 -0.1127  0.8738  0.4402
  518MOL0     C69805   4.912   9.843  10.305 -0.3812  0.2090 -0.3683
  518MOL0     C69806   4.779   9.931  10.288  0.7813  0.2881 -0.3761
  518MOL0     C69807   4.832  10.074  10.245 -0.5094  1.2146 -0.5378
  518MOL0     C69808   4.711  10.180  10.211  1.1284 -0.4124  0.7588
  518MOL0     C69809   4.775  10.288  10.131  0.2904  0.0383 -0.5985
  518MOL0     C69810   4.681  10.399  10.085 -0.4055 -1.1227 -0.2259
  518MOL0     C69811   4.665  10.420   9.935  0.3955  0.5057  0.0070
  518MOL0     N69812   4.598  10.546   9.887 -0.1104 -0.1884 -1.0406
  518MOL0     C69813   4.566  10.564   9.756  1.0812 -0.3804  0.2763
  518MOL0     C69814   4.486  10.676   9.758 -0.1206  0.2281  0.5356
  518MOL0     C69815   4.419  10.748   9.646 -0.6069  1.3573 -0.4920
  518MOL0     C69816   4.469  10.708   9.509 -0.8027  1.0120  0.3813
  518MOL0     C69817   4.400  10.788   9.396  0.1974  0.0613 -0.4371
  518MOL0     C69818   4.251  10.761   9.386 -0.4603  0.2221 -0.1254
  518MOL0     O69819   4.202  10.828   9.276 -0.2218 -0.7886 -0.1028
  518MOL0     C69820   4.149  10.953   9.290 -0.8249  0.6333  0.6068
  518MOL0     C69821   4.196  11.049   9.204 -0.7074  0.5146  0.1425
  518MOL0     C69822   4.167  11.182   9.228  0.2682  0.0046 -0.4406
  518MOL0     C69823   4.066  11.219   9.329 -1.2906 -0.6906  0.3098
  518MOL0     C69824   4.028  11.363   9.344  0.8003  0.3425  0.2419
  518MOL0     O69825   3.980  11.402   9.469 -0.0730 -0.4110 -0.0216
  518MOL0     C69826   3.933  11.529   9.492 -0.5708  0.2660 -0.3126
  518MOL0     C69827   3.833  11.575   9.410  0.1246  0.4705  0.0563
  518MOL0     C69828   3.793  11.710   9.418 -0.1716  0.3300 -0.1916
  518MOL0     C69829   3.856  11.794   9.513  0.9302  1.0309 -0.8886
  518MOL0     O69830   3.827  11.925   9.519 -0.2763  0.1323 -0.4339
  518MOL0     C69831   3.726  11.960   9.617 -0.5593 -0.1529 -0.5170
  518MOL0     C69832   3.715  12.118   9.618 -0.2590  0.5144  0.6714
  518MOL0     C69833   3.746  12.171   9.754 -0.9100  0.0953  0.1273
  518MOL0     C69834   3.675  12.311   9.770  0.2985 -0.4346  1.6761
  518MOL0     C69835   3.733  12.429   9.691 -0.0583 -0.1950  0.3988
  518MOL0     C69836   3.879  12.465   9.707 -0.9570 -0.1584  0.3454
  518MOL0     C69837   3.926  12.505   9.848  0.8018 -0.3167 -0.2597
  518MOL0     C69838   4.075  12.499   9.842  0.5094 -0.1648  0.4802
  518MOL0    Cl69839   4.159  12.635   9.935 -0.1487  0.1046 -0.0384
  518MOL0     C69840   3.944  11.736   9.610 -0.0229  0.3424  0.1837
  518MOL0     C69841   3.980  11.606   9.602 -0.4434 -0.0972 -1.0309
  518MOL0     O69842   4.048  11.435   9.248 -0.1232 -0.0134  0.8450
  518MOL0     C69843   4.013  11.121   9.410  1.1190 -1.0742 -0.8478
  518MOL0     C69844   4.054  10.990   9.396  0.5527 -0.2144  0.1909
  518MOL0     N69845   4.491  10.739   9.885  0.0038 -0.7525  0.0460
  518MOL0     N69846   4.550  10.645   9.964 -0.3353 -0.2960 -0.0153
  518MOL0     C69847   4.908   9.453  10.208  0.7967  0.3619  1.2016
  518MOL0     C69848   4.918   9.329  10.139  0.5039 -0.5999 -1.4922
  518MOL0     C69849   5.032   8.893  10.054  0.3720 -0.4398 -0.6460
  518MOL0     C69850   4.950   8.895   9.939 -0.1322  0.2502  0.5241
  518MOL0     C69851   4.942   8.786   9.849 -0.4907  0.1949  0.4479
  518MOL0     C69852   5.004   8.668   9.883  0.0439  0.0436 -0.7461
  518MOL0     O69853   4.983   8.558   9.808  0.8874  0.0601  0.0019
  518MOL0     C69854   4.850   8.521   9.777 -0.6725  0.6119 -0.0290
  518MOL0     C69855   4.845   8.368   9.748  0.6902  0.6201 -0.0097
  518MOL0     C69856   4.832   8.286   9.869 -0.6481  0.7610 -1.2464
  518MOL0     C69857   4.687   8.263   9.923  0.1371 -1.0895 -0.4322
  518MOL0     C69858   4.617   8.152   9.863 -0.4183  0.3144 -0.0223
  518MOL0     C69859   4.542   8.059   9.834 -1.1541 -0.2359 -0.4799
  518MOL0     C69860   5.079   8.654  10.010 -0.9392 -1.0310  0.6310
  518MOL0     C69861   5.095   8.772  10.089 -0.2443 -1.2957 -0.0793
  518MOL0     C69862   5.172   8.755  10.220  0.6618  0.3367 -0.6405
  518MOL0     H69863   5.226   9.237  10.247 -0.6275 -0.7116  3.5111
  518MOL0     H69864   5.198   9.441  10.384 -1.1893  2.3820 -0.4293
  518MOL0     H69865   4.792   9.657  10.293 -0.1790 -1.5696  2.3064
  518MOL0     H69866   4.836   9.708  10.447 -1.4302 -0.6095  0.0716
  518MOL0     H69867   4.962   9.841  10.208 -3.0757  0.5316 -1.8734
  518MOL0     H69868   4.977   9.888  10.381 -2.2941  1.9749  0.3325
  518MOL0     H69869   4.710   9.935  10.372  0.5791 -2.1876 -0.3618
  518MOL0     H69870   4.718   9.893  10.206 -0.1428  0.4623  0.2189
  518MOL0     H69871   4.905  10.112  10.316 -1.1065  0.4325  0.5362
  518MOL0     H69872   4.896  10.062  10.157 -0.5550  2.4256 -0.7476
  518MOL0     H69873   4.641  10.128  10.145 -0.9683  3.1452 -0.1044
  518MOL0     H69874   4.668  10.218  10.305  1.6644 -0.6574  1.1054
  518MOL0     H69875   4.859  10.329  10.189  0.4327  1.3615 -1.7026
  518MOL0     H69876   4.829  10.244  10.047  1.2671 -2.1004  1.0293
  518MOL0     H69877   4.722  10.494  10.120 -1.5644 -0.9700  0.7915
  518MOL0     H69878   4.580  10.385  10.127 -1.7090 -0.6805 -2.9996
  518MOL0     H69879   4.766  10.416   9.892  0.4513 -0.2467  0.1920
  518MOL0     H69880   4.601  10.341   9.897 -2.2875  2.1382  0.8489
  518MOL0     H69881   4.574  10.497   9.671 -0.7007  0.6172 -0.7275
  518MOL0     H69882   4.311  10.730   9.651 -0.5964  1.4919  0.5885
  518MOL0     H69883   4.439  10.852   9.675  1.4899  1.0771 -0.8047
  518MOL0     H69884   4.573  10.740   9.506 -1.2466  3.2054  3.4149
  518MOL0     H69885   4.464  10.600   9.493 -0.7048  1.0267  0.2505
  518MOL0     H69886   4.443  10.771   9.296 -1.8916 -3.1350 -0.9448
  518MOL0     H69887   4.407  10.897   9.407 -3.6322  0.3691  0.3814
  518MOL0     H69888   4.199  10.798   9.475 -3.3598  2.7926 -2.6415
  518MOL0     H69889   4.229  10.656   9.368 -0.8350  0.7625 -3.4548
  518MOL0     H69890   4.272  11.021   9.131 -0.8753  1.2529 -0.3249
  518MOL0     H69891   4.212  11.260   9.166  0.3472 -0.5569 -1.1039
  518MOL0     H69892   3.797  11.509   9.331  0.4106  3.5243 -2.8704
  518MOL0     H69893   3.723  11.750   9.346  0.4772  2.0871  0.1113
  518MOL0     H69894   3.630  11.920   9.583  0.2465 -1.8887 -0.8832
  518MOL0     H69895   3.749  11.911   9.712 -1.8158  1.3343  0.6085
  518MOL0     H69896   3.772  12.159   9.535 -0.0097  2.1699  1.5973
  518MOL0     H69897   3.613  12.133   9.580  0.5621  0.6609 -1.5890
  518MOL0     H69898   3.706  12.096   9.823  1.1465 -1.2701 -0.0798
  518MOL0     H69899   3.854  12.185   9.759 -0.8578 -0.4191  0.5436
  518MOL0     H69900   3.686  12.346   9.873  2.4192  1.7927  0.8000
  518MOL0     H69901   3.570  12.303   9.742  0.4515  1.8347  0.2168
  518MOL0     H69902   3.675  12.517   9.722  3.2127  1.9854  0.7981
  518MOL0     H69903   3.719  12.415   9.584  1.5167  0.2979  0.1159
  518MOL0     H69904   3.944  12.381   9.682  1.1320  1.4910  0.0307
  518MOL0     H69905   3.905  12.549   9.643 -1.1536 -1.2408 -1.2105
  518MOL0     H69906   3.895  12.454   9.939  2.1125 -1.6630 -0.5385
  518MOL0     H69907   3.900  12.611   9.856 -2.0537 -0.9089 -0.9073
  518MOL0     H69908   4.101  12.403   9.887  2.1630  0.9558  2.0483
  518MOL0     H69909   4.118  12.506   9.742  2.5969  0.6155  1.3783
  518MOL0     H69910   3.973  11.785   9.703  1.5828  0.5037 -0.3724
  518MOL0     H69911   4.053  11.570   9.674 -0.8104  1.7758  0.3610
  518MOL0     H69912   3.940  11.140   9.487  3.3306 -1.6315  1.5443
  518MOL0     H69913   4.013  10.912   9.460 -1.3110 -1.7330 -2.6369
  518MOL0     H69914   4.821   9.505  10.171  2.2678  1.8724 -0.3551
  518MOL0     H69915   4.844   9.299  10.066  1.0072 -1.1299 -1.7914
  518MOL0     H69916   4.888   8.980   9.914  0.9391  1.2535  1.1916
  518MOL0     H69917   4.887   8.788   9.755  2.0111 -1.7070 -1.1620
  518MOL0     H69918   4.818   8.570   9.684  0.3405 -1.2031 -1.4105
  518MOL0     H69919   4.787   8.539   9.865 -0.2350 -2.5185  1.0570
  518MOL0     H69920   4.928   8.326   9.690  1.2444  0.4140  0.9128
  518MOL0     H69921   4.762   8.343   9.682  0.2836 -0.8588  1.0258
  518MOL0     H69922   4.889   8.326   9.952 -0.2578  2.2336 -2.1837
  518MOL0     H69923   4.873   8.186   9.849  3.4745  1.1321  3.5557
  518MOL0     H69924   4.700   8.236  10.028  0.5512  1.0012  0.1003
  518MOL0     H69925   4.628   8.356   9.924  2.6154  0.6560  2.8976
  518MOL0     H69926   4.480   7.976   9.806 -0.5310 -0.2426 -1.9277
  518MOL0     H69927   5.117   8.560  10.049 -0.0877 -0.7685  0.4532
  518MOL0     H69928   5.105   8.747  10.305  0.9680  2.8127 -0.1021
  518MOL0     H69929   5.232   8.664  10.214  0.4088  0.2412 -2.3187
  518MOL0     H69930   5.243   8.836  10.238  1.2895 -0.6031  1.4061
  519MOL0     O69931   6.769   6.784   0.277 -0.3830  0.2474  0.2580
  519MOL0     C69932   6.807   6.902   0.294 -1.3447 -0.4212 -0.9440
  519MOL0     O69933   6.939   6.943   0.316  0.0823 -0.4950 -0.4868
  519MOL0     C69934   7.041   6.853   0.307 -0.0356  0.4012 -0.1419
  519MOL0     C69935   7.152   6.857   0.390 -0.2603  0.0375  0.2372
  519MOL0     C69936   7.266   6.779   0.386  0.2401  0.6526 -0.4406
  519MOL0     C69937   7.270   6.665   0.302 -0.0177  0.8332  0.4513
  519MOL0     O69938   7.374   6.568   0.295  0.5856  0.4995 -0.1971
  519MOL0     C69939   7.503   6.611   0.348  0.9353 -0.3654 -0.0208
  519MOL0     C69940   7.609   6.511   0.304  0.4480 -0.4311 -0.8660
  519MOL0     C69941   7.739   6.552   0.361 -0.6202  0.1494  0.1680
  519MOL0     C69942   7.842   6.476   0.285  0.2248 -0.3245  0.3570
  519MOL0     C69943   7.986   6.499   0.331  0.3985 -0.3365  0.8825
  519MOL0     C69944   8.103   6.430   0.254 -0.0630  0.4385 -0.1694
  519MOL0     C69945   8.088   6.441   0.104 -0.0081 -0.6848 -0.0819
  519MOL0     C69946   8.223   6.389   0.054 -0.9308 -0.6783 -0.0947
  519MOL0     N69947   8.218   6.375  -0.092  0.2785  0.2059  1.7166
  519MOL0     C69948   8.132   6.286  -0.151  0.6542 -0.0887 -0.3325
  519MOL0     C69949   8.177   6.277  -0.279 -0.0136  0.3365 -0.9837
  519MOL0     C69950   8.154   6.181  -0.386  0.2898  0.3264  0.5303
  519MOL0     C69951   8.211   6.045  -0.348 -1.1797 -0.1405  0.5359
  519MOL0     C69952   8.365   6.031  -0.365  0.1395  0.6073  0.0728
  519MOL0     C69953   8.452   6.075  -0.246  0.0007  0.6641  0.1477
  519MOL0     O69954   8.435   5.979  -0.136 -0.2699  0.4013  0.4093
  519MOL0     C69955   8.514   5.992  -0.030  0.1214 -0.0458 -0.4201
  519MOL0     C69956   8.511   5.881   0.046  0.4016  0.2876  0.4245
  519MOL0     C69957   8.578   5.878   0.169  1.0541  0.6523 -0.0077
  519MOL0     C69958   8.666   5.985   0.212 -0.2143 -0.5123  0.3929
  519MOL0     C69959   8.750   5.988   0.338 -0.5244  0.5432 -0.7349
  519MOL0     O69960   8.765   5.862   0.403  0.3185  0.4445  0.2755
  519MOL0     C69961   8.795   5.865   0.539 -0.1844  0.7070 -0.6436
  519MOL0     C69962   8.734   5.949   0.632 -0.0195 -0.9393 -1.0290
  519MOL0     C69963   8.745   5.929   0.772  0.5754  0.0716  0.0051
  519MOL0     C69964   8.803   5.811   0.821 -0.6146 -0.7509 -0.7420
  519MOL0     O69965   8.819   5.778   0.952 -0.3641 -0.1621 -0.0420
  519MOL0     C69966   8.777   5.877   1.041  0.5285  0.0558 -0.2613
  519MOL0     C69967   8.771   5.828   1.184 -0.0257 -0.3589 -0.6222
  519MOL0     C69968   8.676   5.906   1.277 -0.2277  0.5748  0.7702
  519MOL0     C69969   8.715   6.053   1.284  0.9213 -0.2492 -0.7971
  519MOL0     C69970   8.599   6.142   1.339  0.5931  0.6326 -0.0181
  519MOL0     C69971   8.642   6.285   1.325 -0.7873 -0.0185  0.5157
  519MOL0     C69972   8.528   6.376   1.353 -0.5223 -0.2636 -0.3859
  519MOL0     C69973   8.573   6.512   1.400  0.5365  0.1001  0.0723
  519MOL0    Cl69974   8.705   6.592   1.297 -0.1451 -0.0116  0.1913
  519MOL0     C69975   8.868   5.742   0.731 -0.6407  0.4570 -0.8381
  519MOL0     C69976   8.865   5.763   0.595  0.4962 -0.6798 -0.1046
  519MOL0     O69977   8.793   6.099   0.376  0.1057  0.2997 -0.6831
  519MOL0     C69978   8.677   6.100   0.122 -0.3216 -0.7790  0.6286
  519MOL0     C69979   8.598   6.099   0.003  0.5290  0.5838  0.2705
  519MOL0     N69980   8.286   6.361  -0.293 -0.4709  0.0239 -0.2136
  519MOL0     N69981   8.306   6.424  -0.188  0.9410 -0.0480 -0.5762
  519MOL0     C69982   7.156   6.653   0.212 -0.0618  0.0535 -0.0271
  519MOL0     C69983   7.048   6.745   0.213 -0.5157 -0.6953 -0.9028
  519MOL0     C69984   6.713   7.011   0.300  0.2587  0.1489  0.0314
  519MOL0     C69985   6.749   7.125   0.373  0.0843  0.5634  0.7360
  519MOL0     C69986   6.665   7.233   0.355 -0.2602 -0.0807  0.0937
  519MOL0     C69987   6.546   7.230   0.296  0.5064 -0.2255  0.7359
  519MOL0     O69988   6.455   7.337   0.315  0.0650 -0.6360  0.0991
  519MOL0     C69989   6.376   7.381   0.207 -0.9277 -0.2293  0.6477
  519MOL0     C69990   6.340   7.528   0.221 -0.8395 -0.3073  0.5761
  519MOL0     C69991   6.469   7.610   0.193 -0.9180 -0.7484  0.1955
  519MOL0     C69992   6.456   7.764   0.220 -0.5691 -0.2564  0.8190
  519MOL0     C69993   6.598   7.805   0.214  0.1023 -0.5936 -0.4985
  519MOL0     C69994   6.714   7.838   0.214  0.6170 -0.9845 -0.8579
  519MOL0     C69995   6.504   7.118   0.242  0.0775 -0.5993 -0.3711
  519MOL0     C69996   6.582   7.000   0.242 -0.5809 -0.8442  0.6668
  519MOL0     C69997   6.530   6.891   0.168  0.8886  0.3394  0.4496
  519MOL0     H69998   7.165   6.944   0.454 -1.5480  1.4827 -1.3892
  519MOL0     H69999   7.353   6.816   0.438 -2.1989  3.7722  1.7968
  519MOL0     H70000   7.537   6.712   0.321 -0.9277  0.2059 -0.3627
  519MOL0     H70001   7.488   6.605   0.456  1.3174 -1.6407 -0.0222
  519MOL0     H70002   7.615   6.523   0.196 -0.6239  2.6535 -0.6615
  519MOL0     H70003   7.578   6.408   0.329 -0.2079  0.1266  0.7858
  519MOL0     H70004   7.743   6.528   0.468  0.7312  3.4910  1.0035
  519MOL0     H70005   7.750   6.658   0.338 -0.2278 -0.2216 -1.5087
  519MOL0     H70006   7.824   6.368   0.288  2.5389 -0.9204 -2.4719
  519MOL0     H70007   7.844   6.510   0.181  2.7328 -0.7835  0.1921
  519MOL0     H70008   8.007   6.606   0.332 -0.0372 -0.2517  1.5746
  519MOL0     H70009   8.003   6.471   0.436 -3.7546 -1.2942  1.4446
  519MOL0     H70010   8.196   6.468   0.296 -0.5246  2.2363 -0.6699
  519MOL0     H70011   8.104   6.323   0.275 -3.0819  0.3767  0.1672
  519MOL0     H70012   8.080   6.544   0.066  0.3275 -0.1873  1.1486
  519MOL0     H70013   8.002   6.381   0.073  0.0597  0.1393 -2.0146
  519MOL0     H70014   8.300   6.465   0.067  0.5932 -2.0562 -0.7465
  519MOL0     H70015   8.253   6.295   0.102 -0.5218 -1.4516 -1.8182
  519MOL0     H70016   8.074   6.210  -0.100 -1.0571  0.9156 -0.6719
  519MOL0     H70017   8.049   6.167  -0.411  0.5294 -4.4327  1.3530
  519MOL0     H70018   8.203   6.225  -0.474 -2.1503  3.1853  0.4193
  519MOL0     H70019   8.188   5.998  -0.252 -0.2705 -2.7482 -0.4321
  519MOL0     H70020   8.173   5.967  -0.415  1.5601 -1.9357  0.9218
  519MOL0     H70021   8.407   6.082  -0.452  3.4315 -1.4699  0.2598
  519MOL0     H70022   8.388   5.925  -0.377  1.0706  0.5318  2.0328
  519MOL0     H70023   8.439   6.177  -0.208  0.4708  0.8593 -0.2014
  519MOL0     H70024   8.555   6.081  -0.283 -0.5580 -1.1905 -1.8989
  519MOL0     H70025   8.454   5.795   0.014 -1.9245  1.2220  1.8621
  519MOL0     H70026   8.581   5.789   0.231 -0.1342  0.8316  0.3229
  519MOL0     H70027   8.686   6.035   0.586  1.6430  0.0619 -0.9811
  519MOL0     H70028   8.695   6.007   0.828  0.8806 -0.6274  1.2684
  519MOL0     H70029   8.834   5.970   1.041 -3.4013  2.7637  1.2166
  519MOL0     H70030   8.678   5.914   1.013 -0.7253 -2.4113  0.6104
  519MOL0     H70031   8.763   5.719   1.172 -0.0984 -0.5886  1.2459
  519MOL0     H70032   8.871   5.832   1.229  0.1527 -1.0100 -0.9514
  519MOL0     H70033   8.572   5.900   1.242  0.5014  0.5716 -1.5616
  519MOL0     H70034   8.688   5.858   1.375  2.8957 -0.6380 -0.0849
  519MOL0     H70035   8.752   6.086   1.187  1.3813 -1.5061 -1.0604
  519MOL0     H70036   8.799   6.061   1.354  1.3667 -4.7530 -0.5010
  519MOL0     H70037   8.561   6.128   1.440 -1.3674  3.2490 -0.2721
  519MOL0     H70038   8.511   6.138   1.274  1.0917  1.4993 -0.7850
  519MOL0     H70039   8.726   6.310   1.390  0.8630  0.9780 -1.8402
  519MOL0     H70040   8.682   6.304   1.225  2.9325 -0.4497  1.7722
  519MOL0     H70041   8.462   6.329   1.427  2.1633 -3.2120  0.3303
  519MOL0     H70042   8.476   6.395   1.259  1.5777  2.2622 -1.1383
  519MOL0     H70043   8.484   6.574   1.383 -1.0457 -1.4492  2.1533
  519MOL0     H70044   8.610   6.514   1.503  0.2873 -0.2636  0.1733
  519MOL0     H70045   8.924   5.654   0.762 -0.1257  0.5691 -1.4399
  519MOL0     H70046   8.908   5.695   0.521 -1.7516  0.6708 -2.8580
  519MOL0     H70047   8.739   6.189   0.131  2.1256 -2.4370  1.0728
  519MOL0     H70048   8.606   6.186  -0.062  0.9609  0.1535 -0.2631
  519MOL0     H70049   7.156   6.576   0.135 -1.5034 -0.2201  0.2154
  519MOL0     H70050   6.960   6.723   0.153 -2.6042  2.8163  0.5557
  519MOL0     H70051   6.845   7.131   0.422 -0.1233 -1.1100  1.4243
  519MOL0     H70052   6.682   7.327   0.406 -0.8433 -0.1623  0.4477
  519MOL0     H70053   6.284   7.322   0.199 -1.7269  1.1289 -0.6765
  519MOL0     H70054   6.428   7.364   0.112  1.5274  1.4871  1.5742
  519MOL0     H70055   6.303   7.551   0.321 -0.6094 -0.3467  0.6697
  519MOL0     H70056   6.273   7.563   0.142  0.2867 -0.2004 -0.3638
  519MOL0     H70057   6.499   7.592   0.089 -2.4339 -0.2710 -0.3456
  519MOL0     H70058   6.540   7.569   0.265 -0.1069  0.4342  0.0913
  519MOL0     H70059   6.397   7.817   0.144 -1.8636 -0.9159  1.3409
  519MOL0     H70060   6.400   7.792   0.310 -0.6366  1.0150  0.4055
  519MOL0     H70061   6.816   7.867   0.198  0.5725 -1.4726 -2.1868
  519MOL0     H70062   6.399   7.120   0.212 -0.2205 -2.8327  0.3665
  519MOL0     H70063   6.589   6.873   0.078  1.4136  0.8495  0.6798
  519MOL0     H70064   6.525   6.806   0.237  0.4209 -0.0975 -0.1148
  519MOL0     H70065   6.429   6.912   0.131  1.1532  0.4141 -0.2366
  520MOL0     O70066   9.939   5.409   2.472 -0.4518  0.4268 -0.2839
  520MOL0     C70067   9.852   5.450   2.551  0.5539 -0.4700 -0.5288
  520MOL0     O70068   9.785   5.562   2.526 -0.2057  0.0281 -0.7200
  520MOL0     C70069   9.735   5.571   2.400 -0.1263 -0.5271  0.2147
  520MOL0     C70070   9.749   5.696   2.335 -0.0732 -1.3716  0.6143
  520MOL0     C70071   9.707   5.718   2.202  0.4950  0.4798 -0.3039
  520MOL0     C70072   9.654   5.612   2.130  0.2045  0.8849  1.4941
  520MOL0     O70073   9.607   5.626   2.004  0.0762  0.1485 -0.5847
  520MOL0     C70074   9.643   5.532   1.901 -0.9517  0.0888  0.1930
  520MOL0     C70075   9.702   5.606   1.779  0.1840  0.5848  0.5485
  520MOL0     C70076   9.686   5.520   1.653 -0.2512  0.1183 -0.5140
  520MOL0     C70077   9.719   5.371   1.673 -0.0825  0.3321  0.3164
  520MOL0     C70078   9.678   5.280   1.562  0.8732  0.9355  0.3417
  520MOL0     C70079   9.652   5.142   1.606 -0.1571 -1.2965 -0.0176
  520MOL0     C70080   9.668   5.045   1.497 -0.0856  0.1127 -0.1797
  520MOL0     C70081   9.667   4.904   1.557  0.8378  0.2580 -1.7785
  520MOL0     N70082   9.685   4.794   1.457 -0.3849 -0.2710 -0.3296
  520MOL0     C70083   9.657   4.811   1.322  0.1919  0.9222 -0.8045
  520MOL0     C70084   9.623   4.690   1.287  0.9970  0.2564 -0.3273
  520MOL0     C70085   9.581   4.634   1.155  0.1424  0.6239  0.6592
  520MOL0     C70086   9.491   4.729   1.072  0.0061 -0.8902  0.1167
  520MOL0     C70087   9.343   4.698   1.096  0.4664 -0.1957 -0.6620
  520MOL0     C70088   9.298   4.734   1.239 -0.1974 -1.1687  0.9792
  520MOL0     O70089   9.322   4.874   1.273 -0.0772 -0.3270 -0.3957
  520MOL0     C70090   9.291   4.921   1.400  1.2072  0.1424  0.1943
  520MOL0     C70091   9.232   4.841   1.509 -0.1055 -0.1284 -0.5500
  520MOL0     C70092   9.199   4.902   1.632 -0.2548 -0.4362 -0.3461
  520MOL0     C70093   9.226   5.037   1.664  0.8056 -0.0321 -0.8186
  520MOL0     C70094   9.193   5.091   1.799  0.6339  0.1379 -0.2318
  520MOL0     O70095   9.092   5.025   1.876  0.3155  0.1847 -1.0979
  520MOL0     C70096   9.043   5.087   1.988  0.2879  0.4815  0.4348
  520MOL0     C70097   9.092   5.052   2.117  0.5584 -0.2682  0.5968
  520MOL0     C70098   9.052   5.119   2.228 -0.1625  0.2702 -0.6164
  520MOL0     C70099   8.968   5.225   2.216  0.5117 -0.1164  0.5717
  520MOL0     O70100   8.924   5.307   2.314  0.2565  0.4886  0.2658
  520MOL0     C70101   8.922   5.247   2.445 -1.1722  0.2023  0.3904
  520MOL0     C70102   8.814   5.338   2.518  0.0397 -0.0119  0.3755
  520MOL0     C70103   8.867   5.479   2.539 -0.4977 -0.1864  0.6784
  520MOL0     C70104   8.754   5.575   2.562  0.2233  0.2401  0.2360
  520MOL0     C70105   8.694   5.639   2.431 -0.1721  0.0531  0.5049
  520MOL0     C70106   8.553   5.688   2.456  0.1086  0.4707 -0.2716
  520MOL0     C70107   8.451   5.594   2.486  0.4290 -0.1318  0.7409
  520MOL0     C70108   8.333   5.660   2.559 -0.2700 -0.4294  0.4790
  520MOL0    Cl70109   8.207   5.537   2.593 -0.0630 -0.1932 -0.3207
  520MOL0     C70110   8.922   5.267   2.088 -0.5417  0.3097  0.2398
  520MOL0     C70111   8.955   5.188   1.970 -0.7188 -0.0848  0.7907
  520MOL0     O70112   9.236   5.199   1.819  0.3146 -0.2114 -1.1798
  520MOL0     C70113   9.279   5.117   1.560 -0.1838  0.5520  0.2229
  520MOL0     C70114   9.309   5.063   1.433 -0.0929 -0.2024  0.0640
  520MOL0     N70115   9.614   4.606   1.396 -0.5602 -0.8784 -0.1133
  520MOL0     N70116   9.651   4.670   1.495  1.1631 -0.5867  0.1534
  520MOL0     C70117   9.638   5.484   2.193 -0.2705  0.1433 -0.3010
  520MOL0     C70118   9.670   5.467   2.328 -0.3644 -0.1575 -1.2703
  520MOL0     C70119   9.842   5.382   2.691 -0.1229 -0.7814 -0.0171
  520MOL0     C70120   9.951   5.305   2.740 -0.3724  0.3622 -0.0499
  520MOL0     C70121   9.957   5.243   2.868 -0.2276  0.0199 -0.0595
  520MOL0     C70122   9.848   5.261   2.956 -0.0408  0.1124 -0.5915
  520MOL0     O70123   9.843   5.223   3.083  0.4351 -0.0848  0.2918
  520MOL0     C70124   9.967   5.204   3.158 -0.0579  0.8968 -0.2293
  520MOL0     C70125   9.932   5.139   3.292 -0.1451 -0.6563 -0.8240
  520MOL0     C70126   9.905   5.250   3.395  0.2129 -0.1843  0.0673
  520MOL0     C70127   9.875   5.163   3.522  0.4120 -0.9856 -0.1856
  520MOL0     C70128   9.867   5.247   3.643  0.2665 -0.6713 -0.1931
  520MOL0     C70129   9.885   5.311   3.751 -0.1028 -0.1958 -0.7214
  520MOL0     C70130   9.736   5.331   2.914  0.4949  0.2189  0.2035
  520MOL0     C70131   9.737   5.393   2.788 -0.1510  0.2685 -0.2558
  520MOL0     C70132   9.615   5.469   2.751 -1.3476 -0.6096  0.2637
  520MOL0     H70133   9.789   5.785   2.383 -2.8699  0.0222  0.5520
  520MOL0     H70134   9.722   5.812   2.151 -2.3143 -0.9067 -4.2057
  520MOL0     H70135   9.712   5.451   1.927  0.4615  0.4332 -2.1984
  520MOL0     H70136   9.555   5.477   1.868  0.8923 -2.7778 -0.3802
  520MOL0     H70137   9.807   5.629   1.799  0.8112 -0.3493 -1.4332
  520MOL0     H70138   9.645   5.699   1.771  0.6722  0.9848  1.5354
  520MOL0     H70139   9.744   5.568   1.574 -2.2005  0.6020 -1.7208
  520MOL0     H70140   9.582   5.524   1.620 -0.2347 -1.1239 -0.7887
  520MOL0     H70141   9.828   5.365   1.674 -0.1321 -4.0758 -0.2483
  520MOL0     H70142   9.659   5.338   1.758 -1.3101  0.3817 -0.5132
  520MOL0     H70143   9.588   5.311   1.508  0.8361  3.9233  1.8942
  520MOL0     H70144   9.752   5.284   1.481  0.4238 -1.8671 -0.3017
  520MOL0     H70145   9.735   5.138   1.677 -1.1450  0.3649  1.3145
  520MOL0     H70146   9.558   5.127   1.662 -0.7699  1.1288 -0.2787
  520MOL0     H70147   9.766   5.048   1.448  0.7454 -0.3983  1.4072
  520MOL0     H70148   9.587   5.057   1.424 -4.0064 -0.4135  3.7038
  520MOL0     H70149   9.750   4.909   1.629 -2.3708  0.6088  2.2638
  520MOL0     H70150   9.572   4.885   1.606 -0.2347 -1.7930 -4.4292
  520MOL0     H70151   9.655   4.902   1.263 -2.0205  0.6649 -1.2297
  520MOL0     H70152   9.680   4.638   1.110 -0.7931  0.4508 -1.5075
  520MOL0     H70153   9.547   4.530   1.152 -1.4983  1.1139  0.7473
  520MOL0     H70154   9.513   4.832   1.102  1.9265 -1.1092 -0.4380
  520MOL0     H70155   9.521   4.730   0.967  5.1765 -1.8379  1.3285
  520MOL0     H70156   9.322   4.590   1.104  0.5191 -0.0861  4.0992
  520MOL0     H70157   9.279   4.753   1.027 -1.5508 -0.6847  0.6900
  520MOL0     H70158   9.354   4.672   1.309 -1.6974 -1.3691  2.0471
  520MOL0     H70159   9.200   4.698   1.270 -1.5171  1.8406  0.6740
  520MOL0     H70160   9.226   4.733   1.499 -1.5574 -0.3067  1.5104
  520MOL0     H70161   9.168   4.838   1.714 -2.8583  2.4530  1.1385
  520MOL0     H70162   9.164   4.971   2.113  1.6040  0.4061  3.3756
  520MOL0     H70163   9.113   5.095   2.314  3.6278  1.1039 -2.8376
  520MOL0     H70164   8.905   5.139   2.438 -0.0117  0.0159  0.1576
  520MOL0     H70165   9.019   5.245   2.496 -1.7188 -5.9160  2.0241
  520MOL0     H70166   8.722   5.318   2.462  1.1419 -1.8878 -0.8320
  520MOL0     H70167   8.794   5.293   2.616  1.4799 -2.5940 -0.4438
  520MOL0     H70168   8.948   5.488   2.612 -0.0979 -1.0994  0.3661
  520MOL0     H70169   8.919   5.515   2.450  1.2533 -2.1562  0.8344
  520MOL0     H70170   8.809   5.652   2.617  3.4885 -1.4223 -0.4465
  520MOL0     H70171   8.673   5.532   2.621 -1.6912  1.6035 -1.2488
  520MOL0     H70172   8.700   5.570   2.347  1.5491 -0.5797  1.1106
  520MOL0     H70173   8.760   5.723   2.407  0.3399 -0.4682  0.0666
  520MOL0     H70174   8.562   5.761   2.537  3.5552 -0.6457  0.5061
  520MOL0     H70175   8.517   5.741   2.368 -1.2060 -3.6960 -2.5486
  520MOL0     H70176   8.479   5.508   2.547  2.1267 -1.4841 -1.7800
  520MOL0     H70177   8.421   5.553   2.389 -0.3850  2.6886 -0.3174
  520MOL0     H70178   8.352   5.715   2.652 -0.8481 -0.1010  0.4047
  520MOL0     H70179   8.290   5.742   2.501  0.2539 -0.3347  0.2174
  520MOL0     H70180   8.856   5.353   2.094  0.7551  1.4493 -0.9154
  520MOL0     H70181   8.937   5.219   1.867 -1.4365  0.0897  0.9656
  520MOL0     H70182   9.300   5.222   1.577 -1.2121  0.6344  1.1298
  520MOL0     H70183   9.362   5.122   1.359  1.6162 -0.9260  0.6678
  520MOL0     H70184   9.595   5.402   2.136 -1.1459  0.4419 -0.0997
  520MOL0     H70185   9.651   5.371   2.375  0.2214  0.8725  1.2465
  520MOL0     H70186  10.036   5.274   2.680  0.8796 -1.8203  2.6318
  520MOL0     H70187  10.043   5.187   2.904 -2.4161 -1.5304  3.2033
  520MOL0     H70188  10.046   5.277   3.178  2.0752 -0.8841 -1.6523
  520MOL0     H70189  10.019   5.119   3.113 -1.4803 -0.3521  0.4022
  520MOL0     H70190  10.013   5.074   3.326  0.4547  0.5318  0.1385
  520MOL0     H70191   9.838   5.083   3.281  0.7178 -2.7358  1.4474
  520MOL0     H70192   9.820   5.307   3.357  0.6329  1.2673  1.2271
  520MOL0     H70193   9.994   5.312   3.407 -0.0447 -0.0341  1.2598
  520MOL0     H70194   9.786   5.099   3.515  1.0706 -1.7499 -2.2180
  520MOL0     H70195   9.965   5.107   3.548  0.3982 -1.3230 -0.8520
  520MOL0     H70196   9.891   5.378   3.834  1.8096  0.3506 -1.2566
  520MOL0     H70197   9.652   5.329   2.984  0.4767 -1.2425  0.1826
  520MOL0     H70198   9.552   5.424   2.674 -1.4335 -1.6553  0.9180
  520MOL0     H70199   9.546   5.487   2.835 -2.2311 -1.0375 -0.3547
  520MOL0     H70200   9.647   5.568   2.717 -0.7584  0.1616  2.7906
  521MOL0     O70201   0.853   2.147   7.571 -0.2400  0.4717 -0.1002
  521MOL0     C70202   0.843   2.176   7.452  0.4190  0.0326 -0.3538
  521MOL0     O70203   0.937   2.152   7.349 -0.2035  0.6687 -0.0336
  521MOL0     C70204   1.056   2.093   7.380  0.5714 -0.4295  0.2378
  521MOL0     C70205   1.086   1.968   7.332 -0.2425  0.5961 -0.6726
  521MOL0     C70206   1.207   1.906   7.351  0.4700  0.1005  0.3206
  521MOL0     C70207   1.308   1.972   7.426 -0.3162 -0.3664 -0.5589
  521MOL0     O70208   1.444   1.935   7.446 -0.0178  0.0444 -0.5690
  521MOL0     C70209   1.479   1.801   7.500  0.8878  1.1309 -0.0549
  521MOL0     C70210   1.447   1.780   7.654 -0.5418  0.4069 -0.2306
  521MOL0     C70211   1.586   1.736   7.709 -0.3497 -0.2489  0.2134
  521MOL0     C70212   1.683   1.858   7.725  0.5553  1.0230  0.1738
  521MOL0     C70213   1.646   1.983   7.804  0.5605 -0.0608 -0.0497
  521MOL0     C70214   1.579   1.947   7.947  0.1302  0.7199  0.0964
  521MOL0     C70215   1.546   2.068   8.029  0.2719 -0.7685 -0.2582
  521MOL0     C70216   1.475   2.036   8.160 -0.5077 -0.0242  0.5137
  521MOL0     N70217   1.386   2.149   8.196  0.0181  0.1480  0.1396
  521MOL0     C70218   1.280   2.202   8.129 -0.2138  0.8958 -0.1099
  521MOL0     C70219   1.227   2.303   8.197  0.7445 -0.7109 -0.1385
  521MOL0     C70220   1.117   2.404   8.174  0.2811  1.2826  0.6993
  521MOL0     C70221   1.136   2.545   8.230  0.0043 -0.3863 -0.9722
  521MOL0     C70222   1.083   2.554   8.374  0.0561 -0.2476 -0.0316
  521MOL0     C70223   1.101   2.706   8.418 -0.0611 -0.0024 -0.8254
  521MOL0     O70224   1.054   2.711   8.557 -0.1954 -0.2427 -0.6065
  521MOL0     C70225   1.011   2.844   8.580 -0.2054 -0.0136 -0.2459
  521MOL0     C70226   1.097   2.945   8.612 -0.0214 -0.6533  0.9270
  521MOL0     C70227   1.046   3.080   8.602 -0.3333  0.6474  0.2537
  521MOL0     C70228   0.919   3.103   8.558  0.4505  0.2726  0.0339
  521MOL0     C70229   0.873   3.234   8.516 -0.2679 -1.0950  0.6102
  521MOL0     O70230   0.770   3.233   8.439 -0.4751  0.1379 -0.3002
  521MOL0     C70231   0.683   3.342   8.425 -0.2459  0.0463 -0.5782
  521MOL0     C70232   0.547   3.303   8.443 -0.4553 -0.3547 -0.4892
  521MOL0     C70233   0.456   3.403   8.404 -0.1160  0.1015 -0.0868
  521MOL0     C70234   0.495   3.537   8.372 -0.2807  0.4635  0.7312
  521MOL0     O70235   0.401   3.630   8.345  0.3499  0.5233 -0.6960
  521MOL0     C70236   0.352   3.708   8.460 -0.0607 -0.7525  0.1136
  521MOL0     C70237   0.463   3.801   8.515  0.2253  0.2049  0.2012
  521MOL0     C70238   0.411   3.894   8.616  0.4111 -0.2220 -0.0595
  521MOL0     C70239   0.512   3.970   8.713 -0.0623 -0.5442  0.1816
  521MOL0     C70240   0.611   4.048   8.631  0.2359 -0.0708  0.8560
  521MOL0     C70241   0.705   4.136   8.713 -0.8659 -0.0431  0.1048
  521MOL0     C70242   0.800   4.204   8.615 -0.2970  0.3651 -0.3580
  521MOL0     C70243   0.756   4.351   8.576  0.0508 -0.3642 -0.9568
  521MOL0    Cl70244   0.784   4.485   8.709 -0.0727  0.5209  0.0175
  521MOL0     C70245   0.626   3.564   8.350  0.0551 -0.4673  0.5949
  521MOL0     C70246   0.723   3.466   8.372 -0.0255  0.3797 -0.0449
  521MOL0     O70247   0.930   3.329   8.562 -0.0680  0.3692 -0.2608
  521MOL0     C70248   0.826   2.993   8.559 -0.2301 -0.3918 -0.3719
  521MOL0     C70249   0.880   2.869   8.556 -0.4270  0.1980 -0.1272
  521MOL0     N70250   1.304   2.310   8.304 -0.0727  0.9895 -0.5622
  521MOL0     N70251   1.397   2.216   8.313  0.4140 -0.8011  0.1673
  521MOL0     C70252   1.277   2.096   7.477  0.0590 -0.1039 -0.8507
  521MOL0     C70253   1.154   2.155   7.455  0.3614 -0.3019  1.0332
  521MOL0     C70254   0.716   2.251   7.407 -0.9288 -0.7207 -0.3142
  521MOL0     C70255   0.678   2.240   7.271 -0.7480 -0.6452  0.1114
  521MOL0     C70256   0.569   2.326   7.223  0.2083 -0.0469 -0.1576
  521MOL0     C70257   0.482   2.397   7.309 -0.6929  0.3969 -0.1059
  521MOL0     O70258   0.385   2.479   7.261 -0.1631 -0.1470  0.5172
  521MOL0     C70259   0.424   2.564   7.151 -0.1407 -0.3353  0.5410
  521MOL0     C70260   0.318   2.677   7.122  0.8862  0.5451  0.0607
  521MOL0     C70261   0.170   2.644   7.078 -0.6258 -0.6078 -0.1563
  521MOL0     C70262   0.099   2.531   7.147  0.3012 -0.1342  0.1286
  521MOL0     C70263  -0.029   2.483   7.082  1.1034 -0.7489  0.2100
  521MOL0     C70264  -0.132   2.434   7.042  0.3199 -0.2889 -0.2847
  521MOL0     C70265   0.502   2.387   7.442  0.1637  0.3027 -0.1570
  521MOL0     C70266   0.624   2.315   7.491  0.5486 -0.7694 -0.3294
  521MOL0     C70267   0.656   2.332   7.631  0.0183 -0.2912  0.0778
  521MOL0     H70268   1.007   1.917   7.276 -2.2464 -0.1955  2.6193
  521MOL0     H70269   1.229   1.814   7.299 -2.1355 -1.3908  1.6485
  521MOL0     H70270   1.441   1.717   7.441  0.6942  0.2237  1.3066
  521MOL0     H70271   1.587   1.799   7.485  1.0445 -3.7578  0.2530
  521MOL0     H70272   1.368   1.704   7.660 -1.7379  1.1959 -3.9082
  521MOL0     H70273   1.408   1.872   7.697 -0.5025  0.4699 -0.3315
  521MOL0     H70274   1.641   1.674   7.638  2.5778  0.9449  1.3113
  521MOL0     H70275   1.586   1.681   7.804 -2.3585 -0.4465  0.1517
  521MOL0     H70276   1.764   1.815   7.784  0.1395 -1.1279 -0.7515
  521MOL0     H70277   1.706   1.890   7.623 -0.0158 -1.9214 -0.9558
  521MOL0     H70278   1.731   2.046   7.832  0.9584 -0.3008 -0.6920
  521MOL0     H70279   1.572   2.042   7.749 -0.7574  2.7170  4.1850
  521MOL0     H70280   1.490   1.887   7.927 -1.3444  2.1825  1.8954
  521MOL0     H70281   1.658   1.886   7.994  1.3457  0.6412 -1.9079
  521MOL0     H70282   1.477   2.133   7.975 -1.3966 -3.6384 -1.8528
  521MOL0     H70283   1.631   2.131   8.056 -1.3665  0.4431  2.5464
  521MOL0     H70284   1.420   1.942   8.149 -1.9788  0.8978 -0.3253
  521MOL0     H70285   1.552   2.019   8.235  0.2080  3.1370  0.6209
  521MOL0     H70286   1.239   2.150   8.044 -0.3888 -2.5221  1.8778
  521MOL0     H70287   1.106   2.412   8.066  2.9356 -2.4353 -0.0429
  521MOL0     H70288   1.032   2.364   8.231  0.3017  0.3120  0.0672
  521MOL0     H70289   1.244   2.560   8.223  0.2488  0.5547  2.8187
  521MOL0     H70290   1.080   2.613   8.165 -2.1090 -0.5245  0.5765
  521MOL0     H70291   1.135   2.483   8.439 -0.5566 -0.0302  0.7167
  521MOL0     H70292   0.976   2.535   8.383 -0.2592  0.5428 -1.7935
  521MOL0     H70293   1.049   2.780   8.356  2.4337  1.3492 -1.4754
  521MOL0     H70294   1.204   2.742   8.414 -0.6268  1.6162 -1.8778
  521MOL0     H70295   1.202   2.922   8.626 -0.3474 -1.3333  2.5496
  521MOL0     H70296   1.105   3.169   8.622  0.3095  0.1334  0.7213
  521MOL0     H70297   0.526   3.206   8.488 -1.3678  0.1449  0.1877
  521MOL0     H70298   0.351   3.375   8.398 -0.4236  0.9618  1.0182
  521MOL0     H70299   0.272   3.779   8.435 -0.3403 -0.2701  2.1496
  521MOL0     H70300   0.318   3.650   8.546  0.4582 -1.8166 -0.3816
  521MOL0     H70301   0.544   3.741   8.557 -0.1827 -1.5489 -1.3968
  521MOL0     H70302   0.503   3.852   8.426 -3.2930  1.2039 -0.9505
  521MOL0     H70303   0.362   3.976   8.562 -4.8722 -2.3738  0.7988
  521MOL0     H70304   0.325   3.852   8.669 -2.3247 -0.1384 -4.0399
  521MOL0     H70305   0.570   3.889   8.757  0.5396  0.1653  0.7117
  521MOL0     H70306   0.462   4.034   8.786  0.5576 -0.0073  0.1393
  521MOL0     H70307   0.560   4.113   8.559 -0.8475 -0.7781  0.9783
  521MOL0     H70308   0.665   3.978   8.567 -3.8001 -1.5346 -1.3106
  521MOL0     H70309   0.639   4.207   8.763 -2.8363 -1.1706 -0.8018
  521MOL0     H70310   0.778   4.091   8.781  2.0846  2.2479 -1.2596
  521MOL0     H70311   0.816   4.136   8.531 -0.1488 -0.7234  0.5332
  521MOL0     H70312   0.893   4.225   8.668 -0.1796  2.1016 -1.1504
  521MOL0     H70313   0.814   4.368   8.485  0.0065  1.7234 -0.6385
  521MOL0     H70314   0.649   4.344   8.555  0.1234 -1.0668 -1.1160
  521MOL0     H70315   0.651   3.659   8.304  3.0167 -1.9256 -1.0722
  521MOL0     H70316   0.829   3.484   8.364 -0.0061  0.3182  0.0721
  521MOL0     H70317   0.719   3.007   8.553 -0.2937 -1.2570 -1.7095
  521MOL0     H70318   0.809   2.788   8.544 -0.8847  0.6717 -0.6425
  521MOL0     H70319   1.351   2.147   7.539 -0.3213 -1.7645  1.0448
  521MOL0     H70320   1.128   2.248   7.504 -0.2386 -0.1486  0.4463
  521MOL0     H70321   0.723   2.184   7.191  0.2066 -0.5575  0.5717
  521MOL0     H70322   0.548   2.331   7.117  0.8411 -2.2431 -0.4256
  521MOL0     H70323   0.440   2.495   7.068 -0.1710 -1.2917  1.3131
  521MOL0     H70324   0.519   2.615   7.169 -1.4842  2.2813  0.7353
  521MOL0     H70325   0.365   2.743   7.048  1.9163 -1.3466 -1.0599
  521MOL0     H70326   0.295   2.745   7.204 -0.1131 -0.5237  0.6849
  521MOL0     H70327   0.171   2.629   6.970  0.6050  1.2929 -0.4600
  521MOL0     H70328   0.117   2.739   7.078  2.4526  1.2681 -1.4293
  521MOL0     H70329   0.169   2.446   7.148 -2.2542 -2.4207  3.2058
  521MOL0     H70330   0.091   2.548   7.254 -0.3153 -1.2353  0.2756
  521MOL0     H70331  -0.218   2.395   6.993  0.9840 -2.6383  0.2800
  521MOL0     H70332   0.432   2.430   7.513 -0.7950 -2.0600  0.4234
  521MOL0     H70333   0.759   2.365   7.649 -0.5910  0.3371  2.8450
  521MOL0     H70334   0.599   2.415   7.673  1.7869  0.7890  0.4379
  521MOL0     H70335   0.650   2.243   7.694  2.6150 -0.9850 -0.5144
  522MOL0     O70336   7.355   7.300   6.274  0.5181  0.0322  0.5203
  522MOL0     C70337   7.308   7.194   6.228  0.1505  0.1845  0.4751
  522MOL0     O70338   7.382   7.094   6.175 -0.0409 -0.1330  0.1312
  522MOL0     C70339   7.506   7.119   6.145  0.3123  1.4327  0.8742
  522MOL0     C70340   7.536   7.167   6.012  0.5033  0.3958  0.0784
  522MOL0     C70341   7.672   7.193   5.986  0.3606  0.4269  0.3699
  522MOL0     C70342   7.771   7.148   6.087 -0.0725  0.3907  1.4949
  522MOL0     O70343   7.905   7.139   6.070 -0.9221  0.7112 -0.0751
  522MOL0     C70344   7.957   7.182   5.937 -0.3821 -0.2136  0.5665
  522MOL0     C70345   8.114   7.169   5.937  0.9209 -0.7544  0.6483
  522MOL0     C70346   8.185   7.244   5.819 -0.1512  0.3079 -0.2688
  522MOL0     C70347   8.316   7.169   5.784  0.2065 -0.0146 -0.3766
  522MOL0     C70348   8.381   7.233   5.667 -0.2851  0.5659 -0.2251
  522MOL0     C70349   8.524   7.187   5.646 -0.0338 -0.7236  0.0675
  522MOL0     C70350   8.578   7.280   5.538  1.0816  0.5600 -0.6894
  522MOL0     C70351   8.728   7.260   5.510 -0.3420  0.2626  1.0602
  522MOL0     N70352   8.805   7.299   5.629 -0.4837  0.4972  0.6399
  522MOL0     C70353   8.785   7.410   5.705  0.1663 -0.1729 -0.0271
  522MOL0     C70354   8.903   7.446   5.759 -0.8546 -0.6111  0.1793
  522MOL0     C70355   8.940   7.579   5.816 -0.7300 -0.6956 -0.0743
  522MOL0     C70356   8.998   7.684   5.721 -0.0381  0.1552 -0.9836
  522MOL0     C70357   8.931   7.692   5.582  0.3539  0.3138 -0.5718
  522MOL0     C70358   9.000   7.794   5.494  0.1845  0.3570  0.2695
  522MOL0     O70359   8.934   7.776   5.366  0.3692  0.1804  0.6050
  522MOL0     C70360   9.003   7.758   5.246  0.4508 -0.3380 -0.0361
  522MOL0     C70361   8.961   7.647   5.175 -0.0610 -0.0454 -0.1353
  522MOL0     C70362   9.025   7.617   5.050 -0.3066  0.2600  1.1132
  522MOL0     C70363   9.153   7.683   5.024  0.4967 -0.4028 -0.4126
  522MOL0     C70364   9.231   7.625   4.920  0.1625 -0.9157  0.7154
  522MOL0     O70365   9.215   7.486   4.888 -0.2244 -0.6218 -0.3049
  522MOL0     C70366   9.269   7.425   4.778  1.1801 -0.4025 -0.3186
  522MOL0     C70367   9.206   7.308   4.742 -0.9064 -0.2224 -1.1713
  522MOL0     C70368   9.260   7.229   4.637 -0.0572  0.7578  0.6712
  522MOL0     C70369   9.360   7.272   4.554 -0.4516  0.0978 -0.0174
  522MOL0     O70370   9.408   7.203   4.441 -0.3425 -0.6901 -0.0246
  522MOL0     C70371   9.310   7.131   4.367  0.3457  0.0006 -0.4687
  522MOL0     C70372   9.341   7.115   4.212 -0.5877  1.2752 -0.1143
  522MOL0     C70373   9.406   6.978   4.186 -0.2653 -0.2599 -0.1074
  522MOL0     C70374   9.431   6.964   4.030  0.2201 -1.0710 -0.5737
  522MOL0     C70375   9.487   6.820   4.002  0.4681 -1.0318  0.1178
  522MOL0     C70376   9.508   6.811   3.847 -0.6359  1.5772 -0.3625
  522MOL0     C70377   9.557   6.665   3.811 -0.7977 -1.5260  0.6063
  522MOL0     C70378   9.584   6.644   3.660  0.1836 -0.8320  0.0341
  522MOL0    Cl70379   9.731   6.745   3.634 -0.0131  0.0956  0.0606
  522MOL0     C70380   9.425   7.389   4.589 -0.3491 -0.5669  1.2562
  522MOL0     C70381   9.387   7.469   4.700  0.2071 -0.0653 -0.9326
  522MOL0     O70382   9.306   7.703   4.862  0.1102  0.2178  0.6363
  522MOL0     C70383   9.198   7.792   5.109 -0.1238 -0.0139  0.0457
  522MOL0     C70384   9.122   7.830   5.211 -0.0411 -0.3225 -0.7956
  522MOL0     N70385   8.992   7.345   5.734  0.4233  0.2489 -0.6118
  522MOL0     N70386   8.930   7.264   5.652  0.8632 -0.0060  0.2995
  522MOL0     C70387   7.733   7.103   6.214  0.2646 -0.2004 -0.0078
  522MOL0     C70388   7.598   7.099   6.255  0.1381 -0.4780  1.5876
  522MOL0     C70389   7.163   7.176   6.228 -0.9542  0.6339 -0.1217
  522MOL0     C70390   7.117   7.092   6.118  0.6024  0.8501 -0.0438
  522MOL0     C70391   6.976   7.082   6.096 -0.5653  0.1746 -0.3648
  522MOL0     C70392   6.892   7.130   6.188  0.2135  0.1464 -0.1264
  522MOL0     O70393   6.754   7.126   6.148 -1.0258 -0.1733 -0.0833
  522MOL0     C70394   6.658   7.212   6.219  0.5627  0.5117 -0.5430
  522MOL0     C70395   6.513   7.178   6.173  0.1594 -1.2408 -0.3446
  522MOL0     C70396   6.458   7.047   6.229 -0.2974  0.6792  0.0171
  522MOL0     C70397   6.312   7.049   6.277  0.4327  0.1530 -0.0623
  522MOL0     C70398   6.228   7.077   6.157 -0.7813 -0.6917  0.1445
  522MOL0     C70399   6.155   7.073   6.056  0.3422 -0.2095 -0.6840
  522MOL0     C70400   6.936   7.189   6.308  0.0921  0.2774 -0.1934
  522MOL0     C70401   7.072   7.211   6.327 -0.2167 -0.0566  1.1569
  522MOL0     C70402   7.123   7.284   6.446  0.5729  0.0647 -0.3983
  522MOL0     H70403   7.456   7.195   5.944  0.1302  0.4275  0.5248
  522MOL0     H70404   7.686   7.262   5.903  4.4910  1.6020  1.8144
  522MOL0     H70405   7.919   7.113   5.861  2.7334 -3.8083  1.9706
  522MOL0     H70406   7.933   7.284   5.906  2.6071  0.3632 -0.1541
  522MOL0     H70407   8.138   7.063   5.950 -2.7320 -2.2390 -2.5632
  522MOL0     H70408   8.128   7.239   6.019 -1.1867 -0.3862  0.7529
  522MOL0     H70409   8.203   7.347   5.851  1.2430 -0.0708  0.2075
  522MOL0     H70410   8.127   7.252   5.727  0.1998  0.4316 -0.4798
  522MOL0     H70411   8.387   7.187   5.865 -0.3396 -3.6224  1.1043
  522MOL0     H70412   8.303   7.061   5.770  2.1302 -0.2666 -0.4100
  522MOL0     H70413   8.320   7.202   5.582 -1.6535  1.1720  0.5104
  522MOL0     H70414   8.365   7.341   5.667  0.5754  0.7238 -1.8802
  522MOL0     H70415   8.593   7.191   5.731  1.0465 -0.1259 -0.8150
  522MOL0     H70416   8.510   7.085   5.608 -4.6165 -0.5289  0.6191
  522MOL0     H70417   8.546   7.384   5.549 -0.4331  0.5638 -3.9508
  522MOL0     H70418   8.531   7.248   5.445 -3.6506  1.2618  1.1940
  522MOL0     H70419   8.738   7.155   5.482 -1.3534  0.5319 -0.4002
  522MOL0     H70420   8.749   7.338   5.437 -1.6068 -1.3700 -1.1599
  522MOL0     H70421   8.691   7.463   5.718 -0.9884 -1.8390 -1.1899
  522MOL0     H70422   8.849   7.624   5.856 -1.3800 -1.6011 -0.4934
  522MOL0     H70423   9.010   7.555   5.896  2.2829  0.2872 -2.2510
  522MOL0     H70424   9.002   7.780   5.774 -0.6593  0.1348 -0.8931
  522MOL0     H70425   9.103   7.658   5.702 -0.6513 -4.6358  0.7576
  522MOL0     H70426   8.823   7.707   5.588  0.2449  0.0404 -1.7170
  522MOL0     H70427   8.949   7.598   5.530 -1.7660  0.2476 -1.2656
  522MOL0     H70428   9.107   7.774   5.480 -0.2126 -2.0493  0.4156
  522MOL0     H70429   8.980   7.896   5.528 -2.0743 -0.2707  0.9553
  522MOL0     H70430   8.861   7.611   5.194  0.2991 -0.0362  1.9618
  522MOL0     H70431   8.988   7.544   4.979  2.6016 -1.6170  1.3465
  522MOL0     H70432   9.111   7.283   4.789 -0.2562  1.7209  1.3955
  522MOL0     H70433   9.206   7.136   4.625  0.7641  0.1023  1.9089
  522MOL0     H70434   9.296   7.031   4.409  0.8923 -0.6064 -1.6526
  522MOL0     H70435   9.212   7.179   4.366  0.8325  1.2739  2.7465
  522MOL0     H70436   9.254   7.135   4.149 -0.1434 -1.2648 -1.6722
  522MOL0     H70437   9.417   7.192   4.193  2.7091 -2.0610 -1.5825
  522MOL0     H70438   9.496   6.973   4.248 -2.2534 -0.1874  2.9794
  522MOL0     H70439   9.347   6.890   4.216 -1.2522  0.6992  0.8309
  522MOL0     H70440   9.502   7.044   4.005  2.1951 -1.3447  3.2809
  522MOL0     H70441   9.336   6.974   3.978  0.2130 -1.8917 -0.7303
  522MOL0     H70442   9.412   6.743   4.023 -1.5088  0.9521  0.6690
  522MOL0     H70443   9.583   6.810   4.053  0.6265  0.1799  0.0923
  522MOL0     H70444   9.423   6.841   3.786  0.8298  2.4546 -2.0786
  522MOL0     H70445   9.588   6.880   3.818  0.5155  0.6025  0.4027
  522MOL0     H70446   9.484   6.591   3.845 -1.5049 -0.7115  0.8669
  522MOL0     H70447   9.652   6.650   3.864 -0.5364 -0.8662  0.3354
  522MOL0     H70448   9.612   6.543   3.626 -0.7286 -1.0285 -0.1659
  522MOL0     H70449   9.501   6.676   3.596 -0.2182 -2.4917 -0.3373
  522MOL0     H70450   9.512   7.427   4.536  1.8564 -2.4031  3.3425
  522MOL0     H70451   9.433   7.566   4.720  1.9529 -1.3620  1.7600
  522MOL0     H70452   9.293   7.842   5.095 -0.3233 -0.1453 -2.2191
  522MOL0     H70453   9.149   7.920   5.265  0.7255 -1.7984  1.4091
  522MOL0     H70454   7.815   7.081   6.281  0.7510  2.0963  0.2365
  522MOL0     H70455   7.571   7.080   6.358 -1.5675 -2.5412  0.8397
  522MOL0     H70456   7.178   7.077   6.029  2.7614  1.8572  1.1686
  522MOL0     H70457   6.927   7.042   6.008  3.0571  0.2373 -2.6189
  522MOL0     H70458   6.686   7.314   6.191 -2.1918  2.0460  1.7605
  522MOL0     H70459   6.660   7.201   6.328 -2.3191 -1.2915 -0.5549
  522MOL0     H70460   6.515   7.176   6.064  2.3603 -1.1046 -0.3517
  522MOL0     H70461   6.453   7.264   6.207 -1.8486 -2.2014 -1.2959
  522MOL0     H70462   6.519   7.003   6.309 -1.7373  0.7380  1.1754
  522MOL0     H70463   6.447   6.978   6.145  0.8202  0.2247  0.2240
  522MOL0     H70464   6.275   6.954   6.316  1.0380  0.5038  1.4608
  522MOL0     H70465   6.299   7.130   6.350  0.9462 -0.0447  0.2534
  522MOL0     H70466   6.101   7.065   5.963 -1.4396  0.0092  0.2921
  522MOL0     H70467   6.859   7.219   6.379 -1.8422 -0.7504 -1.7309
  522MOL0     H70468   7.168   7.377   6.409 -3.1610  2.3184  0.2069
  522MOL0     H70469   7.039   7.321   6.506  0.8206 -2.5368  1.7444
  522MOL0     H70470   7.183   7.225   6.516  0.5687  0.0072 -0.4435
  523MOL0     O70471  10.061   8.843   9.349  0.7260 -0.5804 -0.5887
  523MOL0     C70472  10.105   8.945   9.403  0.3585 -0.0139  0.9947
  523MOL0     O70473  10.025   9.045   9.453  0.3568 -0.0952 -0.4341
  523MOL0     C70474   9.884   9.031   9.465  0.7352  0.0950 -0.0803
  523MOL0     C70475   9.797   8.956   9.378  0.3764  0.6895 -0.0262
  523MOL0     C70476   9.663   8.937   9.395 -0.1370  0.8120 -0.4779
  523MOL0     C70477   9.606   8.991   9.511  0.0615 -0.0905  0.2762
  523MOL0     O70478   9.478   8.955   9.520 -0.9237  0.5998  0.2712
  523MOL0     C70479   9.405   8.981   9.642 -0.1447  0.1038 -1.0395
  523MOL0     C70480   9.329   9.114   9.627 -0.3881 -0.0251  0.2391
  523MOL0     C70481   9.220   9.131   9.735 -0.7896 -0.3680  0.0182
  523MOL0     C70482   9.271   9.238   9.837  0.2588  0.4185  0.2253
  523MOL0     C70483   9.183   9.229   9.953 -0.4311  0.5039  0.3430
  523MOL0     C70484   9.057   9.313   9.935 -0.6304  0.0057 -1.0119
  523MOL0     C70485   8.937   9.232  10.010  0.0777 -0.0531  0.2464
  523MOL0     C70486   8.803   9.300   9.986 -0.9197  0.0691 -0.2981
  523MOL0     N70487   8.698   9.251  10.076 -0.2166 -0.5033  0.4438
  523MOL0     C70488   8.687   9.279  10.213 -0.3296 -0.2014 -0.2772
  523MOL0     C70489   8.569   9.239  10.250  0.9151 -0.4468  0.5713
  523MOL0     C70490   8.506   9.246  10.385  0.0131  0.7794 -0.1789
  523MOL0     C70491   8.489   9.391  10.426  0.2088  0.1393  0.4099
  523MOL0     C70492   8.423   9.399  10.560 -1.1132 -0.1636  0.2707
  523MOL0     C70493   8.355   9.536  10.583  0.7675 -0.1640 -0.8281
  523MOL0     O70494   8.273   9.592  10.476  0.2203 -0.2280 -0.2210
  523MOL0     C70495   8.155   9.539  10.440  1.4507 -0.7551 -0.2997
  523MOL0     C70496   8.061   9.460  10.525 -0.9198 -0.2754  0.5293
  523MOL0     C70497   7.930   9.445  10.478 -0.4282 -0.6293 -0.3385
  523MOL0     C70498   7.893   9.479  10.347  0.0098  0.6909 -0.4108
  523MOL0     C70499   7.760   9.451  10.304 -0.2127  0.0684 -0.2640
  523MOL0     O70500   7.710   9.550  10.232 -0.2756  0.0679 -0.7292
  523MOL0     C70501   7.572   9.553  10.223  0.3652  0.0687 -0.7276
  523MOL0     C70502   7.487   9.592  10.331  0.3508  0.3178 -0.2840
  523MOL0     C70503   7.353   9.615  10.307 -0.0055 -0.5768 -0.3155
  523MOL0     C70504   7.292   9.595  10.184  0.6036  0.3563  0.8650
  523MOL0     O70505   7.162   9.614  10.153  0.3279  0.0071  0.8120
  523MOL0     C70506   7.053   9.624  10.243 -0.3372 -1.4002 -0.9129
  523MOL0     C70507   6.919   9.672  10.179 -0.4188  1.0675 -0.3840
  523MOL0     C70508   6.857   9.574  10.069 -0.0259  0.1494 -0.2695
  523MOL0     C70509   6.724   9.634  10.024  0.0095  0.3724  0.0926
  523MOL0     C70510   6.740   9.691   9.890  0.0667 -1.2417  0.0131
  523MOL0     C70511   6.610   9.774   9.853  0.8128  0.3901 -0.6722
  523MOL0     C70512   6.607   9.808   9.710  0.8770 -0.3937  0.6363
  523MOL0     C70513   6.464   9.842   9.658 -0.5292 -0.1293  0.4343
  523MOL0    Cl70514   6.412   9.997   9.731 -0.0504  0.5033  0.3385
  523MOL0     C70515   7.375   9.546  10.082 -0.1590 -0.5913 -0.5155
  523MOL0     C70516   7.516   9.528  10.098 -0.2389 -1.4044 -0.2719
  523MOL0     O70517   7.702   9.359  10.362 -0.5053 -0.3614  0.9351
  523MOL0     C70518   7.987   9.530  10.259 -0.0716 -0.6109  0.0039
  523MOL0     C70519   8.117   9.557  10.306  0.7297  0.2847 -0.2920
  523MOL0     N70520   8.500   9.197  10.137  0.3909  0.1347 -0.3446
  523MOL0     N70521   8.574   9.211  10.032 -0.1927  0.5384  1.0808
  523MOL0     C70522   9.680   9.067   9.599 -0.0421  0.1433 -0.4489
  523MOL0     C70523   9.821   9.083   9.584 -0.4788  0.9265  0.6317
  523MOL0     C70524  10.250   8.975   9.391  0.5298 -0.0572 -0.5581
  523MOL0     C70525  10.293   9.080   9.466 -0.7870 -0.4916 -0.3123
  523MOL0     C70526  10.426   9.114   9.470  0.2608 -1.0829  0.1804
  523MOL0     C70527  10.526   9.062   9.389  0.0696  0.0905  0.7091
  523MOL0     O70528  10.657   9.118   9.371  0.1186  0.1505 -0.0312
  523MOL0     C70529  10.671   9.246   9.422 -0.2796 -0.5616  0.0218
  523MOL0     C70530  10.815   9.259   9.371  0.4450 -0.4414 -1.1707
  523MOL0     C70531  10.910   9.141   9.415 -0.1224 -0.0097 -0.2490
  523MOL0     C70532  11.048   9.187   9.401 -0.3086 -0.6300  0.2259
  523MOL0     C70533  11.083   9.227   9.260  0.3387  0.1890  0.3278
  523MOL0     C70534  11.120   9.263   9.143 -0.3322 -0.5624 -0.2133
  523MOL0     C70535  10.481   8.956   9.308  0.3921 -0.1890  0.5088
  523MOL0     C70536  10.347   8.918   9.305  1.1339  0.7812  1.1276
  523MOL0     C70537  10.326   8.814   9.197  0.3298 -0.3430 -0.6680
  523MOL0     H70538   9.845   8.915   9.289 -0.5734 -0.3363 -0.0860
  523MOL0     H70539   9.596   8.892   9.322  1.3840 -2.4047 -0.0626
  523MOL0     H70540   9.325   8.906   9.649  0.7090 -0.9028 -1.7414
  523MOL0     H70541   9.466   8.981   9.733  0.3565  1.6656 -1.3499
  523MOL0     H70542   9.297   9.120   9.523  1.7594 -1.4815 -0.5591
  523MOL0     H70543   9.409   9.189   9.636 -0.6547  0.4680 -1.2358
  523MOL0     H70544   9.199   9.038   9.788 -3.4261 -1.4031 -2.6207
  523MOL0     H70545   9.121   9.153   9.694 -0.3532 -0.9513 -1.4098
  523MOL0     H70546   9.369   9.212   9.879  0.8983  2.9918  0.4626
  523MOL0     H70547   9.275   9.341   9.802 -2.9504  0.6182  0.2100
  523MOL0     H70548   9.161   9.128   9.990  1.5378  0.5765  1.9155
  523MOL0     H70549   9.239   9.265  10.040 -2.6406  0.2097  1.9610
  523MOL0     H70550   9.075   9.412   9.978  0.7521  0.1335 -1.8373
  523MOL0     H70551   9.026   9.321   9.830 -0.8088 -0.9833 -1.0452
  523MOL0     H70552   8.958   9.226  10.117 -1.6212  3.1624  0.8878
  523MOL0     H70553   8.930   9.134   9.963  2.9885  0.5689 -1.7799
  523MOL0     H70554   8.814   9.405  10.015 -0.9859  0.6168 -2.1461
  523MOL0     H70555   8.783   9.297   9.879  1.8483  2.4959 -1.0136
  523MOL0     H70556   8.766   9.320  10.275  1.2464 -6.5890  2.8232
  523MOL0     H70557   8.409   9.196  10.377  2.1539 -3.9238 -0.2938
  523MOL0     H70558   8.564   9.187  10.457 -1.6981  1.0101  1.4644
  523MOL0     H70559   8.583   9.445  10.418 -0.3864  0.9689 -2.0305
  523MOL0     H70560   8.422   9.439  10.354  3.4546  2.2409 -1.4548
  523MOL0     H70561   8.513   9.381  10.619 -0.7960 -2.4902 -0.8134
  523MOL0     H70562   8.340   9.330  10.578  0.0194 -1.3142  1.3339
  523MOL0     H70563   8.434   9.610  10.604 -0.5624  1.8289 -2.4984
  523MOL0     H70564   8.289   9.530  10.670 -2.2301  7.4653 -1.8177
  523MOL0     H70565   8.084   9.443  10.630 -1.5427  2.5675  1.2283
  523MOL0     H70566   7.870   9.387  10.547  1.2781 -2.0404  0.0558
  523MOL0     H70567   7.521   9.625  10.429 -1.4785  0.7606  0.2409
  523MOL0     H70568   7.291   9.650  10.389 -1.2362 -1.0655 -1.0083
  523MOL0     H70569   7.034   9.526  10.288 -0.7194 -1.2607 -0.7663
  523MOL0     H70570   7.083   9.693  10.322  1.1192 -1.2209 -1.5777
  523MOL0     H70571   6.843   9.685  10.256 -1.0382 -0.4358 -0.6979
  523MOL0     H70572   6.935   9.771  10.136  2.5182  0.4996 -0.8387
  523MOL0     H70573   6.923   9.555   9.984  1.5767 -3.5461  1.5812
  523MOL0     H70574   6.829   9.476  10.109 -1.8169 -0.0073 -1.7523
  523MOL0     H70575   6.678   9.707  10.090 -2.7699  0.5789 -1.9318
  523MOL0     H70576   6.654   9.550  10.020 -0.1759  0.5819 -1.4239
  523MOL0     H70577   6.763   9.607   9.825 -0.2574  0.1620 -2.0255
  523MOL0     H70578   6.829   9.755   9.892 -0.5607 -0.3198  2.5178
  523MOL0     H70579   6.525   9.710   9.880  0.3622  2.4334  3.5680
  523MOL0     H70580   6.604   9.864   9.914  1.8692  1.7818 -2.5338
  523MOL0     H70581   6.642   9.718   9.659 -0.1406 -1.7380  2.1991
  523MOL0     H70582   6.666   9.896   9.683 -0.0829  1.1773  3.2966
  523MOL0     H70583   6.481   9.857   9.551  5.1743  0.7397  1.1033
  523MOL0     H70584   6.384   9.770   9.674 -0.6278  0.0910  0.9607
  523MOL0     H70585   7.327   9.526   9.987  1.0253  2.8234 -1.9941
  523MOL0     H70586   7.591   9.506  10.023 -0.1042 -3.7820  0.4848
  523MOL0     H70587   7.955   9.564  10.161  2.5383  0.8734 -0.4115
  523MOL0     H70588   8.195   9.603  10.246 -1.6041  2.3884 -1.9258
  523MOL0     H70589   9.654   9.089   9.702 -1.1162 -2.4319 -0.0836
  523MOL0     H70590   9.879   9.134   9.660  0.6802 -0.5131  0.7609
  523MOL0     H70591  10.226   9.116   9.543 -0.5251 -0.9904  0.1570
  523MOL0     H70592  10.453   9.189   9.543 -1.5575 -0.8024  0.6237
  523MOL0     H70593  10.660   9.241   9.531  1.6651 -0.7349  0.2365
  523MOL0     H70594  10.601   9.311   9.369 -1.7107 -1.6259  0.5387
  523MOL0     H70595  10.861   9.342   9.425 -1.5400 -1.0869  1.7384
  523MOL0     H70596  10.820   9.259   9.262 -0.1833 -4.0393 -1.3416
  523MOL0     H70597  10.896   9.054   9.350 -3.1017 -0.1533  0.4424
  523MOL0     H70598  10.898   9.110   9.519  1.2690 -2.1442 -0.6487
  523MOL0     H70599  11.067   9.270   9.470 -0.4968  1.3264 -1.9382
  523MOL0     H70600  11.120   9.106   9.410  1.5330  0.8198 -0.7731
  523MOL0     H70601  11.159   9.270   9.044  2.0715  2.6399  0.7906
  523MOL0     H70602  10.556   8.918   9.239 -3.8401 -4.6304 -2.2192
  523MOL0     H70603  10.380   8.828   9.103  1.0652 -0.0865 -0.2171
  523MOL0     H70604  10.361   8.722   9.245  1.3793 -1.2015 -2.9349
  523MOL0     H70605  10.222   8.791   9.174  0.0320  1.0797 -0.7859
  524MOL0     O70606   8.151   8.856   9.048  0.3830  0.0765 -0.0822
  524MOL0     C70607   8.055   8.924   9.044 -0.5124 -0.7096  1.1090
  524MOL0     O70608   7.926   8.881   9.037 -0.0974 -0.2491 -0.3743
  524MOL0     C70609   7.882   8.756   9.080  1.0227 -0.2621  0.7337
  524MOL0     C70610   7.766   8.698   9.034 -0.0077  0.3882  0.4902
  524MOL0     C70611   7.715   8.582   9.093 -0.8633 -1.3400 -0.1468
  524MOL0     C70612   7.789   8.522   9.194 -0.4282  0.7907 -0.4052
  524MOL0     O70613   7.720   8.434   9.264 -0.1837  0.1574 -0.1930
  524MOL0     C70614   7.805   8.336   9.335 -0.5644 -0.4584  0.1515
  524MOL0     C70615   7.711   8.241   9.416  0.5224 -0.8613  0.0868
  524MOL0     C70616   7.804   8.128   9.482  0.2037  0.2752  0.0764
  524MOL0     C70617   7.714   8.006   9.524  0.0066  0.5965  0.5625
  524MOL0     C70618   7.795   7.891   9.589 -0.3739  0.9335 -0.2589
  524MOL0     C70619   7.698   7.774   9.620 -0.0914  0.5781  0.2271
  524MOL0     C70620   7.768   7.668   9.693 -0.6445  0.1823 -0.1477
  524MOL0     C70621   7.681   7.552   9.710  0.4455 -0.4315 -0.3118
  524MOL0     N70622   7.750   7.474   9.812  0.3692  0.6505 -0.3109
  524MOL0     C70623   7.865   7.408   9.795 -0.0264 -0.1285  0.3767
  524MOL0     C70624   7.881   7.349   9.919 -0.2901 -0.9303  0.4333
  524MOL0     C70625   8.008   7.275   9.959  0.6562  0.0920  1.2802
  524MOL0     C70626   8.004   7.124   9.925  0.6059 -0.2562 -0.2325
  524MOL0     C70627   8.080   7.039  10.027 -0.3774 -0.8275  0.3849
  524MOL0     C70628   8.133   6.911   9.948 -0.6987  0.5865 -0.2311
  524MOL0     O70629   8.181   6.923   9.814 -0.7194 -0.6111 -0.9542
  524MOL0     C70630   8.296   7.002   9.783  0.3257  0.5524 -0.3119
  524MOL0     C70631   8.408   7.009   9.859  0.0687 -1.4070  0.3523
  524MOL0     C70632   8.516   7.092   9.826 -0.5730  0.2579 -0.5378
  524MOL0     C70633   8.509   7.176   9.712 -0.0960  1.2218 -0.9455
  524MOL0     C70634   8.611   7.274   9.674  0.1757 -0.3964  0.4264
  524MOL0     O70635   8.729   7.280   9.741 -0.5879 -0.3449 -0.0466
  524MOL0     C70636   8.827   7.369   9.718  0.4793 -0.3253  0.7792
  524MOL0     C70637   8.883   7.391   9.595 -0.0731 -0.0324  0.6079
  524MOL0     C70638   8.983   7.489   9.578 -0.3522 -0.5861  0.0906
  524MOL0     C70639   9.044   7.547   9.694 -0.7023 -0.6399  0.8525
  524MOL0     O70640   9.140   7.645   9.679  0.3716 -0.4004  0.1239
  524MOL0     C70641   9.206   7.699   9.794  0.5778 -0.7885 -0.2960
  524MOL0     C70642   9.122   7.798   9.882  0.6773 -0.3684  0.2930
  524MOL0     C70643   9.221   7.881   9.969  0.4004 -0.8783  0.7670
  524MOL0     C70644   9.291   7.999   9.894 -0.4331 -0.7610 -0.4789
  524MOL0     C70645   9.191   8.096   9.818 -0.1575  0.8553  0.7019
  524MOL0     C70646   9.123   8.209   9.910 -0.5724  0.7338 -0.7804
  524MOL0     C70647   9.052   8.306   9.811  0.1832 -0.3083 -0.1631
  524MOL0     C70648   8.948   8.391   9.892  0.5839 -0.2999 -0.0576
  524MOL0    Cl70649   9.050   8.505   9.991  0.0951 -0.3491  0.1342
  524MOL0     C70650   8.999   7.507   9.824  1.6950 -0.8616  0.0720
  524MOL0     C70651   8.889   7.417   9.832  0.0934 -0.1715 -0.3342
  524MOL0     O70652   8.583   7.349   9.584 -0.6613  0.2128 -0.0725
  524MOL0     C70653   8.390   7.158   9.631 -0.3753  0.1439 -0.3971
  524MOL0     C70654   8.287   7.070   9.665  0.2672 -0.5353 -0.2545
  524MOL0     N70655   7.777   7.384   9.998 -0.1193 -0.0777  0.0189
  524MOL0     N70656   7.692   7.455   9.933 -0.2248  0.1478 -0.4758
  524MOL0     C70657   7.917   8.568   9.232  0.6536  0.5901 -0.5856
  524MOL0     C70658   7.959   8.689   9.183 -0.0962  0.8320  0.3129
  524MOL0     C70659   8.065   9.071   9.055  0.1561 -0.1642 -0.1897
  524MOL0     C70660   7.982   9.140   8.970  0.2289  0.7232 -0.8242
  524MOL0     C70661   7.976   9.275   8.973 -0.3204  0.5065  0.3781
  524MOL0     C70662   8.056   9.346   9.057  0.0802  0.6248  0.1840
  524MOL0     O70663   8.077   9.485   9.066 -0.4898  1.0639  0.2423
  524MOL0     C70664   7.985   9.584   9.026 -0.4006 -0.6336  0.3921
  524MOL0     C70665   8.042   9.727   9.051  0.1808  0.7095  0.7064
  524MOL0     C70666   7.927   9.826   9.034  0.4557 -1.0622  0.4879
  524MOL0     C70667   7.971   9.962   9.079 -0.3741 -0.1243 -0.7164
  524MOL0     C70668   7.865  10.064   9.084  1.3013  0.1869  0.3049
  524MOL0     C70669   7.784  10.153   9.117  0.7733 -0.1990 -0.0068
  524MOL0     C70670   8.145   9.277   9.129 -0.2700  0.6057 -0.4084
  524MOL0     C70671   8.153   9.140   9.136  0.1979 -0.5041 -0.0866
  524MOL0     C70672   8.275   9.072   9.205 -0.4477 -0.7869 -0.0418
  524MOL0     H70673   7.698   8.746   8.964  1.0349  0.3858 -0.5438
  524MOL0     H70674   7.617   8.556   9.054 -3.1149  1.8858  2.7497
  524MOL0     H70675   7.855   8.272   9.262 -0.9317 -0.6581  0.0745
  524MOL0     H70676   7.884   8.377   9.399  2.0151 -0.3972 -2.8960
  524MOL0     H70677   7.641   8.184   9.354 -3.5887 -2.1674  5.1979
  524MOL0     H70678   7.653   8.299   9.488  0.2458  0.7644 -1.3815
  524MOL0     H70679   7.847   8.173   9.572 -1.4555  2.7631 -0.2570
  524MOL0     H70680   7.884   8.097   9.415  1.7864  0.8186  1.6560
  524MOL0     H70681   7.646   8.042   9.602  0.5177 -1.7421  2.2168
  524MOL0     H70682   7.667   7.975   9.430  7.7480  0.8597 -4.2885
  524MOL0     H70683   7.874   7.862   9.520  0.5847  2.6071  0.0648
  524MOL0     H70684   7.840   7.936   9.678 -4.2853  2.5002  1.1528
  524MOL0     H70685   7.615   7.820   9.674 -2.4913 -1.4778 -1.4751
  524MOL0     H70686   7.653   7.740   9.526  2.9980  0.9145 -1.5179
  524MOL0     H70687   7.809   7.702   9.789  1.7454  1.1346 -1.4141
  524MOL0     H70688   7.841   7.632   9.620 -2.7596 -2.0679 -1.3138
  524MOL0     H70689   7.586   7.587   9.752 -0.4570 -0.3757 -2.2824
  524MOL0     H70690   7.660   7.498   9.617  2.3002  0.8053 -1.5027
  524MOL0     H70691   7.937   7.432   9.718 -1.2013  4.7724  0.4702
  524MOL0     H70692   8.081   7.315   9.888 -0.9529  0.4563 -0.2451
  524MOL0     H70693   8.034   7.307  10.060  0.7814  2.2559  0.6003
  524MOL0     H70694   7.899   7.095   9.924  0.5730 -0.1477  0.1642
  524MOL0     H70695   8.037   7.106   9.822  0.5419 -1.9600  0.0185
  524MOL0     H70696   8.029   7.010  10.119  1.0687 -1.9152  0.8905
  524MOL0     H70697   8.170   7.095  10.056  0.6357 -1.4296 -1.3931
  524MOL0     H70698   8.045   6.851   9.922 -0.8453  0.8652 -0.3791
  524MOL0     H70699   8.199   6.859  10.018 -3.1801 -1.3126  0.8569
  524MOL0     H70700   8.414   6.951   9.951 -1.5578 -2.7498 -0.3212
  524MOL0     H70701   8.602   7.109   9.890  0.9878  0.8599 -2.6772
  524MOL0     H70702   8.838   7.352   9.504 -0.2755  0.6739  0.4041
  524MOL0     H70703   9.020   7.521   9.481 -0.1215  4.1755  1.5041
  524MOL0     H70704   9.255   7.623   9.855  0.3318 -1.0335 -0.3988
  524MOL0     H70705   9.289   7.750   9.744  0.4398 -1.6275 -1.4299
  524MOL0     H70706   9.042   7.849   9.827 -0.8499  0.7751  3.3306
  524MOL0     H70707   9.077   7.733   9.957  0.1056  1.2163  1.3726
  524MOL0     H70708   9.166   7.927  10.051  1.0782  0.5350  0.4663
  524MOL0     H70709   9.302   7.819  10.008  1.4021  0.3233  0.6485
  524MOL0     H70710   9.356   7.957   9.817 -1.2993 -1.3838 -0.8752
  524MOL0     H70711   9.360   8.053   9.960  2.5735 -0.6939 -3.4453
  524MOL0     H70712   9.113   8.045   9.762  0.9870  3.3146 -3.6154
  524MOL0     H70713   9.236   8.149   9.733 -1.1131  3.1450  1.5378
  524MOL0     H70714   9.047   8.161   9.973 -1.6324  0.9068 -1.8763
  524MOL0     H70715   9.203   8.250   9.972 -1.7282  2.1817 -0.1961
  524MOL0     H70716   9.003   8.247   9.733  1.5944 -0.3344 -1.0638
  524MOL0     H70717   9.112   8.380   9.758 -1.4062  0.6914 -0.6342
  524MOL0     H70718   8.881   8.446   9.825  2.4278  0.7701 -1.1200
  524MOL0     H70719   8.884   8.333   9.959  1.7323 -1.3144  0.1951
  524MOL0     H70720   9.045   7.540   9.917 -1.9925 -0.5032  1.9560
  524MOL0     H70721   8.863   7.397   9.936  1.3578 -1.4621 -0.2498
  524MOL0     H70722   8.370   7.229   9.551  0.6982 -0.6407 -1.3967
  524MOL0     H70723   8.197   7.064   9.606  3.1181 -0.5636 -5.1781
  524MOL0     H70724   7.980   8.520   9.306 -1.3435 -1.8269 -0.2819
  524MOL0     H70725   8.055   8.732   9.210 -0.3706  3.4679 -2.4527
  524MOL0     H70726   7.931   9.091   8.887 -1.6581  0.3960  0.4432
  524MOL0     H70727   7.892   9.312   8.915 -1.0322  3.8591  3.1869
  524MOL0     H70728   7.888   9.578   9.075 -1.1451  3.0311 -0.3688
  524MOL0     H70729   7.976   9.556   8.921  0.6806  1.2700 -0.2453
  524MOL0     H70730   8.117   9.740   8.972 -2.8924  0.9969 -2.4232
  524MOL0     H70731   8.080   9.736   9.153  1.3569  0.7704  0.2790
  524MOL0     H70732   7.838   9.802   9.093  0.1161 -1.6597 -0.2450
  524MOL0     H70733   7.883   9.828   8.934 -1.8995 -2.3809  1.4110
  524MOL0     H70734   8.014   9.956   9.180 -2.1066 -1.9652 -0.0060
  524MOL0     H70735   8.056  10.000   9.021  2.7191 -0.6008  3.0375
  524MOL0     H70736   7.716  10.225   9.156 -0.0994  0.4307 -2.5309
  524MOL0     H70737   8.217   9.322   9.198 -0.1330 -1.7488  1.0966
  524MOL0     H70738   8.341   9.045   9.122  0.7485 -0.4969  0.7982
  524MOL0     H70739   8.314   9.150   9.271  1.4263 -0.4909 -1.4205
  524MOL0     H70740   8.239   8.986   9.261 -5.1923  0.9487  0.0509
  525MOL0     O70741  10.557   2.969   1.764  0.1726  0.7021 -0.4332
  525MOL0     C70742  10.523   2.867   1.700  0.0703 -0.8739 -0.0910
  525MOL0     O70743  10.589   2.807   1.595  0.4162  0.0670 -0.0752
  525MOL0     C70744  10.711   2.829   1.552  0.7515 -0.9270 -0.4062
  525MOL0     C70745  10.748   2.762   1.434 -0.7271  0.2233  0.6191
  525MOL0     C70746  10.883   2.772   1.384 -0.1861  0.1439  0.5624
  525MOL0     C70747  10.973   2.854   1.451  0.3625  0.4880 -0.2569
  525MOL0     O70748  11.096   2.869   1.395 -0.0834 -0.4246 -0.0292
  525MOL0     C70749  11.171   2.997   1.401  0.3642 -0.2999  0.2219
  525MOL0     C70750  11.104   3.084   1.290 -0.8855 -0.4273 -0.5357
  525MOL0     C70751  10.971   3.157   1.322 -0.0193  0.6007  0.5204
  525MOL0     C70752  10.988   3.232   1.448  0.5584  0.0589 -0.0272
  525MOL0     C70753  10.903   3.366   1.447 -0.5718  0.7627 -0.3791
  525MOL0     C70754  10.761   3.352   1.397 -0.2550 -0.7607 -0.4450
  525MOL0     C70755  10.690   3.489   1.420 -0.7888 -0.5617 -0.8226
  525MOL0     C70756  10.596   3.516   1.546  0.9463  0.5316  0.7017
  525MOL0     N70757  10.457   3.476   1.499 -0.8186 -0.0746 -0.5335
  525MOL0     C70758  10.361   3.553   1.439  0.3605 -0.0058 -0.6093
  525MOL0     C70759  10.268   3.465   1.407 -0.4689 -0.0075  0.5082
  525MOL0     C70760  10.151   3.504   1.337  0.8487  0.4112 -1.4466
  525MOL0     C70761  10.166   3.529   1.186  1.1370 -0.1186  0.2582
  525MOL0     C70762  10.016   3.505   1.134 -0.5816 -0.5681  0.6970
  525MOL0     C70763   9.984   3.590   1.002  0.7460  0.7671  0.4903
  525MOL0     O70764   9.846   3.579   0.987 -0.0773 -0.1931  0.9089
  525MOL0     C70765   9.789   3.460   0.941 -0.9228  0.4252  1.4738
  525MOL0     C70766   9.651   3.455   0.948 -0.1292 -0.0132 -0.3164
  525MOL0     C70767   9.590   3.358   0.883  0.3299  0.6606  0.2603
  525MOL0     C70768   9.657   3.252   0.820 -0.5912 -0.0366 -0.2715
  525MOL0     C70769   9.578   3.139   0.758 -0.7474 -0.2770 -1.3116
  525MOL0     O70770   9.649   3.023   0.723  0.5646  0.1934  1.1623
  525MOL0     C70771   9.588   2.923   0.661 -0.2924  0.0968  0.2237
  525MOL0     C70772   9.504   2.942   0.545 -0.0584  0.8576  0.4364
  525MOL0     C70773   9.454   2.825   0.476  0.4764  0.6131 -0.5160
  525MOL0     C70774   9.479   2.701   0.526  0.5741 -0.3858  1.0938
  525MOL0     O70775   9.424   2.600   0.450  0.0571 -0.4831  0.1878
  525MOL0     C70776   9.504   2.478   0.435 -1.1065 -0.0241  0.0297
  525MOL0     C70777   9.423   2.368   0.357 -0.1233  0.1669  0.7970
  525MOL0     C70778   9.382   2.403   0.208  0.5992 -0.0746  0.7685
  525MOL0     C70779   9.378   2.281   0.119 -0.0789 -0.4938 -0.1550
  525MOL0     C70780   9.300   2.315  -0.011  0.5318 -0.2677  0.3651
  525MOL0     C70781   9.284   2.187  -0.096  0.4518 -0.3937  0.3171
  525MOL0     C70782   9.174   2.197  -0.208 -1.0422  0.0442  0.1160
  525MOL0     C70783   9.089   2.076  -0.237  0.7548  0.0210 -0.3436
  525MOL0    Cl70784   8.988   2.015  -0.098  0.0276 -0.4760 -0.2571
  525MOL0     C70785   9.557   2.689   0.639 -0.3475  0.7263 -0.6778
  525MOL0     C70786   9.606   2.799   0.710 -0.0504  0.8437  0.2822
  525MOL0     O70787   9.456   3.154   0.751 -0.6708 -0.3764 -0.0918
  525MOL0     C70788   9.794   3.255   0.817 -0.3478 -0.4451 -0.4076
  525MOL0     C70789   9.863   3.363   0.875  0.0373  0.7390  0.5421
  525MOL0     N70790  10.298   3.334   1.463  0.3557 -0.4723 -0.3693
  525MOL0     N70791  10.411   3.347   1.518 -0.6720 -0.5156  0.5236
  525MOL0     C70792  10.937   2.908   1.583  0.5737 -0.9253  0.4791
  525MOL0     C70793  10.809   2.900   1.627 -0.6041  0.5079  0.5801
  525MOL0     C70794  10.404   2.795   1.750  0.2876 -0.4603 -0.4066
  525MOL0     C70795  10.385   2.768   1.886  0.0851  0.4173 -0.1079
  525MOL0     C70796  10.275   2.694   1.933 -0.2693  0.7270 -0.8053
  525MOL0     C70797  10.176   2.661   1.843 -0.6707 -0.8145  0.7882
  525MOL0     O70798  10.070   2.599   1.910 -0.6067 -0.2183 -0.0839
  525MOL0     C70799   9.963   2.546   1.838 -0.1607 -0.2378  0.4390
  525MOL0     C70800   9.867   2.467   1.930 -0.3902 -0.4239  0.0699
  525MOL0     C70801   9.772   2.384   1.850 -1.1451 -0.2174 -0.1252
  525MOL0     C70802   9.685   2.308   1.955  0.6169  0.3951  0.0368
  525MOL0     C70803   9.561   2.266   1.891  0.9344 -0.2210 -0.5663
  525MOL0     C70804   9.455   2.223   1.833  0.6462 -0.3286 -0.4845
  525MOL0     C70805  10.187   2.687   1.702  0.6237  0.8497  0.5278
  525MOL0     C70806  10.302   2.756   1.655  0.1648  0.3491 -0.7226
  525MOL0     C70807  10.303   2.808   1.519 -0.6557  0.2668  0.3975
  525MOL0     H70808  10.685   2.711   1.362  0.4448  0.0346 -0.3141
  525MOL0     H70809  10.914   2.724   1.292  0.5375  0.2362  0.7487
  525MOL0     H70810  11.160   3.035   1.503 -1.9200 -1.0882  0.3267
  525MOL0     H70811  11.275   2.986   1.369  0.7799  0.9944  1.0313
  525MOL0     H70812  11.096   3.029   1.196  1.5400 -0.4356 -0.8137
  525MOL0     H70813  11.165   3.172   1.265 -0.3722 -0.9924 -1.3118
  525MOL0     H70814  10.890   3.084   1.323 -1.1538  1.5060 -4.0386
  525MOL0     H70815  10.949   3.225   1.240 -1.4892 -0.0567  0.3404
  525MOL0     H70816  10.958   3.150   1.514 -0.9432 -3.6520 -4.6934
  525MOL0     H70817  11.090   3.258   1.477 -0.0699  0.2952  2.1259
  525MOL0     H70818  10.919   3.417   1.542  0.8954 -0.6554  0.1656
  525MOL0     H70819  10.951   3.432   1.374  3.5856 -3.7663 -2.3135
  525MOL0     H70820  10.758   3.326   1.291 -1.2118 -2.0202 -0.1284
  525MOL0     H70821  10.710   3.266   1.442  0.4957  0.4837  3.1155
  525MOL0     H70822  10.646   3.509   1.322 -2.0116 -3.6165 -1.0171
  525MOL0     H70823  10.773   3.561   1.426 -0.8071 -0.6858  1.8036
  525MOL0     H70824  10.622   3.451   1.630 -1.3458 -0.8195  0.4708
  525MOL0     H70825  10.588   3.616   1.589  2.1005  1.7386 -1.7416
  525MOL0     H70826  10.364   3.658   1.413 -0.8236 -0.6255 -3.7398
  525MOL0     H70827  10.086   3.416   1.343 -2.6022  2.8455  0.1143
  525MOL0     H70828  10.112   3.589   1.393  5.4632  0.8934  1.5267
  525MOL0     H70829  10.196   3.632   1.164  3.3251 -0.4736  1.3022
  525MOL0     H70830  10.241   3.457   1.150 -0.4189 -1.4321 -0.4779
  525MOL0     H70831   9.954   3.549   1.213 -1.6148 -2.8532  1.2309
  525MOL0     H70832   9.998   3.399   1.114 -1.2472  0.0808 -2.9308
  525MOL0     H70833  10.038   3.548   0.917  0.8604  0.2634  0.8043
  525MOL0     H70834  10.029   3.689   1.015  0.2050  1.1262 -0.2887
  525MOL0     H70835   9.605   3.537   1.002  2.9624  0.7395  1.4328
  525MOL0     H70836   9.482   3.359   0.895  0.5217  1.4727  2.2338
  525MOL0     H70837   9.487   3.045   0.514  1.0542  0.7582 -0.5993
  525MOL0     H70838   9.392   2.842   0.389 -0.1566 -0.3597 -0.2643
  525MOL0     H70839   9.596   2.495   0.378 -0.3922 -3.7270 -0.1322
  525MOL0     H70840   9.549   2.442   0.528  2.5680  0.8703 -1.2384
  525MOL0     H70841   9.489   2.281   0.345 -1.2888 -0.6517  0.1604
  525MOL0     H70842   9.336   2.340   0.416 -0.9936 -0.0244 -0.5409
  525MOL0     H70843   9.277   2.432   0.214 -0.5507 -3.8612  1.5783
  525MOL0     H70844   9.447   2.485   0.175  1.6679 -1.0653  0.3451
  525MOL0     H70845   9.336   2.201   0.180  1.5001 -0.9199  0.4222
  525MOL0     H70846   9.482   2.258   0.091  0.6957  4.0679 -1.8099
  525MOL0     H70847   9.338   2.404  -0.061 -2.9907  3.1534  3.1242
  525MOL0     H70848   9.195   2.344  -0.003  1.3283  3.6641 -1.1648
  525MOL0     H70849   9.381   2.155  -0.133  0.0536 -2.4388  0.8870
  525MOL0     H70850   9.249   2.114  -0.023  0.1113 -1.2767 -0.6933
  525MOL0     H70851   9.231   2.231  -0.295  1.1033 -0.7696  1.1285
  525MOL0     H70852   9.106   2.275  -0.174  0.0049  1.1286 -0.2063
  525MOL0     H70853   9.010   2.112  -0.303 -1.1764  1.5875  2.5999
  525MOL0     H70854   9.152   1.993  -0.272 -2.3593 -1.4749 -2.9655
  525MOL0     H70855   9.572   2.595   0.692  3.1899  0.4460 -1.9477
  525MOL0     H70856   9.676   2.782   0.792  1.1833 -2.7513 -1.2806
  525MOL0     H70857   9.846   3.166   0.781  2.5527  0.3507  1.4623
  525MOL0     H70858   9.971   3.358   0.871  0.1297 -2.1074  3.0625
  525MOL0     H70859  11.009   2.962   1.643  2.3188  1.5865 -3.4281
  525MOL0     H70860  10.794   2.942   1.726  2.4697  0.9257  0.9843
  525MOL0     H70861  10.462   2.783   1.961  0.0937  1.2181 -0.2685
  525MOL0     H70862  10.262   2.652   2.032 -0.5998  0.8377 -0.8002
  525MOL0     H70863  10.005   2.467   1.776 -1.8920 -0.6704 -0.2315
  525MOL0     H70864   9.921   2.623   1.773  3.0860  0.9070 -0.5372
  525MOL0     H70865   9.818   2.540   1.994 -1.5495 -1.3928  0.3342
  525MOL0     H70866   9.924   2.390   1.983  1.6272 -0.8681 -2.5196
  525MOL0     H70867   9.822   2.317   1.780 -1.8618  1.8490 -2.7511
  525MOL0     H70868   9.710   2.459   1.799 -0.6546  0.0448 -0.3338
  525MOL0     H70869   9.733   2.213   1.982  2.5364  1.1681 -0.4831
  525MOL0     H70870   9.664   2.372   2.040  1.9040  0.5215  0.2810
  525MOL0     H70871   9.368   2.173   1.795 -2.1002  0.8207  3.6800
  525MOL0     H70872  10.115   2.659   1.625  1.6170 -0.4692  0.0334
  525MOL0     H70873  10.354   2.734   1.457 -2.1249 -2.6251  2.3854
  525MOL0     H70874  10.205   2.825   1.473  0.0111  3.0621 -0.1640
  525MOL0     H70875  10.361   2.900   1.507 -0.4236  0.0556 -0.1293
  526MOL0     O70876   1.185   8.650   1.769  0.4031  0.4222 -0.7537
  526MOL0     C70877   1.088   8.723   1.775 -0.2108  1.0593  0.4331
  526MOL0     O70878   1.004   8.738   1.881 -0.8038 -0.5307  0.1536
  526MOL0     C70879   1.010   8.658   1.990  0.3339 -0.2196  0.5618
  526MOL0     C70880   1.132   8.633   2.057  0.0184  0.9172  0.2178
  526MOL0     C70881   1.135   8.530   2.158  0.8769  0.6719  0.0056
  526MOL0     C70882   1.012   8.476   2.205 -1.0490 -0.1165  0.0892
  526MOL0     O70883   1.014   8.384   2.305 -0.0901 -0.3185  0.4006
  526MOL0     C70884   1.099   8.394   2.418 -0.0013 -1.0461  0.6554
  526MOL0     C70885   1.040   8.501   2.509 -0.2770 -0.3694 -0.2733
  526MOL0     C70886   0.887   8.481   2.542  0.1286  0.5458  0.5593
  526MOL0     C70887   0.866   8.350   2.620  0.6227  0.7049 -0.4579
  526MOL0     C70888   0.716   8.296   2.619  0.1269  0.3032  0.4042
  526MOL0     C70889   0.629   8.415   2.671  0.3243 -0.7089  0.9002
  526MOL0     C70890   0.480   8.384   2.693 -0.2709  0.5612  0.3611
  526MOL0     C70891   0.403   8.379   2.561 -0.3698 -0.2569  1.2759
  526MOL0     N70892   0.411   8.512   2.481 -0.9162  0.6441 -0.1281
  526MOL0     C70893   0.507   8.553   2.378 -0.0068  0.1445 -0.1510
  526MOL0     C70894   0.471   8.676   2.351 -0.3198 -1.0253 -0.2100
  526MOL0     C70895   0.527   8.764   2.249  0.9203 -0.1198 -0.7367
  526MOL0     C70896   0.657   8.822   2.309  0.6030 -0.8656  0.5861
  526MOL0     C70897   0.748   8.910   2.224  1.1752 -0.9781  0.2376
  526MOL0     C70898   0.875   8.970   2.292  0.1740  0.6866  0.6127
  526MOL0     O70899   0.847   9.039   2.413  0.9176  0.2114 -1.7447
  526MOL0     C70900   0.953   9.063   2.497 -0.3308  0.3838 -0.1401
  526MOL0     C70901   1.088   9.016   2.485 -0.5526 -0.4025  0.2712
  526MOL0     C70902   1.182   9.058   2.585  0.7508 -0.1681  1.0370
  526MOL0     C70903   1.142   9.144   2.691 -0.3620 -0.3586 -0.2658
  526MOL0     C70904   1.236   9.175   2.807 -0.3772 -0.4725  0.5750
  526MOL0     O70905   1.179   9.227   2.917 -0.1900  0.1402 -0.0519
  526MOL0     C70906   1.239   9.282   3.027 -0.4055 -0.0029  0.1291
  526MOL0     C70907   1.149   9.351   3.106 -0.3933  0.1505 -0.2907
  526MOL0     C70908   1.177   9.391   3.236  0.5112 -0.4199 -0.6407
  526MOL0     C70909   1.300   9.349   3.294  0.2858  0.5842  0.2019
  526MOL0     O70910   1.348   9.378   3.424 -0.1231 -0.7715  0.0433
  526MOL0     C70911   1.261   9.463   3.500 -0.3173  0.7201 -0.6063
  526MOL0     C70912   1.336   9.519   3.634  0.3086  1.0868  0.2601
  526MOL0     C70913   1.245   9.619   3.698  0.3120 -0.2380  0.2905
  526MOL0     C70914   1.146   9.541   3.792  0.0365  0.0581 -0.3574
  526MOL0     C70915   1.014   9.621   3.802  0.0370 -0.4968  0.2186
  526MOL0     C70916   0.942   9.620   3.669  0.6913  0.2443 -0.4742
  526MOL0     C70917   0.800   9.685   3.679  0.1531  0.2087 -0.2459
  526MOL0     C70918   0.759   9.785   3.570 -0.6883  1.2707  0.0266
  526MOL0    Cl70919   0.826   9.731   3.415  0.1885 -0.3209  0.1193
  526MOL0     C70920   1.379   9.264   3.216  0.2501  0.3007  1.1769
  526MOL0     C70921   1.355   9.225   3.083 -0.3940 -0.9021  0.2997
  526MOL0     O70922   1.356   9.141   2.794 -0.5848  0.7692 -0.8527
  526MOL0     C70923   1.012   9.184   2.700 -0.5936  0.3873 -0.6848
  526MOL0     C70924   0.919   9.147   2.603 -0.8347  0.3833 -0.4400
  526MOL0     N70925   0.351   8.703   2.419 -0.1089  0.3047  0.0997
  526MOL0     N70926   0.315   8.603   2.495 -0.9412  0.3683 -0.7193
  526MOL0     C70927   0.891   8.517   2.145  1.0635  0.4078 -0.4968
  526MOL0     C70928   0.891   8.605   2.033  0.0601  0.7167 -0.6104
  526MOL0     C70929   1.052   8.790   1.643 -0.6129  0.1450  0.1575
  526MOL0     C70930   1.147   8.790   1.543 -0.6996  0.7911  0.3053
  526MOL0     C70931   1.124   8.859   1.416  0.3747  0.1385  0.4545
  526MOL0     C70932   1.007   8.920   1.394 -0.3503 -0.1535 -0.3848
  526MOL0     O70933   0.971   8.993   1.282 -0.5525  0.4283  0.1205
  526MOL0     C70934   1.062   9.014   1.164  0.8551 -0.3303 -0.9044
  526MOL0     C70935   1.109   9.161   1.167  0.6236  0.3905  0.5362
  526MOL0     C70936   1.157   9.208   1.298  0.8444  0.1837  0.1800
  526MOL0     C70937   1.199   9.358   1.303  0.1667  0.5856 -0.6965
  526MOL0     C70938   1.317   9.396   1.230  0.1628 -0.8092 -0.8183
  526MOL0     C70939   1.413   9.436   1.173 -0.1342 -0.1387 -1.0221
  526MOL0     C70940   0.911   8.916   1.499 -1.3508  0.0301  0.1328
  526MOL0     C70941   0.928   8.846   1.615 -0.5751  0.6611  0.2944
  526MOL0     C70942   0.805   8.840   1.701 -0.2398  0.2476  0.0570
  526MOL0     H70943   1.223   8.679   2.022  0.9363 -1.0041 -0.0531
  526MOL0     H70944   1.233   8.505   2.198 -0.2109 -0.7851  1.9343
  526MOL0     H70945   1.101   8.298   2.470 -3.4729 -2.4780 -1.5315
  526MOL0     H70946   1.202   8.419   2.392  0.0878 -3.3745 -1.4658
  526MOL0     H70947   1.043   8.600   2.462 -0.3997  0.8122  2.0616
  526MOL0     H70948   1.099   8.514   2.600  1.0738  1.9782 -1.3977
  526MOL0     H70949   0.826   8.486   2.452  1.0002 -2.0658 -0.2559
  526MOL0     H70950   0.856   8.569   2.599  2.2550 -0.0048  2.7499
  526MOL0     H70951   0.920   8.266   2.575  0.3363 -1.2495  2.5431
  526MOL0     H70952   0.914   8.354   2.719 -0.4988 -1.5133  0.2322
  526MOL0     H70953   0.696   8.266   2.516 -0.7587  0.9689  0.3719
  526MOL0     H70954   0.709   8.203   2.676  0.0757  0.4469  0.6316
  526MOL0     H70955   0.677   8.432   2.768 -2.6907 -1.0665  2.5837
  526MOL0     H70956   0.649   8.505   2.613  2.2239 -1.5903  0.0801
  526MOL0     H70957   0.431   8.463   2.751 -1.7064  0.3093 -0.4827
  526MOL0     H70958   0.469   8.283   2.734 -3.5165  0.4743 -0.5009
  526MOL0     H70959   0.433   8.298   2.494 -3.0935 -1.3555  1.2889
  526MOL0     H70960   0.297   8.354   2.572 -0.3017 -1.9293 -1.1343
  526MOL0     H70961   0.588   8.494   2.336  0.4697  0.2116  0.6551
  526MOL0     H70962   0.549   8.702   2.161 -4.5594 -2.5656 -0.8131
  526MOL0     H70963   0.462   8.849   2.229 -0.7900 -0.1516  3.6148
  526MOL0     H70964   0.635   8.885   2.396  1.2361  1.8073 -1.0661
  526MOL0     H70965   0.724   8.743   2.342 -0.0914 -1.5076  0.4940
  526MOL0     H70966   0.693   8.993   2.178  0.6935 -1.5741 -0.2870
  526MOL0     H70967   0.777   8.856   2.134 -3.1280 -3.2476 -0.0410
  526MOL0     H70968   0.945   9.032   2.234  0.4348  0.1733  0.3711
  526MOL0     H70969   0.928   8.876   2.309  2.6010  0.8268 -4.2454
  526MOL0     H70970   1.118   8.954   2.401  2.3977 -0.8396  1.5217
  526MOL0     H70971   1.286   9.031   2.576  0.5709 -0.2420 -1.8124
  526MOL0     H70972   1.052   9.365   3.059 -2.1997 -2.9119  2.1024
  526MOL0     H70973   1.106   9.452   3.293  2.5293  2.3686 -0.9050
  526MOL0     H70974   1.227   9.548   3.440 -0.0486 -0.6518 -2.7979
  526MOL0     H70975   1.166   9.420   3.532 -0.1484 -0.5137 -1.7024
  526MOL0     H70976   1.358   9.436   3.702 -0.0093 -2.4598 -3.5367
  526MOL0     H70977   1.437   9.554   3.609  1.4990 -2.1139  0.0240
  526MOL0     H70978   1.302   9.685   3.763 -2.4682  2.4561  0.2050
  526MOL0     H70979   1.192   9.683   3.627 -0.9184  0.1684  1.5454
  526MOL0     H70980   1.184   9.545   3.895 -2.2676  1.6911  0.5065
  526MOL0     H70981   1.129   9.443   3.748  0.1142  1.1862 -3.1097
  526MOL0     H70982   1.044   9.722   3.832  0.3841 -1.0064  1.6368
  526MOL0     H70983   0.943   9.579   3.874  0.5794  0.9596  1.6788
  526MOL0     H70984   0.999   9.675   3.594  2.1892 -2.8885 -1.8138
  526MOL0     H70985   0.923   9.515   3.643  1.3528 -0.1716  0.6155
  526MOL0     H70986   0.784   9.727   3.779  2.6327 -1.1636  0.7857
  526MOL0     H70987   0.734   9.598   3.668 -1.1369  1.4500 -4.1760
  526MOL0     H70988   0.653   9.810   3.572 -0.6809  1.3395 -0.3906
  526MOL0     H70989   0.814   9.877   3.595  3.7041 -0.7993 -1.0140
  526MOL0     H70990   1.472   9.222   3.254  0.6842 -1.0293 -1.1740
  526MOL0     H70991   1.414   9.154   3.026 -2.1610 -1.1897 -1.2634
  526MOL0     H70992   0.988   9.245   2.787  1.9027 -3.4452  3.0659
  526MOL0     H70993   0.819   9.187   2.616  0.3668  2.6311  3.7671
  526MOL0     H70994   0.803   8.485   2.198  1.2372  0.6297 -0.0679
  526MOL0     H70995   0.795   8.641   1.998 -0.8080 -0.8437  0.0497
  526MOL0     H70996   1.243   8.741   1.558 -0.1228  2.0478  0.7868
  526MOL0     H70997   1.211   8.861   1.351 -1.2797 -2.9020 -2.0939
  526MOL0     H70998   1.010   8.986   1.072  1.7596  0.1245 -1.5735
  526MOL0     H70999   1.149   8.947   1.159 -1.5010 -3.7183 -6.9071
  526MOL0     H71000   1.013   9.212   1.154  1.1327  1.9893  2.6418
  526MOL0     H71001   1.174   9.192   1.085  1.5270  3.2002  2.1753
  526MOL0     H71002   1.241   9.142   1.323  0.4059 -0.5551 -0.2432
  526MOL0     H71003   1.074   9.193   1.368  0.5545 -0.4169 -0.2805
  526MOL0     H71004   1.116   9.417   1.264 -1.9961 -3.0830 -2.0976
  526MOL0     H71005   1.205   9.382   1.410 -0.1356  0.7228 -0.7089
  526MOL0     H71006   1.504   9.473   1.130  0.2405 -0.5446 -0.6016
  526MOL0     H71007   0.825   8.977   1.475  0.0564  0.6726 -4.1681
  526MOL0     H71008   0.798   8.734   1.730  1.3079 -0.5412 -2.2315
  526MOL0     H71009   0.820   8.898   1.793 -1.2294 -1.4664  1.3783
  526MOL0     H71010   0.712   8.861   1.647 -2.8818 -4.6611  1.9795
  527MOL0     O71011   0.663   0.402   1.618 -0.1005 -0.9506 -0.2101
  527MOL0     C71012   0.669   0.357   1.733 -0.3074  0.1052 -0.4232
  527MOL0     O71013   0.567   0.306   1.813  0.0312 -0.8234  0.9471
  527MOL0     C71014   0.442   0.303   1.753  0.1821  1.1252  0.0674
  527MOL0     C71015   0.374   0.187   1.699 -0.1304 -1.2060 -0.4285
  527MOL0     C71016   0.241   0.187   1.658 -0.4070  0.4940 -0.2490
  527MOL0     C71017   0.169   0.309   1.640  0.2237  0.8409 -0.7924
  527MOL0     O71018   0.038   0.305   1.593 -0.1495 -0.7089 -0.6311
  527MOL0     C71019  -0.051   0.408   1.641  0.2377  0.2128  0.9650
  527MOL0     C71020  -0.195   0.375   1.629  0.0651 -0.2683  0.0926
  527MOL0     C71021  -0.234   0.279   1.515 -0.0408 -0.0032 -0.2627
  527MOL0     C71022  -0.219   0.349   1.370 -0.1361 -0.2848 -0.6951
  527MOL0     C71023  -0.252   0.235   1.263  0.2910 -1.0552  0.7291
  527MOL0     C71024  -0.229   0.276   1.121 -0.1788  0.8169 -0.6638
  527MOL0     C71025  -0.089   0.344   1.103  0.0379  0.5123  0.2015
  527MOL0     C71026  -0.074   0.390   0.959 -0.9682 -0.2861  0.4393
  527MOL0     N71027   0.067   0.438   0.943  0.0344  0.1765  0.8756
  527MOL0     C71028   0.172   0.352   0.915  0.1362  0.2837  0.8817
  527MOL0     C71029   0.284   0.431   0.898  0.2836  0.3918  0.2537
  527MOL0     C71030   0.435   0.402   0.893  0.2004 -0.3522 -0.5599
  527MOL0     C71031   0.524   0.482   0.997  0.1780 -0.4297  0.3241
  527MOL0     C71032   0.483   0.464   1.147  0.5939 -0.4543  0.5311
  527MOL0     C71033   0.571   0.371   1.233  0.7167 -0.1403 -0.3701
  527MOL0     O71034   0.562   0.237   1.191  0.7607 -0.2254 -0.6969
  527MOL0     C71035   0.449   0.168   1.225  0.2928 -0.0272  0.9957
  527MOL0     C71036   0.435   0.043   1.169  0.0156  0.0006  0.7088
  527MOL0     C71037   0.321  -0.036   1.185  1.4196 -0.0981 -0.4036
  527MOL0     C71038   0.212   0.003   1.267 -0.6531  0.1212  0.0030
  527MOL0     C71039   0.085  -0.083   1.287  1.4165  0.4778  1.0812
  527MOL0     O71040   0.096  -0.212   1.251 -0.3790  0.3092  0.2571
  527MOL0     C71041  -0.024  -0.285   1.212  0.0989  1.3984  0.5693
  527MOL0     C71042  -0.025  -0.331   1.080 -0.1582 -0.8299  0.5287
  527MOL0     C71043  -0.127  -0.410   1.033  0.3937 -0.1956  0.4342
  527MOL0     C71044  -0.246  -0.434   1.114 -0.3227 -0.1920  0.4969
  527MOL0     O71045  -0.342  -0.502   1.058  0.1496  0.8039  0.2937
  527MOL0     C71046  -0.426  -0.580   1.149  0.8176  0.6708 -0.0063
  527MOL0     C71047  -0.538  -0.676   1.079 -0.2931  0.8830 -0.1057
  527MOL0     C71048  -0.654  -0.602   1.001 -0.6541 -0.4042  0.3178
  527MOL0     C71049  -0.744  -0.690   0.925 -0.6351  0.1793 -0.8717
  527MOL0     C71050  -0.863  -0.607   0.867  0.3015  1.1125 -0.5978
  527MOL0     C71051  -0.964  -0.690   0.789  0.7596  0.4769 -0.2707
  527MOL0     C71052  -1.032  -0.598   0.680  0.3180  0.2539  0.3163
  527MOL0     C71053  -1.163  -0.655   0.648 -0.6404 -0.0428 -0.0577
  527MOL0    Cl71054  -1.211  -0.552   0.495 -0.1756  0.2443 -0.0091
  527MOL0     C71055  -0.243  -0.384   1.245 -0.6559  0.3139  0.0168
  527MOL0     C71056  -0.131  -0.310   1.295  0.2761  0.5863 -0.6154
  527MOL0     O71057  -0.018  -0.026   1.329  0.8865 -0.0501  0.0474
  527MOL0     C71058   0.223   0.132   1.321  0.7961  1.1806 -0.2368
  527MOL0     C71059   0.344   0.201   1.311  0.2615 -0.1496  0.0575
  527MOL0     N71060   0.229   0.560   0.894  0.1979 -0.0755  0.0345
  527MOL0     N71061   0.100   0.565   0.917 -0.1428  0.1603 -0.1889
  527MOL0     C71062   0.233   0.429   1.686  0.0950 -1.3169  0.6158
  527MOL0     C71063   0.373   0.427   1.734 -0.3086  0.2884 -0.2303
  527MOL0     C71064   0.798   0.387   1.800 -0.5453 -0.1691 -1.2624
  527MOL0     C71065   0.895   0.471   1.736  0.8255  0.4005  0.5149
  527MOL0     C71066   1.005   0.531   1.786  0.2200  0.0613 -0.3979
  527MOL0     C71067   1.039   0.493   1.916 -0.4859 -0.3642  0.5609
  527MOL0     O71068   1.147   0.525   1.998  0.0130 -1.1517  0.0962
  527MOL0     C71069   1.257   0.582   1.926 -0.3886  0.3295  0.9653
  527MOL0     C71070   1.326   0.499   1.823 -0.3899  0.9808  0.6966
  527MOL0     C71071   1.394   0.381   1.896 -0.5619  0.7464  0.6526
  527MOL0     C71072   1.448   0.271   1.803 -0.7709  0.4608 -0.2049
  527MOL0     C71073   1.335   0.210   1.732 -0.3794  0.7011 -0.5226
  527MOL0     C71074   1.237   0.168   1.670  0.5943  0.5548 -0.2388
  527MOL0     C71075   0.950   0.413   1.986 -0.9764  0.5859 -0.2200
  527MOL0     C71076   0.832   0.356   1.934  0.6640 -0.8357  0.2927
  527MOL0     C71077   0.761   0.247   2.018  0.4342 -0.4835  0.1273
  527MOL0     H71078   0.422   0.091   1.717  5.2517  1.1178 -0.5288
  527MOL0     H71079   0.198   0.089   1.637  0.9226  0.1474 -1.4767
  527MOL0     H71080  -0.025   0.442   1.742 -2.8981 -2.0267  2.6970
  527MOL0     H71081  -0.023   0.496   1.581  2.1356 -0.1361  1.2686
  527MOL0     H71082  -0.254   0.467   1.622  1.2397  0.4839 -0.0659
  527MOL0     H71083  -0.219   0.322   1.722  1.0422 -0.6084  0.1651
  527MOL0     H71084  -0.340   0.258   1.532 -0.7178  2.1083 -1.4466
  527MOL0     H71085  -0.170   0.190   1.512 -0.5632 -0.6264  3.4445
  527MOL0     H71086  -0.289   0.433   1.361 -2.6965 -2.0361  1.4707
  527MOL0     H71087  -0.119   0.394   1.367 -0.7122  1.5047  2.4055
  527MOL0     H71088  -0.187   0.150   1.287  0.3147 -1.2391  0.0374
  527MOL0     H71089  -0.358   0.210   1.269  0.0709 -0.1787  0.6023
  527MOL0     H71090  -0.247   0.191   1.056  0.6384 -0.5760  0.8471
  527MOL0     H71091  -0.300   0.349   1.082 -0.9380 -0.5159 -1.8186
  527MOL0     H71092  -0.006   0.277   1.123 -0.1165 -0.9767 -3.4255
  527MOL0     H71093  -0.085   0.433   1.168  0.9551  0.9759 -0.4742
  527MOL0     H71094  -0.098   0.312   0.887 -1.2911  0.1340  0.0872
  527MOL0     H71095  -0.144   0.474   0.949 -0.3580  0.0383 -1.5232
  527MOL0     H71096   0.169   0.243   0.918  1.6252  0.0942 -1.5674
  527MOL0     H71097   0.445   0.296   0.915 -0.2441 -0.4537 -0.8515
  527MOL0     H71098   0.466   0.416   0.789 -3.7278  0.4479 -1.7698
  527MOL0     H71099   0.629   0.451   0.996  1.5297  3.1713  4.1365
  527MOL0     H71100   0.523   0.587   0.968  2.9009 -1.6196 -5.5387
  527MOL0     H71101   0.380   0.427   1.156 -0.4255  1.6461 -1.5465
  527MOL0     H71102   0.488   0.559   1.200 -0.6183  0.1878 -0.4634
  527MOL0     H71103   0.539   0.385   1.337 -1.4940  3.3503 -1.3058
  527MOL0     H71104   0.677   0.397   1.241  0.7152 -0.7434  2.7981
  527MOL0     H71105   0.507  -0.005   1.105  1.0113  1.2102  0.8764
  527MOL0     H71106   0.315  -0.132   1.136  1.4192 -1.7238  2.5963
  527MOL0     H71107   0.057  -0.302   1.016 -1.6688  3.4590  0.1505
  527MOL0     H71108  -0.133  -0.445   0.930  1.9173 -3.2938  1.3026
  527MOL0     H71109  -0.366  -0.641   1.216  0.0834 -0.6698 -0.5364
  527MOL0     H71110  -0.479  -0.509   1.214 -3.0179  0.3283 -2.4240
  527MOL0     H71111  -0.478  -0.733   1.008 -0.9267  0.3931 -0.2668
  527MOL0     H71112  -0.593  -0.737   1.151 -1.5346  1.3861 -0.5980
  527MOL0     H71113  -0.710  -0.532   1.063  1.2392  0.3242  1.2637
  527MOL0     H71114  -0.603  -0.539   0.929  0.2316 -2.1952 -0.6993
  527MOL0     H71115  -0.779  -0.769   0.993 -1.8807  0.2171 -1.4510
  527MOL0     H71116  -0.692  -0.746   0.846 -1.1709  0.5444 -1.4888
  527MOL0     H71117  -0.823  -0.530   0.801 -1.1265  2.4278 -0.0075
  527MOL0     H71118  -0.918  -0.558   0.949 -1.1367 -1.0863 -0.1728
  527MOL0     H71119  -0.919  -0.772   0.733 -0.1678  1.7293 -2.9776
  527MOL0     H71120  -1.042  -0.727   0.856  1.9419 -1.0151  0.3413
  527MOL0     H71121  -0.982  -0.600   0.583 -3.5755 -0.0163 -1.8833
  527MOL0     H71122  -1.046  -0.492   0.705 -0.9298  0.8369 -2.4592
  527MOL0     H71123  -1.159  -0.760   0.618 -0.1492  0.6866 -2.8500
  527MOL0     H71124  -1.238  -0.631   0.724  0.1900  6.2828 -0.6823
  527MOL0     H71125  -0.325  -0.397   1.315  0.1828 -0.3044  0.9169
  527MOL0     H71126  -0.133  -0.269   1.396  0.6589  2.6525 -1.4097
  527MOL0     H71127   0.134   0.180   1.362 -1.4906 -1.7548 -1.4210
  527MOL0     H71128   0.343   0.299   1.358  0.5705  1.0036 -2.1888
  527MOL0     H71129   0.183   0.525   1.684  0.4808 -1.1114  0.7600
  527MOL0     H71130   0.415   0.527   1.739  1.7461 -0.4149 -1.8038
  527MOL0     H71131   0.865   0.492   1.633  1.8251  0.8956  0.3114
  527MOL0     H71132   1.077   0.597   1.741  1.5839 -0.7719  0.4883
  527MOL0     H71133   1.322   0.624   2.003 -1.9731  3.7898  0.6063
  527MOL0     H71134   1.217   0.672   1.877 -2.8829 -1.1019  0.2013
  527MOL0     H71135   1.394   0.571   1.776 -1.1845  0.3692 -1.4862
  527MOL0     H71136   1.262   0.464   1.742  0.6808  0.6632 -0.0177
  527MOL0     H71137   1.327   0.335   1.969  2.4368 -0.5619  2.8061
  527MOL0     H71138   1.479   0.418   1.954  0.0177  1.8167 -0.8351
  527MOL0     H71139   1.510   0.303   1.719 -4.0839 -0.5366 -3.2762
  527MOL0     H71140   1.497   0.190   1.857 -2.1298  0.0593  0.4779
  527MOL0     H71141   1.154   0.121   1.621 -0.7585  2.7300 -0.1501
  527MOL0     H71142   0.987   0.387   2.085  0.4027 -0.9386 -1.0907
  527MOL0     H71143   0.690   0.296   2.086 -0.8902  0.2740 -1.7102
  527MOL0     H71144   0.713   0.177   1.950 -1.6012  2.8569 -2.1655
  527MOL0     H71145   0.831   0.192   2.082 -2.4260 -0.5832  3.4713
  528MOL0     O71146   5.516   1.959   7.736  0.3053 -0.3349 -0.7951
  528MOL0     C71147   5.427   1.874   7.731  0.0975  0.0172 -0.2308
  528MOL0     O71148   5.423   1.755   7.802 -0.3763  0.1962 -0.2638
  528MOL0     C71149   5.494   1.745   7.921  0.4824  0.0152 -0.1437
  528MOL0     C71150   5.636   1.750   7.931 -0.1420  0.1686 -0.5796
  528MOL0     C71151   5.699   1.770   8.058 -0.6860  0.2221  0.0317
  528MOL0     C71152   5.627   1.766   8.173 -0.0068 -0.9193 -0.4304
  528MOL0     O71153   5.706   1.771   8.290 -0.3425 -0.5275 -0.2020
  528MOL0     C71154   5.642   1.831   8.404  0.2150  0.1603 -0.0843
  528MOL0     C71155   5.753   1.893   8.497 -0.0721  0.3890 -0.1924
  528MOL0     C71156   5.821   1.773   8.573 -1.0004 -0.8384  0.0576
  528MOL0     C71157   5.924   1.840   8.676  0.3171 -0.8001  0.6240
  528MOL0     C71158   5.982   1.748   8.777 -0.1442  0.0323  0.3603
  528MOL0     C71159   6.083   1.829   8.866  0.2604  0.3415 -0.3997
  528MOL0     C71160   6.132   1.746   8.984 -0.0313  0.3852 -0.0995
  528MOL0     C71161   6.250   1.823   9.046 -0.3044  0.1267 -0.0034
  528MOL0     N71162   6.284   1.769   9.178  0.7500  1.0908  0.5261
  528MOL0     C71163   6.331   1.848   9.281  0.2600  0.0701  0.6954
  528MOL0     C71164   6.352   1.769   9.385 -0.2940  0.7088 -0.1628
  528MOL0     C71165   6.428   1.829   9.502 -0.5807 -0.3060 -0.4559
  528MOL0     C71166   6.483   1.728   9.618  1.1221  0.0947  0.9505
  528MOL0     C71167   6.587   1.781   9.713  1.3229  0.6786 -0.2970
  528MOL0     C71168   6.544   1.890   9.815  0.8510 -0.4606  0.1055
  528MOL0     O71169   6.656   1.935   9.896  0.7555  0.7462 -0.1432
  528MOL0     C71170   6.630   2.025   9.998  0.5455 -0.0339 -0.9530
  528MOL0     C71171   6.508   2.064  10.048  0.0573  0.0485  0.7560
  528MOL0     C71172   6.495   2.140  10.160 -0.5967  0.7323 -0.8610
  528MOL0     C71173   6.605   2.166  10.256  0.6464  0.3956  0.7193
  528MOL0     C71174   6.583   2.229  10.386  0.1639 -0.3324 -0.1481
  528MOL0     O71175   6.454   2.270  10.420  0.0159 -0.4642  0.4858
  528MOL0     C71176   6.414   2.347  10.531 -0.2548  0.1941  0.4224
  528MOL0     C71177   6.489   2.412  10.629  0.6156 -0.0319 -0.3737
  528MOL0     C71178   6.417   2.461  10.734 -0.0751 -0.0913  0.1467
  528MOL0     C71179   6.270   2.470  10.742 -0.5426 -0.4828 -0.5793
  528MOL0     O71180   6.218   2.537  10.853 -0.1116  0.5579 -0.1650
  528MOL0     C71181   6.121   2.467  10.929  0.0905 -0.0396 -0.0107
  528MOL0     C71182   6.097   2.534  11.061 -0.5131 -0.0214  0.8381
  528MOL0     C71183   5.964   2.501  11.123  0.1767  0.6164 -0.0431
  528MOL0     C71184   5.955   2.595  11.235 -0.5576  0.0279  0.3001
  528MOL0     C71185   5.840   2.551  11.335 -0.2748 -0.0721  0.4612
  528MOL0     C71186   5.726   2.652  11.345 -0.7703  0.1527 -0.3518
  528MOL0     C71187   5.608   2.607  11.435 -0.6117  0.9274 -0.1901
  528MOL0     C71188   5.493   2.697  11.416 -0.2788  0.1976 -0.0143
  528MOL0    Cl71189   5.374   2.679  11.557 -0.0168 -0.3115 -0.1154
  528MOL0     C71190   6.200   2.406  10.644 -0.5479  0.5784  0.4595
  528MOL0     C71191   6.264   2.347  10.533 -1.2772  0.0494 -0.8234
  528MOL0     O71192   6.681   2.238  10.459 -0.2293  0.8590 -0.5555
  528MOL0     C71193   6.728   2.128  10.211 -0.4130  0.1658  0.6360
  528MOL0     C71194   6.740   2.060  10.083 -0.2654 -0.5466  0.4949
  528MOL0     N71195   6.303   1.642   9.358  0.5690 -0.2163  0.1672
  528MOL0     N71196   6.269   1.645   9.236  0.3084  0.2320  0.6041
  528MOL0     C71197   5.486   1.750   8.168 -0.9312  0.7064  0.0953
  528MOL0     C71198   5.424   1.747   8.042 -0.3250  0.1107  0.2541
  528MOL0     C71199   5.312   1.903   7.645  0.7415  0.3964 -0.5028
  528MOL0     C71200   5.253   2.034   7.653 -0.2289  1.0846 -0.7251
  528MOL0     C71201   5.147   2.066   7.554 -0.1266 -0.7483  1.4357
  528MOL0     C71202   5.089   1.960   7.480  0.2896 -0.9725 -0.3453
  528MOL0     O71203   4.971   2.004   7.425  0.4657 -0.0475 -0.6177
  528MOL0     C71204   4.915   1.929   7.318 -0.1326 -0.4872 -0.5386
  528MOL0     C71205   4.799   1.985   7.231  0.1646 -0.3170 -0.0497
  528MOL0     C71206   4.688   2.058   7.303 -0.4924 -0.5078 -0.1987
  528MOL0     C71207   4.598   1.958   7.383  0.4288  0.8281 -0.9016
  528MOL0     C71208   4.518   1.874   7.302  0.1383  0.0980  0.7253
  528MOL0     C71209   4.447   1.802   7.245 -0.1910  1.0447  0.2640
  528MOL0     C71210   5.151   1.837   7.482 -0.1706  0.4265 -0.1359
  528MOL0     C71211   5.271   1.812   7.551 -0.5976  0.3013 -0.1498
  528MOL0     C71212   5.343   1.676   7.521  0.6477 -1.3569 -0.0776
  528MOL0     H71213   5.703   1.740   7.847  1.4443 -0.2484  0.6818
  528MOL0     H71214   5.806   1.784   8.069 -0.4695 -2.9132  3.7969
  528MOL0     H71215   5.574   1.909   8.370 -2.5792 -1.1761  2.0257
  528MOL0     H71216   5.583   1.754   8.454 -1.9347 -0.2651 -3.0252
  528MOL0     H71217   5.710   1.973   8.558 -0.7242  0.1255 -0.2912
  528MOL0     H71218   5.837   1.936   8.443  0.3336  0.9978  0.8877
  528MOL0     H71219   5.870   1.701   8.507  0.0151 -1.9057  1.8867
  528MOL0     H71220   5.748   1.711   8.625 -1.6100 -1.0279 -1.0110
  528MOL0     H71221   5.993   1.904   8.620 -1.8527  1.4588  0.3552
  528MOL0     H71222   5.859   1.909   8.730 -1.6490  0.1512 -2.6789
  528MOL0     H71223   5.910   1.698   8.842 -1.9898  1.6756 -0.3163
  528MOL0     H71224   6.018   1.657   8.729 -1.4013 -2.5557  3.9620
  528MOL0     H71225   6.169   1.851   8.801  1.0949  2.5130  1.3427
  528MOL0     H71226   6.047   1.923   8.907  1.0049  0.6572 -0.4490
  528MOL0     H71227   6.156   1.644   8.954  1.3519  0.7210 -0.2136
  528MOL0     H71228   6.054   1.745   9.060 -0.9408  1.2623 -0.9974
  528MOL0     H71229   6.324   1.805   8.968 -1.8578  0.8247 -1.7185
  528MOL0     H71230   6.230   1.930   9.057 -0.6134  0.4203 -2.6757
  528MOL0     H71231   6.368   1.950   9.270  0.6787  0.0125  1.5076
  528MOL0     H71232   6.521   1.876   9.469 -0.4823  0.3400  0.7139
  528MOL0     H71233   6.358   1.898   9.550  0.5625 -0.2907  1.2387
  528MOL0     H71234   6.393   1.699   9.672 -0.7729  0.5618 -1.7805
  528MOL0     H71235   6.536   1.642   9.576 -1.0162 -0.9905  0.3747
  528MOL0     H71236   6.661   1.821   9.643  0.9093  0.7957 -0.6717
  528MOL0     H71237   6.640   1.704   9.770  2.0945  2.9008  2.2297
  528MOL0     H71238   6.455   1.863   9.874 -0.5537  0.6218 -1.4050
  528MOL0     H71239   6.512   1.975   9.754  2.8547 -0.5119 -1.0949
  528MOL0     H71240   6.416   2.059   9.990  1.7029  2.8533 -2.4070
  528MOL0     H71241   6.403   2.180  10.202  0.0384 -1.7648  3.5328
  528MOL0     H71242   6.597   2.400  10.630  0.7541  1.1009  1.1697
  528MOL0     H71243   6.482   2.499  10.812  0.8289 -0.0974 -0.5786
  528MOL0     H71244   6.027   2.454  10.876 -0.0644  1.5279 -0.1688
  528MOL0     H71245   6.161   2.365  10.939 -0.0682 -0.3099 -1.8052
  528MOL0     H71246   6.175   2.502  11.131 -0.0301 -2.5370 -0.7243
  528MOL0     H71247   6.102   2.641  11.037  0.1473 -0.2656 -0.1637
  528MOL0     H71248   5.876   2.529  11.065  0.5786  2.3768  0.1219
  528MOL0     H71249   5.965   2.397  11.157  3.7707 -0.9529 -4.0083
  528MOL0     H71250   5.931   2.696  11.200 -0.1583 -1.2782 -4.3605
  528MOL0     H71251   6.047   2.597  11.293  0.0900  0.2265 -0.7185
  528MOL0     H71252   5.882   2.536  11.435  2.6169  0.0077 -0.6578
  528MOL0     H71253   5.798   2.456  11.301 -0.1705 -0.0869  0.3741
  528MOL0     H71254   5.773   2.738  11.394  0.9831 -0.6125 -0.6265
  528MOL0     H71255   5.678   2.677  11.250  0.1004  1.6692 -0.4361
  528MOL0     H71256   5.642   2.605  11.539 -2.8552 -1.3854  0.6235
  528MOL0     H71257   5.574   2.503  11.428  2.7908 -0.2360 -1.3005
  528MOL0     H71258   5.522   2.802  11.402  0.4399 -0.1313 -1.1725
  528MOL0     H71259   5.443   2.664  11.324  0.2163 -0.1020 -0.1778
  528MOL0     H71260   6.092   2.414  10.635 -0.5995 -1.2377 -1.1993
  528MOL0     H71261   6.189   2.300  10.470 -1.9466 -1.1046  0.7838
  528MOL0     H71262   6.821   2.146  10.263 -0.5179 -1.4530  1.4605
  528MOL0     H71263   6.834   2.024  10.044  0.2017  1.6236 -0.5334
  528MOL0     H71264   5.428   1.722   8.255 -2.0096 -1.9865 -1.3668
  528MOL0     H71265   5.317   1.746   8.024 -0.0580  1.9669 -1.9026
  528MOL0     H71266   5.282   2.118   7.716 -0.0074  2.1255 -2.1535
  528MOL0     H71267   5.118   2.170   7.551  0.5770 -0.5492 -1.4830
  528MOL0     H71268   4.890   1.830   7.357 -3.1869  0.6117  0.5735
  528MOL0     H71269   4.997   1.930   7.245  1.7666  2.4384  1.3923
  528MOL0     H71270   4.764   1.908   7.162  1.0355 -0.3934 -0.4224
  528MOL0     H71271   4.851   2.051   7.161 -1.0596  0.3010 -0.3929
  528MOL0     H71272   4.630   2.114   7.229  1.6908  1.3622 -0.6237
  528MOL0     H71273   4.720   2.134   7.376 -0.8178 -0.7265  0.1764
  528MOL0     H71274   4.647   1.895   7.457  1.4169  0.0453 -2.1618
  528MOL0     H71275   4.519   2.001   7.445  1.0161  0.8140 -0.1321
  528MOL0     H71276   4.385   1.738   7.186  0.7028  2.0777 -1.9025
  528MOL0     H71277   5.119   1.758   7.415  1.1334  0.4818 -0.8658
  528MOL0     H71278   5.253   1.615   7.507 -0.4008 -0.8768  3.4729
  528MOL0     H71279   5.401   1.687   7.429  0.4132 -1.6967 -0.2702
  528MOL0     H71280   5.408   1.642   7.602  0.8926 -1.3826 -0.2825
  529MOL0     O71281   5.758   2.528   8.229 -0.5237 -0.2031 -0.8807
  529MOL0     C71282   5.752   2.647   8.278  0.6792  1.2444  0.7086
  529MOL0     O71283   5.814   2.750   8.228 -0.2845  0.0488  0.4959
  529MOL0     C71284   5.860   2.754   8.096  0.3873 -1.1061 -0.9101
  529MOL0     C71285   5.982   2.700   8.066  0.1247  0.8783 -0.5721
  529MOL0     C71286   6.040   2.685   7.940 -0.8003 -0.7688  0.9001
  529MOL0     C71287   5.964   2.741   7.827  0.4569  0.8536  0.4064
  529MOL0     O71288   6.010   2.732   7.692  0.0761 -0.1700  0.0474
  529MOL0     C71289   5.937   2.804   7.595  0.4061  0.1060  0.6278
  529MOL0     C71290   6.027   2.841   7.469  0.1861  0.6455 -0.1297
  529MOL0     C71291   5.939   2.915   7.359 -0.5040 -1.0153  0.7598
  529MOL0     C71292   6.025   2.961   7.234 -0.8712  0.9668 -0.7586
  529MOL0     C71293   5.950   3.019   7.119 -0.2860  0.6532  0.3173
  529MOL0     C71294   5.846   3.139   7.135  0.7046  0.9716  0.5429
  529MOL0     C71295   5.910   3.251   7.209  0.7599 -1.0526 -0.1260
  529MOL0     C71296   5.855   3.392   7.174 -0.0326  0.2830 -0.5632
  529MOL0     N71297   5.947   3.505   7.178 -0.4372 -1.0656 -0.0156
  529MOL0     C71298   6.078   3.503   7.209 -0.4835 -0.1093  0.7191
  529MOL0     C71299   6.130   3.623   7.187  0.4951 -0.2092 -0.6536
  529MOL0     C71300   6.264   3.690   7.218 -0.9750 -0.6713 -0.6061
  529MOL0     C71301   6.369   3.669   7.105 -0.3138 -0.3406 -0.2944
  529MOL0     C71302   6.484   3.765   7.089  0.2363 -0.1479  0.3002
  529MOL0     C71303   6.573   3.737   6.976  0.4996 -0.1596  0.5454
  529MOL0     O71304   6.643   3.853   6.959  0.6682  0.3364  0.0101
  529MOL0     C71305   6.755   3.854   6.881 -0.6387  0.1291  0.6468
  529MOL0     C71306   6.757   3.789   6.754 -0.0048  0.0333 -0.1487
  529MOL0     C71307   6.870   3.794   6.672  0.1939 -0.8107 -0.5598
  529MOL0     C71308   6.982   3.868   6.717 -0.2438  0.1088  0.3686
  529MOL0     C71309   7.109   3.855   6.646 -0.1555  0.6653  0.6588
  529MOL0     O71310   7.227   3.904   6.698 -0.4874 -0.7227  0.1308
  529MOL0     C71311   7.344   3.908   6.610 -0.2013 -0.3498  0.7716
  529MOL0     C71312   7.423   3.802   6.590  0.2522 -0.0137 -0.1036
  529MOL0     C71313   7.528   3.812   6.494  0.1647 -0.4015 -0.1696
  529MOL0     C71314   7.572   3.945   6.454  0.1081  0.2549 -0.1457
  529MOL0     O71315   7.672   3.983   6.359  0.7364 -0.2210  0.3644
  529MOL0     C71316   7.753   3.890   6.287  0.0719  0.7588  0.2928
  529MOL0     C71317   7.885   3.852   6.358 -1.0230  0.1516 -0.5969
  529MOL0     C71318   7.866   3.821   6.505 -1.0423  0.1737 -0.5659
  529MOL0     C71319   7.982   3.837   6.604 -0.1677  0.1914 -0.6290
  529MOL0     C71320   8.112   3.760   6.566  0.5556  0.4944  0.8292
  529MOL0     C71321   8.215   3.773   6.670  0.7716 -0.3671  0.0773
  529MOL0     C71322   8.327   3.677   6.654  0.4313 -0.9087 -0.5753
  529MOL0     C71323   8.452   3.740   6.714  0.1958  1.4314 -0.2084
  529MOL0    Cl71324   8.585   3.630   6.697 -0.4125 -0.5136  0.0209
  529MOL0     C71325   7.487   4.057   6.483 -1.3254  0.0430  0.4318
  529MOL0     C71326   7.378   4.038   6.557 -0.2277  0.8121 -0.1889
  529MOL0     O71327   7.104   3.805   6.535  0.4282  0.5195 -0.3031
  529MOL0     C71328   6.981   3.920   6.841 -0.3869 -0.4428 -0.6853
  529MOL0     C71329   6.875   3.911   6.929 -0.1703  0.8502 -0.7463
  529MOL0     N71330   6.032   3.683   7.109  0.2458 -0.3764 -0.6236
  529MOL0     N71331   5.927   3.606   7.104  0.6808  0.6363  0.2789
  529MOL0     C71332   5.833   2.788   7.856 -1.6782  0.1303 -0.9548
  529MOL0     C71333   5.778   2.783   7.984  0.9020  0.3166 -0.4560
  529MOL0     C71334   5.661   2.677   8.389  0.4141 -0.3441 -0.2583
  529MOL0     C71335   5.611   2.806   8.389 -0.2917 -0.0561  0.4913
  529MOL0     C71336   5.515   2.850   8.473  0.4025 -0.2739 -0.1357
  529MOL0     C71337   5.470   2.775   8.585 -0.2320  0.3440 -0.2854
  529MOL0     O71338   5.400   2.834   8.698  0.0198  0.5154 -0.2309
  529MOL0     C71339   5.450   2.809   8.827 -0.0126 -0.1029  0.0123
  529MOL0     C71340   5.593   2.868   8.845 -0.7713  0.1925  0.1783
  529MOL0     C71341   5.606   3.025   8.843  0.1724 -0.2471 -0.3316
  529MOL0     C71342   5.645   3.070   8.976 -0.1040  0.3625  0.7530
  529MOL0     C71343   5.780   3.036   9.030  0.4619  0.0020 -0.7324
  529MOL0     C71344   5.884   3.013   9.090  0.5954  0.4259  0.2909
  529MOL0     C71345   5.538   2.650   8.596 -1.0724 -0.1241  0.1286
  529MOL0     C71346   5.627   2.596   8.498 -0.1798 -0.2539 -0.5298
  529MOL0     C71347   5.688   2.464   8.527 -0.2259  0.1139  0.1722
  529MOL0     H71348   6.045   2.653   8.141 -1.3901 -3.2579 -1.6639
  529MOL0     H71349   6.140   2.645   7.925 -0.5742  0.9795 -4.0471
  529MOL0     H71350   5.854   2.751   7.547 -2.0158  1.0875  3.5257
  529MOL0     H71351   5.900   2.900   7.630 -0.7684 -1.2782  3.5428
  529MOL0     H71352   6.071   2.744   7.446  1.4614  1.3011 -0.5349
  529MOL0     H71353   6.112   2.907   7.486 -1.5883  2.9918  0.1712
  529MOL0     H71354   5.902   3.010   7.398 -2.1801 -0.4227 -2.0180
  529MOL0     H71355   5.851   2.861   7.325 -0.6294 -1.6059  1.9647
  529MOL0     H71356   6.101   3.033   7.267  1.8632 -1.5445 -1.1363
  529MOL0     H71357   6.074   2.870   7.197 -2.0256  1.7038 -4.4861
  529MOL0     H71358   6.028   3.043   7.047  0.5173 -2.1385  0.1398
  529MOL0     H71359   5.888   2.934   7.087  2.3817 -0.3209 -2.7823
  529MOL0     H71360   5.827   3.163   7.030  1.0128 -1.9029 -0.2550
  529MOL0     H71361   5.749   3.113   7.178 -0.6203  0.4880 -2.4861
  529MOL0     H71362   6.013   3.265   7.176  0.2443 -0.7063 -1.6787
  529MOL0     H71363   5.893   3.235   7.316  1.2596  3.7543  0.9174
  529MOL0     H71364   5.819   3.393   7.071  2.2164  0.1300 -1.4069
  529MOL0     H71365   5.768   3.405   7.239  0.5940  0.5193  0.2611
  529MOL0     H71366   6.132   3.428   7.266  0.9963 -0.3288 -0.8915
  529MOL0     H71367   6.244   3.796   7.238 -0.8196 -1.1706  2.8666
  529MOL0     H71368   6.303   3.639   7.306 -2.0950 -3.2228 -1.4952
  529MOL0     H71369   6.410   3.568   7.109 -2.6617 -1.3235  2.2719
  529MOL0     H71370   6.310   3.665   7.012 -0.6995 -1.1448 -0.0238
  529MOL0     H71371   6.543   3.758   7.180  2.2119 -0.2612 -0.9337
  529MOL0     H71372   6.434   3.862   7.084  1.9635  0.8143  1.1226
  529MOL0     H71373   6.524   3.716   6.880  1.5855  1.4629 -0.3969
  529MOL0     H71374   6.638   3.654   7.005  0.0987  0.1814  2.5617
  529MOL0     H71375   6.671   3.726   6.732 -1.3950  1.8604 -0.1039
  529MOL0     H71376   6.875   3.726   6.588 -1.8664 -4.1034  1.7404
  529MOL0     H71377   7.391   3.707   6.632  0.1425  0.3455  0.6253
  529MOL0     H71378   7.583   3.723   6.465 -0.7866 -0.8437 -0.6711
  529MOL0     H71379   7.693   3.804   6.256  1.0821 -0.2715  1.1120
  529MOL0     H71380   7.785   3.938   6.194 -0.1628  0.4515  0.0506
  529MOL0     H71381   7.924   3.761   6.311 -0.3787  0.1863 -0.1368
  529MOL0     H71382   7.945   3.943   6.353 -0.5059 -0.1477  0.0665
  529MOL0     H71383   7.783   3.874   6.554  1.4430  1.5834  2.4853
  529MOL0     H71384   7.846   3.713   6.500 -2.1183  0.1675  2.0265
  529MOL0     H71385   7.964   3.817   6.710 -1.8055 -0.6432 -1.0324
  529MOL0     H71386   7.999   3.945   6.610 -1.3887  0.6208 -3.3711
  529MOL0     H71387   8.148   3.790   6.467  2.8043  4.1683  2.5392
  529MOL0     H71388   8.084   3.654   6.566  1.6805  0.0326 -3.1652
  529MOL0     H71389   8.254   3.875   6.664 -0.4798  0.2161  1.2529
  529MOL0     H71390   8.167   3.761   6.768 -1.4275 -1.3345 -1.0350
  529MOL0     H71391   8.352   3.652   6.550  2.5067 -0.4281 -0.2371
  529MOL0     H71392   8.302   3.589   6.714 -1.4547 -0.7926 -1.1338
  529MOL0     H71393   8.479   3.828   6.655 -0.7358  0.9898 -1.3375
  529MOL0     H71394   8.447   3.763   6.821  3.6707 -1.3541  0.7572
  529MOL0     H71395   7.509   4.161   6.457  0.7730  0.4966  3.5174
  529MOL0     H71396   7.309   4.118   6.580 -1.4338 -0.0102 -0.8434
  529MOL0     H71397   7.070   3.975   6.869 -1.2859  0.9402 -0.4533
  529MOL0     H71398   6.881   3.953   7.029  0.7463 -2.9708  0.9780
  529MOL0     H71399   5.764   2.828   7.783 -2.1191  2.8565  0.8337
  529MOL0     H71400   5.675   2.816   7.982  1.3905  1.9873 -3.0815
  529MOL0     H71401   5.638   2.886   8.320  0.7805  0.8434  1.9065
  529MOL0     H71402   5.476   2.950   8.454  0.5372  0.1387  1.5548
  529MOL0     H71403   5.451   2.701   8.844  0.6342 -0.3314 -1.3457
  529MOL0     H71404   5.395   2.865   8.902  3.6515  0.3033  2.6394
  529MOL0     H71405   5.662   2.833   8.767  1.8076 -2.1778  3.2508
  529MOL0     H71406   5.623   2.820   8.939 -0.5736 -2.0409 -0.9548
  529MOL0     H71407   5.511   3.069   8.812  0.5456  2.5943  2.1459
  529MOL0     H71408   5.675   3.048   8.761 -0.8590 -3.1682 -2.2085
  529MOL0     H71409   5.638   3.179   8.970 -5.9762  0.2419 -2.0472
  529MOL0     H71410   5.568   3.034   9.044 -0.9003  0.8654  0.1401
  529MOL0     H71411   5.966   2.995   9.157  0.5385  1.1987  0.5839
  529MOL0     H71412   5.505   2.585   8.677 -2.5110  1.7938  1.1545
  529MOL0     H71413   5.758   2.473   8.611  0.9755  0.1308 -0.7969
  529MOL0     H71414   5.614   2.388   8.550 -0.2256  0.3070  0.8541
  529MOL0     H71415   5.742   2.423   8.441 -1.7985 -0.6930 -0.4600
  530MOL0     O71416   6.194   1.630   5.190 -0.5159 -0.3209  0.3787
  530MOL0     C71417   6.080   1.670   5.157  0.4589  0.6317 -0.8090
  530MOL0     O71418   5.973   1.671   5.238 -0.1523 -0.5929  0.2226
  530MOL0     C71419   5.987   1.633   5.366  0.3004  0.4385  0.3379
  530MOL0     C71420   6.013   1.502   5.400 -0.6813 -0.0558  0.2764
  530MOL0     C71421   5.991   1.460   5.527  0.9344 -0.8318  0.8548
  530MOL0     C71422   5.931   1.539   5.623  1.2142 -1.1215 -0.1327
  530MOL0     O71423   5.896   1.482   5.739 -0.0968  0.4969  0.4476
  530MOL0     C71424   5.899   1.559   5.863  0.3527 -0.0839  0.0541
  530MOL0     C71425   6.033   1.609   5.918  0.8952 -0.0981 -0.5229
  530MOL0     C71426   6.119   1.496   5.964  0.7132  0.0469 -0.9290
  530MOL0     C71427   6.270   1.530   5.966 -0.0158 -0.1235  0.2263
  530MOL0     C71428   6.350   1.453   5.856 -0.1876 -1.1976  0.4054
  530MOL0     C71429   6.301   1.509   5.721  0.2462 -0.1879  0.7808
  530MOL0     C71430   6.385   1.439   5.613 -0.6613  0.4964 -0.4343
  530MOL0     C71431   6.372   1.516   5.478  0.1642  0.7222 -0.8373
  530MOL0     N71432   6.489   1.486   5.390 -0.2467 -0.6151 -0.6835
  530MOL0     C71433   6.475   1.429   5.264 -0.5212 -0.7001 -0.6953
  530MOL0     C71434   6.598   1.420   5.214 -0.9904  0.1314  0.2679
  530MOL0     C71435   6.649   1.364   5.084  1.1003 -0.4821 -0.8745
  530MOL0     C71436   6.747   1.462   5.019  0.4397  0.6913  0.3153
  530MOL0     C71437   6.816   1.388   4.898  0.0113 -0.1866  1.4647
  530MOL0     C71438   6.777   1.449   4.764  0.2764 -0.4535 -0.2169
  530MOL0     O71439   6.635   1.430   4.738  0.0435  0.0597  0.2112
  530MOL0     C71440   6.577   1.516   4.641 -0.1494  0.3859 -0.3601
  530MOL0     C71441   6.647   1.600   4.550 -0.8619  0.3192  0.3443
  530MOL0     C71442   6.582   1.705   4.485 -0.2339 -0.5289  0.5323
  530MOL0     C71443   6.450   1.709   4.475 -0.2997 -0.3835 -0.0433
  530MOL0     C71444   6.381   1.809   4.385  0.0114  0.7285 -0.3486
  530MOL0     O71445   6.449   1.911   4.334 -0.0125 -1.0601  0.2933
  530MOL0     C71446   6.383   2.022   4.289  0.7817 -0.2413 -0.0867
  530MOL0     C71447   6.322   2.113   4.384 -0.2447  0.1823  0.3882
  530MOL0     C71448   6.248   2.223   4.339 -0.7338  0.0571  0.0445
  530MOL0     C71449   6.227   2.243   4.201 -0.3290 -0.9288  0.0522
  530MOL0     O71450   6.157   2.344   4.135 -0.6991  0.8085  0.4371
  530MOL0     C71451   6.056   2.415   4.200 -0.7023 -0.6571 -0.7153
  530MOL0     C71452   5.917   2.367   4.164 -0.6333 -0.0823  0.1272
  530MOL0     C71453   5.909   2.214   4.168 -0.8128  0.0541  0.3600
  530MOL0     C71454   5.783   2.150   4.116 -0.0869  0.3170 -0.4722
  530MOL0     C71455   5.815   2.004   4.114  0.7963  0.0678 -0.7298
  530MOL0     C71456   5.701   1.917   4.138  0.6657  0.0639 -0.3238
  530MOL0     C71457   5.595   1.924   4.023 -0.7894 -0.5983 -0.8252
  530MOL0     C71458   5.466   1.846   4.053 -0.8066  0.2426 -0.6378
  530MOL0    Cl71459   5.366   1.825   3.909  0.2656  0.3076  0.3784
  530MOL0     C71460   6.297   2.161   4.116  0.0182 -0.0205  0.0084
  530MOL0     C71461   6.365   2.048   4.159 -0.0459 -0.3075  0.1148
  530MOL0     O71462   6.264   1.782   4.364  0.2287 -0.7193 -0.2108
  530MOL0     C71463   6.374   1.614   4.551 -0.1639 -0.2044 -0.6399
  530MOL0     C71464   6.442   1.524   4.641 -0.2782  0.5298  0.0720
  530MOL0     N71465   6.679   1.458   5.319 -1.0327  0.2809 -0.7650
  530MOL0     N71466   6.616   1.501   5.427 -0.7164  0.0645  0.5225
  530MOL0     C71467   5.899   1.673   5.587 -0.7736  0.5289 -0.2381
  530MOL0     C71468   5.933   1.720   5.465  0.3456  0.3797  0.0616
  530MOL0     C71469   6.049   1.701   5.019  0.2800  0.4083 -0.5069
  530MOL0     C71470   6.111   1.624   4.916 -0.7456  0.6904  0.3297
  530MOL0     C71471   6.068   1.627   4.778 -0.3834 -0.0825 -0.3637
  530MOL0     C71472   5.975   1.725   4.737 -0.0578  0.4195 -0.4894
  530MOL0     O71473   5.940   1.732   4.605  0.2338  0.2268 -1.0986
  530MOL0     C71474   5.829   1.656   4.555 -0.8558  0.5313 -0.2410
  530MOL0     C71475   5.827   1.690   4.406  0.2243  0.3268  0.6422
  530MOL0     C71476   5.942   1.619   4.327  0.1475 -0.2097  0.7930
  530MOL0     C71477   5.904   1.599   4.171 -0.9564 -0.1560 -0.3047
  530MOL0     C71478   5.768   1.563   4.145  0.6039  0.0640 -0.3494
  530MOL0     C71479   5.655   1.529   4.115  0.1024  0.5749 -1.3187
  530MOL0     C71480   5.914   1.804   4.838  0.5278 -0.1737 -0.5377
  530MOL0     C71481   5.955   1.794   4.974  0.9230  0.2067  0.2960
  530MOL0     C71482   5.878   1.886   5.074 -1.0622  1.0634  0.3177
  530MOL0     H71483   6.045   1.432   5.323  0.5073 -0.0173  0.7145
  530MOL0     H71484   6.015   1.357   5.553  1.3032 -0.7327  0.9048
  530MOL0     H71485   5.830   1.644   5.856  0.1188 -0.1994  0.8552
  530MOL0     H71486   5.856   1.505   5.948  2.7658 -1.6957  0.3517
  530MOL0     H71487   6.004   1.670   6.004  1.5037 -0.0590 -0.3397
  530MOL0     H71488   6.089   1.677   5.854 -1.5564  0.3438 -2.3485
  530MOL0     H71489   6.085   1.407   5.909 -5.1184  1.9046 -0.9148
  530MOL0     H71490   6.096   1.475   6.069 -1.7584 -4.3700 -2.0839
  530MOL0     H71491   6.275   1.639   5.955 -2.2991  0.0875  0.8223
  530MOL0     H71492   6.323   1.499   6.056  1.3912  1.9085  0.1500
  530MOL0     H71493   6.456   1.471   5.878 -0.5731 -1.3219  2.6664
  530MOL0     H71494   6.326   1.347   5.862 -0.3876 -1.1778 -0.0601
  530MOL0     H71495   6.198   1.479   5.699  0.7029  0.2663 -2.3905
  530MOL0     H71496   6.313   1.616   5.704 -0.6560 -0.4412 -1.8426
  530MOL0     H71497   6.356   1.334   5.603  0.9348  0.0598 -0.8188
  530MOL0     H71498   6.491   1.457   5.637 -0.9594  2.0196 -0.1748
  530MOL0     H71499   6.275   1.492   5.432 -0.5188 -1.2084  1.4283
  530MOL0     H71500   6.381   1.623   5.499 -2.8229  1.2991 -2.0152
  530MOL0     H71501   6.387   1.410   5.204  1.3299 -2.0650 -3.1702
  530MOL0     H71502   6.711   1.275   5.099 -0.4363 -1.7139 -1.5122
  530MOL0     H71503   6.561   1.333   5.026  0.2202 -2.2219  1.2723
  530MOL0     H71504   6.686   1.546   4.984 -0.7928  0.2166  1.2376
  530MOL0     H71505   6.828   1.500   5.083  3.1740  0.9345 -3.0070
  530MOL0     H71506   6.812   1.280   4.881  1.2515  0.1633 -1.8706
  530MOL0     H71507   6.918   1.423   4.918 -0.4528  0.6750  2.4138
  530MOL0     H71508   6.824   1.408   4.674 -2.9958 -0.5466 -2.0460
  530MOL0     H71509   6.805   1.553   4.747  2.9452 -1.6279 -4.9253
  530MOL0     H71510   6.755   1.590   4.555 -0.9894 -0.6060  2.0274
  530MOL0     H71511   6.638   1.784   4.436 -0.2366 -0.8040  0.0703
  530MOL0     H71512   6.334   2.096   4.491 -0.5474 -4.9404 -0.1190
  530MOL0     H71513   6.209   2.290   4.415  0.5637  0.7146  0.1632
  530MOL0     H71514   6.065   2.414   4.309 -0.8631 -0.4813 -0.7000
  530MOL0     H71515   6.064   2.519   4.165  1.0060 -0.5351 -0.0542
  530MOL0     H71516   5.842   2.422   4.222 -0.2821  0.3393  0.1840
  530MOL0     H71517   5.894   2.411   4.067  2.2814 -0.1860 -0.7039
  530MOL0     H71518   5.994   2.176   4.109 -1.4446 -0.7469 -0.0547
  530MOL0     H71519   5.919   2.187   4.273 -2.1622  0.4004  0.5944
  530MOL0     H71520   5.765   2.174   4.011 -1.1684  0.6853 -0.2167
  530MOL0     H71521   5.694   2.176   4.174  0.0835 -2.1272  0.9927
  530MOL0     H71522   5.894   1.963   4.178  0.2827 -2.3562 -1.5205
  530MOL0     H71523   5.853   1.988   4.012  1.1676 -0.8422 -0.4607
  530MOL0     H71524   5.752   1.821   4.136  1.4568  0.4655  0.2195
  530MOL0     H71525   5.662   1.948   4.235 -2.0497  0.5823 -1.4758
  530MOL0     H71526   5.631   1.880   3.930 -0.4841  0.4103 -1.2025
  530MOL0     H71527   5.568   2.030   4.024  0.6684 -0.1139  2.6210
  530MOL0     H71528   5.506   1.745   4.068 -2.7894 -0.8514 -2.1079
  530MOL0     H71529   5.409   1.885   4.137 -1.5818  0.3340 -1.1883
  530MOL0     H71530   6.302   2.184   4.010  0.6398  1.6260  0.3649
  530MOL0     H71531   6.424   1.976   4.103 -0.7892  0.6347 -1.9672
  530MOL0     H71532   6.268   1.605   4.532 -0.2176 -0.7850 -0.0901
  530MOL0     H71533   6.397   1.447   4.703  1.1728 -0.7664 -0.4053
  530MOL0     H71534   5.847   1.737   5.659 -0.2848 -0.8155  1.3799
  530MOL0     H71535   5.923   1.827   5.445 -0.1938  0.5224  1.0219
  530MOL0     H71536   6.191   1.554   4.940  1.2703  1.5421 -3.2880
  530MOL0     H71537   6.110   1.569   4.697 -3.3197 -1.5176 -0.9915
  530MOL0     H71538   5.738   1.686   4.607  0.8916  0.9654  2.7989
  530MOL0     H71539   5.832   1.548   4.570  2.8685  0.3538 -1.3595
  530MOL0     H71540   5.847   1.797   4.404  0.1001  0.3394 -0.6626
  530MOL0     H71541   5.726   1.682   4.364  1.5977 -1.0819 -2.8362
  530MOL0     H71542   5.971   1.521   4.366 -1.8324 -1.6431 -1.0560
  530MOL0     H71543   6.031   1.681   4.332 -0.0012  0.5306 -2.7830
  530MOL0     H71544   5.938   1.690   4.121 -2.0601 -0.0127 -0.8421
  530MOL0     H71545   5.967   1.518   4.131 -0.7664 -0.5504  0.7631
  530MOL0     H71546   5.562   1.514   4.064  0.4067  1.5524 -2.1839
  530MOL0     H71547   5.841   1.878   4.806 -0.1895  1.6836  4.4653
  530MOL0     H71548   5.844   1.970   5.014 -1.9146  0.8015  0.4210
  530MOL0     H71549   5.795   1.828   5.117  0.5422 -2.0261 -0.4356
  530MOL0     H71550   5.948   1.909   5.155  2.5828  0.2116 -2.3658
  531MOL0     O71551  11.332   2.064   2.107  1.4679 -0.0850 -0.6623
  531MOL0     C71552  11.415   2.104   2.029  0.4187 -0.0036 -0.4262
  531MOL0     O71553  11.531   2.175   2.062 -0.3542 -0.8212  0.1252
  531MOL0     C71554  11.546   2.220   2.186 -0.0560  0.7376  0.3609
  531MOL0     C71555  11.470   2.328   2.226  0.2934  0.1799 -0.3602
  531MOL0     C71556  11.470   2.370   2.363 -0.0094 -0.2722  0.0618
  531MOL0     C71557  11.555   2.313   2.460 -0.4250 -0.8649  0.2947
  531MOL0     O71558  11.555   2.371   2.583  0.0545 -0.5343  0.8259
  531MOL0     C71559  11.620   2.503   2.576 -0.5425  0.2681 -0.1956
  531MOL0     C71560  11.652   2.570   2.711 -0.0693 -0.5502 -0.1438
  531MOL0     C71561  11.541   2.590   2.813 -0.1196 -0.9474 -0.3247
  531MOL0     C71562  11.408   2.663   2.782 -1.5186 -0.5164  0.1699
  531MOL0     C71563  11.322   2.593   2.678 -1.0378  1.1571  0.0009
  531MOL0     C71564  11.268   2.456   2.727 -0.2183  0.3470 -0.1363
  531MOL0     C71565  11.185   2.394   2.614 -0.1782  0.6443  0.0559
  531MOL0     C71566  11.045   2.437   2.607  0.0074  0.0744  0.0220
  531MOL0     N71567  10.989   2.394   2.468  0.3971 -0.6718 -0.5410
  531MOL0     C71568  11.061   2.310   2.380  0.1831  1.5603  0.2845
  531MOL0     C71569  10.982   2.311   2.262 -0.3098  1.0684  0.2153
  531MOL0     C71570  11.029   2.273   2.127  0.0861  0.2870  0.6436
  531MOL0     C71571  10.937   2.176   2.050  0.4292 -0.3455 -0.2779
  531MOL0     C71572  11.021   2.089   1.952  0.1677 -0.6886  0.2850
  531MOL0     C71573  10.949   1.962   1.901 -0.2875  0.5971 -0.1139
  531MOL0     O71574  10.850   2.009   1.806 -0.9837  0.1055 -0.6270
  531MOL0     C71575  10.739   1.940   1.784  0.4580  0.0871 -0.3786
  531MOL0     C71576  10.694   1.892   1.655 -0.3930 -0.2041 -0.6028
  531MOL0     C71577  10.566   1.836   1.636  0.0139  0.4137  1.1249
  531MOL0     C71578  10.476   1.821   1.734 -0.3633  0.3768  0.3792
  531MOL0     C71579  10.340   1.758   1.716  0.0635  0.0991  0.6781
  531MOL0     O71580  10.325   1.683   1.606 -0.4219  0.3861 -0.2161
  531MOL0     C71581  10.198   1.661   1.575  0.0638  0.2478  0.0464
  531MOL0     C71582  10.122   1.755   1.511  0.0566  0.2331 -0.3112
  531MOL0     C71583   9.988   1.725   1.483 -0.2369 -0.1952  0.8203
  531MOL0     C71584   9.925   1.603   1.529 -0.8049 -0.6406 -0.1146
  531MOL0     O71585   9.791   1.588   1.516 -0.0388  0.0872 -0.0356
  531MOL0     C71586   9.733   1.470   1.573  0.1273  0.0823 -0.1977
  531MOL0     C71587   9.582   1.483   1.576 -0.2581 -1.3264 -0.8646
  531MOL0     C71588   9.500   1.525   1.457 -0.6749 -0.1234  1.0459
  531MOL0     C71589   9.379   1.432   1.448  0.1257  0.0577  0.1536
  531MOL0     C71590   9.278   1.485   1.338  0.1905 -0.4772 -0.9426
  531MOL0     C71591   9.141   1.522   1.393 -0.0826  0.6161  0.7016
  531MOL0     C71592   9.065   1.637   1.304 -0.6287  0.0344 -0.4404
  531MOL0     C71593   9.001   1.576   1.177 -0.0436  0.4051  1.0274
  531MOL0    Cl71594   8.840   1.509   1.224 -0.4774  0.3273 -0.1927
  531MOL0     C71595  10.014   1.501   1.573 -0.2050 -0.1913 -0.4811
  531MOL0     C71596  10.150   1.531   1.601  0.3941 -0.4226 -0.0147
  531MOL0     O71597  10.251   1.779   1.793  0.1792  0.4282  0.2101
  531MOL0     C71598  10.519   1.879   1.859  0.0684  1.8625 -0.6658
  531MOL0     C71599  10.646   1.938   1.886 -0.4616 -0.4154 -0.1985
  531MOL0     N71600  10.870   2.382   2.292  0.4077  0.4967  0.1778
  531MOL0     N71601  10.869   2.427   2.416  1.0015  0.6061  0.2836
  531MOL0     C71602  11.648   2.219   2.409  0.2175 -0.3484 -0.3024
  531MOL0     C71603  11.628   2.167   2.279  1.1805  0.5079 -0.3984
  531MOL0     C71604  11.392   2.106   1.885  0.1734 -0.1721  1.1193
  531MOL0     C71605  11.337   1.990   1.832 -0.7086  0.1859  0.4610
  531MOL0     C71606  11.339   1.971   1.694 -0.0489 -0.4913  0.2576
  531MOL0     C71607  11.371   2.069   1.602  0.3586 -0.8560  0.2409
  531MOL0     O71608  11.348   2.042   1.470  0.3167 -0.4490  0.2211
  531MOL0     C71609  11.330   2.150   1.378 -0.6798 -0.2332  0.2564
  531MOL0     C71610  11.219   2.117   1.278  0.7110 -0.4721  0.3885
  531MOL0     C71611  11.190   2.238   1.176  0.8241  0.0288 -0.2027
  531MOL0     C71612  11.184   2.205   1.031  0.3975  0.6492 -0.3867
  531MOL0     C71613  11.096   2.100   0.993 -0.1281 -0.7483  0.1020
  531MOL0     C71614  11.021   2.023   0.946  0.3856 -0.5862  0.0399
  531MOL0     C71615  11.403   2.195   1.656 -1.2599 -0.3529 -0.6700
  531MOL0     C71616  11.426   2.210   1.795 -0.3530  0.0137  0.0343
  531MOL0     C71617  11.469   2.343   1.847  0.1475 -0.4179  0.6995
  531MOL0     H71618  11.405   2.385   2.162  0.9863  0.6782 -0.6338
  531MOL0     H71619  11.420   2.462   2.390  1.0035 -0.0718  1.3128
  531MOL0     H71620  11.719   2.496   2.531 -0.8101  2.1404 -1.1820
  531MOL0     H71621  11.567   2.576   2.513 -0.5867  0.0658 -0.3932
  531MOL0     H71622  11.694   2.668   2.686 -1.6824  0.3060  0.3635
  531MOL0     H71623  11.731   2.516   2.763  0.4173 -0.3533 -0.6651
  531MOL0     H71624  11.577   2.650   2.897 -3.7050  0.7760  0.1601
  531MOL0     H71625  11.517   2.496   2.864  0.2336  0.8892  3.5484
  531MOL0     H71626  11.356   2.682   2.876 -2.9386  1.3478 -0.9335
  531MOL0     H71627  11.422   2.759   2.732 -0.4923 -0.4742  0.5110
  531MOL0     H71628  11.240   2.660   2.649 -1.0741  0.7325 -0.8981
  531MOL0     H71629  11.376   2.578   2.584 -2.5258 -1.9960 -0.4896
  531MOL0     H71630  11.359   2.400   2.750  0.7616  2.1876  0.6423
  531MOL0     H71631  11.208   2.464   2.819 -0.1073 -1.5093  0.1286
  531MOL0     H71632  11.184   2.286   2.632  0.4389  0.2509 -2.0529
  531MOL0     H71633  11.237   2.404   2.518  1.4910  1.2475  0.9716
  531MOL0     H71634  10.993   2.410   2.699 -1.6265  2.7499 -0.0138
  531MOL0     H71635  11.026   2.544   2.612 -2.9108 -0.4200  4.0378
  531MOL0     H71636  11.156   2.261   2.396 -0.8708 -1.1536 -1.0509
  531MOL0     H71637  11.056   2.369   2.084  2.4189  0.1585  1.7008
  531MOL0     H71638  11.130   2.232   2.134  0.6884  0.9023 -2.7080
  531MOL0     H71639  10.895   2.121   2.134  1.3804  0.4556  0.7547
  531MOL0     H71640  10.852   2.234   2.012  0.1223  1.0603  2.3258
  531MOL0     H71641  11.113   2.052   2.000  0.9168  0.2420 -0.4167
  531MOL0     H71642  11.064   2.151   1.873  1.4514 -0.8839  0.7891
  531MOL0     H71643  10.907   1.902   1.982  2.0640 -2.2129 -0.8104
  531MOL0     H71644  11.018   1.900   1.842 -1.2392  0.9205 -1.6160
  531MOL0     H71645  10.754   1.903   1.566  0.0539 -3.2476 -0.7511
  531MOL0     H71646  10.543   1.797   1.537 -0.1304  1.3135  0.7956
  531MOL0     H71647  10.160   1.854   1.490  0.2721 -0.0590 -1.3267
  531MOL0     H71648   9.924   1.796   1.433  0.5149  0.4256  0.7141
  531MOL0     H71649   9.764   1.383   1.515 -0.0412  0.6513 -1.1696
  531MOL0     H71650   9.762   1.453   1.677 -0.7646 -0.8851 -0.0903
  531MOL0     H71651   9.551   1.387   1.619  2.8531 -2.7134 -1.4727
  531MOL0     H71652   9.553   1.558   1.651 -0.2380  1.8891 -3.8270
  531MOL0     H71653   9.472   1.630   1.472  0.9598  0.4854  0.0120
  531MOL0     H71654   9.556   1.516   1.364  0.6841 -1.1388  1.9202
  531MOL0     H71655   9.329   1.423   1.545 -1.8009  1.2797 -0.6557
  531MOL0     H71656   9.406   1.332   1.414 -0.7410  0.8263 -3.1484
  531MOL0     H71657   9.265   1.402   1.269  0.5019 -2.1181  0.8903
  531MOL0     H71658   9.321   1.574   1.290 -1.2414  0.0321 -1.3059
  531MOL0     H71659   9.089   1.426   1.399  1.5552 -0.2303  3.3224
  531MOL0     H71660   9.170   1.565   1.490  1.1608 -0.4978  0.8588
  531MOL0     H71661   9.136   1.718   1.288  0.4307 -0.5146  1.1874
  531MOL0     H71662   8.985   1.677   1.368 -1.9569 -2.6454 -0.2874
  531MOL0     H71663   8.984   1.658   1.106 -0.3127  1.0403  1.8050
  531MOL0     H71664   9.067   1.508   1.122  0.3227  1.1516  0.5128
  531MOL0     H71665   9.971   1.407   1.605 -1.3320  0.6371  0.5319
  531MOL0     H71666  10.229   1.463   1.632  2.3259  2.2258  1.2554
  531MOL0     H71667  10.461   1.870   1.951  3.1354  2.2096  1.4574
  531MOL0     H71668  10.673   1.978   1.984  3.0805 -0.6681 -0.9423
  531MOL0     H71669  11.729   2.174   2.465 -0.2690 -1.4635 -0.4684
  531MOL0     H71670  11.665   2.074   2.238  2.2160  0.9538 -0.5146
  531MOL0     H71671  11.286   1.917   1.893  1.0438  0.0906  1.9081
  531MOL0     H71672  11.313   1.879   1.642  2.4027 -1.7165  1.0652
  531MOL0     H71673  11.421   2.167   1.319 -1.9265  2.9555 -0.9469
  531MOL0     H71674  11.308   2.249   1.418  1.3460 -0.6524  2.6290
  531MOL0     H71675  11.133   2.085   1.336  0.2330 -0.0327 -0.0708
  531MOL0     H71676  11.260   2.032   1.222 -2.8604 -3.4466  1.8656
  531MOL0     H71677  11.275   2.303   1.199  1.4745 -0.6758 -0.5621
  531MOL0     H71678  11.096   2.290   1.197  1.0244  2.0711 -3.6134
  531MOL0     H71679  11.178   2.297   0.971  1.1014  0.1649 -1.2192
  531MOL0     H71680  11.279   2.157   1.011 -0.2843  0.1319 -2.7248
  531MOL0     H71681  10.949   1.953   0.910  0.1021 -0.4265  0.2949
  531MOL0     H71682  11.405   2.288   1.599 -4.0487  1.7033  2.2218
  531MOL0     H71683  11.568   2.328   1.892  0.9215 -3.3285 -1.6741
  531MOL0     H71684  11.485   2.408   1.760  2.5312 -1.0928  0.5538
  531MOL0     H71685  11.398   2.390   1.915  1.4419 -1.9861  3.2910
  532MOL0     O71686   0.461   3.928  10.402 -0.4708  0.2117  0.0381
  532MOL0     C71687   0.430   3.809  10.383  0.1994  0.9287 -0.3446
  532MOL0     O71688   0.365   3.738  10.474 -0.1644  0.2295 -0.2031
  532MOL0     C71689   0.332   3.793  10.598 -0.7773  0.2062  0.4722
  532MOL0     C71690   0.211   3.852  10.623  0.3459 -0.4726  0.9510
  532MOL0     C71691   0.174   3.899  10.744  0.8901 -0.3504  0.0194
  532MOL0     C71692   0.262   3.903  10.853  0.1984 -0.7754  0.5523
  532MOL0     O71693   0.231   3.960  10.976 -0.7341 -0.7549  0.6048
  532MOL0     C71694   0.100   4.006  11.001 -0.7810 -0.0184 -0.5638
  532MOL0     C71695   0.068   4.016  11.148 -0.9576  0.2023  0.1023
  532MOL0     C71696   0.135   4.129  11.226 -0.7633  1.2012  0.4252
  532MOL0     C71697   0.049   4.183  11.336 -0.4285  0.4324  0.5857
  532MOL0     C71698   0.115   4.298  11.422 -0.4419  0.5883 -0.9384
  532MOL0     C71699   0.229   4.251  11.512 -0.8242 -0.1673 -0.0256
  532MOL0     C71700   0.175   4.168  11.631  0.5261 -0.0407 -0.1865
  532MOL0     C71701   0.284   4.120  11.731 -0.1989 -0.3294  0.6682
  532MOL0     N71702   0.233   4.006  11.806 -0.0121  0.0436  0.3401
  532MOL0     C71703   0.116   3.992  11.881  0.0411 -1.3048 -0.0764
  532MOL0     C71704   0.115   3.869  11.938  0.1874  0.6298 -0.2001
  532MOL0     C71705  -0.004   3.834  12.022 -0.8357 -0.2539 -0.6957
  532MOL0     C71706  -0.053   3.687  11.992 -0.1341 -0.0406 -0.3214
  532MOL0     C71707  -0.189   3.671  12.047  0.6146  0.7577  0.3077
  532MOL0     C71708  -0.190   3.613  12.187 -0.6559  1.1511  0.6044
  532MOL0     O71709  -0.160   3.711  12.282  0.1003  0.4756 -0.8825
  532MOL0     C71710  -0.178   3.684  12.412  0.0953 -0.4034 -0.3539
  532MOL0     C71711  -0.131   3.780  12.506  0.0057  0.0646 -0.4796
  532MOL0     C71712  -0.144   3.778  12.644  0.7170  0.2323  0.5228
  532MOL0     C71713  -0.219   3.674  12.695 -0.1706 -0.2902 -0.6304
  532MOL0     C71714  -0.273   3.699  12.832  0.5585  0.0260  0.3253
  532MOL0     O71715  -0.182   3.754  12.918 -0.5394 -0.2317  0.4904
  532MOL0     C71716  -0.211   3.779  13.049  0.4631 -0.1702 -0.1892
  532MOL0     C71717  -0.294   3.695  13.126  0.2896 -1.1240 -0.5480
  532MOL0     C71718  -0.331   3.733  13.256  0.0930 -0.6090 -0.4149
  532MOL0     C71719  -0.272   3.846  13.319  0.7047  0.2898  0.9481
  532MOL0     O71720  -0.310   3.880  13.436  0.4567 -0.1967  0.7478
  532MOL0     C71721  -0.268   3.800  13.544 -0.2315  0.2050  0.6221
  532MOL0     C71722  -0.387   3.716  13.602 -0.4148 -0.0874 -0.1234
  532MOL0     C71723  -0.341   3.634  13.726 -0.0909  0.7985  0.0688
  532MOL0     C71724  -0.459   3.564  13.785  0.0340  0.2676 -0.1199
  532MOL0     C71725  -0.418   3.447  13.882  0.4306 -0.7652  0.3240
  532MOL0     C71726  -0.546   3.364  13.911 -0.0582 -0.1179 -0.3137
  532MOL0     C71727  -0.498   3.240  13.989  0.1422  0.1384  0.7284
  532MOL0     C71728  -0.610   3.182  14.062  0.0775 -0.3269  1.3695
  532MOL0    Cl71729  -0.550   3.063  14.176 -0.0203  0.1854  0.1837
  532MOL0     C71730  -0.182   3.925  13.245  0.1614  0.4184 -0.2825
  532MOL0     C71731  -0.156   3.897  13.112 -0.5397  0.8287  1.3973
  532MOL0     O71732  -0.393   3.684  12.860  0.2137  0.1233 -0.6901
  532MOL0     C71733  -0.263   3.568  12.614 -0.2960  0.2168  1.0074
  532MOL0     C71734  -0.248   3.578  12.474  0.2688  0.9907  0.1300
  532MOL0     N71735   0.233   3.813  11.890  0.5613  0.1234 -0.5969
  532MOL0     N71736   0.299   3.891  11.815  0.6086  0.3375 -0.0333
  532MOL0     C71737   0.390   3.842  10.839  0.4189  0.0219  0.7022
  532MOL0     C71738   0.425   3.787  10.709  0.1292  0.6180 -0.0567
  532MOL0     C71739   0.472   3.743  10.250  0.7173  0.0068  0.2580
  532MOL0     C71740   0.446   3.610  10.232  0.1542  0.1615  0.2220
  532MOL0     C71741   0.481   3.537  10.110 -0.7971 -0.2028  0.2020
  532MOL0     C71742   0.518   3.601   9.994 -0.0937  0.1749  0.6487
  532MOL0     O71743   0.549   3.524   9.880  0.0498 -0.2903 -0.7731
  532MOL0     C71744   0.552   3.587   9.744 -0.4124  0.4055 -0.5523
  532MOL0     C71745   0.678   3.544   9.690  0.3383  0.3302  0.4217
  532MOL0     C71746   0.682   3.391   9.681  0.5311  0.1695 -0.9735
  532MOL0     C71747   0.814   3.362   9.612 -0.5352  0.1925 -1.3585
  532MOL0     C71748   0.924   3.332   9.702 -0.4976  0.6869 -1.0012
  532MOL0     C71749   1.026   3.310   9.761 -0.0808 -0.6502 -0.5315
  532MOL0     C71750   0.543   3.740  10.019  0.4604 -0.2605 -0.5190
  532MOL0     C71751   0.509   3.817  10.135  0.0982  0.6658 -0.2704
  532MOL0     C71752   0.517   3.968  10.126 -0.0744  0.0533 -0.2968
  532MOL0     H71753   0.147   3.846  10.536 -1.4592 -2.4921  2.3182
  532MOL0     H71754   0.079   3.951  10.755  0.8298 -0.2086 -1.1123
  532MOL0     H71755   0.066   4.095  10.948 -3.1738  0.0697  0.9744
  532MOL0     H71756   0.037   3.920  10.977  1.1697 -2.0112  0.9821
  532MOL0     H71757   0.095   3.926  11.203 -0.0763 -0.0877 -0.7704
  532MOL0     H71758  -0.041   4.021  11.154 -0.9571 -0.2293  0.4880
  532MOL0     H71759   0.161   4.208  11.155  2.3133 -0.4026 -0.4071
  532MOL0     H71760   0.232   4.086  11.253 -0.3378  0.3399 -2.2127
  532MOL0     H71761  -0.040   4.218  11.284 -2.3656 -0.7943  2.8594
  532MOL0     H71762   0.007   4.110  11.407 -1.1798  0.7792  0.5100
  532MOL0     H71763   0.157   4.371  11.353  1.4512  0.2216 -0.2123
  532MOL0     H71764   0.031   4.335  11.482 -3.0990 -3.7804 -1.4244
  532MOL0     H71765   0.301   4.192  11.454 -3.0417 -1.9619 -1.1387
  532MOL0     H71766   0.255   4.349  11.554 -1.1438 -0.5560  1.0958
  532MOL0     H71767   0.133   4.079  11.584  1.1696  0.6971 -2.3282
  532MOL0     H71768   0.097   4.222  11.685  0.4497  1.6035 -1.8200
  532MOL0     H71769   0.368   4.094  11.666 -0.1708  1.0628  0.1236
  532MOL0     H71770   0.311   4.196  11.806  3.8738 -2.4719  1.6953
  532MOL0     H71771   0.040   4.069  11.877  1.9617  0.6439 -0.5264
  532MOL0     H71772   0.024   3.840  12.128 -2.4731  0.2989 -0.2687
  532MOL0     H71773  -0.082   3.909  12.012  2.0962  3.3414  0.9395
  532MOL0     H71774  -0.063   3.673  11.884 -3.4192 -2.3803  0.1334
  532MOL0     H71775   0.016   3.612  12.031 -0.9989 -0.3640  0.6471
  532MOL0     H71776  -0.248   3.598  11.991  2.6704 -1.1541  0.5031
  532MOL0     H71777  -0.244   3.765  12.054  1.0112  0.9064  2.0328
  532MOL0     H71778  -0.125   3.525  12.188 -0.5637  1.2218  1.4996
  532MOL0     H71779  -0.292   3.579  12.204  1.0254 -5.6825 -0.0521
  532MOL0     H71780  -0.086   3.866  12.458  0.0397  0.2610 -0.0973
  532MOL0     H71781  -0.113   3.861  12.706  3.5414 -0.1606 -0.2533
  532MOL0     H71782  -0.349   3.609  13.090  0.4811 -0.5996 -2.1844
  532MOL0     H71783  -0.397   3.659  13.300  1.2093 -1.4357 -0.0552
  532MOL0     H71784  -0.181   3.735  13.533 -3.0039 -3.6048 -0.9717
  532MOL0     H71785  -0.246   3.868  13.627 -0.9506  1.1829  0.0376
  532MOL0     H71786  -0.450   3.798  13.639 -0.1417 -1.2829  3.3836
  532MOL0     H71787  -0.450   3.658  13.534 -4.7342 -2.3549  5.0914
  532MOL0     H71788  -0.254   3.569  13.712  3.6284  3.4252  6.4077
  532MOL0     H71789  -0.303   3.707  13.798 -0.2233  0.7498  0.1883
  532MOL0     H71790  -0.520   3.513  13.710 -1.8181 -1.1845  2.2253
  532MOL0     H71791  -0.531   3.629  13.835  0.5934  0.3643  0.5782
  532MOL0     H71792  -0.383   3.496  13.974 -0.6677  3.7008 -1.3910
  532MOL0     H71793  -0.335   3.393  13.836  2.0101  0.7610  1.2492
  532MOL0     H71794  -0.615   3.423  13.971  1.4829  2.0968 -0.6039
  532MOL0     H71795  -0.592   3.330  13.817  1.4236 -2.3489 -0.3110
  532MOL0     H71796  -0.417   3.278  14.052 -0.6016  3.4485 -0.1129
  532MOL0     H71797  -0.467   3.162  13.918 -1.8196  1.0957 -1.2860
  532MOL0     H71798  -0.675   3.256  14.110 -0.6447  1.5013 -2.0379
  532MOL0     H71799  -0.683   3.132  13.997 -2.0725  2.6465  1.2952
  532MOL0     H71800  -0.149   4.008  13.306 -1.6489  1.6834 -0.9260
  532MOL0     H71801  -0.089   3.963  13.058 -0.7759  0.6226  0.8440
  532MOL0     H71802  -0.319   3.482  12.651  0.1020  0.4074  2.0846
  532MOL0     H71803  -0.303   3.516  12.404  0.9964  1.0540 -0.5094
  532MOL0     H71804   0.457   3.840  10.924  0.8102  0.4116  0.4085
  532MOL0     H71805   0.519   3.736  10.687  0.7701  1.9851 -0.5967
  532MOL0     H71806   0.417   3.552  10.319 -0.6898 -0.2810 -0.3373
  532MOL0     H71807   0.484   3.428  10.104 -1.9608 -0.1675 -3.7153
  532MOL0     H71808   0.563   3.695   9.754  3.2696  0.1684 -0.8108
  532MOL0     H71809   0.459   3.560   9.694 -1.0681  1.8185 -0.1449
  532MOL0     H71810   0.757   3.591   9.750 -0.6683 -1.0587  3.0434
  532MOL0     H71811   0.686   3.576   9.586  1.4342  2.9107  1.2396
  532MOL0     H71812   0.594   3.361   9.623 -0.8081 -1.9538  1.9028
  532MOL0     H71813   0.693   3.349   9.781  3.2019 -1.3339 -1.8107
  532MOL0     H71814   0.800   3.279   9.543  1.5549 -0.3753 -1.1795
  532MOL0     H71815   0.844   3.452   9.557 -0.3924  2.1804  1.7127
  532MOL0     H71816   1.111   3.280   9.818  0.2799  1.9410  0.4336
  532MOL0     H71817   0.584   3.792   9.933 -0.0849  1.0043 -0.0292
  532MOL0     H71818   0.593   3.997  10.199  0.5075 -1.6253 -0.2089
  532MOL0     H71819   0.555   3.999  10.028  1.7037  0.1120  0.3690
  532MOL0     H71820   0.425   4.021  10.152 -2.3453 -1.7569 -3.8431
  533MOL0     O71821   1.717   6.511   7.864  0.4050 -0.8161 -0.5929
  533MOL0     C71822   1.798   6.494   7.956  0.0288 -0.5009  0.3152
  533MOL0     O71823   1.867   6.381   7.984 -0.4190  0.1910 -0.6968
  533MOL0     C71824   1.925   6.302   7.889  0.2375 -0.1863  0.6982
  533MOL0     C71825   1.942   6.165   7.918 -0.0083 -0.0595  0.2261
  533MOL0     C71826   1.988   6.084   7.814  0.0672  0.1719 -0.3844
  533MOL0     C71827   2.016   6.124   7.685  0.2219 -0.5717  0.6049
  533MOL0     O71828   2.061   6.041   7.575  0.6101  0.7865 -0.5832
  533MOL0     C71829   1.972   6.000   7.475  0.2151  0.8095  0.5453
  533MOL0     C71830   2.018   5.885   7.391  0.0231 -0.2855  0.2268
  533MOL0     C71831   1.923   5.840   7.276 -0.4020  0.2536 -0.3450
  533MOL0     C71832   1.966   5.691   7.242  1.1612 -0.2265 -0.2558
  533MOL0     C71833   1.879   5.641   7.123  0.9442  0.8016 -0.2847
  533MOL0     C71834   1.911   5.701   6.992 -0.4746  0.0766  0.0781
  533MOL0     C71835   1.850   5.607   6.889  0.0198 -0.3333  0.5086
  533MOL0     C71836   1.873   5.690   6.761 -0.0489 -0.0010  0.1492
  533MOL0     N71837   1.827   5.627   6.631  0.0280 -0.6821  0.7384
  533MOL0     C71838   1.918   5.628   6.525 -0.0140  0.2186  0.7414
  533MOL0     C71839   1.840   5.624   6.412  0.0409  0.7528  1.3420
  533MOL0     C71840   1.872   5.626   6.261 -0.1119  0.3965 -0.8672
  533MOL0     C71841   1.773   5.686   6.160 -0.3415 -0.7726 -0.3608
  533MOL0     C71842   1.783   5.833   6.168  0.2534  0.7024 -0.4536
  533MOL0     C71843   1.677   5.895   6.078 -1.0751 -0.4873 -0.3116
  533MOL0     O71844   1.695   6.033   6.048  0.5642  0.3548  0.0403
  533MOL0     C71845   1.644   6.121   6.145  0.4142  0.7102 -0.4069
  533MOL0     C71846   1.666   6.251   6.112 -0.3194  0.3293 -0.0159
  533MOL0     C71847   1.630   6.355   6.199 -0.4548 -0.3955 -0.6806
  533MOL0     C71848   1.566   6.327   6.324  0.3455  0.4901 -1.1123
  533MOL0     C71849   1.544   6.428   6.422 -0.4503  0.9521  0.9007
  533MOL0     O71850   1.496   6.392   6.546  0.6770 -0.2955 -0.3140
  533MOL0     C71851   1.495   6.496   6.643  0.3115  0.2387  1.3718
  533MOL0     C71852   1.407   6.610   6.631  0.1146 -0.3244 -0.1056
  533MOL0     C71853   1.408   6.711   6.729  0.2103  1.2746 -0.2486
  533MOL0     C71854   1.502   6.706   6.832  0.5239  0.0507 -0.2254
  533MOL0     O71855   1.509   6.796   6.937  0.2105  0.1909  0.2260
  533MOL0     C71856   1.515   6.936   6.885  0.2007 -0.5094  0.6622
  533MOL0     C71857   1.610   7.016   6.971 -0.6204  0.7573 -0.5739
  533MOL0     C71858   1.730   6.930   7.014  0.1476 -0.5184  0.0342
  533MOL0     C71859   1.828   7.017   7.081  0.0550  1.0181 -0.8408
  533MOL0     C71860   1.960   6.942   7.114  0.5268 -1.2828 -0.4628
  533MOL0     C71861   1.938   6.816   7.197  0.2360  0.2385 -0.9550
  533MOL0     C71862   2.076   6.759   7.210  0.5018  0.9698  0.3885
  533MOL0     C71863   2.076   6.622   7.272 -0.1998  0.2547 -0.2827
  533MOL0    Cl71864   2.243   6.567   7.300 -0.5192 -0.2792  0.2099
  533MOL0     C71865   1.590   6.594   6.835  0.0702 -1.0245  0.1690
  533MOL0     C71866   1.589   6.490   6.744  0.0348 -0.5141  0.9097
  533MOL0     O71867   1.603   6.534   6.399  0.3259  0.3557  0.4981
  533MOL0     C71868   1.527   6.189   6.351  0.3416 -0.5252  0.7379
  533MOL0     C71869   1.576   6.083   6.267  0.5697 -1.2246 -0.0336
  533MOL0     N71870   1.710   5.615   6.450 -0.2286 -0.9938  1.0045
  533MOL0     N71871   1.696   5.630   6.582  0.4010  0.9577 -0.1267
  533MOL0     C71872   2.003   6.261   7.667 -0.8520 -0.5552  0.5888
  533MOL0     C71873   1.959   6.354   7.764 -0.2110  0.1609  0.1773
  533MOL0     C71874   1.809   6.602   8.053 -1.2030 -0.5112  0.0398
  533MOL0     C71875   1.723   6.589   8.168 -0.8411 -0.4502  0.3213
  533MOL0     C71876   1.710   6.697   8.252  0.5347  0.0658 -0.1958
  533MOL0     C71877   1.793   6.806   8.229  0.3606  0.6782 -1.0198
  533MOL0     O71878   1.784   6.907   8.324  1.2414 -0.3924  0.1948
  533MOL0     C71879   1.885   6.896   8.430 -0.0412  0.1643  1.1458
  533MOL0     C71880   1.936   7.025   8.481  0.4235  0.9660 -0.4758
  533MOL0     C71881   2.002   7.104   8.381 -0.4295  0.8052  0.0918
  533MOL0     C71882   2.076   7.231   8.432 -0.4695 -0.2292  0.3871
  533MOL0     C71883   2.180   7.191   8.538  0.4400 -0.5772 -0.2072
  533MOL0     C71884   2.257   7.151   8.618  0.5796  0.1521  0.4897
  533MOL0     C71885   1.884   6.822   8.123  0.4231 -0.5016 -0.8537
  533MOL0     C71886   1.884   6.719   8.031 -0.0087 -0.2938 -0.7455
  533MOL0     C71887   1.982   6.720   7.915 -0.0467 -0.3720 -0.3500
  533MOL0     H71888   1.936   6.133   8.021  1.8311  1.0635  0.7453
  533MOL0     H71889   1.989   5.976   7.823  0.0060  0.2377  0.5691
  533MOL0     H71890   1.886   5.962   7.532  1.5814 -3.4968  0.0613
  533MOL0     H71891   1.959   6.095   7.422 -0.5312  1.0322  1.1171
  533MOL0     H71892   2.033   5.810   7.468 -1.6006 -1.7735 -0.8212
  533MOL0     H71893   2.111   5.925   7.349  1.3207 -0.0142  3.1227
  533MOL0     H71894   1.921   5.913   7.194 -3.9650  2.6911  1.6435
  533MOL0     H71895   1.818   5.836   7.306 -1.5192  0.9838 -3.7206
  533MOL0     H71896   2.069   5.691   7.203  0.5013 -0.4793 -2.1231
  533MOL0     H71897   1.944   5.630   7.330 -1.4572 -2.0702 -2.0460
  533MOL0     H71898   1.862   5.533   7.128 -3.1882  1.3546  1.9298
  533MOL0     H71899   1.778   5.671   7.153  1.3535 -0.9359  3.2769
  533MOL0     H71900   1.892   5.809   6.989  1.0689  0.7329  4.9280
  533MOL0     H71901   2.020   5.691   6.985 -0.5773  0.1152 -2.3301
  533MOL0     H71902   1.748   5.576   6.912  0.1658 -0.4681  0.9877
  533MOL0     H71903   1.906   5.514   6.877  0.6791  0.1961 -0.7243
  533MOL0     H71904   1.818   5.781   6.784 -1.3661 -0.4008 -1.2150
  533MOL0     H71905   1.978   5.719   6.754  0.2132 -0.3438  2.0971
  533MOL0     H71906   2.025   5.641   6.539  0.3874 -2.6121  1.0083
  533MOL0     H71907   1.966   5.682   6.251  0.9641 -1.3250 -0.8175
  533MOL0     H71908   1.898   5.522   6.240  0.0616 -0.1152  1.5398
  533MOL0     H71909   1.807   5.643   6.066  0.3872 -1.2929  0.1338
  533MOL0     H71910   1.673   5.660   6.195 -0.7967  2.0140  0.6576
  533MOL0     H71911   1.878   5.876   6.135  0.1230 -0.6440 -2.7944
  533MOL0     H71912   1.766   5.859   6.273  1.6527  0.0652 -0.0485
  533MOL0     H71913   1.581   5.878   6.129  0.0481 -2.3744  1.3332
  533MOL0     H71914   1.682   5.835   5.986  0.3249  1.1818 -1.3745
  533MOL0     H71915   1.732   6.275   6.029  0.6889 -1.8497  0.0749
  533MOL0     H71916   1.654   6.457   6.174 -3.1933 -0.1128 -2.6390
  533MOL0     H71917   1.322   6.612   6.563 -0.7171 -2.4448  0.7654
  533MOL0     H71918   1.339   6.795   6.723  1.7619  2.5998 -0.1915
  533MOL0     H71919   1.547   6.937   6.781 -1.6094 -0.4202  0.0873
  533MOL0     H71920   1.414   6.976   6.896 -0.4271 -1.3462 -1.6375
  533MOL0     H71921   1.658   7.102   6.923  0.2207 -0.1592 -1.4142
  533MOL0     H71922   1.573   7.054   7.066  1.2904 -0.9927  0.9608
  533MOL0     H71923   1.700   6.852   7.084 -2.9596  2.5278  2.4243
  533MOL0     H71924   1.791   6.902   6.927  2.2365  2.6073  0.3652
  533MOL0     H71925   1.789   7.047   7.178  2.2608 -0.3352  0.5525
  533MOL0     H71926   1.851   7.106   7.022  0.1952  1.7902  0.3591
  533MOL0     H71927   2.027   7.012   7.165 -0.6842 -0.6939  0.3774
  533MOL0     H71928   2.008   6.917   7.019  0.1485  2.8716 -1.9543
  533MOL0     H71929   1.886   6.835   7.292 -1.6779 -2.4029 -1.3436
  533MOL0     H71930   1.882   6.743   7.138 -2.0464  2.3964 -1.6428
  533MOL0     H71931   2.137   6.828   7.270  3.6727 -1.0364 -0.2990
  533MOL0     H71932   2.120   6.743   7.112  3.1740 -2.4167  1.9345
  533MOL0     H71933   2.024   6.633   7.368 -1.6294  0.4404 -1.0426
  533MOL0     H71934   2.021   6.554   7.207  0.2921  1.4687 -2.0275
  533MOL0     H71935   1.662   6.614   6.914 -1.1484  2.5505  0.5514
  533MOL0     H71936   1.661   6.410   6.755  0.9382  0.0641 -0.5472
  533MOL0     H71937   1.478   6.168   6.446 -1.0521  1.2660  0.4721
  533MOL0     H71938   1.559   5.988   6.316 -3.1331 -0.2041  0.9829
  533MOL0     H71939   2.033   6.306   7.573  0.4654  3.3471  2.6524
  533MOL0     H71940   1.950   6.460   7.740  0.1884  0.2809  0.5433
  533MOL0     H71941   1.659   6.502   8.178  0.6919 -1.3783  2.9949
  533MOL0     H71942   1.626   6.706   8.321 -0.8217  1.7251 -1.9445
  533MOL0     H71943   1.965   6.826   8.403 -0.7883 -0.6856  1.0724
  533MOL0     H71944   1.837   6.851   8.517  1.4952  1.2255  2.5967
  533MOL0     H71945   2.002   7.001   8.565  1.7799 -0.6158 -1.9211
  533MOL0     H71946   1.856   7.079   8.531 -0.9062  3.0470 -4.3830
  533MOL0     H71947   1.934   7.136   8.301  0.4958  2.0403 -0.2367
  533MOL0     H71948   2.074   7.036   8.336 -0.6844  0.5549  0.0633
  533MOL0     H71949   2.128   7.286   8.353 -0.0633 -0.0768  0.7555
  533MOL0     H71950   1.994   7.297   8.464 -0.0223  1.7686 -2.2451
  533MOL0     H71951   2.316   7.092   8.685  0.7375 -0.3127 -0.0519
  533MOL0     H71952   1.945   6.911   8.118  0.8785 -0.8623 -2.3056
  533MOL0     H71953   2.052   6.803   7.932  0.7199 -1.5270  2.8874
  533MOL0     H71954   2.036   6.628   7.890 -0.9375 -0.9297 -0.2718
  533MOL0     H71955   1.927   6.747   7.824  2.1890  0.2464 -1.6030
  534MOL0     O71956  11.263   9.206   5.753  0.6978  0.5274  0.1814
  534MOL0     C71957  11.186   9.271   5.818  0.4992  0.5575  0.6101
  534MOL0     O71958  11.158   9.405   5.801  0.0710  0.0896  0.1104
  534MOL0     C71959  11.236   9.471   5.710  0.0737 -0.5889 -0.5739
  534MOL0     C71960  11.170   9.543   5.618  0.7981  0.3765  0.0009
  534MOL0     C71961  11.246   9.628   5.540  0.4679  0.5383  0.5666
  534MOL0     C71962  11.375   9.650   5.563 -0.5050 -0.2498 -0.3356
  534MOL0     O71963  11.440   9.739   5.482  0.2568 -0.5005  1.0716
  534MOL0     C71964  11.558   9.805   5.514 -1.1829  0.2688 -0.5031
  534MOL0     C71965  11.538   9.960   5.493 -0.2971 -0.1817 -0.6579
  534MOL0     C71966  11.661  10.035   5.569 -0.5983  0.5586 -0.4785
  534MOL0     C71967  11.632  10.185   5.550  0.2086 -0.1382 -0.1764
  534MOL0     C71968  11.612  10.229   5.397  0.3427 -0.5137 -0.2188
  534MOL0     C71969  11.613  10.383   5.376  0.5918 -0.4893  0.4394
  534MOL0     C71970  11.766  10.441   5.409 -0.8482 -0.1553  0.1402
  534MOL0     C71971  11.792  10.592   5.365  0.1949 -0.0974  0.1470
  534MOL0     N71972  11.931  10.608   5.315  0.6380 -0.0037 -0.2033
  534MOL0     C71973  12.045  10.626   5.390 -0.6385  0.0351  0.5450
  534MOL0     C71974  12.144  10.618   5.304 -0.8334  1.3660 -0.4984
  534MOL0     C71975  12.293  10.647   5.318  0.2102 -0.0659  0.1727
  534MOL0     C71976  12.368  10.525   5.373  0.6515 -0.7077 -0.1572
  534MOL0     C71977  12.339  10.490   5.515 -0.0664 -0.1936 -0.6789
  534MOL0     C71978  12.453  10.391   5.553  0.0445 -0.7767  0.3262
  534MOL0     O71979  12.422  10.339   5.689 -0.2555  0.4272 -0.1228
  534MOL0     C71980  12.460  10.409   5.799  0.5157 -0.7250  0.1541
  534MOL0     C71981  12.395  10.379   5.917  0.7038 -0.0395 -0.4763
  534MOL0     C71982  12.414  10.436   6.041  0.2510  0.7512  0.5156
  534MOL0     C71983  12.514  10.535   6.045  0.0632  0.5178 -0.8852
  534MOL0     C71984  12.528  10.602   6.179  0.2682 -0.0806  0.0901
  534MOL0     O71985  12.494  10.533   6.299  1.4024 -0.0732  0.3364
  534MOL0     C71986  12.571  10.569   6.406 -0.1074  0.6041  0.5518
  534MOL0     C71987  12.697  10.633   6.411 -0.5021  0.8810  0.6122
  534MOL0     C71988  12.766  10.654   6.538 -0.4195 -0.6462  0.7946
  534MOL0     C71989  12.708  10.609   6.655 -0.9400  0.4918 -1.2287
  534MOL0     O71990  12.766  10.645   6.770  0.0766 -0.7240 -0.1109
  534MOL0     C71991  12.687  10.651   6.891  0.7894 -0.1085  0.6901
  534MOL0     C71992  12.565  10.743   6.877 -0.6659 -0.2189  0.4302
  534MOL0     C71993  12.500  10.766   7.013  0.2622 -0.0242 -0.1452
  534MOL0     C71994  12.394  10.655   7.054 -0.3954 -0.5848 -0.6288
  534MOL0     C71995  12.350  10.678   7.196 -0.3424 -0.7191  0.2993
  534MOL0     C71996  12.449  10.650   7.302  0.0585 -0.2614 -0.0520
  534MOL0     C71997  12.394  10.718   7.424 -0.2646  1.0210  0.0914
  534MOL0     C71998  12.438  10.635   7.548 -0.5091 -0.9473 -0.6019
  534MOL0    Cl71999  12.404  10.715   7.701 -0.4350 -0.1187  0.4426
  534MOL0     C72000  12.594  10.524   6.639  0.2582 -0.1236 -0.3903
  534MOL0     C72001  12.533  10.509   6.520  0.0497 -0.4324 -0.3045
  534MOL0     O72002  12.576  10.714   6.177  0.0550  0.0399  0.4494
  534MOL0     C72003  12.568  10.586   5.925  0.1000 -0.2540 -0.4652
  534MOL0     C72004  12.546  10.517   5.805  0.1291  0.1330 -0.0714
  534MOL0     N72005  12.107  10.582   5.177  0.1370 -0.6807  0.0473
  534MOL0     N72006  11.977  10.566   5.189  0.1270 -0.7613 -0.4724
  534MOL0     C72007  11.445   9.566   5.655  0.0107 -0.6186  0.3579
  534MOL0     C72008  11.372   9.482   5.738  0.4318  0.8935 -0.1100
  534MOL0     C72009  11.104   9.200   5.909  0.6421  0.9506  0.0949
  534MOL0     C72010  11.110   9.230   6.045 -0.1751 -0.5279 -1.2010
  534MOL0     C72011  11.031   9.162   6.142 -0.0274 -0.0362  0.5933
  534MOL0     C72012  10.961   9.044   6.105  1.1728  0.8820  0.9686
  534MOL0     O72013  10.892   8.980   6.204 -0.7945  0.1157  0.0351
  534MOL0     C72014  10.835   8.843   6.182  0.1752  0.8548 -0.9697
  534MOL0     C72015  10.687   8.838   6.162  0.5630 -0.7809 -0.7949
  534MOL0     C72016  10.614   8.906   6.280  0.3417 -0.7651  0.8242
  534MOL0     C72017  10.462   8.899   6.278 -0.2169  0.6383  0.8842
  534MOL0     C72018  10.406   8.887   6.137 -0.1051  0.2796  0.1629
  534MOL0     C72019  10.350   8.863   6.035  0.6879 -0.3320 -0.7756
  534MOL0     C72020  10.955   9.015   5.960 -0.2529  0.3960  0.0529
  534MOL0     C72021  11.029   9.091   5.871  1.0214 -0.2968  0.6453
  534MOL0     C72022  11.008   9.062   5.727  0.0093  0.0311 -0.1990
  534MOL0     H72023  11.065   9.527   5.594  1.1290 -1.3686 -0.4090
  534MOL0     H72024  11.203   9.679   5.454 -1.3008 -0.7794  0.6217
  534MOL0     H72025  11.580   9.781   5.618  2.8881 -0.9494 -1.4807
  534MOL0     H72026  11.644   9.774   5.454  1.0104  5.6755 -0.6566
  534MOL0     H72027  11.446  10.001   5.534 -0.7518 -1.3504 -0.4566
  534MOL0     H72028  11.540   9.975   5.385 -0.4981  0.5869 -0.5553
  534MOL0     H72029  11.753  10.016   5.512 -1.6427  2.8805 -3.2030
  534MOL0     H72030  11.676  10.015   5.676 -0.2650 -3.6231 -1.1517
  534MOL0     H72031  11.540  10.216   5.600  0.8679  0.3295  0.7755
  534MOL0     H72032  11.714  10.242   5.594 -1.3223  1.6656  0.4565
  534MOL0     H72033  11.688  10.178   5.336  1.1181  1.5465 -1.0757
  534MOL0     H72034  11.514  10.188   5.374 -0.6806 -0.8112  3.8336
  534MOL0     H72035  11.595  10.402   5.269  1.4652 -1.6107  0.0691
  534MOL0     H72036  11.537  10.431   5.438  0.7386  1.3614 -0.7218
  534MOL0     H72037  11.833  10.387   5.341 -1.5876  1.4655 -1.9894
  534MOL0     H72038  11.795  10.444   5.514 -0.1884  3.5138 -0.0370
  534MOL0     H72039  11.729  10.618   5.280 -2.5201 -0.7932  1.8229
  534MOL0     H72040  11.769  10.669   5.440 -0.7231  0.0981 -0.3268
  534MOL0     H72041  12.051  10.658   5.493 -2.6652 -3.4041  1.9222
  534MOL0     H72042  12.344  10.682   5.228 -0.6142  1.3102  0.1975
  534MOL0     H72043  12.290  10.738   5.379 -4.1463  0.4597 -0.4687
  534MOL0     H72044  12.344  10.434   5.316 -1.9767 -1.8786  2.5069
  534MOL0     H72045  12.473  10.554   5.361 -0.1593  1.7603 -2.0009
  534MOL0     H72046  12.245  10.436   5.531 -0.6676  0.7040 -1.1401
  534MOL0     H72047  12.351  10.577   5.580 -1.1738 -1.3659  1.1572
  534MOL0     H72048  12.541  10.457   5.552 -0.6787  0.2158  0.4068
  534MOL0     H72049  12.470  10.316   5.476  6.7696  2.4751 -2.2285
  534MOL0     H72050  12.342  10.285   5.925  0.6696  0.1025  1.4144
  534MOL0     H72051  12.342  10.415   6.119 -1.9485  1.6662 -1.1279
  534MOL0     H72052  12.755  10.673   6.329 -1.9248  1.6457 -0.0538
  534MOL0     H72053  12.859  10.710   6.541 -0.7948  0.5408 -3.3914
  534MOL0     H72054  12.651  10.553   6.925  3.5424 -1.1118  0.9672
  534MOL0     H72055  12.754  10.689   6.969 -0.9742 -0.0620  2.2602
  534MOL0     H72056  12.590  10.839   6.831  1.9682  0.9454  3.8712
  534MOL0     H72057  12.492  10.707   6.803 -1.1173  2.1167 -0.3299
  534MOL0     H72058  12.582  10.779   7.084  1.1189  0.0546 -1.1352
  534MOL0     H72059  12.443  10.860   7.011 -0.3223 -0.3734 -0.2183
  534MOL0     H72060  12.433  10.554   7.047 -2.2577 -1.2778 -1.6732
  534MOL0     H72061  12.308  10.663   6.986 -0.2164  2.5983 -0.6685
  534MOL0     H72062  12.257  10.625   7.218 -1.3737  0.0234 -1.9645
  534MOL0     H72063  12.319  10.782   7.208  1.1684 -0.4980  3.5181
  534MOL0     H72064  12.470  10.544   7.315 -0.2184 -0.1429  1.5973
  534MOL0     H72065  12.535  10.704   7.261 -0.2277 -0.9491 -1.6484
  534MOL0     H72066  12.285  10.727   7.425 -0.2048  1.8487  0.7467
  534MOL0     H72067  12.435  10.819   7.427 -0.9511  1.2879  2.3072
  534MOL0     H72068  12.384  10.540   7.536  0.8348 -2.1191  1.8412
  534MOL0     H72069  12.545  10.614   7.542 -0.3479 -1.0522  1.7951
  534MOL0     H72070  12.560  10.475   6.731  1.8976  1.8729  1.3646
  534MOL0     H72071  12.442  10.450   6.526  0.0872 -0.3838  3.5226
  534MOL0     H72072  12.631  10.675   5.922 -0.9384  0.4673 -1.2187
  534MOL0     H72073  12.573  10.562   5.710 -3.3251 -0.0855 -1.2887
  534MOL0     H72074  11.551   9.583   5.671 -0.4599  1.6317  1.4370
  534MOL0     H72075  11.425   9.421   5.809  0.6825  0.2352 -0.8504
  534MOL0     H72076  11.175   9.309   6.080 -0.8773 -1.3172  2.2444
  534MOL0     H72077  11.020   9.186   6.247 -0.5164 -1.8067  0.9832
  534MOL0     H72078  10.855   8.803   6.282  4.4029  2.0932 -1.1133
  534MOL0     H72079  10.895   8.784   6.111  2.9359  1.8995  0.3291
  534MOL0     H72080  10.657   8.735   6.143 -3.4206 -0.4012  2.0883
  534MOL0     H72081  10.664   8.900   6.075  2.0320  2.0403  0.6929
  534MOL0     H72082  10.638   9.013   6.271  0.1739 -0.4416  3.4705
  534MOL0     H72083  10.648   8.869   6.376 -0.2949  2.6987  2.5539
  534MOL0     H72084  10.429   8.813   6.337 -0.3587  0.2637  0.2672
  534MOL0     H72085  10.417   8.977   6.340 -1.7545  0.6100 -0.1497
  534MOL0     H72086  10.309   8.816   5.948 -1.1089 -2.0138  0.8660
  534MOL0     H72087  10.893   8.937   5.917  0.0643  0.9508 -1.4925
  534MOL0     H72088  10.931   8.990   5.699  0.7980 -1.6727  1.6888
  534MOL0     H72089  10.985   9.152   5.670  5.2368  1.1823 -1.0266
  534MOL0     H72090  11.102   9.024   5.686  0.7338  1.0217  0.5036
  535MOL0     O72091   0.274   9.277   2.373 -0.3908  0.7434 -1.2238
  535MOL0     C72092   0.265   9.237   2.260 -0.5438 -0.2333 -0.1273
  535MOL0     O72093   0.171   9.150   2.209  0.5265  0.4394 -0.4759
  535MOL0     C72094   0.094   9.079   2.304  1.3754 -0.0507 -0.3025
  535MOL0     C72095   0.127   8.947   2.328  0.4839 -0.1698 -0.1533
  535MOL0     C72096   0.045   8.871   2.407  0.7528 -0.5190  0.5047
  535MOL0     C72097  -0.070   8.922   2.466 -0.5717 -0.1017 -0.4963
  535MOL0     O72098  -0.151   8.852   2.545 -1.1041 -0.5860 -0.5406
  535MOL0     C72099  -0.098   8.766   2.644 -0.5093  0.3888 -0.5283
  535MOL0     C72100  -0.209   8.713   2.731  0.0778  0.5093 -0.1186
  535MOL0     C72101  -0.280   8.584   2.673  1.5720  0.4002  0.4990
  535MOL0     C72102  -0.432   8.603   2.684  0.3746  0.8370 -0.5853
  535MOL0     C72103  -0.503   8.476   2.638  0.2129 -0.0130  0.9642
  535MOL0     C72104  -0.663   8.487   2.630  0.6038  0.5024 -0.5906
  535MOL0     C72105  -0.714   8.361   2.557  0.5905  0.2980 -0.2367
  535MOL0     C72106  -0.861   8.372   2.502  0.2147  0.0139  0.1121
  535MOL0     N72107  -0.856   8.449   2.376 -0.0869  0.3849 -0.1527
  535MOL0     C72108  -0.761   8.539   2.333 -0.4564 -0.5083  0.2318
  535MOL0     C72109  -0.821   8.602   2.230  0.9604  0.7566  0.2715
  535MOL0     C72110  -0.747   8.707   2.151  0.3230  0.2801 -0.6297
  535MOL0     C72111  -0.759   8.687   1.994  0.7662  0.2502 -0.1752
  535MOL0     C72112  -0.690   8.802   1.924 -0.0274 -0.2011 -0.5896
  535MOL0     C72113  -0.709   8.788   1.780 -0.0266 -0.3034  0.2135
  535MOL0     O72114  -0.600   8.715   1.720 -0.0526  0.0839 -0.9801
  535MOL0     C72115  -0.613   8.697   1.583 -0.5652 -0.0448 -0.4581
  535MOL0     C72116  -0.512   8.622   1.516 -0.8624 -0.1811  0.7830
  535MOL0     C72117  -0.509   8.613   1.377  0.5991  0.5797 -0.7198
  535MOL0     C72118  -0.601   8.689   1.298  0.1680  0.4814  0.3741
  535MOL0     C72119  -0.585   8.688   1.158 -0.9061  0.6425  0.6434
  535MOL0     O72120  -0.632   8.794   1.091  0.1923 -0.1511 -0.1698
  535MOL0     C72121  -0.644   8.823   0.958  0.3183  1.2126 -1.2259
  535MOL0     C72122  -0.624   8.732   0.852 -0.5100 -0.1197 -0.4964
  535MOL0     C72123  -0.617   8.776   0.719 -0.1717  0.0582  0.1118
  535MOL0     C72124  -0.649   8.907   0.692 -0.3839  0.0272  0.3803
  535MOL0     O72125  -0.663   8.947   0.563 -0.1327 -0.2357  0.3999
  535MOL0     C72126  -0.744   9.061   0.516  0.6703 -0.1978 -0.0140
  535MOL0     C72127  -0.825   9.026   0.391 -0.9927  0.6472 -0.3655
  535MOL0     C72128  -0.876   9.148   0.318  0.0203  0.0307  1.2985
  535MOL0     C72129  -0.937   9.103   0.182  0.8706  1.0377  0.0889
  535MOL0     C72130  -0.837   9.056   0.084 -0.2442 -0.4718 -1.2426
  535MOL0     C72131  -0.875   9.031  -0.055  0.8387  0.3755 -0.0885
  535MOL0     C72132  -0.944   9.160  -0.113 -1.2076 -0.9162  0.3035
  535MOL0     C72133  -0.834   9.270  -0.131  0.9541 -0.2835 -0.9726
  535MOL0    Cl72134  -0.723   9.239  -0.272 -0.4670  0.4617  0.4385
  535MOL0     C72135  -0.670   8.998   0.796  0.9163  1.4273  0.4922
  535MOL0     C72136  -0.657   8.957   0.933 -0.6482 -0.1793  1.1593
  535MOL0     O72137  -0.531   8.591   1.108 -0.0675  0.0928  0.0856
  535MOL0     C72138  -0.701   8.763   1.363 -0.9160  0.0107 -0.4734
  535MOL0     C72139  -0.706   8.762   1.506 -0.0212 -0.6855  1.2340
  535MOL0     N72140  -0.958   8.563   2.211 -0.1441  0.3911  0.2582
  535MOL0     N72141  -0.975   8.474   2.303 -0.2848 -0.2077  0.5894
  535MOL0     C72142  -0.106   9.055   2.443 -1.2362 -0.2606  0.3566
  535MOL0     C72143  -0.024   9.125   2.359  0.0104 -0.5638 -0.4013
  535MOL0     C72144   0.364   9.272   2.162 -0.9042  0.5063 -0.2562
  535MOL0     C72145   0.321   9.318   2.040 -0.1915  0.1916 -0.0543
  535MOL0     C72146   0.416   9.353   1.941 -1.0422  0.1406  0.1534
  535MOL0     C72147   0.552   9.323   1.947  0.5036  0.3468 -0.1112
  535MOL0     O72148   0.634   9.336   1.847  0.2012 -0.6267  0.1077
  535MOL0     C72149   0.674   9.210   1.794 -0.8028  0.7897 -0.0541
  535MOL0     C72150   0.665   9.205   1.649 -0.4551 -0.4940  0.5770
  535MOL0     C72151   0.530   9.231   1.589 -0.4693 -0.4197 -0.7983
  535MOL0     C72152   0.528   9.226   1.441 -0.4835 -0.5301  0.1119
  535MOL0     C72153   0.587   9.112   1.380 -0.0442  0.9278  0.1241
  535MOL0     C72154   0.625   9.019   1.315 -0.6554 -0.4343 -0.1117
  535MOL0     C72155   0.593   9.286   2.069 -0.2306 -0.9277 -0.4283
  535MOL0     C72156   0.506   9.257   2.183 -0.2847  0.3313  0.2187
  535MOL0     C72157   0.561   9.192   2.309  0.3633  0.2391 -0.1351
  535MOL0     H72158   0.201   8.902   2.263  0.0925  0.9613 -1.4439
  535MOL0     H72159   0.061   8.764   2.407 -2.8013 -1.1681  0.1600
  535MOL0     H72160  -0.046   8.681   2.599  1.5887  0.8541  0.8903
  535MOL0     H72161  -0.021   8.813   2.705  0.2118 -2.8057  1.2340
  535MOL0     H72162  -0.279   8.798   2.735  1.9396  2.3386 -2.9003
  535MOL0     H72163  -0.168   8.703   2.831 -0.6427  0.0672  0.1399
  535MOL0     H72164  -0.233   8.500   2.725  1.0197  0.0573  0.4497
  535MOL0     H72165  -0.277   8.573   2.564 -3.0604  1.1985  0.0980
  535MOL0     H72166  -0.469   8.617   2.787  0.8099 -0.0675 -0.3037
  535MOL0     H72167  -0.465   8.685   2.619 -1.8674  1.0583  0.7122
  535MOL0     H72168  -0.485   8.456   2.532 -0.6086  1.4376  0.5197
  535MOL0     H72169  -0.479   8.395   2.707 -1.1358  0.6692  2.2722
  535MOL0     H72170  -0.715   8.495   2.726  1.6647  2.5853 -0.1328
  535MOL0     H72171  -0.684   8.579   2.574  1.3556  0.4273 -1.0123
  535MOL0     H72172  -0.714   8.278   2.629 -2.8457 -1.4894 -2.0735
  535MOL0     H72173  -0.645   8.338   2.475  0.5590  0.5436 -0.3322
  535MOL0     H72174  -0.919   8.280   2.489  0.8627 -0.8136  2.5543
  535MOL0     H72175  -0.935   8.421   2.566 -0.4253  2.9253 -2.5902
  535MOL0     H72176  -0.662   8.546   2.375 -0.7759  2.5283  0.6408
  535MOL0     H72177  -0.779   8.810   2.167  0.3712  0.2905 -0.5996
  535MOL0     H72178  -0.645   8.706   2.189 -0.3262  1.0332  1.2110
  535MOL0     H72179  -0.721   8.590   1.962 -1.9166 -1.1360  0.5406
  535MOL0     H72180  -0.865   8.691   1.969 -0.1717 -0.5225  3.1533
  535MOL0     H72181  -0.583   8.794   1.947  1.3651  0.9656 -5.4471
  535MOL0     H72182  -0.726   8.898   1.962 -1.1024 -1.3246  1.3657
  535MOL0     H72183  -0.720   8.888   1.738 -2.7853 -1.6920 -2.8342
  535MOL0     H72184  -0.805   8.741   1.754 -1.7855  3.3831 -0.6603
  535MOL0     H72185  -0.426   8.580   1.568  0.7675  0.1960 -1.4537
  535MOL0     H72186  -0.444   8.537   1.335  1.1576 -0.0807  1.2196
  535MOL0     H72187  -0.600   8.628   0.871 -3.1772 -0.3994  2.1769
  535MOL0     H72188  -0.588   8.712   0.636  0.2726  2.9173 -2.0649
  535MOL0     H72189  -0.810   9.094   0.597  0.8373 -1.7708  0.8054
  535MOL0     H72190  -0.678   9.145   0.491  1.3812 -0.6908  0.1879
  535MOL0     H72191  -0.755   8.978   0.322 -3.4786  2.6847 -4.8071
  535MOL0     H72192  -0.907   8.958   0.415  1.5274 -3.0248 -1.2739
  535MOL0     H72193  -0.954   9.192   0.380 -1.7588  2.0814 -2.0948
  535MOL0     H72194  -0.794   9.217   0.295 -0.2855  0.2385  0.8317
  535MOL0     H72195  -0.979   9.193   0.137  0.7417  0.8335 -0.2008
  535MOL0     H72196  -1.022   9.035   0.196 -0.6034  2.7021 -0.3628
  535MOL0     H72197  -0.801   8.957   0.111  0.3760  0.5277  2.1971
  535MOL0     H72198  -0.751   9.124   0.084  0.3388 -1.1575  0.4271
  535MOL0     H72199  -0.788   9.004  -0.116 -0.5439 -3.2492 -0.6955
  535MOL0     H72200  -0.944   8.948  -0.072  2.5846 -0.9775 -0.9261
  535MOL0     H72201  -1.043   9.173  -0.069 -1.7490 -2.6358 -0.3269
  535MOL0     H72202  -0.981   9.136  -0.213 -0.1711  1.4921 -0.7241
  535MOL0     H72203  -0.878   9.369  -0.146 -1.2941 -0.9725  0.6341
  535MOL0     H72204  -0.776   9.286  -0.040 -1.1352  0.2644  0.3288
  535MOL0     H72205  -0.675   9.101   0.762  1.8014  1.0184 -0.9570
  535MOL0     H72206  -0.643   9.028   1.013  4.2253  1.3521 -0.7298
  535MOL0     H72207  -0.772   8.829   1.314 -1.6328  1.2114  1.9992
  535MOL0     H72208  -0.771   8.840   1.543  2.0596  2.0389 -0.4682
  535MOL0     H72209  -0.202   9.089   2.480 -2.1859 -2.2664 -0.1120
  535MOL0     H72210  -0.052   9.227   2.335  1.4144  0.7430  2.8912
  535MOL0     H72211   0.215   9.327   2.018 -0.3118 -1.0252 -0.0375
  535MOL0     H72212   0.386   9.386   1.843  0.0480  2.5038  0.5440
  535MOL0     H72213   0.619   9.127   1.838 -3.6459  3.9994  3.0929
  535MOL0     H72214   0.777   9.186   1.822 -0.6979 -1.6001 -2.1559
  535MOL0     H72215   0.699   9.106   1.619 -1.0025 -0.5436  0.1087
  535MOL0     H72216   0.730   9.280   1.604 -2.2726 -1.2215 -3.8300
  535MOL0     H72217   0.498   9.332   1.616 -0.8894 -0.6197 -0.5475
  535MOL0     H72218   0.471   9.146   1.626  1.1744 -1.6482 -0.8809
  535MOL0     H72219   0.424   9.239   1.412 -0.5097  3.7041  1.3362
  535MOL0     H72220   0.592   9.307   1.404 -1.5668  0.7097  0.8500
  535MOL0     H72221   0.653   8.942   1.247 -2.6280  0.9191 -2.6477
  535MOL0     H72222   0.694   9.266   2.102 -0.0393  3.0087  2.1464
  535MOL0     H72223   0.524   9.258   2.388 -0.8642  2.8434 -2.7005
  535MOL0     H72224   0.520   9.091   2.324  1.6770  0.0046  2.3472
  535MOL0     H72225   0.669   9.181   2.299  0.2253 -0.1714 -1.2917
  536MOL0     O72226   6.780   7.388   6.613  0.1871  0.0696  0.0017
  536MOL0     C72227   6.704   7.428   6.699 -0.7580  0.4189  0.6245
  536MOL0     O72228   6.603   7.518   6.667 -0.0419  0.1812 -0.3358
  536MOL0     C72229   6.574   7.538   6.536 -0.2180  0.0268  0.2518
  536MOL0     C72230   6.487   7.457   6.468  0.0743 -0.7728 -0.3962
  536MOL0     C72231   6.463   7.476   6.339 -0.2203  0.5737 -0.7011
  536MOL0     C72232   6.501   7.590   6.262 -0.6322  0.8764 -0.4483
  536MOL0     O72233   6.431   7.598   6.140 -0.0415 -0.7088 -0.3867
  536MOL0     C72234   6.500   7.691   6.056  0.2234 -0.1809 -0.1865
  536MOL0     C72235   6.447   7.678   5.912 -1.0572  0.4357  0.4302
  536MOL0     C72236   6.502   7.790   5.820 -0.1226  0.4816  0.0309
  536MOL0     C72237   6.461   7.923   5.881  1.1723  0.2346  0.2828
  536MOL0     C72238   6.473   8.035   5.776  0.1813 -0.1321  0.4174
  536MOL0     C72239   6.484   8.184   5.821 -0.2271  0.7519 -0.1536
  536MOL0     C72240   6.380   8.253   5.917 -1.3195 -0.1927 -0.2705
  536MOL0     C72241   6.408   8.400   5.932  0.4609 -0.9268 -0.0904
  536MOL0     N72242   6.300   8.464   6.012  0.0023  0.4757  1.1501
  536MOL0     C72243   6.307   8.469   6.148 -0.1185 -0.9595  0.2117
  536MOL0     C72244   6.187   8.528   6.184 -0.3160 -1.0970  0.8359
  536MOL0     C72245   6.149   8.579   6.313 -0.1699 -0.2332  0.1243
  536MOL0     C72246   6.046   8.696   6.308 -0.4853  0.7903  0.5523
  536MOL0     C72247   6.012   8.767   6.444  0.5917  0.3476  0.1276
  536MOL0     C72248   5.916   8.883   6.412  0.0673 -0.0954 -0.5899
  536MOL0     O72249   5.980   8.989   6.329  0.8002 -0.8946 -1.2196
  536MOL0     C72250   5.911   9.103   6.294 -0.2876  0.3601  0.5023
  536MOL0     C72251   5.785   9.134   6.350 -0.1340  0.2275  0.1038
  536MOL0     C72252   5.732   9.257   6.317 -0.6748 -0.5542 -0.0284
  536MOL0     C72253   5.797   9.336   6.213 -0.4384 -0.3186 -0.7386
  536MOL0     C72254   5.734   9.469   6.163 -0.4563 -0.2636  0.1348
  536MOL0     O72255   5.622   9.519   6.228 -0.2388 -0.0512  0.8825
  536MOL0     C72256   5.556   9.630   6.186 -0.0894 -1.6092 -0.7079
  536MOL0     C72257   5.545   9.674   6.049  0.7977 -0.2508  1.0390
  536MOL0     C72258   5.467   9.782   6.024  0.2486 -0.0182 -0.7617
  536MOL0     C72259   5.397   9.849   6.129 -0.0048 -0.1674 -0.2613
  536MOL0     O72260   5.324   9.963   6.128  0.0507  0.5686  0.2378
  536MOL0     C72261   5.253   9.986   6.006 -0.2120 -0.5765  0.3808
  536MOL0     C72262   5.148  10.085   6.034 -0.3047  0.0094 -0.3144
  536MOL0     C72263   5.030  10.011   6.093 -0.7899  0.0289  0.0664
  536MOL0     C72264   4.927  10.107   6.145  0.0426 -0.2658  0.9366
  536MOL0     C72265   4.900  10.226   6.051  1.0592  0.6333 -0.2944
  536MOL0     C72266   4.774  10.286   6.106  0.2732  0.7553  0.0910
  536MOL0     C72267   4.735  10.409   6.023  0.0857  0.4571  0.2326
  536MOL0     C72268   4.594  10.470   6.055 -0.8116  0.2211 -0.0315
  536MOL0    Cl72269   4.558  10.600   5.927 -0.1784 -0.2098  0.5111
  536MOL0     C72270   5.409   9.807   6.262  1.2373  0.5704  0.7594
  536MOL0     C72271   5.492   9.700   6.286  0.7512  0.7135  0.2560
  536MOL0     O72272   5.795   9.531   6.076  0.0756 -0.3585  0.3607
  536MOL0     C72273   5.920   9.297   6.150  0.2122 -0.5819  0.6283
  536MOL0     C72274   5.962   9.174   6.187  0.6585  0.8617  0.1576
  536MOL0     N72275   6.107   8.552   6.067  0.8992  0.2916 -0.6118
  536MOL0     N72276   6.182   8.513   5.968 -0.2414 -0.3541  0.1367
  536MOL0     C72277   6.588   7.679   6.333 -0.6765  0.1425 -0.8364
  536MOL0     C72278   6.623   7.651   6.468 -0.5046 -0.2050 -0.3148
  536MOL0     C72279   6.722   7.389   6.846  0.1060 -0.2093 -0.0260
  536MOL0     C72280   6.705   7.485   6.939 -0.9168 -0.2350  0.6892
  536MOL0     C72281   6.725   7.448   7.080 -0.0569  0.4003  0.5756
  536MOL0     C72282   6.742   7.320   7.117 -0.6791  0.5460 -0.9989
  536MOL0     O72283   6.736   7.268   7.240  0.0970  0.7754  0.3837
  536MOL0     C72284   6.668   7.344   7.346  1.1657 -0.6862 -0.2562
  536MOL0     C72285   6.647   7.257   7.469  0.4955 -0.8098 -0.3141
  536MOL0     C72286   6.581   7.122   7.431 -0.3191 -0.5890  0.0493
  536MOL0     C72287   6.562   7.053   7.562 -0.4267  0.1222  0.1931
  536MOL0     C72288   6.457   6.950   7.555  0.7567 -0.3317  0.8903
  536MOL0     C72289   6.374   6.863   7.544 -0.0581  0.5326  1.5017
  536MOL0     C72290   6.760   7.229   7.019 -0.2269 -0.1714  0.7974
  536MOL0     C72291   6.746   7.261   6.880  0.5656  0.6069 -0.3781
  536MOL0     C72292   6.759   7.149   6.777 -0.1184  0.5075 -0.3300
  536MOL0     H72293   6.445   7.379   6.530  2.4466 -1.5750  0.2986
  536MOL0     H72294   6.383   7.419   6.293 -1.1450  2.9269 -2.1924
  536MOL0     H72295   6.481   7.789   6.099  0.7694 -1.2620  2.6974
  536MOL0     H72296   6.607   7.669   6.047  0.3404  0.7283 -1.1512
  536MOL0     H72297   6.338   7.678   5.903 -0.9514 -0.8930 -1.4889
  536MOL0     H72298   6.486   7.584   5.873  3.3882  1.9975  0.4673
  536MOL0     H72299   6.465   7.789   5.717  2.7153  1.9332 -1.0908
  536MOL0     H72300   6.610   7.783   5.811 -0.0783 -0.4288  1.1219
  536MOL0     H72301   6.355   7.919   5.904  1.0823 -2.0412 -0.2836
  536MOL0     H72302   6.521   7.944   5.970  0.5189  3.4625  0.0912
  536MOL0     H72303   6.565   8.029   5.717  0.9148 -3.2491  1.6768
  536MOL0     H72304   6.394   8.029   5.701  0.2436  0.7746  0.2631
  536MOL0     H72305   6.583   8.203   5.862  0.1327 -3.7604  1.6057
  536MOL0     H72306   6.488   8.241   5.728  0.9908  2.5039  0.9159
  536MOL0     H72307   6.396   8.202   6.013 -0.1957 -2.9584 -1.8108
  536MOL0     H72308   6.279   8.234   5.881 -2.1740  0.5996  1.5420
  536MOL0     H72309   6.509   8.402   5.974  1.4477 -3.0083 -2.1419
  536MOL0     H72310   6.400   8.454   5.837 -1.9721 -3.8610 -1.7238
  536MOL0     H72311   6.384   8.453   6.223  0.0824  1.4995  0.5972
  536MOL0     H72312   6.128   8.504   6.390  1.3322  0.6914  1.4933
  536MOL0     H72313   6.245   8.616   6.350 -0.1486  1.6938 -1.6870
  536MOL0     H72314   6.083   8.776   6.243 -1.2375  1.3907  0.8470
  536MOL0     H72315   5.963   8.663   6.245  1.4457 -0.7236 -1.3687
  536MOL0     H72316   6.096   8.816   6.494  0.8764 -1.6706  1.7278
  536MOL0     H72317   5.962   8.695   6.509  1.5230 -1.4203 -1.0394
  536MOL0     H72318   5.887   8.926   6.508  0.1209  0.7519 -0.9427
  536MOL0     H72319   5.829   8.846   6.357  2.4893 -2.8277 -2.8892
  536MOL0     H72320   5.734   9.067   6.418  1.4896 -1.1381  0.0377
  536MOL0     H72321   5.639   9.285   6.365 -1.8904 -2.6274 -1.0691
  536MOL0     H72322   5.597   9.620   5.970 -0.4561  0.8514 -0.6121
  536MOL0     H72323   5.465   9.832   5.928  3.0986  1.0317 -0.3923
  536MOL0     H72324   5.332  10.035   5.950 -0.7407  0.2887  0.3734
  536MOL0     H72325   5.214   9.903   5.947  1.9071 -0.3097 -1.5288
  536MOL0     H72326   5.181  10.161   6.105 -1.1385  0.3683 -0.2978
  536MOL0     H72327   5.113  10.127   5.939  1.4792  0.6717 -0.7090
  536MOL0     H72328   4.983   9.940   6.025  1.2302 -0.3152 -1.0230
  536MOL0     H72329   5.062   9.948   6.177 -0.3376 -2.1102 -1.6077
  536MOL0     H72330   4.972  10.147   6.236  1.2665  3.6784 -1.1897
  536MOL0     H72331   4.837  10.048   6.166 -0.5390 -0.5885 -2.0149
  536MOL0     H72332   4.886  10.196   5.947 -4.6828 -3.3628  1.1349
  536MOL0     H72333   4.978  10.300   6.072  0.0919  1.2437  1.3470
  536MOL0     H72334   4.692  10.215   6.093 -0.8819  1.9501  0.6908
  536MOL0     H72335   4.781  10.317   6.211  1.7482 -0.1423  0.2929
  536MOL0     H72336   4.746  10.390   5.916 -3.8832 -3.3322  0.2424
  536MOL0     H72337   4.811  10.484   6.049 -0.6627  1.6069 -0.7991
  536MOL0     H72338   4.522  10.387   6.056 -0.1282 -0.3763  1.2346
  536MOL0     H72339   4.599  10.520   6.152  1.8612  1.1444 -0.5491
  536MOL0     H72340   5.368   9.857   6.350  1.4341  3.8140 -0.8517
  536MOL0     H72341   5.501   9.651   6.382  1.9980 -0.0767 -0.2366
  536MOL0     H72342   5.977   9.360   6.082 -0.0584 -0.6213  0.3621
  536MOL0     H72343   6.055   9.129   6.153  0.4592  1.4510 -1.1983
  536MOL0     H72344   6.623   7.775   6.298  1.1646 -0.4037 -0.6394
  536MOL0     H72345   6.699   7.709   6.520  0.2355  1.2274 -2.8079
  536MOL0     H72346   6.685   7.589   6.914  2.0661  0.9129  2.4342
  536MOL0     H72347   6.704   7.527   7.151 -3.7536  0.1443 -0.0262
  536MOL0     H72348   6.575   7.382   7.303  1.3639 -0.3584 -0.3964
  536MOL0     H72349   6.738   7.423   7.372 -1.2633  0.4377  3.6768
  536MOL0     H72350   6.585   7.309   7.542  0.0242 -2.0281  0.1900
  536MOL0     H72351   6.735   7.237   7.531 -0.5663  0.4253  1.7015
  536MOL0     H72352   6.633   7.059   7.358 -1.4774  0.7006 -1.9875
  536MOL0     H72353   6.482   7.129   7.383 -0.3483 -2.1042 -0.1852
  536MOL0     H72354   6.658   7.023   7.605 -1.3535  0.5316  2.7124
  536MOL0     H72355   6.514   7.126   7.628  0.3067 -0.2663  1.1765
  536MOL0     H72356   6.300   6.788   7.524  0.1156  0.9046 -0.8795
  536MOL0     H72357   6.768   7.124   7.045 -0.6538 -0.1138  1.1824
  536MOL0     H72358   6.678   7.136   6.705 -1.8763 -0.8712  1.7605
  536MOL0     H72359   6.860   7.152   6.734 -0.4744 -1.7135 -1.4860
  536MOL0     H72360   6.759   7.052   6.827 -3.6176 -0.7281 -2.3500
  537MOL0     O72361   8.276   8.396   6.278  0.7952 -0.8658  0.1855
  537MOL0     C72362   8.269   8.411   6.397 -0.6693  0.9470  0.2495
  537MOL0     O72363   8.316   8.320   6.484 -0.4394  0.0687 -0.1815
  537MOL0     C72364   8.379   8.200   6.452 -0.2335 -0.4687  0.0493
  537MOL0     C72365   8.383   8.140   6.322 -0.1629 -0.4192  0.3550
  537MOL0     C72366   8.459   8.033   6.306  0.2928  0.5832 -0.2323
  537MOL0     C72367   8.526   7.978   6.414 -0.4389  0.5327  0.5024
  537MOL0     O72368   8.603   7.861   6.373 -1.0789  0.0844 -0.1809
  537MOL0     C72369   8.653   7.764   6.471 -0.1938 -0.0554  0.1457
  537MOL0     C72370   8.557   7.654   6.488 -0.0489  0.8920  0.3737
  537MOL0     C72371   8.582   7.577   6.616  0.2276 -0.7874  0.5664
  537MOL0     C72372   8.483   7.463   6.623  0.7153 -0.4007  0.5649
  537MOL0     C72373   8.349   7.492   6.688  0.8439  0.2954  0.1222
  537MOL0     C72374   8.362   7.528   6.842  0.3001 -0.1318 -0.0483
  537MOL0     C72375   8.241   7.594   6.906  0.6012  0.0209  0.0125
  537MOL0     C72376   8.218   7.738   6.866 -0.4467 -1.4266 -0.5315
  537MOL0     N72377   8.303   7.840   6.934 -0.2734 -0.2660  0.2576
  537MOL0     C72378   8.437   7.850   6.921  0.2084 -0.5085  0.1021
  537MOL0     C72379   8.464   7.968   6.987 -0.4414  0.3633  0.0502
  537MOL0     C72380   8.604   8.042   6.999  0.8073  0.0032 -0.4344
  537MOL0     C72381   8.713   7.949   6.945  0.2831 -0.2000 -0.4951
  537MOL0     C72382   8.863   8.003   6.942  0.6632 -0.7022 -0.3872
  537MOL0     C72383   8.887   8.106   6.836 -0.2800  0.0589 -0.4223
  537MOL0     O72384   8.862   8.057   6.704  0.8179 -0.6055  0.3298
  537MOL0     C72385   8.966   8.018   6.620  0.3078  0.0178  0.3764
  537MOL0     C72386   8.932   8.009   6.484  0.8672 -0.4206  1.1962
  537MOL0     C72387   9.030   7.972   6.389 -0.6085  0.1507 -1.0561
  537MOL0     C72388   9.162   7.970   6.432  1.1335 -0.2818  0.4340
  537MOL0     C72389   9.269   7.958   6.336 -0.6729 -0.7838  0.1548
  537MOL0     O72390   9.394   7.936   6.389  1.0012  0.0948 -0.0371
  537MOL0     C72391   9.493   7.937   6.295  0.1199 -0.0476 -0.8461
  537MOL0     C72392   9.494   7.859   6.174 -0.3953 -0.8561 -0.1107
  537MOL0     C72393   9.605   7.853   6.087  0.7333 -0.3946  0.3149
  537MOL0     C72394   9.728   7.913   6.134 -0.2175 -0.5273 -0.1696
  537MOL0     O72395   9.854   7.881   6.088 -0.4054  0.7931  0.1654
  537MOL0     C72396   9.894   7.750   6.147  0.3332  0.5019  0.4533
  537MOL0     C72397  10.042   7.735   6.119 -0.3520  0.0232 -0.4245
  537MOL0     C72398  10.129   7.815   6.222 -1.5479  0.0666 -0.6802
  537MOL0     C72399  10.269   7.746   6.231  0.4480 -1.6747  0.4495
  537MOL0     C72400  10.369   7.837   6.300 -1.1106 -0.4872  0.0066
  537MOL0     C72401  10.521   7.787   6.339 -0.8783 -0.3442  0.6743
  537MOL0     C72402  10.589   7.761   6.205 -0.9613  1.1345  0.6825
  537MOL0     C72403  10.698   7.658   6.227  0.5213  0.0888  0.5852
  537MOL0    Cl72404  10.806   7.706   6.350  0.0045  0.2983  0.4166
  537MOL0     C72405   9.722   8.000   6.244 -0.2855  0.3747  0.5465
  537MOL0     C72406   9.603   8.017   6.317 -0.3038 -0.7813 -0.8014
  537MOL0     O72407   9.246   7.974   6.215 -0.6196  0.5370  0.2815
  537MOL0     C72408   9.193   7.963   6.575 -0.4586  0.0104  0.4928
  537MOL0     C72409   9.099   7.989   6.670  0.2829 -0.2654  0.5083
  537MOL0     N72410   8.347   8.019   7.044 -0.8689 -0.3098  0.0937
  537MOL0     N72411   8.246   7.945   7.003 -0.2673  0.4426 -0.4876
  537MOL0     C72412   8.523   8.035   6.548  0.3004  0.4379  0.8716
  537MOL0     C72413   8.446   8.148   6.559  0.2028  0.0621 -0.0113
  537MOL0     C72414   8.185   8.525   6.439 -0.4214  0.3751  0.7293
  537MOL0     C72415   8.131   8.520   6.567  0.7552  0.1463 -0.0466
  537MOL0     C72416   8.046   8.619   6.624 -0.6562 -0.2905 -0.2250
  537MOL0     C72417   8.019   8.731   6.550  0.3684 -1.0793  0.3947
  537MOL0     O72418   7.934   8.817   6.601 -0.0432 -0.4078  0.1790
  537MOL0     C72419   7.952   8.951   6.558  0.2782 -0.5373  0.3252
  537MOL0     C72420   7.851   9.051   6.613  0.2664 -0.8030 -1.0112
  537MOL0     C72421   7.711   9.031   6.567  0.4994  0.5432  0.0399
  537MOL0     C72422   7.633   8.931   6.653  0.5112  0.1340 -0.4656
  537MOL0     C72423   7.485   8.957   6.628  0.2120  0.4974  0.9768
  537MOL0     C72424   7.375   8.998   6.615  0.1739  0.3313 -1.3448
  537MOL0     C72425   8.074   8.744   6.415 -0.2425  0.5341 -0.4139
  537MOL0     C72426   8.164   8.643   6.366 -0.7244 -0.0616 -0.5536
  537MOL0     C72427   8.231   8.659   6.233  0.2269  0.5756 -0.7257
  537MOL0     H72428   8.341   8.180   6.230  1.9390 -0.4741 -0.6899
  537MOL0     H72429   8.463   7.980   6.211 -2.2577  2.4634 -1.4939
  537MOL0     H72430   8.747   7.724   6.432 -0.0122  1.8945 -1.5909
  537MOL0     H72431   8.678   7.814   6.566  1.3072  0.6046 -0.5668
  537MOL0     H72432   8.557   7.599   6.394 -2.7267  1.1066  0.1560
  537MOL0     H72433   8.464   7.712   6.489  0.0599  1.2527 -2.6750
  537MOL0     H72434   8.574   7.639   6.706 -4.6813 -1.0309  0.5683
  537MOL0     H72435   8.684   7.536   6.611  1.7082  2.5227  0.7145
  537MOL0     H72436   8.469   7.414   6.527 -2.7341 -0.5615  0.9967
  537MOL0     H72437   8.525   7.390   6.693  1.1396 -0.4050  0.3053
  537MOL0     H72438   8.311   7.577   6.630 -0.4898 -1.0203 -1.0542
  537MOL0     H72439   8.280   7.409   6.667 -1.9479  2.9043 -1.9969
  537MOL0     H72440   8.396   7.435   6.890  1.1074 -0.0820 -0.5071
  537MOL0     H72441   8.452   7.589   6.853  0.9010 -0.7624 -1.2293
  537MOL0     H72442   8.244   7.592   7.015  0.3513  4.2167  0.2802
  537MOL0     H72443   8.154   7.538   6.870  1.7471 -0.3970 -2.2932
  537MOL0     H72444   8.201   7.752   6.758 -0.2756  0.7679 -0.3142
  537MOL0     H72445   8.120   7.759   6.908  2.1303  3.6547  4.1607
  537MOL0     H72446   8.496   7.788   6.854  0.4069  0.6231 -0.7924
  537MOL0     H72447   8.618   8.140   6.952  2.4048  0.7382  1.4281
  537MOL0     H72448   8.630   8.056   7.105  0.2124  0.4195 -0.3362
  537MOL0     H72449   8.711   7.865   7.016 -5.0877 -0.1106 -0.1739
  537MOL0     H72450   8.694   7.912   6.844  0.2504 -0.7534 -0.2908
  537MOL0     H72451   8.926   7.915   6.927 -1.1294 -1.7324 -2.6583
  537MOL0     H72452   8.879   8.045   7.041 -0.0829  0.3248 -0.6762
  537MOL0     H72453   8.987   8.148   6.846  0.0659 -1.0961  1.4798
  537MOL0     H72454   8.824   8.194   6.851 -0.0716 -0.1995  2.5444
  537MOL0     H72455   8.841   8.039   6.433  2.6049  2.0266 -0.7248
  537MOL0     H72456   9.012   7.948   6.285  2.6060 -0.7438 -1.5237
  537MOL0     H72457   9.407   7.803   6.142  0.2732 -1.6972 -0.5029
  537MOL0     H72458   9.600   7.806   5.989  0.2014  0.3226 -0.0131
  537MOL0     H72459   9.863   7.744   6.252  0.3033  0.5407  0.4469
  537MOL0     H72460   9.841   7.674   6.089  1.4542 -0.6311  0.8509
  537MOL0     H72461  10.058   7.628   6.133  0.6174  0.5030  2.8950
  537MOL0     H72462  10.057   7.740   6.010 -0.1050 -3.6461 -0.6737
  537MOL0     H72463  10.136   7.918   6.185 -0.8788  1.4541  2.9281
  537MOL0     H72464  10.080   7.824   6.319 -2.0797  1.4467 -1.0419
  537MOL0     H72465  10.306   7.722   6.131 -0.1357  0.1305 -0.2361
  537MOL0     H72466  10.267   7.656   6.293  0.2154 -2.2436 -0.3755
  537MOL0     H72467  10.328   7.863   6.398  0.5742 -2.0036  1.1659
  537MOL0     H72468  10.381   7.928   6.240 -2.4530 -0.0787  0.3193
  537MOL0     H72469  10.570   7.868   6.393 -0.0621  0.9305 -1.7946
  537MOL0     H72470  10.527   7.690   6.388  2.8911 -0.3884  0.3742
  537MOL0     H72471  10.632   7.849   6.156 -2.1314  1.3772  0.0567
  537MOL0     H72472  10.523   7.719   6.129  0.8492 -2.5481  0.9394
  537MOL0     H72473  10.653   7.559   6.235  2.3153 -1.2207 -3.2613
  537MOL0     H72474  10.762   7.658   6.139 -0.6154  3.6860 -0.4168
  537MOL0     H72475   9.816   8.055   6.244  1.8398 -2.9954 -0.0399
  537MOL0     H72476   9.614   8.090   6.397 -1.1953 -0.8839 -0.5709
  537MOL0     H72477   9.287   7.939   6.624 -1.4426  1.1555  3.1469
  537MOL0     H72478   9.133   7.974   6.772  0.2828  4.4573  1.4367
  537MOL0     H72479   8.596   7.998   6.619  1.4901  0.9681 -0.0341
  537MOL0     H72480   8.429   8.193   6.657  0.5105  0.1779 -0.0101
  537MOL0     H72481   8.149   8.432   6.629 -2.4558 -1.8377 -1.6436
  537MOL0     H72482   7.998   8.598   6.719 -0.6004  0.3100 -0.0604
  537MOL0     H72483   7.953   8.960   6.449 -1.0552 -2.2274  0.1260
  537MOL0     H72484   8.050   8.993   6.583  0.7940 -0.9024 -1.0248
  537MOL0     H72485   7.878   9.153   6.586 -1.8771  0.4472  1.1338
  537MOL0     H72486   7.864   9.047   6.722 -1.3507 -2.7517 -0.8419
  537MOL0     H72487   7.725   8.999   6.463  2.1883 -2.5127  1.0998
  537MOL0     H72488   7.670   9.132   6.568 -2.7482 -0.6722  0.7725
  537MOL0     H72489   7.662   8.831   6.619 -3.7298 -1.2654 -0.4825
  537MOL0     H72490   7.658   8.939   6.759  0.8298 -0.8166 -0.4634
  537MOL0     H72491   7.279   9.044   6.602 -0.0991  0.4308  0.7277
  537MOL0     H72492   8.046   8.829   6.354 -1.5534  1.4768  1.3872
  537MOL0     H72493   8.175   8.596   6.164 -0.6288 -0.0699  0.5413
  537MOL0     H72494   8.214   8.766   6.213  2.1061  1.0697  0.0961
  537MOL0     H72495   8.339   8.642   6.238  0.9896  3.9373 -2.2446
  538MOL0     O72496   3.494   7.350   0.133 -0.3612 -0.9379  0.3372
  538MOL0     C72497   3.439   7.456   0.164 -0.4235 -0.3262 -0.2455
  538MOL0     O72498   3.398   7.485   0.294 -0.2009 -0.0813 -1.3547
  538MOL0     C72499   3.310   7.401   0.345 -0.2654  0.6044 -0.0810
  538MOL0     C72500   3.185   7.376   0.294 -0.0496  0.7228  0.0233
  538MOL0     C72501   3.101   7.273   0.344  0.4300 -0.2899 -0.7537
  538MOL0     C72502   3.134   7.200   0.454  0.1298 -0.2880 -0.1741
  538MOL0     O72503   3.036   7.114   0.497  0.5561 -0.1259  0.0135
  538MOL0     C72504   3.048   7.043   0.622 -0.9645 -0.7304 -0.2015
  538MOL0     C72505   2.934   6.945   0.631 -0.2550 -0.8618  0.7198
  538MOL0     C72506   2.971   6.858   0.755  0.2020  0.0040 -0.4343
  538MOL0     C72507   2.869   6.761   0.788  0.7215 -0.3385  0.4635
  538MOL0     C72508   2.886   6.665   0.905  0.6094 -0.1769 -0.4487
  538MOL0     C72509   2.879   6.733   1.044  0.6637  0.1834  0.0630
  538MOL0     C72510   2.744   6.718   1.112  0.0899 -1.2040  0.3320
  538MOL0     C72511   2.626   6.794   1.047  0.3462  0.3860  0.3726
  538MOL0     N72512   2.518   6.828   1.140 -0.6553 -0.2654  0.4414
  538MOL0     C72513   2.462   6.745   1.232 -0.2374  0.1779 -1.3427
  538MOL0     C72514   2.400   6.818   1.332  0.1600 -0.3542 -0.2830
  538MOL0     C72515   2.338   6.756   1.462 -0.2175 -0.0619 -0.2668
  538MOL0     C72516   2.223   6.663   1.430 -0.3686  0.5006 -0.0995
  538MOL0     C72517   2.152   6.607   1.555  0.0203 -0.6488  0.4904
  538MOL0     C72518   2.038   6.515   1.517  0.5543 -0.1429 -0.0932
  538MOL0     O72519   1.996   6.458   1.638  1.0371  0.1638 -0.0611
  538MOL0     C72520   1.914   6.355   1.610  0.6023  0.2299 -0.2037
  538MOL0     C72521   1.782   6.405   1.611  0.2430  0.1260  0.2104
  538MOL0     C72522   1.676   6.319   1.581 -0.4420 -0.3985 -0.6144
  538MOL0     C72523   1.696   6.181   1.568  0.6336 -0.6423  0.3658
  538MOL0     C72524   1.578   6.085   1.551 -0.3634 -0.5932  0.3907
  538MOL0     O72525   1.607   5.958   1.514 -0.1035  0.1537  0.0162
  538MOL0     C72526   1.501   5.875   1.489 -0.2645  0.6883  0.0179
  538MOL0     C72527   1.501   5.750   1.542 -0.3635 -0.7914  0.6835
  538MOL0     C72528   1.390   5.667   1.528 -0.1967  0.4411  0.0716
  538MOL0     C72529   1.280   5.701   1.445 -0.3859  0.3722 -0.1882
  538MOL0     O72530   1.171   5.622   1.406 -0.0440 -0.1161  0.0128
  538MOL0     C72531   1.168   5.498   1.484 -0.3311  0.0056  0.0334
  538MOL0     C72532   1.057   5.402   1.435  0.1705 -0.2556  0.2329
  538MOL0     C72533   1.001   5.282   1.516 -0.7831 -0.8295 -0.6380
  538MOL0     C72534   1.119   5.191   1.549  1.1031  0.7318 -0.2117
  538MOL0     C72535   1.112   5.138   1.691  0.5158 -0.7808  0.5247
  538MOL0     C72536   1.136   5.230   1.808  0.8843 -0.0557  0.4627
  538MOL0     C72537   1.262   5.327   1.781  0.3563 -0.4661  0.8049
  538MOL0     C72538   1.391   5.269   1.746 -0.9209 -0.1299  0.0456
  538MOL0    Cl72539   1.517   5.367   1.682 -0.2453  0.0049  0.3107
  538MOL0     C72540   1.278   5.828   1.396  0.8872  0.7671 -0.0992
  538MOL0     C72541   1.389   5.915   1.412 -0.7686 -0.1993 -0.4894
  538MOL0     O72542   1.472   6.138   1.577  0.3788 -0.2739  0.1089
  538MOL0     C72543   1.831   6.135   1.577 -0.1371 -0.2155 -0.1806
  538MOL0     C72544   1.938   6.218   1.615  0.4729  0.3911 -0.9932
  538MOL0     N72545   2.416   6.945   1.288  0.5287  0.3079  0.2349
  538MOL0     N72546   2.483   6.948   1.176 -0.3490  0.9474 -0.8175
  538MOL0     C72547   3.260   7.223   0.506 -0.6102  1.0258 -0.2124
  538MOL0     C72548   3.346   7.319   0.457 -0.3260 -0.6727 -0.4122
  538MOL0     C72549   3.439   7.574   0.073 -0.1355  0.4315 -0.3928
  538MOL0     C72550   3.345   7.675   0.094 -0.4538  0.6675  0.6211
  538MOL0     C72551   3.334   7.785   0.026 -0.9925  1.6238  1.4528
  538MOL0     C72552   3.419   7.800  -0.087  0.1621  0.4196  0.6541
  538MOL0     O72553   3.409   7.910  -0.160 -0.0662 -0.3954  1.0134
  538MOL0     C72554   3.499   7.952  -0.264 -0.9434 -0.1494  0.4103
  538MOL0     C72555   3.490   7.875  -0.400 -0.5111 -0.0142  0.1740
  538MOL0     C72556   3.579   7.944  -0.508 -0.9126 -0.3687  0.7057
  538MOL0     C72557   3.725   7.944  -0.474 -0.3130 -0.6665 -0.0212
  538MOL0     C72558   3.776   7.812  -0.431  0.6705 -0.0822  0.5078
  538MOL0     C72559   3.804   7.710  -0.379  0.1882  0.1712  0.8016
  538MOL0     C72560   3.515   7.703  -0.114  0.3511 -1.0693  0.0257
  538MOL0     C72561   3.527   7.592  -0.040  0.6448 -0.2512 -0.1843
  538MOL0     C72562   3.652   7.507  -0.071 -0.4568 -0.3588  0.3119
  538MOL0     H72563   3.148   7.427   0.206 -2.1658 -0.7560 -0.0328
  538MOL0     H72564   2.996   7.265   0.317 -0.3182  1.4596  1.3646
  538MOL0     H72565   3.142   6.987   0.621  0.7764  1.6303  4.2687
  538MOL0     H72566   3.044   7.104   0.712  2.2150 -0.9239  0.1804
  538MOL0     H72567   2.910   6.889   0.540  2.2608  2.2900 -2.0990
  538MOL0     H72568   2.842   7.002   0.641 -0.3144 -0.6220 -0.9804
  538MOL0     H72569   2.987   6.913   0.848  1.3591  0.3918 -0.8513
  538MOL0     H72570   3.064   6.800   0.746 -0.4993 -1.6074  1.7467
  538MOL0     H72571   2.769   6.804   0.795  2.5273  4.2912  1.3647
  538MOL0     H72572   2.862   6.697   0.699 -1.8178  0.7665 -0.2296
  538MOL0     H72573   2.824   6.576   0.895 -1.3704  1.1229 -0.3167
  538MOL0     H72574   2.989   6.630   0.889 -0.0330 -1.0419 -3.0880
  538MOL0     H72575   2.955   6.686   1.107  1.9861  0.3540 -1.3484
  538MOL0     H72576   2.902   6.840   1.036  0.4535  0.0988 -2.0093
  538MOL0     H72577   2.753   6.753   1.215  1.9092 -0.4769 -0.0256
  538MOL0     H72578   2.733   6.609   1.117  3.1554 -1.5870  1.0111
  538MOL0     H72579   2.676   6.884   1.011  1.4314 -0.6694 -0.8902
  538MOL0     H72580   2.586   6.739   0.961 -0.1621  0.0637  0.8049
  538MOL0     H72581   2.478   6.637   1.227  3.8845  0.6961 -3.9094
  538MOL0     H72582   2.418   6.704   1.515  1.0777  2.2016  0.1654
  538MOL0     H72583   2.302   6.839   1.524 -2.8002 -2.3125  1.4765
  538MOL0     H72584   2.148   6.714   1.369  1.4495  0.3997 -2.5293
  538MOL0     H72585   2.262   6.587   1.362  2.4327  1.4004  0.3851
  538MOL0     H72586   2.130   6.694   1.618  0.1098  1.4021 -2.1506
  538MOL0     H72587   2.222   6.548   1.616 -1.5646 -1.5295  1.5293
  538MOL0     H72588   2.064   6.431   1.452  1.7805  0.0671  0.0895
  538MOL0     H72589   1.963   6.581   1.475 -1.7089 -3.0176 -0.8869
  538MOL0     H72590   1.767   6.508   1.643  2.7485  1.1289 -1.5484
  538MOL0     H72591   1.580   6.368   1.592  0.3650  0.8888  1.0773
  538MOL0     H72592   1.585   5.716   1.602  0.5593 -3.2550 -1.7808
  538MOL0     H72593   1.384   5.563   1.556 -4.2435 -0.4303 -3.0917
  538MOL0     H72594   1.263   5.443   1.477  0.3951  1.4327 -2.9426
  538MOL0     H72595   1.146   5.522   1.588  3.0992  0.1813  0.8520
  538MOL0     H72596   0.975   5.473   1.418  1.0522  1.6493  3.0463
  538MOL0     H72597   1.074   5.362   1.335 -0.5986 -1.4805  0.5722
  538MOL0     H72598   0.951   5.323   1.605  1.2181  0.5978 -0.1040
  538MOL0     H72599   0.917   5.236   1.464 -0.8426 -0.5018 -0.8323
  538MOL0     H72600   1.216   5.239   1.536  1.8102 -0.3469  0.8192
  538MOL0     H72601   1.118   5.111   1.474  3.2057  0.0321  0.4116
  538MOL0     H72602   1.197   5.070   1.705  1.4251  0.4097  0.9495
  538MOL0     H72603   1.012   5.095   1.697  0.1250  0.2936  3.4347
  538MOL0     H72604   1.041   5.277   1.835 -1.2200 -1.9038 -3.0169
  538MOL0     H72605   1.164   5.171   1.896 -1.1279 -1.6873  0.0880
  538MOL0     H72606   1.280   5.383   1.873  2.1452  1.8723 -0.8553
  538MOL0     H72607   1.235   5.385   1.691  0.6699 -2.8370 -0.9148
  538MOL0     H72608   1.427   5.224   1.838  0.9113 -0.5209 -0.8162
  538MOL0     H72609   1.363   5.179   1.690 -1.1862 -1.2407  1.8831
  538MOL0     H72610   1.196   5.877   1.345  1.1490  3.2952  1.7077
  538MOL0     H72611   1.370   6.016   1.376  2.4073  0.1400 -1.5102
  538MOL0     H72612   1.849   6.028   1.580 -1.1902 -0.3854  1.7251
  538MOL0     H72613   2.031   6.182   1.657 -1.1844 -1.7499  1.0496
  538MOL0     H72614   3.303   7.173   0.592  0.2302 -1.4932 -1.9992
  538MOL0     H72615   3.432   7.340   0.520 -1.4975  2.4060  0.3194
  538MOL0     H72616   3.273   7.665   0.175  0.4404 -0.0606  1.3518
  538MOL0     H72617   3.246   7.849   0.039 -1.2535  1.5565  0.0807
  538MOL0     H72618   3.601   7.941  -0.224  1.1411  0.8288 -3.9775
  538MOL0     H72619   3.474   8.056  -0.283 -2.9080  0.1943  4.0760
  538MOL0     H72620   3.390   7.877  -0.443 -0.7481  0.9655  0.7508
  538MOL0     H72621   3.525   7.771  -0.399 -0.5694 -0.0424 -0.2696
  538MOL0     H72622   3.550   8.049  -0.502 -1.0367 -0.3075 -0.6022
  538MOL0     H72623   3.553   7.891  -0.601 -2.0005  0.4141  0.5466
  538MOL0     H72624   3.795   7.982  -0.549  2.7691 -0.7947  2.5802
  538MOL0     H72625   3.745   8.009  -0.388 -2.9879  2.3641 -1.4726
  538MOL0     H72626   3.830   7.610  -0.351  1.0966 -0.6510 -2.5530
  538MOL0     H72627   3.573   7.722  -0.203 -2.1268  2.5655 -1.0384
  538MOL0     H72628   3.728   7.528   0.005 -1.2630  0.1867  0.9879
  538MOL0     H72629   3.624   7.402  -0.064  0.9084 -0.8094 -0.6885
  538MOL0     H72630   3.695   7.531  -0.169 -0.0660  0.5287  0.6811
  539MOL0     O72631   6.572   7.680   2.055  0.9046  0.8386 -0.5703
  539MOL0     C72632   6.505   7.579   2.027 -0.1400 -0.4346 -0.0399
  539MOL0     O72633   6.378   7.554   2.074  0.3916 -0.6688 -0.1292
  539MOL0     C72634   6.324   7.675   2.120 -0.5448  0.7176 -0.6131
  539MOL0     C72635   6.270   7.671   2.252  0.8307 -0.0735 -0.7991
  539MOL0     C72636   6.204   7.781   2.303 -0.2890  1.6863  0.1650
  539MOL0     C72637   6.201   7.899   2.230  0.0297 -0.6690  0.2876
  539MOL0     O72638   6.119   8.000   2.273 -0.1223  0.0787 -0.0419
  539MOL0     C72639   6.059   8.024   2.397  0.5256 -0.1275 -0.6181
  539MOL0     C72640   5.905   8.008   2.394 -0.0644 -0.1682 -0.4324
  539MOL0     C72641   5.850   8.057   2.256 -0.7759 -0.5868  0.9608
  539MOL0     C72642   5.699   8.044   2.266  0.3983 -0.1877  0.4367
  539MOL0     C72643   5.635   8.111   2.142  0.3817 -0.3278  0.2725
  539MOL0     C72644   5.616   8.021   2.016 -0.4936  0.6206  0.5854
  539MOL0     C72645   5.565   8.103   1.904  0.0796  0.6812 -0.0875
  539MOL0     C72646   5.538   8.023   1.778 -0.5243  0.2322  0.5921
  539MOL0     N72647   5.500   8.117   1.664 -0.8670  0.0125  0.2537
  539MOL0     C72648   5.397   8.195   1.666  0.2065 -0.3325 -0.0064
  539MOL0     C72649   5.413   8.293   1.572  0.3788 -0.9216 -0.9801
  539MOL0     C72650   5.323   8.404   1.520  0.5211 -0.7891  0.6839
  539MOL0     C72651   5.276   8.380   1.372 -0.3089  0.5997  0.1366
  539MOL0     C72652   5.244   8.514   1.303 -0.3378  0.7282  0.4493
  539MOL0     C72653   5.115   8.585   1.337  0.5642  0.8548  0.9367
  539MOL0     O72654   5.126   8.653   1.467 -0.1730  0.3690  0.7113
  539MOL0     C72655   5.033   8.625   1.566  0.3213  1.0889  0.9614
  539MOL0     C72656   5.075   8.630   1.695 -0.8688  0.0882 -0.2514
  539MOL0     C72657   4.986   8.618   1.796  0.5021  1.2220 -0.2760
  539MOL0     C72658   4.849   8.611   1.766  0.0850  1.2913  0.4656
  539MOL0     C72659   4.751   8.623   1.884 -0.7854  0.4986  0.1904
  539MOL0     O72660   4.803   8.605   2.012 -0.2569  0.3399  0.7607
  539MOL0     C72661   4.718   8.613   2.123  0.1626  0.2916 -0.8003
  539MOL0     C72662   4.778   8.683   2.232  0.8155  0.2185  0.9254
  539MOL0     C72663   4.703   8.701   2.352  0.9423 -0.4296  0.0771
  539MOL0     C72664   4.565   8.656   2.361  0.4704 -0.9113  0.3470
  539MOL0     O72665   4.482   8.682   2.471  0.6243  0.2168  0.3465
  539MOL0     C72666   4.530   8.769   2.577  0.5833 -0.6189  0.1241
  539MOL0     C72667   4.401   8.790   2.660 -0.0783  0.6548 -0.4136
  539MOL0     C72668   4.432   8.812   2.803  0.2944 -1.4004  0.4921
  539MOL0     C72669   4.487   8.948   2.836  0.4209 -0.3037 -0.2154
  539MOL0     C72670   4.544   8.959   2.983 -0.0707  0.3202 -0.2568
  539MOL0     C72671   4.514   9.090   3.038  0.1651  0.5754 -0.3858
  539MOL0     C72672   4.554   9.201   2.933 -0.1883  0.3889 -0.7184
  539MOL0     C72673   4.557   9.332   3.011  0.0558  0.1757 -0.3591
  539MOL0    Cl72674   4.605   9.446   2.898  0.0512  0.5404  0.0289
  539MOL0     C72675   4.518   8.577   2.254 -0.0638 -0.2325 -0.0184
  539MOL0     C72676   4.592   8.564   2.138  0.4498  0.8384 -0.1440
  539MOL0     O72677   4.635   8.641   1.854  0.1655  0.1252 -0.3348
  539MOL0     C72678   4.800   8.602   1.635 -0.5047  0.8871 -0.5121
  539MOL0     C72679   4.899   8.608   1.540  0.1131 -0.1284 -0.1726
  539MOL0     N72680   5.537   8.274   1.529 -0.1542 -0.3104 -0.8291
  539MOL0     N72681   5.585   8.165   1.574 -0.5445  0.0600 -0.1360
  539MOL0     C72682   6.262   7.906   2.101 -0.7422 -0.0788  0.2145
  539MOL0     C72683   6.321   7.789   2.052  0.1870  0.0831 -0.0547
  539MOL0     C72684   6.558   7.476   1.940  0.4516 -0.2200  0.3309
  539MOL0     C72685   6.485   7.410   1.844 -0.5741 -0.5222  0.1147
  539MOL0     C72686   6.531   7.297   1.778  0.6135 -0.1608  0.5913
  539MOL0     C72687   6.651   7.248   1.807  0.3351  1.1835  0.8040
  539MOL0     O72688   6.692   7.135   1.737  0.7779  0.3143 -0.0710
  539MOL0     C72689   6.698   7.018   1.829  0.5440 -0.5437  0.0684
  539MOL0     C72690   6.562   6.966   1.853  0.3907 -0.5818 -0.0797
  539MOL0     C72691   6.494   6.933   1.718 -0.1738 -0.4317 -0.0886
  539MOL0     C72692   6.346   6.897   1.742 -0.2791 -0.3678 -0.1842
  539MOL0     C72693   6.271   7.018   1.767  0.3670  0.4390 -0.2063
  539MOL0     C72694   6.221   7.115   1.807  0.7761 -0.7372 -0.8714
  539MOL0     C72695   6.730   7.313   1.895 -0.9064  0.4221  0.6471
  539MOL0     C72696   6.685   7.413   1.972 -0.3538 -0.6664 -0.1919
  539MOL0     C72697   6.783   7.454   2.083  1.4721 -0.7709 -0.2222
  539MOL0     H72698   6.265   7.579   2.311  0.8249  0.3182 -0.1760
  539MOL0     H72699   6.162   7.758   2.400 -1.5329 -2.5109 -1.1572
  539MOL0     H72700   6.089   7.965   2.484 -2.0563  0.7057  0.9510
  539MOL0     H72701   6.073   8.131   2.414 -3.0237  0.4822 -0.6120
  539MOL0     H72702   5.873   8.057   2.486  3.9708 -2.9131  2.7746
  539MOL0     H72703   5.885   7.901   2.404  0.4291 -0.1092  1.6229
  539MOL0     H72704   5.881   8.004   2.166 -1.4435  0.6887 -0.0551
  539MOL0     H72705   5.885   8.158   2.232 -2.6446  0.3627  2.0006
  539MOL0     H72706   5.681   7.936   2.266  0.4167 -0.2610  3.6107
  539MOL0     H72707   5.667   8.081   2.364 -0.7509 -2.9067  1.1926
  539MOL0     H72708   5.541   8.153   2.179  0.3921  0.6885 -0.7953
  539MOL0     H72709   5.685   8.204   2.110 -1.7752  1.1361  0.9090
  539MOL0     H72710   5.709   7.969   1.992 -0.9505  1.5544 -4.4220
  539MOL0     H72711   5.545   7.942   2.041 -1.3509  0.2882 -2.4496
  539MOL0     H72712   5.644   8.176   1.884  0.2909  0.9763  1.6276
  539MOL0     H72713   5.471   8.151   1.935  0.3657  1.7931 -0.8897
  539MOL0     H72714   5.634   7.974   1.758 -0.5106  0.1468  0.8680
  539MOL0     H72715   5.461   7.952   1.807  1.2700 -2.3537 -0.6023
  539MOL0     H72716   5.315   8.177   1.734  3.9609 -1.9087  4.6729
  539MOL0     H72717   5.233   8.421   1.580 -0.6727  3.2582 -1.8659
  539MOL0     H72718   5.386   8.491   1.503  1.4313 -1.5856 -0.1277
  539MOL0     H72719   5.342   8.316   1.311 -1.1498  1.7287 -2.0912
  539MOL0     H72720   5.187   8.317   1.375 -2.8390  3.7698 -1.6608
  539MOL0     H72721   5.229   8.485   1.198  1.0689  2.3421 -0.2369
  539MOL0     H72722   5.328   8.584   1.302  1.3894 -1.2317 -1.0982
  539MOL0     H72723   5.040   8.506   1.348  2.1432 -1.2342 -1.9790
  539MOL0     H72724   5.091   8.650   1.253 -1.7296 -1.2735 -0.1954
  539MOL0     H72725   5.183   8.645   1.700 -0.8928  0.0249  0.7012
  539MOL0     H72726   5.024   8.629   1.897  0.9153  1.8448 -0.4919
  539MOL0     H72727   4.880   8.706   2.203  0.6161 -1.7578 -1.6889
  539MOL0     H72728   4.751   8.765   2.426  2.9846  5.1037 -5.2210
  539MOL0     H72729   4.610   8.719   2.634  0.3301  0.9911  2.0186
  539MOL0     H72730   4.576   8.860   2.536  2.6225 -0.4828  2.4532
  539MOL0     H72731   4.355   8.885   2.632  1.5903  0.9658 -2.3483
  539MOL0     H72732   4.334   8.704   2.658  0.9699 -0.1820 -0.3375
  539MOL0     H72733   4.339   8.810   2.861 -0.4401 -0.3056 -0.6040
  539MOL0     H72734   4.506   8.741   2.843 -0.6780 -0.9066  3.4464
  539MOL0     H72735   4.408   9.021   2.820  0.1567 -1.1192 -3.3226
  539MOL0     H72736   4.576   8.967   2.774  1.4285 -1.3341  0.8513
  539MOL0     H72737   4.650   8.931   2.986 -0.4743 -1.2661  0.7891
  539MOL0     H72738   4.501   8.886   3.053  6.0554 -0.7377  3.0708
  539MOL0     H72739   4.407   9.099   3.061 -0.5979 -3.6634 -1.3296
  539MOL0     H72740   4.557   9.115   3.135 -4.0800  1.1654  1.5861
  539MOL0     H72741   4.496   9.221   2.842  2.8507  5.3788 -1.9634
  539MOL0     H72742   4.654   9.179   2.893  0.3275 -0.0741  0.7613
  539MOL0     H72743   4.455   9.350   3.045  0.2553 -0.7388  0.8299
  539MOL0     H72744   4.628   9.347   3.093  0.4128  3.7035 -1.1668
  539MOL0     H72745   4.417   8.536   2.267  0.8290 -2.0335  2.0136
  539MOL0     H72746   4.546   8.506   2.059  1.3333 -1.2492  0.8107
  539MOL0     H72747   4.698   8.601   1.600 -1.2699 -1.2043  1.5299
  539MOL0     H72748   4.869   8.600   1.436  1.3843 -0.6251 -0.5187
  539MOL0     H72749   6.257   7.999   2.045 -1.8786  0.4409  1.1250
  539MOL0     H72750   6.370   7.800   1.956  0.6818 -0.8836  0.0773
  539MOL0     H72751   6.393   7.454   1.808 -0.8146  0.6989  2.0485
  539MOL0     H72752   6.472   7.255   1.697  1.3459  2.8422 -1.7184
  539MOL0     H72753   6.752   7.043   1.921  1.0531  1.2428 -0.6688
  539MOL0     H72754   6.755   6.941   1.778 -1.0500 -1.9120  0.2820
  539MOL0     H72755   6.506   7.045   1.904  0.2479 -0.2819 -0.6925
  539MOL0     H72756   6.564   6.874   1.913  2.6843 -0.1319  0.6119
  539MOL0     H72757   6.542   6.841   1.684  4.7156  1.8521 -0.2379
  539MOL0     H72758   6.495   7.003   1.634 -0.8352 -0.3413 -0.0272
  539MOL0     H72759   6.298   6.867   1.648 -0.5853  3.0698 -1.2632
  539MOL0     H72760   6.333   6.827   1.825  4.1423 -0.4385  0.7308
  539MOL0     H72761   6.168   7.202   1.839  1.2694 -0.7394 -0.0315
  539MOL0     H72762   6.832   7.287   1.923  0.1892  3.6514  0.0443
  539MOL0     H72763   6.733   7.499   2.169  1.7807 -0.9470  0.0561
  539MOL0     H72764   6.828   7.371   2.138  0.0922 -0.0119  2.2071
  539MOL0     H72765   6.863   7.521   2.048  0.9288  1.9869  3.2892
  540MOL0     O72766   7.268  10.704   0.942 -0.2488  0.0458 -0.1098
  540MOL0     C72767   7.266  10.599   0.886  0.4510  0.1038  0.7423
  540MOL0     O72768   7.372  10.511   0.869 -0.4042  0.8383 -0.0270
  540MOL0     C72769   7.498  10.550   0.895  0.6861  0.4758 -0.4936
  540MOL0     C72770   7.578  10.453   0.947  1.2454  0.5111 -0.0235
  540MOL0     C72771   7.713  10.464   0.966  0.5129  0.0062 -0.7271
  540MOL0     C72772   7.773  10.583   0.942  0.5938 -0.7085  0.4595
  540MOL0     O72773   7.910  10.591   0.972  0.1966  0.5534 -0.3888
  540MOL0     C72774   7.948  10.710   1.034  0.5119 -0.8408  0.3452
  540MOL0     C72775   8.076  10.722   1.105  0.0114 -0.9484  0.7082
  540MOL0     C72776   8.203  10.695   1.017 -0.4065  0.3083 -0.8031
  540MOL0     C72777   8.219  10.778   0.896  0.1990 -0.1957 -0.9230
  540MOL0     C72778   8.343  10.732   0.820  0.5489  0.1593  0.6550
  540MOL0     C72779   8.359  10.792   0.676 -0.5414  0.0728 -0.4059
  540MOL0     C72780   8.497  10.732   0.622  1.0168  0.4236  0.1315
  540MOL0     C72781   8.496  10.750   0.466  0.1489 -0.9113 -0.0234
  540MOL0     N72782   8.624  10.699   0.425  0.0806  0.6669 -0.0729
  540MOL0     C72783   8.734  10.771   0.431  0.8360  0.6601  0.4752
  540MOL0     C72784   8.827  10.683   0.384 -0.4852 -1.2796  0.1594
  540MOL0     C72785   8.975  10.714   0.369 -0.8993 -0.4450 -0.1231
  540MOL0     C72786   9.081  10.691   0.494 -0.2781  0.7140 -0.4773
  540MOL0     C72787   9.080  10.800   0.599 -1.0430 -0.0056 -0.4211
  540MOL0     C72788   8.966  10.780   0.699 -0.0257  0.9310  0.1292
  540MOL0     O72789   8.976  10.894   0.783 -0.1073 -0.1893  0.4333
  540MOL0     C72790   8.865  10.907   0.861  0.3021  0.0177 -0.1486
  540MOL0     C72791   8.808  10.804   0.934  0.5953 -0.7998 -0.4799
  540MOL0     C72792   8.700  10.835   1.008  1.0777 -0.1493 -0.0189
  540MOL0     C72793   8.622  10.952   0.993  0.1013 -0.7560  0.2696
  540MOL0     C72794   8.496  10.964   1.067  0.5888  0.6001 -0.2991
  540MOL0     O72795   8.432  11.086   1.059  0.8908 -0.7859  0.6508
  540MOL0     C72796   8.312  11.113   1.138  0.2542  0.0174  0.7825
  540MOL0     C72797   8.323  11.140   1.274 -0.5367 -0.5729 -0.0048
  540MOL0     C72798   8.217  11.167   1.354  0.2932 -0.0237  0.5720
  540MOL0     C72799   8.085  11.177   1.288  0.0964 -0.0178  0.6278
  540MOL0     O72800   7.970  11.225   1.335  0.4360 -0.0315 -0.7323
  540MOL0     C72801   7.950  11.244   1.473 -0.0333  0.5088  0.4583
  540MOL0     C72802   7.829  11.149   1.509 -0.3071 -0.1928  0.2668
  540MOL0     C72803   7.810  11.124   1.661  0.5650  0.1345 -0.2432
  540MOL0     C72804   7.661  11.087   1.688 -0.2823  0.1082  0.4255
  540MOL0     C72805   7.646  11.058   1.838  0.5854 -0.5323  0.1683
  540MOL0     C72806   7.528  10.976   1.876  0.3370 -0.7358 -0.5141
  540MOL0     C72807   7.546  10.823   1.855  0.4729 -0.1330  0.0403
  540MOL0     C72808   7.417  10.744   1.883  0.4358  0.6283 -0.1230
  540MOL0    Cl72809   7.348  10.774   2.043  0.3483  0.1424 -0.1595
  540MOL0     C72810   8.073  11.160   1.146  0.2787  0.2746  0.3506
  540MOL0     C72811   8.190  11.127   1.069  0.1147  0.3816 -0.8206
  540MOL0     O72812   8.444  10.868   1.116 -0.2550  0.1676 -0.4659
  540MOL0     C72813   8.675  11.055   0.913 -0.0582  0.3951  0.6924
  540MOL0     C72814   8.806  11.031   0.857  0.6910  0.1594  0.2794
  540MOL0     N72815   8.772  10.564   0.340  0.3039  0.0700 -0.8013
  540MOL0     N72816   8.650  10.568   0.376  0.0812 -0.1366  0.8320
  540MOL0     C72817   7.699  10.691   0.882  0.8250  0.0366 -0.7593
  540MOL0     C72818   7.556  10.672   0.861  0.0380  0.0378 -0.3664
  540MOL0     C72819   7.139  10.562   0.822  0.8253 -1.0469  0.4536
  540MOL0     C72820   7.143  10.481   0.702 -0.2608  0.4161  0.7057
  540MOL0     C72821   7.027  10.454   0.629 -0.0933  0.3519  0.3512
  540MOL0     C72822   6.911  10.503   0.665 -0.4455 -0.0545 -0.0396
  540MOL0     O72823   6.805  10.472   0.576  0.4036 -0.6345 -0.2759
  540MOL0     C72824   6.677  10.541   0.590  0.6695 -0.2737 -0.8543
  540MOL0     C72825   6.580  10.477   0.696 -0.3475 -0.0087  0.1054
  540MOL0     C72826   6.445  10.460   0.619  0.2033 -0.3043  0.5727
  540MOL0     C72827   6.339  10.393   0.704 -0.3100 -0.3345  1.0403
  540MOL0     C72828   6.217  10.375   0.623  0.4924 -0.4612 -0.6480
  540MOL0     C72829   6.142  10.342   0.538  0.5742 -0.3865  0.0246
  540MOL0     C72830   6.898  10.583   0.780  0.2543 -0.1405  0.0205
  540MOL0     C72831   7.004  10.613   0.858  0.1354  0.0920 -0.9644
  540MOL0     C72832   6.975  10.686   0.989  0.5813 -0.2731  1.5321
  540MOL0     H72833   7.526  10.366   0.984 -1.3857 -0.0537 -4.3138
  540MOL0     H72834   7.778  10.386   1.006  2.8957  0.3116 -3.6429
  540MOL0     H72835   7.946  10.789   0.958 -1.8502 -0.4791  0.7118
  540MOL0     H72836   7.874  10.734   1.112 -0.7166 -3.5680  0.1239
  540MOL0     H72837   8.093  10.650   1.187  1.7930 -2.5572 -0.9624
  540MOL0     H72838   8.093  10.820   1.150  2.6928 -0.1649 -1.7273
  540MOL0     H72839   8.197  10.589   0.991  1.5854 -1.2416  3.9608
  540MOL0     H72840   8.294  10.701   1.077 -0.5742 -1.9419 -0.2390
  540MOL0     H72841   8.134  10.769   0.828  1.1082 -2.0570 -1.8972
  540MOL0     H72842   8.220  10.884   0.923 -5.1181 -0.3028  0.8243
  540MOL0     H72843   8.434  10.755   0.876  1.5923 -1.1419 -0.4442
  540MOL0     H72844   8.338  10.624   0.810  1.9113  0.2921 -2.3310
  540MOL0     H72845   8.264  10.763   0.630 -1.5813  0.9637  1.1065
  540MOL0     H72846   8.368  10.901   0.681 -0.2490  0.0120  3.5408
  540MOL0     H72847   8.488  10.627   0.648 -5.2568  0.6424  0.3168
  540MOL0     H72848   8.572  10.786   0.681 -0.1931  2.2671  0.0746
  540MOL0     H72849   8.412  10.704   0.413  1.3415  2.5411 -5.6776
  540MOL0     H72850   8.488  10.857   0.445  0.8369 -1.1306 -1.5272
  540MOL0     H72851   8.750  10.862   0.489  3.1792 -0.3694  1.5739
  540MOL0     H72852   9.008  10.652   0.285  0.4531 -1.0877  0.8515
  540MOL0     H72853   8.998  10.815   0.335 -0.4469 -0.4296  0.2243
  540MOL0     H72854   9.059  10.596   0.543 -1.1561  1.3229  0.3355
  540MOL0     H72855   9.181  10.690   0.448 -0.7829  0.3341 -1.6129
  540MOL0     H72856   9.098  10.897   0.550 -1.2526 -0.0275 -0.5420
  540MOL0     H72857   9.175  10.788   0.652 -0.2329  0.3153 -1.7600
  540MOL0     H72858   8.982  10.693   0.763 -0.7026  1.7337  1.4367
  540MOL0     H72859   8.869  10.766   0.650 -0.2813 -0.2893  0.9322
  540MOL0     H72860   8.851  10.706   0.953 -1.4342 -1.5775  0.3966
  540MOL0     H72861   8.667  10.772   1.090 -0.8870 -1.5673 -1.7873
  540MOL0     H72862   8.422  11.124   1.317  1.1305 -0.9610 -3.5845
  540MOL0     H72863   8.233  11.198   1.456  0.0197  0.1599  0.5609
  540MOL0     H72864   8.044  11.226   1.526 -1.1495  2.8773  3.4948
  540MOL0     H72865   7.928  11.347   1.504  1.9701  1.2550 -0.3757
  540MOL0     H72866   7.739  11.193   1.464  0.5867 -0.1255 -1.5539
  540MOL0     H72867   7.843  11.047   1.471  3.1361  0.6331 -1.0067
  540MOL0     H72868   7.880  11.051   1.701 -0.3522  0.2157  1.6200
  540MOL0     H72869   7.826  11.212   1.724 -0.6401 -0.1301  0.4666
  540MOL0     H72870   7.650  11.004   1.618 -0.1796  0.6425 -0.2450
  540MOL0     H72871   7.606  11.176   1.655  0.4093 -0.0344 -1.2178
  540MOL0     H72872   7.641  11.156   1.886 -0.3992 -0.5103  0.0292
  540MOL0     H72873   7.737  11.005   1.868  1.8611  0.0719 -2.3715
  540MOL0     H72874   7.517  10.985   1.985 -1.7538  1.0007 -0.7980
  540MOL0     H72875   7.439  11.007   1.821  0.5628 -0.8761 -0.9608
  540MOL0     H72876   7.620  10.785   1.927 -0.2207  0.3127  1.0185
  540MOL0     H72877   7.589  10.802   1.757  1.2996 -0.6898  0.5067
  540MOL0     H72878   7.343  10.779   1.810  0.0070  2.6553  1.2062
  540MOL0     H72879   7.428  10.636   1.878  2.2142  0.7500  0.5849
  540MOL0     H72880   7.975  11.190   1.108  1.2095  1.6285 -1.1282
  540MOL0     H72881   8.176  11.099   0.965 -4.4505 -3.3540  0.4864
  540MOL0     H72882   8.615  11.142   0.890 -2.3307 -2.0670 -3.9839
  540MOL0     H72883   8.848  11.095   0.780 -0.1979 -1.6209 -1.8174
  540MOL0     H72884   7.752  10.783   0.862  2.3853 -1.2017 -2.6841
  540MOL0     H72885   7.498  10.753   0.819  0.4793  1.0527  0.8959
  540MOL0     H72886   7.241  10.448   0.670 -0.8097 -0.3609 -0.1987
  540MOL0     H72887   7.040  10.390   0.542  2.6133  0.5998  0.5025
  540MOL0     H72888   6.634  10.550   0.490 -2.4816 -0.1422  0.4113
  540MOL0     H72889   6.691  10.647   0.616 -0.5183 -0.6011  1.4189
  540MOL0     H72890   6.582  10.529   0.793 -2.7296 -1.4985  1.0362
  540MOL0     H72891   6.610  10.375   0.719 -1.4031 -0.5165 -0.7008
  540MOL0     H72892   6.458  10.418   0.519  1.3350  0.5341  0.3362
  540MOL0     H72893   6.425  10.567   0.609  1.5360  0.0960  1.7990
  540MOL0     H72894   6.382  10.295   0.729 -1.4281 -1.1721 -0.2029
  540MOL0     H72895   6.330  10.457   0.793 -2.6763  1.8215 -0.6078
  540MOL0     H72896   6.074  10.313   0.461 -0.6264  0.5214  0.7078
  540MOL0     H72897   6.798  10.593   0.822  1.0721 -2.8925  3.0183
  540MOL0     H72898   7.039  10.773   1.006  0.7691  0.3765 -1.8275
  540MOL0     H72899   6.871  10.721   0.997  0.6598  0.5757 -0.5654
  540MOL0     H72900   6.984  10.618   1.074 -2.1638  0.5474  2.6110
  541MOL0     O72901   8.627   0.250   0.010  0.1733  0.2574  0.4545
  541MOL0     C72902   8.543   0.196   0.080 -0.2273 -0.5968  1.1228
  541MOL0     O72903   8.526   0.214   0.212 -0.5360 -0.0387 -0.1281
  541MOL0     C72904   8.611   0.306   0.268 -0.6819 -0.1331  0.5501
  541MOL0     C72905   8.556   0.429   0.307  0.2192 -0.3608 -0.4313
  541MOL0     C72906   8.640   0.521   0.367 -0.3887 -1.0203 -1.1837
  541MOL0     C72907   8.771   0.484   0.399 -0.1587  0.3747  0.8350
  541MOL0     O72908   8.857   0.570   0.459 -0.1637  0.2324  0.5387
  541MOL0     C72909   8.894   0.534   0.593 -0.5072 -0.5738  0.2009
  541MOL0     C72910   8.994   0.637   0.651  0.9549  0.4307  0.1598
  541MOL0     C72911   8.983   0.783   0.603  0.1347 -0.0694  0.3022
  541MOL0     C72912   9.010   0.865   0.722 -0.3697 -0.4868  0.2432
  541MOL0     C72913   8.978   1.012   0.690  0.9158  0.3186  0.6361
  541MOL0     C72914   8.951   1.088   0.813  0.3965  0.2742 -0.1621
  541MOL0     C72915   8.912   1.231   0.757 -0.3092  0.2383  0.5365
  541MOL0     C72916   8.881   1.335   0.873 -0.4548  0.7867  0.4823
  541MOL0     N72917   8.849   1.461   0.813  0.6175  0.6301  0.5038
  541MOL0     C72918   8.741   1.479   0.722  0.1888 -0.2617  0.2673
  541MOL0     C72919   8.757   1.596   0.669 -0.2739 -0.5672  0.3236
  541MOL0     C72920   8.678   1.663   0.557 -0.4955 -0.5746  0.5337
  541MOL0     C72921   8.553   1.731   0.614  1.1664  0.2666  0.2580
  541MOL0     C72922   8.596   1.857   0.705  0.3900 -0.8311 -0.4709
  541MOL0     C72923   8.481   1.922   0.776  0.4485  0.4099 -0.9663
  541MOL0     O72924   8.389   1.950   0.676  0.1734 -1.0572  0.1796
  541MOL0     C72925   8.266   1.990   0.715  0.1798  0.5417 -0.3712
  541MOL0     C72926   8.167   1.978   0.619 -0.2284  0.7982  0.1447
  541MOL0     C72927   8.038   2.008   0.647  0.2923  0.0398 -0.3585
  541MOL0     C72928   7.994   2.063   0.768  0.0823  0.5602  0.3170
  541MOL0     C72929   7.848   2.084   0.796 -0.1798 -0.2223  0.7081
  541MOL0     O72930   7.812   2.119   0.921 -0.5051  0.1877  0.4873
  541MOL0     C72931   7.690   2.061   0.961  0.2899 -0.1187  0.5079
  541MOL0     C72932   7.690   1.926   0.988 -0.0392  0.1408  0.3873
  541MOL0     C72933   7.567   1.875   1.021 -0.5752  0.4404 -0.3719
  541MOL0     C72934   7.452   1.950   1.033  0.3213  0.8544 -0.4076
  541MOL0     O72935   7.351   1.884   1.092 -0.2052  0.0034  0.2542
  541MOL0     C72936   7.226   1.941   1.117 -0.6768  0.5159 -0.2502
  541MOL0     C72937   7.158   1.826   1.203  0.0195  0.9514 -0.2664
  541MOL0     C72938   7.023   1.876   1.258 -0.0113  0.6280 -0.7933
  541MOL0     C72939   7.031   2.005   1.360 -0.1960  0.3695 -0.2434
  541MOL0     C72940   6.895   2.050   1.399 -0.4692 -0.2341  0.0818
  541MOL0     C72941   6.829   1.949   1.494 -0.1498 -0.3101 -1.0293
  541MOL0     C72942   6.698   2.010   1.557  0.0449 -0.5264  1.4358
  541MOL0     C72943   6.590   2.042   1.456 -0.1598 -0.4644  0.8312
  541MOL0    Cl72944   6.426   2.077   1.539 -0.6736  0.3560 -0.5357
  541MOL0     C72945   7.456   2.084   0.997  0.6057 -0.1597  0.2161
  541MOL0     C72946   7.574   2.144   0.963 -0.9604  0.0706 -0.8391
  541MOL0     O72947   7.770   2.061   0.696 -0.3805 -0.6369  0.0084
  541MOL0     C72948   8.091   2.086   0.862 -0.1131 -0.4463  0.0645
  541MOL0     C72949   8.221   2.040   0.841 -0.5568  0.6664  0.7599
  541MOL0     N72950   8.869   1.652   0.734  0.0380  0.0688 -0.0594
  541MOL0     N72951   8.914   1.579   0.820 -0.0054  0.5162 -0.7646
  541MOL0     C72952   8.811   0.351   0.383 -0.7005 -0.1846 -0.3171
  541MOL0     C72953   8.737   0.263   0.308 -0.8774 -0.5069 -0.9999
  541MOL0     C72954   8.466   0.086   0.009  0.4393 -0.0886  0.3790
  541MOL0     C72955   8.462  -0.040   0.074  0.5388  0.1604 -1.0865
  541MOL0     C72956   8.385  -0.143   0.027 -0.3652  0.0097 -0.4644
  541MOL0     C72957   8.313  -0.126  -0.092  0.8992 -0.0269  0.0519
  541MOL0     O72958   8.231  -0.225  -0.155 -0.4249 -0.0969  0.0662
  541MOL0     C72959   8.161  -0.317  -0.073 -0.2857 -0.2094 -0.6633
  541MOL0     C72960   8.027  -0.256  -0.017 -0.9819 -0.3845  0.6632
  541MOL0     C72961   7.931  -0.206  -0.122 -0.3161 -0.2658  0.1375
  541MOL0     C72962   7.837  -0.320  -0.169  0.2737  0.3833  0.2388
  541MOL0     C72963   7.729  -0.260  -0.252 -0.4641 -0.4368 -0.0746
  541MOL0     C72964   7.648  -0.212  -0.331  0.6145  0.0904 -0.8290
  541MOL0     C72965   8.324  -0.003  -0.166  0.3002  1.1722  0.1553
  541MOL0     C72966   8.402   0.101  -0.115 -0.4675 -0.1494 -0.1954
  541MOL0     C72967   8.422   0.219  -0.208 -0.2531 -0.2915  1.0974
  541MOL0     H72968   8.451   0.453   0.289  0.4155  1.2834  0.3888
  541MOL0     H72969   8.607   0.623   0.384 -2.4388 -1.9831  1.2298
  541MOL0     H72970   8.801   0.515   0.646  0.8956 -0.8297  2.7139
  541MOL0     H72971   8.957   0.445   0.593  1.3846  0.5608  4.0469
  541MOL0     H72972   9.096   0.599   0.640  0.0134 -1.9491 -1.3472
  541MOL0     H72973   8.972   0.635   0.758 -1.0932 -2.8689 -0.1730
  541MOL0     H72974   8.884   0.805   0.561  1.4142  2.7153 -1.4973
  541MOL0     H72975   9.051   0.810   0.522 -1.3719 -0.2006 -1.0676
  541MOL0     H72976   8.933   0.837   0.795 -2.0909 -2.2224 -2.0843
  541MOL0     H72977   9.103   0.864   0.779  0.7812 -1.8508 -1.5495
  541MOL0     H72978   9.061   1.061   0.638 -1.7051  1.1054 -3.2363
  541MOL0     H72979   8.883   1.021   0.635  0.5601 -1.4324  0.9243
  541MOL0     H72980   8.866   1.050   0.871  0.9416  0.1285  0.5580
  541MOL0     H72981   9.043   1.086   0.873 -0.2420 -0.4869  0.8253
  541MOL0     H72982   8.819   1.218   0.702  0.0110  0.2733 -0.0292
  541MOL0     H72983   8.985   1.273   0.686 -1.4310 -0.8001 -1.2920
  541MOL0     H72984   8.802   1.302   0.942  0.4194 -2.1025  0.2247
  541MOL0     H72985   8.973   1.349   0.931  0.3238 -2.5910  0.2666
  541MOL0     H72986   8.670   1.408   0.679  0.1256  0.3679 -0.6769
  541MOL0     H72987   8.722   1.746   0.500 -1.3118 -0.3705  0.1733
  541MOL0     H72988   8.643   1.584   0.490 -1.1163 -0.0137  0.1776
  541MOL0     H72989   8.474   1.738   0.538  0.0691 -1.5077  1.1747
  541MOL0     H72990   8.499   1.662   0.679  1.3851  0.3739  0.5578
  541MOL0     H72991   8.655   1.928   0.646 -0.8566 -0.4484 -1.2947
  541MOL0     H72992   8.652   1.811   0.787 -1.9966 -1.6746  0.8039
  541MOL0     H72993   8.516   2.013   0.826 -0.7896  0.8674 -0.9024
  541MOL0     H72994   8.435   1.854   0.848  1.0452 -0.9842 -1.8594
  541MOL0     H72995   8.190   1.934   0.522  2.3436  4.3918 -1.0988
  541MOL0     H72996   7.964   1.980   0.573  1.6673 -3.6328 -0.5485
  541MOL0     H72997   7.784   1.872   0.981  1.3094  2.0154  2.7465
  541MOL0     H72998   7.558   1.767   1.023 -0.3701  0.1824 -4.7098
  541MOL0     H72999   7.224   2.026   1.187 -0.9824 -0.5126  1.0323
  541MOL0     H73000   7.173   1.954   1.022  1.1488 -1.4172 -1.6252
  541MOL0     H73001   7.139   1.736   1.144  6.4033 -0.7909 -0.3003
  541MOL0     H73002   7.220   1.805   1.290 -0.0945  1.5182 -0.0391
  541MOL0     H73003   6.969   1.898   1.165  1.0865  0.3401 -1.5154
  541MOL0     H73004   6.971   1.790   1.300  0.4192  2.5912  4.4679
  541MOL0     H73005   7.076   2.085   1.301  0.2197 -0.8281 -1.6240
  541MOL0     H73006   7.103   1.985   1.439  1.5181 -2.4918 -2.3498
  541MOL0     H73007   6.837   2.062   1.307 -1.4492 -0.3841  0.6589
  541MOL0     H73008   6.906   2.150   1.442  2.7964  0.3742 -1.8244
  541MOL0     H73009   6.796   1.860   1.440 -3.7838  1.7746 -2.7000
  541MOL0     H73010   6.898   1.928   1.576  2.5317  2.1641 -2.4701
  541MOL0     H73011   6.719   2.100   1.616 -0.9135 -0.5608  1.8538
  541MOL0     H73012   6.650   1.931   1.616  0.6198 -3.1254 -1.3174
  541MOL0     H73013   6.630   2.125   1.396  1.2318 -2.2154 -0.7960
  541MOL0     H73014   6.585   1.958   1.385 -0.6839  0.4277 -0.2162
  541MOL0     H73015   7.367   2.145   1.000  1.4987  1.2639 -0.8391
  541MOL0     H73016   7.583   2.250   0.942  2.0837  0.7392  2.6789
  541MOL0     H73017   8.072   2.133   0.958  1.6469 -0.0855  0.2584
  541MOL0     H73018   8.300   2.056   0.914  1.8987  1.8210 -1.9558
  541MOL0     H73019   8.912   0.319   0.406  0.3403  2.7585 -0.3953
  541MOL0     H73020   8.777   0.164   0.284  0.9511  0.4509 -2.1776
  541MOL0     H73021   8.530  -0.048   0.158  0.5999 -3.4488 -1.3514
  541MOL0     H73022   8.394  -0.227   0.096  0.5007  2.4274  2.5759
  541MOL0     H73023   8.229  -0.344   0.008 -0.2878 -0.1809 -0.6520
  541MOL0     H73024   8.140  -0.407  -0.132  3.3744 -1.3854 -0.4345
  541MOL0     H73025   8.062  -0.180   0.053  1.3777  0.1174 -0.9655
  541MOL0     H73026   7.983  -0.340   0.038  0.5150 -4.0189 -3.1405
  541MOL0     H73027   7.965  -0.157  -0.214  1.3921 -2.3711 -0.4535
  541MOL0     H73028   7.873  -0.132  -0.065 -2.2358 -1.2544 -0.4488
  541MOL0     H73029   7.895  -0.404  -0.208 -0.9520 -1.1628  1.5684
  541MOL0     H73030   7.789  -0.369  -0.084 -0.6762 -0.3100 -0.6748
  541MOL0     H73031   7.558  -0.173  -0.374 -0.6019 -3.3977 -1.7684
  541MOL0     H73032   8.254   0.007  -0.247 -0.4030 -5.5474 -0.6000
  541MOL0     H73033   8.437   0.189  -0.312  4.4731 -1.4470  1.8539
  541MOL0     H73034   8.338   0.287  -0.200 -0.9516 -1.2038  1.7402
  541MOL0     H73035   8.506   0.284  -0.180  0.3042 -0.2946 -0.4768
  542MOL0     O73036   7.679   7.875   1.525 -0.6411  0.3697 -0.4179
  542MOL0     C73037   7.769   7.833   1.594  0.1897  1.0582 -0.1437
  542MOL0     O73038   7.902   7.869   1.582 -0.6377 -0.4939 -0.0522
  542MOL0     C73039   7.933   7.979   1.509 -0.0970  0.3041  1.0087
  542MOL0     C73040   7.865   8.106   1.511  0.4558 -0.1936  0.5025
  542MOL0     C73041   7.913   8.204   1.426  0.2537 -0.4849 -0.4047
  542MOL0     C73042   8.023   8.189   1.339 -0.7540  0.1836 -0.6215
  542MOL0     O73043   8.073   8.302   1.279 -0.4726  0.2917  0.0952
  542MOL0     C73044   8.109   8.293   1.145  0.2736  0.1159 -0.1726
  542MOL0     C73045   8.118   8.440   1.088 -0.3492 -0.0095 -0.7385
  542MOL0     C73046   7.992   8.529   1.100  0.1250  0.4448 -0.0785
  542MOL0     C73047   8.032   8.666   1.033 -0.3401  0.7424  0.0952
  542MOL0     C73048   7.922   8.764   1.023  0.6326  0.7772 -0.6735
  542MOL0     C73049   7.949   8.901   0.948  0.4510 -0.4181  0.3310
  542MOL0     C73050   7.839   9.007   0.947 -0.1367  0.5489 -0.5934
  542MOL0     C73051   7.899   9.150   0.943 -0.3792 -0.4594  0.4966
  542MOL0     N73052   7.991   9.170   0.829  0.1025 -0.0005 -0.1319
  542MOL0     C73053   7.951   9.142   0.701 -0.6383  0.3957  0.2395
  542MOL0     C73054   8.053   9.163   0.615  0.7665  1.0752 -0.0041
  542MOL0     C73055   8.085   9.127   0.470 -0.1326 -0.1538  0.7410
  542MOL0     C73056   7.999   9.010   0.419  0.4712  0.3763 -1.2029
  542MOL0     C73057   8.033   8.876   0.498  0.1813 -1.1085 -0.7252
  542MOL0     C73058   8.179   8.827   0.482  0.8313  0.6679 -0.3539
  542MOL0     O73059   8.199   8.699   0.545 -0.5144  0.3102 -0.1906
  542MOL0     C73060   8.266   8.698   0.668  0.0459  0.7630  0.0896
  542MOL0     C73061   8.276   8.811   0.750  0.3919  0.8296  0.8335
  542MOL0     C73062   8.343   8.800   0.869 -0.7228 -0.7720 -0.3705
  542MOL0     C73063   8.397   8.680   0.919  0.2958 -0.7421 -0.7262
  542MOL0     C73064   8.464   8.679   1.047 -0.2441  0.5535  0.0931
  542MOL0     O73065   8.469   8.799   1.111 -0.6239 -0.0908  0.1525
  542MOL0     C73066   8.490   8.817   1.239 -0.1802  1.0460  0.0388
  542MOL0     C73067   8.558   8.936   1.269 -0.3427 -0.6761 -0.6374
  542MOL0     C73068   8.571   8.970   1.399  0.7009 -0.7408  0.8213
  542MOL0     C73069   8.525   8.887   1.497 -0.6403 -0.4725 -0.2512
  542MOL0     O73070   8.552   8.920   1.626 -0.2998  0.3264  0.4153
  542MOL0     C73071   8.446   8.918   1.721 -0.8808  0.6382 -0.2672
  542MOL0     C73072   8.492   8.931   1.877  0.9337 -0.6440  0.5133
  542MOL0     C73073   8.613   9.028   1.891  0.9231  0.0829  0.3076
  542MOL0     C73074   8.565   9.173   1.878 -0.2307  0.0672  0.6471
  542MOL0     C73075   8.677   9.270   1.887 -0.9495 -0.6990 -0.1531
  542MOL0     C73076   8.731   9.288   1.739 -0.4493 -0.5889 -0.2608
  542MOL0     C73077   8.853   9.387   1.724  0.3875 -0.0753 -0.2518
  542MOL0     C73078   8.861   9.461   1.595  0.7590 -0.6840 -0.0022
  542MOL0    Cl73079   8.819   9.355   1.453  0.1335 -0.1894 -0.0795
  542MOL0     C73080   8.459   8.766   1.471  0.0557  0.0533 -0.3717
  542MOL0     C73081   8.448   8.730   1.339 -0.0791 -0.8859 -0.6606
  542MOL0     O73082   8.508   8.570   1.097  0.0064 -0.3272 -0.0248
  542MOL0     C73083   8.374   8.566   0.850  1.1115 -1.1075  0.4295
  542MOL0     C73084   8.313   8.576   0.718  0.5348 -0.2233 -0.3341
  542MOL0     N73085   8.157   9.218   0.688 -0.1974 -0.1203 -0.4380
  542MOL0     N73086   8.118   9.222   0.814 -0.1491 -0.3776  0.7861
  542MOL0     C73087   8.090   8.059   1.342  0.3285 -0.4419  0.9816
  542MOL0     C73088   8.049   7.960   1.431 -0.9944  0.4789 -0.0447
  542MOL0     C73089   7.752   7.744   1.708  0.4669 -0.0673  0.2846
  542MOL0     C73090   7.872   7.690   1.773  0.5208  0.0106  0.0121
  542MOL0     C73091   7.866   7.618   1.890 -0.6976  0.2445  0.1159
  542MOL0     C73092   7.753   7.595   1.948  0.4823  0.6417  0.1398
  542MOL0     O73093   7.773   7.544   2.071 -0.1721  0.3007  0.3793
  542MOL0     C73094   7.657   7.514   2.149 -0.9520 -0.1346  0.3029
  542MOL0     C73095   7.707   7.474   2.290 -0.6736  0.2118 -0.1226
  542MOL0     C73096   7.599   7.427   2.387 -0.5341  0.4730  0.1499
  542MOL0     C73097   7.555   7.282   2.356 -0.4007  0.4582  0.1443
  542MOL0     C73098   7.635   7.176   2.425  0.6615  0.3499 -0.3975
  542MOL0     C73099   7.696   7.093   2.479  0.3232  0.1198  0.8448
  542MOL0     C73100   7.636   7.638   1.887  0.0277  0.0155 -0.6447
  542MOL0     C73101   7.634   7.711   1.770  0.2123 -0.1648 -0.0259
  542MOL0     C73102   7.502   7.767   1.723  0.3141  0.9020 -0.4563
  542MOL0     H73103   7.767   8.116   1.556  0.1404  1.5762 -0.5176
  542MOL0     H73104   7.883   8.308   1.441  2.7740  0.0313  1.5645
  542MOL0     H73105   8.205   8.241   1.142  0.5938  0.6833  0.1175
  542MOL0     H73106   8.030   8.238   1.093 -0.3687 -0.6848  1.5620
  542MOL0     H73107   8.170   8.433   0.992  1.5493 -0.0009  0.2479
  542MOL0     H73108   8.193   8.495   1.144 -0.4503  0.4413 -1.0334
  542MOL0     H73109   7.973   8.537   1.207  0.4435 -3.7230  0.4306
  542MOL0     H73110   7.915   8.474   1.046  1.3271 -1.5642  0.1595
  542MOL0     H73111   8.123   8.700   1.083 -1.1893  0.9808  1.5618
  542MOL0     H73112   8.059   8.643   0.930 -1.0780 -0.9084  0.2310
  542MOL0     H73113   7.831   8.724   0.978  0.2727 -0.4170  1.0369
  542MOL0     H73114   7.890   8.790   1.124 -2.1532  1.3863 -1.6178
  542MOL0     H73115   8.019   8.951   1.016  0.7872 -0.6504  0.1580
  542MOL0     H73116   7.990   8.866   0.853 -0.0563 -1.5800  0.5214
  542MOL0     H73117   7.782   8.996   1.040 -0.6264  3.7674 -0.3896
  542MOL0     H73118   7.775   8.994   0.860 -1.9630 -0.6500  0.8457
  542MOL0     H73119   7.818   9.222   0.935 -1.7741 -1.9761  0.4894
  542MOL0     H73120   7.959   9.167   1.033 -1.3628  2.6070  0.6637
  542MOL0     H73121   7.860   9.091   0.670  0.3721 -0.4985 -1.3726
  542MOL0     H73122   8.073   9.204   0.393  2.1135 -0.5436 -0.0917
  542MOL0     H73123   8.189   9.098   0.452 -0.7185 -1.7848 -0.1838
  542MOL0     H73124   7.894   9.036   0.435  0.1905 -0.5308 -1.5416
  542MOL0     H73125   8.002   8.995   0.311 -0.3559 -0.6789 -1.0957
  542MOL0     H73126   7.972   8.790   0.470  1.0065 -2.1446  0.5547
  542MOL0     H73127   8.005   8.897   0.602  3.1717 -0.7718  0.0961
  542MOL0     H73128   8.250   8.907   0.504  0.0881  0.7146  2.2536
  542MOL0     H73129   8.201   8.800   0.379  0.8725 -1.1275  0.0818
  542MOL0     H73130   8.237   8.903   0.708 -2.6279 -1.8133 -2.9642
  542MOL0     H73131   8.351   8.889   0.930 -3.9805 -0.8679  0.3713
  542MOL0     H73132   8.564   9.019   1.199  2.5268 -1.0181 -0.8954
  542MOL0     H73133   8.615   9.063   1.432 -1.7916  0.6718  0.4770
  542MOL0     H73134   8.368   8.991   1.699 -0.2654  1.2182 -0.5439
  542MOL0     H73135   8.406   8.816   1.724  3.4923 -1.4019 -2.3917
  542MOL0     H73136   8.410   8.967   1.939  0.6245 -0.2168 -0.1347
  542MOL0     H73137   8.534   8.837   1.916  2.8652  0.2863  0.7738
  542MOL0     H73138   8.669   9.011   1.984  0.9403  0.4321  0.3657
  542MOL0     H73139   8.695   9.007   1.821 -1.0301 -0.7114 -1.8407
  542MOL0     H73140   8.500   9.199   1.962 -0.6181  0.8837  0.1081
  542MOL0     H73141   8.503   9.185   1.788 -0.1532 -0.3569  0.5366
  542MOL0     H73142   8.751   9.258   1.967 -1.2120 -0.6448  0.0988
  542MOL0     H73143   8.620   9.361   1.907 -2.4729 -0.2644 -5.0910
  542MOL0     H73144   8.763   9.190   1.702  1.1216 -0.6990  1.2539
  542MOL0     H73145   8.642   9.329   1.691 -3.4759 -0.6708  4.5639
  542MOL0     H73146   8.951   9.341   1.745  0.0297 -1.0550 -0.6599
  542MOL0     H73147   8.834   9.460   1.803 -3.1562 -1.6979  0.5657
  542MOL0     H73148   8.788   9.542   1.594 -1.9335 -2.9254  0.7031
  542MOL0     H73149   8.962   9.502   1.593  0.2391  0.7402  1.0973
  542MOL0     H73150   8.431   8.699   1.552 -1.9246  0.4493 -0.6911
  542MOL0     H73151   8.392   8.640   1.315 -0.8299  0.0295 -2.4810
  542MOL0     H73152   8.396   8.467   0.890 -0.6994 -1.3920  0.8026
  542MOL0     H73153   8.302   8.496   0.646 -2.6663 -1.1139  0.9789
  542MOL0     H73154   8.184   8.055   1.288  1.4082  2.9759  2.3801
  542MOL0     H73155   8.098   7.863   1.435 -2.4365 -0.2570  0.3877
  542MOL0     H73156   7.965   7.715   1.722 -1.5233  2.4564 -2.8498
  542MOL0     H73157   7.951   7.574   1.941  1.2308  2.6745 -0.7958
  542MOL0     H73158   7.603   7.430   2.105  0.6510 -0.7363 -0.5907
  542MOL0     H73159   7.585   7.595   2.163 -0.4191  1.0311 -2.8941
  542MOL0     H73160   7.773   7.553   2.327  0.7193 -0.8504 -0.2614
  542MOL0     H73161   7.771   7.388   2.270  3.0115  2.6203  0.3055
  542MOL0     H73162   7.509   7.486   2.364  0.4831  2.7428  1.6277
  542MOL0     H73163   7.618   7.440   2.494 -0.3820 -0.3060  0.2195
  542MOL0     H73164   7.451   7.271   2.388  0.5097 -0.3917  3.1428
  542MOL0     H73165   7.556   7.255   2.250 -0.5872 -1.8724  0.6927
  542MOL0     H73166   7.758   7.022   2.530  0.0733 -0.5733  0.1982
  542MOL0     H73167   7.542   7.623   1.939 -1.4776  2.5575 -2.4237
  542MOL0     H73168   7.466   7.713   1.635  1.6530  1.2677 -1.2534
  542MOL0     H73169   7.427   7.742   1.798 -1.2564 -0.2196 -2.3023
  542MOL0     H73170   7.510   7.871   1.691 -0.4222  0.9326 -0.5499
  543MOL0     O73171   3.374   4.236   6.361  0.0166 -0.3609  0.7728
  543MOL0     C73172   3.400   4.197   6.247  0.3437 -1.1062  0.0527
  543MOL0     O73173   3.302   4.175   6.139  0.0069  0.1603 -0.2972
  543MOL0     C73174   3.171   4.169   6.175 -0.4058 -0.2885  0.1493
  543MOL0     C73175   3.089   4.272   6.141  0.1308  0.3711 -0.1450
  543MOL0     C73176   2.953   4.267   6.176 -0.2260 -0.0402 -0.3945
  543MOL0     C73177   2.902   4.164   6.258  0.6472  0.2706 -0.9568
  543MOL0     O73178   2.779   4.159   6.321  0.0451  0.8365  0.5284
  543MOL0     C73179   2.711   4.288   6.325  0.6653  0.2935 -0.2369
  543MOL0     C73180   2.563   4.264   6.367 -0.5302  0.0786  0.1707
  543MOL0     C73181   2.469   4.386   6.361 -0.2079  0.3148  0.2012
  543MOL0     C73182   2.477   4.475   6.482 -0.2909  0.2797  0.1235
  543MOL0     C73183   2.409   4.604   6.476  0.5112 -0.4085 -0.8103
  543MOL0     C73184   2.414   4.697   6.599  0.5639  0.0090 -0.2797
  543MOL0     C73185   2.314   4.636   6.706  0.5961 -0.2225 -0.9437
  543MOL0     C73186   2.307   4.754   6.804  0.6583  0.3667 -0.3585
  543MOL0     N73187   2.183   4.743   6.881  0.0410 -0.0549  1.1522
  543MOL0     C73188   2.099   4.846   6.895 -0.0879  0.2210 -1.8674
  543MOL0     C73189   2.012   4.806   6.990 -0.3615 -0.5071  0.2417
  543MOL0     C73190   1.897   4.874   7.037  0.5475 -0.4660  0.1758
  543MOL0     C73191   1.783   4.787   7.100  0.1818  0.3390  0.2430
  543MOL0     C73192   1.676   4.883   7.147 -0.5624  0.0206  0.7730
  543MOL0     C73193   1.682   4.986   7.262  0.7875  0.7952  0.4835
  543MOL0     O73194   1.659   4.923   7.387 -0.0562  0.4335  1.2874
  543MOL0     C73195   1.592   4.991   7.491  0.5036 -0.1453 -0.0893
  543MOL0     C73196   1.530   4.916   7.586  0.6405  0.4436 -0.1613
  543MOL0     C73197   1.468   4.971   7.692 -0.2885 -0.7673 -0.2775
  543MOL0     C73198   1.472   5.114   7.714 -0.6793  1.0990 -0.5342
  543MOL0     C73199   1.413   5.176   7.836 -0.0030 -0.3178  0.6078
  543MOL0     O73200   1.450   5.314   7.861 -0.8759 -0.0957  0.9935
  543MOL0     C73201   1.415   5.397   7.969 -1.0850  0.4371 -0.5149
  543MOL0     C73202   1.313   5.379   8.063 -0.0310  0.3993  0.5838
  543MOL0     C73203   1.287   5.480   8.156 -0.4643  0.1961 -0.4056
  543MOL0     C73204   1.351   5.598   8.157  0.3543  0.1679  0.6828
  543MOL0     O73205   1.305   5.690   8.241 -0.0145  0.0728 -0.7174
  543MOL0     C73206   1.391   5.808   8.263 -0.2943 -0.8591  0.4310
  543MOL0     C73207   1.334   5.902   8.370 -0.3916  0.0440 -0.3849
  543MOL0     C73208   1.171   5.925   8.359  0.2929 -0.1597  0.0207
  543MOL0     C73209   1.124   5.963   8.222 -0.0794 -0.4215  0.0535
  543MOL0     C73210   0.977   5.988   8.202  0.0614 -0.3434 -0.7167
  543MOL0     C73211   0.951   5.986   8.060  0.9940  0.2847 -0.3324
  543MOL0     C73212   0.799   6.039   8.031 -0.6440 -0.3883 -0.4106
  543MOL0     C73213   0.738   5.960   7.918  0.4106  1.2146  0.3705
  543MOL0    Cl73214   0.844   5.965   7.769 -0.0074 -0.0893 -0.3000
  543MOL0     C73215   1.459   5.620   8.064 -1.1888 -0.1916 -0.1274
  543MOL0     C73216   1.494   5.518   7.980  0.0683  0.4489  0.5904
  543MOL0     O73217   1.345   5.105   7.910 -0.3755 -0.1261  1.0194
  543MOL0     C73218   1.546   5.183   7.622 -0.7174 -1.3884 -0.2658
  543MOL0     C73219   1.604   5.129   7.508 -0.4541 -0.3489 -1.3876
  543MOL0     N73220   2.060   4.695   7.042  0.5013  0.5255 -0.3159
  543MOL0     N73221   2.177   4.662   6.992  0.0689  0.3812  0.6987
  543MOL0     C73222   2.985   4.059   6.293  0.6947 -0.6726  0.4842
  543MOL0     C73223   3.120   4.068   6.262  0.6725 -0.0925  0.2430
  543MOL0     C73224   3.534   4.147   6.210 -0.0433  0.2360  0.2379
  543MOL0     C73225   3.555   4.084   6.083 -0.4022  0.1491  0.0800
  543MOL0     C73226   3.683   4.062   6.038  0.3690  0.6139 -0.9114
  543MOL0     C73227   3.794   4.095   6.119 -0.0548  0.5496 -0.4485
  543MOL0     O73228   3.923   4.070   6.066  0.3273  0.4847  0.7129
  543MOL0     C73229   3.945   4.054   5.924 -0.0796 -0.5428 -0.2317
  543MOL0     C73230   4.094   4.043   5.896 -0.4750 -0.7516  0.0498
  543MOL0     C73231   4.142   3.906   5.935 -0.3124 -0.0355  0.4570
  543MOL0     C73232   4.291   3.899   5.991 -0.2009 -0.2547  0.7900
  543MOL0     C73233   4.306   3.791   6.096 -0.7439  0.3566 -0.0101
  543MOL0     C73234   4.325   3.704   6.185  0.4781  0.0518 -0.0744
  543MOL0     C73235   3.780   4.155   6.238  0.2103 -0.0951 -0.9543
  543MOL0     C73236   3.645   4.181   6.283 -0.2730 -0.1896  0.3490
  543MOL0     C73237   3.641   4.252   6.424 -0.0994  0.0151  0.4754
  543MOL0     H73238   3.130   4.357   6.088  1.7397 -0.5791 -0.4908
  543MOL0     H73239   2.901   4.361   6.166  2.3571  1.8284  2.0221
  543MOL0     H73240   2.767   4.358   6.387 -0.3980  1.9063 -1.0250
  543MOL0     H73241   2.704   4.322   6.221  3.1573 -1.2834 -1.0139
  543MOL0     H73242   2.561   4.235   6.472 -0.5352 -0.5843 -0.0073
  543MOL0     H73243   2.527   4.183   6.303 -0.3279  2.2049 -2.8491
  543MOL0     H73244   2.367   4.349   6.356 -1.1525  2.8337 -1.5229
  543MOL0     H73245   2.485   4.444   6.270 -1.1956 -0.8447 -0.7327
  543MOL0     H73246   2.441   4.425   6.572  0.6474  2.4365  1.8035
  543MOL0     H73247   2.584   4.494   6.491  0.3866 -2.1441 -1.9588
  543MOL0     H73248   2.454   4.659   6.392  1.6254 -0.4499 -0.2508
  543MOL0     H73249   2.301   4.590   6.466  0.3726 -1.0221  1.2073
  543MOL0     H73250   2.516   4.691   6.638 -0.5204 -1.9668  2.6434
  543MOL0     H73251   2.385   4.799   6.571 -3.3521 -0.8581  0.1143
  543MOL0     H73252   2.350   4.551   6.764  0.1934 -0.0703 -0.4632
  543MOL0     H73253   2.216   4.611   6.664 -0.3233 -0.8177  1.3737
  543MOL0     H73254   2.391   4.756   6.873  0.1045  0.6717  0.3130
  543MOL0     H73255   2.294   4.841   6.739  2.1639  0.6483 -0.3068
  543MOL0     H73256   2.102   4.949   6.860 -0.7095  0.6015 -0.8378
  543MOL0     H73257   1.929   4.947   7.113 -0.9305  0.0165  0.3868
  543MOL0     H73258   1.847   4.927   6.955 -4.5214 -1.7068  2.0351
  543MOL0     H73259   1.743   4.719   7.024  0.0521  2.0648 -1.3176
  543MOL0     H73260   1.828   4.738   7.186  0.6361 -0.8455 -0.6439
  543MOL0     H73261   1.587   4.824   7.171  0.3455 -0.4615  3.1749
  543MOL0     H73262   1.653   4.943   7.057  3.4854  2.7464  1.2829
  543MOL0     H73263   1.602   5.054   7.230 -0.3103 -0.7345 -0.1169
  543MOL0     H73264   1.771   5.050   7.268  1.2606  0.2895 -0.7911
  543MOL0     H73265   1.539   4.808   7.578 -2.5518  0.0018  0.8763
  543MOL0     H73266   1.408   4.906   7.755 -0.9524 -1.3438 -1.4708
  543MOL0     H73267   1.266   5.283   8.083 -1.0365  0.6779 -0.3452
  543MOL0     H73268   1.206   5.456   8.225 -0.5162 -1.0246 -0.8689
  543MOL0     H73269   1.496   5.791   8.290  0.4577  3.2791  0.7270
  543MOL0     H73270   1.394   5.874   8.176 -0.6846  0.2940  1.2594
  543MOL0     H73271   1.356   5.863   8.470 -0.7574  0.9981  0.0772
  543MOL0     H73272   1.385   5.998   8.354  0.7750 -0.8006 -2.1092
  543MOL0     H73273   1.120   5.838   8.402 -1.5033 -1.6718 -4.5925
  543MOL0     H73274   1.146   6.009   8.423 -1.2327 -1.9847  1.9740
  543MOL0     H73275   1.160   5.895   8.144 -0.7077  0.1640 -0.7627
  543MOL0     H73276   1.169   6.058   8.191  3.4774 -2.8633 -3.0558
  543MOL0     H73277   0.954   6.088   8.238 -0.9436 -0.1668 -1.8064
  543MOL0     H73278   0.914   5.924   8.264  0.7956  0.9050  1.4404
  543MOL0     H73279   1.022   6.044   8.000 -2.1934  2.5478 -2.2576
  543MOL0     H73280   0.956   5.880   8.035 -0.4564 -1.3117  4.9285
  543MOL0     H73281   0.796   6.148   8.025  1.6637 -0.3105 -1.7030
  543MOL0     H73282   0.731   6.020   8.114  0.5502  1.9418  1.1952
  543MOL0     H73283   0.740   5.855   7.947 -1.9250  0.8984 -0.4011
  543MOL0     H73284   0.634   5.987   7.898 -0.4074 -0.3635  2.1528
  543MOL0     H73285   1.526   5.705   8.056 -0.1889 -1.0325 -1.0143
  543MOL0     H73286   1.586   5.525   7.922 -1.1684  1.3367 -1.3791
  543MOL0     H73287   1.564   5.287   7.643  0.5198 -1.8832  1.3083
  543MOL0     H73288   1.671   5.189   7.446 -1.4965 -0.6381 -2.8526
  543MOL0     H73289   2.941   3.972   6.340  0.9055 -1.0771 -0.0529
  543MOL0     H73290   3.188   3.989   6.292  0.2994 -0.7084 -0.4771
  543MOL0     H73291   3.469   4.049   6.026 -2.0482  2.0561  1.2490
  543MOL0     H73292   3.695   4.017   5.940 -1.4753 -2.5005  0.1396
  543MOL0     H73293   3.903   4.141   5.873 -0.4193 -0.2420  0.5530
  543MOL0     H73294   3.888   3.969   5.885 -2.7145  2.3412 -3.3036
  543MOL0     H73295   4.154   4.121   5.944  0.2385  0.3964 -2.5254
  543MOL0     H73296   4.120   4.074   5.795  1.9336  0.3566  0.9332
  543MOL0     H73297   4.139   3.832   5.855  4.0085  0.0133 -0.0163
  543MOL0     H73298   4.082   3.859   6.013 -0.8526 -1.1430 -0.5928
  543MOL0     H73299   4.342   3.869   5.899 -0.4682  1.4270  0.0616
  543MOL0     H73300   4.317   4.000   6.024 -2.0394  1.1760 -1.7962
  543MOL0     H73301   4.336   3.616   6.246  0.4835  0.6558  0.8114
  543MOL0     H73302   3.864   4.174   6.304 -0.3940 -0.3110 -0.0945
  543MOL0     H73303   3.591   4.347   6.404 -0.1515 -0.1319 -0.1171
  543MOL0     H73304   3.586   4.191   6.496 -0.6380 -0.2267 -0.1272
  543MOL0     H73305   3.740   4.277   6.463  0.7465 -0.8048 -1.0148
  544MOL0     O73306   9.574   4.723   1.970 -0.8260  0.3663 -0.6005
  544MOL0     C73307   9.455   4.710   1.987 -0.3290  0.1082  0.1412
  544MOL0     O73308   9.377   4.782   2.074 -0.2626 -0.1547 -0.0715
  544MOL0     C73309   9.439   4.873   2.158 -0.2780  0.4492 -0.1292
  544MOL0     C73310   9.463   4.827   2.287  0.6207  0.1959 -0.3104
  544MOL0     C73311   9.489   4.914   2.389 -0.3948  0.9381  0.4756
  544MOL0     C73312   9.492   5.049   2.357 -0.7136  0.9156 -0.1273
  544MOL0     O73313   9.492   5.145   2.461  0.3132 -0.2605  0.1987
  544MOL0     C73314   9.365   5.179   2.510 -0.0341  0.0887  0.4085
  544MOL0     C73315   9.338   5.098   2.637 -0.0686 -0.1169 -0.2002
  544MOL0     C73316   9.428   5.140   2.745 -0.4670  0.0515 -0.2036
  544MOL0     C73317   9.481   5.022   2.833  0.3516  0.0128  0.1738
  544MOL0     C73318   9.612   4.976   2.795  0.3425 -0.2395 -0.0886
  544MOL0     C73319   9.651   4.865   2.900  0.6153  0.0223 -0.1450
  544MOL0     C73320   9.791   4.818   2.883  0.7326 -0.2930  0.2810
  544MOL0     C73321   9.844   4.691   2.950 -0.2359  0.6156 -0.8600
  544MOL0     N73322   9.921   4.713   3.076  0.7902  0.0997  0.0824
  544MOL0     C73323  10.038   4.651   3.092 -0.1160  0.9676 -1.0289
  544MOL0     C73324  10.087   4.708   3.205  0.2343  0.3325  0.1989
  544MOL0     C73325  10.209   4.681   3.282  0.4551  0.1194 -0.3496
  544MOL0     C73326  10.340   4.699   3.202  0.2181 -1.2137 -0.0333
  544MOL0     C73327  10.463   4.624   3.277  0.7337  0.1779 -0.3927
  544MOL0     C73328  10.544   4.681   3.396 -0.2098 -0.5672 -0.1385
  544MOL0     O73329  10.457   4.666   3.510 -0.2903  0.3805 -0.5778
  544MOL0     C73330  10.530   4.660   3.636  0.4783 -0.7905 -0.4343
  544MOL0     C73331  10.470   4.579   3.731 -0.7987  0.6657 -0.2341
  544MOL0     C73332  10.520   4.567   3.859  1.0996 -0.0141 -0.5249
  544MOL0     C73333  10.637   4.638   3.888  0.1617 -0.1193 -0.1473
  544MOL0     C73334  10.683   4.620   4.016  0.9789 -0.0253 -0.1692
  544MOL0     O73335  10.590   4.617   4.125  0.8727 -0.9212  0.1664
  544MOL0     C73336  10.634   4.628   4.251  0.4727  0.0345 -0.5375
  544MOL0     C73337  10.534   4.586   4.350  0.7858  0.4554  0.0822
  544MOL0     C73338  10.543   4.599   4.482  0.0607 -0.5816 -0.6059
  544MOL0     C73339  10.666   4.657   4.529 -0.4093  0.5398  0.2395
  544MOL0     O73340  10.706   4.649   4.660 -0.0305  0.7639 -0.2548
  544MOL0     C73341  10.688   4.775   4.732 -1.1904  0.2586  0.3711
  544MOL0     C73342  10.724   4.757   4.880 -0.8046 -0.9514 -0.2465
  544MOL0     C73343  10.599   4.734   4.972  0.5192 -0.1620  0.2365
  544MOL0     C73344  10.588   4.580   5.001 -0.9663  0.3271  0.8529
  544MOL0     C73345  10.460   4.514   5.023 -0.2683 -0.2573  0.2848
  544MOL0     C73346  10.369   4.502   4.905 -0.0971  1.3531 -0.2632
  544MOL0     C73347  10.428   4.422   4.787  0.9016 -0.0394  0.0278
  544MOL0     C73348  10.318   4.405   4.690  0.6024 -0.1383 -0.6240
  544MOL0    Cl73349  10.382   4.320   4.548 -0.4671 -0.7708  0.3261
  544MOL0     C73350  10.769   4.690   4.437 -0.3616  0.7819  0.1179
  544MOL0     C73351  10.757   4.686   4.298  0.2536  0.0256  1.2848
  544MOL0     O73352  10.800   4.598   4.022 -0.2128  0.7939 -0.0680
  544MOL0     C73353  10.701   4.720   3.786 -0.1769  0.4988 -0.3154
  544MOL0     C73354  10.645   4.728   3.656 -1.0658  1.1432  0.0447
  544MOL0     N73355   9.995   4.798   3.254  0.5393 -0.3915  0.4309
  544MOL0     N73356   9.887   4.801   3.180 -1.1077  0.5271  0.1519
  544MOL0     C73357   9.486   5.100   2.230  0.4865  0.2356 -0.4367
  544MOL0     C73358   9.449   5.015   2.130  0.3513 -0.1104 -0.8440
  544MOL0     C73359   9.377   4.621   1.897 -0.6850  0.7663  0.3906
  544MOL0     C73360   9.240   4.638   1.885  0.1223 -0.3131  0.4948
  544MOL0     C73361   9.159   4.565   1.795  0.0464 -0.3816  0.5116
  544MOL0     C73362   9.215   4.464   1.720  0.1971  0.1500  0.4636
  544MOL0     O73363   9.139   4.432   1.604 -0.0793 -0.1536  0.2190
  544MOL0     C73364   9.210   4.379   1.491 -0.4592  0.5165 -0.4384
  544MOL0     C73365   9.221   4.227   1.507  0.6761  0.1723 -0.6508
  544MOL0     C73366   9.098   4.150   1.498 -0.2112 -0.5291 -0.9168
  544MOL0     C73367   9.131   3.996   1.542  0.4987  0.2196  0.4401
  544MOL0     C73368   9.006   3.920   1.529  0.4123 -0.2778  0.9072
  544MOL0     C73369   8.905   3.857   1.519 -1.1653  0.3038  0.8621
  544MOL0     C73370   9.347   4.433   1.736 -0.7909  0.9411 -0.3138
  544MOL0     C73371   9.433   4.511   1.821 -0.6115 -0.2714  0.1289
  544MOL0     C73372   9.575   4.479   1.827 -0.4008  0.8650 -0.4366
  544MOL0     H73373   9.469   4.722   2.314  1.6082 -0.1908 -1.8975
  544MOL0     H73374   9.488   4.867   2.487  0.3499 -3.4757 -1.4317
  544MOL0     H73375   9.364   5.285   2.537  1.2967 -0.0533  1.1181
  544MOL0     H73376   9.275   5.178   2.449 -1.1000  4.3520  1.5518
  544MOL0     H73377   9.347   4.990   2.621  0.1106 -0.8224  3.7899
  544MOL0     H73378   9.233   5.113   2.662 -0.5002 -0.8656 -1.4586
  544MOL0     H73379   9.385   5.210   2.818 -0.6294 -0.0820 -0.1701
  544MOL0     H73380   9.518   5.189   2.707 -0.8382  0.4485 -0.5843
  544MOL0     H73381   9.481   5.050   2.939  1.7062 -2.6623  0.9725
  544MOL0     H73382   9.414   4.936   2.823  0.3665  0.0273 -0.0614
  544MOL0     H73383   9.604   4.931   2.696 -2.9370  2.7904 -1.4208
  544MOL0     H73384   9.692   5.051   2.788  0.0125  0.3354  1.8250
  544MOL0     H73385   9.633   4.897   3.003 -1.7943  0.3370 -0.6078
  544MOL0     H73386   9.585   4.780   2.884  2.2236 -1.9050  2.5462
  544MOL0     H73387   9.867   4.894   2.903  0.1884  0.4618 -0.4622
  544MOL0     H73388   9.798   4.806   2.774  2.8113 -1.0269  0.4435
  544MOL0     H73389   9.757   4.627   2.969 -0.2538  0.1410 -2.3992
  544MOL0     H73390   9.913   4.639   2.884  5.3013  1.7556  3.3412
  544MOL0     H73391  10.070   4.565   3.033 -1.7203  0.4492 -1.2225
  544MOL0     H73392  10.202   4.743   3.372  2.7121  3.3455 -2.1871
  544MOL0     H73393  10.194   4.576   3.310  0.6034  0.2115  0.0776
  544MOL0     H73394  10.319   4.654   3.105 -3.1933 -3.5541  1.6114
  544MOL0     H73395  10.363   4.805   3.192 -0.7591 -0.9525  0.4389
  544MOL0     H73396  10.527   4.580   3.200 -0.4087 -0.6827 -0.8883
  544MOL0     H73397  10.418   4.536   3.325  2.6833  0.1369  1.4811
  544MOL0     H73398  10.572   4.786   3.394  0.4495 -0.7018  1.0075
  544MOL0     H73399  10.636   4.625   3.414 -0.7283 -1.5777 -0.5330
  544MOL0     H73400  10.370   4.544   3.707 -0.4967 -1.1037  0.9553
  544MOL0     H73401  10.466   4.510   3.934  0.6697 -0.6777 -1.3146
  544MOL0     H73402  10.448   4.553   4.293 -0.8810  0.7404  2.3026
  544MOL0     H73403  10.461   4.558   4.539  0.0123 -1.3102 -1.1881
  544MOL0     H73404  10.748   4.858   4.694 -1.6406  2.3890  3.8596
  544MOL0     H73405  10.583   4.808   4.725 -1.2875  0.5525  2.5095
  544MOL0     H73406  10.796   4.674   4.887  2.3382  1.4208 -2.0434
  544MOL0     H73407  10.773   4.850   4.908  1.8043 -1.5765 -2.2913
  544MOL0     H73408  10.625   4.783   5.066  1.6577 -1.6278  0.7310
  544MOL0     H73409  10.511   4.777   4.924 -0.3792 -0.5770  1.4915
  544MOL0     H73410  10.651   4.545   5.083  1.2156 -0.7366 -1.1446
  544MOL0     H73411  10.649   4.526   4.929  1.9839  1.2517  2.4976
  544MOL0     H73412  10.401   4.564   5.100 -1.9314 -1.7987  0.0887
  544MOL0     H73413  10.484   4.414   5.059  1.5374 -0.5080 -1.4590
  544MOL0     H73414  10.277   4.453   4.939  0.4027 -2.3217 -3.4366
  544MOL0     H73415  10.343   4.602   4.870  0.7457  1.5277 -0.4116
  544MOL0     H73416  10.482   4.331   4.815 -0.4440 -0.7980  0.2380
  544MOL0     H73417  10.484   4.502   4.737 -1.8386  0.8803 -1.8097
  544MOL0     H73418  10.240   4.337   4.725 -0.1698  0.7352 -0.5969
  544MOL0     H73419  10.277   4.505   4.671 -0.1907  0.0643  1.7519
  544MOL0     H73420  10.868   4.706   4.481 -0.3102 -0.5744  0.5616
  544MOL0     H73421  10.839   4.709   4.231 -0.4934  1.3355  0.7896
  544MOL0     H73422  10.766   4.802   3.816  1.9865 -0.8015 -1.2658
  544MOL0     H73423  10.673   4.799   3.579  1.9111 -0.1110 -0.1667
  544MOL0     H73424   9.480   5.207   2.213 -0.9184  0.2733  0.1765
  544MOL0     H73425   9.438   5.051   2.028 -0.5620  1.2069 -0.3072
  544MOL0     H73426   9.193   4.725   1.930  1.3083  0.9947 -0.7123
  544MOL0     H73427   9.066   4.618   1.777  1.4643  3.2952  2.7061
  544MOL0     H73428   9.309   4.425   1.493 -1.8618  3.9180 -1.9345
  544MOL0     H73429   9.158   4.411   1.400 -0.6458  2.5767  0.3345
  544MOL0     H73430   9.279   4.202   1.596 -2.2032  1.0152  1.6427
  544MOL0     H73431   9.261   4.206   1.408  2.3160  2.2684 -0.5000
  544MOL0     H73432   9.053   4.149   1.399 -2.6727 -1.1997  0.1271
  544MOL0     H73433   9.023   4.184   1.570 -1.8487 -4.8427 -0.2817
  544MOL0     H73434   9.207   3.961   1.471 -0.3655  0.3036 -0.5519
  544MOL0     H73435   9.163   3.986   1.646  2.3499 -2.0266 -0.2642
  544MOL0     H73436   8.809   3.811   1.516 -0.4807 -1.1519 -1.8297
  544MOL0     H73437   9.385   4.342   1.690  0.5088 -0.6820  3.5688
  544MOL0     H73438   9.630   4.562   1.782 -1.2273  0.2417 -2.6976
  544MOL0     H73439   9.608   4.467   1.931 -1.1378  2.8633  0.0784
  544MOL0     H73440   9.602   4.396   1.762 -1.9450  0.5690 -0.7364
  545MOL0     O73441   5.224   9.854   4.604  0.1166  0.1263 -0.1512
  545MOL0     C73442   5.323   9.929   4.616  0.4654  0.0446  0.3289
  545MOL0     O73443   5.323  10.041   4.687 -0.0259  0.0822  0.7597
  545MOL0     C73444   5.203  10.104   4.693  0.1179  0.0746 -0.2260
  545MOL0     C73445   5.121  10.131   4.578 -0.6075  0.4113 -0.1154
  545MOL0     C73446   5.007  10.217   4.606 -0.3534  0.4306 -0.3998
  545MOL0     C73447   4.989  10.276   4.730  0.2647 -0.1315 -0.1201
  545MOL0     O73448   4.879  10.350   4.763  0.3613  0.3458  0.0404
  545MOL0     C73449   4.751  10.291   4.740  0.2751 -0.0578  0.1554
  545MOL0     C73450   4.644  10.370   4.821  0.4709 -0.3051  0.1717
  545MOL0     C73451   4.500  10.330   4.783  0.1310  0.7324 -0.5280
  545MOL0     C73452   4.454  10.175   4.817  0.3240  0.3766 -0.1953
  545MOL0     C73453   4.315  10.175   4.763  0.5456 -0.0678  0.0489
  545MOL0     C73454   4.270  10.037   4.800  0.1973  0.1230 -0.6031
  545MOL0     C73455   4.161   9.974   4.718 -0.3912  0.1920  0.5108
  545MOL0     C73456   4.088   9.850   4.788 -0.4080 -0.3554 -1.4391
  545MOL0     N73457   3.960   9.802   4.732 -0.0990 -0.1830 -0.6530
  545MOL0     C73458   3.969   9.718   4.624  0.7961 -0.1978 -1.1575
  545MOL0     C73459   3.852   9.653   4.631  0.1740 -0.3050 -0.1517
  545MOL0     C73460   3.819   9.537   4.544 -0.4034  0.5449  0.1211
  545MOL0     C73461   3.943   9.443   4.530 -0.9341 -0.0392  0.2345
  545MOL0     C73462   3.896   9.296   4.495  0.3885  0.9999 -0.1528
  545MOL0     C73463   4.023   9.224   4.442 -0.4833  0.6191  0.2136
  545MOL0     O73464   4.071   9.290   4.326  1.0507 -0.4845  0.1336
  545MOL0     C73465   4.087   9.207   4.213 -1.0199  0.1662  0.3370
  545MOL0     C73466   4.203   9.236   4.132  1.0878 -0.2415  0.2866
  545MOL0     C73467   4.216   9.180   4.004  0.7349  0.4439  0.6109
  545MOL0     C73468   4.132   9.076   3.969  0.0982 -0.0630 -0.4109
  545MOL0     C73469   4.160   8.991   3.855  0.5793 -0.3868 -0.1978
  545MOL0     O73470   4.266   9.019   3.773  0.3270 -0.4434 -0.5364
  545MOL0     C73471   4.291   8.934   3.664  0.2146 -0.1483 -0.1484
  545MOL0     C73472   4.351   8.810   3.683  0.4572 -0.2867  0.1004
  545MOL0     C73473   4.394   8.731   3.580  0.6080  0.5292 -0.4405
  545MOL0     C73474   4.401   8.784   3.447  0.5102  1.8481  0.2823
  545MOL0     O73475   4.447   8.712   3.336  0.0547 -0.3197 -0.0524
  545MOL0     C73476   4.389   8.578   3.330 -0.1307 -0.3305  0.2442
  545MOL0     C73477   4.425   8.507   3.193  0.3933 -0.9580 -0.4974
  545MOL0     C73478   4.344   8.376   3.183 -0.3534 -0.1815 -0.9121
  545MOL0     C73479   4.200   8.381   3.235 -0.1072  0.0472 -1.1200
  545MOL0     C73480   4.107   8.260   3.202 -0.5281  0.0679  0.0936
  545MOL0     C73481   3.949   8.286   3.220  0.6857  0.4427 -1.2403
  545MOL0     C73482   3.923   8.339   3.369  0.1903 -0.0854  0.3626
  545MOL0     C73483   3.778   8.332   3.399 -0.4889 -0.9062 -0.5274
  545MOL0    Cl73484   3.675   8.442   3.298  0.2961 -0.2971 -0.8217
  545MOL0     C73485   4.370   8.915   3.428 -0.6433 -0.5872 -0.2910
  545MOL0     C73486   4.322   8.998   3.541 -0.9362 -0.2168 -0.4962
  545MOL0     O73487   4.082   8.896   3.840  0.2205 -0.1961 -0.5416
  545MOL0     C73488   4.026   9.042   4.056  1.0512  1.0975 -0.1037
  545MOL0     C73489   3.998   9.105   4.176 -0.5080  0.4187 -0.5398
  545MOL0     N73490   3.767   9.711   4.727  0.7041 -0.2797  0.0793
  545MOL0     N73491   3.839   9.799   4.789 -0.7427 -0.6899 -0.1868
  545MOL0     C73492   5.071  10.240   4.835  0.5963  0.0258 -0.5508
  545MOL0     C73493   5.179  10.161   4.813 -0.9150  0.1804  0.1145
  545MOL0     C73494   5.461   9.871   4.589 -0.1726  0.2506  0.3915
  545MOL0     C73495   5.565   9.899   4.681  0.3474  0.2116  0.6187
  545MOL0     C73496   5.682   9.822   4.685  0.0095 -0.5958  0.3724
  545MOL0     C73497   5.698   9.723   4.592 -0.6426  0.0259 -0.3740
  545MOL0     O73498   5.818   9.656   4.581  0.3608 -0.2362 -0.3449
  545MOL0     C73499   5.795   9.518   4.574 -0.3470  0.2427  0.4448
  545MOL0     C73500   5.928   9.450   4.598 -0.3068 -0.0341 -0.9291
  545MOL0     C73501   5.972   9.450   4.747  0.6118 -0.1320  0.2572
  545MOL0     C73502   6.072   9.332   4.789  0.5691  0.2409  0.4973
  545MOL0     C73503   6.011   9.203   4.780 -0.5450 -0.3691  0.1950
  545MOL0     C73504   5.956   9.096   4.782  0.1606  0.1866 -0.3984
  545MOL0     C73505   5.605   9.709   4.490  1.0168 -0.3867  0.8339
  545MOL0     C73506   5.478   9.771   4.494 -0.1574  0.2877 -0.2782
  545MOL0     C73507   5.377   9.716   4.386 -0.3853  0.6208  0.5456
  545MOL0     H73508   5.147  10.104   4.476  2.2955 -1.2526  0.9812
  545MOL0     H73509   4.949  10.256   4.523 -0.8993  2.8736  1.0547
  545MOL0     H73510   4.735  10.279   4.632  0.9306  0.8670 -0.0606
  545MOL0     H73511   4.748  10.188   4.775  1.9827  0.1835  1.1163
  545MOL0     H73512   4.679  10.473   4.807  1.7423 -1.0824 -3.5906
  545MOL0     H73513   4.654  10.338   4.925 -1.8581 -1.0521  0.2238
  545MOL0     H73514   4.489  10.336   4.674 -0.1021  0.7176 -0.5061
  545MOL0     H73515   4.435  10.413   4.812 -2.5665 -1.2056 -0.7233
  545MOL0     H73516   4.508  10.103   4.754 -0.0489 -0.1434  0.0714
  545MOL0     H73517   4.453  10.148   4.923  0.6904  2.8536  0.5060
  545MOL0     H73518   4.250  10.247   4.814  1.0454 -1.0586  2.2441
  545MOL0     H73519   4.318  10.183   4.654 -0.9430  0.3288  0.0055
  545MOL0     H73520   4.351   9.964   4.787 -1.9098 -2.1047 -2.0323
  545MOL0     H73521   4.241  10.047   4.905 -0.2121  0.6998 -0.7703
  545MOL0     H73522   4.211   9.940   4.627 -2.0551 -1.6251  0.2269
  545MOL0     H73523   4.085  10.049   4.693  1.2441  2.1032  0.9198
  545MOL0     H73524   4.153   9.764   4.805 -0.3117 -0.3024 -1.5394
  545MOL0     H73525   4.064   9.885   4.889 -2.0676 -0.9980 -1.5816
  545MOL0     H73526   4.054   9.714   4.557  0.1827 -2.3080 -1.8931
  545MOL0     H73527   3.733   9.498   4.598 -0.4299  2.8668  1.9596
  545MOL0     H73528   3.785   9.568   4.444  1.3088  0.7184 -0.4431
  545MOL0     H73529   4.006   9.477   4.448 -1.8673  0.1364 -0.4214
  545MOL0     H73530   4.011   9.432   4.616  1.1788 -1.4857 -1.5046
  545MOL0     H73531   3.825   9.301   4.412  1.6800  0.2654 -1.3464
  545MOL0     H73532   3.852   9.230   4.570  2.2407 -2.1039 -1.5724
  545MOL0     H73533   4.030   9.116   4.427  1.7390  0.1316  3.4810
  545MOL0     H73534   4.104   9.246   4.513 -2.1569 -0.8488  2.7000
  545MOL0     H73535   4.274   9.310   4.165  0.5708  0.2585  0.3060
  545MOL0     H73536   4.297   9.222   3.945 -1.1995  0.7789 -1.9933
  545MOL0     H73537   4.364   8.759   3.778 -0.0722 -1.1159 -0.2555
  545MOL0     H73538   4.437   8.634   3.603  0.7897  0.4790 -0.9789
  545MOL0     H73539   4.437   8.519   3.409  0.9030  1.2198  0.8266
  545MOL0     H73540   4.282   8.582   3.350 -0.3484 -1.5249 -0.5400
  545MOL0     H73541   4.386   8.573   3.114 -1.0536 -0.1793  0.8008
  545MOL0     H73542   4.532   8.495   3.174  0.4137 -0.9802 -0.3687
  545MOL0     H73543   4.347   8.354   3.076  1.7274 -3.0818 -0.3830
  545MOL0     H73544   4.410   8.296   3.217 -0.0399 -1.2919 -3.8244
  545MOL0     H73545   4.148   8.475   3.212 -1.0270  0.1257  1.0291
  545MOL0     H73546   4.198   8.377   3.344  0.2528 -0.6551 -1.1371
  545MOL0     H73547   4.150   8.171   3.249  1.4750  0.3433 -1.0948
  545MOL0     H73548   4.113   8.231   3.097 -2.5301 -1.5592  0.3502
  545MOL0     H73549   3.906   8.363   3.155 -1.1979 -0.2690 -0.8939
  545MOL0     H73550   3.890   8.195   3.226 -3.5552  2.9801  3.3695
  545MOL0     H73551   3.955   8.443   3.379 -0.9008  0.5449 -1.9377
  545MOL0     H73552   3.972   8.271   3.439  1.3828  0.9594  0.5741
  545MOL0     H73553   3.745   8.227   3.404 -2.0941 -0.3717  1.0174
  545MOL0     H73554   3.769   8.371   3.500 -0.7605  4.6519 -2.3909
  545MOL0     H73555   4.385   8.970   3.336 -1.2318  1.7943  0.9693
  545MOL0     H73556   4.327   9.106   3.533  1.8270 -0.3321 -1.3358
  545MOL0     H73557   3.968   8.954   4.029  2.6567  0.7842 -3.0099
  545MOL0     H73558   3.907   9.079   4.230 -0.6546  0.5532 -0.7224
  545MOL0     H73559   5.043  10.295   4.925  0.4214 -0.4292 -0.3279
  545MOL0     H73560   5.258  10.147   4.886 -2.2114 -2.1617  1.1802
  545MOL0     H73561   5.557   9.980   4.753 -2.2154  0.1049  0.5474
  545MOL0     H73562   5.755   9.832   4.764  1.4490 -0.5846 -0.9039
  545MOL0     H73563   5.751   9.501   4.475  0.3463  3.1203 -0.4527
  545MOL0     H73564   5.727   9.482   4.652 -4.4909  3.9803 -1.0222
  545MOL0     H73565   6.010   9.489   4.538  0.4613 -2.3717 -1.4715
  545MOL0     H73566   5.914   9.346   4.568  1.6218 -0.9603  1.0710
  545MOL0     H73567   5.882   9.444   4.808 -0.2496 -0.7347 -1.0321
  545MOL0     H73568   6.011   9.552   4.762 -0.2819  0.6357 -2.1547
  545MOL0     H73569   6.156   9.344   4.719  1.8037 -1.2768  1.6433
  545MOL0     H73570   6.113   9.346   4.889  1.2475 -1.0562  0.4370
  545MOL0     H73571   5.909   9.001   4.801  0.2877 -0.1932 -1.9092
  545MOL0     H73572   5.623   9.637   4.411  0.1029  1.6442 -1.3359
  545MOL0     H73573   5.286   9.777   4.390 -0.8484 -0.1066  1.7077
  545MOL0     H73574   5.429   9.720   4.290  1.0310  2.9834  1.3070
  545MOL0     H73575   5.347   9.617   4.421  0.5402  0.2483  0.3047
  546MOL0     O73576   6.820   9.184   8.193  0.1515 -0.4245 -0.0657
  546MOL0     C73577   6.799   9.269   8.276  0.3461  0.3139  0.4526
  546MOL0     O73578   6.786   9.254   8.409 -0.0705  1.2201  0.0800
  546MOL0     C73579   6.765   9.141   8.466  0.3340  0.0508  0.6095
  546MOL0     C73580   6.671   9.156   8.564 -0.0289 -0.0904  0.0251
  546MOL0     C73581   6.640   9.050   8.654 -0.4360 -0.6194 -1.0608
  546MOL0     C73582   6.710   8.928   8.641  0.8530  1.0773 -0.1395
  546MOL0     O73583   6.666   8.815   8.705  1.0125  0.6771  0.0487
  546MOL0     C73584   6.658   8.824   8.849 -0.1679 -0.4676  0.9774
  546MOL0     C73585   6.528   8.771   8.899  0.5930  0.4419 -0.3212
  546MOL0     C73586   6.499   8.620   8.878 -0.3192 -0.5349 -0.0893
  546MOL0     C73587   6.367   8.569   8.838  0.2324  0.4737  0.1846
  546MOL0     C73588   6.267   8.580   8.965 -0.5002 -0.2605  0.9141
  546MOL0     C73589   6.145   8.491   8.935 -0.2942 -0.1985  0.1105
  546MOL0     C73590   6.048   8.482   9.057  0.9364 -0.7439  0.1933
  546MOL0     C73591   5.942   8.368   9.056 -0.5387 -0.5832  0.3486
  546MOL0     N73592   5.896   8.353   9.191  0.2090  0.6418 -0.3468
  546MOL0     C73593   5.961   8.301   9.301  0.9116  0.6668 -0.5418
  546MOL0     C73594   5.871   8.313   9.399  0.3289  0.2435  0.0333
  546MOL0     C73595   5.910   8.268   9.541 -0.3514  0.1126 -0.8558
  546MOL0     C73596   5.824   8.145   9.578  0.1663  0.3068  0.5034
  546MOL0     C73597   5.826   8.106   9.730  1.0991  0.0982  0.1035
  546MOL0     C73598   5.962   8.100   9.792  0.3812 -0.6860 -0.6931
  546MOL0     O73599   5.948   8.083   9.941  0.1793  0.2036  0.5921
  546MOL0     C73600   6.060   8.110  10.020 -0.0055  0.6669  1.1247
  546MOL0     C73601   6.198   8.109   9.983 -0.4470 -0.5228  0.0427
  546MOL0     C73602   6.300   8.124  10.075  0.3442 -0.7161 -0.3384
  546MOL0     C73603   6.271   8.142  10.209  0.1499  0.1833 -0.0546
  546MOL0     C73604   6.386   8.177  10.295 -0.8126 -0.5009 -0.3820
  546MOL0     O73605   6.505   8.206  10.233  0.0650  0.4610 -0.3118
  546MOL0     C73606   6.605   8.247  10.315  0.4691  0.0025  0.0357
  546MOL0     C73607   6.697   8.163  10.364 -0.2251 -0.6057 -0.1450
  546MOL0     C73608   6.804   8.215  10.445 -0.2924  0.4817  0.2624
  546MOL0     C73609   6.821   8.352  10.473  1.0208  0.6380  0.0083
  546MOL0     O73610   6.929   8.378  10.551 -0.5783  0.6265 -0.2035
  546MOL0     C73611   6.923   8.511  10.625 -0.5439 -0.2977  0.7256
  546MOL0     C73612   6.989   8.621  10.541 -0.9308  0.4395 -0.5270
  546MOL0     C73613   6.958   8.764  10.578  0.4798  0.1535 -0.0831
  546MOL0     C73614   7.027   8.865  10.489  0.6293 -0.6688  0.6986
  546MOL0     C73615   6.969   8.880  10.342  0.5168 -0.0303 -0.1697
  546MOL0     C73616   6.818   8.904  10.345 -0.6260 -0.0661  0.8478
  546MOL0     C73617   6.765   8.924  10.208  0.4585  0.1586 -0.5825
  546MOL0     C73618   6.612   8.911  10.194 -0.3841  0.0626 -0.4256
  546MOL0    Cl73619   6.542   8.766  10.274  0.1516 -0.6407 -0.1866
  546MOL0     C73620   6.740   8.444  10.402 -0.0934 -0.2625  0.8606
  546MOL0     C73621   6.630   8.385  10.335 -0.1534 -1.4830  0.3572
  546MOL0     O73622   6.365   8.194  10.418  0.3689 -0.3302 -0.3411
  546MOL0     C73623   6.137   8.129  10.254 -0.0169  0.4460 -0.4539
  546MOL0     C73624   6.034   8.112  10.157 -0.5395  0.4921 -0.2353
  546MOL0     N73625   5.752   8.370   9.354 -0.7520 -0.0718 -0.2923
  546MOL0     N73626   5.775   8.399   9.232  0.1212 -0.3746  0.4887
  546MOL0     C73627   6.794   8.911   8.536 -0.8570  0.1536 -0.3863
  546MOL0     C73628   6.833   9.017   8.451  0.8381 -0.8178  0.6708
  546MOL0     C73629   6.787   9.412   8.242 -1.3844 -0.2023  0.0328
  546MOL0     C73630   6.699   9.495   8.322 -0.1806  0.5601  0.3069
  546MOL0     C73631   6.679   9.636   8.295  0.1132  0.8627 -0.4962
  546MOL0     C73632   6.742   9.690   8.186  0.5616  0.1452 -0.8965
  546MOL0     O73633   6.737   9.834   8.164 -0.3165  0.9984  1.0328
  546MOL0     C73634   6.641   9.922   8.217 -0.3290  0.1125 -1.3904
  546MOL0     C73635   6.622  10.019   8.105  0.2828  1.0238 -0.5935
  546MOL0     C73636   6.719  10.135   8.131  0.4111  0.1323  0.1784
  546MOL0     C73637   6.672  10.253   8.223  0.2017  0.6929  0.0935
  546MOL0     C73638   6.542  10.318   8.183 -0.3403  0.0268 -0.1251
  546MOL0     C73639   6.432  10.360   8.154  0.7861 -0.2727  0.0747
  546MOL0     C73640   6.829   9.613   8.108 -0.6773 -0.1931 -0.1381
  546MOL0     C73641   6.862   9.477   8.134  0.3956 -0.9896  0.4156
  546MOL0     C73642   6.983   9.422   8.080  0.7088 -0.3890  0.3523
  546MOL0     H73643   6.625   9.254   8.576  0.2387 -0.1745  2.0717
  546MOL0     H73644   6.571   9.052   8.737 -0.9477 -2.7071 -1.3780
  546MOL0     H73645   6.742   8.773   8.895  0.5244 -0.9183 -0.7396
  546MOL0     H73646   6.656   8.929   8.882 -3.2703 -0.6770  1.7782
  546MOL0     H73647   6.449   8.826   8.849 -2.2388  1.1904  4.4013
  546MOL0     H73648   6.521   8.785   9.007  2.2362  0.5621 -0.2013
  546MOL0     H73649   6.535   8.565   8.965 -2.5125 -2.4008 -0.2745
  546MOL0     H73650   6.569   8.618   8.794  0.4114  3.5762  0.2041
  546MOL0     H73651   6.321   8.634   8.763 -3.6754  0.0501  1.9305
  546MOL0     H73652   6.371   8.462   8.817 -0.4187  0.5627 -0.3962
  546MOL0     H73653   6.311   8.552   9.061 -2.6637  0.3356  2.1624
  546MOL0     H73654   6.235   8.685   8.967 -0.1080  0.0297 -2.2205
  546MOL0     H73655   6.085   8.519   8.848 -4.0044 -1.9780  1.8775
  546MOL0     H73656   6.181   8.390   8.913 -0.5354 -0.1993 -0.2871
  546MOL0     H73657   5.988   8.573   9.065 -0.6092 -1.6000 -1.2128
  546MOL0     H73658   6.115   8.493   9.142  0.1942  1.0381  0.5866
  546MOL0     H73659   5.858   8.404   8.995  1.2779  0.9790 -1.3606
  546MOL0     H73660   5.981   8.276   9.012 -0.7130 -0.6712  0.3750
  546MOL0     H73661   6.051   8.241   9.307 -0.6919 -1.8264  0.4097
  546MOL0     H73662   6.017   8.250   9.557 -0.3993 -2.6326 -2.8951
  546MOL0     H73663   5.889   8.353   9.607  0.1270  0.0444 -0.6108
  546MOL0     H73664   5.722   8.164   9.544  1.1958  2.1504 -1.8710
  546MOL0     H73665   5.851   8.060   9.515  0.4114 -0.2725  1.3692
  546MOL0     H73666   5.772   8.013   9.752  0.7226  0.4973  0.9173
  546MOL0     H73667   5.769   8.187   9.775  0.3615  0.3872 -1.3109
  546MOL0     H73668   6.012   8.197   9.788 -3.0465  1.6362  3.5541
  546MOL0     H73669   6.023   8.025   9.742  0.6602 -1.5565  0.8850
  546MOL0     H73670   6.232   8.096   9.881  0.4530  1.3783  0.0537
  546MOL0     H73671   6.398   8.130  10.028  1.8078  1.5789  2.6591
  546MOL0     H73672   6.673   8.059  10.346 -1.4642 -0.3903  0.1449
  546MOL0     H73673   6.875   8.139  10.477 -0.5581 -0.0244 -0.3062
  546MOL0     H73674   6.824   8.553  10.644 -0.0942  1.0491  0.2289
  546MOL0     H73675   6.974   8.519  10.722 -1.7522  1.8456  1.2454
  546MOL0     H73676   7.096   8.615  10.563 -1.5307  0.8662  3.0367
  546MOL0     H73677   6.983   8.613  10.432  2.6416  1.6263 -0.9610
  546MOL0     H73678   6.849   8.763  10.581  0.3487 -3.8833  0.0906
  546MOL0     H73679   6.996   8.782  10.679 -2.3732  0.4247  1.0378
  546MOL0     H73680   7.136   8.860  10.478  0.9988  5.4983 -3.9364
  546MOL0     H73681   7.013   8.961  10.540  0.1309 -1.4692  2.1315
  546MOL0     H73682   7.003   8.788  10.294  2.0973 -1.2827  3.0364
  546MOL0     H73683   7.025   8.961  10.294 -1.0997  1.7477  0.8423
  546MOL0     H73684   6.765   8.819  10.389 -2.7774  1.9105  2.3263
  546MOL0     H73685   6.795   8.988  10.412 -0.0292 -0.7086  1.8825
  546MOL0     H73686   6.800   8.839  10.148  4.8799  0.5590  1.0637
  546MOL0     H73687   6.800   9.014  10.157  2.7434  1.2350  2.5870
  546MOL0     H73688   6.583   8.999  10.252 -2.9247  0.2376 -1.8193
  546MOL0     H73689   6.589   8.925  10.088  1.8429 -2.3517 -1.3360
  546MOL0     H73690   6.759   8.551  10.402 -0.9570 -0.0626  2.8346
  546MOL0     H73691   6.562   8.452  10.283 -0.2976 -0.5442  1.6864
  546MOL0     H73692   6.111   8.127  10.360 -2.3470 -0.8192 -0.9631
  546MOL0     H73693   5.936   8.095  10.200 -0.4645  2.0169  0.6123
  546MOL0     H73694   6.838   8.812   8.529 -0.2564 -0.0022  3.4936
  546MOL0     H73695   6.891   8.995   8.362 -2.6791 -1.5295 -1.6376
  546MOL0     H73696   6.644   9.457   8.408  1.2880 -1.6470  0.3787
  546MOL0     H73697   6.609   9.699   8.349  2.2851  2.9486  0.0336
  546MOL0     H73698   6.677   9.961   8.312 -0.3395 -2.2293 -0.3419
  546MOL0     H73699   6.547   9.871   8.241  1.5218 -2.0166  2.3089
  546MOL0     H73700   6.518  10.052   8.099 -0.4639 -0.9055  0.6444
  546MOL0     H73701   6.646   9.967   8.012  3.2971  0.9484  0.1327
  546MOL0     H73702   6.747  10.180   8.035 -0.0644  1.3103  0.5811
  546MOL0     H73703   6.808  10.085   8.170  0.9704 -1.1764 -2.4809
  546MOL0     H73704   6.679  10.223   8.328 -1.7832  0.1035  0.0985
  546MOL0     H73705   6.748  10.332   8.212 -0.2575  1.4281  1.9070
  546MOL0     H73706   6.330  10.379   8.126  0.0879 -1.6604  1.5099
  546MOL0     H73707   6.894   9.673   8.046 -0.3173  2.3814  2.5065
  546MOL0     H73708   7.067   9.469   8.131  1.9398 -1.8770 -0.2420
  546MOL0     H73709   6.997   9.314   8.080 -0.0136 -0.5032 -0.7073
  546MOL0     H73710   6.982   9.464   7.979 -2.3007  2.2251  1.3002
  547MOL0     O73711   9.260   9.080   7.980 -1.0317  0.3722 -0.0092
  547MOL0     C73712   9.240   8.967   7.932  0.8498  0.4233 -0.4800
  547MOL0     O73713   9.139   8.891   7.972 -0.3644 -0.5341 -0.2805
  547MOL0     C73714   9.055   8.925   8.080  1.2287  1.5057  0.6667
  547MOL0     C73715   8.917   8.920   8.054 -0.1634 -0.2970 -0.9853
  547MOL0     C73716   8.825   8.926   8.162 -0.4624 -0.3127  0.1070
  547MOL0     C73717   8.873   8.934   8.297 -0.4548 -0.1607  0.5733
  547MOL0     O73718   8.784   8.929   8.400 -0.3271  0.0844  0.1744
  547MOL0     C73719   8.752   8.805   8.468  0.0159 -0.0258  0.3168
  547MOL0     C73720   8.685   8.848   8.593 -0.0706  0.7609 -0.2627
  547MOL0     C73721   8.598   8.725   8.652  0.1705  0.3937  0.8913
  547MOL0     C73722   8.563   8.763   8.796 -0.7131  1.1258  0.3619
  547MOL0     C73723   8.539   8.649   8.894  0.3631  0.8643  0.6607
  547MOL0     C73724   8.417   8.548   8.850  0.5160 -0.3905 -0.3397
  547MOL0     C73725   8.354   8.479   8.975 -0.1932 -0.2096  0.4070
  547MOL0     C73726   8.226   8.399   8.927  0.0457  0.1487 -1.1620
  547MOL0     N73727   8.171   8.299   9.026 -0.1671  0.1613  0.1499
  547MOL0     C73728   8.236   8.173   9.055  1.5775 -0.5087 -0.7233
  547MOL0     C73729   8.139   8.097   9.117 -0.2861 -0.7762  0.3563
  547MOL0     C73730   8.141   7.953   9.153  0.2282 -0.1029 -0.2439
  547MOL0     C73731   8.065   7.861   9.055 -0.6471 -0.3411  0.5182
  547MOL0     C73732   7.918   7.896   9.036  0.7977  0.0937 -0.2326
  547MOL0     C73733   7.832   7.903   9.163  0.2687  0.2441 -0.2793
  547MOL0     O73734   7.727   7.806   9.172 -0.5072 -0.2456 -0.5370
  547MOL0     C73735   7.752   7.688   9.231 -0.2265  0.6231  0.0040
  547MOL0     C73736   7.637   7.603   9.244  0.0394  0.4480 -0.0783
  547MOL0     C73737   7.658   7.480   9.297 -0.6566 -0.7338 -0.4414
  547MOL0     C73738   7.785   7.449   9.357  0.1454  0.4093  0.2755
  547MOL0     C73739   7.798   7.313   9.420  0.1287  0.2529 -0.1088
  547MOL0     O73740   7.695   7.226   9.410  0.4972  0.5340 -0.1320
  547MOL0     C73741   7.683   7.104   9.468 -0.3203  0.0823 -0.3824
  547MOL0     C73742   7.743   7.070   9.585 -0.6845 -0.2098 -0.1477
  547MOL0     C73743   7.723   6.940   9.631  0.5485  0.8925 -0.9131
  547MOL0     C73744   7.658   6.836   9.566  0.2434  0.5771  0.7146
  547MOL0     O73745   7.656   6.720   9.631  0.5500  0.3612 -0.3749
  547MOL0     C73746   7.563   6.616   9.602  0.1031  0.1504 -0.1649
  547MOL0     C73747   7.628   6.486   9.662  0.0719 -1.1736 -0.5116
  547MOL0     C73748   7.749   6.444   9.577  0.3833  0.0842  0.2913
  547MOL0     C73749   7.800   6.304   9.601  0.7321 -0.6228 -0.0475
  547MOL0     C73750   7.924   6.291   9.523 -0.7820  0.4739  0.2191
  547MOL0     C73751   8.017   6.178   9.554 -0.1741  0.5426  0.8548
  547MOL0     C73752   7.950   6.034   9.544 -0.0170  0.0136 -1.2328
  547MOL0     C73753   8.046   5.929   9.508  0.4249 -0.5119 -0.3092
  547MOL0    Cl73754   8.167   5.908   9.640 -0.2745 -0.0664  0.3057
  547MOL0     C73755   7.605   6.879   9.435 -0.3765  0.2531 -0.0790
  547MOL0     C73756   7.604   7.013   9.391  0.0197 -0.3575 -0.4658
  547MOL0     O73757   7.892   7.295   9.500 -0.7236 -0.8958  0.1528
  547MOL0     C73758   7.889   7.530   9.358 -0.0205 -0.9552  0.2129
  547MOL0     C73759   7.874   7.653   9.296 -0.5994 -0.2009  0.0863
  547MOL0     N73760   8.027   8.173   9.111  0.0422  0.3962  0.2321
  547MOL0     N73761   8.041   8.289   9.057  1.0824 -0.6657 -0.7803
  547MOL0     C73762   9.012   8.945   8.319 -0.1248  0.1927 -0.3976
  547MOL0     C73763   9.106   8.939   8.210  0.0576  0.7554 -0.9815
  547MOL0     C73764   9.320   8.897   7.829 -0.4675 -0.1495 -0.2291
  547MOL0     C73765   9.261   8.798   7.750 -0.1737 -0.0442 -0.4616
  547MOL0     C73766   9.331   8.725   7.656  0.2704  0.3018  0.6166
  547MOL0     C73767   9.465   8.749   7.620 -0.7629 -0.0029  0.6814
  547MOL0     O73768   9.519   8.687   7.510  0.0035 -0.2113 -0.3418
  547MOL0     C73769   9.662   8.697   7.476 -0.0741 -0.5106  0.5569
  547MOL0     C73770   9.691   8.567   7.421  0.0314 -0.3776  0.0292
  547MOL0     C73771   9.673   8.452   7.519 -0.6918 -0.7233  0.2578
  547MOL0     C73772   9.674   8.314   7.457 -0.1218 -0.0958  0.0392
  547MOL0     C73773   9.545   8.278   7.420 -0.1948  0.5334  0.8871
  547MOL0     C73774   9.424   8.243   7.406 -1.0067  0.6477 -0.6057
  547MOL0     C73775   9.529   8.857   7.699  0.0192  0.5555  0.9036
  547MOL0     C73776   9.462   8.919   7.808  0.0099  0.3038 -0.0791
  547MOL0     C73777   9.527   9.024   7.890  0.7034 -0.0388 -0.3867
  547MOL0     H73778   8.885   8.927   7.951 -0.9008  3.0740 -0.6582
  547MOL0     H73779   8.722   8.896   8.151 -0.3716 -0.1662 -1.3146
  547MOL0     H73780   8.684   8.748   8.403 -2.7453  2.3701  0.8814
  547MOL0     H73781   8.845   8.752   8.490  0.6214  1.5509  1.8801
  547MOL0     H73782   8.611   8.925   8.572 -1.7791 -1.2921 -2.3681
  547MOL0     H73783   8.759   8.867   8.672 -0.3772 -0.3995  0.3123
  547MOL0     H73784   8.664   8.638   8.656  0.9722  0.6640 -2.9367
  547MOL0     H73785   8.517   8.703   8.582  2.9365  1.9750 -3.1932
  547MOL0     H73786   8.641   8.827   8.839  0.5350  0.1252 -0.3184
  547MOL0     H73787   8.474   8.823   8.776 -0.6585  0.6200 -1.5964
  547MOL0     H73788   8.632   8.592   8.901 -1.0237 -1.4900  0.9770
  547MOL0     H73789   8.502   8.689   8.989 -2.3235 -1.5735  0.7865
  547MOL0     H73790   8.342   8.615   8.807  0.2183 -0.1269  0.5810
  547MOL0     H73791   8.444   8.474   8.774 -0.7288 -0.7935 -0.3987
  547MOL0     H73792   8.331   8.548   9.056 -0.3880 -1.0098  1.0481
  547MOL0     H73793   8.416   8.397   9.013 -2.7137 -2.3906  0.0496
  547MOL0     H73794   8.150   8.476   8.915  1.4019  1.4215 -1.9370
  547MOL0     H73795   8.241   8.352   8.829 -1.2695 -1.2046 -0.7553
  547MOL0     H73796   8.335   8.137   9.028  1.6437  0.5886 -2.0682
  547MOL0     H73797   8.248   7.927   9.146  0.1052 -0.1734 -2.2549
  547MOL0     H73798   8.103   7.942   9.255  5.1927 -1.0609  1.8157
  547MOL0     H73799   8.108   7.882   8.957  2.0543  1.5643  1.9593
  547MOL0     H73800   8.074   7.757   9.086  2.4480 -0.2059  0.3799
  547MOL0     H73801   7.882   7.821   8.965  1.5740 -2.8804  2.2897
  547MOL0     H73802   7.915   7.988   8.976 -1.4072  0.0929 -0.2244
  547MOL0     H73803   7.776   7.996   9.153 -0.9816 -0.5167 -0.5627
  547MOL0     H73804   7.896   7.911   9.252 -0.5279  0.0439  0.3302
  547MOL0     H73805   7.546   7.631   9.193 -0.0236 -0.0990 -0.2678
  547MOL0     H73806   7.577   7.408   9.298 -0.8525 -0.5210  0.8082
  547MOL0     H73807   7.810   7.135   9.641 -1.0477 -0.5129  0.6514
  547MOL0     H73808   7.758   6.905   9.728  1.3419 -0.6085 -1.7055
  547MOL0     H73809   7.460   6.631   9.637  0.0307 -2.5722  1.0254
  547MOL0     H73810   7.539   6.610   9.495  0.1203  3.1212 -0.4157
  547MOL0     H73811   7.657   6.507   9.765 -1.4219  0.1156 -0.3302
  547MOL0     H73812   7.552   6.407   9.665 -0.7070 -0.4085  0.5490
  547MOL0     H73813   7.708   6.449   9.476  0.3219 -0.3380  0.2930
  547MOL0     H73814   7.837   6.508   9.590  2.2881 -2.2667 -0.3304
  547MOL0     H73815   7.712   6.240   9.584 -1.0413  1.7434 -0.3823
  547MOL0     H73816   7.831   6.309   9.706 -1.5913  0.4055  0.6651
  547MOL0     H73817   7.989   6.377   9.545  1.6926 -1.2141 -0.1192
  547MOL0     H73818   7.901   6.295   9.417  3.7206  2.8268 -0.9240
  547MOL0     H73819   8.099   6.190   9.483 -0.4975  2.0441  0.7017
  547MOL0     H73820   8.047   6.193   9.659 -1.4733 -1.3279  1.5560
  547MOL0     H73821   7.861   6.030   9.480 -1.9488 -1.1113  1.3715
  547MOL0     H73822   7.909   6.010   9.642  1.0389 -0.8080 -0.9766
  547MOL0     H73823   7.992   5.837   9.483  1.2433 -0.5310 -2.1966
  547MOL0     H73824   8.098   5.952   9.415 -0.4850 -0.1034 -0.7220
  547MOL0     H73825   7.557   6.807   9.368  0.5536 -1.6567  1.1957
  547MOL0     H73826   7.567   7.043   9.293 -2.4630  1.6115  0.9490
  547MOL0     H73827   7.980   7.517   9.416 -1.2673  3.7830  3.8849
  547MOL0     H73828   7.963   7.715   9.301 -0.4730 -0.4711  3.8969
  547MOL0     H73829   9.041   8.951   8.424 -0.0995  1.4727 -0.4558
  547MOL0     H73830   9.212   8.944   8.235  0.2520  1.6826 -1.9456
  547MOL0     H73831   9.163   8.767   7.784  0.3713  1.5273  2.9415
  547MOL0     H73832   9.272   8.640   7.623  1.4523 -1.0521  1.8890
  547MOL0     H73833   9.720   8.699   7.569  3.3237 -1.8788 -1.3604
  547MOL0     H73834   9.677   8.784   7.411  1.2744  0.7104  2.4173
  547MOL0     H73835   9.781   8.564   7.360  0.3368 -2.0363  0.4964
  547MOL0     H73836   9.611   8.551   7.347 -0.8744 -0.6971  1.0425
  547MOL0     H73837   9.590   8.455   7.590 -0.3682 -2.0384  0.7287
  547MOL0     H73838   9.760   8.455   7.586 -0.2068  0.0782 -0.3919
  547MOL0     H73839   9.743   8.318   7.372 -0.4207  2.8870 -0.1655
  547MOL0     H73840   9.696   8.234   7.528  1.2235 -0.3984 -0.6877
  547MOL0     H73841   9.320   8.218   7.407 -0.8544 -0.1286  1.0580
  547MOL0     H73842   9.631   8.889   7.681  0.6008 -1.3235  0.5791
  547MOL0     H73843   9.524   8.998   7.996 -1.2885  1.6412  0.0295
  547MOL0     H73844   9.628   9.030   7.849 -0.1734 -0.4470 -2.8247
  547MOL0     H73845   9.472   9.118   7.877  0.4059 -0.1160  0.3017
  548MOL0     O73846   4.691   1.963   6.342 -0.2494 -0.2631  0.3774
  548MOL0     C73847   4.654   1.846   6.327 -0.6508 -0.1861  0.3869
  548MOL0     O73848   4.523   1.814   6.325  0.2577  0.4776  0.0489
  548MOL0     C73849   4.427   1.910   6.305  0.6279  0.6571 -0.6283
  548MOL0     C73850   4.341   1.946   6.408  0.1259  0.2935 -0.8063
  548MOL0     C73851   4.244   2.044   6.380  0.2798 -1.1071  0.4446
  548MOL0     C73852   4.229   2.093   6.245 -1.2802 -0.7917 -1.1627
  548MOL0     O73853   4.136   2.187   6.227 -0.2611 -0.1755 -1.3860
  548MOL0     C73854   4.050   2.194   6.118  0.4765  0.2713  0.7981
  548MOL0     C73855   4.028   2.337   6.075 -0.0466  0.0557  0.3029
  548MOL0     C73856   3.926   2.363   5.961  0.8539  0.8269  0.5060
  548MOL0     C73857   3.905   2.501   5.913  0.2464 -0.3417  0.7502
  548MOL0     C73858   3.863   2.593   6.025 -0.7298 -0.9467 -0.5832
  548MOL0     C73859   3.802   2.720   5.964 -0.3764  0.6540  0.0813
  548MOL0     C73860   3.787   2.841   6.056 -0.3914 -0.5794 -0.0249
  548MOL0     C73861   3.912   2.915   6.096 -0.1202 -0.0418  0.1143
  548MOL0     N73862   3.875   3.005   6.201 -0.2904 -0.2307 -0.0655
  548MOL0     C73863   3.952   3.005   6.312 -1.2056  0.6076  0.4195
  548MOL0     C73864   3.911   3.107   6.394  0.1983  0.8198 -0.3313
  548MOL0     C73865   3.984   3.153   6.521 -0.1780  0.0833 -0.7390
  548MOL0     C73866   4.052   3.033   6.604 -0.1241 -0.1064  1.2419
  548MOL0     C73867   4.138   3.081   6.719 -0.2204  0.6191 -0.4341
  548MOL0     C73868   4.201   2.973   6.809 -0.0343  0.1459  0.6600
  548MOL0     O73869   4.302   2.908   6.733  0.7940  0.0527 -0.6618
  548MOL0     C73870   4.367   2.819   6.805 -0.4051 -0.0228 -0.0537
  548MOL0     C73871   4.484   2.862   6.874 -0.1104  0.1866  0.4274
  548MOL0     C73872   4.575   2.769   6.931 -0.4343  0.2882 -0.3921
  548MOL0     C73873   4.554   2.632   6.927  0.2322  0.7540  0.6180
  548MOL0     C73874   4.637   2.548   7.013 -0.1845  0.2996 -1.0138
  548MOL0     O73875   4.720   2.612   7.097  0.4166 -1.1213 -0.7369
  548MOL0     C73876   4.798   2.552   7.194  0.0212  0.2529 -0.5282
  548MOL0     C73877   4.816   2.418   7.234  0.0075 -0.2933  1.1153
  548MOL0     C73878   4.887   2.384   7.348  0.0722  0.8732 -0.1162
  548MOL0     C73879   4.945   2.484   7.428 -0.4615  0.1148  0.9073
  548MOL0     O73880   5.008   2.444   7.544 -0.3016 -0.6787 -0.1386
  548MOL0     C73881   5.133   2.522   7.585  0.0274 -0.2703 -0.0912
  548MOL0     C73882   5.167   2.476   7.731  0.2391  0.9009 -0.1365
  548MOL0     C73883   5.292   2.552   7.794  0.2432  0.3667  0.2557
  548MOL0     C73884   5.421   2.517   7.717  0.5601  0.2691  0.1910
  548MOL0     C73885   5.553   2.530   7.802 -0.7561  0.0071  0.2428
  548MOL0     C73886   5.676   2.514   7.719 -0.7820 -1.0493 -0.8686
  548MOL0     C73887   5.690   2.366   7.665 -0.5969 -0.1932 -0.8961
  548MOL0     C73888   5.813   2.328   7.580 -0.5436  0.1066  0.1585
  548MOL0    Cl73889   5.772   2.345   7.418 -0.0879 -0.8044  0.2718
  548MOL0     C73890   4.926   2.619   7.398  0.5745  0.2738 -0.1191
  548MOL0     C73891   4.852   2.647   7.284  0.0987  0.0701 -0.3056
  548MOL0     O73892   4.625   2.426   7.012 -0.0276  0.2201  0.6329
  548MOL0     C73893   4.449   2.588   6.841  0.3207 -1.2659 -0.1843
  548MOL0     C73894   4.355   2.683   6.785 -0.3441  1.0198 -0.0817
  548MOL0     N73895   3.812   3.170   6.321  0.6266  0.6966 -1.1634
  548MOL0     N73896   3.790   3.107   6.205  0.2958 -1.4401 -1.1210
  548MOL0     C73897   4.317   2.046   6.146 -0.2907  0.0574  0.1408
  548MOL0     C73898   4.416   1.957   6.178 -0.4205  0.8454 -0.4276
  548MOL0     C73899   4.749   1.750   6.318 -0.2436  0.0889 -0.8735
  548MOL0     C73900   4.772   1.688   6.439 -0.2659 -0.3640 -0.2789
  548MOL0     C73901   4.866   1.582   6.448 -0.5617  0.3093 -0.5435
  548MOL0     C73902   4.943   1.547   6.331 -0.0109 -0.4983 -1.1099
  548MOL0     O73903   5.043   1.456   6.326  0.5893  0.4002  0.5700
  548MOL0     C73904   5.065   1.358   6.427  0.3361  0.7914 -1.2229
  548MOL0     C73905   5.160   1.257   6.386  0.3330  0.1682 -0.0116
  548MOL0     C73906   5.179   1.158   6.499  0.6008  0.5269 -0.1173
  548MOL0     C73907   5.264   1.043   6.448 -0.1306 -0.4790 -0.3481
  548MOL0     C73908   5.404   1.079   6.432  0.4242 -0.1757  0.0064
  548MOL0     C73909   5.515   1.119   6.423 -1.0818 -0.1278 -0.8299
  548MOL0     C73910   4.917   1.620   6.220 -0.3918  0.3786  0.1785
  548MOL0     C73911   4.816   1.712   6.199  0.9316  0.5999 -0.6225
  548MOL0     C73912   4.788   1.783   6.055 -0.8614  0.4369 -0.3395
  548MOL0     H73913   4.357   1.916   6.511  0.0770  1.9333 -0.2824
  548MOL0     H73914   4.168   2.086   6.445 -1.4442 -1.1754 -1.4415
  548MOL0     H73915   4.092   2.141   6.031  0.1058 -3.2591  2.5696
  548MOL0     H73916   3.950   2.151   6.136  0.8204 -0.2931  1.4100
  548MOL0     H73917   4.119   2.391   6.047 -0.5151  1.5535  1.5310
  548MOL0     H73918   3.991   2.387   6.165 -0.2555 -0.7382  0.6630
  548MOL0     H73919   3.837   2.312   5.998  1.4427 -1.4874 -1.0530
  548MOL0     H73920   3.964   2.314   5.871  3.5286  1.0373  1.4066
  548MOL0     H73921   3.998   2.529   5.862  1.3888  0.1140  2.9756
  548MOL0     H73922   3.818   2.499   5.846  0.7313 -0.5623  0.1152
  548MOL0     H73923   3.788   2.550   6.091 -3.5184 -0.5853 -3.3040
  548MOL0     H73924   3.956   2.620   6.076 -1.2864  0.4175 -0.2475
  548MOL0     H73925   3.868   2.757   5.885  0.4156  1.5859  1.1395
  548MOL0     H73926   3.705   2.691   5.922  0.2625 -1.0596 -0.2731
  548MOL0     H73927   3.735   2.819   6.150  2.0028 -3.3087  0.8107
  548MOL0     H73928   3.729   2.918   6.004 -0.4984  1.2838  2.6199
  548MOL0     H73929   3.982   2.836   6.125  3.1905 -0.5258 -7.0001
  548MOL0     H73930   3.971   2.973   6.024  3.8632 -0.4128  2.7733
  548MOL0     H73931   4.030   2.930   6.319 -0.8533  0.8285 -0.8274
  548MOL0     H73932   4.067   3.221   6.500 -0.6708  1.5692  1.6988
  548MOL0     H73933   3.917   3.201   6.593  1.8032  1.4159  0.3369
  548MOL0     H73934   3.971   2.969   6.639 -1.4518  1.4261  1.1321
  548MOL0     H73935   4.114   2.975   6.535 -2.9673 -0.7441 -1.0113
  548MOL0     H73936   4.086   3.147   6.789  3.9168  5.3372 -1.2495
  548MOL0     H73937   4.221   3.140   6.680 -0.4198  0.1787 -1.5461
  548MOL0     H73938   4.127   2.900   6.844 -1.3912  0.7219 -0.8360
  548MOL0     H73939   4.244   3.028   6.893  0.6980 -1.3810  1.3118
  548MOL0     H73940   4.501   2.969   6.880 -1.8978  0.4932  0.6996
  548MOL0     H73941   4.659   2.811   6.986  0.3625 -2.1256  0.3259
  548MOL0     H73942   4.779   2.342   7.166  2.9363  0.3159 -1.3795
  548MOL0     H73943   4.909   2.280   7.367  1.7087  0.7078 -2.4749
  548MOL0     H73944   5.217   2.492   7.522  1.6002  0.2779  1.6539
  548MOL0     H73945   5.124   2.631   7.581 -1.4124 -0.3749 -0.5882
  548MOL0     H73946   5.077   2.490   7.791  0.6173  1.3014  0.3423
  548MOL0     H73947   5.178   2.367   7.737  0.6592  0.8989 -0.8251
  548MOL0     H73948   5.264   2.657   7.778  0.3351  0.5411  1.2007
  548MOL0     H73949   5.308   2.522   7.898  0.8255 -3.5926 -0.8178
  548MOL0     H73950   5.428   2.590   7.636 -2.1907 -1.2347 -1.5626
  548MOL0     H73951   5.421   2.427   7.656  0.4281  2.4959 -3.3685
  548MOL0     H73952   5.552   2.444   7.871  2.0022 -0.6986 -0.4593
  548MOL0     H73953   5.557   2.624   7.857 -0.3127  1.1449 -1.6406
  548MOL0     H73954   5.670   2.586   7.637 -0.5199 -1.1285 -0.9586
  548MOL0     H73955   5.757   2.544   7.786 -0.0741 -2.3492 -1.0956
  548MOL0     H73956   5.598   2.342   7.611 -1.7873  0.8238  0.5825
  548MOL0     H73957   5.703   2.298   7.750 -1.3852  0.9617  0.1747
  548MOL0     H73958   5.890   2.397   7.614  3.7893 -5.3275  2.9801
  548MOL0     H73959   5.864   2.235   7.607 -0.4783 -0.3934 -1.5723
  548MOL0     H73960   4.963   2.692   7.469  1.8786 -0.9749  0.5335
  548MOL0     H73961   4.830   2.753   7.285 -0.6274 -0.0691 -1.0899
  548MOL0     H73962   4.443   2.480   6.846  4.8730 -1.7419  4.7530
  548MOL0     H73963   4.279   2.648   6.716 -0.6857  0.2896  0.6454
  548MOL0     H73964   4.320   2.082   6.043  0.8606  0.2882  0.2390
  548MOL0     H73965   4.482   1.909   6.107  0.0968 -1.1647  1.3146
  548MOL0     H73966   4.712   1.708   6.527  0.9712 -0.7847  0.6907
  548MOL0     H73967   4.887   1.521   6.535 -0.8471 -2.5646 -2.3813
  548MOL0     H73968   4.967   1.310   6.438 -0.5174  2.2869 -1.8440
  548MOL0     H73969   5.106   1.396   6.520  0.0468 -1.0087 -0.3253
  548MOL0     H73970   5.256   1.308   6.372  1.3479 -1.9036 -0.9817
  548MOL0     H73971   5.128   1.225   6.287 -0.1601  3.0892 -0.9155
  548MOL0     H73972   5.087   1.116   6.540  0.1081  1.0403 -0.6799
  548MOL0     H73973   5.229   1.206   6.584  2.5604 -1.2129 -0.2047
  548MOL0     H73974   5.257   0.962   6.521  0.0850  0.5105  0.8281
  548MOL0     H73975   5.229   1.005   6.352  1.3807 -3.8160  0.2753
  548MOL0     H73976   5.611   1.162   6.403 -0.3542 -2.1020 -1.8987
  548MOL0     H73977   4.974   1.599   6.130  0.9063  0.8590  0.8616
  548MOL0     H73978   4.682   1.805   6.038 -1.3749  0.8646  2.7690
  548MOL0     H73979   4.845   1.876   6.047  1.3531 -0.7667  0.4188
  548MOL0     H73980   4.821   1.716   5.975  0.4156 -0.6488  1.0359
  549MOL0     O73981   3.962   6.778   1.108  0.5462  0.1124  0.5146
  549MOL0     C73982   3.956   6.805   0.990  0.1744 -0.5432  0.4186
  549MOL0     O73983   3.930   6.710   0.892  0.8094  0.5613  0.3499
  549MOL0     C73984   3.918   6.584   0.941 -0.2679 -0.0362  0.2940
  549MOL0     C73985   3.788   6.535   0.965  0.4602 -1.1958  0.5173
  549MOL0     C73986   3.768   6.399   0.994 -0.9352 -0.0493 -0.1438
  549MOL0     C73987   3.886   6.322   1.016  0.2002  0.2520 -0.2551
  549MOL0     O73988   3.877   6.183   1.033  0.0441 -0.9867 -0.4938
  549MOL0     C73989   3.785   6.111   0.941 -0.5195 -0.6022  1.1497
  549MOL0     C73990   3.816   5.971   0.899  0.4609 -0.1850 -0.4353
  549MOL0     C73991   3.849   5.958   0.755 -0.1991  0.1231  0.0341
  549MOL0     C73992   3.892   5.813   0.720 -0.0927 -0.4438 -0.6882
  549MOL0     C73993   3.792   5.739   0.635 -0.2756 -0.7414 -0.1841
  549MOL0     C73994   3.764   5.792   0.493 -0.1269  0.4259  0.6113
  549MOL0     C73995   3.636   5.736   0.435 -0.5155  0.1277  0.2945
  549MOL0     C73996   3.617   5.741   0.284 -0.4254 -0.0931 -0.5678
  549MOL0     N73997   3.585   5.868   0.235 -0.2046  0.5085 -1.5359
  549MOL0     C73998   3.486   5.951   0.276  0.2256  1.0032  0.0675
  549MOL0     C73999   3.496   6.063   0.201  0.3374  0.6911  0.2033
  549MOL0     C74000   3.397   6.172   0.186 -0.9962  0.5428  0.4654
  549MOL0     C74001   3.258   6.122   0.176  0.7475 -0.1553 -0.3471
  549MOL0     C74002   3.164   6.217   0.094 -0.8324  0.3300  0.2123
  549MOL0     C74003   3.021   6.168   0.105  0.2963 -0.4960  1.4323
  549MOL0     O74004   2.957   6.186   0.229  0.1777 -0.3231 -1.0796
  549MOL0     C74005   2.825   6.151   0.253 -1.0583  0.4529 -0.1056
  549MOL0     C74006   2.782   6.124   0.386 -0.2258  0.1823  1.1793
  549MOL0     C74007   2.652   6.122   0.410  1.0751 -0.2603  0.5292
  549MOL0     C74008   2.554   6.133   0.309 -0.2297 -0.3138 -0.5681
  549MOL0     C74009   2.404   6.108   0.343 -0.1723  0.0419  0.0680
  549MOL0     O74010   2.363   6.145   0.462 -0.0073 -0.2960 -0.7119
  549MOL0     C74011   2.225   6.140   0.487 -1.4423  0.9650 -0.2000
  549MOL0     C74012   2.186   6.044   0.573  0.9220 -1.0506 -0.1124
  549MOL0     C74013   2.051   6.048   0.613 -0.0174 -0.3520  0.0316
  549MOL0     C74014   1.952   6.140   0.558 -1.0320 -0.6847 -0.0514
  549MOL0     O74015   1.817   6.133   0.586 -0.4021  0.6512 -0.1452
  549MOL0     C74016   1.734   6.182   0.485 -0.3265  0.5678 -0.2293
  549MOL0     C74017   1.605   6.094   0.488  0.5128 -0.0516 -0.6773
  549MOL0     C74018   1.485   6.148   0.413 -1.0502 -0.6278  0.6128
  549MOL0     C74019   1.393   6.040   0.360  0.3384 -0.8367  0.0832
  549MOL0     C74020   1.262   6.025   0.438 -0.4364 -0.4402  0.2374
  549MOL0     C74021   1.155   6.141   0.408 -0.0091  0.4207  0.2727
  549MOL0     C74022   1.150   6.197   0.256  0.0269  0.4715 -0.7942
  549MOL0     C74023   1.023   6.264   0.222  0.2343  0.1025 -0.0513
  549MOL0    Cl74024   1.012   6.416   0.320 -0.2692 -0.4388  0.5983
  549MOL0     C74025   2.010   6.244   0.486  0.6685  0.0484  0.0459
  549MOL0     C74026   2.143   6.247   0.458  0.0915  1.0981  0.4451
  549MOL0     O74027   2.333   6.060   0.255 -0.5866  0.1311  0.5458
  549MOL0     C74028   2.598   6.150   0.182  0.7932  0.3222 -0.8427
  549MOL0     C74029   2.735   6.161   0.152  0.0618  0.7139  0.2022
  549MOL0     N74030   3.613   6.058   0.129  0.0695 -0.6943  0.0137
  549MOL0     N74031   3.649   5.937   0.140 -0.3723 -1.1582 -0.1572
  549MOL0     C74032   4.009   6.371   0.986 -1.1696  0.0856 -0.6658
  549MOL0     C74033   4.029   6.505   0.956 -0.3934  0.0183  0.4651
  549MOL0     C74034   4.008   6.940   0.962  0.0312 -0.0411  0.8203
  549MOL0     C74035   4.017   6.970   0.825 -1.0702 -0.1412 -0.6174
  549MOL0     C74036   4.082   7.086   0.781 -0.4844 -0.0355  0.6196
  549MOL0     C74037   4.133   7.171   0.880 -0.8403  0.1426 -0.7718
  549MOL0     O74038   4.205   7.285   0.845 -0.0581  0.6043 -0.4882
  549MOL0     C74039   4.170   7.368   0.732 -0.3609 -0.3437 -0.3040
  549MOL0     C74040   4.033   7.436   0.755 -0.0093 -0.2733 -0.0193
  549MOL0     C74041   4.030   7.553   0.852  0.1157 -0.7514  1.1046
  549MOL0     C74042   3.932   7.670   0.827  0.6293 -0.4291  0.4030
  549MOL0     C74043   3.798   7.623   0.787 -0.2438 -0.2511 -1.1195
  549MOL0     C74044   3.683   7.593   0.779  0.1947  0.3931  0.1097
  549MOL0     C74045   4.140   7.144   1.021  0.4020 -0.2086  1.2486
  549MOL0     C74046   4.073   7.032   1.058 -0.3650  0.5740 -1.1675
  549MOL0     C74047   4.075   7.011   1.208  0.1020 -0.5320 -0.5209
  549MOL0     H74048   3.709   6.608   0.952  1.1971 -0.6095 -0.9390
  549MOL0     H74049   3.669   6.355   1.004 -0.5736 -0.8620 -0.0821
  549MOL0     H74050   3.697   6.095   1.004  1.0842 -2.5732  3.0561
  549MOL0     H74051   3.763   6.165   0.849 -1.3622 -2.2466  0.3389
  549MOL0     H74052   3.727   5.913   0.927  2.0115 -1.6028  1.8855
  549MOL0     H74053   3.900   5.952   0.966  0.6103  4.9552  1.2884
  549MOL0     H74054   3.935   6.022   0.736 -0.9256  0.4537 -2.4825
  549MOL0     H74055   3.760   5.986   0.696 -0.9222  1.9689  1.8810
  549MOL0     H74056   3.991   5.804   0.674 -0.4076  0.5678 -1.6159
  549MOL0     H74057   3.912   5.763   0.815 -4.2405  0.0064  0.6372
  549MOL0     H74058   3.817   5.633   0.636  1.7424 -0.3350 -1.6125
  549MOL0     H74059   3.699   5.753   0.691  0.0591 -1.7472  0.6494
  549MOL0     H74060   3.751   5.900   0.503 -0.3356  0.3324  1.4163
  549MOL0     H74061   3.841   5.761   0.422  0.5489 -0.9224  1.8899
  549MOL0     H74062   3.558   5.800   0.478 -1.3692  0.5252 -1.7542
  549MOL0     H74063   3.610   5.633   0.462 -0.3484 -0.9489 -3.1886
  549MOL0     H74064   3.707   5.702   0.235  0.0040  0.9809 -0.6754
  549MOL0     H74065   3.534   5.672   0.264  0.5306 -1.4374 -0.0095
  549MOL0     H74066   3.413   5.931   0.353 -0.8481  2.3059 -0.5731
  549MOL0     H74067   3.400   6.233   0.277 -0.4734  1.4910 -0.1720
  549MOL0     H74068   3.424   6.228   0.096  0.8808 -0.9192  0.0500
  549MOL0     H74069   3.246   6.019   0.143 -1.1934  0.3153 -1.2711
  549MOL0     H74070   3.221   6.111   0.278  0.4251  1.5662 -0.2444
  549MOL0     H74071   3.191   6.215  -0.012  0.3839 -0.8211  0.5136
  549MOL0     H74072   3.160   6.319   0.134  0.4952 -0.0071  1.2991
  549MOL0     H74073   3.015   6.065   0.067  4.2047  0.0146 -1.1313
  549MOL0     H74074   2.969   6.230   0.031 -1.8389 -4.0137 -0.3234
  549MOL0     H74075   2.855   6.119   0.467  2.6925  1.9932 -1.1008
  549MOL0     H74076   2.620   6.085   0.507 -1.3830 -2.0467 -0.8584
  549MOL0     H74077   2.267   5.975   0.595 -1.2897 -2.8823  3.1136
  549MOL0     H74078   2.004   5.980   0.684 -1.5602  1.4655  0.8408
  549MOL0     H74079   1.708   6.286   0.507  0.7124  1.3753 -2.4482
  549MOL0     H74080   1.791   6.176   0.391  1.3807  5.5606  0.2067
  549MOL0     H74081   1.645   6.010   0.431  1.3684  1.0844 -1.8114
  549MOL0     H74082   1.585   6.058   0.589  2.0652  0.6669 -0.0775
  549MOL0     H74083   1.444   6.223   0.481  1.0287  1.6073 -0.4765
  549MOL0     H74084   1.523   6.200   0.325 -4.5051  0.7584 -0.1924
  549MOL0     H74085   1.430   5.937   0.369  2.0542 -0.1784  0.9345
  549MOL0     H74086   1.383   6.069   0.255 -0.2294  1.3437  0.6925
  549MOL0     H74087   1.276   6.013   0.545 -0.1452  0.3495  0.2925
  549MOL0     H74088   1.232   5.931   0.389  0.7276 -0.1362 -1.1330
  549MOL0     H74089   1.050   6.132   0.437 -0.3444  3.6536  0.3395
  549MOL0     H74090   1.190   6.229   0.463 -0.6027  1.3922 -0.8600
  549MOL0     H74091   1.174   6.109   0.196  0.5617 -2.6283  3.5456
  549MOL0     H74092   1.231   6.270   0.244 -1.9234  2.6380 -1.6973
  549MOL0     H74093   1.016   6.288   0.115 -1.4627  0.6541  0.1595
  549MOL0     H74094   0.935   6.207   0.254  1.3987 -0.0260  3.2265
  549MOL0     H74095   1.947   6.316   0.435 -0.5631 -1.9713 -1.4477
  549MOL0     H74096   2.186   6.338   0.417 -1.5287  0.9898 -1.6572
  549MOL0     H74097   2.525   6.169   0.103 -2.8524 -0.8612  1.9377
  549MOL0     H74098   2.761   6.222   0.066 -2.6432  0.9315 -0.5594
  549MOL0     H74099   4.097   6.307   0.984 -1.6849 -0.6663  0.1902
  549MOL0     H74100   4.131   6.539   0.946  0.7870 -1.9831  3.9301
  549MOL0     H74101   3.974   6.912   0.743  1.1650 -0.4618 -1.6277
  549MOL0     H74102   4.097   7.108   0.676  3.6811  1.1828  1.2752
  549MOL0     H74103   4.164   7.306   0.642  0.4808 -0.2594 -0.4324
  549MOL0     H74104   4.255   7.436   0.719  1.2019 -2.1636 -0.1689
  549MOL0     H74105   3.946   7.373   0.778 -1.8877  1.9102 -0.7805
  549MOL0     H74106   4.005   7.473   0.656 -1.7762 -0.2830  0.4429
  549MOL0     H74107   4.134   7.586   0.851  0.1303 -0.8029 -0.1170
  549MOL0     H74108   3.996   7.520   0.951 -1.1858 -1.0561  0.5702
  549MOL0     H74109   3.929   7.723   0.923 -0.0776 -0.1891  0.2531
  549MOL0     H74110   3.964   7.744   0.753 -1.4474  0.2487  0.0917
  549MOL0     H74111   3.586   7.547   0.783  0.1511  0.5403  2.9340
  549MOL0     H74112   4.196   7.216   1.080 -2.8749  2.8986  0.8890
  549MOL0     H74113   4.094   7.103   1.262 -1.2971  0.7635 -2.0982
  549MOL0     H74114   3.982   6.971   1.251  0.4997 -0.3138  0.5617
  549MOL0     H74115   4.163   6.952   1.235  1.5756  1.0607 -1.6501
  550MOL0     O74116   0.679   5.410   3.922  0.0346  0.3066 -0.1009
  550MOL0     C74117   0.657   5.436   4.044 -0.0978  0.5471  0.6287
  550MOL0     O74118   0.669   5.560   4.093 -0.6572 -0.1755 -0.5330
  550MOL0     C74119   0.718   5.658   4.012 -0.2656 -0.2495 -0.0700
  550MOL0     C74120   0.856   5.692   3.998 -0.0837  0.0685  0.3932
  550MOL0     C74121   0.898   5.795   3.922  0.9056 -0.1402  0.3365
  550MOL0     C74122   0.799   5.877   3.851 -0.0447 -0.2136  0.2896
  550MOL0     O74123   0.854   5.972   3.767  0.4378  0.1514  0.6729
  550MOL0     C74124   0.836   6.105   3.814  0.3441  0.5353  0.2003
  550MOL0     C74125   0.935   6.186   3.729 -1.1036 -0.6372 -0.2942
  550MOL0     C74126   0.961   6.326   3.770  0.2308 -0.1351 -0.6321
  550MOL0     C74127   0.841   6.424   3.764 -0.3721 -0.1385  0.8393
  550MOL0     C74128   0.777   6.429   3.629  0.7100  0.4088 -0.3038
  550MOL0     C74129   0.883   6.464   3.517 -0.0764  0.6509  0.1155
  550MOL0     C74130   0.951   6.590   3.545 -0.6539  0.4735  1.0132
  550MOL0     C74131   1.019   6.646   3.428 -0.0822  0.4426 -0.0263
  550MOL0     N74132   0.946   6.728   3.335 -0.0108  0.5605  0.1079
  550MOL0     C74133   0.844   6.685   3.259  0.1482  0.9137  0.9547
  550MOL0     C74134   0.800   6.797   3.194  0.2971 -0.4455  0.2072
  550MOL0     C74135   0.683   6.805   3.097 -0.6211 -0.0524 -0.3692
  550MOL0     C74136   0.646   6.948   3.053 -0.0448 -0.2211 -0.6373
  550MOL0     C74137   0.532   6.993   3.150 -0.1117 -0.5006 -0.1263
  550MOL0     C74138   0.493   7.140   3.115  0.3478 -0.4506 -0.2132
  550MOL0     O74139   0.365   7.168   3.173 -0.4874 -0.7154  0.5263
  550MOL0     C74140   0.291   7.275   3.127 -0.2316 -0.7428 -0.5475
  550MOL0     C74141   0.162   7.277   3.184  0.2620  0.1174  0.5191
  550MOL0     C74142   0.085   7.389   3.168  0.4713  0.4821  1.0516
  550MOL0     C74143   0.110   7.477   3.051  0.2054  0.8401 -0.4712
  550MOL0     C74144   0.013   7.569   3.000 -0.9255 -0.0840  0.7507
  550MOL0     O74145   0.042   7.648   2.893  0.3291  0.2906 -0.0476
  550MOL0     C74146  -0.053   7.727   2.841  0.1096 -0.7026  0.0060
  550MOL0     C74147  -0.020   7.855   2.810  0.2285  0.5570  0.1509
  550MOL0     C74148  -0.113   7.941   2.763  0.4208 -0.3258 -0.1375
  550MOL0     C74149  -0.244   7.893   2.730 -0.9826  0.4217 -0.3220
  550MOL0     O74150  -0.345   7.976   2.688  0.3373 -0.4018 -0.2414
  550MOL0     C74151  -0.323   8.119   2.670 -0.1318  0.1752  0.4073
  550MOL0     C74152  -0.257   8.145   2.529 -0.6921  0.8376  0.1194
  550MOL0     C74153  -0.190   8.276   2.499  0.8380  0.7754 -0.0565
  550MOL0     C74154  -0.097   8.269   2.379 -0.2626  0.5776  0.2986
  550MOL0     C74155  -0.024   8.407   2.351  0.5119  0.9266  0.1651
  550MOL0     C74156   0.026   8.397   2.217 -0.9154  0.3762 -0.0932
  550MOL0     C74157   0.083   8.539   2.199 -0.9331  0.1263  0.3632
  550MOL0     C74158   0.194   8.523   2.096 -0.1717  0.1499  0.2299
  550MOL0    Cl74159   0.282   8.674   2.057  0.3875  0.2876  0.2203
  550MOL0     C74160  -0.276   7.772   2.782 -0.1465 -0.4284  0.9005
  550MOL0     C74161  -0.184   7.684   2.829 -0.1142 -0.3371 -0.3932
  550MOL0     O74162  -0.088   7.571   3.069 -0.4698  0.5413  0.3333
  550MOL0     C74163   0.226   7.461   2.980 -0.1001 -0.8492  0.7453
  550MOL0     C74164   0.320   7.371   3.025 -0.0896  0.3860  0.7042
  550MOL0     N74165   0.878   6.907   3.239 -0.8970  0.1947  0.2393
  550MOL0     N74166   0.978   6.855   3.310 -0.3509 -0.1993 -0.5897
  550MOL0     C74167   0.663   5.848   3.855  0.1283  0.6007 -0.8335
  550MOL0     C74168   0.624   5.742   3.937  0.1362  0.3070 -0.1650
  550MOL0     C74169   0.607   5.333   4.134  0.8133  0.4555 -1.2355
  550MOL0     C74170   0.625   5.340   4.277  0.3032  0.1438  0.0183
  550MOL0     C74171   0.579   5.246   4.369  0.6453  0.5018 -0.2473
  550MOL0     C74172   0.513   5.132   4.318 -0.1976 -0.1098 -1.8988
  550MOL0     O74173   0.467   5.042   4.415  0.3671  0.1551 -0.5346
  550MOL0     C74174   0.377   4.928   4.384  0.1934 -0.4905  0.6073
  550MOL0     C74175   0.250   4.955   4.309 -0.6598 -0.0761 -0.2461
  550MOL0     C74176   0.170   4.832   4.266  0.5740  0.7531  0.3233
  550MOL0     C74177   0.250   4.713   4.209 -0.9031 -0.1145  0.0640
  550MOL0     C74178   0.281   4.748   4.073  0.3383 -0.0566 -0.0514
  550MOL0     C74179   0.288   4.774   3.955  0.0970 -0.2536  0.6227
  550MOL0     C74180   0.504   5.116   4.182 -0.2263  0.4818 -0.2494
  550MOL0     C74181   0.530   5.220   4.093  0.7407  0.1959  0.8109
  550MOL0     C74182   0.479   5.182   3.957 -0.4190 -1.3110 -0.1515
  550MOL0     H74183   0.947   5.650   4.040  0.0122 -0.0834  0.0389
  550MOL0     H74184   1.003   5.816   3.909  0.7947 -0.7306 -2.1299
  550MOL0     H74185   0.731   6.127   3.791  0.5835  0.9336 -0.5574
  550MOL0     H74186   0.852   6.128   3.920 -2.7702 -1.4812  1.2490
  550MOL0     H74187   0.905   6.175   3.624 -0.8456  3.4025 -0.9654
  550MOL0     H74188   1.035   6.145   3.741  0.1315  2.3583  0.7356
  550MOL0     H74189   1.026   6.364   3.691 -1.0208  4.1708  0.1399
  550MOL0     H74190   1.014   6.340   3.864 -0.7422 -0.9350  0.0573
  550MOL0     H74191   0.768   6.398   3.841 -2.0980 -0.0897 -0.6978
  550MOL0     H74192   0.863   6.529   3.787 -3.8783  1.2386 -1.2700
  550MOL0     H74193   0.740   6.327   3.614  1.4232 -0.7349  4.1987
  550MOL0     H74194   0.696   6.502   3.637  1.0691  0.8344 -0.5203
  550MOL0     H74195   0.959   6.387   3.507  0.9909  1.5953  0.6767
  550MOL0     H74196   0.830   6.468   3.421  1.5109  0.1260 -0.8214
  550MOL0     H74197   1.022   6.584   3.628  0.6110  2.5595  0.1722
  550MOL0     H74198   0.884   6.666   3.586  0.9939  1.6807  1.5815
  550MOL0     H74199   1.107   6.702   3.463  1.6641 -0.9059 -2.0484
  550MOL0     H74200   1.073   6.569   3.372  3.2561  0.6028  2.5834
  550MOL0     H74201   0.817   6.582   3.238 -0.7560  0.7393  2.7351
  550MOL0     H74202   0.689   6.743   3.007 -6.1522  0.3234 -1.3484
  550MOL0     H74203   0.596   6.763   3.148  0.2041 -0.9055  0.3779
  550MOL0     H74204   0.733   7.014   3.063  0.1507 -0.7452  1.8935
  550MOL0     H74205   0.598   6.943   2.955  1.4429 -2.3258 -1.3432
  550MOL0     H74206   0.538   6.989   3.259 -0.5552  1.0067 -0.0211
  550MOL0     H74207   0.444   6.933   3.125  0.9200 -1.4378 -1.6775
  550MOL0     H74208   0.470   7.150   3.009 -1.2050 -0.9889  0.0470
  550MOL0     H74209   0.579   7.205   3.132  0.9551 -1.1639 -0.5065
  550MOL0     H74210   0.111   7.210   3.252 -2.3613  2.5420  1.1264
  550MOL0     H74211  -0.001   7.419   3.228  2.8696  4.6546  2.8328
  550MOL0     H74212   0.078   7.897   2.826  1.2012 -2.1187  1.6885
  550MOL0     H74213  -0.088   8.044   2.739  0.6796 -0.5223 -0.7163
  550MOL0     H74214  -0.419   8.172   2.673 -0.3347 -0.2229  3.3262
  550MOL0     H74215  -0.265   8.173   2.745 -0.5205  1.6693 -0.3352
  550MOL0     H74216  -0.176   8.071   2.525 -2.9223 -1.8011  0.0221
  550MOL0     H74217  -0.320   8.110   2.446  1.8100  0.1290 -1.6131
  550MOL0     H74218  -0.266   8.354   2.493 -1.8272 -1.5935  0.5115
  550MOL0     H74219  -0.131   8.301   2.588 -0.8437  1.8720  0.8128
  550MOL0     H74220  -0.163   8.247   2.294 -2.7741  1.8499  1.7963
  550MOL0     H74221  -0.029   8.185   2.397 -0.5623  0.5153  1.2102
  550MOL0     H74222   0.048   8.429   2.430  0.7449  1.0899 -0.0906
  550MOL0     H74223  -0.086   8.497   2.355  2.3955  2.3177 -0.5495
  550MOL0     H74224   0.110   8.327   2.209  0.6224  2.3469 -3.1761
  550MOL0     H74225  -0.038   8.355   2.139 -0.7163  0.2381 -0.1849
  550MOL0     H74226   0.126   8.575   2.293 -0.0369  3.2035 -1.0733
  550MOL0     H74227   0.004   8.601   2.155 -1.6012 -1.3980 -0.6751
  550MOL0     H74228   0.277   8.468   2.140  0.0527 -1.3934 -1.9316
  550MOL0     H74229   0.162   8.469   2.006  0.7367 -1.0528  0.5933
  550MOL0     H74230  -0.382   7.750   2.777 -0.2958 -0.2713  2.6625
  550MOL0     H74231  -0.215   7.592   2.877 -0.3061  1.0424  2.3296
  550MOL0     H74232   0.263   7.517   2.894  0.9557 -0.3425  1.5075
  550MOL0     H74233   0.413   7.361   2.971  0.5721 -0.5273  1.9587
  550MOL0     H74234   0.597   5.919   3.807 -1.6146 -0.9630 -0.8487
  550MOL0     H74235   0.519   5.716   3.934 -0.3995  1.7844  2.3997
  550MOL0     H74236   0.691   5.420   4.310  1.9851 -1.3417  0.4246
  550MOL0     H74237   0.599   5.253   4.476 -0.6606  1.0200 -0.0259
  550MOL0     H74238   0.353   4.872   4.475  1.9063 -0.3625  1.1797
  550MOL0     H74239   0.452   4.870   4.329 -0.9181 -1.2666 -0.1241
  550MOL0     H74240   0.273   5.001   4.212  4.7415 -1.3308  0.1124
  550MOL0     H74241   0.191   5.026   4.367  2.4426  1.7104  1.0232
  550MOL0     H74242   0.095   4.860   4.191  1.0970 -0.5262 -0.7227
  550MOL0     H74243   0.108   4.796   4.348  0.0823 -2.5647 -1.3604
  550MOL0     H74244   0.344   4.704   4.265  0.1896 -0.2499 -1.6924
  550MOL0     H74245   0.201   4.615   4.199 -2.7647  0.9593 -2.6291
  550MOL0     H74246   0.282   4.790   3.850 -0.8947 -2.9885  0.1620
  550MOL0     H74247   0.472   5.017   4.152 -2.6610  1.0421  0.2671
  550MOL0     H74248   0.388   5.122   3.967 -1.7615  0.8432  1.1060
  550MOL0     H74249   0.448   5.267   3.895  2.6714  0.3624  0.4133
  550MOL0     H74250   0.548   5.112   3.908 -1.2556 -0.5260 -2.6239
  551MOL0     O74251   4.060   7.974   6.952  0.4656 -0.4977  0.7417
  551MOL0     C74252   4.118   7.973   7.054 -1.0627  0.2907  0.8000
  551MOL0     O74253   4.219   7.882   7.076  0.5932 -0.5728 -0.4266
  551MOL0     C74254   4.270   7.800   6.979  0.1156  0.1787 -0.0606
  551MOL0     C74255   4.409   7.797   6.976 -0.9131 -1.2241  0.1648
  551MOL0     C74256   4.476   7.726   6.882 -0.6595 -1.1180 -0.6984
  551MOL0     C74257   4.403   7.664   6.782  0.2307  0.1475  1.2911
  551MOL0     O74258   4.469   7.571   6.707  0.5303  0.3586  0.7914
  551MOL0     C74259   4.594   7.608   6.646  0.7119  0.3595  0.1178
  551MOL0     C74260   4.654   7.510   6.553  0.6608 -0.3023  0.6840
  551MOL0     C74261   4.574   7.495   6.424  0.4396 -0.4151 -0.2760
  551MOL0     C74262   4.628   7.395   6.332 -0.9004  0.2043 -0.4502
  551MOL0     C74263   4.519   7.329   6.248  0.4160 -0.8990 -0.4658
  551MOL0     C74264   4.552   7.186   6.188 -0.5628  0.3581 -0.6328
  551MOL0     C74265   4.561   7.074   6.295  0.0218  0.4902 -1.3582
  551MOL0     C74266   4.579   6.932   6.239 -0.4895  0.2643  0.7082
  551MOL0     N74267   4.468   6.909   6.135 -1.6383  0.3231  0.4496
  551MOL0     C74268   4.341   6.895   6.172 -0.3658  0.4442  0.3558
  551MOL0     C74269   4.283   6.850   6.054 -0.4159 -0.7386 -0.2063
  551MOL0     C74270   4.136   6.828   6.031 -0.3381 -1.1245  0.2122
  551MOL0     C74271   4.097   6.696   6.095  0.6404 -0.7597  0.3314
  551MOL0     C74272   4.177   6.568   6.042  0.2947  0.4875  0.0551
  551MOL0     C74273   4.182   6.555   5.889 -0.1556  0.3647  0.7099
  551MOL0     O74274   4.050   6.540   5.835  0.0622 -0.0115  0.1552
  551MOL0     C74275   4.043   6.470   5.718 -0.4427 -0.5076  0.3607
  551MOL0     C74276   4.142   6.479   5.625  0.3617  0.7270  0.0176
  551MOL0     C74277   4.131   6.424   5.498 -0.4696  0.3257  1.1653
  551MOL0     C74278   4.016   6.360   5.456  0.2280 -0.3033  0.5677
  551MOL0     C74279   4.001   6.314   5.309 -0.3527 -0.1962 -0.7585
  551MOL0     O74280   4.121   6.288   5.253  0.1481 -0.1715 -0.1795
  551MOL0     C74281   4.126   6.242   5.128  0.2638 -0.5010  0.2021
  551MOL0     C74282   4.039   6.154   5.069 -1.0112 -0.0010 -0.8237
  551MOL0     C74283   4.045   6.122   4.931 -0.0755  0.5859 -0.5330
  551MOL0     C74284   4.144   6.181   4.855 -1.1703  1.0482  0.0586
  551MOL0     O74285   4.138   6.159   4.720  0.6524  0.7588  0.4791
  551MOL0     C74286   4.221   6.235   4.625  0.3281 -1.0374 -0.0252
  551MOL0     C74287   4.353   6.155   4.617 -0.2655  0.6417  0.8937
  551MOL0     C74288   4.461   6.226   4.525  0.9972  0.3535 -0.4154
  551MOL0     C74289   4.590   6.145   4.521  0.1157  0.1982  0.1851
  551MOL0     C74290   4.707   6.197   4.421  1.2295 -1.0619 -0.4312
  551MOL0     C74291   4.849   6.131   4.457 -0.6375 -0.1771  0.5528
  551MOL0     C74292   4.976   6.198   4.394  0.0997 -0.4567 -0.1877
  551MOL0     C74293   5.111   6.139   4.429  0.1204 -1.2166  1.5751
  551MOL0    Cl74294   5.129   6.137   4.597 -0.6192  0.3657 -0.3229
  551MOL0     C74295   4.237   6.268   4.912 -0.0892 -0.6044  0.8043
  551MOL0     C74296   4.234   6.291   5.052 -0.3557 -0.5472  0.2168
  551MOL0     O74297   3.891   6.330   5.254 -0.1103  0.8712  0.6802
  551MOL0     C74298   3.910   6.349   5.547  0.1981  0.3592 -0.4694
  551MOL0     C74299   3.925   6.411   5.677  0.0909  0.2808 -0.5067
  551MOL0     N74300   4.375   6.843   5.958 -0.0728 -0.1162 -0.4940
  551MOL0     N74301   4.484   6.893   6.002 -0.6106  0.4046  0.2411
  551MOL0     C74302   4.265   7.663   6.785  0.2592  0.8957  0.4314
  551MOL0     C74303   4.200   7.731   6.888  0.5501 -0.6000  0.1006
  551MOL0     C74304   4.067   8.057   7.162  0.0750  1.6294 -1.1354
  551MOL0     C74305   4.121   8.043   7.290  0.4970 -0.1427 -1.1780
  551MOL0     C74306   4.077   8.101   7.400 -0.8164 -0.2432 -0.5426
  551MOL0     C74307   3.961   8.186   7.394 -0.2618  0.2701  0.6101
  551MOL0     O74308   3.905   8.237   7.504  1.1184 -0.1270 -0.1368
  551MOL0     C74309   3.983   8.317   7.596  0.0503  0.2952  0.2520
  551MOL0     C74310   4.002   8.450   7.515 -0.3048  0.3838 -1.5060
  551MOL0     C74311   4.095   8.556   7.582 -0.3160  1.3672  0.3484
  551MOL0     C74312   4.109   8.689   7.509  0.5964  0.3385  0.6150
  551MOL0     C74313   4.172   8.795   7.589  0.5023 -0.4803  0.1875
  551MOL0     C74314   4.222   8.874   7.659 -0.0992 -0.7131  0.1991
  551MOL0     C74315   3.903   8.213   7.268  0.1082 -0.7047  0.0714
  551MOL0     C74316   3.951   8.144   7.152  1.0691 -0.4851 -0.0633
  551MOL0     C74317   3.896   8.208   7.025  0.8719  0.0151 -0.0066
  551MOL0     H74318   4.458   7.853   7.054 -2.2041  1.6702 -0.9762
  551MOL0     H74319   4.584   7.717   6.887 -0.6510 -0.9013 -0.4729
  551MOL0     H74320   4.578   7.701   6.590 -1.2307  1.4133  2.2886
  551MOL0     H74321   4.664   7.622   6.729 -0.2827  2.4003  0.6849
  551MOL0     H74322   4.661   7.419   6.614 -0.7188 -2.2010 -1.7957
  551MOL0     H74323   4.751   7.546   6.518  0.4241 -0.8155 -0.5509
  551MOL0     H74324   4.552   7.593   6.381 -0.7000 -0.7938 -0.5958
  551MOL0     H74325   4.480   7.461   6.467  1.5641 -1.4931  1.4612
  551MOL0     H74326   4.708   7.422   6.264 -1.1247 -1.8207 -1.5944
  551MOL0     H74327   4.669   7.311   6.390  0.8252 -0.1845 -2.1383
  551MOL0     H74328   4.420   7.330   6.295 -0.1917 -0.4926 -1.7190
  551MOL0     H74329   4.520   7.399   6.164 -3.4714  0.8292  0.6914
  551MOL0     H74330   4.487   7.162   6.103  3.5800 -1.4885 -3.6141
  551MOL0     H74331   4.649   7.203   6.142  1.0287 -2.1128  1.5612
  551MOL0     H74332   4.480   7.071   6.368  1.3086 -1.0937  0.1042
  551MOL0     H74333   4.644   7.102   6.360  0.9549 -0.6210 -2.0243
  551MOL0     H74334   4.678   6.914   6.196 -0.0337 -0.1026  1.8629
  551MOL0     H74335   4.569   6.856   6.318  0.3346  1.1715  1.7227
  551MOL0     H74336   4.291   6.920   6.266  1.8372 -0.1638  1.7686
  551MOL0     H74337   4.081   6.913   6.071 -1.1091 -1.3052 -0.4207
  551MOL0     H74338   4.115   6.815   5.924 -2.0052  2.4833 -0.0242
  551MOL0     H74339   4.098   6.703   6.204  3.8135  3.3482  0.3024
  551MOL0     H74340   3.992   6.687   6.065  0.3202  0.0135  1.2029
  551MOL0     H74341   4.124   6.480   6.079  0.0445  1.7943  3.1702
  551MOL0     H74342   4.276   6.566   6.088  0.5839 -1.1798 -0.6000
  551MOL0     H74343   4.231   6.460   5.870  0.0959  0.9313 -1.7669
  551MOL0     H74344   4.234   6.641   5.845  0.7386 -0.1059  0.8282
  551MOL0     H74345   4.239   6.525   5.641  0.0527  1.8887 -1.3496
  551MOL0     H74346   4.208   6.438   5.423 -0.4851 -1.9071  0.6582
  551MOL0     H74347   3.972   6.119   5.146  1.6299 -0.5321  1.3940
  551MOL0     H74348   3.970   6.056   4.889  0.1348  0.5835 -0.9073
  551MOL0     H74349   4.171   6.235   4.528  0.6144 -1.3688 -0.1773
  551MOL0     H74350   4.239   6.331   4.673  0.3708 -1.9756  1.9207
  551MOL0     H74351   4.396   6.130   4.714  0.9815 -0.4682  0.0749
  551MOL0     H74352   4.327   6.060   4.570  1.8914 -0.8951  2.6480
  551MOL0     H74353   4.431   6.240   4.421  2.3641  0.7943 -0.7754
  551MOL0     H74354   4.475   6.328   4.565  2.7607  0.0688 -0.2424
  551MOL0     H74355   4.565   6.043   4.493 -0.3698  0.4245 -0.2137
  551MOL0     H74356   4.635   6.129   4.619  2.9705  2.5970 -0.5893
  551MOL0     H74357   4.706   6.306   4.425 -0.6975 -1.0085  3.4295
  551MOL0     H74358   4.678   6.169   4.320 -3.0848  0.7582  0.0708
  551MOL0     H74359   4.855   6.132   4.566 -2.6579 -2.6806  0.7855
  551MOL0     H74360   4.851   6.027   4.422 -0.4232 -0.3464  1.0558
  551MOL0     H74361   4.979   6.305   4.419  0.6160 -0.4256 -0.3856
  551MOL0     H74362   4.972   6.195   4.285  1.5795  2.4140 -0.4283
  551MOL0     H74363   5.115   6.040   4.383  3.1828  0.6756 -2.9826
  551MOL0     H74364   5.187   6.201   4.381 -0.9665 -0.9791  0.0702
  551MOL0     H74365   4.310   6.321   4.851 -3.2571 -0.1696 -3.0206
  551MOL0     H74366   4.298   6.367   5.096  0.4234  0.3904 -2.3550
  551MOL0     H74367   3.816   6.308   5.510 -1.2982  4.2706 -1.4734
  551MOL0     H74368   3.853   6.405   5.758  0.1408  3.1387 -0.1398
  551MOL0     H74369   4.217   7.597   6.713 -2.2503  0.3052  2.4934
  551MOL0     H74370   4.093   7.723   6.898  0.5508 -0.1546  0.5160
  551MOL0     H74371   4.202   7.971   7.302  0.4089 -0.1049 -0.3080
  551MOL0     H74372   4.127   8.088   7.495 -0.0264  5.8290  0.2716
  551MOL0     H74373   4.088   8.288   7.601  0.0910  0.2544 -0.6353
  551MOL0     H74374   3.944   8.323   7.698 -0.6092 -0.3618  0.0527
  551MOL0     H74375   3.902   8.493   7.506 -0.4318 -0.0398 -2.1192
  551MOL0     H74376   4.034   8.426   7.413  1.6917 -2.2076 -0.3760
  551MOL0     H74377   4.198   8.522   7.600 -1.0344 -0.0297  2.0758
  551MOL0     H74378   4.049   8.576   7.679  0.5518  1.2294  0.7988
  551MOL0     H74379   4.160   8.675   7.413 -0.9370 -4.3373  0.2767
  551MOL0     H74380   4.009   8.724   7.482  0.7525  0.8832  0.7253
  551MOL0     H74381   4.271   8.955   7.709  2.0173  0.4377 -3.4068
  551MOL0     H74382   3.822   8.284   7.257  0.4309 -0.5450 -1.4071
  551MOL0     H74383   3.966   8.285   6.991 -0.5398  2.7446  2.7862
  551MOL0     H74384   3.879   8.130   6.951  0.6161  0.5910 -0.5650
  551MOL0     H74385   3.805   8.266   7.043  0.5100  0.2997 -2.5025
  552MOL0     O74386   1.689   9.241   0.206  0.1207 -0.2389 -0.5112
  552MOL0     C74387   1.686   9.192   0.319  0.4150 -1.4585  0.5577
  552MOL0     O74388   1.574   9.211   0.404  0.2040 -0.0867  0.8496
  552MOL0     C74389   1.461   9.294   0.371 -0.1921  0.5394  0.3997
  552MOL0     C74390   1.460   9.392   0.278 -0.0741  0.5924  0.0621
  552MOL0     C74391   1.351   9.481   0.265 -0.7246  0.2523 -0.4926
  552MOL0     C74392   1.239   9.474   0.349  0.9010  0.8833  0.2626
  552MOL0     O74393   1.142   9.569   0.344  0.1826  0.1674  0.3572
  552MOL0     C74394   1.005   9.529   0.363 -0.4520 -0.1898  0.7248
  552MOL0     C74395   0.955   9.432   0.259  0.1804  0.2006  0.4768
  552MOL0     C74396   0.930   9.501   0.122 -0.6898  0.2881 -0.7488
  552MOL0     C74397   1.049   9.572   0.060 -0.7148 -0.2405 -0.6165
  552MOL0     C74398   1.020   9.612  -0.094 -0.4641 -0.1579  0.7189
  552MOL0     C74399   0.912   9.724  -0.100  0.3553 -0.1736 -0.5506
  552MOL0     C74400   0.870   9.743  -0.252  0.9173 -0.9473  0.2820
  552MOL0     C74401   0.778   9.865  -0.274  0.4347 -0.5178 -0.0391
  552MOL0     N74402   0.678   9.884  -0.175  0.2717  0.5322 -0.9706
  552MOL0     C74403   0.601   9.792  -0.102 -0.3927 -0.0239 -0.2851
  552MOL0     C74404   0.504   9.862  -0.039  0.2245  0.0355 -0.0212
  552MOL0     C74405   0.410   9.794   0.058  0.2709  0.4940 -0.2567
  552MOL0     C74406   0.324   9.666   0.012  0.3082  0.5288 -0.0748
  552MOL0     C74407   0.242   9.694  -0.121 -0.9506  0.5031  0.2599
  552MOL0     C74408   0.312   9.640  -0.237 -0.1394 -0.3577 -0.9076
  552MOL0     O74409   0.336   9.510  -0.218 -0.0079  0.2968 -0.0570
  552MOL0     C74410   0.447   9.468  -0.286 -0.1051 -0.8980 -0.8538
  552MOL0     C74411   0.466   9.481  -0.426  0.0793 -0.0524 -0.4338
  552MOL0     C74412   0.590   9.443  -0.490 -0.2086 -0.4571  0.2273
  552MOL0     C74413   0.695   9.397  -0.411  0.4358 -0.1352 -0.1721
  552MOL0     C74414   0.819   9.353  -0.474  0.0121  0.2436 -1.0777
  552MOL0     O74415   0.929   9.370  -0.404 -0.6011 -0.0862  0.0681
  552MOL0     C74416   1.046   9.335  -0.468 -1.0965 -0.9135 -0.1454
  552MOL0     C74417   1.144   9.442  -0.461 -0.3600 -0.6037  0.6995
  552MOL0     C74418   1.269   9.426  -0.520 -0.2790 -0.1910  0.1521
  552MOL0     C74419   1.306   9.310  -0.594 -0.3950 -0.7814 -0.3790
  552MOL0     O74420   1.433   9.308  -0.649 -0.0717  0.5782  0.7066
  552MOL0     C74421   1.476   9.200  -0.727  0.1223  0.1269 -0.0850
  552MOL0     C74422   1.575   9.278  -0.822  0.6833 -0.3897 -1.2131
  552MOL0     C74423   1.703   9.299  -0.735 -0.4932 -0.1977 -0.1293
  552MOL0     C74424   1.787   9.421  -0.780 -0.3381  0.3517  0.2541
  552MOL0     C74425   1.925   9.422  -0.723  0.0310 -0.2856 -0.3293
  552MOL0     C74426   2.030   9.358  -0.815  1.0184 -0.3070  0.3616
  552MOL0     C74427   2.173   9.384  -0.767 -0.6525  0.3960  0.3637
  552MOL0     C74428   2.267   9.305  -0.845 -0.0948  0.8834  0.7184
  552MOL0    Cl74429   2.245   9.129  -0.807 -0.3894  0.0388 -0.1921
  552MOL0     C74430   1.212   9.208  -0.605  0.9797  0.2686  0.3502
  552MOL0     C74431   1.080   9.222  -0.547  0.1599  0.7772 -1.0583
  552MOL0     O74432   0.811   9.321  -0.591 -0.8933 -0.5189 -0.0153
  552MOL0     C74433   0.679   9.394  -0.274 -0.3436  0.6191 -0.0615
  552MOL0     C74434   0.559   9.433  -0.209  0.6996  1.3550  0.4093
  552MOL0     N74435   0.512   9.990  -0.086  0.2084 -0.3891 -0.4597
  552MOL0     N74436   0.613  10.001  -0.164 -0.0834  0.4671 -0.1864
  552MOL0     C74437   1.239   9.366   0.431 -0.6521  0.0758 -0.8240
  552MOL0     C74438   1.343   9.280   0.442  0.5304 -1.6314 -1.0322
  552MOL0     C74439   1.799   9.104   0.360  0.3497 -0.1471 -0.7333
  552MOL0     C74440   1.765   8.984   0.428 -1.0545  0.2378  0.8495
  552MOL0     C74441   1.859   8.893   0.462 -0.3501  0.5901  0.2015
  552MOL0     C74442   1.996   8.919   0.432 -0.1293  0.4995 -0.3946
  552MOL0     O74443   2.104   8.833   0.445 -0.3046 -0.0828 -0.3780
  552MOL0     C74444   2.098   8.704   0.516  0.8743  0.4061  0.6384
  552MOL0     C74445   2.096   8.728   0.664 -0.2170  0.7274  0.0807
  552MOL0     C74446   2.078   8.593   0.729  0.1281 -0.2472  0.6655
  552MOL0     C74447   2.081   8.636   0.882  1.3166  0.0077  0.6836
  552MOL0     C74448   2.100   8.516   0.955 -0.6287 -0.0049  0.3410
  552MOL0     C74449   2.121   8.405   1.003  0.0472 -1.7374 -1.0816
  552MOL0     C74450   2.027   9.048   0.378 -0.8789 -0.7650 -0.1873
  552MOL0     C74451   1.932   9.138   0.343  0.4402  0.0714  0.0800
  552MOL0     C74452   1.984   9.261   0.279 -0.7339 -0.1944 -0.9503
  552MOL0     H74453   1.544   9.435   0.225  0.4749 -0.7338 -0.1867
  552MOL0     H74454   1.351   9.563   0.193  0.6912  0.3848 -0.3652
  552MOL0     H74455   0.987   9.484   0.461 -0.2261 -0.0318  0.8395
  552MOL0     H74456   0.960   9.629   0.353  0.7263  0.2945  0.0342
  552MOL0     H74457   0.857   9.390   0.285 -0.9683  2.7025  0.4122
  552MOL0     H74458   1.013   9.340   0.245 -3.2966 -1.9428 -1.6504
  552MOL0     H74459   0.852   9.577   0.137 -0.8644  0.2213 -1.3210
  552MOL0     H74460   0.888   9.424   0.057  1.1572  1.5104 -3.5688
  552MOL0     H74461   1.074   9.664   0.114  2.3967 -0.9526 -0.6531
  552MOL0     H74462   1.135   9.505   0.053 -1.0477 -0.7509  0.0470
  552MOL0     H74463   1.109   9.646  -0.147 -1.2170 -1.4724 -1.4968
  552MOL0     H74464   0.983   9.533  -0.159  0.7141  1.5003 -2.1218
  552MOL0     H74465   0.832   9.705  -0.028  0.6260  1.1012  0.1170
  552MOL0     H74466   0.961   9.815  -0.063 -3.3378  1.6438  0.2790
  552MOL0     H74467   0.804   9.660  -0.277 -1.8730  0.1467  3.2038
  552MOL0     H74468   0.952   9.746  -0.323  0.6753  0.5709  0.0151
  552MOL0     H74469   0.845   9.952  -0.279  2.1013 -1.8041 -1.7250
  552MOL0     H74470   0.727   9.859  -0.370  0.5953  0.9330 -0.2392
  552MOL0     H74471   0.601   9.685  -0.088  1.5377 -0.2943 -1.8962
  552MOL0     H74472   0.479   9.759   0.135  0.0645  1.4056  0.3592
  552MOL0     H74473   0.344   9.874   0.092  1.2572  2.6158 -2.9735
  552MOL0     H74474   0.396   9.584   0.020  0.6455  0.9930  3.3539
  552MOL0     H74475   0.258   9.649   0.097  0.9711 -0.5073  0.2553
  552MOL0     H74476   0.233   9.802  -0.139 -0.0771  0.0750 -3.5733
  552MOL0     H74477   0.145   9.645  -0.113 -1.5867  1.6729 -0.0267
  552MOL0     H74478   0.405   9.695  -0.255 -0.3018  0.4042  0.4805
  552MOL0     H74479   0.251   9.663  -0.325  0.8721  0.4001 -1.4304
  552MOL0     H74480   0.385   9.518  -0.489  0.0248 -0.6479 -0.7179
  552MOL0     H74481   0.596   9.448  -0.599  1.4484 -2.2138  0.1839
  552MOL0     H74482   1.121   9.532  -0.405  0.3404  1.0185 -1.5012
  552MOL0     H74483   1.341   9.504  -0.498  0.4764 -0.9219  0.3355
  552MOL0     H74484   1.523   9.117  -0.674  0.6831 -1.8631 -3.4004
  552MOL0     H74485   1.390   9.164  -0.785 -1.7456  1.3687  1.7682
  552MOL0     H74486   1.595   9.228  -0.917  1.8941 -0.0554 -1.1489
  552MOL0     H74487   1.521   9.372  -0.840  0.1593 -1.0246 -3.1740
  552MOL0     H74488   1.679   9.313  -0.629 -0.1632 -0.8353  0.0402
  552MOL0     H74489   1.759   9.207  -0.715 -0.9344 -0.8991 -1.9277
  552MOL0     H74490   1.733   9.513  -0.757  0.3951  0.9258 -0.2867
  552MOL0     H74491   1.795   9.419  -0.889  0.6622  0.3754  0.3130
  552MOL0     H74492   1.929   9.367  -0.629 -1.6346 -2.0689 -1.2358
  552MOL0     H74493   1.954   9.525  -0.698  0.0435 -1.0822  3.5057
  552MOL0     H74494   2.002   9.254  -0.835  1.3738 -0.7446  1.9847
  552MOL0     H74495   2.027   9.409  -0.911 -3.5977  0.8558  0.8716
  552MOL0     H74496   2.174   9.348  -0.664  0.2869 -2.4996 -0.5506
  552MOL0     H74497   2.186   9.492  -0.758 -0.6645  0.4565 -0.3077
  552MOL0     H74498   2.261   9.324  -0.952 -1.2857 -0.7059  0.4568
  552MOL0     H74499   2.369   9.333  -0.817  0.0252  0.8391  0.3196
  552MOL0     H74500   1.236   9.113  -0.651 -1.3310  0.9548 -2.5233
  552MOL0     H74501   1.002   9.148  -0.562 -0.3022  1.3340 -1.4471
  552MOL0     H74502   0.764   9.367  -0.212 -0.8635 -2.8567 -0.6640
  552MOL0     H74503   0.551   9.437  -0.101  1.4019  1.1901  0.4702
  552MOL0     H74504   1.160   9.349   0.504  0.5214 -1.3852  0.1831
  552MOL0     H74505   1.336   9.197   0.512 -2.0814 -1.1241 -0.6058
  552MOL0     H74506   1.659   8.961   0.432 -1.4717  0.6921 -3.3920
  552MOL0     H74507   1.829   8.800   0.508  0.6356 -0.6571 -1.5756
  552MOL0     H74508   2.179   8.635   0.494 -0.4843 -1.7721  2.0725
  552MOL0     H74509   2.007   8.648   0.491  0.5055  1.0511  0.4846
  552MOL0     H74510   2.010   8.788   0.693 -0.9564 -0.0214 -0.5325
  552MOL0     H74511   2.193   8.773   0.690  1.0877 -0.9005 -1.6937
  552MOL0     H74512   2.154   8.520   0.702 -0.0894  0.8031 -3.3961
  552MOL0     H74513   1.977   8.558   0.704 -1.3154  2.8998  1.5972
  552MOL0     H74514   2.158   8.712   0.897 -0.3099  1.6830  0.7844
  552MOL0     H74515   1.988   8.684   0.910  1.7753 -0.0481  2.4367
  552MOL0     H74516   2.132   8.326   1.075 -2.1196 -0.6564  0.5253
  552MOL0     H74517   2.131   9.077   0.379 -1.0288 -0.0915 -1.9429
  552MOL0     H74518   2.061   9.313   0.338 -0.0721  0.9471 -2.7539
  552MOL0     H74519   2.043   9.238   0.190  4.0795  3.5302  0.8177
  552MOL0     H74520   1.906   9.334   0.259  1.0886  2.3968  0.7377
  553MOL0     O74521   5.986   5.299   9.007 -0.2249  0.0470  0.2469
  553MOL0     C74522   6.015   5.264   9.121 -0.1792 -0.4858 -0.4647
  553MOL0     O74523   6.144   5.288   9.184  0.1797  0.5718  0.0514
  553MOL0     C74524   6.255   5.337   9.122 -0.0898  1.1370  0.5051
  553MOL0     C74525   6.251   5.453   9.041 -0.4705 -0.4274  0.6462
  553MOL0     C74526   6.360   5.514   8.976 -0.0590 -0.0857  0.4883
  553MOL0     C74527   6.488   5.450   9.000  0.1299 -0.1375 -0.3868
  553MOL0     O74528   6.610   5.489   8.947 -0.0283 -0.4200 -0.2245
  553MOL0     C74529   6.606   5.532   8.807  0.2570  0.3310 -1.0046
  553MOL0     C74530   6.673   5.416   8.732 -0.0356  0.5549  0.1920
  553MOL0     C74531   6.832   5.432   8.764  0.2051  0.4110 -0.5984
  553MOL0     C74532   6.916   5.372   8.656 -0.5302  0.0853  0.2264
  553MOL0     C74533   7.052   5.452   8.648 -0.4848 -0.4828  0.5890
  553MOL0     C74534   7.158   5.389   8.546 -0.1114 -0.1843 -0.1135
  553MOL0     C74535   7.287   5.476   8.534  0.2457  0.6863 -0.6076
  553MOL0     C74536   7.368   5.447   8.408 -0.2942  0.2549  0.2882
  553MOL0     N74537   7.495   5.519   8.396  0.2466  0.7855  0.0162
  553MOL0     C74538   7.528   5.602   8.290 -0.2877 -0.6684  0.7991
  553MOL0     C74539   7.647   5.658   8.323  0.4320 -0.6702 -0.5911
  553MOL0     C74540   7.706   5.779   8.247  0.9743 -0.1714 -0.7806
  553MOL0     C74541   7.864   5.767   8.226  1.1307 -0.1043  0.1775
  553MOL0     C74542   7.903   5.794   8.077  1.1195  0.7284  0.0329
  553MOL0     C74543   8.046   5.780   8.037 -0.4991  0.0901  0.0344
  553MOL0     O74544   8.130   5.848   8.133  0.7331  0.0733  0.9746
  553MOL0     C74545   8.255   5.818   8.142 -0.3217  0.3615 -0.5662
  553MOL0     C74546   8.314   5.831   8.259 -1.7080  0.2840  0.1343
  553MOL0     C74547   8.443   5.783   8.286  0.0134  1.0008  0.4620
  553MOL0     C74548   8.510   5.706   8.179  1.5707 -0.1299  0.6742
  553MOL0     C74549   8.643   5.654   8.189  0.1648 -0.3147 -0.1024
  553MOL0     O74550   8.684   5.635   8.305  0.3670 -1.4474 -0.5191
  553MOL0     C74551   8.816   5.607   8.343 -0.4238  1.2024  0.0614
  553MOL0     C74552   8.928   5.587   8.262  0.3863  0.8299 -0.3932
  553MOL0     C74553   9.051   5.547   8.310 -0.4151  0.7873  0.1723
  553MOL0     C74554   9.064   5.526   8.448  0.3729  0.2175 -0.4576
  553MOL0     O74555   9.185   5.511   8.505  0.0770 -0.3610 -0.5690
  553MOL0     C74556   9.281   5.435   8.427  0.1352  0.1604  0.9313
  553MOL0     C74557   9.374   5.371   8.516  1.4887  0.4883  0.4319
  553MOL0     C74558   9.312   5.280   8.616  1.3406  0.0608 -0.6879
  553MOL0     C74559   9.427   5.205   8.678 -0.5669 -0.0657  0.8904
  553MOL0     C74560   9.385   5.092   8.765 -0.8098  0.0232 -0.3358
  553MOL0     C74561   9.486   4.984   8.754  0.3427  0.1806 -0.1139
  553MOL0     C74562   9.454   4.874   8.859 -0.1397  0.0836 -0.3052
  553MOL0     C74563   9.555   4.761   8.858  0.6794  0.6107  0.2033
  553MOL0    Cl74564   9.515   4.621   8.955  0.2718  1.2086  0.6643
  553MOL0     C74565   8.956   5.550   8.529  0.8566  0.4545 -0.6951
  553MOL0     C74566   8.831   5.576   8.479  0.4394  0.2152  0.2283
  553MOL0     O74567   8.712   5.643   8.090 -0.6433 -0.5877 -0.3156
  553MOL0     C74568   8.444   5.706   8.050  0.4938 -0.3464  0.2159
  553MOL0     C74569   8.317   5.761   8.032 -0.3195  0.2005 -0.1488
  553MOL0     N74570   7.674   5.617   8.447  0.0376  1.0105 -0.0591
  553MOL0     N74571   7.595   5.523   8.484  0.3105 -1.3085 -0.3176
  553MOL0     C74572   6.494   5.336   9.079  0.6670 -0.2245 -0.8543
  553MOL0     C74573   6.377   5.275   9.138  0.4491 -0.7275 -0.6397
  553MOL0     C74574   5.899   5.232   9.205 -0.6538 -0.2492 -0.0265
  553MOL0     C74575   5.769   5.198   9.140  1.5198  0.2777  1.1066
  553MOL0     C74576   5.651   5.162   9.211 -0.1691  0.7124  0.1758
  553MOL0     C74577   5.654   5.127   9.347 -1.0510  0.6546  0.0754
  553MOL0     O74578   5.554   5.067   9.421 -0.7984 -0.3097 -0.2584
  553MOL0     C74579   5.446   5.025   9.356  0.7733 -0.1210  0.5037
  553MOL0     C74580   5.378   4.924   9.433 -0.6497  0.8032 -1.2580
  553MOL0     C74581   5.264   4.854   9.360  0.0418 -0.1326  0.2569
  553MOL0     C74582   5.125   4.931   9.362 -0.1539 -0.5261  0.7335
  553MOL0     C74583   5.115   5.051   9.275 -0.6191  0.5788 -0.0809
  553MOL0     C74584   5.148   5.149   9.213 -0.4589 -0.9173 -0.2210
  553MOL0     C74585   5.782   5.146   9.412 -0.3326  0.1787  0.4072
  553MOL0     C74586   5.892   5.205   9.345 -0.5880  0.0246  0.1860
  553MOL0     C74587   6.019   5.220   9.428  0.5316  0.7781  0.5638
  553MOL0     H74588   6.158   5.507   9.052 -1.2460 -2.2085  4.5495
  553MOL0     H74589   6.352   5.603   8.914  2.9313 -1.6646 -2.5051
  553MOL0     H74590   6.507   5.550   8.763 -0.4899 -3.3278 -1.1017
  553MOL0     H74591   6.644   5.634   8.793 -2.2679  1.3579 -0.8971
  553MOL0     H74592   6.655   5.412   8.624  2.3453 -2.1349 -0.2236
  553MOL0     H74593   6.643   5.313   8.754  1.1978 -0.0796 -0.9577
  553MOL0     H74594   6.832   5.376   8.858 -2.6846 -0.0150 -0.7594
  553MOL0     H74595   6.856   5.538   8.775 -0.8273  0.8576 -2.2804
  553MOL0     H74596   6.918   5.265   8.680  2.2001 -0.4259 -1.8807
  553MOL0     H74597   6.861   5.393   8.564 -0.5147  0.5323  0.3163
  553MOL0     H74598   7.032   5.559   8.635 -2.3555 -0.9348 -0.6398
  553MOL0     H74599   7.092   5.441   8.749 -0.6890  0.8277  0.8317
  553MOL0     H74600   7.184   5.287   8.576  0.3037 -0.3157 -0.8950
  553MOL0     H74601   7.122   5.375   8.444 -1.6039 -0.6735  0.4609
  553MOL0     H74602   7.346   5.464   8.626 -2.1432 -0.8984  0.8482
  553MOL0     H74603   7.246   5.577   8.526 -2.3215 -0.2841 -0.9208
  553MOL0     H74604   7.383   5.338   8.405 -0.0883  0.2870 -2.1850
  553MOL0     H74605   7.309   5.476   8.321 -0.5279  0.6334  0.5706
  553MOL0     H74606   7.460   5.629   8.210 -1.0627  0.4953  1.7991
  553MOL0     H74607   7.655   5.786   8.150 -0.8727 -2.3327 -0.0300
  553MOL0     H74608   7.674   5.863   8.308 -0.5823 -1.3205  0.0557
  553MOL0     H74609   7.916   5.847   8.280 -1.4067  1.3117  0.6675
  553MOL0     H74610   7.888   5.662   8.248  3.0288  0.5864  1.7729
  553MOL0     H74611   7.858   5.889   8.048 -0.5998  0.3049  1.1914
  553MOL0     H74612   7.845   5.721   8.020  1.6933 -1.0195  1.5968
  553MOL0     H74613   8.069   5.818   7.937 -2.3734  0.6930 -0.2162
  553MOL0     H74614   8.067   5.674   8.023  0.0602  0.4104 -1.9927
  553MOL0     H74615   8.256   5.872   8.342 -2.1675 -3.0883  1.6357
  553MOL0     H74616   8.493   5.789   8.382 -1.8678 -0.7382  1.6260
  553MOL0     H74617   8.925   5.615   8.158 -1.2426 -0.5570 -0.7454
  553MOL0     H74618   9.139   5.541   8.247  0.5532  0.2446  1.5281
  553MOL0     H74619   9.228   5.354   8.376  0.5373  1.1716 -1.1786
  553MOL0     H74620   9.343   5.491   8.358  0.9117  0.8884  2.1786
  553MOL0     H74621   9.451   5.321   8.456  0.3912 -1.7856  0.8002
  553MOL0     H74622   9.429   5.451   8.567 -0.3087  0.3998  2.6619
  553MOL0     H74623   9.249   5.323   8.694  1.2135  3.4285 -2.4686
  553MOL0     H74624   9.249   5.209   8.563  1.2926  1.1009 -2.0737
  553MOL0     H74625   9.501   5.262   8.735  0.0153 -1.0009  1.0914
  553MOL0     H74626   9.472   5.162   8.587 -0.0190  3.1337 -0.4780
  553MOL0     H74627   9.287   5.060   8.729 -1.0128  4.3453 -4.6266
  553MOL0     H74628   9.377   5.120   8.871  2.3126 -2.3329  0.7065
  553MOL0     H74629   9.481   4.940   8.654 -2.1016  0.7771 -0.3155
  553MOL0     H74630   9.587   5.023   8.764  0.8539 -0.5552 -1.9702
  553MOL0     H74631   9.353   4.835   8.845  0.5965 -1.8293 -0.5692
  553MOL0     H74632   9.463   4.922   8.957  0.9292  2.9870 -1.7022
  553MOL0     H74633   9.564   4.717   8.758  2.2926  0.6189  0.3231
  553MOL0     H74634   9.659   4.791   8.872  1.2043 -1.8025  2.2361
  553MOL0     H74635   8.956   5.550   8.638 -0.8524  1.4939 -0.6649
  553MOL0     H74636   8.744   5.584   8.543  2.2944 -1.4319  3.2130
  553MOL0     H74637   8.494   5.672   7.960 -0.9221  2.2640 -1.6760
  553MOL0     H74638   8.274   5.746   7.934 -0.0687  3.7584 -0.9348
  553MOL0     H74639   6.588   5.283   9.088  1.5435  1.1598 -1.5542
  553MOL0     H74640   6.379   5.183   9.196 -4.3548 -0.6217  0.1349
  553MOL0     H74641   5.757   5.218   9.034 -0.0355  0.6250  1.3228
  553MOL0     H74642   5.573   5.146   9.137  3.2867  0.1837 -3.6709
  553MOL0     H74643   5.479   4.990   9.258  0.1930  0.9515 -0.0938
  553MOL0     H74644   5.403   5.121   9.327  4.7646  0.0301 -7.8787
  553MOL0     H74645   5.341   4.965   9.527 -0.3350 -1.1927 -0.1951
  553MOL0     H74646   5.447   4.844   9.461 -1.8170 -0.1057 -0.9017
  553MOL0     H74647   5.255   4.758   9.412 -2.1670  0.8009  1.6978
  553MOL0     H74648   5.292   4.817   9.260  0.2280 -0.2289  0.3425
  553MOL0     H74649   5.048   4.864   9.323 -0.6457  1.7573 -2.7081
  553MOL0     H74650   5.099   4.955   9.466  0.4847  3.6378  0.1206
  553MOL0     H74651   5.171   5.244   9.169 -3.3421 -1.1166 -2.4263
  553MOL0     H74652   5.788   5.128   9.519 -0.1548 -1.2943  0.1733
  553MOL0     H74653   6.007   5.207   9.536  2.5316  0.0381  0.7293
  553MOL0     H74654   6.087   5.140   9.399 -1.6442 -1.0343  0.1994
  553MOL0     H74655   6.057   5.323   9.426 -4.2787  2.8614  0.8387
  554MOL0     O74656   5.729  10.627   6.875  0.1063  0.3992  0.0375
  554MOL0     C74657   5.846  10.631   6.898 -0.1698 -0.8851 -0.4192
  554MOL0     O74658   5.933  10.528   6.864  0.1002  0.4215  0.1829
  554MOL0     C74659   5.896  10.405   6.807 -0.4831 -1.3053  0.7049
  554MOL0     C74660   5.932  10.372   6.665  0.7841 -0.4052 -0.8522
  554MOL0     C74661   5.899  10.246   6.607 -0.5248  0.0654  0.5956
  554MOL0     C74662   5.833  10.148   6.678 -0.6557  0.2869 -0.1033
  554MOL0     O74663   5.817  10.020   6.648  0.5047 -0.5501  0.0648
  554MOL0     C74664   5.836   9.983   6.509 -0.5203 -0.1372 -0.6807
  554MOL0     C74665   5.807   9.834   6.479  1.0330 -0.5231  0.6486
  554MOL0     C74666   5.888   9.738   6.569 -0.7223  0.2568  0.0032
  554MOL0     C74667   5.911   9.591   6.511  0.3070  0.7245 -0.1270
  554MOL0     C74668   5.994   9.503   6.599 -0.1880 -0.0309 -0.4920
  554MOL0     C74669   6.015   9.359   6.543  0.0099 -0.2956 -0.1451
  554MOL0     C74670   6.100   9.258   6.633  0.0820  0.0425  0.0425
  554MOL0     C74671   6.048   9.236   6.778  0.4819  0.7542  0.1529
  554MOL0     N74672   6.096   9.111   6.849 -0.1723  0.3012  0.5110
  554MOL0     C74673   6.173   9.110   6.965 -0.0711 -0.0720  0.9359
  554MOL0     C74674   6.180   8.978   6.994 -1.2806 -1.1905 -0.2433
  554MOL0     C74675   6.232   8.912   7.117  0.0682 -0.2390 -0.0997
  554MOL0     C74676   6.106   8.870   7.200 -0.4686  0.6979  0.0137
  554MOL0     C74677   6.155   8.798   7.337 -0.4619 -0.6904  0.1863
  554MOL0     C74678   6.045   8.763   7.436 -0.2141  0.0548  0.2390
  554MOL0     O74679   5.992   8.875   7.497  0.2858 -0.1164 -0.4633
  554MOL0     C74680   5.891   8.855   7.592 -1.0296  0.5392 -0.2087
  554MOL0     C74681   5.873   8.964   7.673 -0.2907 -0.5334 -0.4516
  554MOL0     C74682   5.788   8.948   7.785  0.3563  0.1662 -0.0441
  554MOL0     C74683   5.730   8.827   7.822  0.0119  0.4374  0.4425
  554MOL0     C74684   5.652   8.825   7.940 -0.1226 -0.0867  0.4366
  554MOL0     O74685   5.628   8.703   8.007  0.5398 -0.4271  0.3787
  554MOL0     C74686   5.563   8.700   8.123  0.2552 -0.7499  0.0380
  554MOL0     C74687   5.435   8.753   8.153 -0.2570  0.4698  0.4340
  554MOL0     C74688   5.383   8.738   8.282 -0.5665  0.0589 -0.5079
  554MOL0     C74689   5.435   8.646   8.370  0.1969 -0.1970 -0.6345
  554MOL0     O74690   5.377   8.643   8.496  0.5011  0.2142 -0.2992
  554MOL0     C74691   5.464   8.629   8.606  0.4229 -0.1295 -1.6717
  554MOL0     C74692   5.403   8.704   8.732  0.6377 -0.9341  0.5524
  554MOL0     C74693   5.486   8.676   8.853 -0.9874  0.1101 -0.2145
  554MOL0     C74694   5.613   8.765   8.853  0.4528  0.8560 -1.1929
  554MOL0     C74695   5.715   8.712   8.961  0.4349  0.4408  0.0733
  554MOL0     C74696   5.697   8.754   9.099 -0.1281  0.9476 -0.2977
  554MOL0     C74697   5.731   8.892   9.117 -0.2979 -0.6121 -0.7126
  554MOL0     C74698   5.737   8.937   9.265 -1.1177  0.6547  0.7055
  554MOL0    Cl74699   5.575   8.933   9.324 -0.0063 -0.0690 -0.3986
  554MOL0     C74700   5.555   8.588   8.331 -0.3277  0.1589 -0.0534
  554MOL0     C74701   5.616   8.606   8.210  0.3055  0.0996  0.2722
  554MOL0     O74702   5.601   8.933   7.978 -0.5723  0.1352  0.8541
  554MOL0     C74703   5.753   8.721   7.732  0.1620 -0.4178  1.1279
  554MOL0     C74704   5.822   8.732   7.615 -0.8136 -0.2308 -0.5961
  554MOL0     N74705   6.116   8.909   6.897 -0.1193  0.0625  0.7100
  554MOL0     N74706   6.067   8.985   6.800  0.4323 -0.4110  0.2494
  554MOL0     C74707   5.794  10.190   6.814 -0.4259  0.4337 -0.7872
  554MOL0     C74708   5.827  10.310   6.875 -0.3037 -0.2968  0.4000
  554MOL0     C74709   5.898  10.744   6.966 -0.4185  0.9168 -0.7236
  554MOL0     C74710   6.030  10.735   7.011 -0.4653  0.0114 -0.2438
  554MOL0     C74711   6.085  10.848   7.078  0.0743 -0.3549  0.2624
  554MOL0     C74712   6.022  10.965   7.107  1.2267 -0.5651  0.1508
  554MOL0     O74713   6.074  11.057   7.198  0.3203  0.2791 -0.5153
  554MOL0     C74714   6.148  11.164   7.140  0.7737  0.5784 -0.9396
  554MOL0     C74715   6.073  11.255   7.043 -0.2705 -0.6092  0.2224
  554MOL0     C74716   6.167  11.367   7.008 -0.5131 -0.5620  0.4866
  554MOL0     C74717   6.179  11.400   6.861  0.1134  0.5095 -0.6248
  554MOL0     C74718   6.269  11.514   6.859  0.6208  0.7876  0.4740
  554MOL0     C74719   6.345  11.608   6.843 -0.5602  0.2706 -0.3805
  554MOL0     C74720   5.888  10.974   7.060 -0.6269 -0.3496 -0.3669
  554MOL0     C74721   5.822  10.863   7.000 -0.3060  0.3139  0.2542
  554MOL0     C74722   5.680  10.884   6.959  0.8346  0.4417 -0.8033
  554MOL0     H74723   5.988  10.449   6.613  2.2582 -1.3767 -0.7612
  554MOL0     H74724   5.945  10.234   6.509  2.3148  1.1376  1.6911
  554MOL0     H74725   5.772  10.043   6.444  2.3556  2.2616 -1.4709
  554MOL0     H74726   5.933  10.017   6.473  0.8394 -0.7854  2.0834
  554MOL0     H74727   5.850   9.825   6.379  1.4827 -1.3878  0.9123
  554MOL0     H74728   5.703   9.801   6.491  1.6638 -2.3820  1.3145
  554MOL0     H74729   5.849   9.736   6.671  0.2806  2.0888  0.4904
  554MOL0     H74730   5.988   9.783   6.579 -0.8975  0.4762  0.9031
  554MOL0     H74731   5.816   9.549   6.478  0.9854  0.1454 -1.3995
  554MOL0     H74732   5.948   9.604   6.409 -0.1632  0.4418 -0.3389
  554MOL0     H74733   6.089   9.545   6.632 -0.6163  0.8369 -0.3247
  554MOL0     H74734   5.927   9.490   6.685  2.2404 -2.7371  1.1880
  554MOL0     H74735   5.924   9.308   6.510 -1.1307  1.8604 -0.5306
  554MOL0     H74736   6.065   9.368   6.446 -1.1839 -4.8688 -1.4040
  554MOL0     H74737   6.201   9.298   6.647 -0.6376  1.1760  2.8516
  554MOL0     H74738   6.109   9.167   6.574 -3.0312 -1.0404  1.0709
  554MOL0     H74739   6.050   9.322   6.845  2.0485  1.3864 -0.6528
  554MOL0     H74740   5.943   9.210   6.762 -0.0467  2.5368  0.4797
  554MOL0     H74741   6.223   9.186   7.024 -1.6290 -1.7474  4.6906
  554MOL0     H74742   6.295   8.827   7.087 -3.2279 -2.9567  0.0652
  554MOL0     H74743   6.291   8.982   7.177 -1.0782  0.2440  0.4861
  554MOL0     H74744   6.031   8.945   7.225 -1.7528 -1.5314  3.5415
  554MOL0     H74745   6.054   8.793   7.142 -0.9741  0.3897  0.8617
  554MOL0     H74746   6.217   8.872   7.388  2.8191 -1.3934 -2.4318
  554MOL0     H74747   6.204   8.705   7.306  1.1681  0.4108 -0.6305
  554MOL0     H74748   6.092   8.707   7.517 -2.6024  0.4725  2.0362
  554MOL0     H74749   5.969   8.698   7.392 -1.6143  3.3153 -2.6986
  554MOL0     H74750   5.937   9.045   7.639  0.8399  0.1229  2.8671
  554MOL0     H74751   5.784   9.042   7.841  0.7824  2.0866 -3.0208
  554MOL0     H74752   5.370   8.799   8.078 -0.0181  0.8100  0.4331
  554MOL0     H74753   5.290   8.785   8.313 -0.3016 -0.6584  1.4829
  554MOL0     H74754   5.465   8.526   8.643 -0.7989 -0.7841 -3.3116
  554MOL0     H74755   5.566   8.663   8.586  1.5419 -2.2872 -0.0462
  554MOL0     H74756   5.392   8.811   8.711 -3.5645 -1.1549  0.7347
  554MOL0     H74757   5.302   8.663   8.735 -1.0424  2.2998 -3.2372
  554MOL0     H74758   5.427   8.688   8.945  1.9261  0.6079  1.7409
  554MOL0     H74759   5.519   8.572   8.847 -0.7801  0.2195 -1.0332
  554MOL0     H74760   5.584   8.869   8.872  3.3821  1.8578 -1.6143
  554MOL0     H74761   5.661   8.755   8.755  2.2629 -4.4355 -0.0528
  554MOL0     H74762   5.817   8.741   8.935  0.2539  0.1218 -1.0384
  554MOL0     H74763   5.718   8.603   8.961 -0.5724  0.3955  1.1993
  554MOL0     H74764   5.589   8.752   9.120 -0.4880  0.0193 -2.0516
  554MOL0     H74765   5.741   8.688   9.174 -0.3920  1.1926  0.0840
  554MOL0     H74766   5.659   8.957   9.066 -1.2404  1.4117  2.8070
  554MOL0     H74767   5.831   8.901   9.075 -0.1593 -3.8457 -1.3617
  554MOL0     H74768   5.801   8.871   9.324 -1.5367 -1.2740 -0.8899
  554MOL0     H74769   5.780   9.038   9.269 -0.1521  0.3671 -1.1401
  554MOL0     H74770   5.602   8.520   8.400  0.3683 -1.5918 -2.1280
  554MOL0     H74771   5.718   8.580   8.184  1.1709  1.2345  2.3319
  554MOL0     H74772   5.730   8.619   7.761  1.4641 -1.0512  0.0236
  554MOL0     H74773   5.829   8.640   7.558  4.3237 -1.0352  0.8689
  554MOL0     H74774   5.739  10.117   6.873  2.6652 -1.7863 -0.3677
  554MOL0     H74775   5.814  10.315   6.982  2.1694  0.0838  0.7308
  554MOL0     H74776   6.091  10.647   6.994 -0.0554  0.6848 -2.6232
  554MOL0     H74777   6.188  10.866   7.107 -0.2713 -1.3958  2.2969
  554MOL0     H74778   6.239  11.129   7.092  0.8195 -1.3228  0.4102
  554MOL0     H74779   6.168  11.229   7.226 -0.1798 -0.3952  0.0564
  554MOL0     H74780   5.982  11.304   7.079 -0.7978 -0.1039 -1.7111
  554MOL0     H74781   6.046  11.208   6.949 -0.7424 -2.1396  1.0897
  554MOL0     H74782   6.269  11.340   7.037 -0.2986 -1.2242 -0.8153
  554MOL0     H74783   6.142  11.447   7.079 -0.0937 -0.1281  0.1509
  554MOL0     H74784   6.217  11.315   6.803  0.1553  0.3884 -0.4183
  554MOL0     H74785   6.081  11.432   6.822 -1.7072 -1.4195  2.0140
  554MOL0     H74786   6.419  11.683   6.821  1.6654 -1.7078 -0.0343
  554MOL0     H74787   5.840  11.071   7.069  2.6583  1.6560 -2.3683
  554MOL0     H74788   5.625  10.811   7.018  1.0312  0.3883 -0.6841
  554MOL0     H74789   5.636  10.984   6.971 -1.2756 -0.5329  0.1405
  554MOL0     H74790   5.679  10.858   6.853  1.7320 -1.2981 -0.4197
  555MOL0     O74791   4.471   1.460   7.379  0.3033  0.0272  0.3457
  555MOL0     C74792   4.491   1.533   7.471 -0.0428 -0.1366  0.7939
  555MOL0     O74793   4.613   1.537   7.529  0.2823  0.1509 -0.5725
  555MOL0     C74794   4.715   1.474   7.471 -0.0767  0.3643  0.4053
  555MOL0     C74795   4.780   1.532   7.361  0.5501 -0.7835 -0.0023
  555MOL0     C74796   4.894   1.472   7.313  0.7592 -0.6457 -0.0590
  555MOL0     C74797   4.940   1.352   7.365  0.1308 -0.9548  0.5777
  555MOL0     O74798   5.053   1.291   7.326  0.6914  0.7786  0.0794
  555MOL0     C74799   5.112   1.347   7.207 -0.4286 -0.4809 -0.7329
  555MOL0     C74800   5.232   1.266   7.152  0.0722  0.8283  0.9180
  555MOL0     C74801   5.186   1.174   7.041  0.9779  0.5103 -0.4277
  555MOL0     C74802   5.290   1.069   7.007 -0.2944 -0.4236  0.2126
  555MOL0     C74803   5.236   0.998   6.887  0.7100  0.4916  0.5651
  555MOL0     C74804   5.289   0.868   6.845 -0.2769 -0.0472  0.0526
  555MOL0     C74805   5.437   0.880   6.803  1.3145 -0.6736  0.7390
  555MOL0     C74806   5.501   0.753   6.747  0.0293  0.2323  0.5022
  555MOL0     N74807   5.641   0.771   6.714 -0.6219 -0.9959  0.4395
  555MOL0     C74808   5.709   0.865   6.633  0.7428  1.4710 -0.7621
  555MOL0     C74809   5.836   0.841   6.647  0.3367 -0.3252  0.0741
  555MOL0     C74810   5.938   0.937   6.589  0.3412  0.1508  1.3283
  555MOL0     C74811   6.066   0.869   6.539 -0.7744 -0.4945 -0.5960
  555MOL0     C74812   6.029   0.779   6.418  0.8293  0.3940  0.2437
  555MOL0     C74813   6.152   0.712   6.359  0.3419  0.5986 -0.8510
  555MOL0     O74814   6.112   0.596   6.293  0.9455  0.6793 -0.2238
  555MOL0     C74815   6.040   0.602   6.169 -0.8396 -0.4621 -0.1558
  555MOL0     C74816   6.005   0.707   6.100  0.9900 -0.7617  0.0423
  555MOL0     C74817   5.939   0.699   5.972  0.8445  0.1266 -0.6933
  555MOL0     C74818   5.900   0.585   5.915  0.2136  0.0070  0.3172
  555MOL0     C74819   5.815   0.578   5.794 -0.2850 -0.3550 -0.8556
  555MOL0     O74820   5.734   0.472   5.788 -0.0625 -0.1722 -0.2081
  555MOL0     C74821   5.625   0.482   5.701  0.2174  0.3790  1.4354
  555MOL0     C74822   5.494   0.493   5.738 -0.2685 -0.3133  0.1459
  555MOL0     C74823   5.392   0.496   5.640 -0.7512  0.8448 -0.1738
  555MOL0     C74824   5.415   0.489   5.502 -0.9616  0.1859  0.1368
  555MOL0     O74825   5.309   0.478   5.414 -0.7606  0.2022  0.6097
  555MOL0     C74826   5.239   0.593   5.372  0.2965 -0.4426  1.0660
  555MOL0     C74827   5.274   0.651   5.236 -0.0853  0.1892 -0.2059
  555MOL0     C74828   5.254   0.552   5.127 -0.1156 -0.3702  0.8548
  555MOL0     C74829   5.377   0.480   5.081  0.1855 -0.4466  0.1318
  555MOL0     C74830   5.334   0.356   4.999  0.7043 -0.0125 -1.0187
  555MOL0     C74831   5.460   0.283   4.928 -0.4721 -0.4954 -0.4910
  555MOL0     C74832   5.429   0.150   4.856 -0.5611 -0.2480 -0.7619
  555MOL0     C74833   5.543   0.099   4.757  0.2407  0.2758 -0.1715
  555MOL0    Cl74834   5.465  -0.009   4.636  0.2752  0.0892  0.3248
  555MOL0     C74835   5.545   0.481   5.465 -0.8622  0.3771 -0.0290
  555MOL0     C74836   5.650   0.471   5.564 -0.0794 -0.0441 -0.2452
  555MOL0     O74837   5.820   0.676   5.722 -0.5226 -0.2663 -0.0266
  555MOL0     C74838   5.948   0.465   5.981 -0.8963 -1.2386  0.5193
  555MOL0     C74839   6.015   0.481   6.102  0.4281  0.3586  0.5390
  555MOL0     N74840   5.855   0.727   6.717 -0.4321 -0.6372  0.0216
  555MOL0     N74841   5.738   0.683   6.754 -0.9271  0.0897  0.7660
  555MOL0     C74842   4.871   1.287   7.462 -0.2362 -0.7328  0.0514
  555MOL0     C74843   4.757   1.343   7.512  0.5278 -0.4278 -1.2334
  555MOL0     C74844   4.378   1.602   7.546 -0.5298 -0.4220  0.0056
  555MOL0     C74845   4.408   1.722   7.611  0.1838  1.5206 -0.2172
  555MOL0     C74846   4.300   1.795   7.678 -0.2503 -0.0618  0.8873
  555MOL0     C74847   4.174   1.746   7.674  0.2743  0.1371  0.5132
  555MOL0     O74848   4.071   1.815   7.732 -0.4069 -1.2121 -0.8620
  555MOL0     C74849   3.939   1.800   7.677  0.4680 -0.7600  1.1706
  555MOL0     C74850   3.839   1.912   7.696  0.3080  0.2814  0.5348
  555MOL0     C74851   3.893   2.044   7.628 -0.9008  0.9211 -0.4430
  555MOL0     C74852   3.793   2.157   7.666 -0.0396 -0.5067  0.7186
  555MOL0     C74853   3.820   2.293   7.614  0.5737 -0.0924  0.4203
  555MOL0     C74854   3.830   2.404   7.572  0.8861 -0.4132 -0.0916
  555MOL0     C74855   4.150   1.615   7.630  0.6498 -0.9095 -0.0066
  555MOL0     C74856   4.254   1.544   7.563  0.4724  0.7321  0.9329
  555MOL0     C74857   4.208   1.412   7.514 -0.1983 -0.9855 -0.7322
  555MOL0     H74858   4.734   1.607   7.299 -0.5978 -0.5259  1.1176
  555MOL0     H74859   4.941   1.536   7.239 -1.5937  0.7370 -0.4715
  555MOL0     H74860   5.040   1.351   7.124 -0.2855  1.1860 -0.8125
  555MOL0     H74861   5.137   1.451   7.231 -3.8550  0.8144 -2.0544
  555MOL0     H74862   5.275   1.206   7.233 -1.7784 -1.5326  0.2383
  555MOL0     H74863   5.310   1.336   7.122 -1.1970  2.3556  1.0401
  555MOL0     H74864   5.160   1.223   6.947 -1.7531 -1.1483 -0.6445
  555MOL0     H74865   5.091   1.134   7.078  0.9694  1.1727  0.3140
  555MOL0     H74866   5.385   1.109   6.969 -0.2725  0.4554  1.1534
  555MOL0     H74867   5.308   1.001   7.091 -0.3908 -0.3175  0.3196
  555MOL0     H74868   5.135   0.967   6.914 -0.1976  3.0441  0.3486
  555MOL0     H74869   5.238   1.065   6.800 -1.0285 -3.8636 -3.2616
  555MOL0     H74870   5.282   0.790   6.922  1.3537 -0.2616  0.0233
  555MOL0     H74871   5.230   0.833   6.760 -1.4686  1.4236  0.2493
  555MOL0     H74872   5.489   0.929   6.885 -0.7238 -0.2910  1.8572
  555MOL0     H74873   5.430   0.949   6.718  1.8384 -0.9144  0.4882
  555MOL0     H74874   5.487   0.676   6.823  3.2256 -2.0891 -1.0583
  555MOL0     H74875   5.438   0.715   6.665 -1.0566 -5.2983  3.4665
  555MOL0     H74876   5.659   0.950   6.588 -2.2447 -0.5033 -1.4702
  555MOL0     H74877   5.891   0.999   6.513  0.2917 -0.1800  1.0837
  555MOL0     H74878   5.973   1.007   6.665 -1.5721  0.7686  1.6785
  555MOL0     H74879   6.142   0.941   6.507 -0.5171 -0.8211 -0.7201
  555MOL0     H74880   6.106   0.805   6.618  2.7331  2.8382  0.6269
  555MOL0     H74881   5.974   0.843   6.348  3.7529  3.0331  0.1169
  555MOL0     H74882   5.973   0.695   6.459  1.7634  0.2615  1.3133
  555MOL0     H74883   6.218   0.671   6.437  0.7006  0.1822 -1.3701
  555MOL0     H74884   6.203   0.780   6.290  0.5841  3.7844  2.1497
  555MOL0     H74885   6.036   0.804   6.137  0.6932 -0.0151 -1.5864
  555MOL0     H74886   5.926   0.792   5.917 -1.9503  1.4261  1.9059
  555MOL0     H74887   5.482   0.502   5.846  1.9470  1.2986  0.3226
  555MOL0     H74888   5.286   0.501   5.663 -1.5675 -3.1623 -2.0877
  555MOL0     H74889   5.135   0.564   5.359  0.3255 -0.5791  1.1340
  555MOL0     H74890   5.243   0.671   5.449  1.5933  0.2006  0.3881
  555MOL0     H74891   5.210   0.738   5.219  0.2339  0.4829  0.0919
  555MOL0     H74892   5.377   0.687   5.234 -0.0480  0.7149  3.8217
  555MOL0     H74893   5.203   0.465   5.169 -1.1917  0.5426  1.4811
  555MOL0     H74894   5.198   0.585   5.039  0.1732 -2.2935 -0.1158
  555MOL0     H74895   5.444   0.457   5.164 -0.0229  0.9460  0.7155
  555MOL0     H74896   5.430   0.545   5.011  0.2916  0.9332  1.4490
  555MOL0     H74897   5.256   0.373   4.925 -1.5073 -0.1864  1.1430
  555MOL0     H74898   5.286   0.280   5.061 -1.3765  0.7991 -1.5301
  555MOL0     H74899   5.504   0.342   4.847 -1.1409  0.9187  0.1352
  555MOL0     H74900   5.531   0.279   5.011 -2.1732  4.1791  1.5491
  555MOL0     H74901   5.331   0.154   4.809  0.0773  1.3655 -2.0661
  555MOL0     H74902   5.428   0.082   4.942  1.5687  0.0531 -0.4433
  555MOL0     H74903   5.596   0.175   4.699  1.1067 -1.1124 -1.2642
  555MOL0     H74904   5.624   0.053   4.816 -0.9530  1.1713  2.3307
  555MOL0     H74905   5.551   0.487   5.356  0.7702  1.6112  0.0911
  555MOL0     H74906   5.753   0.452   5.537 -0.3775 -4.8093  1.0167
  555MOL0     H74907   5.937   0.368   5.933  0.0624  0.5360 -3.6642
  555MOL0     H74908   6.055   0.395   6.153  0.0467 -1.3221 -1.8069
  555MOL0     H74909   4.899   1.194   7.511 -0.4871  0.0786  1.7991
  555MOL0     H74910   4.701   1.306   7.597  0.1513 -0.9593 -1.7058
  555MOL0     H74911   4.510   1.757   7.599  0.8658 -1.0539 -3.3069
  555MOL0     H74912   4.320   1.895   7.716 -3.1101  0.8866  0.1164
  555MOL0     H74913   3.896   1.710   7.721  1.7620 -1.1570  1.6433
  555MOL0     H74914   3.946   1.785   7.569  2.9627  3.4976  0.5021
  555MOL0     H74915   3.825   1.925   7.804  1.0834  1.5976  0.5060
  555MOL0     H74916   3.737   1.893   7.661  0.4591  1.9348 -0.9113
  555MOL0     H74917   3.915   2.040   7.521  0.8048 -2.5071 -0.0752
  555MOL0     H74918   3.991   2.061   7.672  0.8069 -0.9560 -3.2552
  555MOL0     H74919   3.696   2.122   7.631 -0.0215  0.7872 -0.7337
  555MOL0     H74920   3.773   2.162   7.773 -0.3247 -1.4833  0.7146
  555MOL0     H74921   3.855   2.503   7.538  2.5619 -0.0895  1.9062
  555MOL0     H74922   4.046   1.582   7.633  0.2841  0.3015  1.7073
  555MOL0     H74923   4.296   1.357   7.480  0.3941 -0.2883 -0.3374
  555MOL0     H74924   4.163   1.353   7.595  2.8164 -1.5444  0.6607
  555MOL0     H74925   4.137   1.432   7.434  0.3912  0.9960 -0.8086
  556MOL0     O74926   8.172   4.412   6.682  0.1687  0.1542 -0.0693
  556MOL0     C74927   8.209   4.438   6.570 -0.2417  0.9632 -0.1651
  556MOL0     O74928   8.332   4.488   6.538  0.8564  0.6576 -0.1706
  556MOL0     C74929   8.401   4.558   6.637  0.1147 -0.8766 -0.7301
  556MOL0     C74930   8.470   4.498   6.741  0.5190  0.5443  0.0986
  556MOL0     C74931   8.542   4.570   6.837  0.4118 -0.4136 -0.1850
  556MOL0     C74932   8.554   4.710   6.844  0.6641  0.1897  0.4072
  556MOL0     O74933   8.646   4.768   6.927 -0.0993  0.2122 -0.0737
  556MOL0     C74934   8.624   4.910   6.933 -0.3652 -0.5573 -0.3169
  556MOL0     C74935   8.700   4.972   7.057  0.2715  0.2876 -0.6038
  556MOL0     C74936   8.853   4.943   7.048 -0.5054  0.6941  0.6219
  556MOL0     C74937   8.933   5.007   7.164 -0.0245  0.4641  0.3096
  556MOL0     C74938   9.081   4.983   7.152  0.6858  0.5980  0.2459
  556MOL0     C74939   9.116   4.832   7.164 -0.5069  0.6170 -1.1056
  556MOL0     C74940   9.267   4.808   7.208  0.2043 -0.4510  0.3267
  556MOL0     C74941   9.271   4.661   7.223 -0.2369  1.0071 -0.0115
  556MOL0     N74942   9.413   4.611   7.222 -0.0941 -0.0374 -0.0008
  556MOL0     C74943   9.471   4.542   7.120 -0.8999 -0.7378  0.5102
  556MOL0     C74944   9.592   4.505   7.159 -0.2503  0.4094  1.2893
  556MOL0     C74945   9.687   4.449   7.051 -0.0468 -0.3029 -0.7254
  556MOL0     C74946   9.804   4.380   7.117  0.6921  0.0841 -0.0343
  556MOL0     C74947   9.758   4.256   7.192  0.3419 -0.3028  0.6163
  556MOL0     C74948   9.820   4.240   7.334 -0.3230 -0.3743  0.4951
  556MOL0     O74949   9.793   4.109   7.391 -0.0539  0.8601 -0.0417
  556MOL0     C74950   9.795   3.997   7.312 -0.1377 -0.3083  0.4173
  556MOL0     C74951   9.907   3.966   7.241  0.0119 -0.7406  0.0169
  556MOL0     C74952   9.904   3.841   7.168  0.7753 -0.0564 -0.3785
  556MOL0     C74953   9.791   3.759   7.154  0.6831  0.1605 -0.8591
  556MOL0     C74954   9.795   3.627   7.088 -0.1854 -0.2011  0.1150
  556MOL0     O74955   9.910   3.595   7.033 -0.5604  0.3083  1.0560
  556MOL0     C74956   9.911   3.472   6.968 -0.6227 -0.1205  0.5813
  556MOL0     C74957   9.941   3.482   6.828 -0.0187  0.1073 -0.4279
  556MOL0     C74958   9.970   3.356   6.766 -0.1151 -0.9453 -0.9653
  556MOL0     C74959   9.955   3.242   6.833 -0.0605 -0.3176  0.2103
  556MOL0     O74960   9.963   3.120   6.774 -0.3839 -0.3550  0.4298
  556MOL0     C74961  10.006   3.100   6.644  0.4614  0.1235  0.0740
  556MOL0     C74962   9.971   2.959   6.587  0.1975  0.0593  0.4568
  556MOL0     C74963  10.039   2.952   6.443 -0.1284  0.1361  1.0790
  556MOL0     C74964   9.956   2.847   6.359  0.7057 -0.3192  0.9711
  556MOL0     C74965  10.019   2.794   6.232  0.6740  0.1534 -0.5124
  556MOL0     C74966  10.139   2.689   6.249  0.3608 -0.8166  0.1660
  556MOL0     C74967  10.188   2.634   6.112 -0.5273  0.3409 -0.0487
  556MOL0     C74968  10.085   2.550   6.038  0.8910  0.0961 -0.1533
  556MOL0    Cl74969  10.149   2.472   5.894 -0.1277  0.1077 -0.3983
  556MOL0     C74970   9.928   3.237   6.972  0.5658 -0.9070 -0.0806
  556MOL0     C74971   9.906   3.356   7.042  0.2098  1.1219 -0.2425
  556MOL0     O74972   9.700   3.560   7.091  0.1663  0.3477  0.3681
  556MOL0     C74973   9.674   3.813   7.215  0.0803  0.5063 -0.8199
  556MOL0     C74974   9.675   3.924   7.297 -0.0560  0.1132 -0.2367
  556MOL0     N74975   9.626   4.579   7.272 -0.3451 -1.1605 -0.2627
  556MOL0     N74976   9.513   4.644   7.308 -0.6252 -0.1488  0.3955
  556MOL0     C74977   8.479   4.771   6.739 -0.6635  0.2683 -0.5269
  556MOL0     C74978   8.410   4.703   6.640  0.2333  0.9531 -0.4243
  556MOL0     C74979   8.117   4.393   6.461 -0.0309  0.3187 -0.8283
  556MOL0     C74980   7.987   4.348   6.499 -0.5164 -0.2110 -0.1356
  556MOL0     C74981   7.891   4.308   6.404 -0.0691 -0.1343  0.4221
  556MOL0     C74982   7.916   4.312   6.266 -0.3296  0.0594  0.1074
  556MOL0     O74983   7.818   4.264   6.192  0.2128  0.4416  0.2111
  556MOL0     C74984   7.830   4.279   6.049  0.9869 -0.7157  0.2042
  556MOL0     C74985   7.702   4.230   5.977 -0.4323 -0.0601 -0.3403
  556MOL0     C74986   7.673   4.287   5.832 -0.7651  0.0297 -0.0674
  556MOL0     C74987   7.781   4.221   5.741  0.7735  0.1334  0.4682
  556MOL0     C74988   7.763   4.265   5.602  0.1090 -0.0289  0.6152
  556MOL0     C74989   7.751   4.302   5.489  0.9912  0.2373  0.1895
  556MOL0     C74990   8.044   4.359   6.230  0.2493  0.7291 -0.1177
  556MOL0     C74991   8.150   4.390   6.325  0.6015 -0.2286  0.9025
  556MOL0     C74992   8.284   4.428   6.263 -1.2429 -0.3720  1.0998
  556MOL0     H74993   8.463   4.390   6.736 -1.5534  0.6616 -3.9761
  556MOL0     H74994   8.616   4.526   6.903  1.5527  1.0070 -0.4719
  556MOL0     H74995   8.670   4.946   6.840  6.3138 -2.7344  1.5448
  556MOL0     H74996   8.519   4.940   6.930 -0.3044 -0.2807  0.2133
  556MOL0     H74997   8.669   4.925   7.151  3.3844 -1.3097 -0.2360
  556MOL0     H74998   8.680   5.078   7.069 -2.8593 -0.0929 -1.5444
  556MOL0     H74999   8.896   4.978   6.954  1.8862 -1.3859  0.8274
  556MOL0     H75000   8.882   4.837   7.049  1.5342  1.1970  1.9259
  556MOL0     H75001   8.912   5.112   7.188 -2.9686 -0.1766  0.9710
  556MOL0     H75002   8.887   4.961   7.252 -1.5455  0.4799 -0.4389
  556MOL0     H75003   9.120   5.025   7.059  1.2052  2.8790  1.4128
  556MOL0     H75004   9.141   5.040   7.224  1.3363  1.4554 -0.9489
  556MOL0     H75005   9.058   4.789   7.246  0.0324 -1.4981 -1.7865
  556MOL0     H75006   9.086   4.779   7.074 -2.2950  0.8546 -0.6953
  556MOL0     H75007   9.304   4.860   7.297 -1.6016 -1.2521  1.5999
  556MOL0     H75008   9.322   4.844   7.120 -0.1689 -0.7692 -0.0441
  556MOL0     H75009   9.220   4.632   7.315 -1.6443  0.1318 -1.0193
  556MOL0     H75010   9.211   4.622   7.140 -1.5383  1.1728  0.8198
  556MOL0     H75011   9.422   4.511   7.028  0.7857 -4.0194  0.5843
  556MOL0     H75012   9.637   4.378   6.984  1.3270  0.7377 -2.9791
  556MOL0     H75013   9.719   4.534   6.989 -0.2607  1.7755  1.8439
  556MOL0     H75014   9.891   4.364   7.053 -0.1815 -1.5143 -0.8760
  556MOL0     H75015   9.841   4.450   7.193 -1.1333 -0.5958  1.5594
  556MOL0     H75016   9.776   4.167   7.131 -0.8699  1.0149 -1.8089
  556MOL0     H75017   9.652   4.268   7.214  0.1830  0.5737 -0.5067
  556MOL0     H75018   9.775   4.319   7.394 -4.0644  0.2853 -2.8072
  556MOL0     H75019   9.929   4.253   7.335 -0.1054 -1.7888 -1.1050
  556MOL0     H75020  10.000   4.021   7.243  0.5801 -1.6930  1.3319
  556MOL0     H75021  10.002   3.808   7.134  1.0005  0.0689  0.1286
  556MOL0     H75022   9.954   3.575   6.774  1.0422 -1.4619 -3.1002
  556MOL0     H75023  10.009   3.366   6.666  5.1888 -0.7985  0.8085
  556MOL0     H75024   9.962   3.171   6.574 -3.4950 -3.2721 -1.3016
  556MOL0     H75025  10.115   3.111   6.635  0.3775  1.2482  0.3045
  556MOL0     H75026  10.007   2.874   6.645  1.4503  0.7570  0.7350
  556MOL0     H75027   9.862   2.949   6.581  0.3728 -2.1020  0.3682
  556MOL0     H75028  10.044   3.049   6.393  1.2461  0.1754  1.2485
  556MOL0     H75029  10.142   2.915   6.448  0.5524  1.8434  0.3870
  556MOL0     H75030   9.861   2.889   6.326  1.8070  1.7524  0.2293
  556MOL0     H75031   9.929   2.769   6.431 -2.5636  1.5610  1.9899
  556MOL0     H75032  10.040   2.870   6.156 -0.7303 -0.2153 -1.3266
  556MOL0     H75033   9.934   2.741   6.186 -1.9353  2.0691  1.7433
  556MOL0     H75034  10.220   2.753   6.286 -1.6947  0.5446  2.6221
  556MOL0     H75035  10.117   2.622   6.333  1.5562 -0.3499  0.8815
  556MOL0     H75036  10.282   2.578   6.123  1.1957  3.0598  0.2071
  556MOL0     H75037  10.217   2.716   6.046  0.5533 -0.9279 -1.2112
  556MOL0     H75038  10.065   2.469   6.108 -1.4107  1.6560  1.1523
  556MOL0     H75039  10.001   2.614   6.009  1.4629  3.0759  3.7364
  556MOL0     H75040   9.913   3.137   7.011  1.3687 -0.3447  1.7440
  556MOL0     H75041   9.869   3.347   7.144 -1.3205  2.4299 -0.6447
  556MOL0     H75042   9.590   3.744   7.218 -1.5661  2.4588  0.3621
  556MOL0     H75043   9.593   3.962   7.356 -0.8706  0.0354 -1.2991
  556MOL0     H75044   8.480   4.875   6.710  0.5990 -0.2669 -2.6207
  556MOL0     H75045   8.336   4.750   6.576 -1.9923 -3.1686 -1.2284
  556MOL0     H75046   7.951   4.342   6.601  0.0841 -3.6262  0.0090
  556MOL0     H75047   7.801   4.273   6.451  0.6385 -0.2235  1.7491
  556MOL0     H75048   7.909   4.217   6.005 -1.3233 -1.6993 -2.8322
  556MOL0     H75049   7.864   4.376   6.012  1.8023 -2.1350 -3.0842
  556MOL0     H75050   7.626   4.262   6.048 -2.8016 -0.9352 -2.3471
  556MOL0     H75051   7.699   4.122   5.963 -0.4936  0.1724 -2.5986
  556MOL0     H75052   7.663   4.396   5.830 -2.1189 -0.0760 -2.3193
  556MOL0     H75053   7.572   4.255   5.805 -0.5563 -0.1720 -0.6313
  556MOL0     H75054   7.877   4.267   5.767  1.0643  2.8921 -4.3406
  556MOL0     H75055   7.784   4.111   5.741  1.3085  0.1455  0.5208
  556MOL0     H75056   7.734   4.324   5.386 -0.1163 -0.1914  0.2605
  556MOL0     H75057   8.064   4.368   6.123  1.7440 -0.1422  0.0606
  556MOL0     H75058   8.363   4.391   6.329  3.6694  1.2078 -3.0996
  556MOL0     H75059   8.310   4.379   6.168  2.1891  0.1865  1.5905
  556MOL0     H75060   8.283   4.537   6.251  0.4950 -0.6231 -4.2590
  557MOL0     O75061   7.255  10.564   3.059 -0.6928  0.9947 -0.0857
  557MOL0     C75062   7.291  10.577   3.176  0.0645  1.0018  0.4577
  557MOL0     O75063   7.217  10.590   3.288 -0.2140 -0.2037  0.8179
  557MOL0     C75064   7.086  10.605   3.273  0.7927 -0.1775 -0.0009
  557MOL0     C75065   7.016  10.702   3.354  0.4746  0.2596  0.5948
  557MOL0     C75066   6.882  10.711   3.348 -0.2594 -0.3997 -0.6981
  557MOL0     C75067   6.802  10.649   3.252 -0.6677  0.1567  0.1708
  557MOL0     O75068   6.671  10.658   3.238 -0.1918  0.4858 -0.1136
  557MOL0     C75069   6.605  10.768   3.298  0.0594 -0.4177 -0.5723
  557MOL0     C75070   6.531  10.718   3.419  0.1932 -0.1915  0.4527
  557MOL0     C75071   6.442  10.828   3.491 -1.1141 -0.4331 -0.1114
  557MOL0     C75072   6.519  10.953   3.549  0.4649  0.1677 -0.9545
  557MOL0     C75073   6.416  11.014   3.646  0.2769 -0.3872 -0.3537
  557MOL0     C75074   6.454  11.144   3.699  0.0025 -0.5555  0.9806
  557MOL0     C75075   6.349  11.210   3.779  0.0464  0.1560  0.0926
  557MOL0     C75076   6.366  11.359   3.817  0.5099  0.2574 -0.1841
  557MOL0     N75077   6.501  11.410   3.783  0.7773 -0.0283  0.5391
  557MOL0     C75078   6.619  11.409   3.855  0.0559 -0.0559 -0.3640
  557MOL0     C75079   6.711  11.466   3.787  0.1352  0.6725 -0.3685
  557MOL0     C75080   6.855  11.476   3.822  0.1462  0.8524 -0.0386
  557MOL0     C75081   6.925  11.403   3.710  0.4010  0.8902 -0.2960
  557MOL0     C75082   7.076  11.391   3.722  0.1315  0.4392 -0.9082
  557MOL0     C75083   7.145  11.302   3.615  0.4092  1.2103  0.6068
  557MOL0     O75084   7.129  11.373   3.491 -0.5784 -0.3510 -0.3111
  557MOL0     C75085   7.238  11.438   3.445  0.5150 -0.4446 -0.5403
  557MOL0     C75086   7.353  11.481   3.524 -0.5419 -0.7221 -0.1681
  557MOL0     C75087   7.457  11.540   3.454  0.8029  0.7587 -0.5267
  557MOL0     C75088   7.453  11.556   3.314  0.9007  0.2458  0.1514
  557MOL0     C75089   7.565  11.618   3.245  0.1477  0.5292 -0.6859
  557MOL0     O75090   7.535  11.728   3.167 -0.2755  0.0379  0.5001
  557MOL0     C75091   7.631  11.805   3.105 -0.6494  0.5117  0.6220
  557MOL0     C75092   7.730  11.884   3.175 -0.9219  0.1473 -0.2803
  557MOL0     C75093   7.820  11.964   3.104 -0.6618  0.1916 -0.5778
  557MOL0     C75094   7.811  11.971   2.959 -0.2284  0.6642 -0.8076
  557MOL0     O75095   7.887  12.058   2.889 -0.4533  0.0083 -0.7209
  557MOL0     C75096   7.975  12.153   2.936  0.0026 -0.2934 -0.6367
  557MOL0     C75097   8.056  12.231   2.832 -0.2879  0.1064 -0.8557
  557MOL0     C75098   8.011  12.219   2.679  0.5106 -1.1293 -0.5071
  557MOL0     C75099   7.863  12.275   2.665 -0.1784  0.2645  0.4955
  557MOL0     C75100   7.826  12.325   2.526  1.0693 -0.7807  1.0518
  557MOL0     C75101   7.820  12.214   2.413  0.6617  0.2905 -0.1088
  557MOL0     C75102   7.852  12.280   2.273  0.0226  0.5139 -0.5582
  557MOL0     C75103   7.881  12.173   2.173  0.7788  0.6968  0.1552
  557MOL0    Cl75104   7.739  12.059   2.136  0.6373  0.1098  0.0373
  557MOL0     C75105   7.711  11.900   2.888  0.0044 -0.5445  0.1088
  557MOL0     C75106   7.636  11.808   2.966 -0.1781 -0.8194 -1.2609
  557MOL0     O75107   7.674  11.559   3.256 -0.2670  0.8478  0.3248
  557MOL0     C75108   7.337  11.519   3.243  0.0119 -0.1165 -0.8049
  557MOL0     C75109   7.234  11.461   3.310 -1.2949  0.3251 -0.0104
  557MOL0     N75110   6.657  11.503   3.669  0.5946 -0.5025  0.4635
  557MOL0     N75111   6.529  11.473   3.671  1.0595  0.5982  0.0870
  557MOL0     C75112   6.867  10.555   3.166 -0.7975 -0.3989  0.5043
  557MOL0     C75113   7.004  10.526   3.187 -0.1466 -0.4333  0.5363
  557MOL0     C75114   7.435  10.532   3.195 -0.0514 -0.5198  0.1252
  557MOL0     C75115   7.530  10.584   3.103  0.4379 -1.4650  0.6344
  557MOL0     C75116   7.658  10.531   3.103 -0.1555 -0.4889  0.8321
  557MOL0     C75117   7.696  10.436   3.189 -0.1416 -0.0252  0.8693
  557MOL0     O75118   7.824  10.392   3.176 -0.6239  0.2554  0.4111
  557MOL0     C75119   7.865  10.302   3.077 -0.7685  0.2750  0.9163
  557MOL0     C75120   8.013  10.313   3.063  1.2759  0.8208 -0.5833
  557MOL0     C75121   8.072  10.219   2.950  0.2204 -1.0509  0.1095
  557MOL0     C75122   8.182  10.291   2.874 -0.7338 -0.3691 -0.5197
  557MOL0     C75123   8.310  10.322   2.949 -0.1744  0.2900  0.6264
  557MOL0     C75124   8.413  10.342   3.012  0.1065 -0.7160 -0.3760
  557MOL0     C75125   7.612  10.402   3.290  0.6320 -0.1666  1.2867
  557MOL0     C75126   7.477  10.435   3.294  0.4896  0.7709  0.4554
  557MOL0     C75127   7.389  10.370   3.398  0.5479 -0.1869 -0.8819
  557MOL0     H75128   7.066  10.766   3.427 -2.7390  0.6605  2.6460
  557MOL0     H75129   6.838  10.792   3.405 -1.2540  0.1108 -2.1358
  557MOL0     H75130   6.662  10.855   3.333 -2.0322  0.4549  0.9325
  557MOL0     H75131   6.541  10.820   3.226  0.7768 -2.8242 -3.1246
  557MOL0     H75132   6.592  10.660   3.489  0.1114  0.5799  1.1797
  557MOL0     H75133   6.458  10.643   3.388 -1.6761  2.2486 -1.4151
  557MOL0     H75134   6.405  10.780   3.582  3.1117 -2.9174  0.5803
  557MOL0     H75135   6.365  10.861   3.421 -0.1616 -0.1899 -1.0777
  557MOL0     H75136   6.603  10.929   3.615 -0.7708  0.7100  0.8507
  557MOL0     H75137   6.555  11.026   3.475 -0.5371  2.1078  0.3863
  557MOL0     H75138   6.327  11.032   3.586 -1.8031 -2.2965  1.9708
  557MOL0     H75139   6.395  10.933   3.717 -0.8090 -1.4079 -1.7951
  557MOL0     H75140   6.549  11.149   3.753 -0.2158 -2.6864  1.6565
  557MOL0     H75141   6.471  11.205   3.609 -2.7686 -2.0820 -0.7243
  557MOL0     H75142   6.352  11.152   3.872  1.9384  0.8211  0.5005
  557MOL0     H75143   6.247  11.183   3.752  0.3856 -0.9034 -0.1792
  557MOL0     H75144   6.293  11.408   3.752  0.3112 -2.0057 -1.7631
  557MOL0     H75145   6.333  11.367   3.922 -2.3725 -0.5632 -0.9402
  557MOL0     H75146   6.629  11.383   3.960 -2.1416  2.1204  0.4868
  557MOL0     H75147   6.900  11.575   3.835  2.7722 -0.4720  2.2044
  557MOL0     H75148   6.872  11.426   3.918  1.7279  1.9722  0.3135
  557MOL0     H75149   6.888  11.300   3.701  0.8003  0.8277 -1.4502
  557MOL0     H75150   6.899  11.435   3.609  1.3550 -0.5200 -1.0224
  557MOL0     H75151   7.098  11.357   3.824 -5.3090 -0.5381  0.2317
  557MOL0     H75152   7.115  11.493   3.727  0.7363  0.1393  2.4960
  557MOL0     H75153   7.095  11.205   3.618  4.2444 -0.9500  1.7642
  557MOL0     H75154   7.246  11.274   3.645  0.0914  0.8592  1.3704
  557MOL0     H75155   7.356  11.475   3.632  0.9927  0.8898 -0.0751
  557MOL0     H75156   7.548  11.545   3.513  0.4186 -4.7216  1.0762
  557MOL0     H75157   7.712  11.879   3.282 -4.0451 -5.0266 -0.6981
  557MOL0     H75158   7.901  12.014   3.156 -2.6436  1.3551  1.5520
  557MOL0     H75159   7.915  12.234   2.977 -1.0775 -1.0789 -0.6299
  557MOL0     H75160   8.041  12.121   3.018  1.3647  0.2146 -1.4968
  557MOL0     H75161   8.067  12.337   2.856  3.2960 -0.7363  2.2582
  557MOL0     H75162   8.159  12.194   2.820  0.2117  0.2863  2.1528
  557MOL0     H75163   8.081  12.291   2.638 -2.2265  3.6839  2.3702
  557MOL0     H75164   8.022  12.116   2.644  3.6564 -2.4464  3.4931
  557MOL0     H75165   7.837  12.364   2.723 -4.4071 -0.3482 -0.1326
  557MOL0     H75166   7.790  12.199   2.696 -1.5511 -0.0518 -3.0972
  557MOL0     H75167   7.892  12.406   2.493 -1.0293 -0.4172 -2.8235
  557MOL0     H75168   7.732  12.381   2.523  1.2786 -0.4263  1.0185
  557MOL0     H75169   7.883  12.133   2.452 -1.5428 -1.4637  0.0074
  557MOL0     H75170   7.719  12.174   2.413 -0.0627  1.9545 -2.0838
  557MOL0     H75171   7.944  12.339   2.284  0.6740 -0.3039 -1.4007
  557MOL0     H75172   7.772  12.346   2.239 -0.9389  0.5015  1.5222
  557MOL0     H75173   7.910  12.223   2.080  1.2849  2.2229  1.1188
  557MOL0     H75174   7.969  12.110   2.190 -0.0746 -0.1656  1.5117
  557MOL0     H75175   7.702  11.927   2.783 -0.0409  1.1621  0.5357
  557MOL0     H75176   7.583  11.722   2.926 -2.1652 -0.4083  0.3226
  557MOL0     H75177   7.316  11.550   3.141 -2.9114  1.5060  0.1633
  557MOL0     H75178   7.154  11.421   3.248 -0.4541 -1.7834  0.1843
  557MOL0     H75179   6.821  10.493   3.090  1.6230 -0.3037 -1.1268
  557MOL0     H75180   7.044  10.445   3.126 -2.7888  0.6076 -2.9422
  557MOL0     H75181   7.496  10.664   3.038 -0.1253 -0.5612  2.0104
  557MOL0     H75182   7.733  10.569   3.034 -0.0212  3.2977  2.8407
  557MOL0     H75183   7.822  10.324   2.978 -0.8406 -0.3051  0.8133
  557MOL0     H75184   7.826  10.200   3.088  0.8014 -0.7643 -2.0155
  557MOL0     H75185   8.057  10.295   3.162 -0.8298  1.9051  0.6018
  557MOL0     H75186   8.025  10.419   3.042  0.9406  1.1404  0.7252
  557MOL0     H75187   7.992  10.190   2.881  0.3206 -2.3591  0.5022
  557MOL0     H75188   8.122  10.129   2.987  1.1540 -2.3098 -3.7619
  557MOL0     H75189   8.213  10.226   2.792  0.4110 -0.4596 -0.0461
  557MOL0     H75190   8.150  10.383   2.826 -2.5135  0.0541  1.3534
  557MOL0     H75191   8.492  10.338   3.085 -2.0870  0.9998  2.3150
  557MOL0     H75192   7.647  10.333   3.366 -1.9436 -0.6013  2.1577
  557MOL0     H75193   7.307  10.310   3.358 -1.8517  0.9147  2.0325
  557MOL0     H75194   7.450  10.301   3.456  0.5033  0.7124  0.2644
  557MOL0     H75195   7.336  10.434   3.469  1.6588  0.2022 -0.3898
  558MOL0     O75196   5.134   0.790  11.231 -0.7194  0.7969 -0.4112
  558MOL0     C75197   5.085   0.905  11.206 -0.0275 -0.1000 -0.4443
  558MOL0     O75198   4.983   0.930  11.126  0.5176 -0.3932 -0.5864
  558MOL0     C75199   4.896   0.840  11.062  0.2852  0.5062  0.5727
  558MOL0     C75200   4.799   0.895  10.986  0.1177  0.5568 -0.0421
  558MOL0     C75201   4.709   0.817  10.910 -0.2185  0.0827 -0.1442
  558MOL0     C75202   4.716   0.683  10.910 -0.7929  0.0613 -0.4912
  558MOL0     O75203   4.625   0.625  10.833 -0.1344  0.0185 -0.0784
  558MOL0     C75204   4.644   0.482  10.821 -0.4091 -0.2137  0.9156
  558MOL0     C75205   4.534   0.426  10.732  0.3109 -0.0806 -1.3452
  558MOL0     C75206   4.532   0.484  10.588  0.8788 -0.3983 -0.1499
  558MOL0     C75207   4.402   0.438  10.510 -0.8396  0.9382  1.1668
  558MOL0     C75208   4.398   0.305  10.433  0.1908 -0.3931 -0.4801
  558MOL0     C75209   4.392   0.176  10.525 -0.8361 -0.6286 -0.6433
  558MOL0     C75210   4.343   0.069  10.439 -0.3424 -0.0915  0.2578
  558MOL0     C75211   4.390  -0.066  10.490  0.5054 -0.0305 -0.0954
  558MOL0     N75212   4.309  -0.173  10.436 -0.9647 -0.1406 -0.0886
  558MOL0     C75213   4.299  -0.197  10.300 -0.6912  0.4760 -0.1307
  558MOL0     C75214   4.268  -0.329  10.287 -0.5244  0.2655 -0.1748
  558MOL0     C75215   4.256  -0.403  10.155 -0.0650  0.2082 -0.2289
  558MOL0     C75216   4.324  -0.545  10.159  0.0948  0.2327  1.1183
  558MOL0     C75217   4.473  -0.547  10.107 -0.0241  1.0698 -0.5147
  558MOL0     C75218   4.561  -0.437  10.172  0.8657  0.8051  0.9609
  558MOL0     O75219   4.566  -0.447  10.311 -0.7152  0.0323 -0.1933
  558MOL0     C75220   4.601  -0.337  10.386 -0.3736  0.4074  0.8852
  558MOL0     C75221   4.670  -0.222  10.333 -0.2917 -0.1369 -0.1015
  558MOL0     C75222   4.728  -0.131  10.419 -0.1052 -1.1878  0.0763
  558MOL0     C75223   4.719  -0.148  10.562  0.1602  0.0031  0.3115
  558MOL0     C75224   4.766  -0.046  10.662  0.2318  0.2640 -0.1186
  558MOL0     O75225   4.785  -0.089  10.787  0.2577  0.3908 -0.4755
  558MOL0     C75226   4.818  -0.004  10.891 -0.0688  1.0388  0.0091
  558MOL0     C75227   4.894   0.113  10.875  0.6993 -0.4496 -0.0239
  558MOL0     C75228   4.920   0.189  10.987 -0.1918 -1.3667  0.3389
  558MOL0     C75229   4.874   0.150  11.112  0.2632 -0.3824 -0.2146
  558MOL0     O75230   4.905   0.233  11.209  0.5311  0.7496 -0.7941
  558MOL0     C75231   4.794   0.290  11.286  0.8037  0.4862  0.5229
  558MOL0     C75232   4.812   0.439  11.293 -1.2971  0.4025 -0.1731
  558MOL0     C75233   4.730   0.499  11.412 -0.2657  0.2063 -0.4694
  558MOL0     C75234   4.748   0.651  11.408 -0.2349 -0.0035  0.4137
  558MOL0     C75235   4.677   0.728  11.512 -0.1052  0.2693  1.2897
  558MOL0     C75236   4.737   0.869  11.524  0.6182 -0.3511 -0.6842
  558MOL0     C75237   4.640   0.957  11.613 -0.9617  0.2689  0.1984
  558MOL0     C75238   4.719   1.066  11.680 -0.6005  0.1583 -0.3119
  558MOL0    Cl75239   4.589   1.180  11.744  0.4190  0.3855  0.1069
  558MOL0     C75240   4.799   0.038  11.127 -0.9273  0.2855 -0.1692
  558MOL0     C75241   4.784  -0.049  11.019  0.5970  0.7706  0.3732
  558MOL0     O75242   4.750   0.069  10.630 -0.1475  0.1842 -0.6233
  558MOL0     C75243   4.645  -0.253  10.613 -0.1852 -0.3627  0.4491
  558MOL0     C75244   4.600  -0.350  10.527 -1.1581  0.7110 -0.0517
  558MOL0     N75245   4.248  -0.375  10.423 -0.0932 -0.3643 -0.3898
  558MOL0     N75246   4.278  -0.273  10.507 -0.1110  0.0988  0.4021
  558MOL0     C75247   4.813   0.622  10.994  0.2977  0.4860 -0.3899
  558MOL0     C75248   4.903   0.699  11.070 -0.6287  0.6043  0.1736
  558MOL0     C75249   5.142   1.022  11.275 -0.0429 -1.2208  0.3030
  558MOL0     C75250   5.056   1.137  11.306 -0.4154 -0.6471  0.7461
  558MOL0     C75251   5.100   1.248  11.371 -0.1830 -0.4059 -0.1793
  558MOL0     C75252   5.230   1.249  11.420 -0.2970 -0.2195 -0.0011
  558MOL0     O75253   5.266   1.360  11.494 -0.7683  0.3262 -0.0219
  558MOL0     C75254   5.311   1.330  11.631  0.1566 -0.2782  0.4802
  558MOL0     C75255   5.402   1.435  11.688 -0.6382  0.2153  0.1530
  558MOL0     C75256   5.328   1.566  11.725 -0.0658  0.5093  1.1276
  558MOL0     C75257   5.326   1.594  11.882 -0.4492  0.5321 -1.2052
  558MOL0     C75258   5.453   1.625  11.951  0.0826 -0.5098 -0.0113
  558MOL0     C75259   5.559   1.646  12.006 -0.2796 -0.7188  0.4113
  558MOL0     C75260   5.319   1.152  11.385  0.4827  0.2512 -0.7791
  558MOL0     C75261   5.277   1.040  11.308  0.0454  0.3626 -0.7331
  558MOL0     C75262   5.386   0.948  11.252 -0.2113 -0.0507  0.3761
  558MOL0     H75263   4.783   1.003  10.984  3.3625  1.1326 -0.8270
  558MOL0     H75264   4.638   0.875  10.852 -1.1682  0.4725  1.3416
  558MOL0     H75265   4.738   0.462  10.768  0.0772 -0.0976  1.7240
  558MOL0     H75266   4.635   0.440  10.921  3.2814 -0.3261  1.3276
  558MOL0     H75267   4.443   0.452  10.786  0.8215  1.2760 -1.1042
  558MOL0     H75268   4.555   0.320  10.712  1.9685  0.1724 -1.1147
  558MOL0     H75269   4.628   0.468  10.537  0.1897 -0.9891 -1.2902
  558MOL0     H75270   4.520   0.592  10.602  1.6827 -0.3083 -0.0797
  558MOL0     H75271   4.319   0.438  10.581 -4.9194 -0.1804 -3.0972
  558MOL0     H75272   4.381   0.516  10.437 -1.9038 -1.6344 -1.4515
  558MOL0     H75273   4.315   0.309  10.362  1.1738 -0.9274 -1.7064
  558MOL0     H75274   4.484   0.293  10.366  1.5291  2.2734  0.6033
  558MOL0     H75275   4.488   0.156  10.573  0.1578 -0.3864 -2.4267
  558MOL0     H75276   4.317   0.192  10.603 -0.9735  0.4366 -0.9660
  558MOL0     H75277   4.383   0.080  10.338 -1.2165 -4.2748 -0.7401
  558MOL0     H75278   4.233   0.069  10.435 -0.4318 -2.6582  0.6373
  558MOL0     H75279   4.495  -0.076  10.461  0.0470  1.5072 -2.5979
  558MOL0     H75280   4.378  -0.060  10.599 -2.8168 -0.7655 -0.3307
  558MOL0     H75281   4.314  -0.144  10.207 -2.0555 -0.4406 -0.8957
  558MOL0     H75282   4.154  -0.415  10.118  0.7351  0.2455 -2.6378
  558MOL0     H75283   4.295  -0.346  10.069  0.6482  1.1656  0.7077
  558MOL0     H75284   4.308  -0.598  10.253 -4.3141 -0.0288  0.4383
  558MOL0     H75285   4.261  -0.613  10.100  0.8955  0.8876 -0.5542
  558MOL0     H75286   4.463  -0.520  10.002 -0.8936  3.3675  0.0807
  558MOL0     H75287   4.537  -0.635  10.113  1.9116  2.4825  3.3868
  558MOL0     H75288   4.510  -0.342  10.154 -2.1289  0.1936  4.9122
  558MOL0     H75289   4.660  -0.442  10.125 -0.3681  1.7119 -2.0249
  558MOL0     H75290   4.688  -0.200  10.228 -1.1483  1.3188  0.0213
  558MOL0     H75291   4.779  -0.041  10.386 -1.9434  0.0460  0.4163
  558MOL0     H75292   4.935   0.146  10.781  1.5524  5.4944  2.0428
  558MOL0     H75293   4.957   0.291  10.983 -0.9565 -1.1094 -2.4607
  558MOL0     H75294   4.695   0.271  11.244  0.3834  1.8405  0.8487
  558MOL0     H75295   4.796   0.254  11.390  2.8373 -1.5546 -0.1523
  558MOL0     H75296   4.919   0.460  11.299 -1.8389  4.7448 -1.8236
  558MOL0     H75297   4.782   0.483  11.197 -2.4526  1.9951  0.8655
  558MOL0     H75298   4.632   0.466  11.376  0.1910 -2.4845  0.5102
  558MOL0     H75299   4.756   0.453  11.508  0.3710 -0.8629 -1.1354
  558MOL0     H75300   4.727   0.682  11.305 -0.6445  1.6592  0.9618
  558MOL0     H75301   4.855   0.669  11.424  0.1934 -2.5215  0.8127
  558MOL0     H75302   4.695   0.677  11.607 -1.4194 -1.6656  0.5693
  558MOL0     H75303   4.571   0.736  11.484  0.0128 -0.2148  0.6713
  558MOL0     H75304   4.838   0.871  11.567  1.6243  3.2752 -2.7460
  558MOL0     H75305   4.746   0.911  11.423  0.9583 -1.3855 -1.0940
  558MOL0     H75306   4.595   0.900  11.695  2.6937 -3.4244  0.0155
  558MOL0     H75307   4.566   0.992  11.540  1.8197  0.0777 -2.9559
  558MOL0     H75308   4.780   1.020  11.758 -0.4061 -3.1893 -2.2413
  558MOL0     H75309   4.779   1.120  11.605 -1.4829  0.2128 -0.9974
  558MOL0     H75310   4.748   0.017  11.221 -1.4392  0.5366 -0.3852
  558MOL0     H75311   4.733  -0.144  11.030  3.1611 -0.6391  0.9235
  558MOL0     H75312   4.627  -0.284  10.715 -1.8444 -3.2270 -0.6008
  558MOL0     H75313   4.546  -0.432  10.573  1.0726  0.2199  1.8420
  558MOL0     H75314   4.828   0.515  11.005  1.9891  0.6961 -0.3496
  558MOL0     H75315   4.974   0.651  11.137  2.2271  0.4608 -2.6896
  558MOL0     H75316   4.954   1.150  11.272 -0.1186  0.8222  0.3654
  558MOL0     H75317   5.038   1.333  11.400 -0.1299 -0.8800  1.4419
  558MOL0     H75318   5.373   1.240  11.634 -1.9481 -1.7924  1.0895
  558MOL0     H75319   5.216   1.317  11.684 -0.3553  0.7248 -0.1489
  558MOL0     H75320   5.481   1.452  11.614 -2.9193  2.6534 -1.9335
  558MOL0     H75321   5.446   1.393  11.779  4.3730  2.8264 -0.7169
  558MOL0     H75322   5.225   1.571  11.688  1.6465  1.9795 -4.2846
  558MOL0     H75323   5.378   1.647  11.672  1.0831 -1.6625 -1.3514
  558MOL0     H75324   5.272   1.686  11.904  1.2114  0.8017  2.6448
  558MOL0     H75325   5.268   1.509  11.922 -1.1263  1.0311 -1.1096
  558MOL0     H75326   5.658   1.679  12.031  0.1577 -2.3940  0.9828
  558MOL0     H75327   5.418   1.159  11.429  1.1077  0.8651 -2.2058
  558MOL0     H75328   5.357   0.922  11.150  0.5334 -2.7367  0.7797
  558MOL0     H75329   5.484   0.997  11.253 -0.2066 -0.0622  0.5516
  558MOL0     H75330   5.388   0.849  11.298 -1.4676 -0.8964 -1.2971
  559MOL0     O75331   7.112   5.754   7.727  0.0152  0.0746 -0.2640
  559MOL0     C75332   7.143   5.700   7.623  0.2197 -0.2425  0.4875
  559MOL0     O75333   7.264   5.657   7.594  0.4633  0.0439 -0.3031
  559MOL0     C75334   7.346   5.604   7.698  0.2486 -0.1839 -0.2432
  559MOL0     C75335   7.478   5.591   7.664 -0.3920 -0.4378 -0.2315
  559MOL0     C75336   7.567   5.536   7.761  0.4787 -0.0582 -0.4307
  559MOL0     C75337   7.530   5.507   7.896  0.4346 -1.0459  0.9968
  559MOL0     O75338   7.616   5.456   7.989 -0.5795 -0.1107 -0.2060
  559MOL0     C75339   7.726   5.374   7.944  0.0928  0.5603  0.0971
  559MOL0     C75340   7.695   5.225   7.896 -0.6618 -0.3285  0.1652
  559MOL0     C75341   7.621   5.125   7.992 -1.2088 -0.3511 -1.2282
  559MOL0     C75342   7.579   5.159   8.139 -0.0458  0.9917  0.0601
  559MOL0     C75343   7.500   5.043   8.205  0.3237 -0.1934 -0.5381
  559MOL0     C75344   7.353   5.041   8.176 -0.4147 -0.1515  0.3286
  559MOL0     C75345   7.274   4.921   8.226  0.3638  0.3325  0.3706
  559MOL0     C75346   7.143   4.891   8.146 -1.0078  0.0855 -1.1915
  559MOL0     N75347   7.059   5.012   8.152 -0.0378  0.2986 -0.7168
  559MOL0     C75348   7.049   5.119   8.063  0.5925  0.5900  0.5774
  559MOL0     C75349   6.980   5.217   8.119  0.0604  1.6080  0.1118
  559MOL0     C75350   6.955   5.342   8.057  0.7778 -0.9831  0.0355
  559MOL0     C75351   6.804   5.386   8.053 -0.3926  0.5865 -0.5011
  559MOL0     C75352   6.793   5.531   8.004 -0.1314  0.5027 -0.9936
  559MOL0     C75353   6.660   5.582   8.069  0.0096 -0.0840 -0.0763
  559MOL0     O75354   6.607   5.692   8.000  0.0601  0.5419 -0.6413
  559MOL0     C75355   6.542   5.689   7.873  0.1744 -0.4237 -0.1248
  559MOL0     C75356   6.518   5.569   7.807 -0.9944 -0.2665  0.0692
  559MOL0     C75357   6.468   5.564   7.676  0.0899  0.2840 -0.4253
  559MOL0     C75358   6.423   5.680   7.607  0.1711 -1.0502 -0.7526
  559MOL0     C75359   6.364   5.672   7.465  0.1384  0.0246 -0.8792
  559MOL0     O75360   6.382   5.790   7.405 -0.3708  0.5584  0.6492
  559MOL0     C75361   6.358   5.786   7.270  0.4132 -0.7723  0.4408
  559MOL0     C75362   6.453   5.836   7.178  0.1588 -0.8236  0.1300
  559MOL0     C75363   6.419   5.858   7.045 -0.4053 -0.3464  0.4518
  559MOL0     C75364   6.290   5.803   7.001 -0.5510  0.1770  0.0339
  559MOL0     O75365   6.257   5.807   6.872  0.8436 -0.7093  0.1720
  559MOL0     C75366   6.353   5.757   6.779 -0.2983  0.5023  0.9174
  559MOL0     C75367   6.287   5.670   6.671 -0.0389  0.9744 -0.2995
  559MOL0     C75368   6.396   5.585   6.598  0.6326 -0.0254 -0.1163
  559MOL0     C75369   6.474   5.673   6.501 -0.2895  1.0065  1.5447
  559MOL0     C75370   6.588   5.582   6.450  0.1638  0.5269  0.7733
  559MOL0     C75371   6.534   5.458   6.385 -0.0509 -0.6810  0.1160
  559MOL0     C75372   6.640   5.379   6.316 -0.5748 -0.0457 -0.0709
  559MOL0     C75373   6.601   5.232   6.261 -0.4798  0.0307 -0.0572
  559MOL0    Cl75374   6.499   5.270   6.130 -0.3294  0.3126 -0.1112
  559MOL0     C75375   6.194   5.748   7.089  0.0926 -0.5985  0.4548
  559MOL0     C75376   6.227   5.745   7.228  0.0995  0.3255 -0.7983
  559MOL0     O75377   6.325   5.564   7.421 -0.0256 -0.6520 -0.4544
  559MOL0     C75378   6.454   5.802   7.672  0.4709  0.3368  0.6008
  559MOL0     C75379   6.507   5.800   7.804  1.0981 -0.6096 -0.1176
  559MOL0     N75380   6.923   5.164   8.234  0.2917 -1.0401 -0.4433
  559MOL0     N75381   6.980   5.055   8.258 -0.7810  0.6518 -0.2284
  559MOL0     C75382   7.403   5.526   7.932  0.1917  1.4559 -0.3084
  559MOL0     C75383   7.307   5.570   7.829  0.2830  0.9114 -0.1899
  559MOL0     C75384   7.035   5.705   7.519 -0.6156 -0.7322 -0.0232
  559MOL0     C75385   7.057   5.622   7.407 -0.2635 -0.4582  1.0186
  559MOL0     C75386   6.976   5.621   7.294  0.4562  0.1048 -0.3747
  559MOL0     C75387   6.867   5.706   7.292  1.1154 -0.3854 -0.1575
  559MOL0     O75388   6.774   5.703   7.196 -0.2517  0.0317 -0.0089
  559MOL0     C75389   6.736   5.574   7.135 -0.1013 -0.6178 -0.9374
  559MOL0     C75390   6.711   5.603   6.993 -1.2018 -0.4314 -0.2920
  559MOL0     C75391   6.844   5.601   6.922 -1.5612  0.1528 -0.2483
  559MOL0     C75392   6.837   5.574   6.772 -1.3659  0.6436 -0.1696
  559MOL0     C75393   6.810   5.437   6.741  0.5301  0.2175  0.4114
  559MOL0     C75394   6.790   5.320   6.709 -0.1607 -0.1385 -0.0775
  559MOL0     C75395   6.832   5.779   7.401 -0.1711  0.1278  0.4537
  559MOL0     C75396   6.914   5.788   7.515 -0.1571  1.0364  0.6580
  559MOL0     C75397   6.861   5.879   7.615 -0.1053  0.8471  0.8322
  559MOL0     H75398   7.510   5.613   7.563 -1.2283  1.8363 -0.0608
  559MOL0     H75399   7.660   5.493   7.724  2.2593  2.3904  0.9180
  559MOL0     H75400   7.799   5.425   7.881  1.2650 -0.0252  0.9486
  559MOL0     H75401   7.783   5.364   8.037  3.0450  1.5118 -1.4755
  559MOL0     H75402   7.797   5.197   7.866  0.3694  2.0155  1.1333
  559MOL0     H75403   7.635   5.249   7.808  3.0320  2.2863 -1.9551
  559MOL0     H75404   7.682   5.034   7.997  1.4969  1.3339 -1.3343
  559MOL0     H75405   7.534   5.099   7.932 -1.4452 -0.3174 -0.9048
  559MOL0     H75406   7.670   5.184   8.194  0.2621 -0.6185  0.3354
  559MOL0     H75407   7.510   5.244   8.134 -0.1182  1.0649  1.7085
  559MOL0     H75408   7.537   4.945   8.174  0.0647 -1.3821  2.5806
  559MOL0     H75409   7.511   5.048   8.314  1.0505  1.2695 -0.6629
  559MOL0     H75410   7.295   5.125   8.217 -2.1461 -1.5497  0.8629
  559MOL0     H75411   7.346   5.035   8.067 -3.7549  0.0745  0.4097
  559MOL0     H75412   7.246   4.942   8.330 -1.7994  1.9294 -0.4541
  559MOL0     H75413   7.328   4.826   8.227  2.3063  1.3663 -0.7052
  559MOL0     H75414   7.169   4.878   8.041  2.1886  0.6862 -0.5607
  559MOL0     H75415   7.085   4.809   8.190  0.3934  0.4834  1.6215
  559MOL0     H75416   7.090   5.111   7.962  0.0553 -2.1639  0.5196
  559MOL0     H75417   7.016   5.413   8.114  3.2517 -2.5650 -0.4729
  559MOL0     H75418   6.996   5.346   7.955 -0.8605 -1.0131 -0.6533
  559MOL0     H75419   6.762   5.317   7.980 -0.6790 -1.0201  1.1188
  559MOL0     H75420   6.767   5.375   8.155 -0.3057 -0.4499 -0.5802
  559MOL0     H75421   6.796   5.531   7.894  1.7159 -1.4953 -1.0147
  559MOL0     H75422   6.878   5.592   8.034  0.2303 -0.1930 -0.5624
  559MOL0     H75423   6.681   5.611   8.173  0.9622  1.3144 -0.6315
  559MOL0     H75424   6.586   5.502   8.073  1.0447 -1.2428 -2.3202
  559MOL0     H75425   6.545   5.476   7.857  2.1535  1.9528  2.9221
  559MOL0     H75426   6.446   5.468   7.632  0.0430  0.8811 -1.7491
  559MOL0     H75427   6.547   5.887   7.195  1.0019 -1.1992 -2.8161
  559MOL0     H75428   6.491   5.892   6.972 -2.1776  0.1617 -1.1075
  559MOL0     H75429   6.390   5.842   6.720 -1.7191 -0.5437 -1.6386
  559MOL0     H75430   6.436   5.710   6.833 -0.5794 -2.6524 -1.0984
  559MOL0     H75431   6.232   5.588   6.718  2.4180 -1.9856 -2.1576
  559MOL0     H75432   6.225   5.705   6.587 -2.6059 -1.2576  0.5266
  559MOL0     H75433   6.462   5.540   6.673  0.2818  1.3240  1.0517
  559MOL0     H75434   6.333   5.507   6.556 -0.5478  0.3908  0.8234
  559MOL0     H75435   6.519   5.756   6.555  1.6085 -0.4894  2.3787
  559MOL0     H75436   6.407   5.705   6.421  0.2476 -3.4461 -1.0309
  559MOL0     H75437   6.647   5.538   6.531 -1.0573 -0.0275  1.3883
  559MOL0     H75438   6.660   5.633   6.386  1.7927 -0.2809  1.8729
  559MOL0     H75439   6.491   5.385   6.454  0.0366  0.2115  1.1391
  559MOL0     H75440   6.453   5.496   6.322  0.1251 -0.2740  0.1295
  559MOL0     H75441   6.719   5.372   6.391 -0.8726  3.9648  0.8282
  559MOL0     H75442   6.680   5.440   6.235 -0.5415  2.5090  1.7203
  559MOL0     H75443   6.689   5.179   6.223  1.1668  2.0618  0.7036
  559MOL0     H75444   6.550   5.164   6.330  3.0387 -1.0447  1.7010
  559MOL0     H75445   6.093   5.720   7.060 -0.0551 -1.5418  1.7941
  559MOL0     H75446   6.158   5.723   7.308  1.4521 -0.2223  0.2702
  559MOL0     H75447   6.426   5.898   7.629 -3.0317 -0.7198  0.1732
  559MOL0     H75448   6.532   5.891   7.857 -0.3879 -1.1413  1.6008
  559MOL0     H75449   7.363   5.514   8.032  1.3171 -0.7351 -0.0723
  559MOL0     H75450   7.207   5.589   7.866 -1.1685  0.0691 -3.3843
  559MOL0     H75451   7.153   5.573   7.412  0.8340  1.6451  1.8436
  559MOL0     H75452   7.009   5.550   7.220  0.5728  1.1054 -1.3161
  559MOL0     H75453   6.646   5.551   7.192  0.6792  0.1820  0.7083
  559MOL0     H75454   6.806   5.491   7.149  0.0560 -0.1619  1.3244
  559MOL0     H75455   6.675   5.706   6.991  3.7142  1.5546  0.0873
  559MOL0     H75456   6.635   5.529   6.964  0.3062 -2.2940  0.3161
  559MOL0     H75457   6.904   5.522   6.970  0.3282  1.8046  0.2363
  559MOL0     H75458   6.891   5.698   6.940 -1.7028 -0.2868  3.3238
  559MOL0     H75459   6.763   5.639   6.723 -0.0731  1.1332 -1.5662
  559MOL0     H75460   6.940   5.584   6.737  0.1621 -0.1059  3.6517
  559MOL0     H75461   6.776   5.219   6.678 -2.1823  0.4671 -1.3562
  559MOL0     H75462   6.738   5.832   7.388 -2.0501 -3.5095 -3.5458
  559MOL0     H75463   6.760   5.842   7.634 -0.1320  0.0614 -0.6636
  559MOL0     H75464   6.918   5.871   7.708  1.3392 -0.0209 -0.0712
  559MOL0     H75465   6.860   5.985   7.589  0.4413  0.5536 -0.5044
  560MOL0     O75466   0.289  11.113   0.277  0.5877  0.1549  0.0073
  560MOL0     C75467   0.230  11.160   0.375  0.2023 -1.0139  0.6225
  560MOL0     O75468   0.260  11.277   0.433  0.2385  0.6497 -0.8123
  560MOL0     C75469   0.372  11.350   0.402 -0.5558  0.1537  0.2602
  560MOL0     C75470   0.504  11.315   0.423 -0.1095  0.0165 -0.4936
  560MOL0     C75471   0.608  11.404   0.387  0.5550  0.3694 -0.1472
  560MOL0     C75472   0.583  11.512   0.291 -0.2441  0.4206  0.1935
  560MOL0     O75473   0.678  11.601   0.258  0.4860 -0.1984 -0.2841
  560MOL0     C75474   0.812  11.559   0.234  0.3373 -0.4976 -0.1467
  560MOL0     C75475   0.815  11.436   0.140 -0.7203 -0.0427  0.0420
  560MOL0     C75476   0.963  11.404   0.094 -0.3810  0.3181  0.5559
  560MOL0     C75477   1.052  11.366   0.204 -0.2825  0.9378 -0.0029
  560MOL0     C75478   1.004  11.236   0.286  0.9328 -0.3406 -0.4879
  560MOL0     C75479   1.110  11.207   0.389 -0.3126 -0.6243 -0.2122
  560MOL0     C75480   1.078  11.093   0.482 -0.1412  0.1339  0.5117
  560MOL0     C75481   1.179  11.064   0.593 -0.1948 -0.8590  0.0378
  560MOL0     N75482   1.305  11.006   0.547 -0.3066 -0.7199 -0.0589
  560MOL0     C75483   1.326  10.876   0.525 -0.9470 -0.1505 -0.3560
  560MOL0     C75484   1.444  10.863   0.480 -0.0600 -0.7480  0.1014
  560MOL0     C75485   1.520  10.734   0.438 -0.8854  0.6340  0.2398
  560MOL0     C75486   1.551  10.710   0.286 -0.0461  0.0393 -1.0512
  560MOL0     C75487   1.422  10.699   0.199 -0.5302 -0.3026  0.0711
  560MOL0     C75488   1.451  10.658   0.052 -0.4211  0.1486  1.0772
  560MOL0     O75489   1.515  10.527   0.042  0.0678 -0.3186  0.6056
  560MOL0     C75490   1.538  10.494  -0.096 -0.3079 -0.6500 -0.8097
  560MOL0     C75491   1.493  10.365  -0.127 -0.6467  1.0865 -0.1242
  560MOL0     C75492   1.523  10.311  -0.255 -1.0474 -1.0391  0.4781
  560MOL0     C75493   1.582  10.389  -0.354  0.6589 -0.5468  0.3270
  560MOL0     C75494   1.615  10.325  -0.488  0.6360 -0.0796 -0.0636
  560MOL0     O75495   1.696  10.403  -0.566  0.4108  0.1749 -0.6740
  560MOL0     C75496   1.712  10.379  -0.710  0.3352 -1.0231 -0.1749
  560MOL0     C75497   1.695  10.488  -0.798 -0.5667 -0.6335 -1.1032
  560MOL0     C75498   1.706  10.471  -0.935  0.3949 -0.6949  0.3751
  560MOL0     C75499   1.723  10.343  -0.997  0.2120  0.4643  0.4107
  560MOL0     O75500   1.714  10.308  -1.135  0.0176  1.1841  0.3043
  560MOL0     C75501   1.625  10.379  -1.217 -0.1606 -0.5683 -0.2250
  560MOL0     C75502   1.601  10.308  -1.344  0.1822  0.3839 -0.4111
  560MOL0     C75503   1.715  10.305  -1.446  0.0011 -0.0988  0.1846
  560MOL0     C75504   1.645  10.228  -1.569 -0.4862 -0.0973 -1.0528
  560MOL0     C75505   1.754  10.198  -1.677  0.4351  0.2173 -0.0336
  560MOL0     C75506   1.703  10.142  -1.803 -0.4785  0.4680 -0.6641
  560MOL0     C75507   1.591  10.231  -1.877 -0.1842  0.6768 -0.3488
  560MOL0     C75508   1.539  10.180  -2.011 -0.5326  0.7958 -0.7857
  560MOL0    Cl75509   1.655  10.210  -2.147 -0.0473  0.3347  0.1015
  560MOL0     C75510   1.742  10.238  -0.911 -0.3135  0.4531 -1.3213
  560MOL0     C75511   1.725  10.252  -0.769  0.7902  0.7196  0.4191
  560MOL0     O75512   1.564  10.225  -0.526 -0.2561  0.7402  0.4723
  560MOL0     C75513   1.628  10.517  -0.326 -1.3175 -0.0051  0.1058
  560MOL0     C75514   1.610  10.573  -0.197  0.3152 -0.5479  0.3660
  560MOL0     N75515   1.511  10.983   0.491  0.5871 -0.3448 -1.0113
  560MOL0     N75516   1.419  11.075   0.521 -0.6353 -0.3923  0.3929
  560MOL0     C75517   0.450  11.541   0.258 -0.1113  0.7839 -0.6470
  560MOL0     C75518   0.349  11.459   0.319 -0.0905  0.4194 -0.0365
  560MOL0     C75519   0.112  11.081   0.433  0.3227 -0.4178 -0.9125
  560MOL0     C75520   0.076  10.957   0.365 -0.4693 -0.0914  0.3253
  560MOL0     C75521  -0.037  10.886   0.400 -0.0037  0.3980  0.1894
  560MOL0     C75522  -0.108  10.923   0.517 -0.2595  1.4749 -0.4931
  560MOL0     O75523  -0.203  10.829   0.547  0.1578  0.3113  0.3278
  560MOL0     C75524  -0.284  10.836   0.667  0.2115 -0.3947 -1.2015
  560MOL0     C75525  -0.212  10.751   0.766 -0.4361 -0.1890 -0.2596
  560MOL0     C75526  -0.273  10.613   0.776  0.4980  0.1038 -0.1094
  560MOL0     C75527  -0.192  10.515   0.860  0.1263  0.0510  0.2974
  560MOL0     C75528  -0.048  10.512   0.826  0.3221  0.4432 -0.2363
  560MOL0     C75529   0.069  10.522   0.800  0.3992  1.0061  0.3964
  560MOL0     C75530  -0.071  11.041   0.591 -0.1743 -0.9256  0.4500
  560MOL0     C75531   0.042  11.117   0.552  0.3742  0.7663  0.3889
  560MOL0     C75532   0.060  11.244   0.634 -0.7241  0.3076  0.4997
  560MOL0     H75533   0.515  11.229   0.488 -0.6769  0.5925  0.3863
  560MOL0     H75534   0.709  11.399   0.425  0.1250  0.5539  1.0745
  560MOL0     H75535   0.871  11.644   0.197 -0.3027 -0.5444 -1.3494
  560MOL0     H75536   0.872  11.540   0.323  1.6696  0.9311 -0.6874
  560MOL0     H75537   0.763  11.468   0.049 -0.0188 -0.7669 -0.6362
  560MOL0     H75538   0.760  11.349   0.178 -1.9507 -0.0004 -1.5294
  560MOL0     H75539   1.006  11.487   0.037 -1.6384  0.3314 -0.4225
  560MOL0     H75540   0.967  11.329   0.015 -2.2716  0.9048 -0.1408
  560MOL0     H75541   1.155  11.358   0.168 -0.0052  1.1396  0.7265
  560MOL0     H75542   1.070  11.450   0.272 -0.3240  0.8964  0.0596
  560MOL0     H75543   0.911  11.262   0.338  0.9104 -1.4192  0.0305
  560MOL0     H75544   0.999  11.144   0.226  0.1760 -1.0582  0.6320
  560MOL0     H75545   1.205  11.167   0.351 -0.1635 -0.4874  0.0123
  560MOL0     H75546   1.127  11.285   0.464 -2.5858  1.0176 -1.2815
  560MOL0     H75547   1.072  11.008   0.413  2.0161  0.6517 -0.3948
  560MOL0     H75548   0.988  11.119   0.538 -0.8531 -0.8882 -0.1375
  560MOL0     H75549   1.200  11.156   0.648 -0.4672 -2.8132  3.7596
  560MOL0     H75550   1.156  10.992   0.673 -1.4430 -0.6336 -0.1063
  560MOL0     H75551   1.249  10.799   0.527 -0.1948 -0.9032  0.1319
  560MOL0     H75552   1.615  10.747   0.491 -0.0581  0.8489 -1.2397
  560MOL0     H75553   1.480  10.644   0.486  2.2545 -2.6168 -2.6150
  560MOL0     H75554   1.620  10.776   0.235 -1.0975  0.4160 -2.0406
  560MOL0     H75555   1.606  10.616   0.293 -0.1787  0.0616  2.4185
  560MOL0     H75556   1.370  10.795   0.204 -1.1229 -0.3078 -3.4430
  560MOL0     H75557   1.357  10.622   0.241  0.0520 -1.6154 -1.3453
  560MOL0     H75558   1.513  10.734   0.005 -0.2483 -0.4072  0.3905
  560MOL0     H75559   1.362  10.665  -0.011  2.2896  1.4441 -3.0083
  560MOL0     H75560   1.428  10.304  -0.065 -0.4557 -0.6459 -1.5499
  560MOL0     H75561   1.491  10.211  -0.281 -2.5891 -0.1901 -1.1298
  560MOL0     H75562   1.689  10.583  -0.745  3.0826 -0.4645 -0.7577
  560MOL0     H75563   1.716  10.555  -1.003 -1.5190  1.9732  3.1475
  560MOL0     H75564   1.527  10.398  -1.171  1.1909 -0.0259  2.6025
  560MOL0     H75565   1.681  10.471  -1.234  2.9455 -2.6564 -2.4132
  560MOL0     H75566   1.583  10.204  -1.315 -1.5606  1.3185  2.2443
  560MOL0     H75567   1.508  10.340  -1.393  0.1435  3.2355  1.3068
  560MOL0     H75568   1.742  10.405  -1.479 -1.5950  0.0184 -0.8156
  560MOL0     H75569   1.807  10.266  -1.400  2.0487  2.3030 -1.5840
  560MOL0     H75570   1.573  10.303  -1.603  0.0589  1.4400  0.9450
  560MOL0     H75571   1.600  10.129  -1.556  0.7972 -0.5981 -0.2053
  560MOL0     H75572   1.821  10.128  -1.627  2.2174  2.2371  0.5811
  560MOL0     H75573   1.832  10.273  -1.694 -1.6957  2.6361  0.0937
  560MOL0     H75574   1.795  10.128  -1.861 -0.1638  0.2807 -0.1234
  560MOL0     H75575   1.662  10.044  -1.778 -0.2884  0.2081 -1.3577
  560MOL0     H75576   1.645  10.317  -1.918  2.1693 -1.4639 -2.1030
  560MOL0     H75577   1.517  10.255  -1.801  0.2926 -1.4926  0.9177
  560MOL0     H75578   1.526  10.072  -2.004  0.8680  0.6473 -0.1358
  560MOL0     H75579   1.440  10.220  -2.035 -0.6926  1.5222  0.9419
  560MOL0     H75580   1.754  10.134  -0.942  0.4762 -0.4030  1.5537
  560MOL0     H75581   1.706  10.174  -0.697 -4.4269  1.4433  0.1843
  560MOL0     H75582   1.694  10.581  -0.385  0.2263 -1.6192 -0.0016
  560MOL0     H75583   1.642  10.673  -0.169 -0.7888 -0.3485  0.9985
  560MOL0     H75584   0.427  11.624   0.193  0.1413  3.7296  2.6804
  560MOL0     H75585   0.248  11.474   0.285 -0.4147 -1.2700  0.0862
  560MOL0     H75586   0.137  10.912   0.287 -0.8455 -0.1212  0.0419
  560MOL0     H75587  -0.064  10.796   0.346 -3.5577  1.3360  0.1215
  560MOL0     H75588  -0.385  10.801   0.646 -0.0640  0.5144 -1.4441
  560MOL0     H75589  -0.290  10.934   0.714  1.5771 -0.7088 -0.3219
  560MOL0     H75590  -0.211  10.795   0.866  3.0698 -0.8181  0.1127
  560MOL0     H75591  -0.106  10.746   0.736 -0.2749  0.1029  0.2522
  560MOL0     H75592  -0.273  10.577   0.673  0.5737  2.6122 -1.0491
  560MOL0     H75593  -0.372  10.618   0.822 -0.6524  3.2242 -2.6232
  560MOL0     H75594  -0.192  10.553   0.962 -1.4698 -1.6115  0.9750
  560MOL0     H75595  -0.233  10.414   0.872 -0.1423  0.0673 -0.4218
  560MOL0     H75596   0.165  10.526   0.753 -0.6114 -0.6496 -1.9915
  560MOL0     H75597  -0.125  11.068   0.681 -1.9996 -1.1934 -0.5177
  560MOL0     H75598   0.041  11.330   0.570  0.6141 -0.1872 -0.6213
  560MOL0     H75599  -0.004  11.239   0.723 -1.6667 -0.7751 -0.2073
  560MOL0     H75600   0.162  11.240   0.673  0.2146 -3.4788 -1.8066
  561MOL0     O75601  10.900   9.943   5.418 -0.1707 -0.7292 -0.7900
  561MOL0     C75602  10.908   9.953   5.539  0.4835  0.3637  0.5556
  561MOL0     O75603  10.947  10.060   5.607  0.1634 -0.4058  0.2305
  561MOL0     C75604  11.014  10.164   5.548  0.2975 -0.2087 -0.1837
  561MOL0     C75605  10.971  10.232   5.432  0.3195 -0.0224 -0.1383
  561MOL0     C75606  11.044  10.328   5.364 -1.1307  0.4319 -0.0602
  561MOL0     C75607  11.173  10.365   5.424  0.6311 -0.5858  0.0094
  561MOL0     O75608  11.253  10.466   5.365  0.9518  0.2321  0.5459
  561MOL0     C75609  11.257  10.470   5.214  0.3984 -0.5020 -0.4485
  561MOL0     C75610  11.319  10.609   5.184 -0.8008 -0.2283  0.5704
  561MOL0     C75611  11.212  10.712   5.142 -0.1017  0.3364 -0.0980
  561MOL0     C75612  11.124  10.760   5.254 -0.9819 -0.3722 -0.0994
  561MOL0     C75613  11.018  10.858   5.198 -0.1564 -0.6392  0.0674
  561MOL0     C75614  11.081  10.991   5.186  0.2410 -0.3467 -0.4298
  561MOL0     C75615  10.985  11.109   5.145 -0.4498 -0.0491 -0.3147
  561MOL0     C75616  11.066  11.241   5.127 -0.0162  0.2139 -0.6158
  561MOL0     N75617  11.082  11.325   5.248 -0.4072  0.1226 -0.0288
  561MOL0     C75618  11.172  11.312   5.350 -0.9527 -0.5350 -0.2923
  561MOL0     C75619  11.119  11.383   5.443 -0.7275  0.5357 -0.6710
  561MOL0     C75620  11.179  11.399   5.575 -0.1823 -0.5030  0.2553
  561MOL0     C75621  11.100  11.341   5.692 -0.3077 -0.3687 -0.1505
  561MOL0     C75622  10.990  11.428   5.762 -0.3818 -1.2105  0.0143
  561MOL0     C75623  11.055  11.483   5.903  0.2020  0.1462  0.4730
  561MOL0     O75624  11.177  11.560   5.890  0.4138  0.4804  0.5307
  561MOL0     C75625  11.184  11.663   5.814  0.4449 -0.3179  0.4699
  561MOL0     C75626  11.299  11.707   5.748  0.7595 -0.4311 -0.0550
  561MOL0     C75627  11.295  11.827   5.688  0.1066  1.1740  0.1104
  561MOL0     C75628  11.185  11.914   5.695 -0.1567 -0.3931  0.1505
  561MOL0     C75629  11.193  12.051   5.637 -0.0978  0.0895  0.8047
  561MOL0     O75630  11.327  12.089   5.609  0.7722  0.5120  0.8747
  561MOL0     C75631  11.346  12.205   5.541 -0.2301 -0.3533  0.0035
  561MOL0     C75632  11.416  12.320   5.593  0.7444 -0.1727  0.2791
  561MOL0     C75633  11.468  12.420   5.508  0.7149  0.0427  0.9120
  561MOL0     C75634  11.443  12.420   5.368 -0.0082  0.0882 -0.3200
  561MOL0     O75635  11.495  12.509   5.270 -0.2092 -0.1535  0.0681
  561MOL0     C75636  11.519  12.640   5.308  0.2042  0.3438 -0.1026
  561MOL0     C75637  11.528  12.728   5.183  0.1587 -0.1662  0.7824
  561MOL0     C75638  11.576  12.869   5.216  0.5700 -0.5851 -0.6067
  561MOL0     C75639  11.719  12.895   5.290  0.2936 -0.1554 -0.8591
  561MOL0     C75640  11.780  13.029   5.245 -1.6018 -0.2495 -0.7720
  561MOL0     C75641  11.705  13.154   5.296 -0.0851  0.3107  0.6389
  561MOL0     C75642  11.764  13.204   5.433 -0.3007 -0.5626  0.7439
  561MOL0     C75643  11.666  13.273   5.525 -0.7407 -0.6298  0.4601
  561MOL0    Cl75644  11.536  13.169   5.584 -0.1645  0.4968  0.0339
  561MOL0     C75645  11.383  12.306   5.316 -0.5496  0.5677  0.2118
  561MOL0     C75646  11.332  12.196   5.398  0.3314 -0.2172 -0.6088
  561MOL0     O75647  11.097  12.122   5.648 -0.4689 -0.7646 -0.0370
  561MOL0     C75648  11.068  11.866   5.751  0.2546  0.2240  0.3460
  561MOL0     C75649  11.065  11.739   5.816 -0.4891 -0.8337 -0.5803
  561MOL0     N75650  11.005  11.448   5.401  0.7590 -0.4665  0.1799
  561MOL0     N75651  10.984  11.404   5.282  0.4887 -0.1143 -0.8625
  561MOL0     C75652  11.214  10.310   5.547 -0.0173  0.0527 -0.2372
  561MOL0     C75653  11.138  10.197   5.595  0.8263  0.1720 -0.0020
  561MOL0     C75654  10.873   9.838   5.628 -0.8843  1.9248  0.8551
  561MOL0     C75655  10.779   9.760   5.569 -0.9909 -0.0264  0.2289
  561MOL0     C75656  10.727   9.650   5.642  0.5995  0.5975 -0.2145
  561MOL0     C75657  10.776   9.620   5.764 -1.0747 -0.3388 -0.7991
  561MOL0     O75658  10.727   9.513   5.833  0.3569  0.2381 -0.0873
  561MOL0     C75659  10.810   9.397   5.856 -0.3646  0.9147 -0.2764
  561MOL0     C75660  10.715   9.274   5.848 -0.7010  0.7542 -0.1438
  561MOL0     C75661  10.691   9.238   5.699 -0.3507  0.5054  0.3802
  561MOL0     C75662  10.576   9.146   5.679 -0.6108 -0.6141 -1.2702
  561MOL0     C75663  10.595   9.006   5.715 -1.2044  1.6432 -0.0640
  561MOL0     C75664  10.584   8.887   5.745  0.1251  0.1251  0.2511
  561MOL0     C75665  10.882   9.696   5.820  0.0155 -0.4388 -0.0080
  561MOL0     C75666  10.927   9.813   5.759 -0.2562  0.5519  0.9108
  561MOL0     C75667  11.036   9.897   5.814 -1.6029 -0.5719 -0.2677
  561MOL0     H75668  10.885  10.185   5.384  1.3726 -1.0732 -1.0412
  561MOL0     H75669  10.997  10.368   5.275  1.7160  2.4794 -0.7934
  561MOL0     H75670  11.323  10.389   5.181  2.1200  0.4846  0.4060
  561MOL0     H75671  11.161  10.456   5.164  1.2048 -2.0642 -1.6354
  561MOL0     H75672  11.394  10.597   5.104 -1.0956 -1.0188  0.4074
  561MOL0     H75673  11.378  10.656   5.263  2.2026  1.7470 -2.5705
  561MOL0     H75674  11.151  10.667   5.063 -1.7836  3.1916 -0.5719
  561MOL0     H75675  11.261  10.797   5.094  2.1298 -0.5695  0.4408
  561MOL0     H75676  11.086  10.667   5.296 -3.1292  0.3826 -0.2630
  561MOL0     H75677  11.182  10.811   5.332  0.2692 -1.1206 -0.5036
  561MOL0     H75678  10.972  10.826   5.103  1.3183  0.2075 -0.9662
  561MOL0     H75679  10.933  10.877   5.264  0.0112  0.6780 -0.0809
  561MOL0     H75680  11.124  11.011   5.285  0.2059 -1.7721 -0.1157
  561MOL0     H75681  11.152  11.002   5.104 -1.5256  2.0927 -1.7810
  561MOL0     H75682  10.918  11.137   5.226  0.6843  2.0711 -0.0326
  561MOL0     H75683  10.928  11.075   5.058  0.4940  1.0781 -1.4039
  561MOL0     H75684  11.159  11.211   5.079 -0.9774 -1.9780 -1.2490
  561MOL0     H75685  11.006  11.301   5.057  0.0750  0.6902 -0.2863
  561MOL0     H75686  11.246  11.234   5.364 -0.8156 -0.4810 -0.6991
  561MOL0     H75687  11.282  11.363   5.580  1.9716  4.5645 -1.0289
  561MOL0     H75688  11.204  11.505   5.587  2.7013 -0.8811 -1.3338
  561MOL0     H75689  11.043  11.250   5.671 -0.0054 -0.7228  0.5159
  561MOL0     H75690  11.163  11.310   5.776 -1.9269 -1.1436  0.8252
  561MOL0     H75691  10.901  11.368   5.782 -0.1776 -1.5667 -0.1324
  561MOL0     H75692  10.966  11.514   5.699  1.1224 -2.3550 -2.2545
  561MOL0     H75693  11.082  11.393   5.960  1.8128 -0.2637 -0.8597
  561MOL0     H75694  10.971  11.533   5.952 -2.4206 -0.7737 -2.6853
  561MOL0     H75695  11.373  11.634   5.721  1.6976  0.6962 -0.6078
  561MOL0     H75696  11.393  11.866   5.662  0.5831 -1.3613 -2.3256
  561MOL0     H75697  11.441  12.331   5.698 -0.7645  2.3772  0.4568
  561MOL0     H75698  11.522  12.507   5.543  4.9937 -3.3795  4.0190
  561MOL0     H75699  11.435  12.677   5.367 -1.5260 -1.7645 -1.1117
  561MOL0     H75700  11.607  12.637   5.374 -0.6153  0.8429  1.0481
  561MOL0     H75701  11.588  12.692   5.098 -0.6537  0.9090 -0.2934
  561MOL0     H75702  11.429  12.746   5.140  0.3754  2.0299  1.0746
  561MOL0     H75703  11.582  12.904   5.113  1.0968 -2.5063 -1.2763
  561MOL0     H75704  11.504  12.926   5.276 -1.3415  0.1847 -3.4171
  561MOL0     H75705  11.791  12.815   5.270 -0.1800 -1.7726  3.1169
  561MOL0     H75706  11.706  12.900   5.398 -2.1440 -0.6211 -1.0683
  561MOL0     H75707  11.778  13.024   5.136  0.3207  0.0410 -0.8671
  561MOL0     H75708  11.885  13.044   5.274 -1.5339  0.2654 -1.2644
  561MOL0     H75709  11.721  13.222   5.211  0.0306 -1.0198 -0.4331
  561MOL0     H75710  11.599  13.129   5.305  0.4726 -2.8230 -0.2043
  561MOL0     H75711  11.854  13.264   5.418 -0.4142 -0.5063  0.2699
  561MOL0     H75712  11.795  13.116   5.489 -0.3225 -1.5072 -0.6910
  561MOL0     H75713  11.723  13.307   5.612 -0.5061 -0.2676  0.1676
  561MOL0     H75714  11.619  13.362   5.482 -2.2153 -0.4695  2.2691
  561MOL0     H75715  11.392  12.298   5.208  0.5602  2.9263  0.0747
  561MOL0     H75716  11.293  12.101   5.362 -1.4838  0.1134  0.3591
  561MOL0     H75717  10.979  11.928   5.762  0.2282  0.4304 -0.8703
  561MOL0     H75718  10.974  11.715   5.871  0.8293  1.8665  3.2961
  561MOL0     H75719  11.290  10.357   5.607  0.4945 -1.0863  0.0219
  561MOL0     H75720  11.162  10.167   5.697 -0.9094  2.9830  1.3950
  561MOL0     H75721  10.747   9.780   5.467  0.6330  0.9637 -0.1164
  561MOL0     H75722  10.647   9.583   5.614  1.6652 -2.8749  3.9043
  561MOL0     H75723  10.847   9.410   5.958 -3.0457  2.4304  0.6035
  561MOL0     H75724  10.885   9.381   5.778 -1.5734 -3.2192 -0.8547
  561MOL0     H75725  10.629   9.292   5.913  1.0506  0.0956  2.5105
  561MOL0     H75726  10.761   9.190   5.900 -0.1157  1.8940  1.2669
  561MOL0     H75727  10.776   9.179   5.664 -3.2131 -1.6412 -3.6842
  561MOL0     H75728  10.691   9.326   5.636 -0.8654 -0.5105 -1.0827
  561MOL0     H75729  10.494   9.186   5.739 -1.0664 -0.2793 -2.1020
  561MOL0     H75730  10.547   9.143   5.574  0.5503 -1.5959 -1.5852
  561MOL0     H75731  10.565   8.790   5.788 -4.2822  1.5743  2.2094
  561MOL0     H75732  10.911   9.666   5.921  0.9549 -2.1521 -0.7376
  561MOL0     H75733  11.078   9.847   5.902 -0.6187 -1.4247 -1.1887
  561MOL0     H75734  11.116   9.899   5.739  0.1850  0.8081  1.5744
  561MOL0     H75735  11.001   9.996   5.843 -0.0779 -0.7481  2.5308
  562MOL0     O75736   6.923   2.745  10.758  0.2575  0.2993  0.1972
  562MOL0     C75737   6.956   2.772  10.640  0.1262  0.1032 -0.2614
  562MOL0     O75738   6.968   2.899  10.585  0.4645 -0.3152 -0.3092
  562MOL0     C75739   6.888   2.992  10.652 -0.2148  0.2899  0.3777
  562MOL0     C75740   6.750   3.021  10.632  0.7247 -0.8875  0.6234
  562MOL0     C75741   6.686   3.119  10.704 -0.5477 -0.0491  0.5567
  562MOL0     C75742   6.755   3.197  10.798 -0.0835 -0.3898  0.1496
  562MOL0     O75743   6.693   3.289  10.875 -0.2134 -1.0193  0.0490
  562MOL0     C75744   6.604   3.391  10.821  0.3492  0.9255 -0.2209
  562MOL0     C75745   6.458   3.362  10.865 -0.0307  0.9834 -0.5684
  562MOL0     C75746   6.359   3.475  10.844  0.3843  0.5025  1.0746
  562MOL0     C75747   6.223   3.431  10.894  0.6526 -0.8758 -0.8797
  562MOL0     C75748   6.115   3.541  10.886 -0.2848  0.2647 -0.2564
  562MOL0     C75749   6.140   3.656  10.985 -0.2834 -0.3643 -0.2599
  562MOL0     C75750   6.087   3.624  11.122  0.2653  0.3157 -0.8499
  562MOL0     C75751   6.081   3.769  11.185 -0.3321 -0.5726  0.3891
  562MOL0     N75752   6.098   3.767  11.330 -1.0112 -0.0870  0.0698
  562MOL0     C75753   6.190   3.684  11.388 -0.5437 -0.7220 -0.6188
  562MOL0     C75754   6.172   3.706  11.520 -0.3042 -0.4840  0.1131
  562MOL0     C75755   6.241   3.650  11.638 -0.1528 -0.8301  0.6296
  562MOL0     C75756   6.163   3.518  11.678  0.1784 -0.7382  0.9852
  562MOL0     C75757   6.172   3.398  11.583 -0.6507 -0.0243  0.0218
  562MOL0     C75758   6.086   3.284  11.632  1.3068  0.7281 -0.5560
  562MOL0     O75759   6.145   3.199  11.745  0.2571  0.7531  0.5784
  562MOL0     C75760   6.061   3.132  11.827  0.6082 -0.4381  0.3269
  562MOL0     C75761   5.949   3.065  11.775  0.6505  0.1322  0.6248
  562MOL0     C75762   5.857   2.996  11.865 -0.0277 -0.2295  0.6189
  562MOL0     C75763   5.883   3.004  12.010 -0.6702 -0.9115  0.1626
  562MOL0     C75764   5.787   2.938  12.109 -0.2314  0.3953  0.9694
  562MOL0     O75765   5.806   2.956  12.242 -0.2221 -0.3952  0.7849
  562MOL0     C75766   5.717   2.900  12.332  0.4118  0.1720  0.0155
  562MOL0     C75767   5.719   2.984  12.449 -0.4287  1.2512 -0.6115
  562MOL0     C75768   5.633   2.965  12.554  0.1024  0.0151 -0.3572
  562MOL0     C75769   5.543   2.866  12.552 -0.0426 -1.1116  0.3450
  562MOL0     O75770   5.451   2.856  12.651 -0.1214  0.5010 -0.7963
  562MOL0     C75771   5.412   2.724  12.687 -0.9556 -0.5812 -1.3929
  562MOL0     C75772   5.400   2.688  12.844 -0.4395  0.5734  1.3066
  562MOL0     C75773   5.514   2.751  12.916 -0.6096 -0.4128 -0.4999
  562MOL0     C75774   5.482   2.813  13.052  0.5761  0.3849 -0.5223
  562MOL0     C75775   5.617   2.865  13.100  0.2261 -0.3427 -0.3511
  562MOL0     C75776   5.625   2.926  13.246  0.3359 -0.1634  0.4598
  562MOL0     C75777   5.589   2.833  13.366  0.1204 -0.3213  0.4903
  562MOL0     C75778   5.552   2.919  13.488  0.7278  0.0874  1.0413
  562MOL0    Cl75779   5.385   2.976  13.473  0.0842  0.1221  0.0605
  562MOL0     C75780   5.527   2.787  12.433  0.4114 -0.2160 -0.7179
  562MOL0     C75781   5.611   2.802  12.324 -0.1048  0.6151 -0.2496
  562MOL0     O75782   5.691   2.873  12.053  0.7373  0.4003  0.2935
  562MOL0     C75783   5.988   3.086  12.056 -0.1867 -0.7481 -0.4484
  562MOL0     C75784   6.079   3.137  11.967 -0.6898  0.1821  0.4390
  562MOL0     N75785   6.086   3.815  11.532  0.1775 -0.7120 -0.6926
  562MOL0     N75786   6.040   3.845  11.417  0.5408 -0.1523  1.0423
  562MOL0     C75787   6.890   3.155  10.829 -0.6193  0.2325 -0.7051
  562MOL0     C75788   6.952   3.058  10.755 -0.1004 -0.2300  0.5396
  562MOL0     C75789   7.018   2.681  10.543 -0.3209  0.1350  0.5873
  562MOL0     C75790   7.096   2.734  10.435 -0.2145 -0.6389 -0.4910
  562MOL0     C75791   7.156   2.654  10.339 -0.0005 -0.5202  0.5752
  562MOL0     C75792   7.126   2.518  10.332  0.2557 -0.9561  0.4543
  562MOL0     O75793   7.156   2.426  10.232  0.4800  0.0025 -0.1334
  562MOL0     C75794   7.240   2.470  10.115 -0.2317  0.1088  0.5777
  562MOL0     C75795   7.389   2.434  10.148 -0.6096 -0.3461 -0.2984
  562MOL0     C75796   7.451   2.362  10.026 -1.8301  0.4060  0.0706
  562MOL0     C75797   7.479   2.463   9.912  1.1442  0.2556 -0.1818
  562MOL0     C75798   7.570   2.396   9.816  0.3346 -0.2498 -0.1242
  562MOL0     C75799   7.645   2.342   9.737 -0.7367 -0.4177  1.0504
  562MOL0     C75800   7.043   2.469  10.432 -0.7455  1.3398 -0.6491
  562MOL0     C75801   6.991   2.544  10.536  0.4655 -0.4197  0.0284
  562MOL0     C75802   6.892   2.479  10.628 -0.0688 -0.2579 -0.0985
  562MOL0     H75803   6.692   2.963  10.561  1.3837 -0.5713 -0.1908
  562MOL0     H75804   6.582   3.136  10.681 -0.1888  2.2922  0.3435
  562MOL0     H75805   6.634   3.489  10.860 -0.5481  1.3618 -0.5841
  562MOL0     H75806   6.615   3.394  10.713 -1.6599 -3.6517 -0.7670
  562MOL0     H75807   6.455   3.346  10.973  0.9159  0.9393 -0.5365
  562MOL0     H75808   6.434   3.267  10.817 -0.2404  0.5311  0.4131
  562MOL0     H75809   6.363   3.496  10.737  0.4152  0.3961  1.0555
  562MOL0     H75810   6.377   3.572  10.893 -2.0035  3.4591 -3.2674
  562MOL0     H75811   6.181   3.347  10.838 -3.0301  0.6812 -0.7099
  562MOL0     H75812   6.225   3.395  10.997  2.9335  1.7020  0.1070
  562MOL0     H75813   6.127   3.583  10.785  2.4081 -1.8982 -0.9654
  562MOL0     H75814   6.020   3.488  10.894  1.4007 -2.7035  2.0673
  562MOL0     H75815   6.248   3.672  10.999 -0.4587  1.6862 -0.9038
  562MOL0     H75816   6.095   3.748  10.947 -0.0802  0.8989  2.3372
  562MOL0     H75817   6.142   3.548  11.178 -1.3212  1.0696  1.9602
  562MOL0     H75818   5.982   3.593  11.110 -0.1900 -0.0620  2.9031
  562MOL0     H75819   6.158   3.833  11.141 -2.6495 -0.2684 -3.7927
  562MOL0     H75820   5.981   3.812  11.169 -1.1007 -1.6660  1.9632
  562MOL0     H75821   6.259   3.614  11.343  0.6089 -0.5878  0.8568
  562MOL0     H75822   6.343   3.628  11.605 -0.1928 -2.6527  1.6060
  562MOL0     H75823   6.251   3.719  11.723  0.3463  0.2980 -0.3136
  562MOL0     H75824   6.203   3.495  11.777 -2.7904 -1.3348  2.1510
  562MOL0     H75825   6.056   3.538  11.689 -0.5030 -2.4461 -1.6461
  562MOL0     H75826   6.274   3.359  11.593 -1.3264 -1.2423  3.8073
  562MOL0     H75827   6.146   3.415  11.478 -0.4154  1.3010  0.1540
  562MOL0     H75828   6.063   3.214  11.552  0.2196 -1.2866  1.4283
  562MOL0     H75829   5.989   3.324  11.664  0.4782 -0.1423 -1.9164
  562MOL0     H75830   5.926   3.062  11.670 -0.0330  2.3011  0.6646
  562MOL0     H75831   5.779   2.938  11.817 -0.7990  0.0121  1.5439
  562MOL0     H75832   5.794   3.059  12.473 -2.4531  2.3232  3.0885
  562MOL0     H75833   5.646   3.024  12.644  1.8160 -1.0736  0.1669
  562MOL0     H75834   5.319   2.708  12.632  0.6586 -0.0545 -4.5041
  562MOL0     H75835   5.480   2.646  12.651 -1.0989 -1.4216  0.0802
  562MOL0     H75836   5.313   2.747  12.873 -1.3523 -0.1291  0.0869
  562MOL0     H75837   5.383   2.584  12.871 -1.0093  0.7747  1.7242
  562MOL0     H75838   5.593   2.676  12.924  0.6944  1.0567  1.3182
  562MOL0     H75839   5.556   2.830  12.853  0.9836  2.7821  4.0106
  562MOL0     H75840   5.452   2.733  13.121  2.8437 -0.3930 -0.3496
  562MOL0     H75841   5.407   2.891  13.046  0.0298 -0.0341  0.6222
  562MOL0     H75842   5.654   2.940  13.030  0.4397 -0.6131 -0.5262
  562MOL0     H75843   5.687   2.782  13.113  0.1575 -0.1323  1.6984
  562MOL0     H75844   5.724   2.970  13.262  1.3097 -2.8448  2.3984
  562MOL0     H75845   5.547   3.003  13.245  0.3911 -0.0707  1.9319
  562MOL0     H75846   5.675   2.771  13.392 -0.9346 -1.8477  0.4546
  562MOL0     H75847   5.509   2.764  13.338 -2.0447  0.7204  3.5327
  562MOL0     H75848   5.576   2.863  13.579 -0.0013 -4.0286 -1.0749
  562MOL0     H75849   5.617   3.007  13.489  2.5781 -1.2181  0.9151
  562MOL0     H75850   5.451   2.711  12.421  1.3772 -1.6964  1.6891
  562MOL0     H75851   5.601   2.729  12.244  3.0332 -1.8024  1.3315
  562MOL0     H75852   5.986   3.109  12.162 -0.5883 -2.0408 -0.1625
  562MOL0     H75853   6.171   3.184  12.002 -0.7483  0.6005  0.0429
  562MOL0     H75854   6.945   3.211  10.904 -0.4347 -2.6127  1.4321
  562MOL0     H75855   7.051   3.021  10.780 -0.0247  0.7387  1.8020
  562MOL0     H75856   7.109   2.842  10.426 -0.8378 -0.0910  3.4244
  562MOL0     H75857   7.202   2.711  10.260  1.1280  1.2231  2.3809
  562MOL0     H75858   7.241   2.575  10.086 -2.0050  0.7866  2.6787
  562MOL0     H75859   7.208   2.409  10.030 -1.0577  1.6429 -0.2497
  562MOL0     H75860   7.401   2.381  10.242 -2.0293 -1.4994 -0.7287
  562MOL0     H75861   7.444   2.526  10.165  0.7673 -1.0880 -0.6316
  562MOL0     H75862   7.396   2.272   9.997 -3.0885  1.2601 -0.2822
  562MOL0     H75863   7.548   2.328  10.064 -1.0251  2.1979 -0.2465
  562MOL0     H75864   7.381   2.477   9.867 -1.9454 -1.8485  4.9872
  562MOL0     H75865   7.506   2.563   9.947 -1.1220  1.0985 -0.6746
  562MOL0     H75866   7.715   2.298   9.668 -1.5376 -0.8044  0.4645
  562MOL0     H75867   7.023   2.363  10.428  4.3620 -0.1081  2.5254
  562MOL0     H75868   6.936   2.461  10.726 -2.1484  4.0067  1.8985
  562MOL0     H75869   6.807   2.548  10.631 -0.7787 -1.0992 -0.6756
  562MOL0     H75870   6.865   2.382  10.587  0.5495  0.1159 -1.4525
  563MOL0     O75871  10.155  10.880   7.244 -0.3276 -0.5346 -0.1304
  563MOL0     C75872  10.178  10.775   7.302  0.3114 -0.1083 -0.5634
  563MOL0     O75873  10.116  10.654   7.270  0.3313  0.5055 -0.5300
  563MOL0     C75874  10.024  10.652   7.166  0.0069 -0.9397  0.4726
  563MOL0     C75875   9.930  10.751   7.142  0.3841  0.3574  0.6445
  563MOL0     C75876   9.854  10.770   7.023  0.7796 -0.6467  0.3494
  563MOL0     C75877   9.863  10.668   6.927 -0.1787  0.3509 -0.1747
  563MOL0     O75878   9.785  10.690   6.805 -0.8560 -0.0542 -0.0242
  563MOL0     C75879   9.719  10.580   6.753  0.4426 -0.2232 -0.6372
  563MOL0     C75880   9.627  10.625   6.635 -0.0554  0.5217 -0.2450
  563MOL0     C75881   9.713  10.681   6.524  0.3989 -0.0968 -0.2684
  563MOL0     C75882   9.634  10.646   6.401  0.4165  0.0141  0.0958
  563MOL0     C75883   9.696  10.719   6.282 -0.3784 -1.1461 -0.3188
  563MOL0     C75884   9.790  10.634   6.210  0.1325 -0.5362  0.4408
  563MOL0     C75885   9.865  10.696   6.091 -0.1677  0.7064  0.3955
  563MOL0     C75886   9.784  10.688   5.957  0.7355 -0.6026  0.5247
  563MOL0     N75887   9.765  10.548   5.919 -0.0403  0.8215  0.0868
  563MOL0     C75888   9.856  10.475   5.860 -0.0997  0.3407 -0.8892
  563MOL0     C75889   9.787  10.368   5.804  0.3831  0.5354 -0.1810
  563MOL0     C75890   9.858  10.256   5.724  0.1396 -0.7860 -0.4467
  563MOL0     C75891   9.920  10.161   5.820 -0.6650 -0.0843 -0.3051
  563MOL0     C75892   9.982  10.038   5.759  0.9442  0.3745 -0.5522
  563MOL0     C75893   9.882   9.945   5.693  0.1731 -0.1274  0.0972
  563MOL0     O75894   9.911   9.805   5.731 -0.2218 -0.6430 -0.3224
  563MOL0     C75895   9.835   9.707   5.661 -0.7137  0.2706 -0.2989
  563MOL0     C75896   9.758   9.616   5.731 -0.0235 -0.0238  0.3330
  563MOL0     C75897   9.689   9.514   5.666  0.3504  0.0973 -0.5068
  563MOL0     C75898   9.682   9.511   5.526 -0.1496 -0.0444  0.4308
  563MOL0     C75899   9.596   9.398   5.468 -0.1639 -0.8911 -0.5638
  563MOL0     O75900   9.506   9.336   5.552  0.4971 -0.6599  0.0851
  563MOL0     C75901   9.436   9.222   5.518  0.5288  0.3146 -0.0164
  563MOL0     C75902   9.395   9.192   5.385 -0.0817 -0.1745  0.6463
  563MOL0     C75903   9.318   9.082   5.353 -0.5683 -0.2226  0.3177
  563MOL0     C75904   9.273   9.002   5.461  0.2646  0.3917  0.4150
  563MOL0     O75905   9.181   8.899   5.434 -1.1302  1.1628 -0.1348
  563MOL0     C75906   9.233   8.785   5.371 -0.6025  0.7275  0.6118
  563MOL0     C75907   9.127   8.685   5.312  1.4173 -0.0521  0.4106
  563MOL0     C75908   9.164   8.633   5.173 -1.1069 -0.5783 -0.9723
  563MOL0     C75909   9.087   8.507   5.119  0.2662  0.6584  0.5427
  563MOL0     C75910   8.940   8.538   5.088 -0.4402 -0.3920  0.4157
  563MOL0     C75911   8.861   8.418   5.025 -0.6563  0.0632 -0.1982
  563MOL0     C75912   8.717   8.467   5.002  0.5274  0.5524 -0.1119
  563MOL0     C75913   8.627   8.342   5.007 -0.0452  1.3716  0.3146
  563MOL0    Cl75914   8.462   8.391   4.973 -0.0834 -0.0126 -0.0226
  563MOL0     C75915   9.309   9.031   5.593  0.4864  0.1811  0.5155
  563MOL0     C75916   9.379   9.142   5.626  1.1699 -0.3895 -0.2681
  563MOL0     O75917   9.614   9.377   5.350  1.0999  0.3112  0.5707
  563MOL0     C75918   9.765   9.603   5.455  0.7223  0.1957 -0.7555
  563MOL0     C75919   9.837   9.705   5.526  0.6006 -0.7307 -0.3280
  563MOL0     N75920   9.653  10.372   5.849  0.8390 -0.0181  0.9277
  563MOL0     N75921   9.641  10.489   5.912 -0.1252  0.2492  1.1964
  563MOL0     C75922   9.953  10.565   6.950  0.0615  0.5014 -0.8545
  563MOL0     C75923  10.033  10.556   7.072 -0.5807  0.5004 -0.2643
  563MOL0     C75924  10.281  10.787   7.403 -0.1500  0.2511 -1.1650
  563MOL0     C75925  10.294  10.672   7.491 -0.3810 -0.2772  0.4672
  563MOL0     C75926  10.393  10.669   7.596  0.6671 -0.4284  0.0576
  563MOL0     C75927  10.466  10.788   7.626 -0.5531  0.5527  0.2229
  563MOL0     O75928  10.564  10.768   7.723  0.4420 -0.3804 -0.1000
  563MOL0     C75929  10.613  10.886   7.798 -0.3259  0.2894 -0.9415
  563MOL0     C75930  10.512  10.930   7.895  0.5325 -0.0218 -0.3935
  563MOL0     C75931  10.550  11.050   7.987 -0.1070 -1.0206 -0.5105
  563MOL0     C75932  10.459  11.087   8.105 -0.2913  0.1459 -0.4645
  563MOL0     C75933  10.478  10.984   8.208  1.5408  0.5951  0.0755
  563MOL0     C75934  10.494  10.914   8.304 -0.9033 -0.8615  0.0033
  563MOL0     C75935  10.446  10.901   7.549  0.1130 -0.2435 -0.3309
  563MOL0     C75936  10.357  10.898   7.435  0.8437 -0.8639  0.1732
  563MOL0     C75937  10.350  11.030   7.361  0.4378 -0.7452  0.3603
  563MOL0     H75938   9.907  10.824   7.218  0.5692  1.0820  0.0162
  563MOL0     H75939   9.795  10.861   7.012  1.2953 -0.0715  2.0218
  563MOL0     H75940   9.786  10.495   6.739 -1.9447 -2.7164  1.7182
  563MOL0     H75941   9.653  10.543   6.833 -1.9266  0.1018 -2.3264
  563MOL0     H75942   9.558  10.698   6.679  0.0916 -1.5517  3.9014
  563MOL0     H75943   9.581  10.530   6.607 -0.2926  0.9692 -1.4328
  563MOL0     H75944   9.815  10.640   6.517  0.0226 -1.2809  0.8590
  563MOL0     H75945   9.731  10.789   6.528 -1.4188  0.2487 -0.5395
  563MOL0     H75946   9.624  10.539   6.378 -0.5564  0.0420  0.3311
  563MOL0     H75947   9.532  10.680   6.420  0.4233  1.2453 -1.8337
  563MOL0     H75948   9.614  10.745   6.214  0.5204  1.7857 -0.4367
  563MOL0     H75949   9.733  10.813   6.323 -2.4990 -0.1485 -0.5285
  563MOL0     H75950   9.861  10.611   6.291 -1.2628  1.8520  2.5050
  563MOL0     H75951   9.739  10.542   6.180  0.4593  0.5692 -4.2406
  563MOL0     H75952   9.961  10.645   6.076  1.2357  3.0415  0.9900
  563MOL0     H75953   9.873  10.804   6.101 -3.0949  1.1845 -1.3177
  563MOL0     H75954   9.696  10.753   5.956  2.2022  1.5861  2.5683
  563MOL0     H75955   9.848  10.742   5.887 -0.8042  3.1651  1.7559
  563MOL0     H75956   9.963  10.491   5.849 -0.2011  2.2842  0.5516
  563MOL0     H75957   9.790  10.207   5.653 -2.4748  3.4922 -1.2591
  563MOL0     H75958   9.941  10.300   5.668  0.4012 -0.1888  0.3992
  563MOL0     H75959  10.004  10.224   5.848  1.3027 -2.1207 -1.3385
  563MOL0     H75960   9.853  10.134   5.903  2.8861 -3.4471  1.8158
  563MOL0     H75961  10.031   9.979   5.836 -0.0273 -1.2985 -1.1812
  563MOL0     H75962  10.049  10.075   5.680 -1.4286  1.5453 -2.1495
  563MOL0     H75963   9.875   9.962   5.585 -1.6448 -2.1705 -0.1653
  563MOL0     H75964   9.785   9.968   5.737 -0.3668 -1.0906 -0.5517
  563MOL0     H75965   9.752   9.623   5.839  2.0841 -2.9131  0.7774
  563MOL0     H75966   9.636   9.440   5.724  2.5096  0.0416  1.5460
  563MOL0     H75967   9.432   9.258   5.307 -2.1262  0.9766  0.5958
  563MOL0     H75968   9.290   9.041   5.256 -0.9060 -2.5659  1.3358
  563MOL0     H75969   9.289   8.826   5.287 -1.2995  2.3858  0.9094
  563MOL0     H75970   9.308   8.736   5.434 -1.9707 -0.0060  1.7290
  563MOL0     H75971   9.104   8.597   5.372 -0.5342 -0.2523 -0.5600
  563MOL0     H75972   9.036   8.744   5.297  1.6175  2.0520  5.5295
  563MOL0     H75973   9.140   8.726   5.119  1.2275  0.9245  0.4053
  563MOL0     H75974   9.272   8.623   5.170 -1.1766 -1.7400 -0.1369
  563MOL0     H75975   9.090   8.431   5.197 -1.9383  1.0963  1.1373
  563MOL0     H75976   9.146   8.464   5.037  0.3114  1.2938  0.2382
  563MOL0     H75977   8.936   8.620   5.015  3.0371  1.3906  1.9741
  563MOL0     H75978   8.885   8.573   5.176 -2.5262  2.7035 -1.8747
  563MOL0     H75979   8.923   8.394   4.938 -0.4106  3.3260 -1.0613
  563MOL0     H75980   8.860   8.325   5.083 -0.0702 -1.4952 -2.5432
  563MOL0     H75981   8.719   8.528   4.911  1.1833  2.1974  0.9757
  563MOL0     H75982   8.692   8.542   5.077 -0.1699  1.7781 -1.5291
  563MOL0     H75983   8.661   8.269   4.932 -3.4603  1.2879 -1.3638
  563MOL0     H75984   8.629   8.304   5.109 -2.1274  2.5041  0.8523
  563MOL0     H75985   9.281   8.965   5.674  2.3952 -2.7844 -1.0589
  563MOL0     H75986   9.406   9.158   5.729  0.2046 -1.3108  0.1443
  563MOL0     H75987   9.777   9.594   5.347  1.6552  1.0380 -0.7474
  563MOL0     H75988   9.896   9.768   5.461 -0.5802 -0.7858 -1.5074
  563MOL0     H75989   9.956  10.481   6.882  3.3109 -0.3060  0.0941
  563MOL0     H75990  10.108  10.478   7.081 -2.2465 -1.1026  0.2638
  563MOL0     H75991  10.229  10.586   7.482  0.7750 -1.0886 -0.3951
  563MOL0     H75992  10.395  10.575   7.650  1.9875 -0.2145  0.4267
  563MOL0     H75993  10.649  10.972   7.740  2.4119 -2.4369 -3.6538
  563MOL0     H75994  10.691  10.845   7.863  1.2634  4.1013 -0.1433
  563MOL0     H75995  10.487  10.841   7.954 -0.1308 -0.8409 -1.8631
  563MOL0     H75996  10.417  10.949   7.844  0.8267  1.2975 -0.5022
  563MOL0     H75997  10.570  11.143   7.934  0.7801 -0.4918  0.7110
  563MOL0     H75998  10.651  11.026   8.019  0.3785 -0.7071 -1.7657
  563MOL0     H75999  10.502  11.178   8.147  0.4637 -0.7655  0.8032
  563MOL0     H76000  10.351  11.088   8.088 -1.0002 -1.3381  3.0533
  563MOL0     H76001  10.508  10.867   8.400  1.0157 -1.8193 -0.6935
  563MOL0     H76002  10.505  10.985   7.585  0.7453 -0.4333 -0.8918
  563MOL0     H76003  10.352  11.017   7.252  0.5047  0.7991  0.1604
  563MOL0     H76004  10.256  11.082   7.376  0.1979 -0.0646 -2.7444
  563MOL0     H76005  10.431  11.099   7.388 -1.6607  2.6801 -1.4145
  564MOL0     O76006   7.093  11.204   6.708 -0.3394  0.1092  1.1813
  564MOL0     C76007   7.071  11.126   6.802  0.3743 -0.0950 -0.2613
  564MOL0     O76008   7.017  11.162   6.925  0.1587 -0.1879  0.6054
  564MOL0     C76009   6.959  11.281   6.944 -0.3031 -0.1683  0.3638
  564MOL0     C76010   6.841  11.287   7.025  0.0283  0.0677  0.6141
  564MOL0     C76011   6.792  11.414   7.060  1.2228 -1.1041  0.2886
  564MOL0     C76012   6.847  11.536   7.020  0.2693  0.1514  0.6155
  564MOL0     O76013   6.796  11.652   7.072  0.1213 -0.2980  0.1349
  564MOL0     C76014   6.671  11.704   7.014 -0.4813  0.1261  0.1428
  564MOL0     C76015   6.569  11.743   7.119  0.7873 -0.1146  0.3743
  564MOL0     C76016   6.546  11.650   7.232  0.5718  0.3317 -0.4689
  564MOL0     C76017   6.442  11.534   7.195 -0.5161 -0.7008  0.3370
  564MOL0     C76018   6.403  11.433   7.306  0.2143 -0.1431  0.7782
  564MOL0     C76019   6.530  11.371   7.376  0.4950 -0.1491  0.3899
  564MOL0     C76020   6.476  11.251   7.459  0.4165 -0.8430 -0.7780
  564MOL0     C76021   6.420  11.133   7.389 -0.4341  0.5226 -0.7505
  564MOL0     N76022   6.459  10.990   7.428  0.2708  0.1056  0.0027
  564MOL0     C76023   6.464  10.935   7.556  0.1016 -0.0001 -0.0885
  564MOL0     C76024   6.504  10.810   7.539 -0.3748  0.3837  0.1922
  564MOL0     C76025   6.517  10.719   7.656  0.7788 -1.7605 -0.5849
  564MOL0     C76026   6.607  10.596   7.639 -0.3816 -0.0516  0.8619
  564MOL0     C76027   6.586  10.497   7.754 -0.3763 -0.6897  0.1260
  564MOL0     C76028   6.622  10.562   7.889  0.4082 -0.8471  0.7117
  564MOL0     O76029   6.759  10.620   7.890  1.0232  0.3958  0.6085
  564MOL0     C76030   6.864  10.546   7.928 -1.0205  0.4799 -0.0735
  564MOL0     C76031   6.948  10.483   7.830 -0.3297  1.4451 -0.2624
  564MOL0     C76032   7.051  10.400   7.881  0.0250 -0.1584 -0.4477
  564MOL0     C76033   7.078  10.386   8.022  0.1953 -0.3465  0.0861
  564MOL0     C76034   7.198  10.322   8.064  1.0981  0.7491  0.5052
  564MOL0     O76035   7.302  10.333   7.978  0.0884  0.6454 -0.6291
  564MOL0     C76036   7.426  10.275   8.012 -0.0453  0.6079 -0.0806
  564MOL0     C76037   7.494  10.174   7.945 -0.6367 -0.4926 -0.1715
  564MOL0     C76038   7.617  10.128   7.987  0.5363  0.8557 -1.1032
  564MOL0     C76039   7.682  10.185   8.097 -0.1712  0.2343  0.2954
  564MOL0     O76040   7.803  10.142   8.140  0.4889 -0.5635  0.2418
  564MOL0     C76041   7.843  10.165   8.279  0.1465 -0.1035 -0.0845
  564MOL0     C76042   7.735  10.100   8.382 -0.2683 -0.6394  0.6050
  564MOL0     C76043   7.689   9.960   8.345  0.0999 -0.3246 -0.6126
  564MOL0     C76044   7.588   9.913   8.456 -0.7488 -0.7904 -0.5487
  564MOL0     C76045   7.550   9.768   8.439  0.7354 -0.2775  0.5056
  564MOL0     C76046   7.657   9.677   8.494  0.8268  0.1747 -0.2743
  564MOL0     C76047   7.618   9.520   8.483 -0.1052 -0.5894  0.2573
  564MOL0     C76048   7.721   9.425   8.526  0.0320 -0.2312  0.0570
  564MOL0    Cl76049   7.651   9.263   8.534  0.4484  0.0572  0.1186
  564MOL0     C76050   7.619  10.299   8.156  0.3347  0.4173 -0.4170
  564MOL0     C76051   7.486  10.343   8.126  0.2518  1.2606  0.0282
  564MOL0     O76052   7.201  10.269   8.173  0.4607  0.0258  0.0382
  564MOL0     C76053   6.992  10.447   8.114  0.0815  0.0686  0.6468
  564MOL0     C76054   6.882  10.521   8.065  0.6661 -0.1934 -0.3419
  564MOL0     N76055   6.515  10.785   7.405  0.4680  0.2111 -0.2118
  564MOL0     N76056   6.487  10.890   7.343  0.6094 -0.1857  0.1422
  564MOL0     C76057   6.953  11.526   6.932 -0.0541  0.2135 -0.3110
  564MOL0     C76058   7.014  11.404   6.899 -0.2440  1.1164  0.8905
  564MOL0     C76059   7.118  10.994   6.799  0.5033  0.3963  0.1179
  564MOL0     C76060   7.246  10.981   6.752  0.7717 -0.1378 -0.6740
  564MOL0     C76061   7.307  10.859   6.738 -0.3308  0.6224 -0.2743
  564MOL0     C76062   7.241  10.735   6.774  0.0923 -0.8067 -0.0096
  564MOL0     O76063   7.303  10.619   6.746  0.0643  0.7946  0.2621
  564MOL0     C76064   7.214  10.508   6.728 -0.2743  0.4874  0.1778
  564MOL0     C76065   7.108  10.504   6.615 -0.3808  0.2618 -0.6983
  564MOL0     C76066   7.176  10.502   6.485 -0.3352  0.1115 -0.0159
  564MOL0     C76067   7.074  10.524   6.374 -1.3192  0.8769  0.7309
  564MOL0     C76068   7.136  10.498   6.240  0.3151  0.3835  0.1424
  564MOL0     C76069   7.177  10.489   6.124 -0.4944  0.1404 -0.4067
  564MOL0     C76070   7.115  10.749   6.831  0.5981 -0.6950 -0.5305
  564MOL0     C76071   7.049  10.879   6.844  0.1414  0.1440 -0.3406
  564MOL0     C76072   6.908  10.883   6.887  1.8084 -0.2015 -0.8320
  564MOL0     H76073   6.791  11.195   7.051  1.9343 -2.2945 -3.3036
  564MOL0     H76074   6.706  11.417   7.126  1.0526 -1.6081  0.0907
  564MOL0     H76075   6.678  11.793   6.951 -4.6523  0.3941 -0.2152
  564MOL0     H76076   6.623  11.631   6.949  0.9666  0.9799 -1.9708
  564MOL0     H76077   6.467  11.761   7.086  0.9700  0.4725  0.1164
  564MOL0     H76078   6.597  11.839   7.163 -2.6306  0.4602  1.5599
  564MOL0     H76079   6.494  11.707   7.309  1.1839  1.0738 -0.5898
  564MOL0     H76080   6.638  11.616   7.279  0.5667  1.1147  0.1257
  564MOL0     H76081   6.353  11.583   7.153 -0.4425 -0.4740  0.4476
  564MOL0     H76082   6.488  11.467   7.122  2.2614 -2.2148  3.2255
  564MOL0     H76083   6.345  11.493   7.377  0.4539  3.2387 -1.6379
  564MOL0     H76084   6.340  11.353   7.265  1.6514 -2.3909  2.6830
  564MOL0     H76085   6.600  11.332   7.302 -2.0732 -1.7459 -1.3184
  564MOL0     H76086   6.577  11.447   7.439  0.2446  0.6029 -0.3086
  564MOL0     H76087   6.398  11.286   7.527  0.0217 -0.2310 -1.5265
  564MOL0     H76088   6.565  11.225   7.517 -0.9775  0.0850  1.9557
  564MOL0     H76089   6.312  11.146   7.400 -0.1309  0.9534  3.8199
  564MOL0     H76090   6.447  11.127   7.284  0.4720  0.3244 -0.5139
  564MOL0     H76091   6.456  10.989   7.650  2.3047  1.2578 -0.5482
  564MOL0     H76092   6.574  10.771   7.733  0.7405 -1.2427 -0.8995
  564MOL0     H76093   6.418  10.689   7.690  0.6446 -0.9015 -0.1956
  564MOL0     H76094   6.579  10.549   7.544  2.9619  0.8056 -0.7060
  564MOL0     H76095   6.714  10.618   7.635  0.2501 -2.9046 -1.0808
  564MOL0     H76096   6.656  10.418   7.726  0.9211  1.3087 -2.8108
  564MOL0     H76097   6.487  10.451   7.746 -1.1033  0.8507 -0.0887
  564MOL0     H76098   6.616  10.482   7.963 -1.6125 -0.9727  0.4755
  564MOL0     H76099   6.542  10.634   7.910  1.0716  0.3159 -0.5789
  564MOL0     H76100   6.946  10.492   7.722  1.9471  0.6558 -0.4163
  564MOL0     H76101   7.115  10.342   7.816 -0.5055 -0.6247 -0.5595
  564MOL0     H76102   7.446  10.137   7.855  0.6058 -1.5889 -0.4270
  564MOL0     H76103   7.651  10.039   7.935  2.1882  0.8251 -0.0538
  564MOL0     H76104   7.942  10.124   8.302  0.1330 -1.7233 -2.6117
  564MOL0     H76105   7.862  10.272   8.295 -0.9993 -0.1207  1.6073
  564MOL0     H76106   7.780  10.109   8.481 -1.3359 -2.7345  1.3471
  564MOL0     H76107   7.649  10.169   8.391  0.6970  1.0798 -2.1280
  564MOL0     H76108   7.641   9.956   8.246  0.0428  0.3138 -0.6129
  564MOL0     H76109   7.773   9.891   8.342  0.3138 -0.1413  0.6526
  564MOL0     H76110   7.498   9.972   8.436  1.1662  1.6667 -2.6033
  564MOL0     H76111   7.630   9.927   8.556 -0.8999  1.3770 -0.7434
  564MOL0     H76112   7.529   9.736   8.336 -2.1841 -0.3153  1.0289
  564MOL0     H76113   7.457   9.756   8.495 -2.5486  0.6001 -4.1809
  564MOL0     H76114   7.756   9.682   8.448  0.8915 -1.2622 -0.3461
  564MOL0     H76115   7.667   9.706   8.599  1.3979  0.1915 -0.3322
  564MOL0     H76116   7.599   9.499   8.378  2.1822  1.7001 -0.7297
  564MOL0     H76117   7.525   9.518   8.542  0.7499 -3.9151  1.7533
  564MOL0     H76118   7.805   9.431   8.456  0.6324  1.1549  0.8576
  564MOL0     H76119   7.752   9.466   8.622  2.2581  0.5677 -0.9492
  564MOL0     H76120   7.668  10.348   8.240 -0.0295  0.2990 -0.1310
  564MOL0     H76121   7.440  10.421   8.185  1.1903  0.5602  1.7692
  564MOL0     H76122   7.004  10.445   8.222 -2.6397  0.3577  1.0267
  564MOL0     H76123   6.814  10.584   8.120  1.8413 -1.8083  3.2199
  564MOL0     H76124   7.000  11.614   6.890  2.4557  0.6766  3.0669
  564MOL0     H76125   7.099  11.406   6.830 -1.3552 -0.9642 -0.6403
  564MOL0     H76126   7.307  11.070   6.735 -0.8252  1.0760 -0.2379
  564MOL0     H76127   7.409  10.856   6.702 -0.4242  1.3630 -0.6208
  564MOL0     H76128   7.162  10.484   6.821  2.7737 -3.0960  1.2035
  564MOL0     H76129   7.268  10.415   6.709  0.0005  0.9151 -1.2733
  564MOL0     H76130   7.040  10.590   6.622  1.3586  1.8905 -2.6006
  564MOL0     H76131   7.057  10.409   6.631  2.1162 -0.9424  0.6169
  564MOL0     H76132   7.230  10.407   6.474  0.1993  0.3468  0.5685
  564MOL0     H76133   7.252  10.580   6.479 -1.2363  0.9135 -3.2025
  564MOL0     H76134   6.997  10.451   6.402 -0.5927  0.5286  1.8611
  564MOL0     H76135   7.030  10.623   6.387  2.5006  2.8371  0.0286
  564MOL0     H76136   7.203  10.492   6.020 -0.1506 -1.6959 -0.4009
  564MOL0     H76137   7.070  10.655   6.861  0.7451 -0.6391 -0.1226
  564MOL0     H76138   6.852  10.976   6.904  2.2059  0.3576 -2.4114
  564MOL0     H76139   6.848  10.843   6.805  1.1460 -1.1996  0.1061
  564MOL0     H76140   6.907  10.822   6.978  3.2647  2.1143  0.8574
  565MOL0     O76141  10.810   8.044   0.512 -0.1920  0.3686  0.1657
  565MOL0     C76142  10.727   8.035   0.427  0.2677 -0.0224  1.5835
  565MOL0     O76143  10.756   8.047   0.287  0.7417 -1.0040 -0.2627
  565MOL0     C76144  10.889   8.083   0.246 -1.0172  1.3320 -0.0804
  565MOL0     C76145  10.985   7.983   0.216  0.4904 -0.3366 -0.5810
  565MOL0     C76146  11.111   8.009   0.162 -0.0625 -0.8083 -1.4661
  565MOL0     C76147  11.136   8.145   0.122  0.6114  0.1324 -0.8823
  565MOL0     O76148  11.239   8.167   0.044 -0.0463 -0.2106 -0.0691
  565MOL0     C76149  11.268   8.292  -0.018 -0.2707 -0.0484 -0.2294
  565MOL0     C76150  11.403   8.284  -0.094  0.4147 -0.0633  0.0528
  565MOL0     C76151  11.383   8.182  -0.213 -0.7505  0.5180  0.3097
  565MOL0     C76152  11.292   8.221  -0.330  0.0581 -0.2865 -0.3550
  565MOL0     C76153  11.285   8.101  -0.418 -0.2925  0.8139 -0.5577
  565MOL0     C76154  11.189   8.114  -0.535  0.3607  0.1631  0.7801
  565MOL0     C76155  11.043   8.125  -0.492  0.2357  0.5869  0.3691
  565MOL0     C76156  10.952   8.143  -0.614 -0.1429 -0.1309  0.0547
  565MOL0     N76157  10.918   8.019  -0.688  0.5346 -0.3480 -0.0096
  565MOL0     C76158  10.829   7.936  -0.619  1.1604 -0.3841  0.7991
  565MOL0     C76159  10.781   7.869  -0.725  0.0373  0.7278  0.4175
  565MOL0     C76160  10.674   7.745  -0.718 -0.4500  0.1929 -0.1386
  565MOL0     C76161  10.751   7.615  -0.695 -0.2174  0.5613 -0.1196
  565MOL0     C76162  10.655   7.489  -0.673  0.2685  0.7557 -1.0517
  565MOL0     C76163  10.720   7.353  -0.663 -0.2373 -0.3301 -0.1254
  565MOL0     O76164  10.730   7.298  -0.527 -0.5757 -0.1218  0.1020
  565MOL0     C76165  10.830   7.205  -0.490 -0.1986 -0.0278  0.0800
  565MOL0     C76166  10.847   7.181  -0.351  0.1264 -0.0765 -0.6213
  565MOL0     C76167  10.956   7.113  -0.310  0.1472  0.5681 -0.2329
  565MOL0     C76168  11.057   7.068  -0.402  0.8907  0.0356  0.1181
  565MOL0     C76169  11.188   7.023  -0.352 -0.7014  0.4483  0.2365
  565MOL0     O76170  11.296   7.040  -0.434 -0.1260 -0.4093  0.4262
  565MOL0     C76171  11.418   7.024  -0.369  0.3130 -0.2441 -0.3441
  565MOL0     C76172  11.472   7.118  -0.280 -0.2165 -0.6431 -0.2216
  565MOL0     C76173  11.578   7.099  -0.196 -0.9586  0.8257  0.0979
  565MOL0     C76174  11.630   6.972  -0.191  0.1726 -0.5609  0.4835
  565MOL0     O76175  11.721   6.953  -0.091 -0.6953 -0.5411  0.5788
  565MOL0     C76176  11.759   6.829  -0.030 -0.2719  0.5430 -0.1905
  565MOL0     C76177  11.654   6.798   0.073  0.4724 -0.0414  0.7100
  565MOL0     C76178  11.631   6.649   0.107  0.3347 -0.2089 -0.9979
  565MOL0     C76179  11.523   6.644   0.233 -1.2703  0.5820  0.4590
  565MOL0     C76180  11.398   6.734   0.233 -0.0557 -0.5136  0.6123
  565MOL0     C76181  11.307   6.711   0.357 -1.0221 -0.4196  0.5505
  565MOL0     C76182  11.239   6.576   0.347 -0.2188 -0.0992  0.5662
  565MOL0     C76183  11.117   6.566   0.445  1.0212  0.0146 -0.1473
  565MOL0    Cl76184  10.994   6.692   0.401  0.3211  0.1580  0.2379
  565MOL0     C76185  11.589   6.873  -0.287 -0.3171  0.7367  0.1810
  565MOL0     C76186  11.494   6.906  -0.382  0.0191  0.1874 -1.5531
  565MOL0     O76187  11.187   6.976  -0.240 -0.0570  0.3305  0.6398
  565MOL0     C76188  11.026   7.073  -0.534 -0.0393 -0.0249 -0.1414
  565MOL0     C76189  10.920   7.140  -0.578  0.4514 -0.2217 -0.0155
  565MOL0     N76190  10.822   7.910  -0.852  0.5071 -0.3524  0.3074
  565MOL0     N76191  10.906   8.007  -0.823  0.2766  0.2936 -1.0629
  565MOL0     C76192  11.034   8.242   0.144  0.3823 -1.0056  0.8296
  565MOL0     C76193  10.912   8.211   0.206  0.1256 -0.1170 -0.6484
  565MOL0     C76194  10.591   8.012   0.472  0.1384 -0.9144  1.0446
  565MOL0     C76195  10.492   8.037   0.381 -0.0231 -0.6888  0.0002
  565MOL0     C76196  10.360   8.041   0.417  0.4718 -0.6909 -0.5550
  565MOL0     C76197  10.317   8.008   0.547  0.0708  0.3394  0.1064
  565MOL0     O76198  10.188   8.006   0.591 -0.0502  0.8420  0.7520
  565MOL0     C76199  10.090   8.027   0.492  1.6457 -0.0803 -0.3404
  565MOL0     C76200  10.038   8.171   0.462 -0.2238  0.3257 -0.0079
  565MOL0     C76201  10.005   8.244   0.590 -0.3063  0.1463  0.7395
  565MOL0     C76202   9.980   8.385   0.559 -0.4826 -0.2900  0.7001
  565MOL0     C76203  10.023   8.491   0.646 -0.4105  0.0761  0.0246
  565MOL0     C76204  10.072   8.563   0.732  0.8752 -0.2006  0.6651
  565MOL0     C76205  10.417   7.970   0.633  0.3933  0.6596 -1.0099
  565MOL0     C76206  10.554   7.973   0.611  0.2685 -0.3373  1.1400
  565MOL0     C76207  10.658   7.926   0.705  0.7509 -0.7061 -0.0424
  565MOL0     H76208  10.958   7.881   0.242  1.4622 -0.6990 -0.9314
  565MOL0     H76209  11.185   7.931   0.150  0.5636 -1.0050  2.3588
  565MOL0     H76210  11.182   8.309  -0.082  2.0585  1.4988 -3.1889
  565MOL0     H76211  11.280   8.374   0.053  0.7277  1.2083 -1.7807
  565MOL0     H76212  11.479   8.256  -0.021  1.6785  0.5284 -0.9838
  565MOL0     H76213  11.430   8.381  -0.138 -0.8116  0.0277 -0.5471
  565MOL0     H76214  11.347   8.087  -0.172 -2.2277  0.8408 -0.1872
  565MOL0     H76215  11.479   8.158  -0.259 -2.4508 -1.7723 -2.3391
  565MOL0     H76216  11.192   8.230  -0.286 -0.1714 -0.4033 -0.8532
  565MOL0     H76217  11.333   8.303  -0.390  2.3203 -1.8130 -0.9984
  565MOL0     H76218  11.381   8.096  -0.470 -0.5630 -1.5790 -0.9356
  565MOL0     H76219  11.278   8.012  -0.355 -1.7942  2.5623  1.9388
  565MOL0     H76220  11.209   8.197  -0.604 -4.8070 -0.3246 -1.8069
  565MOL0     H76221  11.203   8.035  -0.610  0.9691  2.2388 -1.4080
  565MOL0     H76222  11.019   8.210  -0.427  2.4194  2.3524 -0.9705
  565MOL0     H76223  11.023   8.031  -0.439  0.7884  0.6094  0.6242
  565MOL0     H76224  10.856   8.190  -0.591 -0.5156 -0.5330 -0.6414
  565MOL0     H76225  11.003   8.217  -0.677  0.9036 -0.8694  0.0191
  565MOL0     H76226  10.815   7.918  -0.512  1.7848 -1.1241  0.7651
  565MOL0     H76227  10.600   7.760  -0.640  1.6761  0.1692  1.9975
  565MOL0     H76228  10.617   7.731  -0.810  1.0967  0.9380 -1.2542
  565MOL0     H76229  10.803   7.589  -0.788  1.5750  1.5827  0.5387
  565MOL0     H76230  10.827   7.625  -0.617 -0.0277  0.4864 -0.2932
  565MOL0     H76231  10.583   7.495  -0.755 -1.3902  1.4880  0.4035
  565MOL0     H76232  10.599   7.516  -0.584 -1.1974  0.4658 -1.8592
  565MOL0     H76233  10.820   7.366  -0.708 -0.3552  0.5342 -0.1694
  565MOL0     H76234  10.650   7.291  -0.719  0.3110 -0.2317 -0.9428
  565MOL0     H76235  10.778   7.221  -0.277 -1.1068 -0.4346 -1.5598
  565MOL0     H76236  10.970   7.092  -0.204 -3.8356 -4.7901 -0.2838
  565MOL0     H76237  11.410   7.206  -0.265 -2.9681 -2.0813 -2.3366
  565MOL0     H76238  11.617   7.163  -0.117  0.7108 -0.3029  0.2393
  565MOL0     H76239  11.752   6.748  -0.103 -1.4839 -0.0784  0.5753
  565MOL0     H76240  11.855   6.837   0.022 -0.7989 -0.9013  1.1042
  565MOL0     H76241  11.682   6.850   0.165 -0.8486 -0.7730  1.5611
  565MOL0     H76242  11.563   6.840   0.029  0.1111 -1.9111 -0.4410
  565MOL0     H76243  11.586   6.600   0.020  1.0842 -1.6077 -0.6308
  565MOL0     H76244  11.728   6.610   0.141  0.1015 -0.3414 -0.4863
  565MOL0     H76245  11.576   6.665   0.326 -0.0651  3.2353 -0.7018
  565MOL0     H76246  11.485   6.542   0.227 -1.5272  0.7102 -0.2318
  565MOL0     H76247  11.346   6.709   0.140 -0.7873  0.9501  0.6166
  565MOL0     H76248  11.424   6.839   0.221  1.7602 -1.1485 -2.1617
  565MOL0     H76249  11.359   6.731   0.451 -3.3433 -0.1882  1.8349
  565MOL0     H76250  11.233   6.788   0.335  0.1831  0.3259 -1.1902
  565MOL0     H76251  11.299   6.487   0.368 -1.6142 -0.6790  2.3689
  565MOL0     H76252  11.200   6.555   0.247 -1.4530 -2.7585  1.4995
  565MOL0     H76253  11.064   6.470   0.438 -1.8394  1.2586  2.1389
  565MOL0     H76254  11.152   6.569   0.549  1.9802 -3.5660 -0.2384
  565MOL0     H76255  11.632   6.774  -0.273  1.8828  1.9936  3.1179
  565MOL0     H76256  11.453   6.836  -0.454  1.3235 -2.7941  0.4501
  565MOL0     H76257  11.085   7.033  -0.616  1.2184 -3.1279  2.0792
  565MOL0     H76258  10.902   7.148  -0.685  0.0889 -0.4170  0.0323
  565MOL0     H76259  11.041   8.342   0.103 -3.0484 -0.8767  0.2214
  565MOL0     H76260  10.837   8.282   0.240  1.1546  0.4430  0.5172
  565MOL0     H76261  10.510   8.059   0.277 -0.3834  1.5648  0.3686
  565MOL0     H76262  10.293   8.079   0.341  2.0749  0.7425 -1.3165
  565MOL0     H76263  10.008   7.973   0.540  2.6902 -1.1386  0.3108
  565MOL0     H76264  10.106   7.981   0.394  1.7636 -4.0176  1.3391
  565MOL0     H76265   9.951   8.142   0.403 -1.5673 -1.1059  2.5045
  565MOL0     H76266  10.109   8.222   0.397 -0.7423  0.7314 -0.2609
  565MOL0     H76267  10.080   8.241   0.669 -3.7874  1.5917  4.4621
  565MOL0     H76268   9.926   8.183   0.636 -0.6447  2.3461  3.2855
  565MOL0     H76269  10.017   8.417   0.461 -0.1949  0.4863  1.0542
  565MOL0     H76270   9.871   8.395   0.561 -0.5978 -1.3024  0.1604
  565MOL0     H76271  10.113   8.630   0.805  2.2166  0.4595 -0.6432
  565MOL0     H76272  10.387   7.938   0.732  1.2755  1.2071 -0.5554
  565MOL0     H76273  10.605   7.880   0.789 -1.4415 -0.6843 -1.3379
  565MOL0     H76274  10.725   7.850   0.666 -0.7124 -2.2814  0.3929
  565MOL0     H76275  10.715   8.010   0.747  0.2217  0.0423 -0.7910
  566MOL0     O76276  10.881  10.812  10.406  0.2594 -0.7471 -0.1980
  566MOL0     C76277  10.987  10.878  10.375  0.9042  0.6588  0.5089
  566MOL0     O76278  11.109  10.813  10.386  0.1628  0.2338 -0.4383
  566MOL0     C76279  11.118  10.679  10.434  0.7557 -0.7352  1.0646
  566MOL0     C76280  11.092  10.561  10.355 -0.0289 -0.1464  1.3965
  566MOL0     C76281  11.117  10.434  10.394 -0.0515 -0.5664  0.0618
  566MOL0     C76282  11.173  10.417  10.523 -0.2671 -0.0507 -0.8956
  566MOL0     O76283  11.206  10.290  10.565 -0.0545  0.2811 -0.5176
  566MOL0     C76284  11.312  10.269  10.664 -0.1913  0.2233 -0.5285
  566MOL0     C76285  11.346  10.116  10.687 -0.3856 -0.2393 -1.2868
  566MOL0     C76286  11.249  10.007  10.626  0.4199 -0.6783 -0.8397
  566MOL0     C76287  11.298   9.867  10.671  0.3130 -0.5692  0.0197
  566MOL0     C76288  11.193   9.761  10.633  1.4170  0.3114 -0.8895
  566MOL0     C76289  11.214   9.643  10.739 -0.2149 -0.9141  1.1592
  566MOL0     C76290  11.358   9.587  10.759 -0.5875 -0.3779 -1.0770
  566MOL0     C76291  11.434   9.658  10.881 -0.1658  0.5076 -0.4385
  566MOL0     N76292  11.530   9.561  10.958 -0.2410  0.0187 -0.3865
  566MOL0     C76293  11.598   9.451  10.904  0.5268 -0.1925 -0.5161
  566MOL0     C76294  11.649   9.389  11.015 -0.2190  0.8550  0.2942
  566MOL0     C76295  11.735   9.265  11.015  0.0557 -0.0072  0.0475
  566MOL0     C76296  11.654   9.133  11.022 -0.3452 -0.4473 -0.0669
  566MOL0     C76297  11.744   9.014  10.988 -0.3743  0.8047  0.4208
  566MOL0     C76298  11.685   8.882  11.038  0.0886 -0.8802 -0.2967
  566MOL0     O76299  11.660   8.881  11.180  0.2660 -0.4949 -0.7483
  566MOL0     C76300  11.552   8.814  11.223  0.3132  1.4093  0.2349
  566MOL0     C76301  11.484   8.861  11.336  0.6270 -0.7951 -0.0552
  566MOL0     C76302  11.381   8.782  11.389 -0.2509 -0.5646  0.1058
  566MOL0     C76303  11.338   8.658  11.330  0.4986 -0.9397  0.1001
  566MOL0     C76304  11.208   8.618  11.389 -0.1688  1.5518 -0.1808
  566MOL0     O76305  11.172   8.663  11.514 -0.2793 -0.5992 -0.3327
  566MOL0     C76306  11.067   8.622  11.593  0.6624 -0.2116  1.2453
  566MOL0     C76307  10.942   8.627  11.533  0.0586  0.7209  0.4364
  566MOL0     C76308  10.832   8.617  11.615  0.3060 -0.0860 -0.1336
  566MOL0     C76309  10.841   8.599  11.748  0.5686 -1.0372  0.3523
  566MOL0     O76310  10.720   8.564  11.807 -0.5341 -0.2905  0.4107
  566MOL0     C76311  10.730   8.529  11.949 -0.0400  0.6725 -0.3353
  566MOL0     C76312  10.609   8.462  12.002  0.4025 -0.8702 -0.0829
  566MOL0     C76313  10.617   8.420  12.148  0.2377 -0.6389 -0.2666
  566MOL0     C76314  10.477   8.387  12.192 -0.6735 -0.1287 -0.3615
  566MOL0     C76315  10.483   8.319  12.333  1.2189  0.6649  0.0556
  566MOL0     C76316  10.337   8.310  12.373 -0.6989 -1.3339  0.3569
  566MOL0     C76317  10.327   8.230  12.510  0.5581  0.3984  0.3177
  566MOL0     C76318  10.185   8.231  12.566 -0.2739  0.1674  0.9134
  566MOL0    Cl76319  10.123   8.401  12.593 -0.2899  0.5541  0.6779
  566MOL0     C76320  10.967   8.604  11.807  0.2198 -0.2729 -0.1284
  566MOL0     C76321  11.084   8.611  11.729  0.4775 -0.1854  0.8412
  566MOL0     O76322  11.141   8.541  11.324  0.2103  0.1919 -0.2219
  566MOL0     C76323  11.399   8.626  11.212  0.3856  0.2041  0.3483
  566MOL0     C76324  11.506   8.698  11.158  1.3672  0.3153  1.3937
  566MOL0     N76325  11.630   9.465  11.127  0.2721  0.0831  1.2846
  566MOL0     N76326  11.556   9.570  11.088 -0.2866 -0.4933 -0.0326
  566MOL0     C76327  11.209  10.530  10.606 -1.0472 -0.4538  0.7302
  566MOL0     C76328  11.176  10.657  10.557 -0.3045  1.4313  0.1846
  566MOL0     C76329  10.981  11.023  10.332 -0.8000  0.9169  0.8008
  566MOL0     C76330  11.100  11.091  10.296  0.3387  0.4652 -0.2302
  566MOL0     C76331  11.095  11.224  10.244  0.0008  0.1660 -0.6757
  566MOL0     C76332  10.970  11.300  10.248  0.5437 -0.6899  0.1103
  566MOL0     O76333  10.975  11.434  10.210 -0.3131  0.3483 -0.0054
  566MOL0     C76334  11.073  11.509  10.264 -0.5925  0.3142  0.0395
  566MOL0     C76335  11.071  11.651  10.216 -0.1075 -0.5018  0.3255
  566MOL0     C76336  10.969  11.735  10.300 -0.6649  0.2879 -0.0143
  566MOL0     C76337  10.924  11.864  10.242  0.2704 -2.2046  0.0509
  566MOL0     C76338  10.811  11.855  10.140 -0.5512  0.2290 -0.4925
  566MOL0     C76339  10.726  11.870  10.057 -2.0682 -0.2861  0.2519
  566MOL0     C76340  10.856  11.238  10.298 -0.7527 -0.5959  0.1069
  566MOL0     C76341  10.859  11.100  10.332  0.1167 -0.1727 -0.9013
  566MOL0     C76342  10.730  11.042  10.368  0.1908 -0.4649  0.3737
  566MOL0     H76343  11.058  10.595  10.258 -2.0995 -1.3768  1.6346
  566MOL0     H76344  11.131  10.349  10.328  1.7816  1.6603 -2.6618
  566MOL0     H76345  11.406  10.316  10.636  1.3292 -2.0388  0.4206
  566MOL0     H76346  11.285  10.313  10.760  1.6414  0.1821  0.0384
  566MOL0     H76347  11.354  10.105  10.795 -1.7131  2.5327 -0.7999
  566MOL0     H76348  11.453  10.103  10.665 -0.0930 -4.1016  1.4669
  566MOL0     H76349  11.227  10.008  10.519 -1.7367  0.5259 -0.4508
  566MOL0     H76350  11.159  10.029  10.685  0.4151  0.7294 -1.3510
  566MOL0     H76351  11.387   9.848  10.610  2.1250  2.2478  1.5411
  566MOL0     H76352  11.342   9.876  10.770  4.0576  1.9715 -1.6272
  566MOL0     H76353  11.098   9.810  10.658  1.4370  1.3533 -2.7055
  566MOL0     H76354  11.196   9.726  10.530  0.2387 -1.1906 -0.4559
  566MOL0     H76355  11.164   9.678  10.830  0.8395 -2.2999  2.3176
  566MOL0     H76356  11.153   9.562  10.700 -1.0876  0.2756 -0.0433
  566MOL0     H76357  11.412   9.579  10.664 -0.5554  0.9716 -1.1839
  566MOL0     H76358  11.343   9.487  10.802  2.0436 -0.5264 -0.3033
  566MOL0     H76359  11.512   9.724  10.841  0.0612 -0.6363 -1.9634
  566MOL0     H76360  11.372   9.702  10.960  2.0416  2.9687  0.0938
  566MOL0     H76361  11.585   9.422  10.801 -0.3045 -3.0170  0.2941
  566MOL0     H76362  11.789   9.275  10.920  1.0117  1.1573  0.7024
  566MOL0     H76363  11.809   9.265  11.095 -2.0021  0.0709  2.0301
  566MOL0     H76364  11.614   9.127  11.123  1.4109  2.3909  0.9240
  566MOL0     H76365  11.569   9.147  10.955  1.8520  2.6123 -2.5509
  566MOL0     H76366  11.843   9.022  11.034  0.2125 -0.0439 -0.6629
  566MOL0     H76367  11.760   9.026  10.880  2.5466 -1.2707  0.5128
  566MOL0     H76368  11.763   8.806  11.025 -1.4526 -2.9502  1.7399
  566MOL0     H76369  11.602   8.849  10.976  1.3089 -3.1087 -0.8639
  566MOL0     H76370  11.514   8.956  11.377  0.4951 -0.0329 -1.6802
  566MOL0     H76371  11.320   8.837  11.461  0.2884  1.6625 -1.0680
  566MOL0     H76372  10.936   8.650  11.427 -0.1440 -3.2027 -0.5717
  566MOL0     H76373  10.735   8.620  11.567  0.1346  2.7428  0.2168
  566MOL0     H76374  10.806   8.452  11.965 -2.4339 -1.3565  2.0209
  566MOL0     H76375  10.753   8.617  12.009  0.9419  0.3110 -0.1606
  566MOL0     H76376  10.532   8.538  11.984  3.1304  2.2433  0.4520
  566MOL0     H76377  10.598   8.380  11.930 -0.2404  0.8972 -2.1205
  566MOL0     H76378  10.682   8.332  12.157  1.3961  0.2548  0.2973
  566MOL0     H76379  10.670   8.498  12.202 -0.9651  0.2120 -0.2736
  566MOL0     H76380  10.434   8.315  12.121 -2.0841  0.0683  0.2510
  566MOL0     H76381  10.404   8.469  12.191 -0.8476 -0.2737 -2.1871
  566MOL0     H76382  10.540   8.372  12.409  0.2986  0.6930  0.7382
  566MOL0     H76383  10.523   8.218  12.326  1.4267  0.6202  1.6680
  566MOL0     H76384  10.299   8.412  12.381  1.4823 -0.4946  0.6946
  566MOL0     H76385  10.279   8.268  12.290 -1.5410 -1.5966  1.0623
  566MOL0     H76386  10.389   8.292  12.576  1.0311  0.7726 -0.4520
  566MOL0     H76387  10.373   8.134  12.484 -2.0051 -0.4652 -1.4083
  566MOL0     H76388  10.115   8.185  12.495 -2.7487  1.9056  2.0781
  566MOL0     H76389  10.186   8.167  12.655  0.0649  1.0059  1.5304
  566MOL0     H76390  10.975   8.594  11.914  2.8314 -2.3928 -0.3948
  566MOL0     H76391  11.188   8.617  11.759  0.6338 -0.0249  0.2915
  566MOL0     H76392  11.360   8.544  11.152  1.4862  0.1403 -0.3047
  566MOL0     H76393  11.552   8.668  11.065 -1.5760  0.8038 -0.3336
  566MOL0     H76394  11.251  10.523  10.705 -1.8106  1.3224  1.2299
  566MOL0     H76395  11.214  10.745  10.608  4.3115 -0.4239  0.3981
  566MOL0     H76396  11.196  11.043  10.311 -0.7708 -0.8395  3.8381
  566MOL0     H76397  11.181  11.274  10.200  0.5024  1.3836  1.5327
  566MOL0     H76398  11.162  11.462  10.222 -0.7519 -0.9548  1.0587
  566MOL0     H76399  11.065  11.505  10.373 -1.2157  2.4684  0.1332
  566MOL0     H76400  11.045  11.664  10.111  0.5400  1.3493  0.3647
  566MOL0     H76401  11.173  11.687  10.232 -0.8787  1.7875  0.4495
  566MOL0     H76402  11.008  11.755  10.400 -3.1922  0.9917  0.9003
  566MOL0     H76403  10.877  11.675  10.309 -1.4526  1.6391  1.3560
  566MOL0     H76404  10.891  11.932  10.321 -1.2280  0.2669 -2.5062
  566MOL0     H76405  11.001  11.924  10.194 -3.0756  0.2043 -2.7731
  566MOL0     H76406  10.669  11.866   9.967  2.1463  2.3254 -2.8969
  566MOL0     H76407  10.771  11.304  10.291  0.9454  1.5424 -3.7853
  566MOL0     H76408  10.702  10.955  10.309 -0.8014 -0.7429  1.2210
  566MOL0     H76409  10.737  11.005  10.471  0.0652 -0.9920  0.1948
  566MOL0     H76410  10.654  11.120  10.374 -0.6469 -1.2973  0.8160
  567MOL0     O76411   5.611   6.019   2.277 -0.7994  0.5252 -0.0704
  567MOL0     C76412   5.704   6.091   2.235 -0.5307  0.4999 -0.0866
  567MOL0     O76413   5.806   6.146   2.299  0.1304 -0.0404 -0.4708
  567MOL0     C76414   5.816   6.134   2.428 -1.1285 -0.0002 -0.3457
  567MOL0     C76415   5.725   6.209   2.503  0.6615  0.3792 -0.3534
  567MOL0     C76416   5.724   6.197   2.641 -0.9220 -0.0969  0.6077
  567MOL0     C76417   5.822   6.115   2.699  0.3059 -0.4289  0.4092
  567MOL0     O76418   5.818   6.111   2.835 -1.0451 -0.4311 -0.6003
  567MOL0     C76419   5.777   5.990   2.889  0.1806 -0.1270 -0.3253
  567MOL0     C76420   5.824   5.976   3.043  0.2698  0.0693  0.3573
  567MOL0     C76421   5.800   6.097   3.128 -0.1079  1.0657 -0.0207
  567MOL0     C76422   5.907   6.181   3.180 -0.9414 -1.1553 -0.1105
  567MOL0     C76423   5.904   6.202   3.332  0.6151 -0.3989  1.4030
  567MOL0     C76424   6.000   6.096   3.396  0.0937 -0.5429 -0.6172
  567MOL0     C76425   5.953   6.083   3.551 -0.0632 -0.0967  1.0215
  567MOL0     C76426   6.042   6.168   3.641  0.5408  0.7462  0.7296
  567MOL0     N76427   6.053   6.303   3.612  0.0461  0.8815 -1.0811
  567MOL0     C76428   5.943   6.379   3.607 -0.7988  0.7920  0.2903
  567MOL0     C76429   5.991   6.506   3.601 -0.5507  0.3061  0.3435
  567MOL0     C76430   5.901   6.621   3.569 -0.3847  0.6275 -0.2661
  567MOL0     C76431   5.902   6.672   3.425 -0.1968 -0.3126 -0.1743
  567MOL0     C76432   5.806   6.797   3.424 -0.5512  1.4464  0.0490
  567MOL0     C76433   5.671   6.744   3.375 -1.5910 -0.8132 -0.0077
  567MOL0     O76434   5.686   6.713   3.232 -0.1078  0.3181  0.0933
  567MOL0     C76435   5.619   6.602   3.183  0.8579  1.0484  0.3208
  567MOL0     C76436   5.560   6.596   3.057 -0.2515 -0.1786  0.7199
  567MOL0     C76437   5.498   6.490   3.005 -0.0695 -0.6092 -0.8201
  567MOL0     C76438   5.488   6.375   3.072  0.0277  0.4953  0.4594
  567MOL0     C76439   5.421   6.256   3.015 -0.0007 -0.6837 -0.0051
  567MOL0     O76440   5.395   6.147   3.090  0.5992 -0.7786  0.2937
  567MOL0     C76441   5.296   6.053   3.068 -0.3820  0.7629  0.5556
  567MOL0     C76442   5.185   6.075   2.981  0.0873 -0.9498 -0.7122
  567MOL0     C76443   5.085   5.980   2.973 -0.8567 -0.3630 -0.8351
  567MOL0     C76444   5.087   5.856   3.044  1.1762  0.3834  0.0804
  567MOL0     O76445   4.976   5.769   3.039  0.4687 -0.6232  0.1261
  567MOL0     C76446   5.015   5.637   3.002  0.5309 -0.1921  0.1656
  567MOL0     C76447   5.000   5.621   2.848  0.3236 -0.6555  0.2407
  567MOL0     C76448   4.859   5.659   2.798 -0.9355 -0.3787  0.4300
  567MOL0     C76449   4.792   5.546   2.724 -0.2512  1.2576  0.4900
  567MOL0     C76450   4.739   5.437   2.815 -0.2984 -0.0738 -0.6417
  567MOL0     C76451   4.793   5.303   2.774 -0.0086 -0.0813 -0.0505
  567MOL0     C76452   4.714   5.203   2.862 -0.3413 -0.6554 -0.3908
  567MOL0     C76453   4.717   5.073   2.793  0.0556  0.5692 -0.4536
  567MOL0    Cl76454   4.607   5.087   2.663 -0.4613 -0.3004  0.5214
  567MOL0     C76455   5.203   5.835   3.127 -0.5178  0.2535 -0.1317
  567MOL0     C76456   5.305   5.931   3.141  0.3538 -0.2365  1.0090
  567MOL0     O76457   5.390   6.275   2.896  0.3900 -0.1517 -0.6642
  567MOL0     C76458   5.543   6.368   3.200 -0.0129 -0.8398 -0.6127
  567MOL0     C76459   5.609   6.478   3.250 -0.7702 -0.2622  0.1772
  567MOL0     N76460   6.134   6.503   3.598  0.2260  0.6358  0.1083
  567MOL0     N76461   6.163   6.373   3.589  0.3702 -0.0702 -0.3708
  567MOL0     C76462   5.912   6.039   2.628 -0.1935  0.4344  0.4847
  567MOL0     C76463   5.917   6.049   2.494 -0.6867 -0.7341 -0.4987
  567MOL0     C76464   5.679   6.127   2.097  0.0399  0.5374  0.1294
  567MOL0     C76465   5.724   6.053   1.986 -1.6545 -0.0803  0.5348
  567MOL0     C76466   5.702   6.092   1.845 -0.0994  0.3937 -0.2968
  567MOL0     C76467   5.619   6.198   1.825  0.2744  0.1355 -0.4461
  567MOL0     O76468   5.595   6.226   1.699 -0.1583  0.1211 -0.6137
  567MOL0     C76469   5.695   6.318   1.648  0.5233  0.0208  1.0477
  567MOL0     C76470   5.653   6.470   1.664  0.0952  0.5549 -0.0682
  567MOL0     C76471   5.742   6.544   1.761 -0.2592  0.0652 -0.1228
  567MOL0     C76472   5.713   6.701   1.748  0.1575 -0.8474  0.2605
  567MOL0     C76473   5.575   6.734   1.784  1.2787 -0.1063  0.6447
  567MOL0     C76474   5.462   6.777   1.830 -1.1036  0.9194 -0.4610
  567MOL0     C76475   5.561   6.268   1.938  0.1181  0.3708  0.9547
  567MOL0     C76476   5.592   6.239   2.062 -0.0532  0.0237 -0.0053
  567MOL0     C76477   5.519   6.320   2.159  0.2296  0.0399 -0.9252
  567MOL0     H76478   5.659   6.277   2.450 -0.7499 -1.0757 -0.5566
  567MOL0     H76479   5.644   6.257   2.685 -2.9361 -2.9422  1.1280
  567MOL0     H76480   5.669   5.975   2.879 -0.1399 -0.4923  2.7179
  567MOL0     H76481   5.821   5.905   2.835 -0.7110 -0.7395 -0.1053
  567MOL0     H76482   5.931   5.951   3.051  0.9057  2.6625  0.7566
  567MOL0     H76483   5.773   5.888   3.082  1.5298 -0.8836 -0.0824
  567MOL0     H76484   5.739   6.062   3.212  0.5521  2.2151  0.9649
  567MOL0     H76485   5.752   6.170   3.062  3.2143  2.8131 -0.7032
  567MOL0     H76486   6.003   6.133   3.156 -1.1538 -1.3264 -0.6280
  567MOL0     H76487   5.909   6.272   3.120  1.1597 -1.2414 -0.2570
  567MOL0     H76488   5.940   6.301   3.361 -2.0218  1.4744 -1.0861
  567MOL0     H76489   5.799   6.189   3.359  0.1213  0.5872  0.0888
  567MOL0     H76490   6.013   6.007   3.335 -1.3329 -0.8393 -0.5052
  567MOL0     H76491   6.104   6.131   3.403  0.7354 -2.6244  2.1984
  567MOL0     H76492   5.959   5.976   3.571  0.4981 -0.7825 -2.2897
  567MOL0     H76493   5.850   6.118   3.564 -0.7334 -0.1192 -2.9331
  567MOL0     H76494   6.009   6.158   3.744 -1.9068  3.0382  0.2646
  567MOL0     H76495   6.145   6.130   3.633  0.0663 -0.7479  1.3722
  567MOL0     H76496   5.838   6.352   3.593 -1.3987  3.5511 -1.2344
  567MOL0     H76497   5.803   6.586   3.603 -0.0528  1.5157  1.8163
  567MOL0     H76498   5.922   6.700   3.643 -0.9912 -1.5750  2.4173
  567MOL0     H76499   6.004   6.694   3.391 -1.2745  3.5254 -1.3338
  567MOL0     H76500   5.855   6.609   3.350 -3.4346  2.1517 -0.3982
  567MOL0     H76501   5.847   6.884   3.372 -0.4470 -0.6872 -3.8834
  567MOL0     H76502   5.783   6.842   3.521 -1.6427  2.2160 -0.5498
  567MOL0     H76503   5.595   6.821   3.389 -0.4851  0.3783 -0.3821
  567MOL0     H76504   5.635   6.664   3.441 -0.4930 -2.8696 -1.7573
  567MOL0     H76505   5.547   6.681   2.991  2.6676 -2.4354 -3.1916
  567MOL0     H76506   5.453   6.501   2.907 -0.4937 -3.2089 -0.9834
  567MOL0     H76507   5.176   6.166   2.924  0.4993  0.6715  1.6641
  567MOL0     H76508   5.018   5.991   2.888  0.3008  0.5609 -1.6755
  567MOL0     H76509   5.120   5.617   3.026  1.3285  1.4021 -1.7093
  567MOL0     H76510   4.954   5.571   3.065  1.9112 -1.4116  0.2707
  567MOL0     H76511   5.074   5.687   2.802 -0.7311  0.4879  0.1315
  567MOL0     H76512   5.029   5.520   2.817  1.4293  0.0211 -1.0188
  567MOL0     H76513   4.794   5.692   2.881 -1.3660  2.0584 -0.7923
  567MOL0     H76514   4.871   5.737   2.722 -1.2975 -2.9486 -2.4446
  567MOL0     H76515   4.852   5.502   2.644  2.9817  1.3226  2.6672
  567MOL0     H76516   4.704   5.588   2.675 -0.1402  1.2324  0.2698
  567MOL0     H76517   4.630   5.428   2.810 -0.2489 -2.3900  0.7735
  567MOL0     H76518   4.774   5.454   2.918 -2.1027  2.2996 -0.3321
  567MOL0     H76519   4.787   5.288   2.666 -4.1931  0.8561 -0.1007
  567MOL0     H76520   4.901   5.301   2.794 -0.3847 -0.5281  2.2156
  567MOL0     H76521   4.610   5.232   2.880 -0.3688 -1.9860  1.9378
  567MOL0     H76522   4.765   5.180   2.956  1.6735  0.2520 -1.2155
  567MOL0     H76523   4.815   5.058   2.745 -0.5340  2.1086 -2.2603
  567MOL0     H76524   4.701   4.980   2.848  2.8639  0.2455 -0.0005
  567MOL0     H76525   5.207   5.744   3.186  2.1171 -0.0804 -0.7033
  567MOL0     H76526   5.384   5.924   3.215  1.4555  0.4907 -0.0680
  567MOL0     H76527   5.549   6.280   3.263  1.0875 -0.5078 -0.2181
  567MOL0     H76528   5.643   6.484   3.353  1.8119  1.9644 -0.6575
  567MOL0     H76529   5.983   5.973   2.676  0.0225  1.6183  1.8504
  567MOL0     H76530   5.984   5.989   2.433  0.8899 -1.4539  1.8312
  567MOL0     H76531   5.794   5.972   2.008 -2.8459 -0.9207  1.3960
  567MOL0     H76532   5.752   6.043   1.762 -0.9071  1.0620 -1.1950
  567MOL0     H76533   5.691   6.316   1.539  1.2146  1.7321  0.9689
  567MOL0     H76534   5.800   6.298   1.672  0.4792  1.0889  2.2323
  567MOL0     H76535   5.555   6.466   1.711  0.2608 -0.3879  0.2325
  567MOL0     H76536   5.644   6.517   1.565  0.1896  1.7542  0.4818
  567MOL0     H76537   5.849   6.527   1.747  0.1482  3.4931 -2.4335
  567MOL0     H76538   5.739   6.526   1.869  2.6347  3.5430  0.7177
  567MOL0     H76539   5.782   6.764   1.805 -0.8174  1.4796 -0.9996
  567MOL0     H76540   5.746   6.735   1.649  2.0081  1.0250  1.4332
  567MOL0     H76541   5.373   6.807   1.882 -0.2751  0.3743  1.3312
  567MOL0     H76542   5.474   6.331   1.921 -0.5242  0.0476  2.8243
  567MOL0     H76543   5.594   6.354   2.232  0.3722  2.9369 -2.2623
  567MOL0     H76544   5.460   6.400   2.113  0.1757 -0.2339 -1.3435
  567MOL0     H76545   5.457   6.245   2.208  1.8235  0.0798  1.2675
  568MOL0     O76546  11.545   0.753   3.094 -0.1766 -0.6527 -0.2745
  568MOL0     C76547  11.424   0.733   3.103  1.0427 -0.3040 -1.1916
  568MOL0     O76548  11.335   0.778   3.199  0.1192  0.9655  0.7717
  568MOL0     C76549  11.372   0.791   3.332  0.1922 -0.3070 -0.2740
  568MOL0     C76550  11.296   0.890   3.387  0.2594 -0.1714 -0.6568
  568MOL0     C76551  11.301   0.916   3.523  0.2979 -0.4545 -0.3475
  568MOL0     C76552  11.383   0.844   3.602  0.2851 -0.1199  0.8005
  568MOL0     O76553  11.385   0.883   3.733 -0.6124 -0.1705 -0.0374
  568MOL0     C76554  11.513   0.911   3.784  0.8109  0.8685 -0.5457
  568MOL0     C76555  11.504   1.003   3.904 -0.3506  0.3411  0.6013
  568MOL0     C76556  11.421   0.935   4.021 -0.0089  0.4931  0.4477
  568MOL0     C76557  11.394   1.029   4.143  0.6827  0.1147 -0.0033
  568MOL0     C76558  11.315   0.961   4.258 -0.0353 -0.1167 -0.3788
  568MOL0     C76559  11.400   0.868   4.345 -0.0020  0.3530 -0.4204
  568MOL0     C76560  11.527   0.938   4.393 -0.4281 -0.3771 -0.1912
  568MOL0     C76561  11.604   0.856   4.497 -0.3158 -0.5493 -0.5332
  568MOL0     N76562  11.552   0.850   4.626  0.8982 -0.1906 -0.2425
  568MOL0     C76563  11.482   0.948   4.697 -0.0971 -0.5115  0.5053
  568MOL0     C76564  11.438   0.877   4.802  0.1342  0.8880  0.4771
  568MOL0     C76565  11.323   0.912   4.889 -0.3146  1.2555 -0.5985
  568MOL0     C76566  11.190   0.907   4.819  1.1117  1.0938  0.7635
  568MOL0     C76567  11.156   0.772   4.745  0.8668  1.3562 -0.1082
  568MOL0     C76568  11.007   0.773   4.729 -0.0994  0.8084  0.5635
  568MOL0     O76569  10.970   0.901   4.671 -1.2693 -0.1017  0.1569
  568MOL0     C76570  10.950   0.924   4.539 -0.5196  0.0712  0.4544
  568MOL0     C76571  10.963   0.829   4.434 -0.0281 -0.2077  0.0271
  568MOL0     C76572  10.926   0.871   4.305  0.3695  0.9261  0.1551
  568MOL0     C76573  10.882   0.992   4.277  0.5159  0.5534 -0.0002
  568MOL0     C76574  10.866   1.027   4.127 -1.8490 -0.2985 -0.7599
  568MOL0     O76575  10.927   0.949   4.025  0.2517 -0.4977 -0.2804
  568MOL0     C76576  10.883   0.951   3.902 -0.4921 -0.1648 -0.1090
  568MOL0     C76577  10.748   0.947   3.862 -0.4714 -0.2289 -0.4969
  568MOL0     C76578  10.723   0.920   3.721  1.0014 -1.3233 -0.4853
  568MOL0     C76579  10.826   0.903   3.629 -0.5029 -0.4604  0.0634
  568MOL0     O76580  10.794   0.874   3.493  0.3271  0.2379  0.3645
  568MOL0     C76581  10.882   0.807   3.398  0.4117  0.1635  0.9399
  568MOL0     C76582  10.895   0.654   3.410 -0.5971  0.0104 -0.1239
  568MOL0     C76583  10.936   0.605   3.271 -0.0825  0.4802 -0.4351
  568MOL0     C76584  10.883   0.454   3.263  0.7932  0.0190  0.6757
  568MOL0     C76585  10.909   0.401   3.122 -0.2152  0.6147  0.2007
  568MOL0     C76586  10.872   0.265   3.097  0.5519 -0.1426 -0.5305
  568MOL0     C76587  10.923   0.214   2.965  0.6482  0.2250  0.6242
  568MOL0     C76588  10.879   0.075   2.938  0.3411  0.0518 -0.3471
  568MOL0    Cl76589  10.707   0.078   2.939 -0.1836 -0.2843  0.1310
  568MOL0     C76590  10.956   0.920   3.668 -0.3556 -0.5028 -0.5160
  568MOL0     C76591  10.986   0.928   3.806  0.3396  0.0973 -0.2653
  568MOL0     O76592  10.806   1.134   4.105  0.8902  0.4035  0.7921
  568MOL0     C76593  10.860   1.084   4.379  0.0292 -0.8874 -1.3501
  568MOL0     C76594  10.889   1.051   4.511  0.4789  0.5945  0.0046
  568MOL0     N76595  11.469   0.741   4.791  0.2783  0.3615  0.3119
  568MOL0     N76596  11.543   0.733   4.694  0.8861 -0.4412 -0.9557
  568MOL0     C76597  11.474   0.746   3.547  0.0770 -1.0585  0.1410
  568MOL0     C76598  11.472   0.728   3.404 -0.5233  0.6114  0.2537
  568MOL0     C76599  11.360   0.682   2.978 -0.8035  1.0222 -0.6168
  568MOL0     C76600  11.221   0.634   2.987 -0.0015 -1.1007 -0.2127
  568MOL0     C76601  11.144   0.583   2.881  0.0316 -0.0461 -0.9107
  568MOL0     C76602  11.201   0.571   2.761  0.4478  0.4713 -0.5266
  568MOL0     O76603  11.133   0.515   2.651  0.1946 -0.1479 -0.3020
  568MOL0     C76604  11.111   0.371   2.695  0.3235 -1.3440  0.3173
  568MOL0     C76605  11.112   0.279   2.568  0.1803  0.8540  0.6172
  568MOL0     C76606  11.066   0.131   2.598 -0.5145 -0.1249 -0.1485
  568MOL0     C76607  11.049   0.030   2.476  0.4867  0.2864  0.4178
  568MOL0     C76608  11.180   0.008   2.410  0.0886  0.6300  0.5756
  568MOL0     C76609  11.282  -0.015   2.346 -1.0867 -0.8751 -0.6158
  568MOL0     C76610  11.333   0.606   2.752  0.1599  0.5159  0.7675
  568MOL0     C76611  11.408   0.677   2.844  0.4138  0.4322 -0.2119
  568MOL0     C76612  11.556   0.705   2.793 -0.0537 -0.2361 -0.4248
  568MOL0     H76613  11.220   0.935   3.323 -1.4258 -2.5903 -0.4868
  568MOL0     H76614  11.229   0.983   3.568  0.1799  0.3272 -1.6612
  568MOL0     H76615  11.563   0.818   3.810 -0.1653  1.1042  2.5418
  568MOL0     H76616  11.574   0.957   3.706 -1.6358  2.3273 -1.7405
  568MOL0     H76617  11.472   1.103   3.871  2.9091  0.8817 -1.3407
  568MOL0     H76618  11.606   1.020   3.940 -0.0916 -1.2303  0.6657
  568MOL0     H76619  11.477   0.851   4.064  1.8546  0.8329 -1.1571
  568MOL0     H76620  11.323   0.898   3.989 -1.3952  2.7859  1.7390
  568MOL0     H76621  11.481   1.085   4.181  0.8788 -1.4693  2.0044
  568MOL0     H76622  11.326   1.109   4.112  1.1353  0.7178  0.5074
  568MOL0     H76623  11.264   1.028   4.327  1.5730 -0.1956  0.9862
  568MOL0     H76624  11.241   0.904   4.202 -0.7491  1.4444 -1.0455
  568MOL0     H76625  11.330   0.836   4.423  0.9132 -0.1590  0.2205
  568MOL0     H76626  11.434   0.774   4.301  1.4817  0.5781  0.1597
  568MOL0     H76627  11.492   1.032   4.436 -0.2736 -0.1052 -0.6598
  568MOL0     H76628  11.595   0.964   4.311 -0.3956  1.3946  0.3601
  568MOL0     H76629  11.607   0.755   4.457 -2.8622 -0.1728 -1.8982
  568MOL0     H76630  11.709   0.886   4.503 -0.7304  0.6476  1.6175
  568MOL0     H76631  11.457   1.047   4.661  0.6684 -0.9241 -1.2743
  568MOL0     H76632  11.312   0.846   4.975 -3.1628  1.0222 -1.0227
  568MOL0     H76633  11.336   1.017   4.915 -3.0280  1.3197  0.8256
  568MOL0     H76634  11.113   0.929   4.895  1.0720 -0.0809  1.0829
  568MOL0     H76635  11.174   0.990   4.749 -3.2897 -1.5739 -1.8451
  568MOL0     H76636  11.182   0.691   4.815 -0.6146  0.6893 -0.2895
  568MOL0     H76637  11.190   0.758   4.642 -0.3944 -1.1917 -0.2835
  568MOL0     H76638  10.955   0.765   4.825  3.1925 -1.6235  2.3483
  568MOL0     H76639  10.993   0.684   4.666 -1.1647  0.0670  1.7894
  568MOL0     H76640  11.016   0.736   4.451  2.4023  1.1109  0.0762
  568MOL0     H76641  10.944   0.800   4.225 -0.5782 -0.4181  1.0774
  568MOL0     H76642  10.670   0.949   3.938  1.4326  4.0450  1.6409
  568MOL0     H76643  10.621   0.924   3.685  0.9367 -1.7851 -0.3580
  568MOL0     H76644  10.844   0.837   3.300  0.2402  0.3237  1.0547
  568MOL0     H76645  10.982   0.851   3.394  0.0957  0.8438 -0.0121
  568MOL0     H76646  10.967   0.623   3.486 -1.6589 -0.0999  0.8768
  568MOL0     H76647  10.800   0.618   3.451 -0.7389  1.8398  1.3255
  568MOL0     H76648  10.896   0.658   3.184 -0.8772 -0.3894 -0.6155
  568MOL0     H76649  11.045   0.601   3.265 -0.1275 -0.1922 -0.8646
  568MOL0     H76650  10.775   0.448   3.280  0.7847  1.0860  1.0595
  568MOL0     H76651  10.938   0.400   3.341 -0.1305  0.4671  1.6680
  568MOL0     H76652  11.019   0.400   3.121 -0.1610 -0.4177  2.2612
  568MOL0     H76653  10.873   0.469   3.044  0.5322  2.0412  1.0658
  568MOL0     H76654  10.899   0.214   3.190 -1.0903  0.0410  0.0823
  568MOL0     H76655  10.763   0.278   3.099  0.7691  2.3647 -1.5556
  568MOL0     H76656  11.032   0.224   2.964  0.8177 -0.1319  4.0010
  568MOL0     H76657  10.884   0.282   2.889 -2.4297  1.5710  3.1461
  568MOL0     H76658  10.906   0.032   2.841 -3.6530  0.3503 -1.7543
  568MOL0     H76659  10.933   0.004   3.000 -0.1853 -1.9170 -2.0490
  568MOL0     H76660  11.041   0.909   3.602  1.5757 -0.0274  1.7408
  568MOL0     H76661  11.087   0.912   3.841 -0.4045 -1.9051  1.1502
  568MOL0     H76662  10.821   1.184   4.361 -0.6517 -1.1242 -1.2193
  568MOL0     H76663  10.898   1.126   4.588  2.2585 -3.4506  4.2193
  568MOL0     H76664  11.548   0.711   3.618 -0.7251  0.3370  1.7317
  568MOL0     H76665  11.547   0.664   3.357 -0.6465 -1.9976  3.2700
  568MOL0     H76666  11.156   0.629   3.073  0.0098 -0.8656 -0.1899
  568MOL0     H76667  11.041   0.554   2.897  0.8024 -1.1529  3.6932
  568MOL0     H76668  11.016   0.360   2.748  1.3409 -0.8180  2.3306
  568MOL0     H76669  11.177   0.336   2.775  1.1704 -1.6208 -0.4834
  568MOL0     H76670  11.213   0.275   2.527 -0.3039  0.0622 -0.5486
  568MOL0     H76671  11.050   0.313   2.484  0.7398  2.1066  0.6914
  568MOL0     H76672  10.971   0.140   2.652 -1.3311  1.3642 -1.7454
  568MOL0     H76673  11.145   0.098   2.666 -0.4791  3.0026  1.4739
  568MOL0     H76674  11.027  -0.068   2.519 -2.2645  1.1098  1.0500
  568MOL0     H76675  10.961   0.066   2.423  0.4269 -4.0009 -2.9139
  568MOL0     H76676  11.382  -0.020   2.311 -0.2580  3.3075  0.5400
  568MOL0     H76677  11.381   0.577   2.659 -2.6122  0.2444 -0.6845
  568MOL0     H76678  11.595   0.788   2.852  0.2902 -1.8845  1.8470
  568MOL0     H76679  11.610   0.610   2.807 -2.7094 -1.7397  0.4762
  568MOL0     H76680  11.574   0.715   2.686  2.4871 -0.6173 -0.0972
  569MOL0     O76681   5.896   4.702   6.029 -0.0891  0.9956 -0.3524
  569MOL0     C76682   5.993   4.625   6.000  0.4118 -0.3918  0.7615
  569MOL0     O76683   6.080   4.649   5.894  0.3101 -0.3840  0.3404
  569MOL0     C76684   6.058   4.766   5.828  0.3396 -0.6136 -0.6762
  569MOL0     C76685   6.103   4.901   5.851 -0.6037 -0.0084  0.5807
  569MOL0     C76686   6.082   5.001   5.758  0.3402  0.3079  0.9506
  569MOL0     C76687   6.002   4.980   5.651  0.3337  0.6421  0.1235
  569MOL0     O76688   5.996   5.071   5.556 -0.2260 -0.1757  0.4155
  569MOL0     C76689   5.897   5.170   5.587 -0.3173 -0.1413 -0.6938
  569MOL0     C76690   5.882   5.297   5.484 -0.5354  0.4324 -0.5990
  569MOL0     C76691   5.753   5.375   5.503 -0.4545  0.3536  1.1177
  569MOL0     C76692   5.753   5.504   5.435  1.1391 -0.1624 -0.1273
  569MOL0     C76693   5.693   5.622   5.515  0.5182 -0.1191 -0.0082
  569MOL0     C76694   5.546   5.577   5.546  0.1469 -0.3570  0.4344
  569MOL0     C76695   5.454   5.674   5.621  0.4826 -0.6064 -0.1821
  569MOL0     C76696   5.427   5.814   5.544  0.1262 -0.2673  0.5418
  569MOL0     N76697   5.372   5.799   5.407 -0.0027  0.5016  0.6262
  569MOL0     C76698   5.243   5.802   5.359  0.1023  0.3625  0.3636
  569MOL0     C76699   5.246   5.743   5.236 -0.9525 -0.7664 -0.9723
  569MOL0     C76700   5.118   5.711   5.153 -0.3773  0.1646 -0.0222
  569MOL0     C76701   5.106   5.820   5.037  0.7694 -0.9335  0.4558
  569MOL0     C76702   5.229   5.825   4.955 -0.3267 -0.4638  0.1422
  569MOL0     C76703   5.215   5.908   4.832  0.2346 -0.3361 -0.3940
  569MOL0     O76704   5.133   5.838   4.740 -0.7897  0.4751  0.1487
  569MOL0     C76705   5.184   5.745   4.648 -0.4991  0.7124  0.9124
  569MOL0     C76706   5.138   5.618   4.637 -0.3988  0.2520  0.1352
  569MOL0     C76707   5.199   5.526   4.567 -0.2376  0.1326  0.5960
  569MOL0     C76708   5.318   5.558   4.486  1.1019 -0.3349 -0.5790
  569MOL0     C76709   5.393   5.464   4.392  0.2851 -0.1462 -1.1428
  569MOL0     O76710   5.501   5.518   4.340 -0.2483  0.5145  0.6136
  569MOL0     C76711   5.581   5.445   4.254  0.3793  0.1635 -1.2121
  569MOL0     C76712   5.538   5.424   4.126  0.5732  0.6296  0.4134
  569MOL0     C76713   5.619   5.364   4.032 -0.3905  0.0827  0.1269
  569MOL0     C76714   5.750   5.327   4.081  0.0181 -0.7716  0.2397
  569MOL0     O76715   5.846   5.300   3.982  0.0216  0.6010 -0.2085
  569MOL0     C76716   5.976   5.249   4.013  0.1747 -0.4841 -0.0670
  569MOL0     C76717   6.054   5.222   3.879  0.0799  0.7082 -0.1780
  569MOL0     C76718   6.022   5.096   3.807  0.0530 -0.5135 -0.2621
  569MOL0     C76719   6.016   4.966   3.911 -0.3575  0.3241 -0.2473
  569MOL0     C76720   5.993   4.840   3.834 -0.4793  0.7086 -0.5206
  569MOL0     C76721   5.847   4.810   3.789  0.4368  0.5571 -0.6322
  569MOL0     C76722   5.858   4.682   3.700 -0.3400  0.2118 -0.2462
  569MOL0     C76723   5.746   4.655   3.603  0.8429 -0.8483 -0.3636
  569MOL0    Cl76724   5.595   4.619   3.696 -0.3770 -0.1975 -0.3039
  569MOL0     C76725   5.797   5.343   4.208  0.3752  0.4026  0.2494
  569MOL0     C76726   5.712   5.402   4.296 -0.5344  0.5724  0.3157
  569MOL0     O76727   5.352   5.348   4.383  0.6940  0.4481  0.1181
  569MOL0     C76728   5.361   5.693   4.485  0.9414 -1.0992 -0.6516
  569MOL0     C76729   5.299   5.785   4.568  0.5947  0.6951 -0.2208
  569MOL0     N76730   5.382   5.713   5.206  0.1115  0.1485  0.5517
  569MOL0     N76731   5.453   5.754   5.311 -0.6929 -0.0369  0.2467
  569MOL0     C76732   5.951   4.854   5.624 -0.6565 -0.6740  0.5417
  569MOL0     C76733   5.979   4.744   5.713 -0.6011 -0.5627  0.1513
  569MOL0     C76734   6.031   4.513   6.087  0.7310 -0.3496  0.7913
  569MOL0     C76735   6.163   4.510   6.114 -1.1058  0.0342 -0.6412
  569MOL0     C76736   6.193   4.414   6.211  0.6522  0.1809  0.8990
  569MOL0     C76737   6.112   4.310   6.249  0.3406 -1.0663  0.1801
  569MOL0     O76738   6.164   4.208   6.311 -0.0829  0.9281 -0.4140
  569MOL0     C76739   6.260   4.233   6.421  0.6237  0.5052 -0.0656
  569MOL0     C76740   6.244   4.136   6.536 -0.7217 -0.3337 -1.1494
  569MOL0     C76741   6.371   4.133   6.637  0.0821 -0.7118 -0.2678
  569MOL0     C76742   6.347   4.051   6.754  0.9754  0.3249 -0.9502
  569MOL0     C76743   6.354   3.901   6.729  0.1963 -0.9564  0.6448
  569MOL0     C76744   6.348   3.777   6.709 -0.1051 -0.4459 -0.3352
  569MOL0     C76745   5.983   4.317   6.203  0.0394  0.5319  0.2875
  569MOL0     C76746   5.936   4.414   6.123  0.3749  0.3816  0.0092
  569MOL0     C76747   5.786   4.438   6.099  1.0107 -0.2260  0.5710
  569MOL0     H76748   6.171   4.907   5.935  0.7056  2.3510 -0.5607
  569MOL0     H76749   6.126   5.098   5.774  0.7788 -0.0907  2.2765
  569MOL0     H76750   5.800   5.122   5.605 -0.5230  0.9282  1.3062
  569MOL0     H76751   5.926   5.210   5.684  1.7265  0.0424 -1.3423
  569MOL0     H76752   5.876   5.256   5.383  2.2919  3.7269 -2.3517
  569MOL0     H76753   5.969   5.362   5.503 -0.5891 -0.1788  2.1326
  569MOL0     H76754   5.742   5.376   5.612 -0.9578 -1.0375  1.0997
  569MOL0     H76755   5.663   5.320   5.474  0.3432 -1.8512  2.5587
  569MOL0     H76756   5.854   5.545   5.426  0.6497  1.7335  2.0738
  569MOL0     H76757   5.699   5.484   5.343  0.1910  0.9691  0.1724
  569MOL0     H76758   5.759   5.657   5.595  0.6549  1.0757 -0.6293
  569MOL0     H76759   5.691   5.696   5.435 -1.0050 -1.4274 -1.2411
  569MOL0     H76760   5.496   5.545   5.454  0.2988 -0.9520  0.5526
  569MOL0     H76761   5.551   5.487   5.609  1.9053 -1.3461 -0.9988
  569MOL0     H76762   5.486   5.683   5.725 -0.9113 -0.9751  0.3092
  569MOL0     H76763   5.354   5.632   5.634 -1.5463  3.2495 -1.5553
  569MOL0     H76764   5.350   5.859   5.608  1.9310  2.0049  1.2762
  569MOL0     H76765   5.511   5.884   5.546 -1.5310  1.8442  0.1807
  569MOL0     H76766   5.153   5.823   5.416  1.0769  2.2065  1.3161
  569MOL0     H76767   5.124   5.615   5.101  1.0113 -0.8325  1.8541
  569MOL0     H76768   5.030   5.704   5.217 -0.5602  2.8133  0.1225
  569MOL0     H76769   5.017   5.786   4.983 -0.6802  2.0360  0.7357
  569MOL0     H76770   5.091   5.923   5.072  1.4774 -1.3291  2.0296
  569MOL0     H76771   5.272   5.729   4.922  0.8914  0.3890 -0.8672
  569MOL0     H76772   5.308   5.878   5.009  1.6769 -2.3441 -0.7669
  569MOL0     H76773   5.318   5.930   4.801  0.0370  3.1178  0.9845
  569MOL0     H76774   5.168   6.005   4.849  2.0694  0.6528 -0.7459
  569MOL0     H76775   5.049   5.594   4.694 -1.0189  0.1024 -0.8743
  569MOL0     H76776   5.157   5.426   4.569 -1.9440  0.8292  0.4480
  569MOL0     H76777   5.441   5.461   4.096  0.5272 -1.0869 -1.8607
  569MOL0     H76778   5.580   5.337   3.935 -1.4125  1.1528  0.2198
  569MOL0     H76779   6.038   5.322   4.066  0.2771 -1.0320  0.5682
  569MOL0     H76780   5.972   5.158   4.073 -0.4417  0.4756  1.4315
  569MOL0     H76781   6.046   5.313   3.817  0.6920  1.9970  1.5488
  569MOL0     H76782   6.161   5.213   3.900  0.3045  1.4281 -0.9319
  569MOL0     H76783   5.922   5.096   3.762 -1.0611  0.3345  2.0349
  569MOL0     H76784   6.086   5.088   3.719  3.7828  4.5643  1.4521
  569MOL0     H76785   5.931   4.972   3.980  2.3003  1.2936  3.2718
  569MOL0     H76786   6.104   4.956   3.976 -1.9571 -3.3218  1.6294
  569MOL0     H76787   6.034   4.764   3.901 -0.4978 -0.5990 -1.9341
  569MOL0     H76788   6.060   4.843   3.748 -0.1213 -3.2674 -0.5716
  569MOL0     H76789   5.778   4.800   3.873  1.9916  0.1604  0.6489
  569MOL0     H76790   5.807   4.890   3.725 -6.2749 -1.6617  0.0781
  569MOL0     H76791   5.858   4.595   3.767  0.9774 -0.0048 -0.5008
  569MOL0     H76792   5.959   4.671   3.659  0.4002  0.2138  1.4728
  569MOL0     H76793   5.735   4.747   3.547 -1.2919 -0.2350  0.9464
  569MOL0     H76794   5.762   4.575   3.530 -2.4574 -2.1764  0.1709
  569MOL0     H76795   5.901   5.331   4.237  0.9576  5.4615  1.2596
  569MOL0     H76796   5.738   5.421   4.400 -4.1298  3.1959  0.9323
  569MOL0     H76797   5.452   5.727   4.435  1.6376 -2.5329 -0.4229
  569MOL0     H76798   5.326   5.890   4.559  0.9300  0.7080  0.7989
  569MOL0     H76799   5.891   4.837   5.535  0.3801  1.1031 -0.5546
  569MOL0     H76800   5.933   4.650   5.686 -5.3961  0.6661  2.7982
  569MOL0     H76801   6.245   4.576   6.087  1.0842 -2.7714 -1.3516
  569MOL0     H76802   6.297   4.417   6.242  0.4871  0.9717  1.3959
  569MOL0     H76803   6.245   4.326   6.476 -1.4439 -0.1044  0.4934
  569MOL0     H76804   6.361   4.211   6.383 -0.0366 -2.5224 -0.3395
  569MOL0     H76805   6.230   4.035   6.497  1.2059  0.2331 -3.5724
  569MOL0     H76806   6.164   4.171   6.601  1.4273  1.3312  0.7599
  569MOL0     H76807   6.391   4.237   6.666 -3.3060  0.5881 -2.0726
  569MOL0     H76808   6.458   4.090   6.586 -0.7168 -2.3302 -0.3254
  569MOL0     H76809   6.428   4.067   6.826 -0.4362 -0.2990  0.8446
  569MOL0     H76810   6.254   4.061   6.811 -0.1554 -3.5305 -1.8046
  569MOL0     H76811   6.357   3.672   6.687  1.2257 -0.9048  2.1175
  569MOL0     H76812   5.922   4.237   6.244  1.2341 -0.1816  0.7129
  569MOL0     H76813   5.726   4.352   6.129 -0.0626  0.7429  1.2697
  569MOL0     H76814   5.741   4.526   6.145 -0.6473 -0.4308 -0.5934
  569MOL0     H76815   5.759   4.453   5.994  1.4537  0.3404  0.5345
  570MOL0     O76816   4.318   9.081   0.421 -0.2697 -0.5524 -0.0214
  570MOL0     C76817   4.239   9.060   0.327  0.0218 -0.3941  0.1346
  570MOL0     O76818   4.167   8.943   0.307  0.1725 -0.3927 -0.5467
  570MOL0     C76819   4.162   8.844   0.400 -0.2423  0.0006 -0.1658
  570MOL0     C76820   4.051   8.761   0.391 -0.0213  0.4848 -0.5240
  570MOL0     C76821   4.051   8.641   0.466  0.0358  0.3113 -0.2617
  570MOL0     C76822   4.136   8.613   0.569 -0.4264 -0.3194  0.6515
  570MOL0     O76823   4.139   8.500   0.646  0.6380 -0.0740 -0.0319
  570MOL0     C76824   4.011   8.428   0.667  0.1641 -0.7657 -0.5667
  570MOL0     C76825   4.047   8.311   0.765  1.8885 -0.1731  0.4400
  570MOL0     C76826   3.938   8.209   0.774  0.2391 -0.9155 -0.1510
  570MOL0     C76827   3.909   8.122   0.648 -0.1021 -0.2873 -0.4100
  570MOL0     C76828   3.800   8.011   0.646 -0.2193 -0.5011  0.2226
  570MOL0     C76829   3.753   7.970   0.509 -0.2800 -0.0099 -0.0081
  570MOL0     C76830   3.646   7.863   0.517  0.1102 -0.2966 -0.9833
  570MOL0     C76831   3.635   7.777   0.388  0.3956 -0.2672  0.0945
  570MOL0     N76832   3.752   7.690   0.365 -0.4312  0.5467 -0.1840
  570MOL0     C76833   3.775   7.571   0.432 -0.6935 -0.3685  0.2435
  570MOL0     C76834   3.841   7.491   0.338  0.3495 -0.1072 -0.1712
  570MOL0     C76835   3.880   7.350   0.367 -1.0127 -0.4302  0.1504
  570MOL0     C76836   3.775   7.255   0.344  0.6589 -0.2154  0.1561
  570MOL0     C76837   3.797   7.105   0.387 -0.3465  0.2061 -0.5938
  570MOL0     C76838   3.875   7.086   0.517  0.3036  0.0368  0.3526
  570MOL0     O76839   3.836   7.172   0.620 -0.1765  0.4866 -0.1749
  570MOL0     C76840   3.731   7.147   0.700  0.8518  0.4822  0.3022
  570MOL0     C76841   3.693   7.020   0.748 -1.0113 -1.2684  1.6148
  570MOL0     C76842   3.569   6.998   0.797  0.3285 -0.4599 -0.0128
  570MOL0     C76843   3.476   7.105   0.831 -0.9015  0.6724  0.8884
  570MOL0     C76844   3.345   7.079   0.885 -0.5118  0.1039  0.5002
  570MOL0     O76845   3.300   7.157   0.987  0.0406  0.3615 -0.3777
  570MOL0     C76846   3.207   7.117   1.078 -1.0570 -0.0885 -0.4463
  570MOL0     C76847   3.256   7.086   1.214 -1.1725 -0.1172  0.2474
  570MOL0     C76848   3.163   7.062   1.316  0.5355  0.5010  0.0946
  570MOL0     C76849   3.024   7.061   1.285  1.2046  0.5036  0.1615
  570MOL0     O76850   2.941   7.022   1.398  0.1673  0.2050  0.7326
  570MOL0     C76851   2.797   7.014   1.370 -0.5519 -0.2789 -0.2123
  570MOL0     C76852   2.744   6.917   1.471  0.4358  0.0121 -0.8610
  570MOL0     C76853   2.788   6.936   1.617  0.1708  0.2184 -0.2483
  570MOL0     C76854   2.682   6.883   1.713 -0.4860  0.8236 -0.1167
  570MOL0     C76855   2.732   6.885   1.858 -0.5299 -0.1448  0.2604
  570MOL0     C76856   2.633   6.829   1.952  0.2073 -0.0181  1.0436
  570MOL0     C76857   2.685   6.836   2.095 -0.5942 -0.5793 -0.9978
  570MOL0     C76858   2.572   6.806   2.200  0.3148  0.6429  0.3188
  570MOL0    Cl76859   2.503   6.659   2.157 -0.7258  0.2356  0.3801
  570MOL0     C76860   2.976   7.073   1.154 -0.2351  0.5064  0.2942
  570MOL0     C76861   3.072   7.112   1.053 -0.0313 -0.6735 -0.5993
  570MOL0     O76862   3.271   6.996   0.832 -0.6013 -0.3822  0.1405
  570MOL0     C76863   3.522   7.233   0.784 -0.8567  1.1072 -0.4658
  570MOL0     C76864   3.641   7.251   0.713 -0.1955 -0.6975  0.2790
  570MOL0     N76865   3.852   7.564   0.221  0.4096 -0.2965 -0.1330
  570MOL0     N76866   3.804   7.678   0.237  0.8755  0.3094 -0.2767
  570MOL0     C76867   4.235   8.701   0.591 -0.5429  0.8286 -0.4605
  570MOL0     C76868   4.254   8.810   0.502 -0.3903 -0.4517 -1.2661
  570MOL0     C76869   4.218   9.167   0.232 -0.0422 -0.9494  0.6818
  570MOL0     C76870   4.111   9.154   0.135 -0.2191  0.4809  0.3447
  570MOL0     C76871   4.079   9.239   0.038 -1.0476  0.2255  0.4443
  570MOL0     C76872   4.159   9.357   0.025  0.3638 -0.4072  1.5873
  570MOL0     O76873   4.135   9.441  -0.079 -0.2960 -0.6279  1.0002
  570MOL0     C76874   4.223   9.551  -0.107 -0.3529  0.1428  0.2472
  570MOL0     C76875   4.141   9.647  -0.192 -0.9019  0.5487 -0.2578
  570MOL0     C76876   4.028   9.699  -0.106  0.8277 -0.6952 -0.7025
  570MOL0     C76877   3.969   9.827  -0.154  0.0515  1.4298 -0.0575
  570MOL0     C76878   4.046   9.936  -0.089  1.1149  0.6860 -0.1890
  570MOL0     C76879   4.128  10.012  -0.036 -0.5033  1.3486 -0.0540
  570MOL0     C76880   4.260   9.381   0.119 -0.9836  0.2228 -0.1482
  570MOL0     C76881   4.291   9.293   0.225  0.0583 -0.7089  0.0780
  570MOL0     C76882   4.407   9.338   0.302 -0.2732 -0.8024 -1.1905
  570MOL0     H76883   3.978   8.780   0.313  0.0826 -1.9433 -1.2968
  570MOL0     H76884   3.974   8.571   0.434  0.9022 -0.9842  0.4028
  570MOL0     H76885   3.941   8.491   0.721 -0.2164 -0.5856 -1.2564
  570MOL0     H76886   3.961   8.399   0.574 -2.9617  0.8002  0.4910
  570MOL0     H76887   4.064   8.352   0.865  1.1637  1.8424 -0.2155
  570MOL0     H76888   4.137   8.259   0.731  0.8486 -1.5845 -0.2926
  570MOL0     H76889   3.842   8.259   0.791 -0.3095 -2.7366  3.1649
  570MOL0     H76890   3.964   8.141   0.856 -1.3578 -1.3288  0.0559
  570MOL0     H76891   3.896   8.188   0.562 -0.1198  1.2035  0.7004
  570MOL0     H76892   4.003   8.072   0.624  1.2525  0.7379  2.3102
  570MOL0     H76893   3.824   7.927   0.712  0.6869 -0.2097  0.2745
  570MOL0     H76894   3.718   8.062   0.697 -0.6706 -1.1323  0.1373
  570MOL0     H76895   3.732   8.060   0.449  4.2035 -0.6063 -2.9420
  570MOL0     H76896   3.838   7.930   0.454 -2.4370  1.1370 -4.7402
  570MOL0     H76897   3.547   7.907   0.532  0.0787 -0.9126  0.9948
  570MOL0     H76898   3.650   7.806   0.611 -1.7015  2.0538  0.6430
  570MOL0     H76899   3.539   7.726   0.400  0.9750 -1.4132 -0.0144
  570MOL0     H76900   3.627   7.844   0.302  2.5949 -1.6928 -1.3367
  570MOL0     H76901   3.766   7.542   0.536  2.0175  1.1675  0.9856
  570MOL0     H76902   3.962   7.324   0.299 -1.6200 -3.3894  0.4226
  570MOL0     H76903   3.918   7.346   0.469 -0.0802  1.1345 -0.1077
  570MOL0     H76904   3.679   7.292   0.381 -0.9403 -1.1538 -2.7450
  570MOL0     H76905   3.757   7.240   0.237  2.2867 -0.1942 -0.1555
  570MOL0     H76906   3.862   7.046   0.320  0.6667 -3.7742  3.4336
  570MOL0     H76907   3.702   7.055   0.404 -0.4511  0.8914  0.9393
  570MOL0     H76908   3.980   7.106   0.496  0.6884 -0.8501  1.3432
  570MOL0     H76909   3.890   6.982   0.546  2.7668 -0.2821 -1.7792
  570MOL0     H76910   3.749   6.937   0.705 -0.2148  1.6452 -3.7803
  570MOL0     H76911   3.546   6.893   0.804 -0.0593 -0.4625 -1.1975
  570MOL0     H76912   3.362   7.098   1.231 -1.6415  2.3971  1.9112
  570MOL0     H76913   3.197   7.043   1.418 -0.2821 -3.8444 -0.2234
  570MOL0     H76914   2.751   7.113   1.366 -2.4291 -1.1323 -1.3314
  570MOL0     H76915   2.775   6.964   1.275  0.9918 -1.3374 -0.0496
  570MOL0     H76916   2.635   6.925   1.464  0.2984  0.8596  1.4387
  570MOL0     H76917   2.767   6.814   1.445 -4.9553 -1.6198 -0.5037
  570MOL0     H76918   2.881   6.880   1.626 -0.1243 -0.1051  1.0356
  570MOL0     H76919   2.809   7.043   1.626  1.0724  0.6184 -4.7919
  570MOL0     H76920   2.657   6.780   1.690 -1.4002  0.5580  1.8468
  570MOL0     H76921   2.592   6.943   1.695 -0.6296  0.3129 -1.1319
  570MOL0     H76922   2.749   6.987   1.893  0.3425  1.2820 -3.8079
  570MOL0     H76923   2.829   6.836   1.870 -0.9771 -0.6394  2.1776
  570MOL0     H76924   2.553   6.900   1.932  0.2145  0.0614  1.2970
  570MOL0     H76925   2.609   6.729   1.914  1.2125 -0.7693  2.2920
  570MOL0     H76926   2.714   6.940   2.111 -1.1891 -0.5738  0.1813
  570MOL0     H76927   2.762   6.758   2.100  0.1876  0.2762  2.0001
  570MOL0     H76928   2.610   6.777   2.298 -2.0655  1.0772  1.4440
  570MOL0     H76929   2.497   6.886   2.206 -1.0460 -0.5473 -0.1033
  570MOL0     H76930   2.876   7.064   1.114 -1.1327  2.3776  1.9734
  570MOL0     H76931   3.047   7.137   0.950  0.5393  1.3207 -0.2943
  570MOL0     H76932   3.453   7.316   0.793  0.3548  2.0077  1.0147
  570MOL0     H76933   3.660   7.352   0.675  3.2432 -0.9759  0.8905
  570MOL0     H76934   4.308   8.690   0.671 -0.0705  1.0506 -0.8521
  570MOL0     H76935   4.344   8.866   0.527  2.9640 -4.4043 -3.3478
  570MOL0     H76936   4.058   9.060   0.129 -0.2099  0.5321 -0.6698
  570MOL0     H76937   3.991   9.242  -0.026  0.0330  1.5538 -1.0700
  570MOL0     H76938   4.308   9.506  -0.159 -1.0896 -2.4185  1.1329
  570MOL0     H76939   4.261   9.612  -0.025 -0.0958  1.3947 -0.7677
  570MOL0     H76940   4.114   9.585  -0.278 -2.1906  1.4409 -0.5166
  570MOL0     H76941   4.212   9.718  -0.236  1.4829 -1.1805  0.6032
  570MOL0     H76942   4.059   9.720  -0.004  1.6285 -1.0314 -0.8657
  570MOL0     H76943   3.950   9.623  -0.103 -0.1547  0.2963 -0.2808
  570MOL0     H76944   3.973   9.829  -0.263  1.5123  1.2876 -0.0237
  570MOL0     H76945   3.864   9.833  -0.124 -0.3856 -0.6873 -1.0142
  570MOL0     H76946   4.188  10.088   0.010 -0.0206  0.2499  1.1767
  570MOL0     H76947   4.324   9.468   0.107 -1.3210  0.9456  2.7151
  570MOL0     H76948   4.459   9.252   0.344  0.5660 -0.5582 -1.7006
  570MOL0     H76949   4.478   9.402   0.248  0.4165  1.0555  1.6612
  570MOL0     H76950   4.374   9.407   0.380  0.5655 -0.0949 -1.4365
  571MOL0     O76951   8.405   4.326   0.010  0.5586  0.3118 -0.0587
  571MOL0     C76952   8.321   4.233  -0.005 -0.3891 -0.0804 -1.0778
  571MOL0     O76953   8.229   4.219  -0.111  0.4017 -0.0948  0.0711
  571MOL0     C76954   8.205   4.316  -0.201 -1.0308  0.1904  0.4950
  571MOL0     C76955   8.128   4.280  -0.323 -1.2307  0.8236  0.3480
  571MOL0     C76956   8.109   4.371  -0.429 -0.5370  0.1946 -0.2210
  571MOL0     C76957   8.147   4.507  -0.404 -0.5298 -0.3438  0.6426
  571MOL0     O76958   8.104   4.593  -0.507  0.6748  0.0411  0.8034
  571MOL0     C76959   8.189   4.695  -0.559  0.0704  0.4128 -0.5573
  571MOL0     C76960   8.163   4.832  -0.504 -0.3654  0.7067 -0.9955
  571MOL0     C76961   8.039   4.906  -0.572 -0.1348 -1.1063 -0.4430
  571MOL0     C76962   7.918   4.911  -0.487 -0.0291 -0.2511 -0.2394
  571MOL0     C76963   7.798   4.995  -0.550 -0.3494  1.2605 -0.8617
  571MOL0     C76964   7.733   4.916  -0.669 -1.4987 -0.1846 -0.4417
  571MOL0     C76965   7.599   4.968  -0.705 -0.3683 -0.1575 -0.3265
  571MOL0     C76966   7.609   5.100  -0.781  0.0657  0.3840 -0.2126
  571MOL0     N76967   7.488   5.178  -0.757 -0.0351 -0.3226  0.6416
  571MOL0     C76968   7.362   5.140  -0.802 -0.0872 -1.0002 -0.1901
  571MOL0     C76969   7.289   5.248  -0.768  0.6534 -0.3284 -0.1627
  571MOL0     C76970   7.136   5.249  -0.754  0.3976 -0.4546 -0.5109
  571MOL0     C76971   7.060   5.167  -0.848  0.4339  0.0878  0.6140
  571MOL0     C76972   6.904   5.193  -0.849 -1.7391 -0.4295  0.5542
  571MOL0     C76973   6.873   5.315  -0.936  0.3433  0.0730  0.2275
  571MOL0     O76974   6.737   5.337  -0.919  0.2442 -0.3298 -0.1930
  571MOL0     C76975   6.684   5.461  -0.952  0.3170 -0.2088  1.0649
  571MOL0     C76976   6.735   5.586  -0.922 -0.2073 -0.4815 -0.3769
  571MOL0     C76977   6.669   5.708  -0.949  0.2429 -0.0312 -0.2268
  571MOL0     C76978   6.537   5.712  -0.988 -0.7435  0.2460 -0.2586
  571MOL0     C76979   6.486   5.839  -1.039 -0.3711  0.1054 -0.2426
  571MOL0     O76980   6.587   5.926  -1.080 -0.0605  0.5942 -0.4326
  571MOL0     C76981   6.555   6.054  -1.123  0.4662  0.2936  0.1586
  571MOL0     C76982   6.553   6.159  -1.031  0.2683  0.4381  0.1350
  571MOL0     C76983   6.515   6.290  -1.073 -0.5176 -0.7871  0.6764
  571MOL0     C76984   6.490   6.310  -1.216 -1.1466 -0.0333 -1.1744
  571MOL0     O76985   6.487   6.437  -1.264 -0.0795 -0.7021  0.6711
  571MOL0     C76986   6.508   6.469  -1.407  0.2596  0.2223  0.0344
  571MOL0     C76987   6.538   6.619  -1.424  0.5056  0.4309 -0.0622
  571MOL0     C76988   6.473   6.719  -1.336  0.7811 -0.4015 -1.0386
  571MOL0     C76989   6.319   6.711  -1.343 -0.1807  0.4276 -1.2468
  571MOL0     C76990   6.243   6.739  -1.215 -0.5722  0.1800 -0.1697
  571MOL0     C76991   6.288   6.889  -1.182  0.3936 -0.8951  0.1123
  571MOL0     C76992   6.195   6.986  -1.102 -0.2562  1.0217 -0.7362
  571MOL0     C76993   6.275   7.104  -1.042  0.0431 -0.1230  0.6317
  571MOL0    Cl76994   6.324   7.220  -1.165  0.2533 -0.4428  0.3586
  571MOL0     C76995   6.499   6.198  -1.301  1.3258 -0.0513  0.1689
  571MOL0     C76996   6.516   6.074  -1.250  0.6414  0.7839  0.4748
  571MOL0     O76997   6.365   5.860  -1.039 -0.3042 -0.0737 -0.4193
  571MOL0     C76998   6.485   5.583  -1.007  0.0134  0.1231  0.5740
  571MOL0     C76999   6.542   5.457  -0.992 -0.4788 -0.3559 -0.5916
  571MOL0     N77000   7.364   5.336  -0.690 -1.0461 -0.6383  0.2117
  571MOL0     N77001   7.481   5.285  -0.683  0.2206  0.6741 -0.8136
  571MOL0     C77002   8.222   4.545  -0.284  0.7977 -0.7041  0.5460
  571MOL0     C77003   8.252   4.449  -0.194 -0.8000 -0.2317 -1.2970
  571MOL0     C77004   8.299   4.147   0.105  0.8230  0.5585  0.1315
  571MOL0     C77005   8.393   4.042   0.130  0.3061 -1.1015  0.4875
  571MOL0     C77006   8.372   3.962   0.231  0.8325 -0.4778 -0.5628
  571MOL0     C77007   8.254   3.972   0.316 -0.9623  0.0519 -0.3283
  571MOL0     O77008   8.233   3.898   0.428  0.3608  0.0584 -0.0399
  571MOL0     C77009   8.349   3.833   0.491 -1.3575 -0.4990 -0.3723
  571MOL0     C77010   8.315   3.822   0.638 -0.5397 -0.6094 -1.0275
  571MOL0     C77011   8.413   3.716   0.706 -0.3861 -0.2474  0.2462
  571MOL0     C77012   8.367   3.572   0.687 -0.0220  0.1545 -0.6225
  571MOL0     C77013   8.486   3.492   0.665 -1.0717  0.0306  0.2583
  571MOL0     C77014   8.592   3.426   0.638  1.2570  0.0665 -0.8599
  571MOL0     C77015   8.149   4.059   0.281  0.0170 -0.3764 -0.9143
  571MOL0     C77016   8.172   4.151   0.173  0.3665  0.5424 -0.0170
  571MOL0     C77017   8.056   4.237   0.124  0.0708  0.5343 -0.2760
  571MOL0     H77018   8.094   4.177  -0.336 -2.1548  1.1737 -0.0931
  571MOL0     H77019   8.053   4.345  -0.518  0.2025  2.4766 -1.4231
  571MOL0     H77020   8.291   4.677  -0.523 -0.2605  0.5303  0.4749
  571MOL0     H77021   8.196   4.696  -0.668  0.7233  0.6662 -0.5200
  571MOL0     H77022   8.256   4.883  -0.532 -1.2470  1.2087 -3.3041
  571MOL0     H77023   8.154   4.829  -0.395  2.6126  0.0002 -0.6876
  571MOL0     H77024   8.011   4.867  -0.671 -1.1053 -2.0179  0.1759
  571MOL0     H77025   8.080   5.007  -0.586 -0.9147 -0.3795  2.1053
  571MOL0     H77026   7.888   4.806  -0.480  1.3310 -0.8382 -2.3781
  571MOL0     H77027   7.952   4.949  -0.391 -0.6427 -2.5672  0.9637
  571MOL0     H77028   7.730   5.000  -0.465 -0.0888 -2.1069 -0.3182
  571MOL0     H77029   7.841   5.090  -0.580  3.3236  0.2890  0.7102
  571MOL0     H77030   7.794   4.920  -0.760  3.2723  0.0144  2.4457
  571MOL0     H77031   7.728   4.811  -0.640  1.5667  0.3355  2.5240
  571MOL0     H77032   7.533   4.979  -0.618 -2.0818 -1.1167 -1.4536
  571MOL0     H77033   7.550   4.891  -0.766 -0.0848 -0.7528  0.1863
  571MOL0     H77034   7.684   5.174  -0.749  0.4104 -0.6098  1.3870
  571MOL0     H77035   7.621   5.086  -0.889 -1.0456  0.0570 -0.3020
  571MOL0     H77036   7.334   5.051  -0.857 -0.0189 -0.8646 -0.4458
  571MOL0     H77037   7.104   5.227  -0.652  0.0246 -0.5564 -0.6484
  571MOL0     H77038   7.107   5.354  -0.762 -1.4993 -0.6000  2.8046
  571MOL0     H77039   7.095   5.173  -0.951 -1.2247 -1.0606 -0.0709
  571MOL0     H77040   7.080   5.064  -0.816  6.4492  1.8285  3.8866
  571MOL0     H77041   6.864   5.220  -0.751 -1.0199 -0.4372  0.8554
  571MOL0     H77042   6.856   5.102  -0.886 -2.5465 -0.7229  2.2117
  571MOL0     H77043   6.906   5.306  -1.040 -0.9602  0.0627 -0.1944
  571MOL0     H77044   6.937   5.393  -0.892 -0.9124  2.5051 -1.9473
  571MOL0     H77045   6.824   5.602  -0.862 -2.0068 -1.1642  2.6650
  571MOL0     H77046   6.715   5.802  -0.921  3.0085 -0.9450 -1.4244
  571MOL0     H77047   6.563   6.138  -0.925 -3.6345 -2.4857  0.1082
  571MOL0     H77048   6.517   6.368  -0.999  3.3897 -1.3629  1.4183
  571MOL0     H77049   6.591   6.418  -1.457  2.5751  2.0596  1.7726
  571MOL0     H77050   6.410   6.460  -1.456 -0.1312  0.8379  0.6923
  571MOL0     H77051   6.644   6.630  -1.399  0.2139  0.9897  0.9748
  571MOL0     H77052   6.530   6.639  -1.532 -3.3089 -0.6709 -0.1142
  571MOL0     H77053   6.514   6.706  -1.235  2.4472 -4.1096 -2.0310
  571MOL0     H77054   6.507   6.814  -1.378  0.3764 -1.6734 -4.5583
  571MOL0     H77055   6.279   6.611  -1.365 -0.7614  0.1294  0.9093
  571MOL0     H77056   6.300   6.779  -1.427  2.7644  1.9662 -0.7843
  571MOL0     H77057   6.270   6.673  -1.132 -2.2574  1.0084  1.1133
  571MOL0     H77058   6.137   6.725  -1.241 -0.4497  1.5793 -1.5602
  571MOL0     H77059   6.392   6.887  -1.149  0.1850 -0.2518  0.8475
  571MOL0     H77060   6.289   6.952  -1.272 -3.6072  0.2105  0.6536
  571MOL0     H77061   6.170   6.934  -1.009  2.8780 -0.9092 -0.8204
  571MOL0     H77062   6.104   7.019  -1.153 -1.6375  1.0702  1.5988
  571MOL0     H77063   6.211   7.161  -0.974  1.2358  0.7787  1.0499
  571MOL0     H77064   6.356   7.079  -0.973  0.5719  2.2859  0.9999
  571MOL0     H77065   6.480   6.213  -1.407  0.5400  2.9411  0.6406
  571MOL0     H77066   6.508   5.986  -1.314 -2.3354  0.2334  1.4610
  571MOL0     H77067   6.384   5.588  -1.046  0.2760  1.1148 -0.0233
  571MOL0     H77068   6.494   5.363  -1.017  0.3378 -0.6484 -1.1245
  571MOL0     H77069   8.263   4.644  -0.268 -0.1665  0.3745 -2.7536
  571MOL0     H77070   8.305   4.485  -0.106  0.5087 -0.0925 -2.1152
  571MOL0     H77071   8.480   4.037   0.067 -0.2502 -0.2828 -0.3694
  571MOL0     H77072   8.462   3.904   0.247  2.1941  1.8044  0.5053
  571MOL0     H77073   8.446   3.884   0.495 -1.7416  0.4898  5.3163
  571MOL0     H77074   8.348   3.732   0.450 -1.2265 -1.5373  2.0005
  571MOL0     H77075   8.218   3.778   0.661 -0.8447  0.0748 -0.9745
  571MOL0     H77076   8.320   3.920   0.687 -2.4581 -1.7077  1.6046
  571MOL0     H77077   8.398   3.742   0.811 -2.8643 -1.9999  0.4038
  571MOL0     H77078   8.517   3.736   0.678 -1.1723  2.1269 -1.3652
  571MOL0     H77079   8.336   3.528   0.782  0.0278  0.9089 -0.2465
  571MOL0     H77080   8.292   3.548   0.611  0.5992  1.7100 -1.7870
  571MOL0     H77081   8.676   3.364   0.616  2.9888  1.8641  0.2851
  571MOL0     H77082   8.056   4.052   0.336 -1.2415 -0.7935 -3.0070
  571MOL0     H77083   7.972   4.256   0.192  0.1674 -0.5680  0.1604
  571MOL0     H77084   8.099   4.328   0.081  0.7145 -1.1239 -3.4684
  571MOL0     H77085   8.009   4.178   0.045 -0.8785  0.6021  0.2246
  572MOL0     O77086   5.065   1.080  10.645  0.7808 -0.1686 -1.0363
  572MOL0     C77087   5.161   1.045  10.711  0.3578  0.6430  0.8281
  572MOL0     O77088   5.243   0.948  10.666 -0.6101 -0.9644 -0.2480
  572MOL0     C77089   5.206   0.815  10.655 -0.0166  0.5748 -0.2854
  572MOL0     C77090   5.282   0.742  10.567 -0.7000  0.4232 -0.0680
  572MOL0     C77091   5.252   0.617  10.526  0.4520 -0.2759 -0.5625
  572MOL0     C77092   5.136   0.554  10.570 -0.9008  0.5574  0.2717
  572MOL0     O77093   5.131   0.418  10.540 -0.6408  0.3448 -0.2895
  572MOL0     C77094   5.002   0.359  10.526  0.4405  0.7780 -0.3426
  572MOL0     C77095   5.008   0.226  10.455  0.2911 -0.6917 -0.0459
  572MOL0     C77096   5.093   0.217  10.322 -0.5125  0.9862 -0.4748
  572MOL0     C77097   5.080   0.084  10.250  0.1358  0.1100  0.4103
  572MOL0     C77098   5.101  -0.044  10.330 -0.3150  0.2862  0.2122
  572MOL0     C77099   5.076  -0.169  10.238 -0.5824 -1.3556 -0.6766
  572MOL0     C77100   5.049  -0.284  10.336  0.1801  0.9391 -0.6562
  572MOL0     C77101   5.009  -0.413  10.253  0.1261 -0.1278 -0.2037
  572MOL0     N77102   5.001  -0.532  10.337  0.1385 -0.7054 -0.2340
  572MOL0     C77103   4.892  -0.539  10.416 -0.4700  0.2448  0.5299
  572MOL0     C77104   4.906  -0.654  10.480  0.6864  0.0925  0.0189
  572MOL0     C77105   4.819  -0.710  10.592  0.4517 -0.4644  0.4577
  572MOL0     C77106   4.728  -0.826  10.538 -0.2226 -0.0231 -0.0177
  572MOL0     C77107   4.643  -0.761  10.423 -0.3050 -0.9605  0.2360
  572MOL0     C77108   4.560  -0.877  10.365  0.3445 -0.1444 -0.2011
  572MOL0     O77109   4.488  -0.925  10.482 -0.5882 -0.5067 -0.3588
  572MOL0     C77110   4.466  -1.062  10.481  0.2509  0.1134  0.1001
  572MOL0     C77111   4.349  -1.130  10.453  0.7555 -0.0600  0.3990
  572MOL0     C77112   4.338  -1.272  10.472  1.1299 -0.9522  0.4360
  572MOL0     C77113   4.443  -1.346  10.525  0.3655 -0.2371 -0.1178
  572MOL0     C77114   4.423  -1.487  10.542 -0.7378 -0.8680 -0.7495
  572MOL0     O77115   4.519  -1.552  10.602  0.4108 -1.2322 -0.2357
  572MOL0     C77116   4.500  -1.681  10.645 -0.3750 -1.0502  0.0478
  572MOL0     C77117   4.588  -1.783  10.608 -0.9417 -0.4587 -0.3467
  572MOL0     C77118   4.570  -1.912  10.642 -0.0279 -0.1302  0.5817
  572MOL0     C77119   4.455  -1.941  10.707  0.7135 -0.0362  0.1111
  572MOL0     O77120   4.440  -2.071  10.747  0.0307  0.1421  0.2067
  572MOL0     C77121   4.310  -2.127  10.726 -0.3595 -0.7067  0.6367
  572MOL0     C77122   4.313  -2.280  10.694  0.7342 -0.6198 -0.7580
  572MOL0     C77123   4.381  -2.375  10.791  0.4043 -0.2180  0.4841
  572MOL0     C77124   4.339  -2.517  10.746  1.2425  0.5974 -0.7005
  572MOL0     C77125   4.419  -2.617  10.833  0.1097 -0.2887 -0.1354
  572MOL0     C77126   4.347  -2.756  10.830  0.8446 -0.0933  0.8122
  572MOL0     C77127   4.378  -2.861  10.935 -1.1520 -0.3224  0.5507
  572MOL0     C77128   4.268  -2.890  11.037  0.2381 -0.5902 -0.9574
  572MOL0    Cl77129   4.241  -2.742  11.122 -0.0722  0.4148 -0.4021
  572MOL0     C77130   4.376  -1.845  10.764  0.0467  0.0310  0.9051
  572MOL0     C77131   4.390  -1.711  10.729 -0.5923 -0.5726 -0.4534
  572MOL0     O77132   4.331  -1.538  10.484  0.4006 -1.5245 -0.0814
  572MOL0     C77133   4.551  -1.276  10.575 -0.7491 -0.5436 -0.1960
  572MOL0     C77134   4.567  -1.136  10.539 -0.0588  0.9352  0.0603
  572MOL0     N77135   5.015  -0.717  10.440 -0.2272  1.3133  0.8178
  572MOL0     N77136   5.076  -0.643  10.345 -0.1238 -0.2307 -0.1379
  572MOL0     C77137   5.035   0.629  10.650 -1.1863 -0.7431 -0.2715
  572MOL0     C77138   5.081   0.763  10.694  0.5201 -0.2747  0.1392
  572MOL0     C77139   5.206   1.131  10.828 -0.3423 -0.6000 -0.5507
  572MOL0     C77140   5.332   1.093  10.882  0.1174 -0.9513 -0.2424
  572MOL0     C77141   5.391   1.167  10.986  0.1545  1.0720  0.2628
  572MOL0     C77142   5.327   1.278  11.034  0.4125  0.4249 -0.0235
  572MOL0     O77143   5.374   1.368  11.128  0.2878 -0.2937  0.0857
  572MOL0     C77144   5.499   1.346  11.196  0.4026 -0.0121  0.3272
  572MOL0     C77145   5.603   1.442  11.156 -0.1588 -0.0033 -0.1018
  572MOL0     C77146   5.739   1.424  11.231 -0.6418 -0.6669 -0.0016
  572MOL0     C77147   5.849   1.535  11.222  0.0789 -0.0827 -0.9734
  572MOL0     C77148   5.866   1.583  11.090 -0.0171 -0.0701 -0.6519
  572MOL0     C77149   5.858   1.647  10.980  0.2330 -0.5361 -0.9926
  572MOL0     C77150   5.204   1.308  10.989  1.3617  0.2735  0.0024
  572MOL0     C77151   5.141   1.238  10.885  0.9172 -1.3103 -0.2735
  572MOL0     C77152   5.003   1.271  10.842  0.6352 -0.2480 -0.0349
  572MOL0     H77153   5.375   0.782  10.527  0.0266 -0.4601  0.6740
  572MOL0     H77154   5.335   0.561  10.485 -0.5770 -2.1067 -0.2285
  572MOL0     H77155   4.965   0.334  10.626 -1.7556  0.7925 -1.0916
  572MOL0     H77156   4.925   0.421  10.480 -0.6701  0.4259  0.9638
  572MOL0     H77157   4.900   0.222  10.439 -0.1631  2.1810  1.6581
  572MOL0     H77158   5.036   0.146  10.525  1.8544 -0.5643 -0.4863
  572MOL0     H77159   5.197   0.231  10.355 -1.3001  0.9163  2.3098
  572MOL0     H77160   5.064   0.292  10.248 -3.4355  0.0046 -0.4334
  572MOL0     H77161   4.976   0.080  10.213 -0.6433 -2.5938  2.6108
  572MOL0     H77162   5.151   0.085  10.166 -1.7258  1.8171 -1.2867
  572MOL0     H77163   5.199  -0.050  10.379 -0.7502 -3.9772  0.9219
  572MOL0     H77164   5.012  -0.043  10.393 -0.4444 -2.8216  0.2172
  572MOL0     H77165   4.989  -0.141  10.177  0.7445  2.8218 -0.9615
  572MOL0     H77166   5.164  -0.188  10.177  0.4228  3.6806 -1.2715
  572MOL0     H77167   4.970  -0.272  10.410 -0.8517 -0.9193 -1.4069
  572MOL0     H77168   5.142  -0.303  10.390  0.6698  0.8180 -1.5152
  572MOL0     H77169   4.924  -0.389  10.189  1.0426  2.8229 -0.4645
  572MOL0     H77170   5.097  -0.425  10.188  1.2065 -0.9996  1.3459
  572MOL0     H77171   4.813  -0.468  10.435 -0.3725  0.7448 -0.8630
  572MOL0     H77172   4.881  -0.757  10.669  0.3195 -0.5915  0.4877
  572MOL0     H77173   4.756  -0.628  10.626 -0.0466 -0.7561  0.2500
  572MOL0     H77174   4.791  -0.901  10.490 -0.0406 -1.6341  2.5764
  572MOL0     H77175   4.672  -0.873  10.619  0.8393  0.2954  0.9369
  572MOL0     H77176   4.699  -0.722  10.337 -0.8686  1.1948  0.7953
  572MOL0     H77177   4.581  -0.677  10.455 -0.1599 -1.5051  2.0210
  572MOL0     H77178   4.626  -0.953  10.323 -0.8896 -0.8733 -0.9121
  572MOL0     H77179   4.480  -0.848  10.296 -0.9073 -2.2430  0.2808
  572MOL0     H77180   4.270  -1.079  10.398  2.1966 -1.1419 -2.9618
  572MOL0     H77181   4.248  -1.322  10.436 -1.4902  2.2497  1.9309
  572MOL0     H77182   4.673  -1.759  10.546 -1.7984  1.7298 -0.7856
  572MOL0     H77183   4.638  -1.995  10.622 -1.2503 -0.8893 -0.6169
  572MOL0     H77184   4.257  -2.121  10.822  0.7216 -3.6962  1.5601
  572MOL0     H77185   4.264  -2.072  10.644 -0.9384  0.8685  1.9504
  572MOL0     H77186   4.204  -2.293  10.687 -0.7453  5.4681  3.2580
  572MOL0     H77187   4.372  -2.293  10.603  2.8180 -3.4481  0.8407
  572MOL0     H77188   4.488  -2.363  10.774  0.0351 -0.0697 -2.1204
  572MOL0     H77189   4.356  -2.351  10.895 -1.8156  0.5764 -0.1801
  572MOL0     H77190   4.356  -2.526  10.638  4.0659  2.2735 -0.4916
  572MOL0     H77191   4.234  -2.535  10.773  0.8443 -0.7491 -2.8754
  572MOL0     H77192   4.420  -2.565  10.929  2.3080 -0.4357 -0.0143
  572MOL0     H77193   4.522  -2.625  10.796  1.1301 -1.0045  2.5884
  572MOL0     H77194   4.238  -2.753  10.822  0.8663 -2.4990 -1.4131
  572MOL0     H77195   4.381  -2.785  10.731  2.2762  1.9007  0.6457
  572MOL0     H77196   4.466  -2.835  10.996 -0.5506 -3.7130  1.3452
  572MOL0     H77197   4.425  -2.952  10.895  0.6573 -0.2906  2.4236
  572MOL0     H77198   4.175  -2.927  10.994  1.4348 -3.2673 -1.3878
  572MOL0     H77199   4.299  -2.965  11.110  0.9508  1.2622  0.7477
  572MOL0     H77200   4.285  -1.877  10.812 -1.1571  0.2712 -1.1002
  572MOL0     H77201   4.312  -1.640  10.756  1.1259  1.0565  0.4511
  572MOL0     H77202   4.637  -1.331  10.614 -0.3283  1.9146  2.6779
  572MOL0     H77203   4.659  -1.086  10.566  0.2420 -0.1261  1.0848
  572MOL0     H77204   4.939   0.585  10.674 -1.2569 -1.1103 -1.1880
  572MOL0     H77205   5.010   0.821  10.752  2.2811  1.7905  0.3777
  572MOL0     H77206   5.379   0.998  10.860  0.9550 -1.2985  2.6427
  572MOL0     H77207   5.496   1.150  11.009  0.4317  2.8796  0.4272
  572MOL0     H77208   5.534   1.242  11.188  0.0959 -0.0338 -0.9295
  572MOL0     H77209   5.468   1.362  11.299 -2.9461 -0.8419 -0.4406
  572MOL0     H77210   5.573   1.541  11.191 -0.2720 -0.7571  2.1137
  572MOL0     H77211   5.615   1.433  11.048  0.1936 -0.0999 -0.0595
  572MOL0     H77212   5.791   1.337  11.191  0.2084 -1.2491  2.1866
  572MOL0     H77213   5.696   1.402  11.330 -3.4822 -1.4223 -1.2960
  572MOL0     H77214   5.813   1.624  11.274  4.5974  0.5462  1.6185
  572MOL0     H77215   5.939   1.493  11.268 -1.1145 -0.8377  0.7936
  572MOL0     H77216   5.832   1.704  10.893 -3.1998 -0.3081  0.0304
  572MOL0     H77217   5.154   1.386  11.046  1.8209 -0.4363  1.4442
  572MOL0     H77218   4.994   1.307  10.739  1.5389  2.8202  0.8413
  572MOL0     H77219   4.936   1.185  10.850 -0.1440  0.3234 -0.2846
  572MOL0     H77220   4.955   1.339  10.913 -0.4478  0.5595 -1.4731
  573MOL0     O77221   6.276   3.347   6.387  0.3045  0.6034  0.1953
  573MOL0     C77222   6.194   3.336   6.298  0.1985 -0.0838  1.0145
  573MOL0     O77223   6.220   3.290   6.177 -0.1920  0.5916 -0.1272
  573MOL0     C77224   6.344   3.224   6.163  1.0165  0.2858  0.1544
  573MOL0     C77225   6.376   3.107   6.233  0.3213 -0.6113 -0.3224
  573MOL0     C77226   6.499   3.048   6.215  0.1792  0.1134 -0.7415
  573MOL0     C77227   6.593   3.118   6.134 -1.3873 -0.1154 -0.1520
  573MOL0     O77228   6.726   3.073   6.135  0.4371 -0.2293 -0.0998
  573MOL0     C77229   6.808   3.075   6.021  0.3259 -0.2766  0.2189
  573MOL0     C77230   6.954   3.047   6.070 -0.6648 -0.1924  0.3311
  573MOL0     C77231   6.985   2.899   6.104 -0.0101 -0.4380  0.0379
  573MOL0     C77232   7.133   2.870   6.131  0.7700  0.3990  0.7384
  573MOL0     C77233   7.182   2.909   6.268  0.9079 -0.1188 -0.2435
  573MOL0     C77234   7.319   2.848   6.286 -0.3221 -0.2645 -1.2717
  573MOL0     C77235   7.348   2.816   6.434  0.3444 -0.7182  1.6796
  573MOL0     C77236   7.386   2.935   6.515 -0.2276 -0.8432  1.0773
  573MOL0     N77237   7.368   2.926   6.664  0.6382 -1.4076  0.0571
  573MOL0     C77238   7.291   3.009   6.747 -0.1509 -0.0429 -0.1969
  573MOL0     C77239   7.309   2.952   6.867  0.5614  0.4033  0.5590
  573MOL0     C77240   7.282   3.004   7.007  0.3313 -0.5001  0.4484
  573MOL0     C77241   7.147   3.082   7.013  0.0824 -0.2111 -0.2853
  573MOL0     C77242   7.114   3.144   7.143  1.6975 -0.1596 -0.7927
  573MOL0     C77243   6.957   3.173   7.154  0.4436 -0.1700 -0.0023
  573MOL0     O77244   6.854   3.064   7.141  0.2941 -0.4917  0.0402
  573MOL0     C77245   6.831   2.984   7.252 -0.9240  0.7860 -0.7307
  573MOL0     C77246   6.920   2.883   7.272 -0.1850 -0.5532  1.0147
  573MOL0     C77247   6.890   2.786   7.369 -0.1973  0.9890 -0.7952
  573MOL0     C77248   6.797   2.801   7.474  0.1488  0.3265  0.3701
  573MOL0     C77249   6.780   2.702   7.574  0.3018  0.0172 -0.6810
  573MOL0     O77250   6.697   2.748   7.677  0.2211 -0.1317  0.3627
  573MOL0     C77251   6.658   2.682   7.795 -0.3525  0.4275 -1.1301
  573MOL0     C77252   6.708   2.561   7.857  0.0377 -0.3664 -0.0828
  573MOL0     C77253   6.647   2.514   7.975 -0.7164 -0.3619  0.2662
  573MOL0     C77254   6.535   2.576   8.030 -0.5762 -0.0390  0.9800
  573MOL0     O77255   6.482   2.524   8.142 -0.3489 -1.6940  0.2493
  573MOL0     C77256   6.368   2.583   8.216 -0.4853  0.9214 -0.1271
  573MOL0     C77257   6.293   2.483   8.286  0.7419  0.0745  0.0865
  573MOL0     C77258   6.378   2.387   8.369  0.0287  0.3854  0.4882
  573MOL0     C77259   6.301   2.346   8.493 -0.2806 -0.5835 -0.9728
  573MOL0     C77260   6.379   2.236   8.578 -0.0855 -0.1733  1.7222
  573MOL0     C77261   6.322   2.197   8.711 -0.2703 -0.0223  0.8230
  573MOL0     C77262   6.311   2.311   8.816 -0.1819 -0.3692 -0.5990
  573MOL0     C77263   6.223   2.272   8.927  2.2447  0.0791 -0.0605
  573MOL0    Cl77264   6.312   2.270   9.081 -0.8818 -0.4314  0.2724
  573MOL0     C77265   6.492   2.697   7.970  0.4231  1.1332  0.3875
  573MOL0     C77266   6.547   2.749   7.851  0.6721 -0.0518 -0.9605
  573MOL0     O77267   6.826   2.587   7.558  1.0696 -0.1037  0.0627
  573MOL0     C77268   6.725   2.920   7.466 -0.1856 -0.2342  0.1210
  573MOL0     C77269   6.742   3.004   7.356 -0.6639  0.0424  0.2762
  573MOL0     N77270   7.368   2.823   6.846  0.4267 -0.0731  0.2366
  573MOL0     N77271   7.390   2.808   6.722 -0.1812 -0.0683  0.3432
  573MOL0     C77272   6.561   3.237   6.055 -0.2349  0.4988 -0.3680
  573MOL0     C77273   6.434   3.286   6.073 -0.6763 -0.8073 -0.1525
  573MOL0     C77274   6.055   3.394   6.317 -0.3182  1.2438 -0.7975
  573MOL0     C77275   5.970   3.408   6.209 -0.0451  0.0091  0.7719
  573MOL0     C77276   5.848   3.476   6.222 -0.0608  0.2611  0.8150
  573MOL0     C77277   5.806   3.530   6.344  0.4732  0.3883  0.1776
  573MOL0     O77278   5.682   3.580   6.371  0.0800 -0.0651  0.5022
  573MOL0     C77279   5.578   3.575   6.273 -0.5292  0.1052 -0.1189
  573MOL0     C77280   5.435   3.607   6.330 -0.7096 -0.1458  0.4511
  573MOL0     C77281   5.322   3.618   6.224  0.3888 -0.3471  0.5383
  573MOL0     C77282   5.247   3.749   6.230  0.6595  0.1283  0.5243
  573MOL0     C77283   5.319   3.867   6.166  1.5025 -0.1425  0.4179
  573MOL0     C77284   5.388   3.964   6.132 -0.4584 -0.2632 -0.3807
  573MOL0     C77285   5.896   3.519   6.454 -0.1620 -0.5782  0.0442
  573MOL0     C77286   6.014   3.457   6.444 -0.3924  0.1942  0.2808
  573MOL0     C77287   6.091   3.465   6.570 -0.8789  0.7912 -0.1409
  573MOL0     H77288   6.316   3.058   6.309 -0.0960  1.1999  0.5623
  573MOL0     H77289   6.525   2.951   6.256 -1.0570  1.1932  3.0600
  573MOL0     H77290   6.777   2.993   5.956 -3.2175 -0.0462  1.4281
  573MOL0     H77291   6.801   3.164   5.957  1.5552 -1.0838 -1.1014
  573MOL0     H77292   6.970   3.110   6.158 -3.4039  1.3313 -0.1511
  573MOL0     H77293   7.015   3.081   5.986 -0.9236 -2.4338 -0.8509
  573MOL0     H77294   6.955   2.832   6.024 -1.5737 -1.9857  1.8354
  573MOL0     H77295   6.929   2.882   6.196  0.4432 -0.8285  0.2447
  573MOL0     H77296   7.136   2.761   6.118  0.6109  0.4757  0.0040
  573MOL0     H77297   7.192   2.903   6.045  1.0611  0.7826  1.0840
  573MOL0     H77298   7.187   3.017   6.254 -2.3746  0.2780  0.7541
  573MOL0     H77299   7.105   2.871   6.336 -2.3037  0.8639 -3.0568
  573MOL0     H77300   7.329   2.755   6.230 -1.0945  0.7195 -3.1303
  573MOL0     H77301   7.401   2.911   6.250 -1.7244  0.7490 -2.8856
  573MOL0     H77302   7.438   2.754   6.443 -0.4303 -1.6508  3.2826
  573MOL0     H77303   7.261   2.762   6.473 -0.6763  1.2371  2.2670
  573MOL0     H77304   7.491   2.957   6.492 -1.4669  1.9779 -2.9511
  573MOL0     H77305   7.330   3.025   6.488 -0.3976 -1.6698 -1.6796
  573MOL0     H77306   7.252   3.107   6.724  0.1317  0.7486  2.3837
  573MOL0     H77307   7.271   2.909   7.061 -0.4170 -2.0530 -2.2383
  573MOL0     H77308   7.363   3.060   7.055  0.4508  1.0631 -1.4427
  573MOL0     H77309   7.136   3.154   6.931  1.7452 -0.8635 -1.1350
  573MOL0     H77310   7.074   3.004   6.991 -0.0309  0.1536 -1.2440
  573MOL0     H77311   7.168   3.236   7.168  2.0638 -0.6503  0.3156
  573MOL0     H77312   7.136   3.073   7.224 -1.0006 -1.1999 -0.8624
  573MOL0     H77313   6.933   3.248   7.078 -0.1800  1.3133  1.5933
  573MOL0     H77314   6.944   3.223   7.250  1.6466 -0.3626  0.2760
  573MOL0     H77315   6.997   2.880   7.195 -0.5160  5.0903  0.0738
  573MOL0     H77316   6.942   2.690   7.367 -1.6872  0.1774 -2.0417
  573MOL0     H77317   6.799   2.515   7.821 -0.7739 -0.7485 -1.7577
  573MOL0     H77318   6.689   2.422   8.013 -0.8309 -1.1214 -1.3749
  573MOL0     H77319   6.396   2.658   8.291 -0.5892 -0.6645  1.5668
  573MOL0     H77320   6.300   2.628   8.143 -1.9884 -3.4284 -1.7062
  573MOL0     H77321   6.225   2.538   8.351  0.1457 -1.2141  0.5931
  573MOL0     H77322   6.243   2.420   8.211  1.1651  0.4827 -0.5481
  573MOL0     H77323   6.411   2.306   8.302  2.5321  2.4404 -0.9374
  573MOL0     H77324   6.469   2.443   8.395 -0.5671  1.8145 -0.4133
  573MOL0     H77325   6.199   2.312   8.474 -1.4697  0.8425  2.1346
  573MOL0     H77326   6.286   2.440   8.548 -1.6264 -1.2217 -0.1951
  573MOL0     H77327   6.485   2.257   8.593  0.7804 -1.6716 -1.5286
  573MOL0     H77328   6.378   2.144   8.519  4.6515  1.6777 -1.9313
  573MOL0     H77329   6.224   2.161   8.678  0.6333  0.6312 -2.9908
  573MOL0     H77330   6.383   2.117   8.753  3.8830  1.8735 -1.0774
  573MOL0     H77331   6.274   2.402   8.768 -0.9803  0.0978  0.8496
  573MOL0     H77332   6.408   2.335   8.861  0.2160  0.4153 -1.8274
  573MOL0     H77333   6.147   2.347   8.950  1.0431 -0.4056 -2.2015
  573MOL0     H77334   6.168   2.182   8.899 -0.8778  2.1952 -1.3105
  573MOL0     H77335   6.400   2.744   8.002 -0.3656  0.2654 -0.5053
  573MOL0     H77336   6.501   2.832   7.797  0.4857 -1.6762 -3.5053
  573MOL0     H77337   6.645   2.945   7.534 -0.6635 -0.3046 -0.4054
  573MOL0     H77338   6.684   3.095   7.350 -2.5819 -1.1166  0.3151
  573MOL0     H77339   6.626   3.288   5.985  0.8376  1.6498  1.3856
  573MOL0     H77340   6.430   3.387   6.034  6.4656  1.7290  3.7616
  573MOL0     H77341   5.991   3.355   6.117 -3.9234 -0.1214 -0.2335
  573MOL0     H77342   5.787   3.485   6.133  1.3392 -0.5448 -0.2852
  573MOL0     H77343   5.570   3.475   6.229 -4.8542  1.5079 -3.1943
  573MOL0     H77344   5.593   3.647   6.193 -3.7675  0.7689 -0.2603
  573MOL0     H77345   5.443   3.702   6.383 -4.7962  1.9182 -2.1099
  573MOL0     H77346   5.402   3.528   6.398 -0.1651 -0.7353  0.0560
  573MOL0     H77347   5.246   3.544   6.249  0.5611 -0.8312 -0.3540
  573MOL0     H77348   5.363   3.598   6.124 -1.2571  0.2762 -0.2901
  573MOL0     H77349   5.141   3.735   6.204  0.3005  1.5062  1.1664
  573MOL0     H77350   5.227   3.772   6.335  1.4215 -0.7337  0.8697
  573MOL0     H77351   5.436   4.057   6.109 -0.8062  0.0583  0.1679
  573MOL0     H77352   5.862   3.575   6.541  2.0631 -0.3194  0.8086
  573MOL0     H77353   6.035   3.496   6.659 -4.1622 -0.5383 -1.5850
  573MOL0     H77354   6.138   3.368   6.585  0.4875  1.5006  0.3858
  573MOL0     H77355   6.166   3.543   6.553 -1.4665  1.1348 -1.2982
  574MOL0     O77356   2.091   4.523  10.883  0.6181 -0.0328 -0.0369
  574MOL0     C77357   2.145   4.606  10.949 -0.3304 -0.3383 -0.5472
  574MOL0     O77358   2.149   4.606  11.078 -0.0788 -0.5124 -0.8319
  574MOL0     C77359   2.103   4.496  11.151  0.3159  0.1434 -0.6857
  574MOL0     C77360   2.145   4.368  11.123  0.8601  0.4881  0.4056
  574MOL0     C77361   2.092   4.262  11.188  0.0325  0.8651  0.7046
  574MOL0     C77362   2.003   4.283  11.295 -0.0181  0.6373 -0.2655
  574MOL0     O77363   1.940   4.186  11.364 -0.6880  1.0099 -0.1360
  574MOL0     C77364   1.832   4.120  11.284 -0.7540  0.2117 -0.1526
  574MOL0     C77365   1.730   4.060  11.381  0.3457 -0.3398 -0.0654
  574MOL0     C77366   1.784   3.918  11.425 -0.6562 -0.0780  0.1352
  574MOL0     C77367   1.689   3.849  11.521 -0.4480  0.1693  1.7683
  574MOL0     C77368   1.565   3.782  11.448  1.5699  0.0532 -0.0048
  574MOL0     C77369   1.437   3.861  11.482  0.0651  0.4140 -0.3380
  574MOL0     C77370   1.308   3.804  11.414 -0.6461  0.3294 -1.5597
  574MOL0     C77371   1.256   3.679  11.489 -0.6096  0.3910 -0.4192
  574MOL0     N77372   1.207   3.710  11.625  0.5801  0.4486  0.7188
  574MOL0     C77373   1.241   3.648  11.741 -0.2576 -0.0044 -0.4583
  574MOL0     C77374   1.143   3.686  11.834 -0.1412 -0.2961  0.0879
  574MOL0     C77375   1.128   3.647  11.979 -0.6426 -0.8609  0.1457
  574MOL0     C77376   1.007   3.577  12.024 -0.2244  0.3178 -0.0184
  574MOL0     C77377   1.040   3.491  12.143  0.0931 -0.4814  0.5399
  574MOL0     C77378   1.047   3.566  12.267  0.2302  0.5858 -0.9835
  574MOL0     O77379   0.934   3.643  12.299  0.2298 -0.0864 -0.8622
  574MOL0     C77380   0.867   3.607  12.413  0.1063  0.2176 -0.3075
  574MOL0     C77381   0.922   3.558  12.533  0.7856  0.4920  0.6929
  574MOL0     C77382   0.847   3.531  12.643 -0.4012  0.2185  0.5472
  574MOL0     C77383   0.709   3.531  12.640 -0.1399 -0.6624 -0.1643
  574MOL0     C77384   0.614   3.500  12.751  0.6304  0.4720 -0.4948
  574MOL0     O77385   0.493   3.550  12.751  0.4108 -0.5695  0.5544
  574MOL0     C77386   0.402   3.546  12.855  0.0142  0.2931  0.2700
  574MOL0     C77387   0.388   3.434  12.937 -0.3128  0.3939 -0.6510
  574MOL0     C77388   0.290   3.435  13.041 -0.0422  0.5708 -0.1410
  574MOL0     C77389   0.199   3.543  13.053 -1.1684  0.0979 -0.3067
  574MOL0     O77390   0.114   3.537  13.155 -0.4471 -0.0065  0.5381
  574MOL0     C77391   0.094   3.654  13.230  1.0349 -0.6657 -0.1028
  574MOL0     C77392  -0.019   3.626  13.323  0.3595 -0.0529  0.5698
  574MOL0     C77393   0.022   3.529  13.432 -0.4909 -0.1106  0.0253
  574MOL0     C77394   0.097   3.608  13.540  0.3507 -0.2010  0.0144
  574MOL0     C77395   0.120   3.533  13.678 -0.6405 -0.8442  0.4221
  574MOL0     C77396  -0.006   3.525  13.766 -0.3048 -0.0850  0.4869
  574MOL0     C77397   0.025   3.468  13.897 -0.1134 -0.0138 -0.6768
  574MOL0     C77398   0.074   3.329  13.890  0.0888 -0.3763 -0.3760
  574MOL0    Cl77399  -0.048   3.218  13.830  0.8901 -0.0127  0.7216
  574MOL0     C77400   0.216   3.650  12.965 -0.4824  0.2321 -0.6435
  574MOL0     C77401   0.317   3.646  12.871  0.6150 -0.2508 -1.0821
  574MOL0     O77402   0.656   3.445  12.846  0.0780 -0.0256 -0.1295
  574MOL0     C77403   0.647   3.586  12.522 -0.6924 -0.4949  0.2330
  574MOL0     C77404   0.728   3.633  12.411  0.0321 -0.5584  0.2175
  574MOL0     N77405   1.069   3.782  11.767  0.6129 -0.0037 -0.9527
  574MOL0     N77406   1.096   3.777  11.651  0.1501  0.2826 -0.5626
  574MOL0     C77407   1.965   4.411  11.329  0.4085 -0.6148 -0.2895
  574MOL0     C77408   2.013   4.524  11.260  0.1421 -0.5859  0.8132
  574MOL0     C77409   2.223   4.719  10.892 -0.2562 -0.9539 -0.2260
  574MOL0     C77410   2.311   4.796  10.973  0.2905 -0.0301 -0.1354
  574MOL0     C77411   2.387   4.904  10.921 -0.2095 -0.1528 -0.7853
  574MOL0     C77412   2.379   4.942  10.792  1.0038 -0.2779 -0.4577
  574MOL0     O77413   2.454   5.036  10.728  0.1884 -0.3162 -0.0588
  574MOL0     C77414   2.523   5.136  10.812  0.3449  0.1086 -0.4376
  574MOL0     C77415   2.497   5.277  10.766  0.7305  0.9927 -0.1795
  574MOL0     C77416   2.578   5.311  10.640  0.5403 -0.9052  0.3970
  574MOL0     C77417   2.697   5.394  10.664  0.9532  0.5042 -0.4390
  574MOL0     C77418   2.802   5.300  10.711  0.2651  0.0616  0.7024
  574MOL0     C77419   2.896   5.232  10.748 -0.2058  1.1785  0.6665
  574MOL0     C77420   2.293   4.865  10.703  1.1164  0.1661 -0.6098
  574MOL0     C77421   2.223   4.757  10.751  0.5454  0.3241 -0.7427
  574MOL0     C77422   2.132   4.681  10.655 -0.0421 -0.1832 -0.9399
  574MOL0     H77423   2.199   4.356  11.030 -0.1786 -0.7079 -0.0682
  574MOL0     H77424   2.105   4.158  11.161 -1.8267 -0.3427  3.9398
  574MOL0     H77425   1.769   4.184  11.221 -2.6570 -0.3665  1.0822
  574MOL0     H77426   1.874   4.043  11.219  1.0279  0.7518  0.3024
  574MOL0     H77427   1.634   4.051  11.329 -0.6667 -1.5175  1.8958
  574MOL0     H77428   1.716   4.134  11.460 -4.0634 -1.5774  0.5652
  574MOL0     H77429   1.884   3.927  11.468  0.1263 -2.8586 -0.9095
  574MOL0     H77430   1.797   3.858  11.334 -1.5014 -0.5263  0.3005
  574MOL0     H77431   1.751   3.767  11.559  1.1202 -1.2851 -3.1891
  574MOL0     H77432   1.659   3.927  11.592 -4.7271  1.2983 -0.8777
  574MOL0     H77433   1.573   3.773  11.339  1.5963 -0.2466  0.0224
  574MOL0     H77434   1.545   3.678  11.473  0.1103 -0.5448 -3.2639
  574MOL0     H77435   1.433   3.881  11.589 -0.4451  0.4081 -0.3492
  574MOL0     H77436   1.463   3.962  11.449  2.5490 -1.0502 -3.3770
  574MOL0     H77437   1.314   3.767  11.311  1.3267 -2.8374 -0.4524
  574MOL0     H77438   1.227   3.876  11.422  0.8254  2.0884 -1.7883
  574MOL0     H77439   1.167   3.650  11.432 -0.5579  1.0357 -0.8439
  574MOL0     H77440   1.332   3.601  11.501 -1.7090 -0.6726 -0.1596
  574MOL0     H77441   1.336   3.602  11.762  0.1862  1.1389  0.1269
  574MOL0     H77442   1.213   3.589  12.016 -0.7614 -0.6654  0.7343
  574MOL0     H77443   1.146   3.743  12.028 -1.2231 -0.2962 -0.7076
  574MOL0     H77444   0.929   3.648  12.054  0.4462  0.0174  2.6141
  574MOL0     H77445   0.969   3.504  11.952 -2.3672  0.2277  1.1215
  574MOL0     H77446   1.128   3.429  12.127 -1.5288 -3.9275  3.5111
  574MOL0     H77447   0.955   3.423  12.157 -0.5920  0.1914 -0.2531
  574MOL0     H77448   1.136   3.631  12.268  0.1943  0.6951  1.3841
  574MOL0     H77449   1.067   3.496  12.349  0.8340  2.4844  0.5754
  574MOL0     H77450   1.030   3.554  12.539  1.2775  5.3210 -0.7260
  574MOL0     H77451   0.885   3.492  12.737 -2.1962 -0.4695  1.0400
  574MOL0     H77452   0.452   3.348  12.922 -0.8855  0.1301 -1.6860
  574MOL0     H77453   0.280   3.350  13.107  4.6863 -1.2067 -1.3339
  574MOL0     H77454   0.185   3.684  13.283 -0.8198 -0.7646  3.4330
  574MOL0     H77455   0.066   3.728  13.155 -0.1624 -0.8455  0.1504
  574MOL0     H77456  -0.047   3.720  13.372 -1.2297 -1.2425  2.0458
  574MOL0     H77457  -0.106   3.577  13.278  1.2208 -2.4993  1.3979
  574MOL0     H77458  -0.068   3.484  13.475  1.1551  1.3528  5.8015
  574MOL0     H77459   0.089   3.454  13.388 -0.3377  0.5801 -0.9400
  574MOL0     H77460   0.039   3.700  13.549  0.1350 -0.1993 -1.2561
  574MOL0     H77461   0.199   3.628  13.507 -0.3127  1.9020 -0.8650
  574MOL0     H77462   0.183   3.604  13.733 -1.0025 -0.3229  0.1778
  574MOL0     H77463   0.158   3.435  13.649  3.5017  1.1756 -1.8995
  574MOL0     H77464  -0.036   3.629  13.782 -1.2524 -0.4071  0.8727
  574MOL0     H77465  -0.083   3.474  13.708  0.8549  1.3901 -2.5624
  574MOL0     H77466  -0.067   3.481  13.956 -0.6454  0.0462 -1.5129
  574MOL0     H77467   0.104   3.521  13.951  1.0710 -3.7230  1.5613
  574MOL0     H77468   0.162   3.304  13.829 -1.3262 -4.6150 -0.9833
  574MOL0     H77469   0.105   3.315  13.994 -0.1780  0.2256 -0.2091
  574MOL0     H77470   0.137   3.724  12.954  3.1488  4.4099 -1.6736
  574MOL0     H77471   0.308   3.729  12.801 -1.5429  1.9138  1.5353
  574MOL0     H77472   0.539   3.592  12.517 -0.7227 -0.9762  0.3009
  574MOL0     H77473   0.668   3.676  12.331 -0.2458 -0.1902  0.6219
  574MOL0     H77474   1.900   4.417  11.415 -1.3300  1.9892 -1.6611
  574MOL0     H77475   1.999   4.627  11.291  1.2650 -0.8267  2.2348
  574MOL0     H77476   2.318   4.767  11.078  0.6778 -0.2962 -0.2318
  574MOL0     H77477   2.446   4.963  10.990 -2.0395  1.8945 -0.8864
  574MOL0     H77478   2.629   5.114  10.829 -0.1032 -1.0162  1.1830
  574MOL0     H77479   2.478   5.128  10.911 -1.4852 -3.4815 -1.3627
  574MOL0     H77480   2.524   5.349  10.844 -0.7559  3.3080 -1.6735
  574MOL0     H77481   2.394   5.281  10.731 -0.3786 -2.6667  2.0798
  574MOL0     H77482   2.513   5.369  10.573 -0.3536 -1.2306  0.9699
  574MOL0     H77483   2.602   5.218  10.588 -0.9687 -2.0823  1.7206
  574MOL0     H77484   2.727   5.442  10.570  0.9918  1.5440  0.0887
  574MOL0     H77485   2.682   5.469  10.743  2.6545 -1.3240  1.7715
  574MOL0     H77486   2.972   5.165  10.783 -0.9844 -0.5577 -0.8002
  574MOL0     H77487   2.284   4.895  10.599  0.3533 -0.2892 -0.6811
  574MOL0     H77488   2.138   4.738  10.561  1.5108  0.1093 -0.6907
  574MOL0     H77489   2.169   4.579  10.646 -0.9651 -0.6557  0.4463
  574MOL0     H77490   2.030   4.682  10.694  0.1446 -0.0620 -0.4592
  575MOL0     O77491   4.426   5.798   0.979  0.2522  0.8369  0.1750
  575MOL0     C77492   4.309   5.815   1.014  0.2169  0.1152  0.4802
  575MOL0     O77493   4.202   5.773   0.935 -0.4671  0.3804  0.3492
  575MOL0     C77494   4.234   5.700   0.827  0.3414  0.8120  0.3960
  575MOL0     C77495   4.274   5.772   0.718  1.1491 -0.4031 -0.2863
  575MOL0     C77496   4.308   5.706   0.599  0.3632 -0.0775  0.3029
  575MOL0     C77497   4.301   5.574   0.576 -0.2304  0.0153 -0.6071
  575MOL0     O77498   4.315   5.512   0.453  0.1747 -0.5468  0.0809
  575MOL0     C77499   4.443   5.457   0.420  0.0392  0.0753  0.1749
  575MOL0     C77500   4.458   5.480   0.267 -0.8302  0.7739  0.5378
  575MOL0     C77501   4.466   5.620   0.218 -0.5311 -0.2711  0.2171
  575MOL0     C77502   4.392   5.641   0.092 -0.6719  0.1856  1.0470
  575MOL0     C77503   4.421   5.776   0.025 -0.0444  0.6386  0.5136
  575MOL0     C77504   4.366   5.798  -0.116 -0.6219  0.5764 -0.0037
  575MOL0     C77505   4.399   5.945  -0.177 -0.2156  0.0215  0.6748
  575MOL0     C77506   4.542   5.966  -0.234 -0.3087  0.8529  0.1934
  575MOL0     N77507   4.570   6.108  -0.262 -0.1202  0.2164 -0.0622
  575MOL0     C77508   4.585   6.201  -0.160  1.0733  0.5173  0.2272
  575MOL0     C77509   4.670   6.293  -0.223 -0.6689 -0.5853 -0.0793
  575MOL0     C77510   4.721   6.421  -0.175 -0.4338  0.4595  0.1462
  575MOL0     C77511   4.870   6.455  -0.213  0.5563  0.3469  0.2844
  575MOL0     C77512   4.907   6.593  -0.161  0.7216  0.1955  0.9118
  575MOL0     C77513   5.020   6.654  -0.240 -0.7470 -0.6619 -0.4789
  575MOL0     O77514   5.051   6.777  -0.177  0.7871  0.4192  0.7818
  575MOL0     C77515   5.155   6.845  -0.227 -1.0856 -0.2893  0.2240
  575MOL0     C77516   5.230   6.820  -0.340 -0.8008  0.4495 -0.3373
  575MOL0     C77517   5.328   6.909  -0.394 -0.2556  0.0700 -0.5773
  575MOL0     C77518   5.379   7.024  -0.313 -0.0111 -0.1321 -0.6221
  575MOL0     C77519   5.479   7.116  -0.365 -1.4625  0.0809 -0.5351
  575MOL0     O77520   5.556   7.172  -0.264  0.1888 -0.5260 -0.5481
  575MOL0     C77521   5.642   7.262  -0.311 -0.4772  0.7585  0.4266
  575MOL0     C77522   5.774   7.226  -0.327  0.0154 -0.1329 -1.3895
  575MOL0     C77523   5.872   7.317  -0.375  0.5101  0.4346 -0.0574
  575MOL0     C77524   5.839   7.428  -0.441 -0.7504 -1.2581  0.1100
  575MOL0     O77525   5.938   7.496  -0.498  0.4433 -0.1184  0.3646
  575MOL0     C77526   5.918   7.604  -0.590  0.1608  0.2899 -0.0411
  575MOL0     C77527   6.033   7.641  -0.663 -0.5616 -0.2794  0.0473
  575MOL0     C77528   6.003   7.680  -0.814  0.9813  0.5632  0.3951
  575MOL0     C77529   6.040   7.558  -0.912 -0.0160  0.6204  0.1207
  575MOL0     C77530   6.045   7.605  -1.062  0.3101 -0.3936  0.3895
  575MOL0     C77531   6.154   7.698  -1.100 -0.6435 -0.7886 -0.4195
  575MOL0     C77532   6.187   7.685  -1.251 -1.0549 -0.4764  0.3802
  575MOL0     C77533   6.258   7.800  -1.310  0.9222  0.4820 -0.1847
  575MOL0    Cl77534   6.403   7.840  -1.213  0.7548  0.1599  0.3837
  575MOL0     C77535   5.700   7.471  -0.429  0.8176  0.5576  0.0454
  575MOL0     C77536   5.604   7.389  -0.365  0.7376 -0.3673 -0.4283
  575MOL0     O77537   5.488   7.136  -0.488 -0.3151 -0.3846  0.3874
  575MOL0     C77538   5.316   7.031  -0.188 -0.2866 -0.0480  0.5865
  575MOL0     C77539   5.197   6.954  -0.144  0.5401 -0.0852 -0.1951
  575MOL0     N77540   4.687   6.264  -0.352  1.0778  0.4816  0.3426
  575MOL0     N77541   4.613   6.160  -0.377  1.0445 -1.2832 -0.6208
  575MOL0     C77542   4.261   5.502   0.682 -0.0548 -0.4090  0.1440
  575MOL0     C77543   4.234   5.559   0.817  1.0046  1.1041  1.0701
  575MOL0     C77544   4.292   5.915   1.126  1.3130  0.3575 -0.0489
  575MOL0     C77545   4.180   5.999   1.115 -0.0119  0.0922  0.3103
  575MOL0     C77546   4.164   6.099   1.210  0.5704  0.5260 -0.7851
  575MOL0     C77547   4.263   6.112   1.315  0.1715  0.1059 -0.1521
  575MOL0     O77548   4.238   6.200   1.414 -0.4366  0.1393 -0.2602
  575MOL0     C77549   4.150   6.316   1.391  0.2352 -0.0441 -0.6998
  575MOL0     C77550   4.187   6.454   1.454  0.8573  0.1176  0.4184
  575MOL0     C77551   4.116   6.556   1.377 -0.4492  0.0803  0.0436
  575MOL0     C77552   3.963   6.564   1.396 -0.4112  0.7759 -0.8205
  575MOL0     C77553   3.928   6.654   1.498  0.8076 -0.4218  0.0087
  575MOL0     C77554   3.908   6.728   1.600 -0.1438 -0.7458  0.7086
  575MOL0     C77555   4.369   6.019   1.317 -0.3848 -0.6285 -0.5737
  575MOL0     C77556   4.387   5.921   1.228  0.1576  0.2250  0.4421
  575MOL0     C77557   4.505   5.824   1.250  0.5341 -0.1940 -0.5026
  575MOL0     H77558   4.281   5.879   0.708 -1.0990 -0.1724  0.0752
  575MOL0     H77559   4.319   5.766   0.510  0.4353  1.3226  1.2107
  575MOL0     H77560   4.518   5.516   0.475 -0.0156  1.0975 -0.8093
  575MOL0     H77561   4.442   5.352   0.451 -0.0411  0.5864  2.0525
  575MOL0     H77562   4.396   5.419   0.201 -0.0453  0.2288  0.2960
  575MOL0     H77563   4.553   5.433   0.238 -1.5915 -2.3962  2.6929
  575MOL0     H77564   4.573   5.637   0.198 -1.2805  2.5004 -2.0453
  575MOL0     H77565   4.433   5.696   0.289 -0.6924  0.6359 -0.8021
  575MOL0     H77566   4.418   5.563   0.020 -2.8054  1.7372 -1.6123
  575MOL0     H77567   4.287   5.634   0.121 -0.6769  0.2580  1.0451
  575MOL0     H77568   4.388   5.848   0.100 -1.7355 -2.4523  2.9994
  575MOL0     H77569   4.530   5.783   0.018 -0.0605 -0.1784 -1.3222
  575MOL0     H77570   4.410   5.728  -0.189  0.7052  2.7230 -1.3664
  575MOL0     H77571   4.260   5.771  -0.103  0.2442 -5.1969 -1.7505
  575MOL0     H77572   4.381   6.021  -0.100 -0.3274 -0.9304  1.6236
  575MOL0     H77573   4.332   5.965  -0.261  1.3966  1.1446 -0.4082
  575MOL0     H77574   4.609   5.941  -0.151 -0.9866 -2.3068 -0.0907
  575MOL0     H77575   4.569   5.893  -0.311  2.5294  0.1876  1.6696
  575MOL0     H77576   4.556   6.203  -0.056 -0.7748 -0.9721 -0.2101
  575MOL0     H77577   4.667   6.505  -0.222  0.2157  2.8784  3.3601
  575MOL0     H77578   4.704   6.428  -0.067  2.4375 -0.9411  0.7726
  575MOL0     H77579   4.942   6.388  -0.166  1.9130 -0.4135 -2.6607
  575MOL0     H77580   4.864   6.453  -0.322  2.3111 -1.2366  0.1769
  575MOL0     H77581   4.940   6.567  -0.059  0.9707 -1.9918  0.3370
  575MOL0     H77582   4.826   6.666  -0.167  1.3496  0.7736 -1.8040
  575MOL0     H77583   5.008   6.660  -0.348  0.2947 -3.4990 -0.8408
  575MOL0     H77584   5.113   6.600  -0.219 -1.4767 -1.8528 -0.2634
  575MOL0     H77585   5.201   6.739  -0.406  1.6566 -0.1204 -0.7946
  575MOL0     H77586   5.372   6.896  -0.492  2.5040 -0.3028  0.6217
  575MOL0     H77587   5.804   7.127  -0.296  2.0757  0.5585 -1.0469
  575MOL0     H77588   5.972   7.276  -0.364 -0.2107 -1.3758  0.0760
  575MOL0     H77589   5.836   7.571  -0.654 -1.4111 -0.1380  2.0578
  575MOL0     H77590   5.887   7.690  -0.529  3.9016  0.9262  1.2088
  575MOL0     H77591   6.081   7.719  -0.604 -3.5324  2.6895 -1.1496
  575MOL0     H77592   6.100   7.554  -0.665 -0.4850 -0.2175 -1.3108
  575MOL0     H77593   5.895   7.691  -0.825  0.0375 -3.0598  3.9222
  575MOL0     H77594   6.062   7.765  -0.851 -1.3424  1.9293 -0.4061
  575MOL0     H77595   5.965   7.479  -0.907 -1.0256  1.3591 -2.2448
  575MOL0     H77596   6.137   7.514  -0.885  0.5323  2.6939  1.8496
  575MOL0     H77597   5.949   7.645  -1.096  0.4317 -1.9500 -1.9499
  575MOL0     H77598   6.061   7.524  -1.134 -0.4068  1.7086 -2.3227
  575MOL0     H77599   6.123   7.801  -1.082  0.0255 -0.9561  2.0628
  575MOL0     H77600   6.245   7.678  -1.042 -0.3690  3.5824  1.0107
  575MOL0     H77601   6.093   7.654  -1.299 -0.8521  0.4164 -0.6259
  575MOL0     H77602   6.251   7.596  -1.249 -1.2907 -0.7967  4.5902
  575MOL0     H77603   6.286   7.773  -1.413  0.6003 -2.5521  0.4475
  575MOL0     H77604   6.190   7.885  -1.319  1.6337  1.2859  1.5586
  575MOL0     H77605   5.658   7.569  -0.451  1.2529  1.8498  4.1227
  575MOL0     H77606   5.499   7.417  -0.367  1.0745  1.1056  0.8397
  575MOL0     H77607   5.353   7.114  -0.129 -0.9548  0.2712  0.5658
  575MOL0     H77608   5.145   6.964  -0.049 -1.3023 -4.1135 -0.5703
  575MOL0     H77609   4.243   5.395   0.678 -0.5849 -0.2964 -2.9651
  575MOL0     H77610   4.199   5.501   0.902 -0.6949  0.5854  0.0740
  575MOL0     H77611   4.114   5.996   1.029 -1.9547  1.3363  1.6801
  575MOL0     H77612   4.077   6.161   1.191 -0.3702 -0.8038 -1.0016
  575MOL0     H77613   4.048   6.282   1.413  0.3665 -0.2095 -0.3532
  575MOL0     H77614   4.153   6.325   1.282  0.4127 -1.5569 -0.8497
  575MOL0     H77615   4.294   6.469   1.438  0.7094  0.4718 -0.2941
  575MOL0     H77616   4.160   6.451   1.560  0.5667 -2.0192  0.3294
  575MOL0     H77617   4.136   6.542   1.271 -3.9785 -1.0001 -0.6044
  575MOL0     H77618   4.158   6.652   1.412 -1.0526  0.7736 -1.0903
  575MOL0     H77619   3.916   6.607   1.307 -2.6066 -0.3932 -0.2991
  575MOL0     H77620   3.909   6.470   1.413 -1.3345  1.3945 -0.2124
  575MOL0     H77621   3.892   6.798   1.680 -1.3901  0.1997 -0.3240
  575MOL0     H77622   4.438   6.018   1.401  1.4741  1.0439 -1.9825
  575MOL0     H77623   4.467   5.723   1.267 -4.4529  1.4756 -0.1973
  575MOL0     H77624   4.585   5.830   1.175 -0.4030 -3.2877 -1.9122
  575MOL0     H77625   4.547   5.842   1.349 -1.9093 -4.8134  1.6741
  576MOL0     O77626   0.202   3.614   3.487 -0.8126 -0.0605 -0.8198
  576MOL0     C77627   0.220   3.512   3.421  1.7079  0.2262 -0.3885
  576MOL0     O77628   0.334   3.438   3.428 -0.1192 -0.1099 -0.4580
  576MOL0     C77629   0.416   3.462   3.529  0.0803 -0.2768  0.4159
  576MOL0     C77630   0.518   3.550   3.522 -0.9308  0.9287  0.6434
  576MOL0     C77631   0.616   3.571   3.623  0.7276 -0.6518 -0.7158
  576MOL0     C77632   0.597   3.509   3.744  0.2507 -0.1364  0.8233
  576MOL0     O77633   0.683   3.508   3.841  0.3326  0.1600 -0.7772
  576MOL0     C77634   0.826   3.526   3.827 -0.1339  0.3584  0.1609
  576MOL0     C77635   0.891   3.447   3.720 -1.4778 -0.0208 -0.5379
  576MOL0     C77636   1.048   3.454   3.711  0.3834  0.6715 -1.1005
  576MOL0     C77637   1.109   3.383   3.841 -0.0065 -0.4690 -0.3767
  576MOL0     C77638   1.237   3.307   3.785  0.5882  0.3533 -0.4123
  576MOL0     C77639   1.315   3.247   3.899 -0.0635  0.6196  0.8453
  576MOL0     C77640   1.300   3.288   4.040  1.0016 -0.7941  0.6195
  576MOL0     C77641   1.406   3.230   4.134  0.1271 -0.3528  0.1862
  576MOL0     N77642   1.527   3.306   4.135 -0.1247 -0.3454  0.2445
  576MOL0     C77643   1.543   3.437   4.196  0.0765  0.0867 -0.0199
  576MOL0     C77644   1.678   3.455   4.189 -0.4327  0.3262 -0.7002
  576MOL0     C77645   1.763   3.566   4.226 -0.5147 -0.8313  0.5483
  576MOL0     C77646   1.874   3.547   4.336  0.1857  0.7982 -0.4748
  576MOL0     C77647   1.918   3.672   4.408 -0.0088  0.8268 -1.3069
  576MOL0     C77648   2.039   3.646   4.501  0.7279 -0.5867 -0.4718
  576MOL0     O77649   1.997   3.558   4.605  0.4718 -0.8140  0.2228
  576MOL0     C77650   2.054   3.589   4.719 -0.5216  0.0331 -0.3724
  576MOL0     C77651   1.995   3.652   4.826  1.5112  0.8997  0.4653
  576MOL0     C77652   2.060   3.678   4.947  0.3323  0.2110  0.1312
  576MOL0     C77653   2.188   3.632   4.969  0.5584 -0.5214 -0.7335
  576MOL0     C77654   2.253   3.666   5.091 -0.6281  1.1456 -0.6556
  576MOL0     O77655   2.193   3.756   5.167 -0.2409 -0.2588 -0.2078
  576MOL0     C77656   2.259   3.801   5.284  0.0902  1.0014  1.2790
  576MOL0     C77657   2.298   3.930   5.290  0.6669 -0.2151 -0.2572
  576MOL0     C77658   2.377   3.971   5.399 -0.0429 -0.3633  0.3807
  576MOL0     C77659   2.420   3.883   5.499  0.4511 -0.6774  0.2282
  576MOL0     O77660   2.500   3.909   5.611  0.1881 -0.4552 -1.0553
  576MOL0     C77661   2.607   4.007   5.594 -0.2901  0.2879  0.9542
  576MOL0     C77662   2.725   3.954   5.678  0.9130  0.3114  0.6046
  576MOL0     C77663   2.705   4.010   5.819  0.1458 -0.8872  0.2112
  576MOL0     C77664   2.813   3.945   5.909 -0.1927  0.3209  0.0033
  576MOL0     C77665   2.766   3.806   5.952  0.5764  0.0315  0.7522
  576MOL0     C77666   2.655   3.798   6.050  0.6962  0.0253  0.0369
  576MOL0     C77667   2.680   3.856   6.187 -0.7981 -0.2260  1.1195
  576MOL0     C77668   2.552   3.853   6.274 -0.9446 -0.0097  0.1202
  576MOL0    Cl77669   2.414   3.954   6.208 -0.7144 -0.1212  0.0401
  576MOL0     C77670   2.384   3.752   5.479 -0.1176 -0.1966  0.3858
  576MOL0     C77671   2.303   3.708   5.378  0.4590  0.2931  0.5374
  576MOL0     O77672   2.359   3.612   5.114 -0.0663  0.3059 -0.8454
  576MOL0     C77673   2.250   3.573   4.861 -0.1257 -0.3372  0.5298
  576MOL0     C77674   2.190   3.559   4.734 -0.1441 -0.4816  0.0793
  576MOL0     N77675   1.728   3.343   4.121 -0.4092 -0.9851 -0.1863
  576MOL0     N77676   1.643   3.262   4.084 -0.4320  0.6037  0.7334
  576MOL0     C77677   0.500   3.410   3.758  0.6184  0.0744  0.0882
  576MOL0     C77678   0.412   3.384   3.645 -0.6448 -0.8486 -0.4045
  576MOL0     C77679   0.092   3.459   3.350 -1.0135 -0.4666 -1.1309
  576MOL0     C77680   0.109   3.332   3.289  0.6363  1.0559 -0.1256
  576MOL0     C77681   0.000   3.266   3.225  0.6315 -0.3262  0.9706
  576MOL0     C77682  -0.118   3.333   3.210  0.2025 -0.5924 -0.1414
  576MOL0     O77683  -0.226   3.268   3.156 -0.5191 -0.3809 -0.3900
  576MOL0     C77684  -0.242   3.317   3.021  0.3193  0.5193 -0.0392
  576MOL0     C77685  -0.357   3.248   2.955 -0.3552  0.3123 -0.2070
  576MOL0     C77686  -0.335   3.095   2.929 -0.2291  0.1321  0.3245
  576MOL0     C77687  -0.195   3.059   2.883  0.3194 -0.6390 -0.5037
  576MOL0     C77688  -0.166   3.110   2.747 -0.8749 -0.0289 -0.0950
  576MOL0     C77689  -0.131   3.143   2.634 -1.2917  0.7391 -0.6377
  576MOL0     C77690  -0.129   3.466   3.259  0.2932 -0.2765  0.5959
  576MOL0     C77691  -0.027   3.525   3.333 -0.1153 -0.3592  0.1718
  576MOL0     C77692  -0.061   3.663   3.386  0.6424 -0.2234  0.3773
  576MOL0     H77693   0.528   3.604   3.428 -3.2113  2.2434  1.0809
  576MOL0     H77694   0.695   3.642   3.601 -0.7602  0.8469 -1.3962
  576MOL0     H77695   0.860   3.629   3.821  4.0874 -0.9115 -1.9830
  576MOL0     H77696   0.865   3.496   3.924 -0.4669  0.5286  0.3514
  576MOL0     H77697   0.842   3.483   3.629 -2.6607  1.2401  0.5611
  576MOL0     H77698   0.856   3.344   3.736 -1.6954  0.3006  1.2018
  576MOL0     H77699   1.087   3.555   3.695 -1.5563  1.3475 -1.9313
  576MOL0     H77700   1.065   3.391   3.623  0.5905  2.0783 -2.0976
  576MOL0     H77701   1.118   3.463   3.916 -4.2366  0.1112 -0.2392
  576MOL0     H77702   1.035   3.315   3.886  0.3403  0.9170  2.5602
  576MOL0     H77703   1.202   3.227   3.719 -3.3838  0.1472  1.6313
  576MOL0     H77704   1.304   3.378   3.736  1.6621 -0.0967  0.3703
  576MOL0     H77705   1.304   3.139   3.883  0.8368  0.5282  0.7952
  576MOL0     H77706   1.417   3.270   3.868 -1.1472  5.9051  0.3706
  576MOL0     H77707   1.201   3.258   4.077 -0.7448  1.2528 -2.0056
  576MOL0     H77708   1.293   3.397   4.047  1.4149 -0.7883  0.9662
  576MOL0     H77709   1.372   3.236   4.237  1.9799 -5.4821  1.4044
  576MOL0     H77710   1.425   3.123   4.124  0.0097 -0.5396  1.7603
  576MOL0     H77711   1.463   3.496   4.240  2.6384  1.9847  2.3615
  576MOL0     H77712   1.819   3.601   4.139 -1.3207 -2.6188 -0.7360
  576MOL0     H77713   1.693   3.645   4.254 -0.7363 -1.1078  0.7779
  576MOL0     H77714   1.832   3.488   4.418  1.9283  1.5646  1.0179
  576MOL0     H77715   1.953   3.490   4.286 -1.1422  0.0993 -1.8671
  576MOL0     H77716   1.837   3.703   4.474  2.5128 -2.2357  3.8314
  576MOL0     H77717   1.959   3.749   4.341 -0.9136  1.9182 -0.6333
  576MOL0     H77718   2.080   3.742   4.535  0.0489  0.7738 -3.2204
  576MOL0     H77719   2.121   3.601   4.445 -1.4007 -3.1832 -1.7309
  576MOL0     H77720   1.889   3.675   4.823  0.6367 -2.5167  0.9177
  576MOL0     H77721   1.998   3.734   5.016 -0.5808 -1.0522  0.3627
  576MOL0     H77722   2.256   4.010   5.230 -2.9112  0.4116  2.7064
  576MOL0     H77723   2.383   4.077   5.420 -0.6717  0.0070 -1.1398
  576MOL0     H77724   2.633   4.011   5.487  0.7842  2.0836  1.2388
  576MOL0     H77725   2.568   4.103   5.627 -2.0601 -0.2527  0.5442
  576MOL0     H77726   2.739   3.846   5.671  4.4575  0.7502 -1.1049
  576MOL0     H77727   2.826   3.980   5.648  1.5668 -2.4102  0.2394
  576MOL0     H77728   2.711   4.119   5.827 -1.6443 -0.8145  1.3930
  576MOL0     H77729   2.601   3.997   5.853 -0.6561  0.4412 -1.5777
  576MOL0     H77730   2.822   3.993   6.008 -3.6469 -0.4130  0.8232
  576MOL0     H77731   2.912   3.928   5.866  0.6986 -3.4096  2.9708
  576MOL0     H77732   2.852   3.762   6.002 -0.5247 -2.4129  0.6447
  576MOL0     H77733   2.748   3.738   5.868 -1.1962  0.4507  0.7406
  576MOL0     H77734   2.568   3.849   6.007  1.8025  1.2347 -0.8312
  576MOL0     H77735   2.632   3.695   6.077 -0.8187  1.3966  5.2471
  576MOL0     H77736   2.719   3.957   6.176  2.8571 -1.5922 -0.2498
  576MOL0     H77737   2.757   3.798   6.238  0.9779  0.7835 -0.2981
  576MOL0     H77738   2.514   3.752   6.294 -2.2098  1.1762  4.9424
  576MOL0     H77739   2.578   3.892   6.373 -0.8400  0.6463 -0.1601
  576MOL0     H77740   2.415   3.671   5.544  1.8328  1.6217  1.8723
  576MOL0     H77741   2.276   3.603   5.377  2.6019 -0.3249  1.6393
  576MOL0     H77742   2.353   3.540   4.871 -0.3090 -1.0049  0.2616
  576MOL0     H77743   2.253   3.501   4.667  0.4957  1.9374 -1.5280
  576MOL0     H77744   0.490   3.356   3.851 -2.4272 -0.9793 -0.7313
  576MOL0     H77745   0.351   3.295   3.636 -0.5153 -0.9674 -0.1383
  576MOL0     H77746   0.191   3.261   3.296 -0.3291 -0.0332  0.5346
  576MOL0     H77747   0.026   3.170   3.181 -0.0841  0.3494 -1.0260
  576MOL0     H77748  -0.151   3.317   2.960 -0.5677  0.4494 -1.4197
  576MOL0     H77749  -0.287   3.416   3.015 -0.1479  0.2608 -1.1953
  576MOL0     H77750  -0.366   3.305   2.862  2.6179 -0.7371 -1.2789
  576MOL0     H77751  -0.444   3.255   3.021 -0.1472  1.3164 -0.0156
  576MOL0     H77752  -0.417   3.066   2.863 -1.4742  0.7386  1.5384
  576MOL0     H77753  -0.346   3.037   3.022 -1.4072 -0.5223 -0.2033
  576MOL0     H77754  -0.118   3.084   2.957 -0.5936 -0.5041  0.4220
  576MOL0     H77755  -0.191   2.950   2.873 -0.6138 -0.6799 -0.4903
  576MOL0     H77756  -0.095   3.162   2.535  0.4820 -1.5254 -0.5188
  576MOL0     H77757  -0.223   3.513   3.232  0.3959 -1.8118 -3.0871
  576MOL0     H77758   0.017   3.739   3.380  0.1461  0.2338 -0.5204
  576MOL0     H77759  -0.154   3.699   3.342  0.6904 -3.4100 -2.6742
  576MOL0     H77760  -0.077   3.652   3.494  1.3953  0.1837  0.5393
  577MOL0     O77761   1.565  10.086   0.247  0.1843  0.6680  0.6927
  577MOL0     C77762   1.623  10.186   0.202  0.0495 -0.2581 -0.3826
  577MOL0     O77763   1.628  10.304   0.271  0.4482  0.0077  0.6508
  577MOL0     C77764   1.525  10.325   0.360 -0.3775  0.7260  0.6488
  577MOL0     C77765   1.393  10.326   0.312  0.1529 -0.0459 -0.7792
  577MOL0     C77766   1.282  10.345   0.395  1.1068 -0.3487  0.6649
  577MOL0     C77767   1.311  10.370   0.534  1.5984 -0.3360  0.3362
  577MOL0     O77768   1.201  10.389   0.610  0.1533 -0.0782 -0.0747
  577MOL0     C77769   1.191  10.324   0.741 -0.2572  0.6087  0.2420
  577MOL0     C77770   1.055  10.265   0.778 -1.2282  0.3176  0.0172
  577MOL0     C77771   0.992  10.159   0.680 -0.2143 -0.5179 -0.1332
  577MOL0     C77772   0.889  10.080   0.753 -0.3684  0.7994  0.7475
  577MOL0     C77773   0.809   9.979   0.652 -0.1997  0.7432  0.6321
  577MOL0     C77774   0.735   9.872   0.732 -0.4300 -0.0361  0.5075
  577MOL0     C77775   0.653   9.766   0.661  0.4669  0.4131  0.6936
  577MOL0     C77776   0.576   9.812   0.529 -0.6096 -0.7497 -0.3742
  577MOL0     N77777   0.559   9.703   0.433  0.2813 -0.2606 -0.4693
  577MOL0     C77778   0.453   9.623   0.432 -0.5931  0.0841 -0.6381
  577MOL0     C77779   0.485   9.530   0.340 -0.9262 -0.4963  0.1459
  577MOL0     C77780   0.417   9.403   0.304  0.2496  1.0478  0.2631
  577MOL0     C77781   0.437   9.283   0.394  0.2343  0.3507  0.1398
  577MOL0     C77782   0.317   9.205   0.424 -0.1127 -0.4113 -0.3437
  577MOL0     C77783   0.336   9.082   0.517 -0.9469  0.0112  0.3067
  577MOL0     O77784   0.371   9.123   0.644  0.6087 -0.8138 -0.2186
  577MOL0     C77785   0.405   9.030   0.734  0.1191  0.4163  0.3711
  577MOL0     C77786   0.315   9.003   0.838  0.7223 -0.0549  0.2815
  577MOL0     C77787   0.342   8.902   0.927  0.5945  0.3703 -0.2746
  577MOL0     C77788   0.470   8.839   0.928 -0.8523  0.4034  0.4619
  577MOL0     C77789   0.503   8.752   1.042 -0.7810 -0.0426 -0.1418
  577MOL0     O77790   0.609   8.670   1.023  0.0121 -1.1308 -0.7194
  577MOL0     C77791   0.642   8.585   1.129 -0.4682 -0.3721  0.2749
  577MOL0     C77792   0.602   8.452   1.135  0.3525  0.6316 -0.5801
  577MOL0     C77793   0.636   8.364   1.238  0.4214  0.1271 -0.6294
  577MOL0     C77794   0.710   8.417   1.349 -0.7101  0.7284  1.2307
  577MOL0     O77795   0.744   8.327   1.448  0.3361  0.3042  0.0637
  577MOL0     C77796   0.875   8.273   1.460 -0.1941  0.9265 -0.9533
  577MOL0     C77797   0.885   8.166   1.569  0.6864  0.6136 -0.3661
  577MOL0     C77798   1.022   8.153   1.632 -0.5514  0.6762 -0.6402
  577MOL0     C77799   1.016   8.044   1.747 -0.4730  0.5556  0.6282
  577MOL0     C77800   0.920   8.076   1.861 -0.3677  0.1478 -0.1017
  577MOL0     C77801   0.924   7.951   1.951 -0.6080  0.1204 -0.4260
  577MOL0     C77802   0.826   7.962   2.061  1.1429  0.3838  1.4056
  577MOL0     C77803   0.820   8.097   2.132  0.4888 -0.4337  1.1644
  577MOL0    Cl77804   0.738   8.069   2.274  0.0972 -0.3556 -0.3262
  577MOL0     C77805   0.751   8.552   1.355  0.8659  0.1429 -0.4104
  577MOL0     C77806   0.714   8.634   1.243  0.1837 -0.2409 -0.6990
  577MOL0     O77807   0.431   8.757   1.147 -0.5702  0.2848 -0.5178
  577MOL0     C77808   0.563   8.868   0.820 -0.3189 -0.1656  0.6327
  577MOL0     C77809   0.529   8.966   0.732 -0.4551  0.1840  0.4968
  577MOL0     N77810   0.595   9.571   0.271 -0.9872 -0.0112  0.0120
  577MOL0     N77811   0.650   9.661   0.340 -0.3478 -0.1216  0.1271
  577MOL0     C77812   1.442  10.370   0.579 -0.1757  0.0152  0.1615
  577MOL0     C77813   1.550  10.349   0.491 -0.3906 -0.1419 -0.6368
  577MOL0     C77814   1.702  10.179   0.075 -0.0268 -0.1354 -0.1325
  577MOL0     C77815   1.791  10.291   0.044  0.0997 -0.3486 -0.2632
  577MOL0     C77816   1.861  10.307  -0.074 -0.0504 -0.5371 -0.5290
  577MOL0     C77817   1.855  10.209  -0.170 -0.4069 -0.2638 -0.0233
  577MOL0     O77818   1.920  10.226  -0.292 -0.4402  0.3767 -0.4200
  577MOL0     C77819   1.939  10.111  -0.375 -0.1775  0.7713 -0.2040
  577MOL0     C77820   2.030  10.150  -0.496 -0.7822  0.1265  0.2367
  577MOL0     C77821   2.013  10.054  -0.607 -0.0683  0.4704 -0.1682
  577MOL0     C77822   2.114  10.082  -0.717 -0.2036 -0.3156  0.0629
  577MOL0     C77823   2.236  10.016  -0.682  0.5387  0.0470 -0.3234
  577MOL0     C77824   2.338   9.961  -0.654 -0.4869  0.0091  0.9551
  577MOL0     C77825   1.766  10.105  -0.149  1.0621  0.5752 -0.5062
  577MOL0     C77826   1.690  10.090  -0.026  1.1669 -0.2939 -0.2000
  577MOL0     C77827   1.576   9.992  -0.028  0.9162  1.2416  0.2115
  577MOL0     H77828   1.370  10.295   0.210  0.3534 -2.3258 -0.1755
  577MOL0     H77829   1.185  10.332   0.350  1.4479 -0.9989  0.1039
  577MOL0     H77830   1.265  10.244   0.750 -1.6235 -0.6755  0.5089
  577MOL0     H77831   1.225  10.402   0.809 -2.0497 -0.1332  2.1088
  577MOL0     H77832   0.997  10.357   0.790 -1.0380  0.4628 -0.1813
  577MOL0     H77833   1.070  10.230   0.881  2.7815  1.8349  0.0994
  577MOL0     H77834   1.070  10.084   0.663 -0.6127 -0.7852 -0.8410
  577MOL0     H77835   0.968  10.200   0.582 -3.0092 -1.4354  0.0975
  577MOL0     H77836   0.931  10.027   0.839 -0.6234 -1.8474 -0.6489
  577MOL0     H77837   0.810  10.146   0.789 -4.0696 -2.6163 -0.3793
  577MOL0     H77838   0.732  10.031   0.594 -0.1550 -1.0200 -1.1302
  577MOL0     H77839   0.868   9.921   0.581 -0.4463 -2.9357  3.1754
  577MOL0     H77840   0.801   9.823   0.804  0.6701 -0.8525 -1.0083
  577MOL0     H77841   0.664   9.933   0.789  0.0639  2.4268 -1.3500
  577MOL0     H77842   0.578   9.727   0.730 -0.2630  0.3431 -0.1143
  577MOL0     H77843   0.707   9.671   0.649  2.6196  1.3160  2.5428
  577MOL0     H77844   0.479   9.859   0.550  0.0796  0.7651 -0.4267
  577MOL0     H77845   0.627   9.888   0.470 -2.8351 -0.1715 -1.6668
  577MOL0     H77846   0.368   9.611   0.499  0.2481  1.0346  0.6683
  577MOL0     H77847   0.313   9.435   0.296  0.2328  1.2324  1.1076
  577MOL0     H77848   0.455   9.371   0.206 -0.9295 -0.0992  0.1540
  577MOL0     H77849   0.513   9.208   0.367 -2.3151 -1.9225 -1.3219
  577MOL0     H77850   0.463   9.335   0.486 -1.8424 -0.5933  1.3219
  577MOL0     H77851   0.264   9.166   0.337 -1.1366 -1.0316  0.5309
  577MOL0     H77852   0.253   9.271   0.483 -0.5780 -2.1446  1.2113
  577MOL0     H77853   0.424   9.031   0.476 -0.9950  0.7118 -0.6996
  577MOL0     H77854   0.244   9.023   0.527 -2.9556  3.2542  3.5230
  577MOL0     H77855   0.229   9.069   0.846  2.1771  1.7108  2.3448
  577MOL0     H77856   0.275   8.881   1.009 -1.6906  1.0087 -1.8629
  577MOL0     H77857   0.547   8.415   1.049  0.3167 -0.5480 -0.0788
  577MOL0     H77858   0.597   8.263   1.239  0.8108 -0.0532  1.8180
  577MOL0     H77859   0.910   8.230   1.366  2.2594  0.1215  0.2587
  577MOL0     H77860   0.943   8.354   1.485  0.4868  0.3973 -1.0671
  577MOL0     H77861   0.827   8.202   1.654  0.8437  1.4176 -0.5920
  577MOL0     H77862   0.867   8.064   1.532  2.8884  0.5924 -1.5805
  577MOL0     H77863   1.085   8.116   1.551 -0.7496 -1.1342  0.0048
  577MOL0     H77864   1.065   8.239   1.685  2.2780 -1.9314  1.6433
  577MOL0     H77865   1.117   8.030   1.785  0.6215 -2.5939 -2.8151
  577MOL0     H77866   0.982   7.951   1.700  2.9923 -0.3507 -0.3858
  577MOL0     H77867   0.817   8.077   1.823 -1.0606  0.6065  1.6767
  577MOL0     H77868   0.940   8.169   1.914 -0.7856 -0.5843  1.4064
  577MOL0     H77869   0.900   7.859   1.898 -5.8320  0.9728 -0.0768
  577MOL0     H77870   1.026   7.943   1.991 -1.7516 -1.7266  2.4247
  577MOL0     H77871   0.830   7.886   2.140 -2.3899  0.6984  2.0662
  577MOL0     H77872   0.735   7.934   2.007  1.1391  1.5044  0.8103
  577MOL0     H77873   0.924   8.118   2.158  1.0009 -0.9573 -0.3892
  577MOL0     H77874   0.770   8.178   2.078  1.2264 -0.7899 -0.0788
  577MOL0     H77875   0.808   8.587   1.441  0.6121 -0.1900 -0.0980
  577MOL0     H77876   0.760   8.731   1.255  1.7701 -1.1488  1.3310
  577MOL0     H77877   0.656   8.812   0.812  0.6908  1.6233 -0.9897
  577MOL0     H77878   0.597   8.977   0.649  0.0718 -0.4218  0.8376
  577MOL0     H77879   1.471  10.385   0.683 -0.7331 -2.1336  0.6750
  577MOL0     H77880   1.651  10.356   0.529  0.6200 -4.2573 -2.0455
  577MOL0     H77881   1.816  10.372   0.111 -0.6368 -1.4536  1.4211
  577MOL0     H77882   1.932  10.385  -0.098 -1.6918  0.8297 -1.1494
  577MOL0     H77883   1.847  10.076  -0.423 -0.2555  0.2949  0.2806
  577MOL0     H77884   1.975  10.028  -0.314 -2.5510  0.2732  0.6218
  577MOL0     H77885   2.136  10.156  -0.472 -0.3844  0.4421 -1.4147
  577MOL0     H77886   2.014  10.249  -0.541  0.6402 -0.3653 -1.4661
  577MOL0     H77887   1.915  10.075  -0.652  1.0682 -0.4128 -3.3737
  577MOL0     H77888   2.011   9.953  -0.564 -0.1445 -0.2818 -1.8576
  577MOL0     H77889   2.090  10.042  -0.816  1.7754  0.5681 -0.8305
  577MOL0     H77890   2.140  10.187  -0.731  0.3567 -0.1702  1.9074
  577MOL0     H77891   2.423   9.896  -0.644 -0.5252 -0.2955 -0.4861
  577MOL0     H77892   1.751  10.019  -0.213  0.5601 -0.2117  0.6234
  577MOL0     H77893   1.585   9.909  -0.098 -0.7392  1.0283  0.2180
  577MOL0     H77894   1.572   9.944   0.070 -1.7014  0.2781 -0.2951
  577MOL0     H77895   1.479  10.032  -0.058 -0.2892 -1.7741 -0.2245
  578MOL0     O77896   7.662   9.560   8.948 -0.1086  1.1188 -0.6378
  578MOL0     C77897   7.555   9.545   8.876 -0.6183 -0.4642  0.2757
  578MOL0     O77898   7.490   9.434   8.850 -0.7952 -0.0473 -0.2424
  578MOL0     C77899   7.496   9.339   8.953  0.2798  0.7654 -0.5805
  578MOL0     C77900   7.578   9.226   8.933  0.9383 -0.4860  0.5389
  578MOL0     C77901   7.568   9.126   9.022 -0.3777 -0.2767  0.5080
  578MOL0     C77902   7.488   9.126   9.132 -0.0681  0.5929  0.0528
  578MOL0     O77903   7.475   9.028   9.231  0.3148 -0.2344  0.3379
  578MOL0     C77904   7.572   8.919   9.234 -0.5854  0.3584 -0.6027
  578MOL0     C77905   7.547   8.822   9.349 -0.3109 -0.5145  0.1790
  578MOL0     C77906   7.408   8.758   9.357  0.3968  0.2560 -0.4511
  578MOL0     C77907   7.381   8.688   9.486  0.9577 -0.1183  0.7294
  578MOL0     C77908   7.227   8.688   9.518  1.0384  0.9756  0.2798
  578MOL0     C77909   7.140   8.629   9.406  0.1814  0.0286 -0.3929
  578MOL0     C77910   7.119   8.479   9.430 -0.2057  0.5362  0.4594
  578MOL0     C77911   7.005   8.432   9.344  0.6493 -0.3722 -0.2667
  578MOL0     N77912   6.969   8.294   9.372  0.1302  0.1817  0.1043
  578MOL0     C77913   7.013   8.216   9.473 -0.5566  0.6125 -0.4551
  578MOL0     C77914   6.959   8.094   9.447  0.1480  1.3927 -0.9375
  578MOL0     C77915   6.985   7.970   9.529 -0.6471 -0.2533 -0.5389
  578MOL0     C77916   6.882   7.876   9.492  0.8577 -0.1196 -1.2739
  578MOL0     C77917   6.892   7.761   9.588 -0.1660  0.4927 -0.2856
  578MOL0     C77918   6.901   7.631   9.521 -0.0544  1.3003  0.2674
  578MOL0     O77919   6.926   7.530   9.619 -1.0281 -0.4976 -0.4224
  578MOL0     C77920   6.847   7.420   9.622  0.5746  0.3236 -1.4470
  578MOL0     C77921   6.708   7.432   9.644  0.2465  0.0062  0.0294
  578MOL0     C77922   6.632   7.323   9.649  0.7656  0.0815 -0.7748
  578MOL0     C77923   6.682   7.194   9.620  0.6478  0.6547 -0.1183
  578MOL0     C77924   6.591   7.073   9.631 -1.3184 -0.0418 -0.5375
  578MOL0     O77925   6.460   7.090   9.685  1.0877 -0.4660 -0.2261
  578MOL0     C77926   6.383   6.979   9.716  0.0461 -0.1939  0.8547
  578MOL0     C77927   6.257   6.973   9.665 -0.2683 -0.7540  0.3721
  578MOL0     C77928   6.175   6.865   9.695 -0.0510  0.2800  0.2842
  578MOL0     C77929   6.225   6.749   9.759 -0.4837 -0.0190  0.3724
  578MOL0     O77930   6.137   6.639   9.783 -0.1217 -0.0512  0.1013
  578MOL0     C77931   6.191   6.519   9.851 -0.6387  0.5123  0.1215
  578MOL0     C77932   6.262   6.426   9.743 -0.0051  1.0454  0.2418
  578MOL0     C77933   6.335   6.300   9.793 -0.9186 -0.4221 -0.4077
  578MOL0     C77934   6.430   6.252   9.683 -1.3438  0.5761 -0.0559
  578MOL0     C77935   6.342   6.209   9.568  0.6984 -0.3153  0.4928
  578MOL0     C77936   6.424   6.125   9.462 -0.4189 -1.0845 -0.0788
  578MOL0     C77937   6.340   6.008   9.413  0.6938 -0.8240 -0.5335
  578MOL0     C77938   6.419   5.922   9.318 -0.8514 -0.5533  0.0400
  578MOL0    Cl77939   6.311   5.868   9.180  0.2359  0.0556 -0.3283
  578MOL0     C77940   6.358   6.761   9.803 -0.2187  1.1751 -0.3176
  578MOL0     C77941   6.437   6.868   9.779 -0.3311 -0.2474  1.0492
  578MOL0     O77942   6.645   6.972   9.591 -0.3461 -0.0898  0.0481
  578MOL0     C77943   6.830   7.178   9.601  0.1687 -0.6069  0.7252
  578MOL0     C77944   6.910   7.296   9.603 -0.1079 -0.2582 -0.1992
  578MOL0     N77945   6.892   8.098   9.329 -0.3760 -0.2987 -1.3522
  578MOL0     N77946   6.879   8.220   9.297 -0.3667 -0.5604 -0.1790
  578MOL0     C77947   7.398   9.233   9.138  0.2476  0.4641  0.3426
  578MOL0     C77948   7.405   9.340   9.059  0.3538  0.6698  0.7688
  578MOL0     C77949   7.484   9.669   8.829 -0.6798  0.4021 -1.7088
  578MOL0     C77950   7.561   9.790   8.833 -1.0812 -0.0749 -1.0315
  578MOL0     C77951   7.506   9.917   8.823  0.4151 -0.1994  0.5389
  578MOL0     C77952   7.380   9.923   8.777 -0.0907 -0.6529 -0.8727
  578MOL0     O77953   7.346  10.046   8.737 -0.0917 -0.3330  0.8451
  578MOL0     C77954   7.209  10.080   8.715 -0.3899  0.1137 -0.2117
  578MOL0     C77955   7.213  10.230   8.680 -0.3308  0.1474 -0.3716
  578MOL0     C77956   7.292  10.259   8.547  0.0523  0.5774  0.6425
  578MOL0     C77957   7.218  10.376   8.478 -0.8201  0.1650 -1.0576
  578MOL0     C77958   7.233  10.501   8.557 -0.3747  0.6003  0.2046
  578MOL0     C77959   7.233  10.610   8.611  0.0838 -0.2469 -0.7487
  578MOL0     C77960   7.301   9.814   8.763 -1.0284 -0.5772 -0.1609
  578MOL0     C77961   7.352   9.683   8.791  0.6862  0.9022  0.4719
  578MOL0     C77962   7.247   9.570   8.799 -0.4384  0.7292 -0.7556
  578MOL0     H77963   7.650   9.228   8.852  0.4197  0.8432  0.0868
  578MOL0     H77964   7.638   9.043   9.015  0.5512  0.5309 -0.1190
  578MOL0     H77965   7.572   8.864   9.140  1.8206  1.8173 -1.5361
  578MOL0     H77966   7.669   8.968   9.247  0.0392 -1.3774  1.9503
  578MOL0     H77967   7.566   8.877   9.441 -1.5936 -0.0938  0.2075
  578MOL0     H77968   7.626   8.746   9.344  2.3671  2.1750 -1.6706
  578MOL0     H77969   7.400   8.676   9.284 -1.5422 -2.9049  2.9895
  578MOL0     H77970   7.333   8.835   9.334 -1.7624 -1.4759  0.4181
  578MOL0     H77971   7.424   8.587   9.481  2.6515  0.6240 -3.1156
  578MOL0     H77972   7.444   8.746   9.555  2.9431 -0.2454 -0.8666
  578MOL0     H77973   7.198   8.654   9.618  0.2022  0.6523 -0.0676
  578MOL0     H77974   7.196   8.793   9.522  1.5603  1.1455 -0.0441
  578MOL0     H77975   7.044   8.681   9.401 -0.4499 -1.0106  0.5314
  578MOL0     H77976   7.188   8.649   9.309 -3.9054  2.7230 -2.1477
  578MOL0     H77977   7.097   8.454   9.534 -0.3539 -0.7019  0.1425
  578MOL0     H77978   7.218   8.441   9.402 -0.8601  0.9182 -2.7360
  578MOL0     H77979   6.921   8.500   9.362  1.1998 -0.2304  2.0262
  578MOL0     H77980   7.028   8.438   9.237 -0.7030  0.1652 -0.5543
  578MOL0     H77981   7.069   8.253   9.558 -0.0002 -2.1845  0.5017
  578MOL0     H77982   7.087   7.936   9.508 -0.5363 -1.6108  1.9167
  578MOL0     H77983   6.979   7.978   9.638  0.4029  3.0823 -0.6256
  578MOL0     H77984   6.784   7.923   9.506  1.7208  1.8654 -1.4830
  578MOL0     H77985   6.882   7.854   9.384  0.7101 -4.1063 -0.6048
  578MOL0     H77986   6.803   7.753   9.650  0.0149 -0.8166 -0.1722
  578MOL0     H77987   6.982   7.766   9.650  2.1550  0.1538 -3.3720
  578MOL0     H77988   6.986   7.634   9.453 -2.7342  2.6612 -3.3704
  578MOL0     H77989   6.813   7.618   9.457 -1.3164  5.2528  0.9196
  578MOL0     H77990   6.660   7.528   9.661  0.1167 -0.2113  0.9194
  578MOL0     H77991   6.526   7.327   9.672  1.4227 -0.7283  2.9373
  578MOL0     H77992   6.219   7.065   9.620  3.1418  0.8848  0.4932
  578MOL0     H77993   6.075   6.874   9.653  0.9118  1.2364 -1.9332
  578MOL0     H77994   6.270   6.550   9.919  0.6629 -3.0652  0.4859
  578MOL0     H77995   6.112   6.471   9.910 -1.1858  2.4724  1.0696
  578MOL0     H77996   6.196   6.401   9.659  1.2925 -3.2189  0.2514
  578MOL0     H77997   6.342   6.485   9.696  0.6084 -0.6315 -0.9156
  578MOL0     H77998   6.387   6.327   9.885  0.6475 -0.2889 -1.2919
  578MOL0     H77999   6.261   6.225   9.823  0.3612 -0.9332  1.7213
  578MOL0     H78000   6.477   6.158   9.714  1.0515  1.9121  0.5613
  578MOL0     H78001   6.509   6.323   9.659 -0.3117  0.3261  2.3407
  578MOL0     H78002   6.306   6.293   9.508  0.4030 -1.6162 -1.2184
  578MOL0     H78003   6.251   6.157   9.597  0.8551 -0.5244  0.6097
  578MOL0     H78004   6.459   6.186   9.377  2.8402  0.9395  2.4524
  578MOL0     H78005   6.512   6.086   9.514  1.1244 -0.0154 -1.7653
  578MOL0     H78006   6.264   6.054   9.350  0.9428  1.2844  0.6359
  578MOL0     H78007   6.299   5.951   9.497 -0.2069 -1.1351 -1.1749
  578MOL0     H78008   6.514   5.963   9.281 -1.3070  0.1985 -0.3120
  578MOL0     H78009   6.452   5.837   9.379 -0.4842  1.3079  2.5931
  578MOL0     H78010   6.404   6.682   9.863 -2.9752 -0.4581 -0.1879
  578MOL0     H78011   6.540   6.850   9.808 -0.1342 -3.3355 -1.0846
  578MOL0     H78012   6.876   7.087   9.564  2.2455  2.0552 -4.2444
  578MOL0     H78013   7.016   7.288   9.584 -0.4449 -2.4563 -1.5143
  578MOL0     H78014   7.326   9.247   9.218 -0.2353  3.5618 -0.5040
  578MOL0     H78015   7.331   9.419   9.060 -0.7116 -0.3080  1.4800
  578MOL0     H78016   7.664   9.793   8.866 -0.9914 -1.1681 -1.1838
  578MOL0     H78017   7.571  10.003   8.830 -1.5785  1.2571  2.7361
  578MOL0     H78018   7.137  10.073   8.798 -0.1547  0.3321  0.0170
  578MOL0     H78019   7.168  10.022   8.633 -1.1703 -2.2490  1.7275
  578MOL0     H78020   7.251  10.298   8.758 -2.4665  0.0407  0.8478
  578MOL0     H78021   7.113  10.275   8.684  0.2092  1.4154 -0.4367
  578MOL0     H78022   7.286  10.173   8.481  2.2843 -0.2782  1.4671
  578MOL0     H78023   7.399  10.281   8.551  0.5159 -1.6643  1.7983
  578MOL0     H78024   7.247  10.391   8.374 -1.6824  1.7375 -1.1056
  578MOL0     H78025   7.109  10.362   8.473 -1.2826  3.2196 -1.7046
  578MOL0     H78026   7.242  10.702   8.664  3.7218 -0.9273  0.0580
  578MOL0     H78027   7.197   9.833   8.741 -1.3870  1.9006  2.9560
  578MOL0     H78028   7.247   9.543   8.905 -1.4530  0.9676 -0.6890
  578MOL0     H78029   7.148   9.613   8.783 -1.9807 -1.3549  2.2356
  578MOL0     H78030   7.264   9.485   8.733 -1.3506  2.1312 -2.9265
  579MOL0     O78031   3.679   3.198   5.337  0.7603 -0.1395  0.6718
  579MOL0     C78032   3.729   3.085   5.336  0.2722 -1.0628  0.4134
  579MOL0     O78033   3.824   3.050   5.244  0.5516 -0.1986  0.2705
  579MOL0     C78034   3.911   2.952   5.255 -0.5768 -0.5423 -0.7171
  579MOL0     C78035   4.042   2.967   5.295 -0.2607 -0.2553 -0.4483
  579MOL0     C78036   4.137   2.859   5.310  0.2414 -0.5102  0.2053
  579MOL0     C78037   4.101   2.730   5.266  0.1358  0.5129 -1.0754
  579MOL0     O78038   4.196   2.633   5.281 -0.6585  0.0642 -0.9167
  579MOL0     C78039   4.199   2.513   5.200  0.1933 -0.7086 -0.0116
  579MOL0     C78040   4.342   2.490   5.158  0.0641 -0.1766  0.4390
  579MOL0     C78041   4.381   2.347   5.168 -1.1248  0.4852 -0.6874
  579MOL0     C78042   4.534   2.332   5.161 -0.2747 -0.2929 -0.0587
  579MOL0     C78043   4.589   2.189   5.178  1.2296 -0.3286 -0.6267
  579MOL0     C78044   4.742   2.194   5.222  1.0106  0.0461  1.3884
  579MOL0     C78045   4.810   2.065   5.183  0.2700 -0.1411 -0.0979
  579MOL0     C78046   4.947   2.045   5.244 -0.4071  0.9085 -0.2049
  579MOL0     N78047   5.011   1.917   5.211 -0.7125  0.9925  0.5901
  579MOL0     C78048   4.957   1.809   5.153  0.4457 -0.3113 -0.3620
  579MOL0     C78049   5.044   1.705   5.174  0.4098 -0.7257 -0.4263
  579MOL0     C78050   5.014   1.565   5.134 -0.2326  0.5502  0.3266
  579MOL0     C78051   5.105   1.462   5.190  0.0623  0.1955  0.2357
  579MOL0     C78052   5.203   1.398   5.087  0.1857 -1.0080 -0.1539
  579MOL0     C78053   5.312   1.329   5.172  0.1069 -0.6026 -0.4765
  579MOL0     O78054   5.398   1.249   5.082  0.7697 -0.4660  0.0971
  579MOL0     C78055   5.508   1.195   5.142  0.7267  0.1230  0.5955
  579MOL0     C78056   5.517   1.056   5.167 -0.0316 -0.4486  1.1531
  579MOL0     C78057   5.630   1.009   5.234 -0.3515 -0.2858 -0.1085
  579MOL0     C78058   5.726   1.095   5.287 -0.2416 -0.2248 -1.0546
  579MOL0     C78059   5.857   1.045   5.345  0.7349  1.3260  0.5114
  579MOL0     O78060   5.927   1.120   5.428  0.0667  0.3034  0.1406
  579MOL0     C78061   6.058   1.082   5.449  0.4294  0.3842  0.0742
  579MOL0     C78062   6.083   1.040   5.576 -0.0834  0.7351  0.0255
  579MOL0     C78063   6.213   0.999   5.606 -0.3750 -0.1615 -0.1524
  579MOL0     C78064   6.322   1.003   5.511  0.2115  0.1643 -1.5005
  579MOL0     O78065   6.444   0.979   5.566 -0.2294 -0.6356  0.2139
  579MOL0     C78066   6.565   0.983   5.477  1.0730  0.6053  0.1062
  579MOL0     C78067   6.700   0.934   5.533 -0.0573 -0.0001 -0.9869
  579MOL0     C78068   6.815   0.981   5.443 -0.1235  0.1112  0.3732
  579MOL0     C78069   6.864   1.131   5.448  0.1244  0.6856  0.2748
  579MOL0     C78070   6.920   1.179   5.578 -0.1174 -0.9538  0.3534
  579MOL0     C78071   6.827   1.270   5.652 -0.7237  0.0212  0.5061
  579MOL0     C78072   6.886   1.292   5.798  0.5596  0.0619 -0.7039
  579MOL0     C78073   7.034   1.330   5.805 -0.1651  0.3591 -0.2673
  579MOL0    Cl78074   7.069   1.467   5.696  0.3516  0.0460  0.1866
  579MOL0     C78075   6.300   1.045   5.382  0.5190  0.8443  0.0124
  579MOL0     C78076   6.160   1.085   5.356  0.2022 -0.4224 -1.0216
  579MOL0     O78077   5.882   0.928   5.315 -0.3400 -1.0295 -0.0538
  579MOL0     C78078   5.714   1.231   5.266  0.1781 -0.0235 -0.0375
  579MOL0     C78079   5.607   1.277   5.203  0.1544  0.7403  0.3071
  579MOL0     N78080   5.163   1.755   5.224 -0.2415 -0.2436 -0.3058
  579MOL0     N78081   5.132   1.873   5.267  0.5610  0.7675  0.3570
  579MOL0     C78082   3.977   2.712   5.221 -0.2673  0.4216  0.3796
  579MOL0     C78083   3.880   2.824   5.222 -0.2069  0.1204 -0.6274
  579MOL0     C78084   3.688   2.989   5.441 -0.1104 -0.0677 -1.2805
  579MOL0     C78085   3.575   2.913   5.416  0.2487  0.4979  0.1137
  579MOL0     C78086   3.509   2.828   5.516 -0.2798  0.3536  0.5586
  579MOL0     C78087   3.568   2.811   5.635 -1.1471 -0.7066  0.1892
  579MOL0     O78088   3.508   2.733   5.733  0.1656  0.2475 -0.3619
  579MOL0     C78089   3.460   2.814   5.839 -0.2408  0.1443 -1.0252
  579MOL0     C78090   3.358   2.727   5.906  0.1937  0.2770 -0.5568
  579MOL0     C78091   3.253   2.668   5.808 -0.3728 -0.9237 -0.9838
  579MOL0     C78092   3.124   2.628   5.876 -0.3193  0.2834  1.4065
  579MOL0     C78093   3.147   2.489   5.919 -0.6232  0.4449 -0.2892
  579MOL0     C78094   3.170   2.374   5.958 -0.5016  0.4716  0.0125
  579MOL0     C78095   3.684   2.885   5.660  0.3223  0.6573  1.0831
  579MOL0     C78096   3.751   2.965   5.569 -0.2029  1.1460  0.3257
  579MOL0     C78097   3.877   3.034   5.603 -0.3445  0.2257  0.7065
  579MOL0     H78098   4.073   3.070   5.310  1.4961 -0.8327  0.0961
  579MOL0     H78099   4.238   2.877   5.348  0.0870 -3.2220  2.2258
  579MOL0     H78100   4.162   2.429   5.259 -0.5902 -2.7902 -3.2464
  579MOL0     H78101   4.134   2.528   5.113 -1.2603 -2.1887  0.7699
  579MOL0     H78102   4.399   2.549   5.230 -0.4537 -0.1142  0.8001
  579MOL0     H78103   4.361   2.521   5.054  1.1976 -3.5937 -0.5251
  579MOL0     H78104   4.338   2.284   5.090 -2.6821  0.4470  0.1395
  579MOL0     H78105   4.339   2.294   5.254  0.8665 -1.5033 -0.8560
  579MOL0     H78106   4.577   2.377   5.072 -0.3096  0.7298  0.4278
  579MOL0     H78107   4.571   2.390   5.246  0.6309 -2.2039  0.9181
  579MOL0     H78108   4.539   2.131   5.256  1.6474  0.4160  0.2167
  579MOL0     H78109   4.593   2.141   5.080 -1.4865  1.4612 -1.7313
  579MOL0     H78110   4.802   2.272   5.174  0.9032 -0.5442  0.2632
  579MOL0     H78111   4.737   2.219   5.328 -1.4443  1.5600  0.9814
  579MOL0     H78112   4.810   2.072   5.074 -3.6189 -3.3633 -0.5699
  579MOL0     H78113   4.737   1.993   5.222 -2.1130  2.6814  1.0145
  579MOL0     H78114   5.019   2.121   5.213  1.8238 -0.2375  1.8101
  579MOL0     H78115   4.953   2.047   5.353  0.1902 -1.7538 -0.1256
  579MOL0     H78116   4.854   1.791   5.123 -0.2273  0.9059  1.0752
  579MOL0     H78117   4.911   1.543   5.164  0.3536 -1.2898  1.1112
  579MOL0     H78118   5.025   1.537   5.029  0.6702 -4.6532  1.5342
  579MOL0     H78119   5.172   1.504   5.267  2.8738 -0.8083 -1.5084
  579MOL0     H78120   5.047   1.385   5.242 -0.5934 -0.0883 -0.8828
  579MOL0     H78121   5.246   1.480   5.030 -0.1402 -1.2467 -0.7463
  579MOL0     H78122   5.156   1.326   5.019 -1.1785  0.7272 -1.1185
  579MOL0     H78123   5.257   1.267   5.243 -3.3805  1.7508 -0.8591
  579MOL0     H78124   5.382   1.399   5.220 -1.6204 -0.4679  2.0167
  579MOL0     H78125   5.444   0.988   5.124  1.3249  0.1408 -2.4066
  579MOL0     H78126   5.642   0.901   5.238  1.8195 -0.3392 -3.7549
  579MOL0     H78127   5.995   1.028   5.638  0.7089 -1.4264  0.8289
  579MOL0     H78128   6.238   0.969   5.707  0.5205  0.9364 -0.0248
  579MOL0     H78129   6.549   0.942   5.376  2.4733  1.9685 -0.7058
  579MOL0     H78130   6.581   1.090   5.459  3.5348  0.0913 -1.1916
  579MOL0     H78131   6.711   0.967   5.636 -0.8785 -0.5890 -0.7023
  579MOL0     H78132   6.693   0.826   5.545 -2.4830  0.0588 -1.4008
  579MOL0     H78133   6.902   0.919   5.469 -0.5147  0.0567  1.6201
  579MOL0     H78134   6.780   0.946   5.345 -1.2401 -3.3521  1.8484
  579MOL0     H78135   6.779   1.195   5.422 -0.7687  0.2137  1.8698
  579MOL0     H78136   6.937   1.123   5.367 -1.7839 -0.6187 -1.4299
  579MOL0     H78137   7.022   1.218   5.574 -0.3072 -0.3433  1.0811
  579MOL0     H78138   6.932   1.086   5.635 -0.1685  0.1737  2.3237
  579MOL0     H78139   6.821   1.361   5.592 -1.9038 -0.6345 -0.3892
  579MOL0     H78140   6.730   1.222   5.664 -0.6267 -0.0395  1.1205
  579MOL0     H78141   6.873   1.193   5.843  0.0658 -1.2672 -3.5499
  579MOL0     H78142   6.828   1.365   5.856  0.7053 -0.4249  0.0688
  579MOL0     H78143   7.062   1.362   5.906 -0.2636 -2.4880  0.7588
  579MOL0     H78144   7.098   1.248   5.771  0.9846  1.1291 -0.0353
  579MOL0     H78145   6.383   1.042   5.312  1.2471  0.5848  0.8738
  579MOL0     H78146   6.141   1.123   5.256  3.3942  1.0472 -1.2193
  579MOL0     H78147   5.776   1.309   5.307  1.1710 -1.4444  1.2481
  579MOL0     H78148   5.600   1.385   5.198 -1.4361  0.7197  1.3791
  579MOL0     H78149   3.945   2.611   5.195 -2.2364  1.3265 -0.9928
  579MOL0     H78150   3.775   2.810   5.201 -1.3654  3.5584  1.9237
  579MOL0     H78151   3.517   2.928   5.325  1.2116  0.3791 -0.5347
  579MOL0     H78152   3.417   2.780   5.486  0.8550 -0.8736 -1.1041
  579MOL0     H78153   3.416   2.899   5.787  2.5596  2.2133 -0.2554
  579MOL0     H78154   3.535   2.839   5.914 -2.3845  1.4629  0.7859
  579MOL0     H78155   3.298   2.787   5.975 -1.5654 -1.3605 -0.5879
  579MOL0     H78156   3.407   2.651   5.968 -0.0748  0.6474  0.1154
  579MOL0     H78157   3.295   2.578   5.762  0.7197 -1.3293  0.6828
  579MOL0     H78158   3.228   2.732   5.724  0.0502  0.2837 -0.2245
  579MOL0     H78159   3.115   2.696   5.961 -0.2834  0.5650  1.1845
  579MOL0     H78160   3.038   2.641   5.810  0.8157  2.0711  0.1766
  579MOL0     H78161   3.191   2.271   5.981  0.2665  0.1548 -1.9116
  579MOL0     H78162   3.733   2.889   5.756 -2.0751  2.0247  2.3558
  579MOL0     H78163   3.904   3.101   5.520 -3.8332 -1.4685 -2.0631
  579MOL0     H78164   3.861   3.091   5.695  2.0793  1.4917  0.4259
  579MOL0     H78165   3.956   2.960   5.619 -1.0540 -1.0536 -1.3733
  580MOL0     O78166   3.278   7.266   1.659 -0.3402  0.0065  0.5260
  580MOL0     C78167   3.178   7.220   1.704  0.7263 -0.5085  0.5364
  580MOL0     O78168   3.059   7.235   1.641  0.7132 -0.0131 -0.3961
  580MOL0     C78169   3.026   7.341   1.558  0.3592 -0.5210  0.2880
  580MOL0     C78170   2.929   7.429   1.618 -0.4590  0.0651  0.1984
  580MOL0     C78171   2.879   7.536   1.539  0.0991 -0.8314  0.6404
  580MOL0     C78172   2.936   7.564   1.411 -0.3439 -1.6364 -0.1305
  580MOL0     O78173   2.895   7.666   1.324  0.0076  0.0559  0.2255
  580MOL0     C78174   2.782   7.747   1.360  0.2911  0.9064  0.3146
  580MOL0     C78175   2.773   7.852   1.246  0.4710 -0.6689  0.5206
  580MOL0     C78176   2.886   7.956   1.255  0.3112  0.1205 -0.6352
  580MOL0     C78177   2.935   7.995   1.112  0.3407  0.0057 -0.8429
  580MOL0     C78178   3.028   8.111   1.121  0.1554 -0.1251  0.4590
  580MOL0     C78179   3.029   8.170   0.976 -0.0389 -0.3779 -0.8032
  580MOL0     C78180   3.136   8.277   0.954  0.0211 -0.8080 -0.7264
  580MOL0     C78181   3.274   8.203   0.950  0.5064 -0.7880 -0.5862
  580MOL0     N78182   3.362   8.275   0.856 -0.3114 -0.0070 -0.3839
  580MOL0     C78183   3.355   8.401   0.805  1.1781  1.0055  0.6311
  580MOL0     C78184   3.466   8.422   0.742 -0.2449 -1.0529  0.4412
  580MOL0     C78185   3.502   8.546   0.667 -0.5255 -0.2942 -0.2765
  580MOL0     C78186   3.590   8.548   0.549 -0.6669  1.1191 -0.4865
  580MOL0     C78187   3.574   8.440   0.454  1.3756 -0.3532  0.2681
  580MOL0     C78188   3.433   8.448   0.383  0.4866  0.4266  1.0110
  580MOL0     O78189   3.444   8.537   0.269  0.4856  0.1651 -0.0978
  580MOL0     C78190   3.476   8.497   0.142  0.3556  0.4452  1.1611
  580MOL0     C78191   3.453   8.578   0.035  0.1613 -0.0835  0.7890
  580MOL0     C78192   3.462   8.533  -0.100 -0.2878  0.4083  0.2777
  580MOL0     C78193   3.517   8.406  -0.131  0.3297  0.2143  0.1196
  580MOL0     C78194   3.544   8.357  -0.270  0.9819 -0.1739 -0.3878
  580MOL0     O78195   3.471   8.418  -0.371  1.3199  0.6702 -0.3475
  580MOL0     C78196   3.462   8.360  -0.496 -1.1654  0.5917 -0.9133
  580MOL0     C78197   3.335   8.360  -0.553  0.1271  0.7540  0.1002
  580MOL0     C78198   3.301   8.322  -0.683  0.3249  0.2690 -0.8287
  580MOL0     C78199   3.407   8.291  -0.767  0.2540 -0.1776  1.1109
  580MOL0     O78200   3.360   8.286  -0.894  0.4903 -0.1085 -0.2802
  580MOL0     C78201   3.446   8.229  -1.003  0.1274  0.0169  0.0761
  580MOL0     C78202   3.390   8.301  -1.132  0.5250 -0.0994  0.0202
  580MOL0     C78203   3.468   8.422  -1.171 -1.0032  0.0886 -0.1958
  580MOL0     C78204   3.470   8.424  -1.324  0.9880 -0.1840  0.3908
  580MOL0     C78205   3.565   8.534  -1.385 -0.3945  0.2235  0.1083
  580MOL0     C78206   3.585   8.528  -1.542  0.7989 -0.1909  0.4051
  580MOL0     C78207   3.673   8.414  -1.585  0.3737 -0.2706  0.5037
  580MOL0     C78208   3.678   8.412  -1.740 -0.3845 -0.3983 -0.1958
  580MOL0    Cl78209   3.822   8.327  -1.780 -0.1454 -0.4147 -0.1600
  580MOL0     C78210   3.538   8.282  -0.719  0.7687  0.2671  0.5934
  580MOL0     C78211   3.558   8.301  -0.577 -0.2636  0.4207  0.5421
  580MOL0     O78212   3.621   8.267  -0.286 -0.6827  0.5730 -0.4924
  580MOL0     C78213   3.543   8.315  -0.020  0.0598 -0.5657 -0.0391
  580MOL0     C78214   3.519   8.363   0.111  0.0425 -0.2510 -0.1568
  580MOL0     N78215   3.550   8.314   0.750 -0.5321 -0.0309  0.6216
  580MOL0     N78216   3.488   8.225   0.813 -0.6807  0.4013  0.0032
  580MOL0     C78217   3.034   7.483   1.359 -0.2488 -0.4086 -0.6444
  580MOL0     C78218   3.076   7.365   1.429 -0.1310 -0.8332 -0.6848
  580MOL0     C78219   3.177   7.154   1.836 -0.0068 -1.6939  0.3167
  580MOL0     C78220   3.071   7.064   1.852 -0.5587 -0.3651 -2.3456
  580MOL0     C78221   3.056   7.002   1.981  0.3211 -0.4686  0.2993
  580MOL0     C78222   3.155   7.014   2.071  0.3860  0.1834  0.2706
  580MOL0     O78223   3.139   6.948   2.189  0.4172  0.0168 -0.6856
  580MOL0     C78224   3.238   6.845   2.220  0.3532 -1.1141 -0.0964
  580MOL0     C78225   3.213   6.720   2.145  1.0776  0.2140  0.4855
  580MOL0     C78226   3.285   6.602   2.208 -0.4585 -0.1293 -0.7846
  580MOL0     C78227   3.274   6.467   2.124  0.4500  0.4719  0.6937
  580MOL0     C78228   3.141   6.426   2.071 -0.4159  0.5332  0.4337
  580MOL0     C78229   3.032   6.400   2.020  0.1565 -1.5254 -1.2746
  580MOL0     C78230   3.257   7.107   2.055 -0.1174 -0.7478 -0.5972
  580MOL0     C78231   3.260   7.193   1.943 -0.9636 -0.0348 -0.3964
  580MOL0     C78232   3.377   7.293   1.939  0.6457 -0.0180  0.2191
  580MOL0     H78233   2.898   7.409   1.720  1.5960  3.6259  1.7242
  580MOL0     H78234   2.792   7.592   1.572 -1.3005 -1.5249 -1.6309
  580MOL0     H78235   2.695   7.682   1.372  1.4899 -0.5305  1.6837
  580MOL0     H78236   2.804   7.795   1.456 -0.4088 -0.5730  1.2406
  580MOL0     H78237   2.674   7.899   1.254  0.6110 -0.5328  1.6409
  580MOL0     H78238   2.777   7.804   1.147 -2.5474  2.2704 -1.2689
  580MOL0     H78239   2.971   7.927   1.317 -0.3822  3.5777  2.2478
  580MOL0     H78240   2.851   8.037   1.320  1.9253 -2.3099  3.6326
  580MOL0     H78241   2.988   7.908   1.071  2.3254  0.3705  0.8001
  580MOL0     H78242   2.844   8.026   1.059 -0.6555 -2.6050 -0.8144
  580MOL0     H78243   2.984   8.182   1.192  0.0844  1.0856 -0.7565
  580MOL0     H78244   3.120   8.079   1.171 -2.0974 -0.7037  4.7850
  580MOL0     H78245   3.034   8.091   0.900 -3.8889 -1.7018  0.0585
  580MOL0     H78246   2.931   8.214   0.959  1.5457  2.7983 -2.6282
  580MOL0     H78247   3.128   8.335   1.047 -3.7741 -0.2889 -1.2012
  580MOL0     H78248   3.106   8.323   0.859 -3.4289 -1.3294 -0.0497
  580MOL0     H78249   3.318   8.207   1.050  0.2641 -1.5929 -0.4404
  580MOL0     H78250   3.262   8.099   0.921  1.0817 -0.8054 -0.7710
  580MOL0     H78251   3.269   8.467   0.815  0.1406 -0.1671 -0.2742
  580MOL0     H78252   3.411   8.600   0.643  0.3599  0.7318 -1.4622
  580MOL0     H78253   3.557   8.611   0.737  0.9957 -2.8427  1.0793
  580MOL0     H78254   3.579   8.643   0.496 -1.4597  0.0388 -2.3805
  580MOL0     H78255   3.695   8.557   0.581 -0.7831 -2.9976  1.7109
  580MOL0     H78256   3.608   8.348   0.503  1.7641  0.4234  1.4933
  580MOL0     H78257   3.650   8.453   0.376  2.6111  3.8882  1.9266
  580MOL0     H78258   3.361   8.475   0.460 -1.0906  1.5038 -0.7583
  580MOL0     H78259   3.407   8.347   0.350 -2.5505  0.9387  1.5239
  580MOL0     H78260   3.440   8.686   0.026 -1.9278 -0.4482 -5.0777
  580MOL0     H78261   3.436   8.588  -0.189 -0.9161 -3.5788 -2.2504
  580MOL0     H78262   3.251   8.404  -0.499  1.4761  2.4365  0.9256
  580MOL0     H78263   3.198   8.319  -0.717 -0.9254 -0.6700  2.6024
  580MOL0     H78264   3.553   8.250  -1.007 -0.2136  2.0001  0.5895
  580MOL0     H78265   3.432   8.121  -1.013  1.4698 -0.0511 -1.5505
  580MOL0     H78266   3.391   8.225  -1.211  3.8280  0.7753 -0.9738
  580MOL0     H78267   3.289   8.336  -1.109  1.7649  2.7708  1.6769
  580MOL0     H78268   3.426   8.518  -1.142  0.6897  1.3468 -1.6589
  580MOL0     H78269   3.571   8.427  -1.133 -0.1220  1.1097 -2.4932
  580MOL0     H78270   3.368   8.441  -1.360  1.7437  1.2363 -1.2074
  580MOL0     H78271   3.508   8.328  -1.361 -0.0760 -1.0111  1.3826
  580MOL0     H78272   3.665   8.527  -1.343  0.5869  2.4273 -1.6144
  580MOL0     H78273   3.527   8.635  -1.363 -2.5360 -0.5169  0.1109
  580MOL0     H78274   3.487   8.518  -1.592  0.3727 -0.5898  1.3020
  580MOL0     H78275   3.622   8.625  -1.577 -0.0709 -0.3859 -1.1866
  580MOL0     H78276   3.629   8.328  -1.534 -0.1086  1.9350  4.0993
  580MOL0     H78277   3.777   8.437  -1.558  0.4850  0.6365 -0.6243
  580MOL0     H78278   3.585   8.375  -1.783 -2.4154  0.9724  2.7189
  580MOL0     H78279   3.697   8.513  -1.777  2.0729 -0.5032  0.5399
  580MOL0     H78280   3.607   8.231  -0.785  1.4347  0.3045  1.2517
  580MOL0     H78281   3.653   8.279  -0.529 -0.6292 -1.4316  0.4892
  580MOL0     H78282   3.571   8.212  -0.041 -1.7379 -1.2231  0.5915
  580MOL0     H78283   3.548   8.302   0.196 -3.5582  1.1787  2.3719
  580MOL0     H78284   3.093   7.510   1.272  3.0652  3.4390  2.4326
  580MOL0     H78285   3.152   7.303   1.383  0.5637 -0.5592  0.0750
  580MOL0     H78286   2.987   7.049   1.785 -2.7083 -1.3926  0.4061
  580MOL0     H78287   2.980   6.931   2.010  0.7914 -0.8377  0.6296
  580MOL0     H78288   3.208   6.817   2.321 -1.2454 -2.4752 -0.9084
  580MOL0     H78289   3.341   6.881   2.217  0.1028 -0.0372  2.1509
  580MOL0     H78290   3.243   6.721   2.040 -1.2812 -2.9205 -0.3404
  580MOL0     H78291   3.106   6.701   2.135  0.7661  2.4032 -1.1920
  580MOL0     H78292   3.236   6.579   2.303  1.6342 -0.2302  0.3373
  580MOL0     H78293   3.394   6.614   2.219 -0.0787 -3.0627 -0.4487
  580MOL0     H78294   3.343   6.476   2.040 -1.2696  1.5259 -0.6644
  580MOL0     H78295   3.318   6.392   2.191  2.3122  0.4539 -0.4683
  580MOL0     H78296   2.941   6.374   1.969 -0.4647 -0.9059 -0.5077
  580MOL0     H78297   3.331   7.110   2.134 -1.2567 -3.3816  0.6752
  580MOL0     H78298   3.345   7.382   1.883  0.6151 -1.5274 -2.3549
  580MOL0     H78299   3.426   7.312   2.035  3.5810 -0.3101 -1.0882
  580MOL0     H78300   3.446   7.245   1.868 -1.1540  1.5231 -2.7921
  581MOL0     O78301   4.809   5.644   3.557  0.0491 -0.0873 -1.1051
  581MOL0     C78302   4.893   5.560   3.581 -0.3772 -0.1605 -0.0287
  581MOL0     O78303   4.878   5.434   3.637 -0.1140 -0.4331 -0.3523
  581MOL0     C78304   4.763   5.412   3.696  0.7803 -0.2863  0.4639
  581MOL0     C78305   4.759   5.415   3.835  0.5414 -0.2585  0.2174
  581MOL0     C78306   4.636   5.412   3.908  0.4370 -0.2173 -0.3379
  581MOL0     C78307   4.512   5.400   3.828  0.5336  0.7559 -0.1318
  581MOL0     O78308   4.385   5.422   3.880 -0.0137  0.2496  0.3857
  581MOL0     C78309   4.374   5.517   3.980 -0.7352 -0.2295  0.3183
  581MOL0     C78310   4.351   5.659   3.931  0.6470 -0.5483 -0.3650
  581MOL0     C78311   4.478   5.736   3.908 -0.8568  0.6440  0.1492
  581MOL0     C78312   4.578   5.726   4.027  1.2750 -0.3716  0.6892
  581MOL0     C78313   4.687   5.837   4.032 -0.2166  0.1260 -0.8840
  581MOL0     C78314   4.806   5.818   3.943 -0.1132 -0.5150  0.3985
  581MOL0     C78315   4.903   5.934   3.940 -0.1176 -0.1091 -0.7580
  581MOL0     C78316   4.966   5.978   4.080 -0.1824 -0.0620 -0.0917
  581MOL0     N78317   5.042   6.097   4.047  0.1290  0.2968 -0.6618
  581MOL0     C78318   4.985   6.216   4.015  0.6819 -0.2334  0.3607
  581MOL0     C78319   5.085   6.297   3.991  0.0120 -0.2349 -0.5468
  581MOL0     C78320   5.064   6.442   3.945 -0.2883  0.3189  1.0361
  581MOL0     C78321   5.137   6.543   4.039 -0.0689  0.5362 -0.2496
  581MOL0     C78322   5.059   6.559   4.167 -0.2608  0.2827  1.2769
  581MOL0     C78323   5.127   6.652   4.284  1.0148  0.8958  0.0611
  581MOL0     O78324   5.094   6.792   4.273 -0.8175  0.2469 -0.4507
  581MOL0     C78325   4.973   6.825   4.342 -0.5507  0.2065  0.5371
  581MOL0     C78326   4.964   6.857   4.474  0.3001  0.2509 -0.0364
  581MOL0     C78327   4.838   6.901   4.524 -0.1913 -0.1524  0.8892
  581MOL0     C78328   4.724   6.903   4.442  0.6864  0.9967 -0.1116
  581MOL0     C78329   4.598   6.952   4.497  0.1931  0.2489 -0.8532
  581MOL0     O78330   4.593   7.035   4.608 -0.0711 -0.0234 -0.0743
  581MOL0     C78331   4.459   7.069   4.651  0.5390  0.3978 -0.8099
  581MOL0     C78332   4.386   7.155   4.570  0.3599 -0.2225  0.3070
  581MOL0     C78333   4.267   7.213   4.616 -0.6333  0.5008  0.2832
  581MOL0     C78334   4.208   7.170   4.736 -0.5270  0.4407  0.0103
  581MOL0     O78335   4.074   7.196   4.747 -0.1232 -0.4925  0.1642
  581MOL0     C78336   3.978   7.114   4.811  0.1679  0.4273 -0.5658
  581MOL0     C78337   3.949   6.974   4.748 -0.5203  0.0068 -0.2791
  581MOL0     C78338   3.962   6.973   4.593  0.2333 -0.2281 -0.0933
  581MOL0     C78339   3.862   7.079   4.528 -1.3141  0.1972  0.1373
  581MOL0     C78340   3.862   7.089   4.375 -0.3701  0.1059 -0.0075
  581MOL0     C78341   3.804   6.959   4.312  0.6892  0.2863 -0.2599
  581MOL0     C78342   3.781   6.969   4.157  0.2250 -0.8005 -0.0153
  581MOL0     C78343   3.697   6.857   4.118 -0.1275  0.0425  0.1835
  581MOL0    Cl78344   3.562   6.824   4.226 -0.7046  0.1082 -0.2527
  581MOL0     C78345   4.282   7.081   4.815 -0.9735  0.9940 -0.1019
  581MOL0     C78346   4.412   7.027   4.777  0.2349 -0.0064 -0.2403
  581MOL0     O78347   4.496   6.906   4.447 -0.2377  0.4524  0.1915
  581MOL0     C78348   4.735   6.862   4.308 -0.8052  0.2020 -0.7216
  581MOL0     C78349   4.857   6.831   4.265  0.7732  0.2068 -0.3091
  581MOL0     N78350   5.205   6.230   4.013 -0.1330 -1.0346 -0.1354
  581MOL0     N78351   5.177   6.103   4.042 -0.9697 -0.2742 -1.5742
  581MOL0     C78352   4.521   5.396   3.685 -0.1257  0.0926 -0.4699
  581MOL0     C78353   4.644   5.403   3.622 -0.6453 -0.4805 -0.1540
  581MOL0     C78354   5.027   5.613   3.567 -0.7745  0.8454  0.4033
  581MOL0     C78355   5.131   5.556   3.650  0.8234 -0.4528  0.0993
  581MOL0     C78356   5.257   5.611   3.673 -0.0134 -1.2282  0.1333
  581MOL0     C78357   5.288   5.725   3.594  0.4091  0.8557 -0.4657
  581MOL0     O78358   5.411   5.786   3.623  0.5105 -0.8245 -0.3694
  581MOL0     C78359   5.521   5.735   3.555  1.1577  0.4354 -0.4256
  581MOL0     C78360   5.503   5.770   3.406  0.1110  0.2905 -0.7039
  581MOL0     C78361   5.630   5.744   3.319  0.0661 -0.3447  0.0766
  581MOL0     C78362   5.611   5.645   3.199  0.0960  0.2454  0.3307
  581MOL0     C78363   5.525   5.679   3.079  0.1494  0.3981 -0.9772
  581MOL0     C78364   5.454   5.669   2.985  0.8860 -0.1488 -0.1216
  581MOL0     C78365   5.196   5.773   3.494  0.1551  0.8416  0.4404
  581MOL0     C78366   5.062   5.724   3.481 -0.5967  0.5061 -1.0958
  581MOL0     C78367   4.978   5.787   3.378  0.2139 -0.4680  0.2082
  581MOL0     H78368   4.852   5.421   3.892 -0.0633  1.5822  1.0814
  581MOL0     H78369   4.648   5.419   4.016  1.9789  3.2075 -0.5931
  581MOL0     H78370   4.287   5.482   4.036 -0.0755 -2.4453  0.0507
  581MOL0     H78371   4.460   5.522   4.047  1.3834  1.5919 -2.2787
  581MOL0     H78372   4.301   5.712   4.013 -0.6604 -1.1353 -0.7533
  581MOL0     H78373   4.275   5.683   3.855 -0.6021  1.2923  1.3578
  581MOL0     H78374   4.456   5.843   3.906 -0.0220  0.8458  0.9906
  581MOL0     H78375   4.533   5.703   3.819  0.1855  2.6894 -0.0119
  581MOL0     H78376   4.522   5.745   4.120  0.6005  2.5450 -0.2084
  581MOL0     H78377   4.625   5.627   4.030 -1.5990 -1.8552  1.0604
  581MOL0     H78378   4.646   5.937   4.014  0.5248  0.0984 -2.9818
  581MOL0     H78379   4.724   5.824   4.135  0.0824  2.8166 -0.5590
  581MOL0     H78380   4.874   5.735   3.964  3.2338  1.9952  0.1636
  581MOL0     H78381   4.773   5.829   3.839 -0.1052  1.3335  0.5603
  581MOL0     H78382   4.838   6.013   3.901 -2.9023 -1.8971 -0.0098
  581MOL0     H78383   4.986   5.915   3.872  0.8483  0.8317  0.1163
  581MOL0     H78384   4.892   6.013   4.153  0.0522 -0.9010  0.5695
  581MOL0     H78385   5.025   5.899   4.128 -1.5272 -0.7046  0.5633
  581MOL0     H78386   4.878   6.235   4.018  0.9737  1.9327 -0.7802
  581MOL0     H78387   5.093   6.453   3.840 -3.3644  1.1159  0.1925
  581MOL0     H78388   4.959   6.468   3.931  0.4462  1.5289 -3.6522
  581MOL0     H78389   5.235   6.504   4.068 -0.9057  0.5021  2.8466
  581MOL0     H78390   5.145   6.639   3.987  0.2040  0.2096 -0.8171
  581MOL0     H78391   5.056   6.457   4.204  3.8842 -0.4226  0.1577
  581MOL0     H78392   4.960   6.602   4.151 -0.0682  0.3332  0.1652
  581MOL0     H78393   5.232   6.624   4.291  0.3317 -1.8056  0.7618
  581MOL0     H78394   5.078   6.617   4.375 -0.0290  2.7027  0.2487
  581MOL0     H78395   5.050   6.871   4.539  0.1723  3.7933 -0.4254
  581MOL0     H78396   4.840   6.938   4.626  1.2650 -2.3598  1.7368
  581MOL0     H78397   4.435   7.191   4.480  0.5512  1.0857  0.9184
  581MOL0     H78398   4.228   7.293   4.553  0.7558  0.6500 -0.4282
  581MOL0     H78399   4.010   7.095   4.914 -2.5272 -0.7476  0.1523
  581MOL0     H78400   3.891   7.179   4.819 -1.6639 -2.1237  3.0200
  581MOL0     H78401   4.014   6.895   4.787 -0.7643 -0.8728 -1.5888
  581MOL0     H78402   3.850   6.940   4.780  0.6162 -1.8691  1.4649
  581MOL0     H78403   4.061   7.007   4.561  0.4079  0.9625  1.5788
  581MOL0     H78404   3.952   6.871   4.556  2.7527 -0.2655 -0.8951
  581MOL0     H78405   3.882   7.180   4.565  1.7740 -0.4625  0.5453
  581MOL0     H78406   3.758   7.059   4.556 -1.3218  0.5027  0.3355
  581MOL0     H78407   3.967   7.105   4.350 -0.4296  1.9737  0.7461
  581MOL0     H78408   3.814   7.184   4.349  1.9604  1.7254  1.2613
  581MOL0     H78409   3.864   6.870   4.337  0.4285  0.2591  0.2825
  581MOL0     H78410   3.707   6.949   4.362  0.3794 -1.4725 -1.1203
  581MOL0     H78411   3.873   6.978   4.098  0.9583 -0.0755  1.1858
  581MOL0     H78412   3.731   7.064   4.135 -0.2479 -1.0575 -0.0412
  581MOL0     H78413   3.666   6.883   4.016 -0.0125  0.3341  0.2223
  581MOL0     H78414   3.759   6.770   4.097  3.5812  2.6647 -0.6025
  581MOL0     H78415   4.231   7.049   4.905 -0.4630 -0.1341 -0.1908
  581MOL0     H78416   4.481   6.952   4.814  4.1786  0.5242 -5.3259
  581MOL0     H78417   4.654   6.854   4.236 -2.2473  2.9992  0.4525
  581MOL0     H78418   4.870   6.802   4.161  3.7154 -0.7019  0.2059
  581MOL0     H78419   4.426   5.399   3.634 -1.7027 -0.8619  2.2003
  581MOL0     H78420   4.644   5.437   3.519 -3.0954  4.4887  1.1748
  581MOL0     H78421   5.093   5.472   3.707 -1.2138  0.3827  0.0482
  581MOL0     H78422   5.325   5.573   3.748 -0.7719 -0.3267  1.3221
  581MOL0     H78423   5.511   5.628   3.573  1.6159  0.1594 -1.7398
  581MOL0     H78424   5.614   5.769   3.600 -0.3462  2.7102  1.1994
  581MOL0     H78425   5.476   5.876   3.411  1.7287  0.6837  0.7316
  581MOL0     H78426   5.413   5.719   3.369 -2.4075  2.1150  2.3715
  581MOL0     H78427   5.713   5.715   3.384  0.9474  0.3032 -0.7273
  581MOL0     H78428   5.646   5.842   3.273  0.2781 -0.6585 -0.5349
  581MOL0     H78429   5.712   5.627   3.161  2.1654  4.3701  3.0346
  581MOL0     H78430   5.586   5.557   3.259  2.7462 -1.7594 -1.2892
  581MOL0     H78431   5.370   5.655   2.920 -1.5060 -0.5459  2.8385
  581MOL0     H78432   5.216   5.870   3.450 -1.2051  1.3700  0.9424
  581MOL0     H78433   4.884   5.826   3.420  0.5037 -1.8805  2.3172
  581MOL0     H78434   5.018   5.870   3.320 -1.2941  1.3425  1.6203
  581MOL0     H78435   4.944   5.700   3.321  1.1419 -0.5035 -0.3148
  582MOL0     O78436   2.244   0.030  10.715  0.3320  0.3413  0.4379
  582MOL0     C78437   2.309   0.132  10.691  0.9199 -0.1488 -0.3365
  582MOL0     O78438   2.307   0.251  10.770 -0.5100  0.2870 -0.1912
  582MOL0     C78439   2.254   0.237  10.899  0.0150  0.5093  1.1156
  582MOL0     C78440   2.303   0.132  10.988  0.5173 -0.5764 -0.4651
  582MOL0     C78441   2.249   0.129  11.121 -0.2297 -0.9291  0.1489
  582MOL0     C78442   2.159   0.232  11.164  0.0677  1.0283 -0.3836
  582MOL0     O78443   2.101   0.246  11.290  0.4071 -0.2083  0.4186
  582MOL0     C78444   2.156   0.178  11.398 -0.5199  0.9485 -0.0883
  582MOL0     C78445   2.089   0.214  11.528  0.1016 -0.9044 -0.4060
  582MOL0     C78446   1.962   0.158  11.548 -0.1343  0.9552  0.1060
  582MOL0     C78447   1.890   0.191  11.685 -1.3655 -0.1653  0.6050
  582MOL0     C78448   1.764   0.110  11.697  0.0683  0.0602 -0.5823
  582MOL0     C78449   1.685   0.163  11.816 -0.7204 -0.0905 -0.4759
  582MOL0     C78450   1.778   0.173  11.944 -0.4598 -0.3686  0.0466
  582MOL0     C78451   1.693   0.147  12.070  0.2924 -0.6730 -0.1889
  582MOL0     N78452   1.754   0.169  12.201 -1.1373 -0.5998 -0.3007
  582MOL0     C78453   1.871   0.240  12.217  0.2358  0.2914 -0.3428
  582MOL0     C78454   1.901   0.223  12.342 -0.0399  1.6219 -0.1074
  582MOL0     C78455   2.026   0.273  12.400  0.4388  0.0610 -0.4903
  582MOL0     C78456   2.078   0.165  12.492  0.1309 -0.6485 -0.0959
  582MOL0     C78457   2.202   0.212  12.547 -0.3979  1.0917  0.2471
  582MOL0     C78458   2.282   0.091  12.612  0.1386 -0.6503 -0.1112
  582MOL0     O78459   2.410   0.143  12.651 -0.9406  0.8853 -0.3893
  582MOL0     C78460   2.516   0.100  12.570  0.1207 -0.2427 -0.8962
  582MOL0     C78461   2.543   0.170  12.456 -0.4891  0.7073  1.1033
  582MOL0     C78462   2.659   0.148  12.379  0.7507 -0.4460  0.7620
  582MOL0     C78463   2.740   0.041  12.414  0.4685  0.2737  0.4628
  582MOL0     C78464   2.855   0.014  12.325 -0.0541  0.0418 -0.5113
  582MOL0     O78465   2.886  -0.113  12.336  0.1045 -0.1144  0.0735
  582MOL0     C78466   2.979  -0.167  12.253 -0.0297  0.5010  0.0344
  582MOL0     C78467   2.985  -0.138  12.115 -0.3606  0.5431 -0.7827
  582MOL0     C78468   3.072  -0.209  12.030  1.2386  0.5348 -0.2438
  582MOL0     C78469   3.152  -0.311  12.082 -0.2452 -0.2857  0.1659
  582MOL0     O78470   3.233  -0.388  12.011  0.3684  0.4623  0.6439
  582MOL0     C78471   3.254  -0.388  11.865  0.4732  0.4891  0.6327
  582MOL0     C78472   3.356  -0.277  11.833 -0.0272  0.8304 -0.4963
  582MOL0     C78473   3.333  -0.237  11.683 -0.1388 -0.1077 -0.4606
  582MOL0     C78474   3.434  -0.141  11.644 -0.7294 -0.6829  0.3305
  582MOL0     C78475   3.362  -0.044  11.539 -0.5312 -0.0844 -0.4571
  582MOL0     C78476   3.425   0.085  11.513 -0.5638  0.1659 -0.0206
  582MOL0     C78477   3.356   0.162  11.399  0.4390  0.4325 -1.0444
  582MOL0     C78478   3.429   0.298  11.365 -0.9078  0.4931 -0.1859
  582MOL0    Cl78479   3.412   0.408  11.508  0.3181 -0.5192  0.2585
  582MOL0     C78480   3.159  -0.324  12.216 -0.8101  0.7928 -0.5480
  582MOL0     C78481   3.072  -0.260  12.310  0.0079 -0.7348  0.8580
  582MOL0     O78482   2.899   0.106  12.255  0.0585  0.0625 -0.7837
  582MOL0     C78483   2.707  -0.038  12.526  0.3917  0.8513 -0.2748
  582MOL0     C78484   2.604   0.004  12.610  0.2366  1.0423  0.5570
  582MOL0     N78485   1.798   0.149  12.406 -0.0571 -0.7795  0.0962
  582MOL0     N78486   1.722   0.105  12.318  0.9013  0.8805 -0.1534
  582MOL0     C78487   2.129   0.334  11.072  0.1300  1.3224 -0.0978
  582MOL0     C78488   2.167   0.342  10.944  0.1905  0.5356  0.5943
  582MOL0     C78489   2.387   0.142  10.562  0.0668  0.0762  0.1299
  582MOL0     C78490   2.473   0.250  10.548 -0.0217  0.2860  1.0439
  582MOL0     C78491   2.556   0.263  10.429 -0.1675 -0.5999  0.2123
  582MOL0     C78492   2.530   0.177  10.323 -0.0247  0.5664 -0.0373
  582MOL0     O78493   2.580   0.203  10.206  0.0722  0.8921 -0.3243
  582MOL0     C78494   2.709   0.145  10.194  0.0729  1.6766 -0.4877
  582MOL0     C78495   2.779   0.189  10.063  0.4217 -0.2479 -0.4520
  582MOL0     C78496   2.877   0.080  10.010  0.9871 -0.0484  0.4440
  582MOL0     C78497   2.823  -0.003   9.890  0.5244  0.1052 -0.0116
  582MOL0     C78498   2.694  -0.068   9.922 -0.1424 -0.0498 -0.4774
  582MOL0     C78499   2.587  -0.136   9.946  0.1424 -0.1812 -0.2872
  582MOL0     C78500   2.450   0.063  10.340  0.2298 -0.6516 -0.2637
  582MOL0     C78501   2.380   0.036  10.461 -1.2600  0.0239  0.9196
  582MOL0     C78502   2.308  -0.094  10.473 -0.3827  0.9104 -0.1516
  582MOL0     H78503   2.390   0.069  10.976  0.7211 -0.3074 -0.3986
  582MOL0     H78504   2.287   0.058  11.194 -0.3473 -0.6716  0.4640
  582MOL0     H78505   2.151   0.068  11.395 -0.7116  0.9652 -2.1911
  582MOL0     H78506   2.260   0.206  11.418 -1.2741  2.7258  1.6041
  582MOL0     H78507   2.091   0.323  11.525 -0.4916 -0.8851 -0.1575
  582MOL0     H78508   2.154   0.168  11.604 -0.1320  1.3194  1.2321
  582MOL0     H78509   1.963   0.049  11.544 -1.1845  0.9596 -3.7222
  582MOL0     H78510   1.893   0.183  11.467 -2.8949  1.7452  2.5047
  582MOL0     H78511   1.957   0.176  11.770  0.6381  0.4448 -0.7900
  582MOL0     H78512   1.853   0.294  11.676 -1.2030 -0.2787 -2.0309
  582MOL0     H78513   1.703   0.122  11.607 -1.8710 -1.3773  0.4591
  582MOL0     H78514   1.782   0.002  11.705 -0.7509  0.0445  2.0065
  582MOL0     H78515   1.657   0.265  11.788  0.2765  0.7881  1.4523
  582MOL0     H78516   1.595   0.104  11.834 -0.6053 -1.1555 -3.0190
  582MOL0     H78517   1.821   0.274  11.952 -2.3227  0.3301  2.3996
  582MOL0     H78518   1.866   0.108  11.940  2.0082  2.6620  1.0432
  582MOL0     H78519   1.596   0.198  12.068 -0.5579 -2.1675 -2.9916
  582MOL0     H78520   1.666   0.042  12.057 -0.5562 -0.7006  1.5016
  582MOL0     H78521   1.929   0.288  12.139  0.5228 -1.7534 -1.4413
  582MOL0     H78522   2.106   0.293  12.328 -0.4274 -1.2057 -1.8757
  582MOL0     H78523   2.005   0.358  12.466 -3.2447 -2.3519  1.8405
  582MOL0     H78524   2.014   0.131  12.574  1.0302  1.3443  1.5316
  582MOL0     H78525   2.103   0.082  12.425 -2.0497 -1.5553  0.1303
  582MOL0     H78526   2.182   0.297  12.613 -0.4321  0.5696  0.9174
  582MOL0     H78527   2.269   0.261  12.475 -0.9281  1.7246  0.1790
  582MOL0     H78528   2.297   0.014  12.537  1.0224  1.1973 -1.9240
  582MOL0     H78529   2.222   0.051  12.695 -3.5016  2.3620 -1.0207
  582MOL0     H78530   2.486   0.257  12.426  0.0554 -0.3296 -3.6956
  582MOL0     H78531   2.673   0.201  12.286 -1.4278 -1.1446 -0.0258
  582MOL0     H78532   2.919  -0.067  12.066  1.5305  0.9568 -2.8816
  582MOL0     H78533   3.062  -0.196  11.923  1.1833 -2.7746 -0.7474
  582MOL0     H78534   3.298  -0.481  11.829 -1.4679  0.5821 -2.3402
  582MOL0     H78535   3.161  -0.369  11.810 -0.3695  0.0138  1.8417
  582MOL0     H78536   3.335  -0.196  11.904 -0.0323  1.1678 -0.8787
  582MOL0     H78537   3.458  -0.315  11.842  0.9148  2.4497 -3.2383
  582MOL0     H78538   3.334  -0.320  11.612 -0.4421 -1.4148  1.0143
  582MOL0     H78539   3.233  -0.192  11.682  0.3067  0.9354  0.1202
  582MOL0     H78540   3.518  -0.192  11.598 -1.1034 -0.4728 -0.6031
  582MOL0     H78541   3.468  -0.070  11.721  0.7169  1.1065 -1.8251
  582MOL0     H78542   3.259  -0.015  11.561 -1.2161 -1.3979 -1.7306
  582MOL0     H78543   3.341  -0.096  11.445 -1.8045 -1.5631  0.5878
  582MOL0     H78544   3.431   0.155  11.598  0.8782  1.5504 -1.2035
  582MOL0     H78545   3.531   0.071  11.492 -0.2221 -2.1478  2.7127
  582MOL0     H78546   3.254   0.189  11.428 -0.6370 -4.3943  0.6940
  582MOL0     H78547   3.346   0.095  11.314  1.4658 -1.0590 -0.0468
  582MOL0     H78548   3.528   0.279  11.322 -0.1742  0.5157  1.4247
  582MOL0     H78549   3.372   0.333  11.279 -1.1381  2.0240  0.5628
  582MOL0     H78550   3.242  -0.390  12.242  0.0051 -0.3081 -5.1211
  582MOL0     H78551   3.076  -0.276  12.417  0.9127  2.8369  1.4799
  582MOL0     H78552   2.775  -0.117  12.558 -0.0794  0.1440 -0.9697
  582MOL0     H78553   2.574  -0.045  12.702 -1.5266 -1.3325 -1.1619
  582MOL0     H78554   2.069   0.418  11.106  0.1323  1.1435  0.3579
  582MOL0     H78555   2.136   0.425  10.881 -2.6765 -0.2203  0.9108
  582MOL0     H78556   2.478   0.325  10.626  0.1577  0.4080  0.9159
  582MOL0     H78557   2.624   0.348  10.425 -2.0587  1.0062  0.4685
  582MOL0     H78558   2.697   0.036  10.186 -3.2926  1.7098  2.1147
  582MOL0     H78559   2.783   0.175  10.268  0.5536  0.3065 -0.3766
  582MOL0     H78560   2.823   0.282  10.099  1.0328 -0.4314 -0.6992
  582MOL0     H78561   2.718   0.224   9.980  2.0544  0.0961 -1.5521
  582MOL0     H78562   2.915   0.010  10.085  2.2127 -0.7601 -0.7953
  582MOL0     H78563   2.962   0.138   9.973 -0.0807  0.8526 -0.6929
  582MOL0     H78564   2.795   0.066   9.810 -4.7809 -0.4338  1.0312
  582MOL0     H78565   2.897  -0.080   9.867 -0.6135 -1.0120 -0.0252
  582MOL0     H78566   2.501  -0.200   9.949 -1.2157  1.4985 -0.9266
  582MOL0     H78567   2.432  -0.009  10.261 -3.0667 -0.8678  0.5759
  582MOL0     H78568   2.316  -0.149  10.568  3.7075  1.2453 -0.1296
  582MOL0     H78569   2.204  -0.063  10.466 -0.4711  0.4307 -1.1529
  582MOL0     H78570   2.340  -0.173  10.405 -2.2802 -1.5253  1.6184
  583MOL0     O78571   3.847  10.631   7.638  0.1927  0.1187  0.1478
  583MOL0     C78572   3.880  10.634   7.518 -0.3668  0.2284  0.3508
  583MOL0     O78573   3.811  10.566   7.420  0.0353  0.6356  0.4457
  583MOL0     C78574   3.674  10.549   7.432  0.1798  0.3417 -0.2703
  583MOL0     C78575   3.594  10.645   7.362 -0.2169  0.1910  0.5061
  583MOL0     C78576   3.456  10.638   7.377 -0.1372 -0.2612 -0.3273
  583MOL0     C78577   3.397  10.539   7.452 -0.4877 -0.3529 -0.6044
  583MOL0     O78578   3.259  10.547   7.462  0.8197 -1.9153 -0.1584
  583MOL0     C78579   3.200  10.527   7.599 -0.1819 -0.1718  1.1086
  583MOL0     C78580   3.193  10.650   7.682 -0.2593 -0.0370 -0.3471
  583MOL0     C78581   3.099  10.765   7.626 -0.2882  0.1209  0.4703
  583MOL0     C78582   3.074  10.864   7.732  0.5290 -0.0107  0.0565
  583MOL0     C78583   3.009  10.981   7.661 -0.3642  0.3428  0.0471
  583MOL0     C78584   2.999  11.109   7.747  0.7862  0.6392 -0.4509
  583MOL0     C78585   2.972  11.232   7.655  0.0984  0.7866  0.1637
  583MOL0     C78586   2.835  11.262   7.584 -0.6697  0.3823 -1.3584
  583MOL0     N78587   2.768  11.392   7.608 -0.4894 -0.0240  0.2898
  583MOL0     C78588   2.664  11.452   7.532 -0.3395  0.1825 -0.1426
  583MOL0     C78589   2.630  11.561   7.605  0.4945 -0.1728 -0.7159
  583MOL0     C78590   2.511  11.639   7.558 -0.1314  0.3754  0.0629
  583MOL0     C78591   2.380  11.586   7.604 -0.1591  0.3107  0.4220
  583MOL0     C78592   2.279  11.703   7.586  0.4266  0.4805  0.0190
  583MOL0     C78593   2.134  11.647   7.586 -0.0219  0.1352  0.2931
  583MOL0     O78594   2.040  11.755   7.560  0.0814 -0.2827 -0.7068
  583MOL0     C78595   1.907  11.724   7.555 -0.2178 -1.1437 -0.2616
  583MOL0     C78596   1.844  11.827   7.484 -0.5572  0.4590 -0.1751
  583MOL0     C78597   1.709  11.811   7.452 -0.5662  0.5491  0.1121
  583MOL0     C78598   1.630  11.711   7.505  0.0402  0.2702  0.0477
  583MOL0     C78599   1.495  11.692   7.476  0.2974 -0.4240 -0.2430
  583MOL0     O78600   1.422  11.603   7.547  1.0024  0.4901 -0.4556
  583MOL0     C78601   1.290  11.611   7.572  0.0488  0.7059  0.4187
  583MOL0     C78602   1.223  11.512   7.649 -0.0316 -0.5040 -0.0476
  583MOL0     C78603   1.085  11.513   7.686  1.0916  0.4953 -1.0346
  583MOL0     C78604   1.002  11.617   7.635  0.1939 -0.1400 -0.0584
  583MOL0     O78605   0.862  11.633   7.654  0.0709  0.4485 -0.8774
  583MOL0     C78606   0.784  11.514   7.691  0.2045 -0.3265  0.1048
  583MOL0     C78607   0.657  11.545   7.774 -0.7730  0.3411 -0.5892
  583MOL0     C78608   0.691  11.588   7.916 -0.5860  0.8165 -0.0436
  583MOL0     C78609   0.575  11.660   7.964  0.4297 -0.3416 -1.3434
  583MOL0     C78610   0.608  11.763   8.071 -0.0075 -0.2388  0.0118
  583MOL0     C78611   0.499  11.858   8.111  0.3244  0.3118  0.5206
  583MOL0     C78612   0.539  11.936   8.233  0.3239 -1.2313 -0.9349
  583MOL0     C78613   0.433  12.045   8.245  0.2923 -0.7939 -0.3049
  583MOL0    Cl78614   0.270  11.988   8.276  0.5581 -0.0341  0.4529
  583MOL0     C78615   1.059  11.707   7.546 -0.0261  0.4886  0.1439
  583MOL0     C78616   1.190  11.705   7.519 -0.8547  1.1739  0.4366
  583MOL0     O78617   1.453  11.750   7.372  0.2058  0.1553  0.5459
  583MOL0     C78618   1.698  11.609   7.580 -0.2586 -0.5707  0.2496
  583MOL0     C78619   1.833  11.615   7.603 -0.2684 -0.3847 -0.6999
  583MOL0     N78620   2.703  11.559   7.725 -0.6523  0.3675 -0.9050
  583MOL0     N78621   2.779  11.463   7.721  0.2309  0.2657 -0.1612
  583MOL0     C78622   3.474  10.448   7.523  0.2549  0.1738  0.1874
  583MOL0     C78623   3.613  10.461   7.526  0.6018 -0.0153  0.1736
  583MOL0     C78624   4.007  10.693   7.481 -0.9967  0.2620 -0.1593
  583MOL0     C78625   4.118  10.620   7.526  0.8397 -0.0230  0.1381
  583MOL0     C78626   4.246  10.673   7.495 -0.1570  0.4882  0.3457
  583MOL0     C78627   4.263  10.776   7.410  0.1517 -0.6811 -0.7026
  583MOL0     O78628   4.388  10.818   7.372 -0.2540  0.0033  0.3284
  583MOL0     C78629   4.437  10.945   7.428  0.5558  0.7538  0.6068
  583MOL0     C78630   4.442  10.943   7.581 -0.0148  0.7170  0.3513
  583MOL0     C78631   4.570  10.881   7.636 -0.7550  0.7458 -0.2439
  583MOL0     C78632   4.572  10.844   7.779  0.0424 -0.0356  1.5755
  583MOL0     C78633   4.526  10.957   7.849 -0.3551 -0.7553 -0.2177
  583MOL0     C78634   4.501  11.044   7.927  0.2803 -0.4036 -0.7527
  583MOL0     C78635   4.148  10.843   7.367 -0.0079  1.0595  0.2981
  583MOL0     C78636   4.015  10.808   7.396  0.3297  0.3326  0.4600
  583MOL0     C78637   3.894  10.891   7.359  1.1949 -0.2890 -0.8038
  583MOL0     H78638   3.651  10.721   7.309 -1.7456 -0.9788 -3.1317
  583MOL0     H78639   3.391  10.701   7.316 -0.3283  0.6274  0.7634
  583MOL0     H78640   3.096  10.500   7.578  0.6346 -0.6013 -3.3398
  583MOL0     H78641   3.254  10.455   7.662  0.6513 -0.1721  0.4160
  583MOL0     H78642   3.294  10.687   7.702 -1.3509  1.7991  2.4768
  583MOL0     H78643   3.154  10.614   7.778 -2.6493 -1.2304 -1.6785
  583MOL0     H78644   3.004  10.722   7.590 -1.0617 -0.4265  2.9911
  583MOL0     H78645   3.146  10.801   7.534 -3.0539 -2.5834 -2.2417
  583MOL0     H78646   2.998  10.839   7.807  0.1386 -0.2932 -0.4281
  583MOL0     H78647   3.167  10.896   7.780  0.4375  1.1628 -0.5210
  583MOL0     H78648   3.070  11.013   7.576  0.8770 -3.3769 -0.6842
  583MOL0     H78649   2.912  10.948   7.622  1.0295 -2.7610 -1.0933
  583MOL0     H78650   2.920  11.091   7.821  0.0293  1.0551 -1.1338
  583MOL0     H78651   3.094  11.122   7.800  0.8114  0.9161 -0.5589
  583MOL0     H78652   3.045  11.238   7.573  0.5752 -2.4086  0.2048
  583MOL0     H78653   2.995  11.313   7.724 -1.2177 -0.2812  1.9270
  583MOL0     H78654   2.845  11.246   7.476 -0.9241  0.4786 -1.3983
  583MOL0     H78655   2.762  11.189   7.621  2.3899 -1.8112  0.7679
  583MOL0     H78656   2.618  11.418   7.440  0.7661 -0.0440 -0.6333
  583MOL0     H78657   2.518  11.736   7.608 -0.4070  0.8036 -0.7121
  583MOL0     H78658   2.499  11.658   7.451 -3.3223 -2.3439 -0.1882
  583MOL0     H78659   2.356  11.494   7.549 -0.5253  0.9529 -0.5058
  583MOL0     H78660   2.382  11.561   7.711 -1.3636 -0.3623  0.2959
  583MOL0     H78661   2.302  11.762   7.497 -3.2070  0.0098 -1.4059
  583MOL0     H78662   2.282  11.771   7.672 -2.8351  0.1120  0.5326
  583MOL0     H78663   2.114  11.594   7.680  1.9108 -3.1388 -0.9653
  583MOL0     H78664   2.130  11.571   7.507  4.0462  1.5987 -1.5825
  583MOL0     H78665   1.908  11.901   7.437  0.6080 -1.2401 -1.3551
  583MOL0     H78666   1.676  11.887   7.382  0.0841 -1.0897 -2.0878
  583MOL0     H78667   1.289  11.435   7.687  2.6801  1.1998 -0.9939
  583MOL0     H78668   1.047  11.445   7.761 -1.7361 -0.3799 -3.0895
  583MOL0     H78669   0.754  11.463   7.600 -0.2358 -1.2211  0.7426
  583MOL0     H78670   0.837  11.442   7.754 -2.8596 -1.0656  2.0382
  583MOL0     H78671   0.602  11.616   7.711 -0.2062  1.0189 -0.3347
  583MOL0     H78672   0.595  11.458   7.797 -0.4643  0.2365 -0.1444
  583MOL0     H78673   0.700  11.503   7.984  0.3725  3.4846  3.4598
  583MOL0     H78674   0.783  11.646   7.920 -0.2772  0.2655  1.4181
  583MOL0     H78675   0.499  11.594   8.005 -1.2286  2.0835 -0.2370
  583MOL0     H78676   0.527  11.710   7.879  0.2101 -1.6115 -1.9811
  583MOL0     H78677   0.693  11.822   8.035 -0.7327  1.7391  1.3914
  583MOL0     H78678   0.634  11.702   8.157 -0.7686  1.8497  1.8099
  583MOL0     H78679   0.470  11.933   8.037 -1.6685  1.9491  2.7883
  583MOL0     H78680   0.409  11.803   8.142 -0.7744  2.5377  1.5633
  583MOL0     H78681   0.638  11.983   8.233 -0.5969  1.3302  3.9093
  583MOL0     H78682   0.533  11.873   8.323  3.4958 -1.7928 -0.9947
  583MOL0     H78683   0.457  12.137   8.299 -3.6537  0.8013 -0.9174
  583MOL0     H78684   0.420  12.088   8.146 -1.3233 -1.9819 -0.6553
  583MOL0     H78685   0.998  11.781   7.494 -2.7775 -1.8070 -0.1553
  583MOL0     H78686   1.233  11.780   7.454 -0.9964  0.3514 -0.6334
  583MOL0     H78687   1.647  11.518   7.610 -1.6891 -0.0521 -0.4886
  583MOL0     H78688   1.873  11.534   7.663  0.0947  0.7680  0.6699
  583MOL0     H78689   3.427  10.373   7.585 -3.7447  0.1814 -2.4759
  583MOL0     H78690   3.671  10.390   7.585  1.8336  0.0096 -0.9661
  583MOL0     H78691   4.099  10.535   7.590  0.2359  1.1417  1.5624
  583MOL0     H78692   4.334  10.632   7.543 -0.6054  3.5518  4.2924
  583MOL0     H78693   4.364  11.018   7.392 -1.2211 -0.3575  1.8003
  583MOL0     H78694   4.539  10.964   7.394  0.7613  2.0094  1.8048
  583MOL0     H78695   4.359  10.896   7.634  0.7466  1.1578  2.0262
  583MOL0     H78696   4.454  11.046   7.617  0.3194  0.2208  1.7314
  583MOL0     H78697   4.651  10.951   7.610 -0.2910  0.0893 -0.6112
  583MOL0     H78698   4.599  10.794   7.576  2.2629 -0.8939  3.1700
  583MOL0     H78699   4.497  10.767   7.803 -0.9261 -0.5417 -2.4721
  583MOL0     H78700   4.674  10.823   7.814  0.6893  1.9493  0.9706
  583MOL0     H78701   4.473  11.119   7.998  0.3562 -1.0725 -0.0100
  583MOL0     H78702   4.160  10.916   7.288  1.2818 -0.4283 -0.9334
  583MOL0     H78703   3.915  10.990   7.318 -2.0247  0.7221 -0.2930
  583MOL0     H78704   3.838  10.850   7.274  1.7618 -1.3649 -0.6723
  583MOL0     H78705   3.832  10.908   7.447 -1.2976 -0.3558 -2.4231
  584MOL0     O78706   3.942   0.246   2.155  0.1378  0.6736  0.4902
  584MOL0     C78707   3.905   0.355   2.193 -1.1533  0.3671  0.0233
  584MOL0     O78708   3.790   0.386   2.260  0.9218  0.4237 -0.8648
  584MOL0     C78709   3.720   0.291   2.330 -0.1459 -0.9269 -0.1153
  584MOL0     C78710   3.767   0.161   2.361  0.1096 -0.3157 -0.0773
  584MOL0     C78711   3.686   0.086   2.442  0.1969 -0.1314  0.2092
  584MOL0     C78712   3.560   0.113   2.483  0.2753 -0.1429 -0.4348
  584MOL0     O78713   3.511   0.014   2.563 -0.7739  0.5285  0.0201
  584MOL0     C78714   3.375  -0.011   2.553 -0.7038  0.9685  0.9223
  584MOL0     C78715   3.325  -0.109   2.665  0.0213 -0.6112  0.5882
  584MOL0     C78716   3.173  -0.111   2.659 -0.4077  0.1607  0.0782
  584MOL0     C78717   3.117  -0.223   2.745  0.0619 -0.0757  0.2642
  584MOL0     C78718   3.015  -0.306   2.674  0.3832 -0.1517  0.3693
  584MOL0     C78719   2.942  -0.403   2.765  0.2559 -0.0550 -1.0135
  584MOL0     C78720   2.845  -0.495   2.698 -0.4919 -0.7316  0.6370
  584MOL0     C78721   2.906  -0.631   2.650  0.0080 -0.3325 -0.5866
  584MOL0     N78722   2.846  -0.755   2.695  0.9429 -0.3209 -0.3885
  584MOL0     C78723   2.847  -0.802   2.821  0.0008 -0.0718 -1.2366
  584MOL0     C78724   2.798  -0.927   2.820 -0.2925  0.0746 -0.4368
  584MOL0     C78725   2.790  -1.003   2.943 -0.2856  0.5698  0.1508
  584MOL0     C78726   2.716  -1.137   2.935 -0.4316  1.0942  0.1583
  584MOL0     C78727   2.757  -1.236   3.047  0.7131 -0.1231  0.0595
  584MOL0     C78728   2.700  -1.374   3.019 -0.2536 -0.3111 -0.0473
  584MOL0     O78729   2.701  -1.465   3.132 -0.0317  0.2604 -0.4068
  584MOL0     C78730   2.605  -1.568   3.136 -1.5863  0.1875 -0.5566
  584MOL0     C78731   2.560  -1.628   3.021 -1.0466 -0.1700 -0.4969
  584MOL0     C78732   2.479  -1.744   3.031  0.0359 -0.7875 -0.1646
  584MOL0     C78733   2.436  -1.795   3.159  0.5875 -1.0777  0.3523
  584MOL0     C78734   2.371  -1.921   3.165  0.8326 -0.4650 -0.1427
  584MOL0     O78735   2.318  -1.962   3.046  0.5889 -0.5159 -0.8017
  584MOL0     C78736   2.283  -2.095   3.034  0.4373  0.4518 -0.1092
  584MOL0     C78737   2.330  -2.168   2.923  0.0971  0.1209  0.8747
  584MOL0     C78738   2.275  -2.295   2.902 -0.8966 -0.4638  0.8977
  584MOL0     C78739   2.175  -2.349   2.978 -0.5362 -0.3471  0.0649
  584MOL0     O78740   2.135  -2.471   2.933 -1.4477 -0.6094  0.0394
  584MOL0     C78741   2.063  -2.545   3.030  0.2426 -0.3656  0.1358
  584MOL0     C78742   2.045  -2.688   2.986 -0.4080 -0.1482 -0.4143
  584MOL0     C78743   1.963  -2.689   2.861  0.7933 -0.1870  0.0213
  584MOL0     C78744   1.901  -2.821   2.852  0.1510 -0.6764  0.5099
  584MOL0     C78745   1.827  -2.864   2.719 -0.3955 -0.6411  0.1146
  584MOL0     C78746   1.706  -2.783   2.707  0.2914 -0.3241 -0.1649
  584MOL0     C78747   1.625  -2.834   2.588 -0.2205 -0.1561 -0.6791
  584MOL0     C78748   1.524  -2.732   2.541  0.1752  0.0502  0.1084
  584MOL0    Cl78749   1.408  -2.835   2.441 -0.0760 -0.1076 -0.1338
  584MOL0     C78750   2.134  -2.287   3.095  0.6297 -0.5019 -0.8249
  584MOL0     C78751   2.185  -2.159   3.118  0.3045 -0.0381  0.1094
  584MOL0     O78752   2.373  -1.993   3.263 -0.6630  0.4096  0.3291
  584MOL0     C78753   2.475  -1.722   3.272  0.6583 -0.2697  0.0259
  584MOL0     C78754   2.562  -1.615   3.259 -0.7829  0.1372 -0.9523
  584MOL0     N78755   2.747  -0.959   2.701  0.2341  0.1419 -0.0386
  584MOL0     N78756   2.783  -0.856   2.616 -0.3981  0.4220 -0.7803
  584MOL0     C78757   3.518   0.246   2.448 -0.9125  0.0791 -1.1285
  584MOL0     C78758   3.593   0.325   2.367 -0.3634 -0.0761  0.1841
  584MOL0     C78759   3.995   0.475   2.167  0.4592  0.3334  0.0485
  584MOL0     C78760   3.942   0.600   2.167 -0.9123 -0.2292 -0.4092
  584MOL0     C78761   4.017   0.715   2.141  0.2903  1.2448  0.4077
  584MOL0     C78762   4.151   0.703   2.117  0.0774 -0.2260  0.2564
  584MOL0     O78763   4.232   0.812   2.092  0.5464 -0.0272  0.1713
  584MOL0     C78764   4.194   0.887   1.979  0.0624  0.1821 -0.0187
  584MOL0     C78765   4.314   0.966   1.911  0.0250 -0.1912  0.4996
  584MOL0     C78766   4.444   0.886   1.882  0.4667  0.1866 -0.8110
  584MOL0     C78767   4.441   0.802   1.755  0.4159 -0.0288 -0.0753
  584MOL0     C78768   4.345   0.692   1.762  0.5921  0.1034 -0.0542
  584MOL0     C78769   4.262   0.607   1.768 -0.4819  0.1346  0.6743
  584MOL0     C78770   4.206   0.582   2.140 -0.0306 -0.3129  0.7191
  584MOL0     C78771   4.135   0.466   2.149  1.2886  0.4841 -0.4132
  584MOL0     C78772   4.206   0.335   2.145 -0.5718  1.3720  0.9451
  584MOL0     H78773   3.866   0.133   2.325 -0.1154 -1.6150  0.2584
  584MOL0     H78774   3.724  -0.014   2.463  2.1156  0.2036 -1.3702
  584MOL0     H78775   3.321   0.084   2.554  2.1337  2.7145  0.5847
  584MOL0     H78776   3.357  -0.055   2.454  2.2115  1.1167  0.2345
  584MOL0     H78777   3.335  -0.058   2.762 -3.7371  0.9193  0.3645
  584MOL0     H78778   3.374  -0.207   2.661 -1.6538 -1.7342  3.6811
  584MOL0     H78779   3.156  -0.130   2.552 -2.3513  2.7260 -0.1610
  584MOL0     H78780   3.131  -0.015   2.688  0.5749  0.9344 -0.9730
  584MOL0     H78781   3.193  -0.298   2.771  1.3728 -0.0861 -3.1321
  584MOL0     H78782   3.078  -0.177   2.836 -3.1630 -1.9958  0.0057
  584MOL0     H78783   2.931  -0.245   2.639 -0.2677  0.3816  2.6964
  584MOL0     H78784   3.063  -0.368   2.597  1.1366  0.0318  0.6759
  584MOL0     H78785   3.009  -0.461   2.829 -3.4414 -1.4531  1.9979
  584MOL0     H78786   2.866  -0.351   2.825  0.4313 -1.2940  0.3295
  584MOL0     H78787   2.795  -0.447   2.613 -1.6540  1.6320  2.5180
  584MOL0     H78788   2.756  -0.521   2.755 -1.3062  2.2609  0.8960
  584MOL0     H78789   2.924  -0.627   2.542 -0.5965  4.2369 -0.7215
  584MOL0     H78790   3.007  -0.644   2.690  0.5252 -3.3843 -2.5444
  584MOL0     H78791   2.890  -0.762   2.912 -2.6406 -1.5407  0.8032
  584MOL0     H78792   2.892  -1.017   2.980 -0.2098 -1.8630 -0.7814
  584MOL0     H78793   2.746  -0.949   3.027  1.2697 -1.6159  2.5237
  584MOL0     H78794   2.607  -1.124   2.929 -0.6023 -0.7337 -2.8232
  584MOL0     H78795   2.744  -1.185   2.841  0.2076  0.9210  0.4325
  584MOL0     H78796   2.717  -1.200   3.143 -0.5148 -3.2566  0.8606
  584MOL0     H78797   2.865  -1.246   3.060  1.1319  3.4448  0.1922
  584MOL0     H78798   2.760  -1.419   2.940  1.7781 -0.8392  1.6976
  584MOL0     H78799   2.599  -1.358   2.980  0.5188  2.9483 -0.9867
  584MOL0     H78800   2.585  -1.597   2.920  3.0827  0.0237  0.4197
  584MOL0     H78801   2.464  -1.792   2.935  2.3566 -0.8209 -0.5638
  584MOL0     H78802   2.408  -2.116   2.869  1.7838 -1.3255  1.7886
  584MOL0     H78803   2.309  -2.351   2.815  2.6946  2.3564  0.2297
  584MOL0     H78804   2.121  -2.553   3.123 -1.4792 -1.3297  1.1977
  584MOL0     H78805   1.970  -2.491   3.053  1.4544  3.9658 -3.5877
  584MOL0     H78806   2.142  -2.736   2.974  0.8352  2.1085  0.0041
  584MOL0     H78807   1.992  -2.741   3.065 -2.5852  1.4858 -0.6985
  584MOL0     H78808   1.878  -2.620   2.860 -1.4397 -2.7552  0.6871
  584MOL0     H78809   2.027  -2.664   2.775  3.0726 -0.6842  1.4966
  584MOL0     H78810   1.830  -2.824   2.935 -1.8851 -0.7893 -1.1400
  584MOL0     H78811   1.972  -2.903   2.864 -0.4991 -1.4492 -0.7305
  584MOL0     H78812   1.808  -2.971   2.732 -0.3360 -0.9672 -2.1310
  584MOL0     H78813   1.888  -2.863   2.628  0.0849  2.2884  0.3739
  584MOL0     H78814   1.656  -2.811   2.801  1.8211 -0.3508  0.6688
  584MOL0     H78815   1.718  -2.674   2.701 -2.8580  0.4952  3.8102
  584MOL0     H78816   1.589  -2.934   2.611 -1.1005 -0.0059 -1.3294
  584MOL0     H78817   1.692  -2.856   2.504  2.3087 -0.5122  1.2974
  584MOL0     H78818   1.467  -2.683   2.620 -1.1983  3.9773 -2.9856
  584MOL0     H78819   1.582  -2.656   2.488  3.9022  0.2792  3.9033
  584MOL0     H78820   2.048  -2.317   3.154  0.0119  2.2216 -0.2034
  584MOL0     H78821   2.141  -2.111   3.205 -0.8432 -0.1097 -0.4136
  584MOL0     H78822   2.463  -1.763   3.372  0.4936  3.0429  1.5149
  584MOL0     H78823   2.598  -1.592   3.359 -2.2251 -2.6940  0.3256
  584MOL0     H78824   3.427   0.282   2.493 -0.7014 -0.6523 -0.0650
  584MOL0     H78825   3.553   0.425   2.355  1.1107  1.0853  3.6249
  584MOL0     H78826   3.838   0.604   2.201 -0.7477 -3.6939  0.9808
  584MOL0     H78827   3.975   0.815   2.145 -0.4689  0.9694 -0.3378
  584MOL0     H78828   4.122   0.967   1.996 -1.2149 -0.5610 -1.6518
  584MOL0     H78829   4.142   0.831   1.901  0.1997  2.0954 -1.5547
  584MOL0     H78830   4.336   1.042   1.986 -1.6732  0.2838  0.5386
  584MOL0     H78831   4.275   1.008   1.818  1.8924 -1.9714 -1.2048
  584MOL0     H78832   4.470   0.826   1.969  1.8118 -0.3891 -1.5627
  584MOL0     H78833   4.516   0.966   1.863 -1.0935  1.2076 -2.8130
  584MOL0     H78834   4.420   0.862   1.666 -0.0226 -4.2526 -3.1103
  584MOL0     H78835   4.540   0.757   1.741  0.2685 -0.2853 -0.3109
  584MOL0     H78836   4.217   0.510   1.769 -0.5392  0.1341 -0.4591
  584MOL0     H78837   4.314   0.578   2.137 -0.0020  0.8888 -1.0321
  584MOL0     H78838   4.171   0.278   2.058  4.6524 -0.3499 -0.3843
  584MOL0     H78839   4.314   0.337   2.127 -0.5699 -3.5407 -1.1358
  584MOL0     H78840   4.186   0.276   2.236  2.4549 -3.8410 -1.3103
  585MOL0     O78841   9.018   4.761   3.395  0.3263  1.0556  0.2574
  585MOL0     C78842   8.998   4.875   3.394  0.1773 -0.3403  0.6189
  585MOL0     O78843   8.914   4.941   3.313  0.5104 -0.9892 -0.1473
  585MOL0     C78844   8.862   4.878   3.203 -0.0186 -0.0729 -0.6089
  585MOL0     C78845   8.918   4.773   3.130 -0.1144 -0.3044 -0.3278
  585MOL0     C78846   8.847   4.721   3.027  0.5487 -0.1589  0.7633
  585MOL0     C78847   8.719   4.772   2.989 -0.2095  0.0342  0.0289
  585MOL0     O78848   8.632   4.720   2.899  0.5630 -0.1036 -0.2112
  585MOL0     C78849   8.664   4.615   2.809 -0.3515 -1.2633 -0.2931
  585MOL0     C78850   8.525   4.574   2.748 -1.4179  0.1273 -0.3874
  585MOL0     C78851   8.538   4.558   2.597 -0.2785  0.6794  0.1062
  585MOL0     C78852   8.412   4.483   2.549  0.3531 -0.6061 -0.4572
  585MOL0     C78853   8.380   4.531   2.406  0.2612  0.5523  0.2329
  585MOL0     C78854   8.447   4.450   2.297  0.2421  0.0440  0.0094
  585MOL0     C78855   8.401   4.299   2.288 -0.0286  0.3621  0.1077
  585MOL0     C78856   8.412   4.243   2.148 -0.4839  0.1793  0.5226
  585MOL0     N78857   8.388   4.097   2.150 -0.1172 -0.1180  0.5866
  585MOL0     C78858   8.273   4.040   2.103 -0.0765 -0.2968 -0.0320
  585MOL0     C78859   8.296   3.902   2.101 -0.0317  0.2561 -0.0030
  585MOL0     C78860   8.181   3.804   2.093 -0.8468  0.6412  0.2607
  585MOL0     C78861   8.106   3.781   2.227  0.6100  0.1962 -0.7264
  585MOL0     C78862   8.002   3.660   2.217  1.0426  1.0593 -0.1615
  585MOL0     C78863   7.917   3.651   2.343  0.7401 -0.9222 -0.2708
  585MOL0     O78864   7.978   3.563   2.437 -0.5350 -0.1783  0.2722
  585MOL0     C78865   7.926   3.596   2.566 -0.6272 -0.4637  0.2499
  585MOL0     C78866   8.019   3.558   2.671  0.9702 -0.1120 -0.4471
  585MOL0     C78867   7.964   3.566   2.794  0.4454 -0.1559 -0.0276
  585MOL0     C78868   7.833   3.598   2.828 -0.2289  0.0770  0.1156
  585MOL0     C78869   7.787   3.589   2.965  0.7777 -0.9032 -0.6752
  585MOL0     O78870   7.843   3.491   3.041  1.2491 -0.2793  0.1462
  585MOL0     C78871   7.788   3.477   3.162  0.2484  0.2990 -0.1056
  585MOL0     C78872   7.701   3.371   3.185 -0.0775  0.6107 -0.0588
  585MOL0     C78873   7.634   3.350   3.311 -0.2489 -0.4104  0.0856
  585MOL0     C78874   7.669   3.441   3.415  0.2966 -0.7321 -0.6518
  585MOL0     O78875   7.617   3.411   3.534  0.9076 -0.4628  0.5302
  585MOL0     C78876   7.669   3.467   3.656 -0.7792 -0.4772  0.0585
  585MOL0     C78877   7.592   3.424   3.785  0.3737 -1.5566  0.0894
  585MOL0     C78878   7.454   3.490   3.790  0.1458 -0.0701  0.0752
  585MOL0     C78879   7.359   3.506   3.677  0.3134  0.1755  0.2108
  585MOL0     C78880   7.244   3.404   3.687 -0.4081  1.1638 -0.1715
  585MOL0     C78881   7.138   3.456   3.781  0.4928 -0.1222  0.4232
  585MOL0     C78882   7.011   3.377   3.770  0.4479  0.1440 -0.0192
  585MOL0     C78883   7.001   3.246   3.861  0.9326  0.0967  0.2392
  585MOL0    Cl78884   7.122   3.117   3.819 -0.1742  0.4846  0.3500
  585MOL0     C78885   7.759   3.546   3.393  0.4930  0.3814  0.3801
  585MOL0     C78886   7.810   3.567   3.270  0.8730  0.2439 -0.3267
  585MOL0     O78887   7.693   3.662   3.005  0.4632  0.0953  0.3991
  585MOL0     C78888   7.745   3.639   2.723  0.2023  0.5909  0.2652
  585MOL0     C78889   7.798   3.629   2.591  1.0001 -0.1629  0.5147
  585MOL0     N78890   8.433   3.881   2.120 -1.9369 -0.3529 -0.2029
  585MOL0     N78891   8.488   4.004   2.155  0.5865  0.0926 -0.3166
  585MOL0     C78892   8.666   4.883   3.054 -0.2994 -0.0606 -0.9178
  585MOL0     C78893   8.746   4.937   3.163  0.9850 -0.3229 -0.4528
  585MOL0     C78894   9.066   4.960   3.494 -0.4942  0.0979 -0.4789
  585MOL0     C78895   9.051   5.100   3.497  0.3254 -0.0627  0.7408
  585MOL0     C78896   9.113   5.179   3.586  0.2972  0.6897 -0.0626
  585MOL0     C78897   9.211   5.128   3.670 -0.4170  0.7851 -0.4730
  585MOL0     O78898   9.297   5.182   3.761  0.9395 -0.4415 -0.6241
  585MOL0     C78899   9.271   5.308   3.806 -0.6044  0.3747 -0.2719
  585MOL0     C78900   9.164   5.308   3.911 -0.0742 -0.2683  0.9083
  585MOL0     C78901   9.159   5.423   4.009 -0.8258  0.1682  0.6969
  585MOL0     C78902   9.030   5.430   4.092 -0.5761  0.5291 -0.0884
  585MOL0     C78903   9.019   5.310   4.185 -0.9515 -0.9747  0.6018
  585MOL0     C78904   9.004   5.223   4.273 -0.0261  0.6747 -0.0065
  585MOL0     C78905   9.207   4.990   3.687 -0.1565 -0.9766  0.8687
  585MOL0     C78906   9.151   4.902   3.591 -0.4103 -1.4874 -0.3971
  585MOL0     C78907   9.184   4.756   3.607 -0.8361 -0.1738  0.0420
  585MOL0     H78908   9.012   4.725   3.157 -0.5249  1.0970  4.4897
  585MOL0     H78909   8.901   4.642   2.975  0.6934 -0.1548  0.9072
  585MOL0     H78910   8.726   4.663   2.732  1.1593 -4.4429 -1.2338
  585MOL0     H78911   8.701   4.520   2.850 -0.0501 -1.2712 -0.5802
  585MOL0     H78912   8.451   4.650   2.774  0.1227  1.4107  0.4036
  585MOL0     H78913   8.502   4.479   2.797  1.6946  0.4146  1.8883
  585MOL0     H78914   8.632   4.504   2.579 -0.1609  1.5332 -2.1556
  585MOL0     H78915   8.544   4.658   2.555  0.4347 -0.1558 -1.9131
  585MOL0     H78916   8.424   4.375   2.557  0.5093 -0.4481  3.9347
  585MOL0     H78917   8.329   4.502   2.617 -0.5445  0.7737 -1.8864
  585MOL0     H78918   8.272   4.525   2.393 -0.0476 -1.4040  2.9641
  585MOL0     H78919   8.412   4.635   2.394  2.5381  0.1896  2.3681
  585MOL0     H78920   8.419   4.496   2.202 -1.6263  1.0520  0.9974
  585MOL0     H78921   8.556   4.461   2.300  0.5246  0.5978 -4.4070
  585MOL0     H78922   8.297   4.290   2.320 -0.1243 -2.7366 -0.7530
  585MOL0     H78923   8.454   4.229   2.353  3.5930 -0.4310 -3.3260
  585MOL0     H78924   8.335   4.291   2.086 -0.4471  1.2099  1.2584
  585MOL0     H78925   8.505   4.271   2.097 -0.3820  1.0826  1.1799
  585MOL0     H78926   8.186   4.094   2.069  0.7276  1.4530  0.6003
  585MOL0     H78927   8.113   3.811   2.007  0.3487 -0.8568 -0.8673
  585MOL0     H78928   8.238   3.716   2.062  4.0841  4.0504 -1.5832
  585MOL0     H78929   8.172   3.756   2.310 -0.5788 -0.4732  0.0346
  585MOL0     H78930   8.066   3.882   2.243 -2.8561 -1.0489 -0.8262
  585MOL0     H78931   8.055   3.567   2.194 -1.8772 -0.4162 -1.3412
  585MOL0     H78932   7.949   3.679   2.124 -0.1004 -3.4844 -0.6385
  585MOL0     H78933   7.815   3.612   2.340 -2.2614  5.1673  2.9398
  585MOL0     H78934   7.909   3.756   2.373  1.1947 -0.8284 -0.4624
  585MOL0     H78935   8.115   3.513   2.653  0.9504  0.1868 -1.3470
  585MOL0     H78936   8.026   3.545   2.881  1.3558  3.8044  0.4877
  585MOL0     H78937   7.671   3.304   3.105  0.2662 -0.8710  1.0067
  585MOL0     H78938   7.550   3.285   3.330 -2.1278  2.4374  2.4448
  585MOL0     H78939   7.776   3.449   3.666 -0.3852  1.3309 -0.5182
  585MOL0     H78940   7.665   3.576   3.645 -1.2955 -0.5655 -0.7951
  585MOL0     H78941   7.581   3.316   3.773  1.1964 -1.7081  0.5874
  585MOL0     H78942   7.645   3.454   3.877 -0.9929  2.0767 -0.1375
  585MOL0     H78943   7.402   3.445   3.875 -2.6253  0.0248 -1.4616
  585MOL0     H78944   7.458   3.591   3.833  1.9037 -0.2890  0.4945
  585MOL0     H78945   7.401   3.498   3.576 -0.4280  3.8175 -0.5266
  585MOL0     H78946   7.325   3.610   3.670 -1.3772 -0.2455  1.3978
  585MOL0     H78947   7.280   3.311   3.732  0.6781  2.1448  1.0863
  585MOL0     H78948   7.199   3.379   3.591 -1.3286  2.6672 -0.1687
  585MOL0     H78949   7.175   3.444   3.883 -0.9569 -0.9897  0.8846
  585MOL0     H78950   7.105   3.559   3.765  1.4586  0.4131  1.6681
  585MOL0     H78951   6.997   3.337   3.668 -0.7500 -1.6329  0.7857
  585MOL0     H78952   6.928   3.448   3.783  2.1514  1.5696  4.9872
  585MOL0     H78953   7.047   3.283   3.953  0.3747  1.7343 -0.0966
  585MOL0     H78954   6.898   3.211   3.867  0.1695  2.4185  3.4285
  585MOL0     H78955   7.802   3.604   3.474  0.4596  1.7729 -0.5747
  585MOL0     H78956   7.867   3.657   3.248 -0.2906  0.9153 -0.6712
  585MOL0     H78957   7.646   3.667   2.758  0.6860 -2.2351  4.6306
  585MOL0     H78958   7.723   3.653   2.516 -0.2238  1.5706  2.1644
  585MOL0     H78959   8.562   4.914   3.051 -1.4493 -3.0097  2.4221
  585MOL0     H78960   8.699   5.007   3.232 -5.1243 -3.0740 -1.2493
  585MOL0     H78961   8.978   5.148   3.432  1.7900  1.2393 -0.0022
  585MOL0     H78962   9.091   5.286   3.588  1.1353  0.8665  0.2516
  585MOL0     H78963   9.233   5.367   3.721  1.9880  0.0880 -1.7349
  585MOL0     H78964   9.368   5.341   3.843 -0.1125 -1.2711 -0.0486
  585MOL0     H78965   9.174   5.222   3.978 -0.5955 -0.7202  0.4148
  585MOL0     H78966   9.065   5.294   3.867  1.6513  0.0480 -3.6974
  585MOL0     H78967   9.164   5.513   3.947 -1.0515  1.1586  2.0624
  585MOL0     H78968   9.248   5.420   4.073 -2.2181 -0.5709  2.6877
  585MOL0     H78969   9.021   5.527   4.140 -0.2304 -0.5491  2.3093
  585MOL0     H78970   8.945   5.426   4.024 -1.7425 -2.2685  1.3698
  585MOL0     H78971   8.979   5.138   4.332  0.1961  0.9032  0.4173
  585MOL0     H78972   9.261   4.944   3.769  2.4054  0.9960  0.4518
  585MOL0     H78973   9.227   4.722   3.513 -1.1789  0.0649 -0.2039
  585MOL0     H78974   9.254   4.749   3.691  0.1409 -1.0020 -0.8194
  585MOL0     H78975   9.101   4.684   3.620  0.6262 -1.7749  0.9623
  586MOL0     O78976   7.412   6.847   1.020  0.8226  0.2078 -0.0209
  586MOL0     C78977   7.474   6.897   1.118 -0.0209  0.5386  0.3740
  586MOL0     O78978   7.511   6.823   1.227 -0.4836  0.5419 -0.1043
  586MOL0     C78979   7.468   6.691   1.241 -1.2569  0.8540 -0.1525
  586MOL0     C78980   7.333   6.670   1.257 -0.2953 -0.2009  0.3173
  586MOL0     C78981   7.288   6.539   1.264 -0.8775  0.0258 -0.1434
  586MOL0     C78982   7.384   6.431   1.295  0.9330  0.3701  0.0244
  586MOL0     O78983   7.344   6.303   1.331 -0.9408 -0.1908  0.2520
  586MOL0     C78984   7.244   6.237   1.268  0.7326  0.3412 -0.4045
  586MOL0     C78985   7.136   6.209   1.359  0.5349  0.5018 -0.1945
  586MOL0     C78986   7.016   6.296   1.316  0.0992 -0.3481  0.0637
  586MOL0     C78987   6.886   6.278   1.393  0.5439  1.0719 -0.1685
  586MOL0     C78988   6.838   6.122   1.414 -0.3275  1.8098  0.4455
  586MOL0     C78989   6.804   6.041   1.288  0.2677  0.2487  0.8921
  586MOL0     C78990   6.796   5.892   1.326  0.0626 -0.3688 -0.1036
  586MOL0     C78991   6.677   5.842   1.414  0.5853  0.2568  0.6480
  586MOL0     N78992   6.541   5.888   1.384  0.0777 -0.0060 -0.0134
  586MOL0     C78993   6.491   5.941   1.261 -0.1846 -0.2490  0.3109
  586MOL0     C78994   6.364   5.963   1.299 -0.5631  0.4073 -0.8363
  586MOL0     C78995   6.251   6.012   1.208 -0.4221 -0.4270  0.3491
  586MOL0     C78996   6.236   5.907   1.090 -1.4307  0.1529  0.2901
  586MOL0     C78997   6.111   5.952   0.996  0.5892 -0.7146 -0.9808
  586MOL0     C78998   6.085   5.845   0.891  0.4365  0.2945 -0.4503
  586MOL0     O78999   6.169   5.864   0.775 -0.7280 -0.2383 -0.0470
  586MOL0     C79000   6.098   5.832   0.666 -0.3783  0.4938  0.0119
  586MOL0     C79001   6.015   5.725   0.655  0.4385  0.6567 -0.0846
  586MOL0     C79002   5.945   5.706   0.532  0.2251 -1.0725 -0.3175
  586MOL0     C79003   5.969   5.784   0.421  0.6640 -0.2779  0.1456
  586MOL0     C79004   5.897   5.728   0.303  0.3167  0.2106 -0.8675
  586MOL0     O79005   5.775   5.680   0.332  0.7885 -0.5102 -0.0217
  586MOL0     C79006   5.698   5.580   0.265 -0.1579 -0.1169 -0.5267
  586MOL0     C79007   5.569   5.568   0.315  0.5790 -0.0809  1.0405
  586MOL0     C79008   5.480   5.477   0.268  0.3564 -0.0913 -0.3839
  586MOL0     C79009   5.519   5.378   0.169  0.2759  0.8037 -0.3995
  586MOL0     O79010   5.444   5.274   0.111  0.7313 -0.5620  0.4232
  586MOL0     C79011   5.311   5.279   0.160  0.1401  0.3674 -0.5883
  586MOL0     C79012   5.225   5.191   0.066 -0.4265  0.2131 -0.2979
  586MOL0     C79013   5.081   5.185   0.134 -0.1941 -0.4613 -0.1841
  586MOL0     C79014   5.006   5.100   0.023  0.3893 -0.1188 -0.8297
  586MOL0     C79015   4.859   5.117   0.036  0.5748  0.1171 -0.6674
  586MOL0     C79016   4.789   5.039  -0.071  0.1496  2.0975 -0.5614
  586MOL0     C79017   4.781   4.886  -0.038  0.2344 -0.0642 -0.9137
  586MOL0     C79018   4.707   4.815  -0.157  0.3895 -0.1680 -0.1614
  586MOL0    Cl79019   4.757   4.643  -0.167  0.5044  0.0275 -0.5050
  586MOL0     C79020   5.649   5.394   0.126 -0.1947  0.7549 -0.5088
  586MOL0     C79021   5.742   5.485   0.169  0.2201  0.1054 -0.9242
  586MOL0     O79022   5.945   5.733   0.190 -0.0325 -0.4621  0.4672
  586MOL0     C79023   6.054   5.892   0.423  0.3198 -0.5587  0.2849
  586MOL0     C79024   6.111   5.918   0.551  0.3140  1.2650  0.6646
  586MOL0     N79025   6.343   5.907   1.427 -0.7359 -0.3693  0.3344
  586MOL0     N79026   6.455   5.875   1.486  0.1487 -0.4019 -0.2022
  586MOL0     C79027   7.523   6.455   1.302  0.3596 -0.5834  0.8650
  586MOL0     C79028   7.563   6.584   1.271 -0.0301 -0.2388  0.0554
  586MOL0     C79029   7.520   7.038   1.116  0.2649 -0.9209  0.6529
  586MOL0     C79030   7.587   7.079   1.004  0.7760 -0.2513  0.5533
  586MOL0     C79031   7.643   7.206   0.998 -0.3173 -0.8060 -0.6349
  586MOL0     C79032   7.645   7.284   1.116 -0.6204  0.9352 -0.2688
  586MOL0     O79033   7.682   7.414   1.134  0.2254 -0.2720  0.6465
  586MOL0     C79034   7.740   7.485   1.017  0.3541 -0.0122 -0.6791
  586MOL0     C79035   7.791   7.628   1.044  0.1928  0.6857 -0.2124
  586MOL0     C79036   7.694   7.722   1.095  0.2151  0.2357  0.1766
  586MOL0     C79037   7.751   7.849   1.161  0.8819 -0.1169 -0.5658
  586MOL0     C79038   7.838   7.918   1.066 -0.3486 -0.3059  0.5616
  586MOL0     C79039   7.904   7.966   0.980  0.0830 -0.6925 -0.1024
  586MOL0     C79040   7.589   7.236   1.236 -0.0390  0.6411  0.2333
  586MOL0     C79041   7.528   7.116   1.235  1.0488 -0.1933 -0.3790
  586MOL0     C79042   7.464   7.077   1.370  0.0932  0.7391 -0.1639
  586MOL0     H79043   7.271   6.759   1.251  2.1110  1.5033 -1.4850
  586MOL0     H79044   7.182   6.519   1.253 -0.9597  0.1783  0.3454
  586MOL0     H79045   7.212   6.288   1.176 -0.2107  0.4465 -0.0301
  586MOL0     H79046   7.278   6.148   1.214 -2.9097  0.2722 -2.9576
  586MOL0     H79047   7.164   6.233   1.462 -1.6402 -1.6607  1.0138
  586MOL0     H79048   7.102   6.105   1.352 -3.1416  1.2745  2.6990
  586MOL0     H79049   6.999   6.277   1.210  1.7684  0.8217 -0.4601
  586MOL0     H79050   7.037   6.402   1.334 -2.4479  0.3673 -0.8311
  586MOL0     H79051   6.889   6.324   1.492 -3.6073  0.0859  0.6000
  586MOL0     H79052   6.813   6.316   1.322 -1.4366  0.8420  1.6508
  586MOL0     H79053   6.922   6.065   1.453  0.7439  3.8114  1.2081
  586MOL0     H79054   6.748   6.111   1.475 -1.6549 -1.3910 -1.8040
  586MOL0     H79055   6.709   6.082   1.253 -0.2931 -0.0167  2.0572
  586MOL0     H79056   6.881   6.059   1.212 -2.0847  1.2586 -1.4281
  586MOL0     H79057   6.878   5.855   1.388  0.1570  0.7297  0.4575
  586MOL0     H79058   6.798   5.831   1.235  4.0350  1.0076 -1.1165
  586MOL0     H79059   6.683   5.733   1.403  2.0266  0.2725  0.9630
  586MOL0     H79060   6.697   5.876   1.516  0.2106  2.1727  0.1144
  586MOL0     H79061   6.540   5.964   1.168  2.8077 -0.5838  1.7015
  586MOL0     H79062   6.154   6.023   1.257 -0.1654 -0.5739  0.8995
  586MOL0     H79063   6.286   6.107   1.166 -0.5940  0.6189  2.4701
  586MOL0     H79064   6.330   5.890   1.036 -0.4355 -0.5782  2.1576
  586MOL0     H79065   6.240   5.807   1.134  1.5959 -0.3318 -0.8828
  586MOL0     H79066   6.137   6.043   0.940  1.4925  1.5489  2.7532
  586MOL0     H79067   6.014   5.966   1.043  0.7657  2.7764 -1.3819
  586MOL0     H79068   5.978   5.849   0.870  0.0652  0.2300  1.2883
  586MOL0     H79069   6.101   5.741   0.924  2.1089  0.3524 -0.9666
  586MOL0     H79070   6.009   5.643   0.726 -3.1680 -0.0117 -0.9131
  586MOL0     H79071   5.887   5.615   0.525  0.0949 -0.9104 -1.5064
  586MOL0     H79072   5.544   5.647   0.385 -0.6286 -0.5223  1.1288
  586MOL0     H79073   5.380   5.478   0.310  2.1683  0.4134  4.6079
  586MOL0     H79074   5.306   5.246   0.264 -3.0551 -0.0508 -0.7507
  586MOL0     H79075   5.268   5.379   0.156  0.2990  0.4999  0.6092
  586MOL0     H79076   5.234   5.234  -0.034  0.9558 -0.8042 -0.6509
  586MOL0     H79077   5.275   5.093   0.069  0.7051  0.8013  2.1500
  586MOL0     H79078   5.075   5.136   0.232 -1.6187  0.3764  0.1696
  586MOL0     H79079   5.034   5.283   0.136  0.6494 -0.0532  0.5089
  586MOL0     H79080   5.032   4.993   0.025  2.1104  0.2215  3.0741
  586MOL0     H79081   5.026   5.140  -0.077  2.5226 -0.2807 -0.5063
  586MOL0     H79082   4.832   5.223   0.033 -1.4926 -0.1727  2.5707
  586MOL0     H79083   4.825   5.096   0.138 -0.1036 -2.3985 -1.3459
  586MOL0     H79084   4.682   5.063  -0.080 -1.1339 -1.8401  1.4661
  586MOL0     H79085   4.845   5.042  -0.164  1.1108  0.4303 -0.0815
  586MOL0     H79086   4.728   4.873   0.057 -3.9794  0.0693 -2.9990
  586MOL0     H79087   4.880   4.842  -0.025  0.4451  1.1699  2.7355
  586MOL0     H79088   4.603   4.817  -0.123  0.4542  0.6624  0.0266
  586MOL0     H79089   4.730   4.870  -0.249  0.4343  1.0681  0.5548
  586MOL0     H79090   5.684   5.314   0.062 -0.0040  1.6217 -1.5270
  586MOL0     H79091   5.845   5.483   0.133  0.2712  1.4710 -0.8954
  586MOL0     H79092   6.063   5.964   0.343 -4.0747 -2.4340 -2.2591
  586MOL0     H79093   6.171   6.008   0.560  0.0689  1.3084  2.1931
  586MOL0     H79094   7.590   6.373   1.320  3.1682  1.2714 -0.5004
  586MOL0     H79095   7.667   6.615   1.275 -1.0376  3.6451  0.1252
  586MOL0     H79096   7.591   7.013   0.919 -1.5284 -2.5431  2.0712
  586MOL0     H79097   7.686   7.239   0.904 -1.6082  0.0441 -0.9537
  586MOL0     H79098   7.667   7.495   0.935  1.1673  3.0814 -1.1595
  586MOL0     H79099   7.826   7.422   0.992  1.9231  1.3983  0.9132
  586MOL0     H79100   7.833   7.667   0.951 -0.3829  2.5105  0.2479
  586MOL0     H79101   7.880   7.624   1.107  1.6839 -2.4426 -2.2701
  586MOL0     H79102   7.637   7.669   1.172  0.0033  0.6741  0.3210
  586MOL0     H79103   7.624   7.742   1.013 -2.5064 -0.9331  2.0579
  586MOL0     H79104   7.673   7.917   1.195 -2.0676 -2.4343 -2.1721
  586MOL0     H79105   7.811   7.811   1.244  1.6690 -0.0597 -1.1027
  586MOL0     H79106   7.964   7.997   0.897 -1.7147  0.2744 -1.1026
  586MOL0     H79107   7.597   7.309   1.316  3.0213 -0.8798  1.4596
  586MOL0     H79108   7.538   7.016   1.424 -2.8407 -1.0822  2.1458
  586MOL0     H79109   7.445   7.158   1.441  0.4423  0.9125 -0.2667
  586MOL0     H79110   7.376   7.014   1.359 -1.1467  1.7294  2.9087
  587MOL0     O79111  11.482   8.234   3.068 -0.4398 -0.8127 -0.1874
  587MOL0     C79112  11.463   8.287   3.172  0.1426 -0.6317  0.2837
  587MOL0     O79113  11.513   8.409   3.213 -0.3279  0.4630 -0.3660
  587MOL0     C79114  11.598   8.482   3.137 -0.1558 -1.2844  0.0851
  587MOL0     C79115  11.641   8.460   3.008  0.2864 -0.0845  0.2358
  587MOL0     C79116  11.729   8.556   2.952  0.4561  0.0199  0.0547
  587MOL0     C79117  11.770   8.670   3.019  0.5620  0.2220 -0.3750
  587MOL0     O79118  11.852   8.764   2.962 -0.6225  0.8482  0.4097
  587MOL0     C79119  11.862   8.773   2.813  0.5531 -0.3554 -0.1863
  587MOL0     C79120  11.990   8.836   2.776 -0.3052  0.6175 -0.0982
  587MOL0     C79121  12.116   8.795   2.859  0.2872 -0.8671 -0.6343
  587MOL0     C79122  12.239   8.854   2.790 -0.4524 -0.0843 -0.3647
  587MOL0     C79123  12.371   8.777   2.826  0.3438  0.2654 -0.5150
  587MOL0     C79124  12.490   8.844   2.763 -1.0775  0.8225  0.3512
  587MOL0     C79125  12.627   8.779   2.789  0.1382 -0.0549 -0.1191
  587MOL0     C79126  12.696   8.851   2.902  0.1466 -0.4983  0.1598
  587MOL0     N79127  12.615   8.852   3.026 -0.4714 -0.7489  0.0511
  587MOL0     C79128  12.540   8.960   3.058  0.6261  0.3951  0.2259
  587MOL0     C79129  12.468   8.928   3.164  0.3420 -0.3723  0.0043
  587MOL0     C79130  12.377   9.016   3.244 -0.1506  0.0514  0.1161
  587MOL0     C79131  12.411   9.162   3.233 -0.1936  0.3278  0.5153
  587MOL0     C79132  12.312   9.232   3.323 -0.0764 -0.6052 -0.5004
  587MOL0     C79133  12.388   9.364   3.366  1.1492  0.1364  0.1118
  587MOL0     O79134  12.495   9.324   3.456  0.0303  0.1309  0.3946
  587MOL0     C79135  12.475   9.264   3.577 -0.5150  0.5350  0.1193
  587MOL0     C79136  12.585   9.197   3.630  0.6210  0.7415 -0.3876
  587MOL0     C79137  12.573   9.139   3.757 -1.0396  0.7134  0.2543
  587MOL0     C79138  12.455   9.123   3.823 -0.6353 -0.6127  1.2331
  587MOL0     C79139  12.454   9.042   3.940  0.0811 -0.4251 -1.4317
  587MOL0     O79140  12.544   8.943   3.939 -0.2224  0.1994  0.3962
  587MOL0     C79141  12.600   8.900   4.059  0.0603 -0.3200  1.1164
  587MOL0     C79142  12.631   8.993   4.156 -0.1594  0.8326 -0.1576
  587MOL0     C79143  12.692   8.943   4.269 -0.5916  0.4198 -0.0291
  587MOL0     C79144  12.717   8.809   4.296 -0.6464  0.6453 -0.3612
  587MOL0     O79145  12.780   8.785   4.415  0.6731 -0.4548 -0.7185
  587MOL0     C79146  12.823   8.654   4.434  0.2096 -0.3467  0.0164
  587MOL0     C79147  12.914   8.662   4.553 -0.1963 -0.5863 -0.0068
  587MOL0     C79148  13.012   8.539   4.573 -0.1319 -0.5992  0.5336
  587MOL0     C79149  12.957   8.399   4.559  0.1054 -0.1515 -0.2648
  587MOL0     C79150  12.936   8.346   4.412  0.4678 -0.1344 -0.8995
  587MOL0     C79151  12.952   8.191   4.418  0.8117  0.4545  0.0412
  587MOL0     C79152  12.926   8.135   4.282 -0.6704  0.1030  0.0298
  587MOL0     C79153  12.967   7.983   4.269  0.3296  0.1847 -0.2285
  587MOL0    Cl79154  12.896   7.880   4.399 -0.0839 -0.0649 -0.1742
  587MOL0     C79155  12.694   8.721   4.189 -0.0293  0.9700 -0.3459
  587MOL0     C79156  12.640   8.766   4.062 -0.0676  0.6525  0.0352
  587MOL0     O79157  12.374   9.077   4.032 -0.3675  0.1965  0.2414
  587MOL0     C79158  12.343   9.182   3.768  0.4636 -0.0004 -0.5394
  587MOL0     C79159  12.353   9.257   3.646  0.0021  0.0613  0.2484
  587MOL0     N79160  12.512   8.798   3.195  0.4978 -0.2329  0.5890
  587MOL0     N79161  12.607   8.760   3.119  0.6678  0.6316 -0.0025
  587MOL0     C79162  11.724   8.689   3.151 -0.5856 -1.2492  0.8261
  587MOL0     C79163  11.630   8.602   3.204 -0.1820 -0.1388  0.6412
  587MOL0     C79164  11.378   8.232   3.282  0.7616 -0.1383 -0.0328
  587MOL0     C79165  11.322   8.312   3.382  0.8121  0.0103 -0.1467
  587MOL0     C79166  11.217   8.260   3.467 -0.3963 -0.2830 -0.7133
  587MOL0     C79167  11.179   8.129   3.461 -0.2547 -0.6436 -1.0054
  587MOL0     O79168  11.089   8.087   3.557 -0.1576  0.3550 -0.5112
  587MOL0     C79169  11.061   7.947   3.565  0.1491 -0.1416  0.1776
  587MOL0     C79170  10.952   7.909   3.671  0.0847  0.0326 -0.0290
  587MOL0     C79171  10.819   7.988   3.649  0.7344 -0.2949  0.2271
  587MOL0     C79172  10.830   8.141   3.691  0.2398  0.9972  0.6295
  587MOL0     C79173  10.695   8.190   3.729 -0.6579  0.0174 -0.6236
  587MOL0     C79174  10.576   8.230   3.741  0.1429 -0.6586 -0.3660
  587MOL0     C79175  11.237   8.053   3.371 -0.3587 -0.2017  0.8714
  587MOL0     C79176  11.340   8.093   3.287 -0.6931 -0.1897  0.4511
  587MOL0     C79177  11.390   7.989   3.184 -0.2300 -0.1274 -0.0987
  587MOL0     H79178  11.609   8.379   2.944  0.2737 -0.0224  0.1636
  587MOL0     H79179  11.752   8.530   2.849 -1.2911  1.0189 -0.6246
  587MOL0     H79180  11.874   8.674   2.768 -2.5907 -0.7583 -0.3775
  587MOL0     H79181  11.774   8.823   2.771  1.0738  1.3396  0.6777
  587MOL0     H79182  11.966   8.943   2.780 -1.5352  0.3315  2.6175
  587MOL0     H79183  12.012   8.800   2.676  1.1606 -1.2436  0.8268
  587MOL0     H79184  12.119   8.686   2.846 -2.2844 -0.9533 -0.9304
  587MOL0     H79185  12.117   8.838   2.960  1.4489  0.4107 -1.1549
  587MOL0     H79186  12.228   8.844   2.681  1.6884  2.1076 -0.8615
  587MOL0     H79187  12.258   8.958   2.820  1.0666 -0.5130  0.2099
  587MOL0     H79188  12.377   8.771   2.935 -0.2259 -1.2946 -0.5424
  587MOL0     H79189  12.364   8.672   2.796  0.2494  0.0403  0.2755
  587MOL0     H79190  12.476   8.842   2.655  0.5806 -0.1899  0.1284
  587MOL0     H79191  12.491   8.951   2.788 -0.8184  0.8916  0.0537
  587MOL0     H79192  12.696   8.793   2.705 -0.6732  0.6841 -0.6880
  587MOL0     H79193  12.617   8.673   2.815  1.8789 -0.0634  0.6116
  587MOL0     H79194  12.796   8.811   2.921  0.6390  0.8620  0.4984
  587MOL0     H79195  12.714   8.957   2.883 -2.9404 -0.1239 -1.2525
  587MOL0     H79196  12.517   9.037   2.985 -1.8567  1.8589  2.3885
  587MOL0     H79197  12.272   8.994   3.224 -1.1465  1.7000  2.9384
  587MOL0     H79198  12.402   8.991   3.347  1.7435 -4.0348 -1.1386
  587MOL0     H79199  12.514   9.175   3.267 -0.5017  0.8787  1.2660
  587MOL0     H79200  12.412   9.191   3.127  1.2409 -3.6804 -0.7485
  587MOL0     H79201  12.296   9.171   3.412 -1.7226  0.4295 -0.0402
  587MOL0     H79202  12.216   9.249   3.273 -0.2032 -0.6248 -0.2596
  587MOL0     H79203  12.318   9.436   3.411  1.2025 -0.3297  0.9586
  587MOL0     H79204  12.425   9.409   3.273  6.1536 -0.8894  1.3175
  587MOL0     H79205  12.687   9.184   3.593  0.4551  1.2950 -1.0548
  587MOL0     H79206  12.662   9.084   3.784 -1.3284 -1.2254 -2.3328
  587MOL0     H79207  12.611   9.099   4.147  0.7439  0.9192 -1.4525
  587MOL0     H79208  12.702   9.024   4.340 -0.9891 -0.5139  1.1249
  587MOL0     H79209  12.728   8.602   4.451 -0.7016  1.4910  0.7820
  587MOL0     H79210  12.878   8.618   4.346 -1.0216 -2.4496  0.0361
  587MOL0     H79211  12.980   8.749   4.551  1.5168 -1.7887  1.2054
  587MOL0     H79212  12.841   8.683   4.632  1.9542  3.0366  1.2611
  587MOL0     H79213  13.100   8.558   4.511 -0.6372  1.9201  0.4794
  587MOL0     H79214  13.045   8.552   4.677  2.1803  0.0516 -0.2242
  587MOL0     H79215  12.865   8.381   4.614  3.3378 -0.6972  5.8666
  587MOL0     H79216  13.037   8.346   4.612  0.6416  2.0520  1.2898
  587MOL0     H79217  12.987   8.391   4.326 -1.0703 -2.8506 -3.4413
  587MOL0     H79218  12.830   8.359   4.385  0.8311  1.9243 -1.4743
  587MOL0     H79219  13.043   8.149   4.463 -0.9276 -3.2114  0.5365
  587MOL0     H79220  12.883   8.152   4.493  0.0226 -0.6389 -1.2152
  587MOL0     H79221  12.989   8.182   4.206  0.8592  1.8727  2.2746
  587MOL0     H79222  12.821   8.151   4.254 -0.3204  0.9064 -0.8484
  587MOL0     H79223  12.959   7.928   4.174  2.0476 -6.1718  2.7366
  587MOL0     H79224  13.073   7.978   4.296  0.9976  1.7800 -2.2634
  587MOL0     H79225  12.710   8.614   4.184  2.6678  1.1507  1.9753
  587MOL0     H79226  12.610   8.691   3.990 -1.6061 -0.6322  1.9207
  587MOL0     H79227  12.252   9.193   3.826  0.4111 -0.7989 -0.4637
  587MOL0     H79228  12.265   9.316   3.621 -1.5241 -1.1910  2.3639
  587MOL0     H79229  11.741   8.784   3.202 -0.8410  0.2310 -1.6686
  587MOL0     H79230  11.589   8.632   3.301 -3.0594 -1.2965 -0.1149
  587MOL0     H79231  11.349   8.418   3.380 -3.0008  1.1482 -2.6372
  587MOL0     H79232  11.180   8.339   3.531  0.6367 -0.6474  0.3677
  587MOL0     H79233  11.150   7.891   3.594  0.2324  1.0597  2.5266
  587MOL0     H79234  11.017   7.909   3.473  1.3319 -1.3375  0.0829
  587MOL0     H79235  10.981   7.921   3.776 -2.0868  1.2087  0.4836
  587MOL0     H79236  10.942   7.800   3.663  1.7534 -0.4058  2.4604
  587MOL0     H79237  10.740   7.951   3.715  1.8717 -0.4469  1.5376
  587MOL0     H79238  10.777   7.973   3.549 -0.1001  0.5643  0.4324
  587MOL0     H79239  10.893   8.161   3.778  2.1328  1.3898 -0.7518
  587MOL0     H79240  10.857   8.195   3.600 -0.2591 -1.7112 -1.2440
  587MOL0     H79241  10.475   8.259   3.761  0.3395  0.9200 -1.4842
  587MOL0     H79242  11.193   7.954   3.358 -2.0946  0.7826 -1.4671
  587MOL0     H79243  11.349   7.889   3.205  2.8571 -0.8709  3.4319
  587MOL0     H79244  11.371   8.010   3.078 -4.8466 -2.0349  0.1169
  587MOL0     H79245  11.495   7.970   3.206 -0.3368 -0.0211  0.5141
  588MOL0     O79246   4.726  11.296   1.938  0.3453 -0.7800  0.1849
  588MOL0     C79247   4.645  11.382   1.908 -0.4388 -0.2136 -0.9205
  588MOL0     O79248   4.601  11.395   1.780 -0.2354 -0.4373  0.0134
  588MOL0     C79249   4.675  11.358   1.679 -0.1500 -0.1023  1.2125
  588MOL0     C79250   4.800  11.424   1.644 -0.2142 -0.5098 -0.1721
  588MOL0     C79251   4.879  11.389   1.527 -0.5633  0.6107 -0.3965
  588MOL0     C79252   4.832  11.290   1.442 -0.0252 -0.6938  0.2125
  588MOL0     O79253   4.904  11.246   1.331 -0.2539  0.2710 -0.1836
  588MOL0     C79254   5.038  11.192   1.345  0.9298  0.5322  0.2257
  588MOL0     C79255   5.063  11.053   1.290  0.6284 -1.0673 -0.2739
  588MOL0     C79256   5.212  11.035   1.272  0.1348  0.0257 -0.1840
  588MOL0     C79257   5.257  10.905   1.207 -1.1195  1.1652 -0.3102
  588MOL0     C79258   5.404  10.877   1.245 -0.6809  0.4436 -0.2203
  588MOL0     C79259   5.463  10.749   1.173  0.0211 -0.0163  0.1569
  588MOL0     C79260   5.616  10.775   1.131  0.9367  0.0317  0.7503
  588MOL0     C79261   5.614  10.821   0.982  0.2585 -0.8659  0.3119
  588MOL0     N79262   5.714  10.939   0.952 -0.7365 -1.1757  0.7586
  588MOL0     C79263   5.823  10.932   0.867  0.1270 -0.2527  0.5764
  588MOL0     C79264   5.867  11.063   0.877  0.1325 -0.0963 -0.9761
  588MOL0     C79265   5.987  11.119   0.810  0.4691  0.3678  0.5125
  588MOL0     C79266   6.078  11.219   0.886 -0.3510  1.1684 -0.2808
  588MOL0     C79267   6.178  11.143   0.973 -0.2631 -0.1692  0.7597
  588MOL0     C79268   6.127  11.037   1.080  0.3985 -0.3281 -0.9217
  588MOL0     O79269   6.032  11.085   1.173  0.8408 -0.0464 -0.0535
  588MOL0     C79270   5.978  10.988   1.257  0.2493 -0.1713  0.2435
  588MOL0     C79271   5.920  11.032   1.376  0.3391  0.0351 -0.9947
  588MOL0     C79272   5.861  10.946   1.468  1.2278 -0.1636  0.0814
  588MOL0     C79273   5.845  10.813   1.434 -0.0248  0.2273 -0.4370
  588MOL0     C79274   5.752  10.729   1.500  0.9261  0.3114 -0.2222
  588MOL0     O79275   5.684  10.634   1.435  0.6110 -0.9718  0.5970
  588MOL0     C79276   5.619  10.542   1.511 -0.4647  0.9483  0.6411
  588MOL0     C79277   5.699  10.427   1.555  0.0762  0.1775  0.2278
  588MOL0     C79278   5.631  10.320   1.622 -0.0550 -0.2824  0.3801
  588MOL0     C79279   5.498  10.326   1.652  0.6213 -0.0234 -0.6689
  588MOL0     O79280   5.450  10.209   1.715 -0.7808 -0.5158 -0.4780
  588MOL0     C79281   5.318  10.178   1.696  0.3467 -0.1514 -0.3273
  588MOL0     C79282   5.276  10.153   1.554  0.1610 -0.2837 -0.5542
  588MOL0     C79283   5.310  10.019   1.495 -0.6855  0.0898 -1.0259
  588MOL0     C79284   5.316  10.022   1.341  0.5940 -0.8906  0.8925
  588MOL0     C79285   5.419   9.918   1.284  0.3573 -0.3146 -0.9547
  588MOL0     C79286   5.358   9.771   1.268 -1.1609 -0.3333  0.4387
  588MOL0     C79287   5.319   9.707   1.393  0.7289  1.7333 -0.4550
  588MOL0     C79288   5.319   9.559   1.381  0.7413  0.0954 -0.4433
  588MOL0    Cl79289   5.212   9.521   1.246  0.4521  0.3167 -0.5577
  588MOL0     C79290   5.420  10.433   1.609  0.8703 -0.8153  0.5911
  588MOL0     C79291   5.479  10.542   1.538  0.5826  0.1632 -0.5850
  588MOL0     O79292   5.742  10.743   1.624 -0.8948 -0.6323 -0.4416
  588MOL0     C79293   5.901  10.761   1.313  0.2540 -0.0042  1.3271
  588MOL0     C79294   5.965  10.855   1.233  0.6917  0.0567 -0.0184
  588MOL0     N79295   5.785  11.140   0.958  0.5701  1.0858  1.1050
  588MOL0     N79296   5.696  11.060   1.004  0.2662 -0.1592 -0.1822
  588MOL0     C79297   4.693  11.245   1.468 -0.3074  0.9120 -0.6352
  588MOL0     C79298   4.628  11.273   1.585 -0.5126 -0.1970  0.2101
  588MOL0     C79299   4.576  11.458   2.006 -0.2493  0.5336 -0.5632
  588MOL0     C79300   4.443  11.474   1.984 -0.9721 -0.8636  0.6519
  588MOL0     C79301   4.361  11.547   2.072 -0.0822  0.8065  0.5661
  588MOL0     C79302   4.412  11.595   2.198  0.8714 -0.5243  0.4946
  588MOL0     O79303   4.332  11.643   2.298  0.1223  0.1872 -0.2396
  588MOL0     C79304   4.214  11.560   2.324 -0.4263 -0.3368  0.2791
  588MOL0     C79305   4.147  11.605   2.460 -0.1234  0.7713  0.3514
  588MOL0     C79306   4.233  11.583   2.590  0.4776  1.1786 -0.2546
  588MOL0     C79307   4.165  11.663   2.702  0.1120 -0.8811  0.2947
  588MOL0     C79308   4.037  11.606   2.749  0.3176 -0.4445 -0.9961
  588MOL0     C79309   3.934  11.554   2.798  0.1010 -0.4402  0.0729
  588MOL0     C79310   4.545  11.577   2.217 -0.4218 -0.5245  0.1247
  588MOL0     C79311   4.624  11.507   2.121 -0.7848  0.1072 -0.9698
  588MOL0     C79312   4.769  11.510   2.152 -0.1554  0.1071 -0.2429
  588MOL0     H79313   4.828  11.501   1.714 -1.4295  0.4366 -0.6802
  588MOL0     H79314   4.964  11.447   1.492 -0.5190  1.6516  1.3056
  588MOL0     H79315   5.104  11.265   1.297  1.3897  0.8232  1.2701
  588MOL0     H79316   5.075  11.203   1.447 -1.0354  1.9719  0.8571
  588MOL0     H79317   5.008  11.041   1.197 -0.3358 -1.9224  0.3795
  588MOL0     H79318   5.030  10.971   1.355  3.2998 -1.9084  0.1489
  588MOL0     H79319   5.251  11.043   1.374 -1.8951 -0.7284  0.7029
  588MOL0     H79320   5.252  11.116   1.210  0.9812  0.2321  0.6205
  588MOL0     H79321   5.199  10.816   1.234  1.5125 -1.6896 -3.2086
  588MOL0     H79322   5.250  10.903   1.098 -0.7978 -1.5308 -0.3570
  588MOL0     H79323   5.458  10.967   1.213  4.6168 -3.0972 -2.7417
  588MOL0     H79324   5.427  10.870   1.352 -1.7544 -2.4509 -0.0872
  588MOL0     H79325   5.464  10.669   1.249  0.9771  0.1952  0.3741
  588MOL0     H79326   5.406  10.729   1.082 -3.1530 -1.5512  2.2870
  588MOL0     H79327   5.676  10.684   1.143 -1.2853 -1.6262 -0.0115
  588MOL0     H79328   5.654  10.852   1.198  2.2234 -0.6441  0.8343
  588MOL0     H79329   5.626  10.733   0.918 -1.2206 -0.7460 -0.1460
  588MOL0     H79330   5.513  10.855   0.958  0.1917 -1.0641  0.3087
  588MOL0     H79331   5.865  10.854   0.804  1.9043  1.6191 -0.6944
  588MOL0     H79332   6.056  11.043   0.770 -0.5373  0.9539 -2.5309
  588MOL0     H79333   5.961  11.181   0.724 -1.0857  1.3108  1.6226
  588MOL0     H79334   6.128  11.279   0.810  1.6609  1.8600  1.4878
  588MOL0     H79335   6.006  11.281   0.940 -0.9788  0.4891 -0.3281
  588MOL0     H79336   6.249  11.211   1.020 -0.8663 -0.9703  2.9307
  588MOL0     H79337   6.237  11.082   0.903 -1.4257  0.3625 -0.7432
  588MOL0     H79338   6.210  10.991   1.134  0.8924 -0.0558 -1.4407
  588MOL0     H79339   6.086  10.951   1.025 -2.3257 -0.1717  0.6681
  588MOL0     H79340   5.933  11.135   1.409  0.1832 -0.0542 -0.6455
  588MOL0     H79341   5.825  10.976   1.566  2.3875  0.1538  0.4359
  588MOL0     H79342   5.807  10.420   1.546 -0.1374 -2.4777 -1.4361
  588MOL0     H79343   5.697  10.242   1.658 -0.5213 -0.4473  0.8963
  588MOL0     H79344   5.299  10.093   1.763  3.0604  0.5469  1.4894
  588MOL0     H79345   5.257  10.257   1.742  0.0081 -1.3273  1.3606
  588MOL0     H79346   5.168  10.163   1.541  0.4967  2.7743 -1.6210
  588MOL0     H79347   5.307  10.221   1.474 -3.1150 -1.6265 -3.1980
  588MOL0     H79348   5.410  10.003   1.536 -1.4271 -0.7167  0.5218
  588MOL0     H79349   5.247   9.939   1.536 -1.5246  1.4241  0.4045
  588MOL0     H79350   5.354  10.116   1.300 -2.6467  0.7090  1.1933
  588MOL0     H79351   5.225   9.991   1.289  2.3203 -3.0069 -1.0880
  588MOL0     H79352   5.507   9.910   1.348  0.1882 -0.9131 -0.7852
  588MOL0     H79353   5.457   9.956   1.189  2.8447 -0.4567 -0.0942
  588MOL0     H79354   5.266   9.775   1.207 -0.9921  1.7616  0.2288
  588MOL0     H79355   5.422   9.708   1.206 -1.4077  2.9344 -3.5758
  588MOL0     H79356   5.217   9.736   1.420 -0.3965 -2.8974  1.1241
  588MOL0     H79357   5.389   9.729   1.474 -0.6468  1.5823  0.8249
  588MOL0     H79358   5.417   9.515   1.363  0.4507  0.0714 -2.1491
  588MOL0     H79359   5.271   9.512   1.467 -0.4200  0.0219 -1.1014
  588MOL0     H79360   5.317  10.439   1.642  1.1857 -1.2009  1.6789
  588MOL0     H79361   5.419  10.625   1.499 -2.1532 -1.8225 -0.9007
  588MOL0     H79362   5.886  10.660   1.276  1.3919 -1.0519  3.5184
  588MOL0     H79363   6.003  10.808   1.143  1.3340 -2.2197  1.3569
  588MOL0     H79364   4.660  11.166   1.400 -0.4194 -0.0786  0.5264
  588MOL0     H79365   4.527  11.232   1.594  0.2426 -2.5291 -1.0392
  588MOL0     H79366   4.383  11.432   1.904 -3.7979  2.5918  0.6946
  588MOL0     H79367   4.254  11.558   2.056 -0.4159 -0.0376  1.9824
  588MOL0     H79368   4.239  11.453   2.317 -0.1136 -0.1817 -1.4082
  588MOL0     H79369   4.141  11.571   2.243  0.8199 -0.0191 -0.8335
  588MOL0     H79370   4.061  11.540   2.474  0.8898 -0.2626  1.9665
  588MOL0     H79371   4.113  11.710   2.459 -3.2050 -0.1241  0.1783
  588MOL0     H79372   4.334  11.619   2.569  0.7950  0.8887  0.7381
  588MOL0     H79373   4.227  11.476   2.614 -4.3867  0.8376 -1.8082
  588MOL0     H79374   4.230  11.662   2.790 -1.4703  1.2900  1.5859
  588MOL0     H79375   4.161  11.767   2.669  1.2517 -1.3794 -1.5627
  588MOL0     H79376   3.851  11.496   2.832 -2.5597  1.6753 -2.3819
  588MOL0     H79377   4.572  11.592   2.321 -2.9763 -2.2660  1.1396
  588MOL0     H79378   4.783  11.464   2.250 -0.2408  0.8156  0.1103
  588MOL0     H79379   4.839  11.467   2.080  2.3442  2.6317  0.4520
  588MOL0     H79380   4.791  11.618   2.149 -1.8854  0.4677 -0.6742
  589MOL0     O79381   4.123  10.517   3.311 -0.0328  0.5626 -0.5381
  589MOL0     C79382   4.018  10.460   3.356  1.0125  0.5273 -0.3187
  589MOL0     O79383   3.892  10.469   3.309 -0.5467  0.3159 -0.0631
  589MOL0     C79384   3.886  10.541   3.189 -0.3904  0.6851 -0.0743
  589MOL0     C79385   3.848  10.675   3.196 -0.0864  0.6489 -0.1627
  589MOL0     C79386   3.835  10.746   3.071 -0.6123 -0.0723 -0.2131
  589MOL0     C79387   3.876  10.688   2.947  0.4045  0.3282  0.5133
  589MOL0     O79388   3.890  10.774   2.836 -0.1940 -0.8500 -0.3530
  589MOL0     C79389   3.882  10.710   2.704 -0.0461  0.2671  0.4435
  589MOL0     C79390   3.740  10.667   2.684  0.5287  0.0504 -0.5291
  589MOL0     C79391   3.697  10.637   2.540  0.6873  0.4062  0.8040
  589MOL0     C79392   3.546  10.639   2.516  0.8490  0.2516 -0.4057
  589MOL0     C79393   3.493  10.564   2.391 -0.2300  0.5144  0.8914
  589MOL0     C79394   3.346  10.592   2.342 -0.2043  0.0148  0.2509
  589MOL0     C79395   3.303  10.736   2.337  0.2123  0.3581  0.5902
  589MOL0     C79396   3.156  10.753   2.344  0.4778 -0.1821 -0.6047
  589MOL0     N79397   3.112  10.878   2.288 -0.3141  0.0720 -0.3594
  589MOL0     C79398   3.146  11.006   2.330  0.6352 -0.2555 -0.0958
  589MOL0     C79399   3.073  11.090   2.261 -0.6909 -0.1326 -0.2836
  589MOL0     C79400   3.086  11.241   2.247 -0.2131  0.1176 -0.1736
  589MOL0     C79401   2.965  11.313   2.310  0.5879  0.1906 -0.5640
  589MOL0     C79402   2.975  11.461   2.281  0.3886  0.1488  0.3379
  589MOL0     C79403   2.933  11.484   2.130 -0.3007 -0.8008 -0.3711
  589MOL0     O79404   2.797  11.462   2.109  0.0234  0.2537  0.1126
  589MOL0     C79405   2.765  11.420   1.979 -0.1136 -0.1923 -0.3302
  589MOL0     C79406   2.669  11.488   1.894 -0.3358  0.2759  0.0955
  589MOL0     C79407   2.643  11.438   1.767  0.7304  0.3639  0.5895
  589MOL0     C79408   2.699  11.324   1.711 -0.1021 -0.3972 -0.8191
  589MOL0     C79409   2.660  11.267   1.578 -0.1392  0.5115 -0.2044
  589MOL0     O79410   2.542  11.319   1.521  0.7782  0.3944 -1.1898
  589MOL0     C79411   2.474  11.272   1.409 -1.1758  0.6030 -0.8372
  589MOL0     C79412   2.532  11.176   1.325 -0.8060  0.4762  0.3694
  589MOL0     C79413   2.464  11.158   1.200 -0.3293  0.2915  0.1183
  589MOL0     C79414   2.346  11.220   1.164  1.5764  0.5407  0.0724
  589MOL0     O79415   2.293  11.206   1.034 -0.6983  0.3126  0.2788
  589MOL0     C79416   2.285  11.069   0.988 -1.5533  0.0474 -0.4034
  589MOL0     C79417   2.226  11.075   0.849  0.4191 -0.0796 -0.5948
  589MOL0     C79418   2.255  10.950   0.782 -0.0820  0.0235 -0.0993
  589MOL0     C79419   2.165  10.950   0.660 -0.7120 -0.1741 -0.4289
  589MOL0     C79420   2.178  10.820   0.586  0.0255 -0.1454  0.6194
  589MOL0     C79421   2.077  10.809   0.466  0.3725  0.1958  0.6647
  589MOL0     C79422   2.126  10.699   0.359 -0.0398 -0.5689  0.4483
  589MOL0     C79423   2.086  10.561   0.407  0.3785 -0.0125  0.0023
  589MOL0    Cl79424   1.903  10.550   0.374  0.4888  0.4404  0.2032
  589MOL0     C79425   2.282  11.310   1.255 -0.1529  0.0643  0.5734
  589MOL0     C79426   2.359  11.343   1.374  0.6138  0.9082 -0.0791
  589MOL0     O79427   2.725  11.173   1.535 -0.1862 -0.3322  0.2255
  589MOL0     C79428   2.779  11.249   1.804 -0.6529  0.2268  0.2031
  589MOL0     C79429   2.824  11.307   1.922 -0.1938  0.7110  1.0680
  589MOL0     N79430   2.989  11.013   2.185  0.3366  0.5609 -0.1117
  589MOL0     N79431   3.012  10.884   2.202 -0.3360 -0.2224 -0.1418
  589MOL0     C79432   3.910  10.548   2.940  0.1320  0.4112  0.3474
  589MOL0     C79433   3.912  10.478   3.070  0.2438 -0.4476  0.3594
  589MOL0     C79434   4.038  10.377   3.472 -1.5074  0.1593 -0.2084
  589MOL0     C79435   3.939  10.276   3.503 -0.7153  0.6513 -0.2849
  589MOL0     C79436   3.964  10.186   3.611 -0.1881 -0.7369  0.7683
  589MOL0     C79437   4.084  10.194   3.682 -0.4377 -0.0922 -0.7971
  589MOL0     O79438   4.113  10.098   3.779  0.8971 -0.3217  0.7830
  589MOL0     C79439   4.012  10.030   3.863 -0.5131  0.1269 -0.4938
  589MOL0     C79440   4.082   9.920   3.945 -0.5787  0.3924  0.4537
  589MOL0     C79441   4.153   9.963   4.074  0.1614 -0.6076  0.8006
  589MOL0     C79442   4.073   9.944   4.204 -0.1296 -0.5159  0.6164
  589MOL0     C79443   4.059   9.797   4.223 -0.2574 -0.2879  0.0287
  589MOL0     C79444   4.049   9.675   4.235  0.6626 -0.7140  0.8811
  589MOL0     C79445   4.173  10.295   3.660  0.7353 -0.4363 -0.2706
  589MOL0     C79446   4.161  10.385   3.557 -0.2794 -0.8456 -0.2916
  589MOL0     C79447   4.274  10.486   3.534  0.3140  0.2533  0.5351
  589MOL0     H79448   3.816  10.723   3.288 -0.9549  0.0147 -0.1181
  589MOL0     H79449   3.811  10.851   3.063  5.5407  1.8555  0.8274
  589MOL0     H79450   3.893  10.770   2.613  0.9811 -3.2264 -1.9438
  589MOL0     H79451   3.954  10.628   2.697  0.0256  0.3676 -0.0609
  589MOL0     H79452   3.683  10.749   2.731  1.0705 -0.2432  0.6778
  589MOL0     H79453   3.711  10.581   2.745  2.4311 -2.0412 -2.3820
  589MOL0     H79454   3.736  10.538   2.515  0.7646 -0.5590  4.1857
  589MOL0     H79455   3.732  10.709   2.465  1.3880  0.7919  1.4828
  589MOL0     H79456   3.489  10.601   2.601  0.4867 -2.9922 -1.9260
  589MOL0     H79457   3.533  10.745   2.492  0.3923  0.0578 -1.0627
  589MOL0     H79458   3.558  10.572   2.303  0.7854 -0.6548  1.5143
  589MOL0     H79459   3.499  10.461   2.425  0.4212 -0.5814 -2.2180
  589MOL0     H79460   3.319  10.537   2.251 -0.3271  0.0666  0.2559
  589MOL0     H79461   3.277  10.560   2.421 -1.2060  1.7610  0.1355
  589MOL0     H79462   3.334  10.769   2.237 -0.6350  0.4574  0.3529
  589MOL0     H79463   3.359  10.787   2.416  1.0844 -1.3930  1.1464
  589MOL0     H79464   3.096  10.674   2.297  0.9725  0.5253 -2.5191
  589MOL0     H79465   3.124  10.765   2.448 -1.4829  0.5597 -1.2338
  589MOL0     H79466   3.218  11.039   2.404 -0.8875  0.6028  1.0496
  589MOL0     H79467   3.176  11.271   2.302  0.7553  0.7339 -2.0229
  589MOL0     H79468   3.100  11.262   2.141 -1.0882  1.4404 -0.0552
  589MOL0     H79469   2.868  11.273   2.282 -0.2784  2.0950 -0.4676
  589MOL0     H79470   2.978  11.305   2.418  1.0526 -1.0501 -0.6974
  589MOL0     H79471   3.076  11.500   2.295  1.9288 -2.2023 -3.1030
  589MOL0     H79472   2.915  11.529   2.342  2.4537  1.3517  1.1255
  589MOL0     H79473   2.998  11.423   2.066  0.2427  0.9630 -1.5575
  589MOL0     H79474   2.964  11.588   2.114 -0.6635 -0.7735 -0.9235
  589MOL0     H79475   2.622  11.578   1.930  3.3041  1.0361  3.5741
  589MOL0     H79476   2.565  11.492   1.715 -0.3851 -1.1045  0.6785
  589MOL0     H79477   2.631  11.132   1.329 -0.8697  0.1972 -0.8933
  589MOL0     H79478   2.508  11.100   1.120 -0.4612  1.7986 -1.1084
  589MOL0     H79479   2.384  11.023   0.986 -0.2781  2.4857  1.0418
  589MOL0     H79480   2.215  11.016   1.053 -0.6781 -0.2086  0.3644
  589MOL0     H79481   2.122  11.107   0.848 -0.6364 -2.2250  4.8741
  589MOL0     H79482   2.277  11.150   0.788  0.0043 -0.9625 -2.0693
  589MOL0     H79483   2.355  10.957   0.739 -0.6167  3.4237 -1.1353
  589MOL0     H79484   2.233  10.862   0.843  1.6319  0.0528  0.6141
  589MOL0     H79485   2.179  11.045   0.607 -1.4366  0.2245  0.0624
  589MOL0     H79486   2.066  10.947   0.708 -1.2547 -1.1196 -1.5591
  589MOL0     H79487   2.193  10.740   0.660  0.3716  2.4564  3.5546
  589MOL0     H79488   2.275  10.832   0.537  1.4457  0.7077  3.4425
  589MOL0     H79489   1.979  10.787   0.510  0.1911  2.1270  1.3147
  589MOL0     H79490   2.067  10.903   0.412 -0.8768 -2.5595 -4.4780
  589MOL0     H79491   2.234  10.710   0.345 -0.0334 -1.4156 -0.2627
  589MOL0     H79492   2.072  10.702   0.264 -0.6819  1.6910  0.8218
  589MOL0     H79493   2.141  10.486   0.349 -0.2066  2.2146 -3.7689
  589MOL0     H79494   2.114  10.539   0.510 -3.5996  0.4961  1.3767
  589MOL0     H79495   2.203  11.374   1.217 -0.4209 -1.8883 -2.5593
  589MOL0     H79496   2.309  11.420   1.431  0.5181  0.1106  0.9359
  589MOL0     H79497   2.832  11.163   1.765 -1.3210 -0.7066  1.3269
  589MOL0     H79498   2.885  11.249   1.991  0.6328  0.1328 -0.1150
  589MOL0     H79499   3.945  10.501   2.849 -1.2935  1.6455 -0.8842
  589MOL0     H79500   3.943  10.374   3.079 -0.6424 -0.8317 -0.7605
  589MOL0     H79501   3.843  10.266   3.453 -2.8258  3.6214  2.7314
  589MOL0     H79502   3.906  10.096   3.624 -0.4837 -0.9249 -1.4637
  589MOL0     H79503   3.941   9.975   3.799 -3.5227  0.9505  1.8937
  589MOL0     H79504   3.953  10.101   3.922  0.8854  0.3249  0.7130
  589MOL0     H79505   4.165   9.883   3.885 -1.4162 -0.6917 -0.0717
  589MOL0     H79506   4.015   9.834   3.958  2.2417 -1.5903  3.2670
  589MOL0     H79507   4.164  10.072   4.077 -0.9609 -0.1248 -3.8345
  589MOL0     H79508   4.246   9.907   4.085  1.8973  1.1843 -2.9295
  589MOL0     H79509   4.145   9.982   4.278  0.9086 -1.8588  0.3222
  589MOL0     H79510   3.974   9.991   4.205 -0.5187 -1.2904  2.2826
  589MOL0     H79511   4.017   9.573   4.235 -0.1494 -0.5117 -0.9754
  589MOL0     H79512   4.244  10.328   3.736  2.2574  0.0772 -1.8295
  589MOL0     H79513   4.319  10.465   3.437 -1.0956 -0.6509  0.0467
  589MOL0     H79514   4.233  10.588   3.530  2.1745  1.0068 -0.5096
  589MOL0     H79515   4.344  10.471   3.616  0.0548 -2.1068  0.3887
  590MOL0     O79516   2.681   5.119   6.088 -0.0588 -0.1827 -0.3920
  590MOL0     C79517   2.783   5.059   6.094 -0.4661  0.0808 -0.6155
  590MOL0     O79518   2.885   5.083   6.012 -0.4888 -0.5479 -0.1305
  590MOL0     C79519   2.864   5.170   5.906  0.1408  0.1273 -0.3553
  590MOL0     C79520   2.933   5.285   5.881 -0.0386 -0.8943 -0.2319
  590MOL0     C79521   2.908   5.358   5.761 -0.2387  0.4108 -0.3283
  590MOL0     C79522   2.821   5.308   5.657 -0.1846  0.3851 -0.1698
  590MOL0     O79523   2.798   5.379   5.538 -0.1173  0.3329  0.2939
  590MOL0     C79524   2.733   5.330   5.426  0.6634  0.2233  0.6199
  590MOL0     C79525   2.818   5.358   5.295 -0.4488 -0.0580 -0.3020
  590MOL0     C79526   2.799   5.512   5.243  0.7052 -0.0892  0.4693
  590MOL0     C79527   2.672   5.516   5.153 -0.3229 -1.1607  0.1659
  590MOL0     C79528   2.588   5.645   5.173  0.3262  0.6073  0.1350
  590MOL0     C79529   2.464   5.647   5.076 -0.3869 -0.4190 -0.8588
  590MOL0     C79530   2.502   5.723   4.947 -0.5684  0.6152  0.1473
  590MOL0     C79531   2.387   5.750   4.851 -0.2201  0.4341 -0.2141
  590MOL0     N79532   2.316   5.628   4.812  0.6617 -0.7905 -0.6438
  590MOL0     C79533   2.356   5.534   4.719  0.3398  1.0605 -0.0337
  590MOL0     C79534   2.256   5.438   4.711 -0.2234 -1.3982  0.7466
  590MOL0     C79535   2.261   5.315   4.623  0.0950 -0.1123 -0.7765
  590MOL0     C79536   2.191   5.346   4.495  0.7877  0.5064  0.5951
  590MOL0     C79537   2.037   5.327   4.514 -0.8038  0.8072 -0.8639
  590MOL0     C79538   1.955   5.379   4.391 -0.4525 -0.9675 -0.2043
  590MOL0     O79539   1.948   5.288   4.278  0.1707 -0.4211 -0.4681
  590MOL0     C79540   1.956   5.323   4.148  0.6283 -0.2327  0.1337
  590MOL0     C79541   1.976   5.214   4.058 -0.2550 -1.4985 -0.5254
  590MOL0     C79542   1.981   5.242   3.921  0.1100  0.3284 -0.1428
  590MOL0     C79543   1.950   5.370   3.869  0.2410  0.1011  0.2531
  590MOL0     C79544   1.948   5.401   3.730  1.0336 -1.0718 -0.5818
  590MOL0     O79545   1.965   5.301   3.641  0.9094  0.2387 -0.5605
  590MOL0     C79546   1.894   5.286   3.528  0.5524 -0.1608  0.5243
  590MOL0     C79547   1.827   5.387   3.460  0.4345 -0.0051  0.3104
  590MOL0     C79548   1.768   5.356   3.330  0.4814 -0.7737  0.4330
  590MOL0     C79549   1.784   5.234   3.275  0.9553  0.4278  0.2602
  590MOL0     O79550   1.725   5.213   3.156  1.4171  0.1929  0.0832
  590MOL0     C79551   1.605   5.132   3.153 -0.2008 -0.3238 -0.0500
  590MOL0     C79552   1.536   5.130   3.003 -1.1426 -0.2734 -0.8439
  590MOL0     C79553   1.469   5.268   2.981 -1.3330  0.7264 -0.1201
  590MOL0     C79554   1.402   5.277   2.850 -0.0642 -0.0182  0.1281
  590MOL0     C79555   1.326   5.410   2.826 -0.1905 -0.5272  0.0426
  590MOL0     C79556   1.399   5.549   2.850 -0.8499  0.2132 -0.4073
  590MOL0     C79557   1.529   5.575   2.787 -0.7426 -0.6957 -0.4129
  590MOL0     C79558   1.589   5.711   2.812 -0.8839 -0.1929 -0.7089
  590MOL0    Cl79559   1.601   5.779   2.982  0.3492 -0.1504 -0.4438
  590MOL0     C79560   1.852   5.137   3.341  1.1748  0.5641  0.1390
  590MOL0     C79561   1.909   5.157   3.462  0.2762 -0.6867 -0.9669
  590MOL0     O79562   1.936   5.521   3.698 -0.1944  0.0436 -0.5897
  590MOL0     C79563   1.931   5.476   3.969 -1.0911  0.3255 -0.3837
  590MOL0     C79564   1.938   5.455   4.106 -0.2012  0.3416  0.8732
  590MOL0     N79565   2.165   5.454   4.815  0.5229 -0.9294  0.0477
  590MOL0     N79566   2.199   5.571   4.875 -0.7496  0.0246  1.0539
  590MOL0     C79567   2.747   5.189   5.688 -0.1283  0.2471  0.3550
  590MOL0     C79568   2.775   5.124   5.804  0.5566  0.0274 -0.4510
  590MOL0     C79569   2.814   4.965   6.194  0.1396 -0.3196 -0.1764
  590MOL0     C79570   2.941   4.959   6.250  0.3198 -0.5665  0.2597
  590MOL0     C79571   2.969   4.871   6.350 -0.4354 -0.7952  0.4111
  590MOL0     C79572   2.882   4.785   6.411 -0.0560  0.6586  1.1551
  590MOL0     O79573   2.904   4.682   6.502  0.9398 -0.3474 -0.0499
  590MOL0     C79574   3.027   4.673   6.575 -0.3905 -0.3614  0.0840
  590MOL0     C79575   3.046   4.526   6.622 -0.4881  0.3420 -0.0476
  590MOL0     C79576   2.919   4.455   6.670 -0.0702 -0.1438  0.0631
  590MOL0     C79577   2.923   4.304   6.678  0.9060  0.2686 -0.3836
  590MOL0     C79578   3.008   4.253   6.782 -1.1762  0.3351  0.2121
  590MOL0     C79579   3.066   4.200   6.874 -0.0734 -0.9411 -0.7183
  590MOL0     C79580   2.754   4.797   6.362 -0.2362  0.7095  1.0418
  590MOL0     C79581   2.713   4.882   6.259 -0.2506 -0.2597 -0.0749
  590MOL0     C79582   2.573   4.874   6.202 -0.3337  1.3502  0.4155
  590MOL0     H79583   2.996   5.315   5.964 -0.5438  1.1528 -0.5309
  590MOL0     H79584   2.958   5.452   5.742 -2.3524  2.1917  2.3059
  590MOL0     H79585   2.710   5.223   5.432 -1.0212  0.6220  2.3752
  590MOL0     H79586   2.633   5.376   5.421  0.5766 -0.0452 -0.2051
  590MOL0     H79587   2.790   5.287   5.216 -1.6931  1.1892 -1.0153
  590MOL0     H79588   2.925   5.345   5.312 -0.1616  0.2462 -1.8143
  590MOL0     H79589   2.884   5.554   5.187 -0.1945  2.2655  0.7561
  590MOL0     H79590   2.788   5.570   5.335  1.2208 -0.4475  0.7625
  590MOL0     H79591   2.701   5.506   5.048 -2.0567 -0.7094 -0.3947
  590MOL0     H79592   2.604   5.435   5.181 -0.2232 -0.2952  3.3365
  590MOL0     H79593   2.549   5.651   5.275  1.3799  1.0019  0.5261
  590MOL0     H79594   2.647   5.736   5.157  1.3478  0.0286  0.5002
  590MOL0     H79595   2.413   5.551   5.066 -0.1026 -0.4583 -2.0731
  590MOL0     H79596   2.390   5.720   5.111  0.3436  0.9435 -2.0501
  590MOL0     H79597   2.576   5.665   4.890 -2.6674  0.8728 -3.0398
  590MOL0     H79598   2.547   5.819   4.974  1.5596  0.0296 -1.0524
  590MOL0     H79599   2.324   5.831   4.889 -1.3548 -0.9535  0.9695
  590MOL0     H79600   2.436   5.803   4.768 -2.6332  3.1732 -0.0611
  590MOL0     H79601   2.452   5.533   4.668  0.8051  0.5347  0.8317
  590MOL0     H79602   2.365   5.297   4.594  0.4165  1.0870 -0.4434
  590MOL0     H79603   2.223   5.228   4.677  0.1762  1.0888  1.3533
  590MOL0     H79604   2.222   5.440   4.450 -2.9664  0.3755 -2.8007
  590MOL0     H79605   2.220   5.264   4.428  0.3506  2.4107 -2.0474
  590MOL0     H79606   2.014   5.396   4.596  0.7965  3.5758 -2.5953
  590MOL0     H79607   2.002   5.225   4.533  2.8072 -0.9976 -2.9395
  590MOL0     H79608   2.000   5.476   4.368  0.7897 -0.8928  2.2463
  590MOL0     H79609   1.855   5.405   4.425 -1.4823 -0.7870 -3.0598
  590MOL0     H79610   2.007   5.118   4.099  0.9751  0.2073  2.9307
  590MOL0     H79611   2.011   5.157   3.860 -1.2681 -0.0174 -0.3520
  590MOL0     H79612   1.815   5.491   3.492  1.1273 -0.7394  3.2849
  590MOL0     H79613   1.703   5.430   3.284 -0.6457 -1.3407  1.0690
  590MOL0     H79614   1.627   5.029   3.182  2.1271 -0.5964 -2.4203
  590MOL0     H79615   1.527   5.181   3.212 -2.0284 -2.3924 -0.6318
  590MOL0     H79616   1.612   5.105   2.929 -0.3415 -0.0304 -0.1275
  590MOL0     H79617   1.453   5.059   3.002 -0.9593 -0.5080 -0.1768
  590MOL0     H79618   1.392   5.286   3.056 -3.1015 -1.7726 -1.1871
  590MOL0     H79619   1.546   5.344   2.997 -0.0953  0.1245 -2.7221
  590MOL0     H79620   1.334   5.192   2.838 -1.2090  1.0219 -1.1117
  590MOL0     H79621   1.485   5.264   2.780 -1.1582 -2.5967 -0.8102
  590MOL0     H79622   1.237   5.403   2.889  0.8183 -1.6387  1.4252
  590MOL0     H79623   1.294   5.415   2.721  3.0327 -0.4415 -1.0581
  590MOL0     H79624   1.334   5.633   2.822 -3.1903 -1.4117 -0.1735
  590MOL0     H79625   1.407   5.555   2.959 -1.5218 -1.3408 -0.2474
  590MOL0     H79626   1.510   5.563   2.680 -0.4609 -1.8271 -0.3437
  590MOL0     H79627   1.600   5.514   2.842 -1.0780 -0.8590 -0.1608
  590MOL0     H79628   1.682   5.721   2.755 -1.0918  0.2795 -0.9700
  590MOL0     H79629   1.527   5.789   2.766 -1.0829  1.8363  2.6699
  590MOL0     H79630   1.860   5.044   3.285 -5.5619 -0.4968  0.1386
  590MOL0     H79631   1.945   5.074   3.522 -0.4142 -0.9349 -0.8916
  590MOL0     H79632   1.919   5.582   3.950  0.2968  0.2223 -2.0418
  590MOL0     H79633   1.912   5.533   4.177 -0.2161  0.1786  1.0447
  590MOL0     H79634   2.657   5.155   5.637 -0.5326  1.5639  0.1411
  590MOL0     H79635   2.735   5.024   5.815  0.4822  0.1013 -0.0276
  590MOL0     H79636   3.024   5.020   6.218 -0.5328  1.7538  2.1433
  590MOL0     H79637   3.070   4.874   6.391  0.8981  1.4493 -2.7055
  590MOL0     H79638   3.016   4.744   6.657  2.1662  0.9404 -0.6174
  590MOL0     H79639   3.116   4.711   6.525  0.9937 -0.9799  1.9942
  590MOL0     H79640   3.117   4.520   6.705  0.5064 -4.1550 -0.9141
  590MOL0     H79641   3.089   4.466   6.541 -3.2369 -1.1863 -0.5194
  590MOL0     H79642   2.832   4.472   6.605 -2.1043 -3.9855  1.4144
  590MOL0     H79643   2.878   4.498   6.761  1.2256  1.7260 -0.1959
  590MOL0     H79644   2.824   4.263   6.700  0.1463  0.9315 -2.3251
  590MOL0     H79645   2.961   4.267   6.582  0.7815 -3.1272  0.7498
  590MOL0     H79646   3.111   4.173   6.968  0.2972  2.9542  0.3913
  590MOL0     H79647   2.680   4.734   6.410  0.0797 -1.8553 -1.6058
  590MOL0     H79648   2.512   4.800   6.256  3.4815 -3.1166 -0.6930
  590MOL0     H79649   2.531   4.973   6.222  3.4323  2.8025  2.1843
  590MOL0     H79650   2.593   4.849   6.098 -0.9196  2.9046 -0.0976
  591MOL0     O79651   5.736   3.377  11.085 -0.6315  0.4901  0.3824
  591MOL0     C79652   5.734   3.270  11.153  0.0702 -0.7472  0.2379
  591MOL0     O79653   5.710   3.267  11.294 -0.1565 -0.1335  0.2564
  591MOL0     C79654   5.669   3.379  11.360  0.0800  0.7021 -0.9515
  591MOL0     C79655   5.777   3.454  11.393  0.2917 -0.0308 -0.5671
  591MOL0     C79656   5.768   3.578  11.454  0.5236  0.2520 -0.4598
  591MOL0     C79657   5.631   3.623  11.478  0.4224 -0.7083 -0.1508
  591MOL0     O79658   5.601   3.730  11.554  0.2719 -0.3228 -0.4242
  591MOL0     C79659   5.707   3.769  11.650  1.1855  0.7174  0.6091
  591MOL0     C79660   5.656   3.868  11.753 -0.1288 -0.5446 -0.0362
  591MOL0     C79661   5.551   3.824  11.854 -0.1149 -0.8799 -0.2018
  591MOL0     C79662   5.477   3.946  11.909 -0.4360 -0.2811  0.0855
  591MOL0     C79663   5.336   3.919  11.960  0.6052 -0.0323 -0.0088
  591MOL0     C79664   5.331   3.821  12.068 -0.1465  0.7636 -0.3234
  591MOL0     C79665   5.189   3.827  12.151 -0.1084 -1.0658  0.0304
  591MOL0     C79666   5.064   3.788  12.061 -0.5364  0.4613 -0.5487
  591MOL0     N79667   5.093   3.660  12.006 -0.6530  0.1540 -0.7919
  591MOL0     C79668   5.117   3.633  11.878  0.1280 -0.5081  0.7254
  591MOL0     C79669   5.160   3.507  11.881 -0.1938 -0.3264  0.0474
  591MOL0     C79670   5.223   3.437  11.761 -0.2707 -0.1556  0.1601
  591MOL0     C79671   5.185   3.477  11.622 -0.0855  0.1849 -0.8994
  591MOL0     C79672   5.030   3.477  11.596 -0.1878 -0.9404  0.2905
  591MOL0     C79673   4.986   3.567  11.476 -0.7234  0.5808 -0.7819
  591MOL0     O79674   5.026   3.507  11.363  0.0489  0.0269  0.9501
  591MOL0     C79675   4.939   3.412  11.312  0.4472  0.4651 -0.2998
  591MOL0     C79676   4.808   3.387  11.350  0.2536  0.1003 -0.3017
  591MOL0     C79677   4.739   3.285  11.282  0.4467 -0.6527  0.2549
  591MOL0     C79678   4.790   3.226  11.161  0.0065 -0.5680 -0.0666
  591MOL0     C79679   4.708   3.132  11.088  0.8248 -0.4415 -0.0375
  591MOL0     O79680   4.584   3.104  11.139 -0.3250 -0.6042 -0.3012
  591MOL0     C79681   4.513   3.007  11.084  0.0438  0.0297  0.7876
  591MOL0     C79682   4.411   3.027  10.995 -0.8436  0.8941  0.4366
  591MOL0     C79683   4.346   2.923  10.931 -0.1208 -0.9597 -0.8936
  591MOL0     C79684   4.398   2.795  10.931 -0.0898 -0.0987 -0.1172
  591MOL0     O79685   4.346   2.693  10.868 -0.4699  1.2434  0.3457
  591MOL0     C79686   4.245   2.707  10.770  0.2252 -0.4394 -0.5213
  591MOL0     C79687   4.188   2.568  10.742 -0.5343 -0.2605  0.3080
  591MOL0     C79688   4.073   2.549  10.642  0.1099  0.7498  0.2952
  591MOL0     C79689   4.022   2.411  10.630 -0.1390 -0.1453 -0.3302
  591MOL0     C79690   3.930   2.380  10.521 -0.3601  1.0166 -0.4598
  591MOL0     C79691   3.857   2.247  10.536  0.8249  0.2489 -0.0606
  591MOL0     C79692   3.706   2.248  10.494 -0.5097  0.1779 -0.7005
  591MOL0     C79693   3.670   2.143  10.392 -0.3934  0.4696  0.1415
  591MOL0    Cl79694   3.701   1.971  10.458  0.1122  0.2623  0.4046
  591MOL0     C79695   4.503   2.780  11.013 -0.1794 -0.9528 -0.6633
  591MOL0     C79696   4.560   2.879  11.096  0.4910 -0.6898 -0.2429
  591MOL0     O79697   4.754   3.087  10.984 -0.0965 -0.4915 -0.7157
  591MOL0     C79698   4.918   3.260  11.126  0.7432 -0.3942  0.2209
  591MOL0     C79699   4.988   3.352  11.202  0.0221 -0.2261 -0.0058
  591MOL0     N79700   5.145   3.452  12.008 -0.3235 -0.0754 -0.1831
  591MOL0     N79701   5.098   3.550  12.083 -0.5079 -0.2250 -0.0088
  591MOL0     C79702   5.519   3.556  11.441  0.2003  0.2375  0.3815
  591MOL0     C79703   5.544   3.427  11.381  0.8863 -0.8468  0.5145
  591MOL0     C79704   5.733   3.140  11.083 -0.5561  0.1650 -0.1352
  591MOL0     C79705   5.683   3.026  11.146  1.0939 -0.2396  0.2448
  591MOL0     C79706   5.661   2.909  11.070 -0.0726  0.2083 -0.2101
  591MOL0     C79707   5.705   2.897  10.941  0.1947  0.4862  0.9606
  591MOL0     O79708   5.697   2.770  10.872 -0.9080  0.8441  0.1177
  591MOL0     C79709   5.725   2.761  10.731 -0.4173 -0.9963 -0.2531
  591MOL0     C79710   5.873   2.731  10.698  0.1895 -0.9497 -0.3583
  591MOL0     C79711   5.890   2.763  10.548  1.4557  0.5401  0.8919
  591MOL0     C79712   5.828   2.662  10.438  0.2693 -0.7866 -0.9516
  591MOL0     C79713   5.928   2.569  10.383 -0.1677  0.1906 -0.6981
  591MOL0     C79714   6.008   2.491  10.326  0.0289 -0.8026  0.1244
  591MOL0     C79715   5.782   3.002  10.892 -0.1875  0.6658  0.2042
  591MOL0     C79716   5.789   3.126  10.948 -0.2381 -0.1499 -0.2972
  591MOL0     C79717   5.858   3.238  10.873 -1.0477 -0.0220  0.0512
  591MOL0     H79718   5.873   3.417  11.359 -0.3025 -5.4342  2.4627
  591MOL0     H79719   5.855   3.632  11.490  1.3975 -0.1035 -1.9664
  591MOL0     H79720   5.749   3.686  11.707 -0.4429  0.3369  1.2989
  591MOL0     H79721   5.791   3.812  11.595  2.2639 -0.3961  1.3330
  591MOL0     H79722   5.620   3.955  11.697 -1.0312 -1.7116 -1.3526
  591MOL0     H79723   5.738   3.908  11.814 -0.4408 -1.0256  0.7125
  591MOL0     H79724   5.595   3.783  11.946 -1.5594 -2.1498 -0.0336
  591MOL0     H79725   5.486   3.744  11.817  1.6637 -1.0851 -3.1714
  591MOL0     H79726   5.542   3.989  11.986  0.6546  0.2963 -1.1140
  591MOL0     H79727   5.451   4.005  11.820 -0.6110 -1.2662 -0.5242
  591MOL0     H79728   5.292   4.015  11.990  2.8210  1.5791 -1.5725
  591MOL0     H79729   5.279   3.872  11.879  0.6106 -2.0452  1.0822
  591MOL0     H79730   5.353   3.721  12.030 -1.6126  0.8202 -1.3934
  591MOL0     H79731   5.406   3.846  12.144  0.1995  2.3075 -1.1248
  591MOL0     H79732   5.165   3.924  12.195 -1.3886 -1.5446  0.4282
  591MOL0     H79733   5.194   3.748  12.226 -1.9536 -3.8668 -2.5588
  591MOL0     H79734   4.976   3.769  12.124 -0.6827 -0.1239 -0.9200
  591MOL0     H79735   5.042   3.861  11.983 -0.9581 -0.6475 -1.4971
  591MOL0     H79736   5.107   3.693  11.788 -0.6047  0.8967  1.6961
  591MOL0     H79737   5.332   3.446  11.772 -0.5189  0.9007  2.1943
  591MOL0     H79738   5.211   3.328  11.768  1.3290 -0.3870 -0.1812
  591MOL0     H79739   5.226   3.578  11.615  4.4728 -1.3665 -0.2298
  591MOL0     H79740   5.233   3.405  11.555 -3.2689 -5.8627  2.4679
  591MOL0     H79741   4.981   3.527  11.681 -2.8048 -3.3229  0.3291
  591MOL0     H79742   4.991   3.375  11.594 -2.0649 -0.3353  2.0363
  591MOL0     H79743   5.033   3.666  11.479 -1.5295  1.0911 -2.7117
  591MOL0     H79744   4.881   3.595  11.490 -2.1469 -4.6980  1.3110
  591MOL0     H79745   4.753   3.418  11.439  1.3695 -2.0775  1.2458
  591MOL0     H79746   4.638   3.260  11.313  1.4183 -1.3681  3.0994
  591MOL0     H79747   4.374   3.128  10.980 -0.9098  0.7157 -0.7609
  591MOL0     H79748   4.257   2.945  10.874  0.0139  2.0628 -0.0785
  591MOL0     H79749   4.170   2.775  10.811  1.5573  1.1285 -0.5835
  591MOL0     H79750   4.283   2.763  10.684 -2.4348  4.1611  0.9606
  591MOL0     H79751   4.274   2.507  10.712  1.9860  2.8817  0.5547
  591MOL0     H79752   4.162   2.534  10.842  2.0152  1.9726  1.9000
  591MOL0     H79753   3.992   2.616  10.674  0.7541  1.8239 -0.2555
  591MOL0     H79754   4.121   2.575  10.547 -0.5719  3.0972  0.5207
  591MOL0     H79755   3.975   2.373  10.722  1.2918  0.6818  0.7857
  591MOL0     H79756   4.117   2.362  10.610  2.9624  5.2242 -0.5307
  591MOL0     H79757   3.994   2.394  10.434  1.3391  1.5973  0.8237
  591MOL0     H79758   3.858   2.459  10.501 -1.4570 -0.3853 -2.4464
  591MOL0     H79759   3.908   2.178  10.468 -1.8806 -0.6295 -1.3730
  591MOL0     H79760   3.864   2.195  10.631 -3.7573 -0.0622  0.3520
  591MOL0     H79761   3.680   2.346  10.452  0.7827  0.9490  0.2196
  591MOL0     H79762   3.648   2.225  10.584  0.3873  0.6858  0.0339
  591MOL0     H79763   3.565   2.150  10.363 -0.3700  3.0237  0.4260
  591MOL0     H79764   3.727   2.170  10.303  2.8626  1.0435  2.1910
  591MOL0     H79765   4.561   2.688  11.024 -0.9706 -1.3717  0.1172
  591MOL0     H79766   4.641   2.866  11.167 -1.0584  0.0501  1.7617
  591MOL0     H79767   4.962   3.208  11.041 -1.0994 -3.1947  0.8500
  591MOL0     H79768   5.092   3.377  11.181  2.0405 -6.3025  0.6553
  591MOL0     H79769   5.419   3.577  11.478  1.1657  1.5106  2.4311
  591MOL0     H79770   5.464   3.360  11.350  1.0674 -0.7923 -0.0661
  591MOL0     H79771   5.642   3.020  11.246 -2.3501  4.8762 -0.4751
  591MOL0     H79772   5.607   2.825  11.113  2.0422  0.6301  3.7147
  591MOL0     H79773   5.695   2.848  10.671  3.8702  0.7293 -0.2544
  591MOL0     H79774   5.675   2.669  10.700 -2.0626  0.5150 -2.4581
  591MOL0     H79775   5.894   2.625  10.716  2.2498 -0.5115  0.1251
  591MOL0     H79776   5.943   2.799  10.748 -0.2410  1.1769 -2.4496
  591MOL0     H79777   5.998   2.773  10.538  1.7108 -2.1408  0.0231
  591MOL0     H79778   5.839   2.857  10.526  3.3624  1.9499  2.1957
  591MOL0     H79779   5.746   2.602  10.479  1.9801 -1.6446  1.4605
  591MOL0     H79780   5.780   2.720  10.359  0.0583  1.6846  0.8701
  591MOL0     H79781   6.062   2.429  10.257 -0.8078 -0.0106 -1.2964
  591MOL0     H79782   5.811   2.991  10.788  2.7492  1.4385  0.8338
  591MOL0     H79783   5.925   3.296  10.937 -0.0321  1.0882 -1.9252
  591MOL0     H79784   5.917   3.198  10.789 -0.9240 -1.0542  0.6108
  591MOL0     H79785   5.786   3.308  10.829 -0.8687 -0.5400 -1.1126
  592MOL0     O79786   7.043   3.481   7.185 -0.5503 -0.5791 -0.6029
  592MOL0     C79787   7.156   3.505   7.157 -0.5342  0.0953 -0.4882
  592MOL0     O79788   7.262   3.512   7.243  0.2047  0.2031  0.4278
  592MOL0     C79789   7.250   3.509   7.380 -0.5944 -0.2026 -0.0883
  592MOL0     C79790   7.374   3.528   7.445 -0.1053  0.9597 -0.5290
  592MOL0     C79791   7.389   3.499   7.582  0.6673  0.4887 -0.2047
  592MOL0     C79792   7.279   3.478   7.675  1.1714  0.5325  0.4714
  592MOL0     O79793   7.283   3.479   7.810 -0.5919  0.3152 -1.1672
  592MOL0     C79794   7.409   3.430   7.869 -0.4731 -0.6128  0.1741
  592MOL0     C79795   7.417   3.461   8.021  0.1327  0.1951  0.0590
  592MOL0     C79796   7.401   3.613   8.049 -0.3277  0.5557  0.4540
  592MOL0     C79797   7.401   3.642   8.200  0.8480  0.4262 -0.4993
  592MOL0     C79798   7.389   3.802   8.225  0.2674 -0.3930 -0.7104
  592MOL0     C79799   7.434   3.847   8.369 -0.1557 -0.1314 -0.8574
  592MOL0     C79800   7.370   3.766   8.488  0.3027  0.4807  0.1268
  592MOL0     C79801   7.370   3.840   8.627  0.1816  0.7244  0.1516
  592MOL0     N79802   7.495   3.911   8.669  0.0428  0.8620  0.0012
  592MOL0     C79803   7.486   4.020   8.746 -0.1328  0.5301  0.2287
  592MOL0     C79804   7.613   4.051   8.767 -1.7004  0.1084 -0.5687
  592MOL0     C79805   7.648   4.172   8.848  0.0314 -0.1372  0.0401
  592MOL0     C79806   7.777   4.156   8.939 -0.3612  0.3863  0.2301
  592MOL0     C79807   7.787   4.280   9.024 -0.6286 -0.7227 -0.3073
  592MOL0     C79808   7.935   4.322   9.063  0.2151 -0.1835 -0.2810
  592MOL0     O79809   7.979   4.218   9.137  0.4860 -0.0638 -0.7495
  592MOL0     C79810   7.981   4.203   9.277  0.2399 -0.6078  0.5913
  592MOL0     C79811   7.905   4.283   9.359  0.3689  0.0374  0.7943
  592MOL0     C79812   7.905   4.264   9.498  0.1328 -0.4130  1.3937
  592MOL0     C79813   7.988   4.173   9.554 -0.7869 -1.2641 -0.5332
  592MOL0     C79814   7.994   4.149   9.704  0.0954  0.3822 -1.0750
  592MOL0     O79815   8.072   4.037   9.753 -1.0016 -0.3593  0.3107
  592MOL0     C79816   8.070   4.003   9.885 -0.0232  0.0756  0.7308
  592MOL0     C79817   8.058   3.861   9.908  0.7326 -0.0982  0.3607
  592MOL0     C79818   8.063   3.815  10.040 -0.3551  0.0112  0.3007
  592MOL0     C79819   8.085   3.909  10.151 -0.6642 -0.1396  0.3258
  592MOL0     O79820   8.099   3.865  10.284 -0.8704 -0.4941 -0.8708
  592MOL0     C79821   8.164   3.941  10.380 -1.0733  1.2492  0.8876
  592MOL0     C79822   8.185   3.862  10.513  1.2463  1.1560 -0.5930
  592MOL0     C79823   8.072   3.781  10.569  0.0873 -0.7997  0.5464
  592MOL0     C79824   7.970   3.867  10.648 -0.3981 -0.2748  0.1892
  592MOL0     C79825   7.841   3.803  10.699 -0.6515  0.3730 -0.3939
  592MOL0     C79826   7.858   3.779  10.847 -0.3533  0.4599  0.0311
  592MOL0     C79827   7.816   3.896  10.928  0.5091  0.6309  0.5229
  592MOL0     C79828   7.834   3.882  11.076 -0.1838 -0.1282 -0.7457
  592MOL0    Cl79829   7.866   4.045  11.138  0.0975  0.5065 -0.2944
  592MOL0     C79830   8.098   4.051  10.123 -0.0862  0.5197 -0.8915
  592MOL0     C79831   8.090   4.096   9.989  0.6981 -0.6867  0.5781
  592MOL0     O79832   7.912   4.208   9.774 -0.2106 -0.0381  0.1198
  592MOL0     C79833   8.068   4.092   9.470  0.2232 -0.3451  0.2975
  592MOL0     C79834   8.053   4.094   9.334 -0.6174 -0.0597  0.2575
  592MOL0     N79835   7.693   3.948   8.718  0.9541  0.0104  0.1753
  592MOL0     N79836   7.619   3.854   8.667 -0.2821  0.2824  0.5031
  592MOL0     C79837   7.160   3.458   7.602  0.2582  0.1061  0.8817
  592MOL0     C79838   7.145   3.461   7.462 -0.1657  0.6480  0.2127
  592MOL0     C79839   7.196   3.485   7.010 -0.4058  0.1369 -0.4280
  592MOL0     C79840   7.326   3.426   6.984 -0.5892  0.1597 -0.1244
  592MOL0     C79841   7.368   3.405   6.849  1.0570  1.0735 -0.0430
  592MOL0     C79842   7.285   3.423   6.741  0.1462 -0.4090  1.2448
  592MOL0     O79843   7.350   3.401   6.613  0.1323  0.8001 -0.2215
  592MOL0     C79844   7.259   3.425   6.509  0.8126  0.8404 -0.0574
  592MOL0     C79845   7.333   3.433   6.379 -0.5574  0.4823 -0.0123
  592MOL0     C79846   7.235   3.421   6.263 -0.2203 -0.6357  0.2176
  592MOL0     C79847   7.295   3.415   6.127 -0.8498 -0.1143 -0.1851
  592MOL0     C79848   7.187   3.445   6.033  0.7844  0.0937 -0.5715
  592MOL0     C79849   7.099   3.457   5.946 -0.7564 -0.1603  0.2282
  592MOL0     C79850   7.156   3.483   6.768  0.2908 -0.4130  0.4792
  592MOL0     C79851   7.106   3.507   6.895 -0.8259 -0.9490 -0.3247
  592MOL0     C79852   6.971   3.561   6.917 -0.2367 -0.9930 -0.5090
  592MOL0     H79853   7.464   3.555   7.390  1.6227 -3.2436 -0.1439
  592MOL0     H79854   7.488   3.510   7.625  0.6605 -0.3697  0.0436
  592MOL0     H79855   7.423   3.322   7.857 -2.3728 -1.3527  3.4895
  592MOL0     H79856   7.497   3.479   7.826  0.1901 -1.6356  0.3233
  592MOL0     H79857   7.509   3.430   8.071  0.7350 -0.0338 -1.1440
  592MOL0     H79858   7.337   3.398   8.060  3.2789 -2.5005  2.7618
  592MOL0     H79859   7.307   3.643   8.000  0.6588  0.7717 -1.3878
  592MOL0     H79860   7.486   3.666   8.004 -1.3515 -0.2715 -2.6987
  592MOL0     H79861   7.318   3.587   8.246 -0.9686  4.3132  1.3378
  592MOL0     H79862   7.492   3.616   8.254 -0.1627  3.0054  2.8242
  592MOL0     H79863   7.457   3.856   8.159  1.2908  1.0883  1.4537
  592MOL0     H79864   7.288   3.840   8.204 -0.6618 -1.3290  1.6674
  592MOL0     H79865   7.542   3.830   8.376 -0.2330 -0.6218 -0.7778
  592MOL0     H79866   7.413   3.953   8.384 -0.1300  0.2615 -3.2647
  592MOL0     H79867   7.422   3.670   8.493 -2.2027 -0.9318  0.8139
  592MOL0     H79868   7.264   3.743   8.477  0.1087 -1.2839  4.1499
  592MOL0     H79869   7.285   3.910   8.627  1.4379  2.2975  0.2241
  592MOL0     H79870   7.341   3.767   8.703 -0.3554  1.6318  0.8523
  592MOL0     H79871   7.400   4.081   8.774 -0.3576 -0.5603  2.1643
  592MOL0     H79872   7.674   4.248   8.774 -1.0285  0.6226  0.4254
  592MOL0     H79873   7.563   4.217   8.900  0.3435  2.6013 -1.6336
  592MOL0     H79874   7.774   4.077   9.015 -2.5398  0.4011  0.2104
  592MOL0     H79875   7.870   4.137   8.885  2.0909  0.6220  3.9836
  592MOL0     H79876   7.726   4.271   9.114  0.7130  3.4038  1.2337
  592MOL0     H79877   7.765   4.376   8.976  0.7064 -0.1940  0.1009
  592MOL0     H79878   7.946   4.409   9.130 -1.2110 -0.3271  0.1669
  592MOL0     H79879   8.005   4.332   8.979  0.1503  2.0316 -0.1519
  592MOL0     H79880   7.836   4.362   9.330  3.0118  3.8368  3.7362
  592MOL0     H79881   7.842   4.332   9.555 -1.7308  0.3711 -1.4047
  592MOL0     H79882   8.038   3.790   9.828  1.0621  2.0790 -1.7774
  592MOL0     H79883   8.043   3.711  10.061  0.8485  0.1937  2.7499
  592MOL0     H79884   8.260   3.965  10.334 -1.4151  0.4645 -0.2732
  592MOL0     H79885   8.112   4.034  10.404 -2.1459  0.7505  0.5257
  592MOL0     H79886   8.260   3.784  10.502  2.1290  1.7625  0.8867
  592MOL0     H79887   8.226   3.920  10.596  0.6225 -1.1546  1.4179
  592MOL0     H79888   8.024   3.726  10.487 -0.2964  0.1828  0.1013
  592MOL0     H79889   8.118   3.711  10.640  0.5438 -1.5074 -0.4137
  592MOL0     H79890   7.931   3.941  10.576 -2.5941  0.8710  2.3773
  592MOL0     H79891   8.026   3.926  10.722  2.6921 -1.4687 -1.0494
  592MOL0     H79892   7.825   3.712  10.640 -2.0193  0.5625 -0.3467
  592MOL0     H79893   7.757   3.872  10.689 -1.6075 -0.9964 -2.9691
  592MOL0     H79894   7.796   3.692  10.869 -2.4795  2.6215  3.4642
  592MOL0     H79895   7.960   3.742  10.865 -0.8226 -1.2078 -0.5367
  592MOL0     H79896   7.707   3.904  10.921  0.1897 -3.0995 -1.2895
  592MOL0     H79897   7.861   3.985  10.884 -1.5258  1.2181 -0.4792
  592MOL0     H79898   7.738   3.847  11.113 -0.4816  1.2662 -0.1342
  592MOL0     H79899   7.910   3.808  11.104 -0.9661 -1.1696 -1.3026
  592MOL0     H79900   8.102   4.117  10.209  1.2685 -0.5040 -0.1268
  592MOL0     H79901   8.106   4.200   9.960 -0.0295 -1.1703 -1.7886
  592MOL0     H79902   8.149   4.031   9.510 -2.3263 -3.0111  1.7535
  592MOL0     H79903   8.119   4.034   9.271 -1.2174 -2.4500  1.7594
  592MOL0     H79904   7.064   3.435   7.648 -0.6798 -0.0459 -1.0506
  592MOL0     H79905   7.045   3.438   7.426 -0.3354  0.7371  0.6162
  592MOL0     H79906   7.390   3.393   7.065  2.0659  0.1356 -2.0777
  592MOL0     H79907   7.463   3.355   6.834 -0.0872 -2.0431  2.1034
  592MOL0     H79908   7.200   3.517   6.520 -2.8763 -1.2441 -0.7538
  592MOL0     H79909   7.183   3.348   6.495 -2.7524  3.5961  2.2628
  592MOL0     H79910   7.406   3.351   6.379 -1.4979 -0.4365 -2.2159
  592MOL0     H79911   7.385   3.528   6.365  1.2805 -0.1876  1.8648
  592MOL0     H79912   7.161   3.502   6.271  1.4525  1.3200 -2.2795
  592MOL0     H79913   7.183   3.327   6.281 -2.1985 -0.0121 -1.7919
  592MOL0     H79914   7.356   3.506   6.127  0.7007 -0.9509  3.5423
  592MOL0     H79915   7.359   3.332   6.098  1.2099  0.8531  1.3500
  592MOL0     H79916   7.024   3.449   5.871  0.3978  2.8074 -1.4432
  592MOL0     H79917   7.087   3.505   6.688 -1.7678  0.1874  2.3115
  592MOL0     H79918   6.974   3.634   6.998  0.9531 -1.0317 -0.4987
  592MOL0     H79919   6.941   3.617   6.828 -0.7442  1.7350  1.2768
  592MOL0     H79920   6.905   3.476   6.937 -0.7341  0.1401  3.4725
  593MOL0     O79921  10.766   1.451   2.288  0.0095 -0.6461 -0.1792
  593MOL0     C79922  10.677   1.533   2.289 -0.6952 -0.1863 -0.3119
  593MOL0     O79923  10.686   1.655   2.349 -0.0557 -0.0607  0.0954
  593MOL0     C79924  10.809   1.694   2.387  0.3195  0.1389  0.7745
  593MOL0     C79925  10.893   1.759   2.291 -0.6337  0.0680 -0.5149
  593MOL0     C79926  11.012   1.808   2.333  0.5936 -0.7962 -0.2120
  593MOL0     C79927  11.055   1.794   2.466  0.6979  0.0721 -0.0636
  593MOL0     O79928  11.179   1.836   2.510 -0.4035 -0.4743  0.3868
  593MOL0     C79929  11.270   1.918   2.434 -0.0828 -0.2122  0.2345
  593MOL0     C79930  11.344   2.014   2.538  0.1018  0.3047 -0.4273
  593MOL0     C79931  11.357   1.961   2.681  0.2525 -0.0664  0.3100
  593MOL0     C79932  11.449   2.057   2.756 -0.4913 -0.7781  0.4788
  593MOL0     C79933  11.523   1.986   2.867 -0.2479  0.1351 -0.3619
  593MOL0     C79934  11.606   2.079   2.954  0.1187  0.5517 -0.5619
  593MOL0     C79935  11.705   2.169   2.877 -1.2237 -0.6851  0.0004
  593MOL0     C79936  11.834   2.091   2.837 -0.4484 -0.0169 -0.0904
  593MOL0     N79937  11.946   2.178   2.777  0.5364 -0.8168 -0.3863
  593MOL0     C79938  11.935   2.257   2.664  0.6477 -0.4676 -0.1466
  593MOL0     C79939  12.070   2.264   2.631  0.2610 -0.5249 -0.0148
  593MOL0     C79940  12.113   2.351   2.523 -0.5889  0.5515  0.4725
  593MOL0     C79941  12.153   2.262   2.402 -0.7185 -0.5269  0.5919
  593MOL0     C79942  12.236   2.344   2.300  0.4674  0.4203  0.2450
  593MOL0     C79943  12.188   2.484   2.270 -0.7072 -0.3355  0.0657
  593MOL0     O79944  12.052   2.482   2.214 -0.3160 -0.5815  0.6680
  593MOL0     C79945  12.043   2.424   2.092  0.4261 -0.4534  1.0354
  593MOL0     C79946  11.916   2.374   2.058 -0.2824 -0.3982 -0.4069
  593MOL0     C79947  11.890   2.309   1.938 -0.1875  0.5251 -0.1990
  593MOL0     C79948  11.987   2.298   1.840  0.5917  0.2445 -0.2635
  593MOL0     C79949  11.957   2.229   1.720  0.6469  0.0406 -0.1340
  593MOL0     O79950  11.845   2.146   1.723 -0.6312  0.5255  0.0386
  593MOL0     C79951  11.831   2.055   1.621 -0.0051  0.5691 -0.5041
  593MOL0     C79952  11.707   1.999   1.628  0.0431  0.4736  0.5738
  593MOL0     C79953  11.656   1.926   1.519 -1.2257  0.0503 -0.3387
  593MOL0     C79954  11.740   1.895   1.410 -0.4512 -0.1700 -0.1164
  593MOL0     O79955  11.708   1.814   1.305  0.5866 -0.6929  0.0083
  593MOL0     C79956  11.571   1.768   1.312 -0.3319  0.7744 -1.1786
  593MOL0     C79957  11.562   1.694   1.174 -0.2419  0.0874 -0.1613
  593MOL0     C79958  11.450   1.581   1.158 -0.6722 -0.3311  0.7245
  593MOL0     C79959  11.465   1.521   1.022 -0.2721 -0.5912  0.3024
  593MOL0     C79960  11.328   1.472   0.971 -0.3655  0.4298 -0.4695
  593MOL0     C79961  11.240   1.576   0.907 -0.7511  0.3976 -0.8029
  593MOL0     C79962  11.135   1.494   0.828 -0.2753  0.4029  0.1053
  593MOL0     C79963  11.040   1.584   0.770  0.8500  0.3703  0.2529
  593MOL0    Cl79964  10.885   1.510   0.713 -0.2433  0.5714  0.4240
  593MOL0     C79965  11.869   1.951   1.413  0.4958  0.4861 -0.2118
  593MOL0     C79966  11.919   2.023   1.513  0.2913 -0.1053 -0.1806
  593MOL0     O79967  12.018   2.271   1.621  0.7684 -0.5867  1.0096
  593MOL0     C79968  12.114   2.348   1.869  0.3447 -0.1970 -0.5239
  593MOL0     C79969  12.147   2.397   1.996  0.0202  0.5492 -0.8892
  593MOL0     N79970  12.147   2.197   2.724 -0.2729  0.7342  0.2443
  593MOL0     N79971  12.069   2.157   2.820 -0.7277 -0.0156  0.1012
  593MOL0     C79972  10.982   1.726   2.557  0.4528  0.1505  0.5125
  593MOL0     C79973  10.855   1.675   2.519  0.5599 -0.3451 -0.0539
  593MOL0     C79974  10.536   1.507   2.235 -0.2820 -0.1773  0.5800
  593MOL0     C79975  10.468   1.616   2.189  0.2600  0.5072  0.4555
  593MOL0     C79976  10.338   1.604   2.127  0.3662  0.3341  0.3953
  593MOL0     C79977  10.271   1.481   2.120  0.5163  0.6541  0.8875
  593MOL0     O79978  10.142   1.465   2.068  0.9897  0.6036  0.3477
  593MOL0     C79979  10.078   1.577   1.999  1.4115  0.4751 -0.4605
  593MOL0     C79980   9.948   1.544   1.922 -0.2905 -0.0907 -0.4977
  593MOL0     C79981   9.830   1.525   2.018  0.0688  0.2944 -0.7593
  593MOL0     C79982   9.702   1.493   1.936  0.4220 -0.5227 -0.2814
  593MOL0     C79983   9.602   1.456   2.044  0.0030 -0.3511 -0.8928
  593MOL0     C79984   9.531   1.428   2.132  0.1466 -0.0906 -0.6300
  593MOL0     C79985  10.331   1.374   2.173 -0.8838  0.8259 -0.2016
  593MOL0     C79986  10.464   1.377   2.219  0.2245  0.1976 -0.3273
  593MOL0     C79987  10.551   1.257   2.236 -0.3996 -0.4369  0.2498
  593MOL0     H79988  10.857   1.755   2.189 -2.9802  0.9537  0.2084
  593MOL0     H79989  11.085   1.843   2.261  0.6336  0.9592  0.6194
  593MOL0     H79990  11.335   1.861   2.368  0.1858  0.7242 -0.3160
  593MOL0     H79991  11.221   1.977   2.356  0.0936 -0.8437 -0.3615
  593MOL0     H79992  11.296   2.111   2.549  2.3102  1.1823  4.2832
  593MOL0     H79993  11.443   2.032   2.495 -0.6770  2.1455 -1.5155
  593MOL0     H79994  11.401   1.861   2.692 -0.9068 -0.8885 -1.8802
  593MOL0     H79995  11.255   1.963   2.720  0.6940 -1.0110  1.5828
  593MOL0     H79996  11.539   2.076   2.698  1.6168  1.3468  4.0711
  593MOL0     H79997  11.393   2.146   2.788 -0.5706  0.0255 -1.6993
  593MOL0     H79998  11.457   1.945   2.944  0.6973 -1.6054 -0.4227
  593MOL0     H79999  11.584   1.910   2.818  1.2858  0.4223  1.0056
  593MOL0     H80000  11.529   2.139   3.004  0.1470 -0.5903  0.9008
  593MOL0     H80001  11.661   2.022   3.029 -4.4431 -3.4954  0.1661
  593MOL0     H80002  11.728   2.248   2.949  1.4126 -1.7294  0.4371
  593MOL0     H80003  11.669   2.205   2.781  0.5802  0.6133 -0.2495
  593MOL0     H80004  11.881   2.049   2.926 -2.8572 -2.3067  0.2320
  593MOL0     H80005  11.807   2.008   2.771  0.7672  1.0702 -2.0592
  593MOL0     H80006  11.848   2.307   2.623 -0.0513 -1.0708  0.5751
  593MOL0     H80007  12.021   2.400   2.489 -1.7821 -2.0730 -0.3493
  593MOL0     H80008  12.198   2.410   2.556  2.5135 -2.9119 -0.6656
  593MOL0     H80009  12.209   2.174   2.436 -0.8977 -1.0451 -0.4162
  593MOL0     H80010  12.060   2.221   2.361  0.1193 -0.5570 -1.3844
  593MOL0     H80011  12.259   2.288   2.209 -0.6884 -0.8866  0.7182
  593MOL0     H80012  12.332   2.357   2.351  1.3493  1.3573 -1.5527
  593MOL0     H80013  12.263   2.529   2.204 -1.4867 -0.5607 -1.0177
  593MOL0     H80014  12.175   2.552   2.354 -4.5399  1.3475 -1.6148
  593MOL0     H80015  11.833   2.390   2.127 -1.3019  5.0132 -2.4355
  593MOL0     H80016  11.794   2.264   1.919 -0.1547  0.7511 -0.9346
  593MOL0     H80017  11.646   2.025   1.714  2.3543  1.0638  2.1277
  593MOL0     H80018  11.558   1.881   1.537 -1.1395  0.6927  2.1134
  593MOL0     H80019  11.561   1.685   1.383 -0.3035  0.4911 -1.5066
  593MOL0     H80020  11.485   1.834   1.323 -1.7952 -1.4422  2.5859
  593MOL0     H80021  11.557   1.771   1.096  0.8002 -1.6027 -1.9869
  593MOL0     H80022  11.656   1.644   1.153  0.8815  0.2664  3.6488
  593MOL0     H80023  11.445   1.502   1.233 -0.1859 -2.3060 -1.2167
  593MOL0     H80024  11.355   1.635   1.167 -1.6069 -0.6547 -4.2927
  593MOL0     H80025  11.531   1.434   1.022  0.3373 -0.2131 -2.8090
  593MOL0     H80026  11.511   1.591   0.952  1.6559 -0.2854  1.7777
  593MOL0     H80027  11.274   1.427   1.055 -0.3863  0.4422 -0.4769
  593MOL0     H80028  11.352   1.406   0.888  2.3847  0.9651 -0.2148
  593MOL0     H80029  11.186   1.640   0.978  0.2258 -0.8215  1.1387
  593MOL0     H80030  11.296   1.634   0.833 -2.4268  1.7023 -1.1195
  593MOL0     H80031  11.093   1.423   0.901  0.1022  0.1264  0.0533
  593MOL0     H80032  11.181   1.438   0.747  1.3402 -0.1354  1.3335
  593MOL0     H80033  11.014   1.663   0.840  0.0335 -0.9869  1.5595
  593MOL0     H80034  11.084   1.629   0.681  2.1528 -0.6369  0.3693
  593MOL0     H80035  11.925   1.931   1.322 -2.2073 -3.6794 -1.2459
  593MOL0     H80036  12.017   2.066   1.494 -0.8629  0.9865 -4.9325
  593MOL0     H80037  12.184   2.331   1.787  0.9583 -1.5750  0.2472
  593MOL0     H80038  12.247   2.437   2.004 -1.0760  3.0968  3.4008
  593MOL0     H80039  11.009   1.710   2.661 -0.7344  2.0860  1.1801
  593MOL0     H80040  10.785   1.632   2.590 -0.5423  2.1945  0.5169
  593MOL0     H80041  10.517   1.713   2.200 -0.8024  0.9938  1.0904
  593MOL0     H80042  10.287   1.691   2.088  0.8803  0.1243 -0.7742
  593MOL0     H80043  10.140   1.633   1.929 -1.2703  2.2070 -1.6222
  593MOL0     H80044  10.031   1.645   2.071 -0.5251 -0.0841 -1.1243
  593MOL0     H80045   9.951   1.444   1.878  0.8652 -0.4725  0.3954
  593MOL0     H80046   9.929   1.614   1.840  1.1474 -1.6429 -2.2600
  593MOL0     H80047   9.832   1.619   2.074  5.2166  0.2456 -0.4352
  593MOL0     H80048   9.861   1.447   2.088 -2.1310  1.1606  1.3708
  593MOL0     H80049   9.665   1.575   1.874 -0.5599 -2.4509 -2.3417
  593MOL0     H80050   9.711   1.407   1.870  0.6768  1.2060 -2.6292
  593MOL0     H80051   9.462   1.393   2.206 -1.7930 -1.1429 -2.7708
  593MOL0     H80052  10.269   1.285   2.175  0.7647 -0.3554  0.4163
  593MOL0     H80053  10.599   1.254   2.334 -1.5972  0.1985  0.8765
  593MOL0     H80054  10.490   1.169   2.255 -0.1422 -0.7273 -0.2486
  593MOL0     H80055  10.611   1.236   2.147 -0.5551  0.0027  0.0367
  594MOL0     O80056   0.827   4.204   7.387  0.0743 -1.0529  0.1675
  594MOL0     C80057   0.772   4.176   7.494  0.2546  0.7621 -1.1880
  594MOL0     O80058   0.779   4.055   7.554  0.1502 -0.4759 -0.1986
  594MOL0     C80059   0.853   3.949   7.509  0.5648  0.7025 -0.2106
  594MOL0     C80060   0.824   3.816   7.538 -0.6008  0.2441  0.3093
  594MOL0     C80061   0.906   3.708   7.495 -0.0534 -0.3027  0.1195
  594MOL0     C80062   1.023   3.725   7.433 -0.0522 -0.0631  0.1568
  594MOL0     O80063   1.116   3.628   7.400 -0.3505  0.2990  0.4035
  594MOL0     C80064   1.086   3.493   7.435 -0.0644 -0.3574  0.0909
  594MOL0     C80065   1.191   3.394   7.367 -0.6300  0.9037 -0.7091
  594MOL0     C80066   1.139   3.324   7.238 -0.5894 -1.0201 -0.2524
  594MOL0     C80067   1.226   3.213   7.175  0.5662 -0.0260 -0.4975
  594MOL0     C80068   1.155   3.153   7.050  0.0457  0.7180  0.4535
  594MOL0     C80069   1.122   3.247   6.931  0.2774 -0.4736  0.6976
  594MOL0     C80070   1.017   3.172   6.838  0.2978 -0.8445  0.1775
  594MOL0     C80071   0.868   3.195   6.862 -0.5207  0.0765 -0.5838
  594MOL0     N80072   0.791   3.130   6.748 -0.7978 -1.3682 -0.3779
  594MOL0     C80073   0.768   3.171   6.616  1.0708  1.3460 -0.8727
  594MOL0     C80074   0.700   3.067   6.564 -0.3209 -1.0359  0.1288
  594MOL0     C80075   0.654   3.056   6.433 -0.9938  0.0013  0.9260
  594MOL0     C80076   0.501   3.078   6.422 -0.0231 -0.5209  0.7010
  594MOL0     C80077   0.473   3.103   6.274 -0.4016 -0.1247  0.8933
  594MOL0     C80078   0.324   3.084   6.231 -0.3909 -0.2879  0.2914
  594MOL0     O80079   0.299   2.953   6.188  0.0219 -0.1902  0.7150
  594MOL0     C80080   0.344   2.915   6.067  0.6672  0.1252  0.1854
  594MOL0     C80081   0.325   2.784   6.030  0.9749 -0.3986 -0.0413
  594MOL0     C80082   0.381   2.740   5.911  0.1835  0.5743 -0.8789
  594MOL0     C80083   0.472   2.815   5.833  0.1508 -0.6662  0.2908
  594MOL0     C80084   0.542   2.763   5.710 -0.3155 -0.6547  0.5617
  594MOL0     O80085   0.504   2.642   5.677  0.0427  0.2268 -0.2364
  594MOL0     C80086   0.581   2.558   5.600  0.5509  0.2744  0.2397
  594MOL0     C80087   0.707   2.586   5.541 -0.0178 -0.6628 -0.3690
  594MOL0     C80088   0.755   2.508   5.441 -0.3096  0.2576  0.2507
  594MOL0     C80089   0.672   2.401   5.383  0.0486  0.7582 -0.3363
  594MOL0     O80090   0.706   2.348   5.262  0.6547  0.7165 -0.7134
  594MOL0     C80091   0.653   2.220   5.210 -0.0372 -0.3711  0.5005
  594MOL0     C80092   0.767   2.130   5.255  0.5090  0.4912  0.5268
  594MOL0     C80093   0.881   2.146   5.154 -0.2692  0.3559  0.4632
  594MOL0     C80094   1.020   2.096   5.213 -0.2807 -1.6167  0.4972
  594MOL0     C80095   1.147   2.110   5.112  0.0452  0.4437  0.6767
  594MOL0     C80096   1.279   2.065   5.184  0.8844  0.0005  0.9039
  594MOL0     C80097   1.403   2.097   5.107  0.5774 -0.7021  0.5187
  594MOL0     C80098   1.542   2.041   5.164 -0.1407 -0.0078  0.0530
  594MOL0    Cl80099   1.554   2.117   5.316  0.2883 -0.4891 -0.2988
  594MOL0     C80100   0.560   2.369   5.448  0.2212  0.0587  0.4932
  594MOL0     C80101   0.512   2.444   5.559 -0.0532  0.5337  0.1102
  594MOL0     O80102   0.629   2.829   5.653 -0.7125  0.5128  0.6601
  594MOL0     C80103   0.469   2.954   5.865 -0.8171 -0.1240 -1.0842
  594MOL0     C80104   0.409   3.004   5.977 -0.6287  0.3400 -0.0306
  594MOL0     N80105   0.676   2.974   6.666 -0.3271  0.8224  0.1293
  594MOL0     N80106   0.722   3.018   6.774  0.3699  0.3706  0.4043
  594MOL0     C80107   1.068   3.862   7.421  0.8373 -0.1313 -0.2259
  594MOL0     C80108   0.982   3.966   7.453 -0.2512  0.0179  0.1251
  594MOL0     C80109   0.704   4.283   7.563  0.1151  0.0505 -0.1475
  594MOL0     C80110   0.615   4.255   7.662 -0.3204 -0.1821 -0.0750
  594MOL0     C80111   0.536   4.348   7.723  0.2698 -1.1896  0.4844
  594MOL0     C80112   0.552   4.488   7.704  0.8509 -0.9616  0.3489
  594MOL0     O80113   0.488   4.583   7.769 -0.1835 -0.1256  0.3753
  594MOL0     C80114   0.347   4.589   7.745 -0.9694  0.8170 -0.3981
  594MOL0     C80115   0.287   4.656   7.871  0.5546 -0.4067  0.1192
  594MOL0     C80116   0.172   4.741   7.818 -1.0297  1.0484 -0.5151
  594MOL0     C80117   0.124   4.846   7.915 -0.4461 -0.6194  0.1954
  594MOL0     C80118   0.072   4.783   8.044  0.5280  0.4619  0.4873
  594MOL0     C80119   0.034   4.735   8.148  0.9986  0.1094  0.8900
  594MOL0     C80120   0.643   4.522   7.606 -0.2390 -0.4051  0.0200
  594MOL0     C80121   0.719   4.425   7.535  0.7756 -0.1673  0.7856
  594MOL0     C80122   0.826   4.490   7.446 -0.2330  0.2758 -0.0616
  594MOL0     H80123   0.727   3.796   7.581 -1.1587  1.0197 -0.5504
  594MOL0     H80124   0.877   3.606   7.519  2.1741 -0.9937  0.1293
  594MOL0     H80125   1.081   3.473   7.542 -1.5431  0.1471  0.1257
  594MOL0     H80126   0.989   3.479   7.387  0.7846 -3.7004 -0.9573
  594MOL0     H80127   1.209   3.310   7.436 -0.8197  1.3619 -0.0954
  594MOL0     H80128   1.283   3.451   7.350 -1.7652  3.4092  0.9384
  594MOL0     H80129   1.133   3.403   7.163  1.3288 -0.0473  0.5419
  594MOL0     H80130   1.042   3.281   7.262 -0.4878 -0.3431  1.4772
  594MOL0     H80131   1.332   3.233   7.152  1.4746  1.7192  4.0733
  594MOL0     H80132   1.239   3.135   7.251  2.1263  0.1360 -0.5494
  594MOL0     H80133   1.215   3.074   7.005 -3.4924 -0.9367 -1.8280
  594MOL0     H80134   1.066   3.107   7.093  0.2256  0.2268  0.3068
  594MOL0     H80135   1.065   3.334   6.966  1.4278 -0.0688  1.6306
  594MOL0     H80136   1.213   3.269   6.875  0.1035 -3.1334 -0.7479
  594MOL0     H80137   1.040   3.067   6.821 -0.2339 -0.8805 -0.3705
  594MOL0     H80138   1.040   3.218   6.741  2.7797 -1.1934  0.5359
  594MOL0     H80139   0.833   3.145   6.953 -1.9369  0.8724 -0.6581
  594MOL0     H80140   0.840   3.300   6.870 -0.3821  0.0035  1.0716
  594MOL0     H80141   0.787   3.267   6.569  2.4506  2.4477  1.7181
  594MOL0     H80142   0.707   3.130   6.372  2.5211 -2.8889  0.0979
  594MOL0     H80143   0.682   2.957   6.394 -0.8017 -0.1774  1.5069
  594MOL0     H80144   0.442   2.992   6.455  1.6887 -2.0237  0.0572
  594MOL0     H80145   0.476   3.169   6.476  0.6116 -0.6913  1.3077
  594MOL0     H80146   0.520   3.042   6.197 -0.0062  1.6669 -0.3558
  594MOL0     H80147   0.496   3.208   6.254 -2.0357  0.1093  0.0338
  594MOL0     H80148   0.278   3.152   6.159 -2.6016 -1.9501  0.0403
  594MOL0     H80149   0.273   3.098   6.327 -2.9658 -0.6976 -0.9398
  594MOL0     H80150   0.257   2.714   6.079 -0.6628  1.4576  0.4529
  594MOL0     H80151   0.374   2.637   5.878 -0.2934  1.6674 -4.6269
  594MOL0     H80152   0.777   2.663   5.569  0.8967 -1.2403 -0.9982
  594MOL0     H80153   0.857   2.529   5.410 -0.3773  0.0999 -0.0791
  594MOL0     H80154   0.559   2.181   5.248 -1.8974  1.5235 -1.8408
  594MOL0     H80155   0.647   2.227   5.101  0.9453  2.1739  0.5367
  594MOL0     H80156   0.808   2.144   5.355  1.8449 -0.7150  0.1663
  594MOL0     H80157   0.728   2.028   5.252  2.5716 -0.3002 -1.0261
  594MOL0     H80158   0.857   2.095   5.060  1.2091 -0.1680  0.3426
  594MOL0     H80159   0.899   2.248   5.117  3.2350  0.2759  1.5609
  594MOL0     H80160   1.002   1.991   5.238 -0.8978 -2.0161 -1.4568
  594MOL0     H80161   1.033   2.170   5.294 -1.0311  0.8915 -1.5380
  594MOL0     H80162   1.166   2.215   5.088 -0.9429  0.9339  1.9122
  594MOL0     H80163   1.140   2.051   5.020  2.8300 -0.5875  1.0024
  594MOL0     H80164   1.271   2.110   5.283 -2.6119  0.0718  0.7291
  594MOL0     H80165   1.276   1.955   5.192  1.2715  0.0468  1.8885
  594MOL0     H80166   1.417   2.205   5.094 -3.2955 -0.1385 -0.2842
  594MOL0     H80167   1.387   2.060   5.005 -0.5584 -0.6284  0.6544
  594MOL0     H80168   1.547   1.932   5.160 -0.2325  0.0100 -0.6145
  594MOL0     H80169   1.622   2.083   5.103  0.9770 -2.0994 -0.0345
  594MOL0     H80170   0.502   2.282   5.417 -2.8157  1.8750  0.6775
  594MOL0     H80171   0.423   2.434   5.620 -0.9167  0.9390 -1.0405
  594MOL0     H80172   0.515   3.028   5.801  0.7682 -1.7721 -1.9335
  594MOL0     H80173   0.426   3.109   5.996  0.1918  0.1108  0.5541
  594MOL0     H80174   1.161   3.893   7.375  0.0548  2.1819 -0.3558
  594MOL0     H80175   1.022   4.057   7.410  0.4302  0.4960  1.6906
  594MOL0     H80176   0.594   4.153   7.692  0.2816 -0.9022 -1.9394
  594MOL0     H80177   0.468   4.317   7.802  2.4284  1.4481  3.6492
  594MOL0     H80178   0.317   4.486   7.725  2.3975 -0.5497  0.8549
  594MOL0     H80179   0.326   4.648   7.655  0.3555  1.4701 -0.3007
  594MOL0     H80180   0.355   4.729   7.916 -0.8782  1.9239 -1.3326
  594MOL0     H80181   0.242   4.586   7.943  2.1102 -0.3592  1.1894
  594MOL0     H80182   0.081   4.691   7.784 -1.5036  2.4790 -1.4396
  594MOL0     H80183   0.197   4.796   7.727 -0.5764 -2.8854 -2.9919
  594MOL0     H80184   0.195   4.929   7.928 -1.2704  0.6772 -2.8364
  594MOL0     H80185   0.038   4.900   7.874  0.0368  0.6560  0.7927
  594MOL0     H80186  -0.003   4.699   8.242 -4.2056  0.6776 -0.6106
  594MOL0     H80187   0.668   4.627   7.599 -1.0881  0.4771  5.6909
  594MOL0     H80188   0.827   4.439   7.349 -1.9237  1.0645 -0.5394
  594MOL0     H80189   0.811   4.595   7.419  1.4348 -0.3766 -4.3481
  594MOL0     H80190   0.919   4.481   7.501  0.8629  0.1470 -1.8502
  595MOL0     O80191   1.144  10.142  11.425 -0.1540  0.0202  0.1921
  595MOL0     C80192   1.063  10.159  11.519  0.4615  0.5265  0.5246
  595MOL0     O80193   0.994  10.279  11.537  0.1289  0.4669  0.2623
  595MOL0     C80194   0.992  10.372  11.441  0.1705  0.1470 -0.4035
  595MOL0     C80195   0.875  10.409  11.369 -0.3044 -0.1545 -0.1691
  595MOL0     C80196   0.894  10.518  11.280 -0.0554 -0.4769 -0.0393
  595MOL0     C80197   1.015  10.596  11.268  0.0194  0.3177  0.7620
  595MOL0     O80198   1.032  10.711  11.186 -0.4537  0.5002 -0.5176
  595MOL0     C80199   1.163  10.772  11.178  0.3797 -0.3640  0.5591
  595MOL0     C80200   1.170  10.892  11.085 -0.2609 -0.4520  0.3406
  595MOL0     C80201   1.035  10.971  11.056  0.6667  0.9272  0.4803
  595MOL0     C80202   1.045  11.077  10.946 -0.5796  1.3486  0.9019
  595MOL0     C80203   1.021  11.217  11.003 -0.0597  0.4317 -0.7467
  595MOL0     C80204   1.127  11.254  11.121 -0.0724  0.0324  0.6523
  595MOL0     C80205   1.074  11.365  11.220 -0.0507  0.0943 -0.1863
  595MOL0     C80206   1.045  11.498  11.152  1.2138 -0.3578  0.5463
  595MOL0     N80207   0.968  11.575  11.248  1.4606  0.6612 -0.6189
  595MOL0     C80208   0.828  11.566  11.269 -0.2715 -1.0707 -0.0214
  595MOL0     C80209   0.797  11.635  11.381 -0.4868  0.1325  0.9436
  595MOL0     C80210   0.668  11.664  11.422  0.3750 -0.5563  0.3291
  595MOL0     C80211   0.609  11.787  11.352 -0.1230 -0.1900 -0.3665
  595MOL0     C80212   0.452  11.773  11.363 -1.2991  0.2895  0.2911
  595MOL0     C80213   0.378  11.884  11.300  0.1210 -0.1082  0.3039
  595MOL0     O80214   0.241  11.868  11.332 -0.4022 -0.1412 -0.5992
  595MOL0     C80215   0.155  11.945  11.256  0.2840  0.0950  0.4469
  595MOL0     C80216   0.072  11.871  11.168 -0.4053  0.0499  0.2156
  595MOL0     C80217   0.010  11.936  11.062 -0.0876 -0.3925 -0.1199
  595MOL0     C80218   0.012  12.076  11.058  0.2063  1.2479 -0.3499
  595MOL0     C80219  -0.062  12.138  10.943  0.3239 -0.6942  0.2823
  595MOL0     O80220  -0.086  12.272  10.955 -0.7464 -0.6023  0.0175
  595MOL0     C80221  -0.195  12.332  10.907 -0.0277 -0.7141  0.0095
  595MOL0     C80222  -0.191  12.445  10.824  0.3289  0.3317  0.3574
  595MOL0     C80223  -0.306  12.495  10.749  0.1330 -0.8391 -0.3027
  595MOL0     C80224  -0.433  12.434  10.776 -0.3527  0.2402 -0.6727
  595MOL0     O80225  -0.549  12.488  10.725 -0.4565  0.1286  0.9315
  595MOL0     C80226  -0.555  12.523  10.581  0.4465 -0.9279 -0.3087
  595MOL0     C80227  -0.604  12.403  10.504  0.6238 -0.6524 -0.3597
  595MOL0     C80228  -0.652  12.434  10.365 -0.1896  0.8142 -0.2033
  595MOL0     C80229  -0.702  12.291  10.312  0.9393 -0.8736  1.0814
  595MOL0     C80230  -0.732  12.304  10.168 -0.1664 -0.4963  0.7865
  595MOL0     C80231  -0.879  12.345  10.138  0.5479  0.2227 -0.2772
  595MOL0     C80232  -0.906  12.407  10.006 -0.7433 -0.3951  0.9383
  595MOL0     C80233  -1.030  12.357   9.940 -0.6508  0.2878 -0.4380
  595MOL0    Cl80234  -1.167  12.445  10.027 -0.2291 -0.2572  0.1999
  595MOL0     C80235  -0.441  12.316  10.860 -0.1500 -0.1256 -0.3840
  595MOL0     C80236  -0.320  12.263  10.911  0.5280  0.1483  0.8349
  595MOL0     O80237  -0.089  12.069  10.843  0.1205  0.3355  0.2021
  595MOL0     C80238   0.078  12.151  11.147  0.3305  0.7824  1.0091
  595MOL0     C80239   0.157  12.084  11.244  0.8063 -0.3648  0.5025
  595MOL0     N80240   0.920  11.683  11.444 -0.3297 -0.2764  0.3673
  595MOL0     N80241   1.015  11.637  11.369 -0.1170 -1.0952  0.0605
  595MOL0     C80242   1.123  10.544  11.343 -0.4140  0.0255  0.7744
  595MOL0     C80243   1.114  10.436  11.420 -1.1234  1.1612  0.5624
  595MOL0     C80244   1.067  10.070  11.628 -0.6728 -1.2404 -0.2871
  595MOL0     C80245   1.188  10.010  11.662 -0.8211  0.2690 -0.0870
  595MOL0     C80246   1.209   9.931  11.772  0.5006 -0.5915  0.1276
  595MOL0     C80247   1.111   9.914  11.867 -0.6871 -0.7338 -0.6303
  595MOL0     O80248   1.136   9.833  11.979  0.8423 -0.0649 -0.4543
  595MOL0     C80249   1.264   9.831  12.032  0.0152 -0.4986 -0.4124
  595MOL0     C80250   1.276   9.736  12.150 -0.4322  0.2058 -0.7010
  595MOL0     C80251   1.193   9.753  12.275 -0.7302  0.7428  1.0250
  595MOL0     C80252   1.224   9.645  12.365 -0.9475 -0.6779  1.4122
  595MOL0     C80253   1.140   9.657  12.481  0.7147 -0.6814  0.3695
  595MOL0     C80254   1.088   9.653  12.592  0.3186  0.2702 -0.0169
  595MOL0     C80255   0.982   9.971  11.834 -0.9233 -0.2873  0.6677
  595MOL0     C80256   0.961  10.048  11.712 -0.3956  0.2805 -0.3116
  595MOL0     C80257   0.822  10.097  11.702 -0.3690 -0.1173  0.2076
  595MOL0     H80258   0.782  10.359  11.394 -0.1778  0.6801  2.2414
  595MOL0     H80259   0.811  10.568  11.232  0.1602 -1.3415 -1.3659
  595MOL0     H80260   1.174  10.814  11.279 -0.2863  3.2263 -0.7228
  595MOL0     H80261   1.238  10.698  11.147 -2.4572 -1.9391 -3.4313
  595MOL0     H80262   1.224  10.856  10.996  0.6146 -1.4553  1.2430
  595MOL0     H80263   1.231  10.974  11.123 -0.7097 -0.3518  0.8546
  595MOL0     H80264   0.988  11.017  11.143  1.1050  0.8777  0.7441
  595MOL0     H80265   0.968  10.889  11.026  0.7156  0.1892  2.2566
  595MOL0     H80266   1.142  11.083  10.896 -0.4763  0.5720  0.9844
  595MOL0     H80267   0.973  11.051  10.867 -0.8057  0.8441  1.2648
  595MOL0     H80268   1.028  11.290  10.922 -2.8280 -2.2749 -3.6876
  595MOL0     H80269   0.916  11.216  11.032 -0.7828  0.7007 -3.1700
  595MOL0     H80270   1.156  11.170  11.185 -2.1436 -1.2811 -0.0477
  595MOL0     H80271   1.223  11.284  11.078  0.4868 -1.3420  0.8893
  595MOL0     H80272   1.149  11.391  11.295 -1.4919 -1.1458  1.7479
  595MOL0     H80273   0.982  11.328  11.265  0.3100 -1.5791 -0.7705
  595MOL0     H80274   1.133  11.558  11.128  0.4742  0.2058 -0.8302
  595MOL0     H80275   0.975  11.495  11.068 -1.2183 -0.2522  2.4643
  595MOL0     H80276   0.759  11.516  11.201  0.1173 -2.7097  0.7422
  595MOL0     H80277   0.605  11.576  11.434  0.0846 -0.1559  2.0156
  595MOL0     H80278   0.677  11.692  11.527 -2.8942 -1.4440  0.9565
  595MOL0     H80279   0.648  11.880  11.394  2.0650 -1.2647  0.1424
  595MOL0     H80280   0.631  11.787  11.245  3.4218 -0.9114  0.2424
  595MOL0     H80281   0.448  11.775  11.472  1.9350  2.0972  0.5128
  595MOL0     H80282   0.425  11.676  11.319  1.9597  0.2212 -1.9093
  595MOL0     H80283   0.391  11.873  11.192 -0.0754  0.3060  0.2351
  595MOL0     H80284   0.408  11.983  11.335  1.4940 -0.1922 -0.5632
  595MOL0     H80285   0.071  11.763  11.183 -0.5570  0.3151  2.4204
  595MOL0     H80286  -0.046  11.883  10.986  0.1014  4.1106 -3.8463
  595MOL0     H80287  -0.100  12.503  10.816 -1.2182  2.7666 -0.9353
  595MOL0     H80288  -0.287  12.584  10.690 -1.3794 -0.3658 -0.1223
  595MOL0     H80289  -0.626  12.606  10.587  0.2934 -1.1606  1.5104
  595MOL0     H80290  -0.466  12.558  10.527  1.8438 -5.6410 -1.5348
  595MOL0     H80291  -0.524  12.329  10.492 -0.0825 -1.3117 -1.0618
  595MOL0     H80292  -0.687  12.359  10.560 -0.6457  0.9038 -0.9256
  595MOL0     H80293  -0.736  12.504  10.372  1.5113  2.8078  2.5367
  595MOL0     H80294  -0.565  12.470  10.309  1.6411 -1.1430  1.2215
  595MOL0     H80295  -0.794  12.251  10.357 -1.3447  1.5063 -1.0603
  595MOL0     H80296  -0.618  12.223  10.330  1.4099 -1.3477 -2.2729
  595MOL0     H80297  -0.707  12.214  10.111 -1.0432 -1.4378  1.8457
  595MOL0     H80298  -0.676  12.388  10.124 -1.6021  0.1074  0.0382
  595MOL0     H80299  -0.944  12.258  10.146  1.2674 -0.3543 -0.6401
  595MOL0     H80300  -0.906  12.417  10.216  2.8431 -1.6367  2.4112
  595MOL0     H80301  -0.821  12.389   9.939  0.7315  1.2858  2.2706
  595MOL0     H80302  -0.912  12.517  10.005  0.6482 -0.2611 -1.5443
  595MOL0     H80303  -1.039  12.374   9.832  1.8039  0.0951 -0.7307
  595MOL0     H80304  -1.044  12.250   9.955  2.8812 -0.0130  1.8323
  595MOL0     H80305  -0.538  12.269  10.864 -0.1678 -0.0317  0.5841
  595MOL0     H80306  -0.333  12.168  10.962  0.1170  0.6034  1.6065
  595MOL0     H80307   0.070  12.259  11.153 -1.0092  0.7114  0.8470
  595MOL0     H80308   0.211  12.150  11.311  0.8283  0.9040 -0.7104
  595MOL0     H80309   1.215  10.603  11.348 -1.5347  1.7658  1.9872
  595MOL0     H80310   1.200  10.405  11.478 -0.8285  1.3455  0.2216
  595MOL0     H80311   1.275  10.021  11.598 -1.5824  0.5390 -1.1014
  595MOL0     H80312   1.298   9.869  11.769 -0.0923 -1.5755  1.6697
  595MOL0     H80313   1.282   9.930  12.075 -1.6649 -0.9574  1.5133
  595MOL0     H80314   1.337   9.800  11.958 -0.7637 -1.7190 -0.7067
  595MOL0     H80315   1.376   9.739  12.194 -1.2073  1.2359  1.0842
  595MOL0     H80316   1.263   9.631  12.122  0.0980 -0.2978  0.8337
  595MOL0     H80317   1.090   9.739  12.241 -1.5553  2.4337  2.6435
  595MOL0     H80318   1.209   9.849  12.325  0.9761  1.7651 -1.2834
  595MOL0     H80319   1.214   9.551  12.312  0.8716  0.6540 -1.5252
  595MOL0     H80320   1.329   9.655  12.393  0.8275  1.7834 -4.5773
  595MOL0     H80321   1.032   9.647  12.683 -0.8796  1.2384 -0.6606
  595MOL0     H80322   0.903   9.959  11.908 -0.2816  1.8972  1.7969
  595MOL0     H80323   0.782  10.085  11.601  1.7055  0.2267 -0.6907
  595MOL0     H80324   0.753  10.058  11.778  0.7558  0.9986  1.8536
  595MOL0     H80325   0.827  10.205  11.720  0.1071  0.0107 -0.6715
  596MOL0     O80326   9.225   6.792   3.522  0.9133 -0.1254  0.3664
  596MOL0     C80327   9.284   6.872   3.449  0.7173 -0.1866  0.2506
  596MOL0     O80328   9.269   6.876   3.315  0.1510 -0.2124  0.1505
  596MOL0     C80329   9.148   6.849   3.259 -0.7690  0.0114  0.1522
  596MOL0     C80330   9.100   6.719   3.247  0.0824  0.3915 -0.3671
  596MOL0     C80331   8.972   6.703   3.184 -0.2147  0.0476  0.3394
  596MOL0     C80332   8.891   6.806   3.145 -0.4070  0.5040  0.5701
  596MOL0     O80333   8.765   6.777   3.086 -0.3739  1.0135 -0.3296
  596MOL0     C80334   8.734   6.654   3.008  0.7553 -0.0973  0.4539
  596MOL0     C80335   8.737   6.674   2.858  0.1750  0.0008  0.0587
  596MOL0     C80336   8.864   6.730   2.806  0.4112  0.0750  0.1608
  596MOL0     C80337   8.840   6.885   2.783  0.7176 -0.3891  0.3448
  596MOL0     C80338   8.964   6.953   2.726 -0.2759  0.2914  0.4109
  596MOL0     C80339   9.053   6.977   2.837 -2.5414 -0.4075 -0.0769
  596MOL0     C80340   9.199   7.026   2.793  0.1321  0.4958  0.1183
  596MOL0     C80341   9.262   7.101   2.917 -0.4213 -0.7546 -0.9066
  596MOL0     N80342   9.410   7.115   2.897 -0.0151  0.6484 -0.6847
  596MOL0     C80343   9.490   7.206   2.959  0.3223  0.2337 -1.1099
  596MOL0     C80344   9.626   7.164   2.939  0.0884 -0.2877  0.1568
  596MOL0     C80345   9.746   7.241   2.991  0.4444  1.2498 -0.3099
  596MOL0     C80346   9.775   7.365   2.908 -1.0571  0.6892  0.5567
  596MOL0     C80347   9.809   7.342   2.751 -0.7260 -0.7142  0.4003
  596MOL0     C80348   9.925   7.232   2.745 -0.4836 -0.5142  1.2017
  596MOL0     O80349  10.019   7.240   2.855  0.4359  0.5574 -0.6295
  596MOL0     C80350  10.132   7.158   2.849  0.6996 -1.5454  0.2318
  596MOL0     C80351  10.119   7.021   2.881 -0.2530 -0.9034 -0.0154
  596MOL0     C80352  10.231   6.939   2.869  0.3734  0.3159  0.9673
  596MOL0     C80353  10.352   6.994   2.825 -0.9061  0.5816  0.4183
  596MOL0     C80354  10.474   6.906   2.819 -0.0201 -1.2391 -0.6580
  596MOL0     O80355  10.600   6.952   2.791 -0.1649 -0.6675 -0.5409
  596MOL0     C80356  10.697   6.857   2.778 -0.0993 -0.8260 -0.0085
  596MOL0     C80357  10.729   6.797   2.656 -0.2986 -0.1784  0.1867
  596MOL0     C80358  10.834   6.712   2.648 -0.2333  0.0841 -0.1521
  596MOL0     C80359  10.903   6.665   2.751 -1.0692  1.1322 -0.5243
  596MOL0     O80360  11.018   6.586   2.717  0.9212  0.1447  0.4117
  596MOL0     C80361  10.994   6.480   2.630  0.2918  1.2605  1.3594
  596MOL0     C80362  11.043   6.348   2.691 -0.6397  0.3976 -0.5653
  596MOL0     C80363  10.959   6.297   2.807 -0.4596 -0.0220 -0.3491
  596MOL0     C80364  10.804   6.302   2.780 -0.7606 -0.0320 -0.4660
  596MOL0     C80365  10.720   6.219   2.870 -0.0390  0.6003 -0.7142
  596MOL0     C80366  10.575   6.221   2.835  0.3418  0.4998 -0.1668
  596MOL0     C80367  10.478   6.194   2.953 -0.1997  0.0887  0.0076
  596MOL0     C80368  10.330   6.170   2.900 -0.0143 -0.6665 -0.0840
  596MOL0    Cl80369  10.282   6.280   2.755 -0.2206  0.3325  0.0249
  596MOL0     C80370  10.877   6.725   2.877  0.1798  0.9928  1.4768
  596MOL0     C80371  10.764   6.811   2.891 -0.5551  0.8380  0.1810
  596MOL0     O80372  10.444   6.790   2.809 -0.0834 -0.0912 -0.0673
  596MOL0     C80373  10.363   7.129   2.800  0.5445 -0.5356  0.7514
  596MOL0     C80374  10.250   7.211   2.810 -0.0325  0.1636  0.2943
  596MOL0     N80375   9.616   7.065   2.845  0.4992  0.5545  0.1568
  596MOL0     N80376   9.491   7.038   2.824 -0.5499 -0.5735  0.7181
  596MOL0     C80377   8.942   6.928   3.154 -0.2971 -0.4699  0.0342
  596MOL0     C80378   9.071   6.956   3.200 -0.7975  0.4696 -1.1768
  596MOL0     C80379   9.382   6.963   3.517  0.1896 -0.1759  0.9749
  596MOL0     C80380   9.518   6.957   3.478 -0.7533 -0.3236  0.2363
  596MOL0     C80381   9.630   7.026   3.543 -0.0001 -0.2268  0.2426
  596MOL0     C80382   9.597   7.111   3.644 -0.6317  0.1077 -0.2931
  596MOL0     O80383   9.683   7.180   3.730  0.3252 -0.1039  0.3767
  596MOL0     C80384   9.826   7.189   3.694 -0.1711 -0.0002 -0.4616
  596MOL0     C80385   9.870   7.234   3.557 -0.1062 -0.4064  0.4216
  596MOL0     C80386   9.997   7.168   3.499  0.2829 -0.1041 -0.0905
  596MOL0     C80387  10.002   7.195   3.345  0.0441  1.0424  0.0857
  596MOL0     C80388   9.895   7.118   3.273 -0.8733 -0.1092  0.1101
  596MOL0     C80389   9.824   7.036   3.220  0.0935  0.3978 -0.4737
  596MOL0     C80390   9.459   7.132   3.671 -0.9904 -0.1232 -0.3145
  596MOL0     C80391   9.352   7.059   3.613 -0.3995  0.0999 -0.7066
  596MOL0     C80392   9.205   7.073   3.648 -0.1528 -0.1059 -0.1752
  596MOL0     H80393   9.154   6.628   3.270 -0.3378  0.8735  2.8892
  596MOL0     H80394   8.941   6.599   3.175 -1.0450  0.4684 -2.7115
  596MOL0     H80395   8.805   6.579   3.045  2.5654  2.5847  2.8567
  596MOL0     H80396   8.637   6.608   3.030  0.5925 -1.0012 -1.8177
  596MOL0     H80397   8.656   6.736   2.819  0.3675  1.7823  2.3067
  596MOL0     H80398   8.729   6.571   2.820 -0.4994 -0.0948  0.4381
  596MOL0     H80399   8.881   6.692   2.704 -3.8635 -0.0344 -0.6901
  596MOL0     H80400   8.956   6.720   2.865  1.4624  2.1161 -0.9920
  596MOL0     H80401   8.756   6.907   2.717  0.2105  0.2498  1.1843
  596MOL0     H80402   8.807   6.926   2.879 -1.5616 -0.5653 -0.2891
  596MOL0     H80403   9.016   6.893   2.652  0.4309  0.8302  0.4566
  596MOL0     H80404   8.932   7.042   2.671  0.2691 -0.1400 -0.6137
  596MOL0     H80405   9.021   7.063   2.897  0.6331 -0.6450  2.2054
  596MOL0     H80406   9.064   6.881   2.889 -0.3457 -1.2119 -1.8345
  596MOL0     H80407   9.200   7.084   2.700 -0.4763 -0.2834 -0.3821
  596MOL0     H80408   9.259   6.937   2.772 -0.4318  0.2126 -0.3328
  596MOL0     H80409   9.218   7.198   2.942  3.4591  0.6768  1.2337
  596MOL0     H80410   9.250   7.042   3.009 -1.4377  2.1836  0.9841
  596MOL0     H80411   9.441   7.266   3.035  1.5400 -2.9443  2.4718
  596MOL0     H80412   9.710   7.282   3.086 -1.7825  1.9377 -1.3919
  596MOL0     H80413   9.832   7.174   3.001 -1.5676 -1.7453 -1.7521
  596MOL0     H80414   9.685   7.426   2.922 -0.3410  1.5345  1.6136
  596MOL0     H80415   9.857   7.423   2.952 -2.7157  0.6008  4.1299
  596MOL0     H80416   9.847   7.436   2.710 -1.7873 -0.0705  0.8720
  596MOL0     H80417   9.711   7.324   2.706 -1.3433  2.5577  0.2171
  596MOL0     H80418   9.961   7.245   2.643 -4.4012 -0.0950 -0.3178
  596MOL0     H80419   9.879   7.133   2.752 -3.3270  0.1652 -3.5405
  596MOL0     H80420  10.030   6.980   2.926 -0.4602  1.7801  2.2777
  596MOL0     H80421  10.218   6.835   2.899 -0.4434  0.4762  1.1720
  596MOL0     H80422  10.675   6.822   2.565 -4.0576 -0.0085  2.2646
  596MOL0     H80423  10.851   6.688   2.544 -0.3034 -1.6947  0.2141
  596MOL0     H80424  10.892   6.458   2.597  1.0763 -0.9666  0.1805
  596MOL0     H80425  11.046   6.503   2.537 -2.9865 -0.5419 -1.1634
  596MOL0     H80426  11.038   6.269   2.615  2.4891  0.4118 -0.9499
  596MOL0     H80427  11.145   6.358   2.731 -0.8754 -1.2280  0.5631
  596MOL0     H80428  11.005   6.204   2.844  1.0559  1.4987  1.8819
  596MOL0     H80429  10.984   6.366   2.888  1.5733 -1.6819  0.5437
  596MOL0     H80430  10.788   6.265   2.678 -3.2555 -0.7158  0.0982
  596MOL0     H80431  10.776   6.407   2.785 -0.2337  0.0941 -0.0258
  596MOL0     H80432  10.721   6.254   2.974  2.9379  0.9607 -0.7763
  596MOL0     H80433  10.762   6.119   2.879 -0.5130  0.5368  1.3290
  596MOL0     H80434  10.562   6.327   2.809  1.5814  1.1628  1.7016
  596MOL0     H80435  10.561   6.144   2.759  2.4817 -0.9652  0.8441
  596MOL0     H80436  10.480   6.270   3.031 -2.8355  1.3453 -1.0332
  596MOL0     H80437  10.503   6.094   2.989 -0.3880  0.3189  0.7830
  596MOL0     H80438  10.331   6.069   2.859  1.7158  0.1415 -2.2649
  596MOL0     H80439  10.259   6.177   2.983 -0.3236  0.1300 -0.4108
  596MOL0     H80440  10.941   6.698   2.960 -1.1144  2.4568  3.0283
  596MOL0     H80441  10.735   6.851   2.988 -1.9435  0.1230  0.0807
  596MOL0     H80442  10.450   7.175   2.755 -1.5766 -0.2414 -3.5698
  596MOL0     H80443  10.253   7.316   2.781  0.3625 -0.1068 -0.6930
  596MOL0     H80444   8.883   6.995   3.092  0.3117 -1.3384 -1.5282
  596MOL0     H80445   9.112   7.056   3.200  0.3515  0.0346 -2.6211
  596MOL0     H80446   9.533   6.884   3.400  0.5151  1.9474 -1.7858
  596MOL0     H80447   9.731   7.002   3.510 -0.1716 -0.2115 -0.3160
  596MOL0     H80448   9.870   7.091   3.713 -0.3976 -0.4412 -2.0762
  596MOL0     H80449   9.874   7.254   3.768  0.3103  0.6621 -1.3346
  596MOL0     H80450   9.892   7.341   3.549  6.8058 -1.5261 -1.8410
  596MOL0     H80451   9.791   7.215   3.483  0.0967 -1.7482  0.5279
  596MOL0     H80452   9.995   7.060   3.511  1.6310 -0.5033 -2.6702
  596MOL0     H80453  10.084   7.212   3.548 -0.4599 -1.6066  2.7649
  596MOL0     H80454   9.985   7.303   3.330 -2.4230  0.9561  1.6421
  596MOL0     H80455  10.098   7.162   3.305  0.1782  1.7867 -0.2405
  596MOL0     H80456   9.761   6.961   3.176  0.7415 -0.6198  0.3072
  596MOL0     H80457   9.438   7.213   3.740  0.2723  1.0164 -1.2010
  596MOL0     H80458   9.162   7.080   3.548 -0.9722 -3.4274 -0.1504
  596MOL0     H80459   9.182   6.990   3.716  2.0267  0.0893  0.8799
  596MOL0     H80460   9.167   7.162   3.700  0.8665 -1.1960  2.6067
  597MOL0     O80461   1.473   4.067   6.570  0.0815  0.5629  0.3365
  597MOL0     C80462   1.466   3.959   6.638  0.4964 -0.4492 -0.0633
  597MOL0     O80463   1.370   3.925   6.721 -1.1752 -0.2374 -0.5503
  597MOL0     C80464   1.258   3.995   6.711 -0.1992 -0.4692 -0.5939
  597MOL0     C80465   1.257   4.134   6.742 -0.4311 -0.2921  0.7768
  597MOL0     C80466   1.148   4.216   6.719  0.7591  0.0829 -0.5680
  597MOL0     C80467   1.040   4.160   6.648  0.0672 -0.2429  0.6084
  597MOL0     O80468   0.938   4.242   6.599  0.9502 -0.1201  0.7414
  597MOL0     C80469   0.833   4.194   6.511 -0.5318 -0.0035  0.7903
  597MOL0     C80470   0.725   4.303   6.493  0.4001  0.3477 -0.0368
  597MOL0     C80471   0.751   4.399   6.376 -0.3450 -0.0742 -0.1668
  597MOL0     C80472   0.816   4.524   6.440 -0.1897 -1.0216  0.3495
  597MOL0     C80473   0.864   4.620   6.339 -0.8430 -0.4630 -0.3164
  597MOL0     C80474   0.921   4.733   6.420 -0.3577  0.5043 -0.8368
  597MOL0     C80475   0.953   4.848   6.324  0.0633 -0.2124  0.1895
  597MOL0     C80476   1.022   4.969   6.387 -0.1351  0.3381  0.2435
  597MOL0     N80477   0.916   5.068   6.420 -0.0350  0.0285 -0.1854
  597MOL0     C80478   0.907   5.125   6.546 -0.5489 -0.0155 -0.3054
  597MOL0     C80479   0.822   5.228   6.530  0.0344 -0.6363  1.1854
  597MOL0     C80480   0.772   5.326   6.633  1.4957 -0.3504 -0.6722
  597MOL0     C80481   0.710   5.250   6.754  0.4449 -0.3390  0.0123
  597MOL0     C80482   0.652   5.331   6.875  0.8441 -0.4267  0.5834
  597MOL0     C80483   0.639   5.240   7.004 -0.4659 -0.6656 -0.1147
  597MOL0     O80484   0.605   5.320   7.115  0.6431  0.0094  0.3427
  597MOL0     C80485   0.476   5.362   7.133  0.3381 -0.3191  0.4745
  597MOL0     C80486   0.443   5.462   7.219  0.0281  0.5774 -0.0098
  597MOL0     C80487   0.312   5.514   7.243 -0.1250  1.2834  0.5282
  597MOL0     C80488   0.201   5.465   7.167  0.7031 -0.6544 -1.0458
  597MOL0     C80489   0.056   5.521   7.187 -0.9167 -0.1184  0.2749
  597MOL0     O80490   0.046   5.615   7.288 -0.8349 -0.0106  0.3250
  597MOL0     C80491  -0.087   5.666   7.290  0.6343  0.4258 -1.2762
  597MOL0     C80492  -0.120   5.760   7.188 -0.2818  0.8391  0.0441
  597MOL0     C80493  -0.245   5.820   7.180 -0.5609  0.3137 -0.3325
  597MOL0     C80494  -0.341   5.799   7.279 -0.2025  0.1511 -0.1532
  597MOL0     O80495  -0.465   5.854   7.291 -0.8955  0.1421  1.2361
  597MOL0     C80496  -0.500   5.940   7.185 -0.7966  0.6062  0.1221
  597MOL0     C80497  -0.658   5.963   7.205 -1.1349  0.5662  0.0174
  597MOL0     C80498  -0.728   5.829   7.164  0.0029 -0.4699 -0.4175
  597MOL0     C80499  -0.872   5.820   7.188  0.2833  0.2741 -0.2876
  597MOL0     C80500  -0.914   5.671   7.190 -0.3297  0.2019 -0.3597
  597MOL0     C80501  -1.007   5.647   7.301  0.4514  0.1103  0.6372
  597MOL0     C80502  -1.066   5.496   7.263 -0.0636 -0.9653 -0.1818
  597MOL0     C80503  -1.162   5.454   7.372 -0.2335  0.0776  0.1500
  597MOL0    Cl80504  -1.091   5.458   7.532 -0.0002  0.3295  0.0708
  597MOL0     C80505  -0.307   5.711   7.388  0.2847  0.0507  0.3326
  597MOL0     C80506  -0.180   5.643   7.392 -1.1236 -0.2474 -0.2866
  597MOL0     O80507  -0.034   5.473   7.121 -0.3238  0.3425  0.1911
  597MOL0     C80508   0.228   5.353   7.081 -0.2785  0.1563 -0.1647
  597MOL0     C80509   0.365   5.313   7.055 -1.1697  0.3101 -0.0487
  597MOL0     N80510   0.783   5.233   6.395 -0.4902 -0.3209  0.2688
  597MOL0     N80511   0.860   5.157   6.332 -0.2074 -0.0032  0.1044
  597MOL0     C80512   1.040   4.022   6.618 -0.0574  0.3161  0.2213
  597MOL0     C80513   1.146   3.946   6.651  0.2414  0.7473 -0.9251
  597MOL0     C80514   1.578   3.863   6.620  1.4619 -0.1323 -0.3130
  597MOL0     C80515   1.550   3.728   6.589 -0.5395  0.0814 -0.2866
  597MOL0     C80516   1.646   3.640   6.571 -0.4479  0.4610 -0.6492
  597MOL0     C80517   1.781   3.675   6.582 -0.3919 -0.3454 -0.0455
  597MOL0     O80518   1.885   3.593   6.577 -0.2794  0.9403 -0.4249
  597MOL0     C80519   1.854   3.478   6.487 -0.1221 -0.0796 -0.4535
  597MOL0     C80520   1.986   3.423   6.439  1.1487  0.5378 -0.3030
  597MOL0     C80521   2.070   3.519   6.344 -0.2897 -0.3120  0.4970
  597MOL0     C80522   2.152   3.439   6.244 -0.0140 -1.2589  0.5812
  597MOL0     C80523   2.072   3.380   6.141 -0.1889  0.7854 -0.3186
  597MOL0     C80524   2.007   3.329   6.051 -0.2113 -0.1435  0.2143
  597MOL0     C80525   1.816   3.807   6.613 -0.4446 -0.7635 -0.9176
  597MOL0     C80526   1.715   3.905   6.636  0.0335  0.0375  0.2901
  597MOL0     C80527   1.743   4.043   6.685 -0.0451  0.7915  0.0749
  597MOL0     H80528   1.340   4.190   6.784 -2.8966  3.8547  0.6474
  597MOL0     H80529   1.149   4.320   6.747  1.4578 -0.0671 -0.0190
  597MOL0     H80530   0.876   4.163   6.415  2.8342  3.1754  1.0542
  597MOL0     H80531   0.782   4.105   6.552  0.6320 -1.1198 -0.1208
  597MOL0     H80532   0.685   4.363   6.575 -0.9282  3.4851 -2.7613
  597MOL0     H80533   0.634   4.248   6.467  0.1217  1.0077 -0.4703
  597MOL0     H80534   0.658   4.433   6.330  0.4650  2.0683 -0.3220
  597MOL0     H80535   0.817   4.355   6.301 -0.6446  0.6966 -0.8870
  597MOL0     H80536   0.743   4.569   6.506  0.6657  0.5593  0.2628
  597MOL0     H80537   0.899   4.499   6.507 -1.4279  1.6135  3.0998
  597MOL0     H80538   0.937   4.574   6.271 -0.1616 -1.5324  1.0849
  597MOL0     H80539   0.779   4.656   6.280 -2.5504 -4.6725 -0.7972
  597MOL0     H80540   0.843   4.772   6.486  0.0595  2.9749 -1.6794
  597MOL0     H80541   1.009   4.723   6.485  0.2273  4.1959 -0.8310
  597MOL0     H80542   0.863   4.878   6.269 -1.4757  1.6231  3.4407
  597MOL0     H80543   1.030   4.812   6.255 -0.0371 -2.8620  1.3431
  597MOL0     H80544   1.077   4.939   6.477  0.7430  1.1696  0.0000
  597MOL0     H80545   1.099   5.014   6.325  1.4300 -0.1308  1.7743
  597MOL0     H80546   0.953   5.088   6.637  0.8986 -0.7677 -1.2900
  597MOL0     H80547   0.846   5.399   6.667 -0.5887  1.0246  1.2639
  597MOL0     H80548   0.696   5.392   6.591 -0.4708  0.3877  3.4915
  597MOL0     H80549   0.622   5.202   6.709 -1.5344  2.3613  0.7149
  597MOL0     H80550   0.783   5.184   6.800  0.8529  0.0741 -0.0403
  597MOL0     H80551   0.552   5.361   6.842  0.6829 -3.7194 -2.5566
  597MOL0     H80552   0.720   5.415   6.893  1.3394 -1.2193  2.6715
  597MOL0     H80553   0.740   5.204   7.023 -1.0667 -2.6056 -0.3680
  597MOL0     H80554   0.571   5.154   6.996  1.2568 -2.2733  1.4429
  597MOL0     H80555   0.523   5.511   7.274 -3.0978  3.3274  2.5389
  597MOL0     H80556   0.298   5.589   7.320  4.5902  0.1407  2.9263
  597MOL0     H80557  -0.051   5.776   7.106  0.5946  1.6496  0.9252
  597MOL0     H80558  -0.262   5.883   7.093 -2.5824  1.8898  1.0758
  597MOL0     H80559  -0.435   6.028   7.189  2.5158 -1.7138  2.0801
  597MOL0     H80560  -0.494   5.902   7.082 -0.6592  1.3180 -0.1377
  597MOL0     H80561  -0.678   5.962   7.312 -1.7429 -1.9188 -0.0530
  597MOL0     H80562  -0.692   6.056   7.156 -0.0399  2.3875  2.5190
  597MOL0     H80563  -0.710   5.796   7.061  0.1495 -2.2763  0.1512
  597MOL0     H80564  -0.687   5.763   7.241  0.9570  3.4754  2.7560
  597MOL0     H80565  -0.922   5.874   7.108  1.8496  0.1156 -1.4263
  597MOL0     H80566  -0.899   5.867   7.283 -1.1257 -1.4436  0.2276
  597MOL0     H80567  -0.836   5.595   7.180  0.8857  1.6347 -2.5850
  597MOL0     H80568  -0.960   5.651   7.092 -0.5899 -1.4902  0.0773
  597MOL0     H80569  -0.953   5.656   7.396  0.2907 -0.9279  0.8373
  597MOL0     H80570  -1.085   5.724   7.297  0.3288 -0.0684 -0.8999
  597MOL0     H80571  -0.982   5.425   7.265  1.5456  0.8510 -0.1769
  597MOL0     H80572  -1.123   5.502   7.170 -1.9288 -1.3302  0.8835
  597MOL0     H80573  -1.247   5.521   7.361 -0.0422  0.2516 -0.2747
  597MOL0     H80574  -1.198   5.356   7.342  1.0227 -0.5416  0.5875
  597MOL0     H80575  -0.377   5.706   7.471  1.1134  2.4506  1.2845
  597MOL0     H80576  -0.161   5.573   7.473 -0.4986  0.7171  0.4251
  597MOL0     H80577   0.143   5.316   7.025 -1.6478  3.9309 -0.8616
  597MOL0     H80578   0.374   5.242   6.974 -1.2336  2.7494 -2.3241
  597MOL0     H80579   0.955   3.989   6.561 -0.4615  2.3688 -0.4705
  597MOL0     H80580   1.144   3.843   6.617 -0.9775  0.3492  0.2765
  597MOL0     H80581   1.445   3.702   6.587 -0.9062  1.0650  2.2673
  597MOL0     H80582   1.608   3.541   6.546  0.5857 -0.9287  2.7128
  597MOL0     H80583   1.803   3.507   6.395  1.6087  2.5278 -0.6970
  597MOL0     H80584   1.800   3.402   6.544  0.5795 -1.2447 -1.2762
  597MOL0     H80585   1.970   3.326   6.391  1.2013 -1.4281  3.2827
  597MOL0     H80586   2.054   3.401   6.522  0.3445  2.4647  0.9380
  597MOL0     H80587   2.137   3.582   6.404  1.8796 -1.6021 -0.4317
  597MOL0     H80588   2.009   3.585   6.282 -0.5354  0.3494  1.4371
  597MOL0     H80589   2.226   3.509   6.204 -0.2595  0.2640  2.6661
  597MOL0     H80590   2.213   3.364   6.295  2.4764 -0.9081 -1.6423
  597MOL0     H80591   1.957   3.289   5.965  0.8468  1.9516 -1.4790
  597MOL0     H80592   1.922   3.831   6.615 -0.7303  0.5439 -0.6397
  597MOL0     H80593   1.706   4.044   6.788  1.5611  3.7115  0.7152
  597MOL0     H80594   1.850   4.063   6.692  0.3121  0.0473 -2.3111
  597MOL0     H80595   1.700   4.119   6.620 -0.4081 -1.9104 -3.1555
  598MOL0     O80596   9.326   5.666   6.396 -0.3927 -0.7930 -0.3216
  598MOL0     C80597   9.207   5.668   6.390  0.4521 -0.4703 -0.5735
  598MOL0     O80598   9.119   5.672   6.497  0.5286  0.2767  0.3299
  598MOL0     C80599   9.171   5.678   6.624  0.9387  0.4684 -0.3831
  598MOL0     C80600   9.223   5.561   6.687  0.5630 -0.4952  1.3379
  598MOL0     C80601   9.284   5.568   6.815  0.5021 -0.3621  0.3906
  598MOL0     C80602   9.299   5.684   6.883 -0.0448 -0.0136  0.3358
  598MOL0     O80603   9.359   5.710   7.003  0.0138  0.6858  0.2667
  598MOL0     C80604   9.360   5.602   7.104  0.7266  0.3479 -0.5303
  598MOL0     C80605   9.213   5.607   7.158  0.6063 -0.7538 -0.4083
  598MOL0     C80606   9.188   5.508   7.273 -0.4413 -0.0983 -0.6932
  598MOL0     C80607   9.069   5.554   7.361 -0.6589  0.3921 -0.6582
  598MOL0     C80608   9.062   5.465   7.482  0.3540  0.0324  0.0839
  598MOL0     C80609   8.950   5.508   7.577  0.4665  0.2598  0.8147
  598MOL0     C80610   8.987   5.451   7.714  0.2326  0.4280  0.5055
  598MOL0     C80611   8.900   5.473   7.842  0.1580  1.2800 -0.4478
  598MOL0     N80612   8.782   5.390   7.844  0.2688 -0.2724 -0.3258
  598MOL0     C80613   8.787   5.256   7.825  0.3166  0.1134  0.3688
  598MOL0     C80614   8.675   5.220   7.760  0.0818 -0.2873  0.4320
  598MOL0     C80615   8.639   5.083   7.712 -0.6716 -0.1735  0.1613
  598MOL0     C80616   8.542   5.093   7.581  0.2656 -0.1011 -0.3855
  598MOL0     C80617   8.469   4.959   7.567 -0.3508 -0.2897 -0.2376
  598MOL0     C80618   8.364   4.952   7.466 -0.5596  0.2438  0.5534
  598MOL0     O80619   8.263   5.028   7.531  0.1128  0.0452  0.2800
  598MOL0     C80620   8.137   5.018   7.476  0.0720 -0.0385  0.1899
  598MOL0     C80621   8.039   5.104   7.540  0.9079  0.1624  0.3978
  598MOL0     C80622   7.899   5.112   7.501 -0.3778 -0.0236 -0.2190
  598MOL0     C80623   7.859   5.028   7.390 -1.0642 -0.1477  0.1667
  598MOL0     C80624   7.719   5.033   7.349  0.1044  0.4898 -0.1182
  598MOL0     O80625   7.623   5.079   7.446 -0.0182 -0.4591 -0.0976
  598MOL0     C80626   7.491   5.090   7.401 -0.2708  0.1561  0.1075
  598MOL0     C80627   7.440   5.224   7.400 -0.5128 -0.1262  0.2124
  598MOL0     C80628   7.316   5.249   7.336 -0.3649 -1.2886 -1.0033
  598MOL0     C80629   7.237   5.143   7.299  0.3029  0.6537 -0.0619
  598MOL0     O80630   7.110   5.184   7.261 -0.0068 -0.3532 -0.0292
  598MOL0     C80631   7.010   5.083   7.226  0.1399 -0.2097  0.1967
  598MOL0     C80632   6.883   5.139   7.166 -1.1061  0.2062  0.2207
  598MOL0     C80633   6.797   5.221   7.260 -0.9333 -0.3521 -0.1904
  598MOL0     C80634   6.658   5.249   7.195  0.1715  0.2657  0.1384
  598MOL0     C80635   6.551   5.304   7.291  0.0194 -0.0369 -0.2348
  598MOL0     C80636   6.452   5.189   7.331 -0.5961 -1.3080 -0.1582
  598MOL0     C80637   6.330   5.254   7.407 -0.0665 -0.4323  0.0644
  598MOL0     C80638   6.227   5.154   7.457  0.8892 -0.3924  0.0446
  598MOL0    Cl80639   6.184   5.056   7.322  0.5483 -0.4094 -0.1666
  598MOL0     C80640   7.281   5.005   7.319 -0.1929 -1.0348  0.1419
  598MOL0     C80641   7.415   4.979   7.365 -0.1914 -1.3088 -0.0051
  598MOL0     O80642   7.688   5.010   7.234  0.1370 -0.0180  0.1834
  598MOL0     C80643   7.962   4.958   7.314 -0.1882  0.3784 -0.2467
  598MOL0     C80644   8.095   4.961   7.355 -0.0757  0.6202 -0.4312
  598MOL0     N80645   8.590   5.338   7.751 -1.1740  0.3162 -0.3790
  598MOL0     N80646   8.662   5.433   7.805 -0.3638 -0.2954  0.0696
  598MOL0     C80647   9.257   5.799   6.819  0.0216 -0.7462  0.8044
  598MOL0     C80648   9.183   5.801   6.703  0.3613  0.3208  0.7233
  598MOL0     C80649   9.146   5.691   6.261  0.1374  0.1866  0.9026
  598MOL0     C80650   9.011   5.702   6.249  0.5654 -0.8245 -0.7733
  598MOL0     C80651   8.953   5.761   6.131  0.3838 -0.2058  1.3747
  598MOL0     C80652   9.014   5.760   6.016  0.4271 -0.0322 -0.1234
  598MOL0     O80653   8.955   5.802   5.895 -0.3181 -0.9369 -0.4053
  598MOL0     C80654   9.014   5.928   5.846  0.5058  0.9180 -0.2618
  598MOL0     C80655   8.967   6.055   5.922  0.2073  0.6719  0.5614
  598MOL0     C80656   8.814   6.062   5.912  0.4709 -0.3728 -0.1397
  598MOL0     C80657   8.756   6.203   5.965  0.2168  0.1192 -0.0001
  598MOL0     C80658   8.829   6.325   5.921 -0.4790  0.8578  0.5427
  598MOL0     C80659   8.867   6.435   5.877  0.4044 -0.5913 -0.7608
  598MOL0     C80660   9.146   5.720   6.020 -1.1783  0.1895  0.0485
  598MOL0     C80661   9.219   5.695   6.139  0.7608  0.7438 -0.1002
  598MOL0     C80662   9.371   5.663   6.125 -0.0108  0.2410 -0.2885
  598MOL0     H80663   9.232   5.467   6.635  0.0059 -0.2648  0.8056
  598MOL0     H80664   9.320   5.483   6.873  0.3588 -1.6244 -1.2905
  598MOL0     H80665   9.386   5.508   7.054 -0.2578 -0.3537  0.2273
  598MOL0     H80666   9.430   5.611   7.187 -0.5609  1.2748  0.5094
  598MOL0     H80667   9.152   5.566   7.078  2.5718  1.3756 -3.1913
  598MOL0     H80668   9.189   5.711   7.177  3.8640 -0.1816  1.3513
  598MOL0     H80669   9.278   5.525   7.332  1.5857  0.7740 -3.7518
  598MOL0     H80670   9.170   5.408   7.233 -0.1274  0.3305 -1.9636
  598MOL0     H80671   9.086   5.652   7.408  0.6171 -0.2482  0.2853
  598MOL0     H80672   8.976   5.551   7.304 -0.4639 -0.9375 -0.9402
  598MOL0     H80673   9.027   5.371   7.440  1.4177  1.0951 -3.5944
  598MOL0     H80674   9.163   5.456   7.523  0.3969  1.7745  0.4722
  598MOL0     H80675   8.933   5.616   7.577  3.0101  0.7227  1.7151
  598MOL0     H80676   8.868   5.446   7.540  2.9571 -2.5200 -0.4171
  598MOL0     H80677   9.086   5.492   7.738  1.0054  0.7225 -2.6929
  598MOL0     H80678   8.993   5.342   7.702  3.9074  0.2203  2.6216
  598MOL0     H80679   8.953   5.442   7.933  1.1392 -1.4912 -1.8600
  598MOL0     H80680   8.880   5.581   7.837 -3.1569  0.8430  0.8345
  598MOL0     H80681   8.864   5.182   7.841  0.0241 -0.6127 -1.3997
  598MOL0     H80682   8.717   5.015   7.679 -0.8275  0.0089 -0.6224
  598MOL0     H80683   8.585   5.036   7.794  2.5290 -3.5728  0.5692
  598MOL0     H80684   8.465   5.167   7.606  1.1193  0.3000  1.1831
  598MOL0     H80685   8.607   5.124   7.499  0.8836  0.4980  0.3150
  598MOL0     H80686   8.417   4.929   7.658 -2.6331  1.7501 -0.7836
  598MOL0     H80687   8.559   4.903   7.538 -0.0880  1.6866 -3.7959
  598MOL0     H80688   8.336   4.848   7.446 -0.2475 -0.5138  3.5663
  598MOL0     H80689   8.404   4.996   7.374 -0.2257 -0.6541  0.2675
  598MOL0     H80690   8.071   5.157   7.629  2.6181  1.3606 -0.8708
  598MOL0     H80691   7.832   5.168   7.566  1.3696  0.7588  0.9933
  598MOL0     H80692   7.494   5.310   7.438 -0.1654  0.8925 -2.3952
  598MOL0     H80693   7.267   5.344   7.352  2.6529 -0.0305  1.7755
  598MOL0     H80694   7.059   5.015   7.155  3.0248  0.1200  1.7263
  598MOL0     H80695   7.003   5.024   7.318  1.2742 -0.7401 -0.0298
  598MOL0     H80696   6.899   5.196   7.074 -1.0143 -4.3348 -2.9473
  598MOL0     H80697   6.823   5.060   7.121 -0.7045  0.2512 -0.4129
  598MOL0     H80698   6.784   5.156   7.347  3.5714 -1.9708 -0.4446
  598MOL0     H80699   6.850   5.310   7.296 -1.5747  0.7081 -1.7630
  598MOL0     H80700   6.626   5.148   7.169 -1.2661  1.1262 -1.7721
  598MOL0     H80701   6.667   5.316   7.109 -0.2796 -1.3704 -1.2369
  598MOL0     H80702   6.502   5.394   7.253  0.6068 -0.5846 -2.4299
  598MOL0     H80703   6.604   5.322   7.385 -0.1989 -4.8181  1.1031
  598MOL0     H80704   6.420   5.131   7.244 -1.3718  3.4277 -3.4120
  598MOL0     H80705   6.505   5.131   7.407  1.8866  1.6546  0.5665
  598MOL0     H80706   6.289   5.334   7.344  0.8732  0.9790  1.1763
  598MOL0     H80707   6.374   5.318   7.484 -1.1801  0.2382  0.1680
  598MOL0     H80708   6.261   5.091   7.540 -0.5063  0.7730  1.5766
  598MOL0     H80709   6.133   5.198   7.491  2.8953  3.1398  1.6480
  598MOL0     H80710   7.215   4.922   7.295 -0.5144 -0.2641 -1.8195
  598MOL0     H80711   7.443   4.877   7.390 -2.3535 -1.6518  1.2149
  598MOL0     H80712   7.931   4.912   7.221  2.8402 -0.6839 -0.8304
  598MOL0     H80713   8.169   4.901   7.303  1.0907 -0.5326  2.3664
  598MOL0     H80714   9.285   5.894   6.863 -0.2875  0.0762 -0.6948
  598MOL0     H80715   9.144   5.891   6.658 -0.2845  0.3393  1.2990
  598MOL0     H80716   8.950   5.707   6.338 -1.6936  0.6211 -2.3037
  598MOL0     H80717   8.848   5.787   6.121 -0.0302 -2.0981  0.2729
  598MOL0     H80718   8.976   5.932   5.744  0.5564  1.7800 -0.2544
  598MOL0     H80719   9.123   5.924   5.855  0.5911 -1.4759 -1.5139
  598MOL0     H80720   9.026   6.136   5.877  0.7665  0.6624  1.2617
  598MOL0     H80721   8.993   6.039   6.027  3.0609 -1.4298 -0.3142
  598MOL0     H80722   8.770   5.990   5.982  0.8621  0.0081  0.5124
  598MOL0     H80723   8.778   6.042   5.811  2.3075  0.1849 -0.9490
  598MOL0     H80724   8.649   6.214   5.947 -0.2871 -2.3703  1.0040
  598MOL0     H80725   8.776   6.203   6.072  1.5332  1.7043 -0.2133
  598MOL0     H80726   8.901   6.525   5.831 -2.8535  1.1020 -0.1856
  598MOL0     H80727   9.200   5.723   5.926 -1.5360 -0.4827 -0.1865
  598MOL0     H80728   9.407   5.668   6.022 -2.6419  1.5855 -1.2215
  598MOL0     H80729   9.425   5.741   6.179 -1.2497  1.2553 -0.4869
  598MOL0     H80730   9.402   5.570   6.174  2.1056 -0.7133 -3.1413
  599MOL0     O80731   3.088   9.269   2.681  0.1450  0.6065  0.3281
  599MOL0     C80732   3.190   9.285   2.619  0.2979 -0.7939  0.2197
  599MOL0     O80733   3.322   9.265   2.668 -0.9641 -0.1937 -0.0224
  599MOL0     C80734   3.340   9.230   2.796  0.3436  0.1095  0.0847
  599MOL0     C80735   3.310   9.310   2.912  0.0193  0.5378 -0.6710
  599MOL0     C80736   3.323   9.238   3.041  0.5180  0.0525  0.5553
  599MOL0     C80737   3.367   9.105   3.067  0.5063  0.0124  0.4014
  599MOL0     O80738   3.377   9.056   3.199  0.0001  1.2704  1.3975
  599MOL0     C80739   3.495   8.990   3.231 -0.0083 -0.2129  0.2083
  599MOL0     C80740   3.464   8.923   3.362  0.1360  0.5317 -0.4128
  599MOL0     C80741   3.577   8.847   3.419  0.6854  0.1960  0.3633
  599MOL0     C80742   3.671   8.944   3.486  0.2309  0.2325 -0.5626
  599MOL0     C80743   3.788   8.866   3.552  0.4325 -0.1616 -0.2244
  599MOL0     C80744   3.888   8.784   3.458  0.0742  0.6282  0.5284
  599MOL0     C80745   4.003   8.713   3.535 -0.0278 -1.6040  1.0930
  599MOL0     C80746   3.962   8.629   3.646  0.3315 -0.0449  0.0204
  599MOL0     N80747   4.066   8.560   3.718  0.3982  0.8527  0.4979
  599MOL0     C80748   4.126   8.585   3.832 -0.2790 -1.0078 -0.4856
  599MOL0     C80749   4.202   8.479   3.855  0.6579 -0.4713  0.2951
  599MOL0     C80750   4.256   8.438   3.986 -0.3115  0.3928 -0.2541
  599MOL0     C80751   4.410   8.394   3.981 -0.4557 -0.3875  0.0127
  599MOL0     C80752   4.506   8.500   3.936 -0.0448  0.5614  0.7461
  599MOL0     C80753   4.650   8.443   3.902  0.4161  0.3441 -0.7381
  599MOL0     O80754   4.647   8.359   3.788  0.3853  0.2986 -0.5640
  599MOL0     C80755   4.682   8.408   3.666  0.6199  0.1477 -0.0514
  599MOL0     C80756   4.712   8.315   3.575 -0.5526  0.5502  0.3820
  599MOL0     C80757   4.743   8.351   3.439 -0.4619 -0.5160 -0.4669
  599MOL0     C80758   4.743   8.495   3.401  0.0768  0.5285  0.4306
  599MOL0     C80759   4.782   8.535   3.262 -0.1116  0.1908  0.1625
  599MOL0     O80760   4.793   8.432   3.169 -0.3200  0.5192 -0.4913
  599MOL0     C80761   4.828   8.457   3.033  0.2015  0.4480 -0.1111
  599MOL0     C80762   4.931   8.365   2.980 -0.0690 -0.5994 -0.0968
  599MOL0     C80763   4.962   8.368   2.848 -0.1044  0.9784  0.1047
  599MOL0     C80764   4.892   8.452   2.763  0.3606 -0.4553 -0.5500
  599MOL0     O80765   4.926   8.459   2.627 -0.0773 -0.2890 -0.7196
  599MOL0     C80766   4.812   8.428   2.549 -0.4438 -0.2514  0.0967
  599MOL0     C80767   4.795   8.269   2.536 -0.9488 -0.9906 -1.6674
  599MOL0     C80768   4.646   8.226   2.497  0.4691  0.5532  0.7217
  599MOL0     C80769   4.634   8.202   2.344 -1.7199  0.3065  0.3811
  599MOL0     C80770   4.521   8.107   2.293  0.4086  0.1281  0.0174
  599MOL0     C80771   4.518   7.966   2.353 -0.2061 -0.0772  0.4174
  599MOL0     C80772   4.419   7.870   2.289  0.3718  1.1063 -0.0114
  599MOL0     C80773   4.278   7.888   2.339 -0.6980 -0.6504  0.0955
  599MOL0    Cl80774   4.171   7.761   2.255 -0.4315  0.2097  0.0711
  599MOL0     C80775   4.791   8.540   2.816 -0.3627  0.6565  0.8873
  599MOL0     C80776   4.768   8.551   2.952  0.9110 -0.5031  0.8183
  599MOL0     O80777   4.790   8.658   3.237  0.0983  0.4181  0.3274
  599MOL0     C80778   4.699   8.592   3.503 -0.4144 -0.1312  0.2683
  599MOL0     C80779   4.672   8.545   3.636  0.4016 -0.4886  0.2149
  599MOL0     N80780   4.201   8.399   3.747 -0.1045 -0.1925 -0.4010
  599MOL0     N80781   4.119   8.446   3.669 -0.5443 -0.4264  0.4623
  599MOL0     C80782   3.374   9.032   2.937  0.3986  0.5809 -0.4059
  599MOL0     C80783   3.366   9.091   2.813 -0.9675 -0.1702 -0.7540
  599MOL0     C80784   3.196   9.337   2.479 -0.1832 -0.5420  0.8211
  599MOL0     C80785   3.323   9.375   2.426 -0.4547  0.1631 -0.0305
  599MOL0     C80786   3.338   9.407   2.289 -0.3959 -0.9959 -0.2252
  599MOL0     C80787   3.224   9.416   2.201 -0.6745  1.1051 -0.7377
  599MOL0     O80788   3.229   9.442   2.066 -0.1259  0.3197  0.1824
  599MOL0     C80789   3.341   9.502   1.992 -0.0794  0.0205 -0.5391
  599MOL0     C80790   3.333   9.466   1.846  0.4426 -0.2565 -0.2292
  599MOL0     C80791   3.390   9.319   1.820 -0.3596 -0.4173 -0.6693
  599MOL0     C80792   3.371   9.279   1.677 -0.2863 -0.5679  0.4899
  599MOL0     C80793   3.459   9.168   1.646 -0.2739  0.3154 -0.2083
  599MOL0     C80794   3.546   9.090   1.605  0.9059 -0.3553  0.0739
  599MOL0     C80795   3.098   9.375   2.258 -0.3323 -0.5035  0.2331
  599MOL0     C80796   3.086   9.349   2.394  1.1100  0.3040 -0.2029
  599MOL0     C80797   2.944   9.311   2.433 -0.3967  0.3594 -0.5544
  599MOL0     H80798   3.279   9.414   2.906 -2.5678  0.0304  1.7592
  599MOL0     H80799   3.291   9.292   3.130 -0.9821  0.2279 -0.0559
  599MOL0     H80800   3.522   8.913   3.158  1.3825  2.3475 -2.1745
  599MOL0     H80801   3.576   9.059   3.256 -2.0474  2.7435 -0.8568
  599MOL0     H80802   3.380   8.856   3.338  0.9656  0.0280 -2.1339
  599MOL0     H80803   3.428   9.001   3.429  0.4458  1.6215 -1.4790
  599MOL0     H80804   3.607   8.779   3.339 -2.4527 -2.1002  0.9193
  599MOL0     H80805   3.537   8.773   3.490  1.5040 -1.1505 -0.5367
  599MOL0     H80806   3.710   9.024   3.422 -0.2681 -0.7471 -2.1450
  599MOL0     H80807   3.614   8.994   3.564 -0.7733 -0.8622 -0.5755
  599MOL0     H80808   3.849   8.942   3.602 -2.7198  2.1617  0.4259
  599MOL0     H80809   3.743   8.804   3.629 -1.6369  0.8746 -0.5390
  599MOL0     H80810   3.832   8.710   3.401  2.6340  1.9658 -4.2815
  599MOL0     H80811   3.937   8.852   3.388  1.8109 -1.4967 -0.4523
  599MOL0     H80812   4.065   8.796   3.571  2.5379 -3.4047  1.1633
  599MOL0     H80813   4.070   8.654   3.471  0.9628  0.3883  0.2184
  599MOL0     H80814   3.913   8.693   3.721 -0.8595 -0.0031 -0.7622
  599MOL0     H80815   3.888   8.559   3.606  1.9652 -2.7491  1.4843
  599MOL0     H80816   4.096   8.668   3.895 -1.4361  0.9075 -3.3405
  599MOL0     H80817   4.251   8.526   4.052  1.1120  1.7256 -1.8381
  599MOL0     H80818   4.192   8.360   4.029 -0.2617  1.0367  1.0341
  599MOL0     H80819   4.445   8.376   4.083 -0.5029  3.2977  0.8323
  599MOL0     H80820   4.416   8.313   3.907  0.1758 -1.7975  1.5549
  599MOL0     H80821   4.530   8.578   4.009  2.7291  1.9612 -1.4737
  599MOL0     H80822   4.457   8.556   3.856 -0.6103  2.1801  2.1432
  599MOL0     H80823   4.683   8.377   3.983  0.2384  0.9781 -0.1454
  599MOL0     H80824   4.734   8.510   3.881  2.1982 -1.5941 -0.2246
  599MOL0     H80825   4.701   8.211   3.603 -0.3809  0.4262 -0.0048
  599MOL0     H80826   4.791   8.272   3.382  1.9652  0.3772  0.1920
  599MOL0     H80827   4.981   8.303   3.054  0.7841  1.4070  1.0831
  599MOL0     H80828   5.029   8.303   2.793 -0.5975  0.0105  0.6216
  599MOL0     H80829   4.717   8.465   2.590 -1.3958 -0.0167 -2.1642
  599MOL0     H80830   4.817   8.469   2.447 -1.1470 -0.1911  0.0762
  599MOL0     H80831   4.869   8.222   2.470 -1.1842  0.2118 -2.8438
  599MOL0     H80832   4.809   8.231   2.637 -0.0384 -0.6299 -1.6445
  599MOL0     H80833   4.618   8.127   2.535  0.0561 -1.4495 -3.9813
  599MOL0     H80834   4.574   8.302   2.526  0.8970  1.3585 -0.2545
  599MOL0     H80835   4.736   8.179   2.312 -1.3526  0.4354  1.4010
  599MOL0     H80836   4.608   8.302   2.309  3.2992  2.9761  3.0941
  599MOL0     H80837   4.527   8.099   2.185 -1.1936 -3.2040  0.0725
  599MOL0     H80838   4.432   8.164   2.324  1.7800  1.1144  2.4736
  599MOL0     H80839   4.615   7.918   2.336 -2.4450 -3.8732 -3.5680
  599MOL0     H80840   4.499   7.972   2.461 -1.0638 -0.5994  0.3080
  599MOL0     H80841   4.434   7.765   2.315 -4.0255  1.1338  3.9813
  599MOL0     H80842   4.426   7.892   2.182 -0.1630  2.6545  0.2425
  599MOL0     H80843   4.263   7.870   2.446 -0.8788  2.6705  0.7129
  599MOL0     H80844   4.249   7.991   2.321  1.4173  0.0332  0.3358
  599MOL0     H80845   4.724   8.594   2.750 -3.0333 -1.3669  1.7578
  599MOL0     H80846   4.696   8.620   2.994  0.0425 -0.8497 -0.0843
  599MOL0     H80847   4.679   8.695   3.474  1.2846  0.4629  1.0684
  599MOL0     H80848   4.625   8.618   3.702  2.3760  0.5779  0.5042
  599MOL0     H80849   3.391   8.926   2.954 -3.4860 -0.0799  0.4138
  599MOL0     H80850   3.367   9.021   2.730 -1.4323 -1.4916  0.3114
  599MOL0     H80851   3.411   9.371   2.489 -1.6663 -3.1127  1.6841
  599MOL0     H80852   3.426   9.459   2.253 -1.6362  2.3101  1.0903
  599MOL0     H80853   3.423   9.470   2.057 -1.4137  0.2980  1.3560
  599MOL0     H80854   3.333   9.611   1.993 -1.1568  0.0172 -2.6351
  599MOL0     H80855   3.400   9.531   1.789 -0.8190 -0.2446 -1.7646
  599MOL0     H80856   3.230   9.491   1.819 -0.4749 -0.6309  2.5528
  599MOL0     H80857   3.338   9.251   1.888  0.3138 -1.3908 -1.1064
  599MOL0     H80858   3.497   9.312   1.843  0.0211 -3.8532 -2.7809
  599MOL0     H80859   3.268   9.249   1.654 -0.6709 -0.3303  1.8085
  599MOL0     H80860   3.392   9.372   1.622 -0.3145  0.0152  1.4364
  599MOL0     H80861   3.629   9.025   1.587  2.3371  1.3530  0.1593
  599MOL0     H80862   3.013   9.369   2.191  0.4218  2.1456 -1.1260
  599MOL0     H80863   2.940   9.207   2.465  1.6738  0.1350 -0.9286
  599MOL0     H80864   2.913   9.368   2.521 -1.5802 -0.2946 -0.5238
  599MOL0     H80865   2.869   9.315   2.353  2.6845 -0.4933 -3.7447
  600MOL0     O80866   6.865   9.153   6.646  0.0166  0.0299  0.1002
  600MOL0     C80867   6.772   9.233   6.682  0.8167 -1.1587  0.6243
  600MOL0     O80868   6.642   9.189   6.720 -0.1803 -0.0665  1.4232
  600MOL0     C80869   6.605   9.054   6.730 -0.8077 -1.1042  0.4606
  600MOL0     C80870   6.691   8.942   6.753  0.4308  0.7200  0.5298
  600MOL0     C80871   6.645   8.810   6.754 -0.6482  0.2904 -0.2377
  600MOL0     C80872   6.513   8.783   6.727 -0.6070  0.1804 -1.4084
  600MOL0     O80873   6.466   8.653   6.715  0.5131  0.0517 -0.4575
  600MOL0     C80874   6.548   8.551   6.659 -0.3559  0.5590  0.4778
  600MOL0     C80875   6.600   8.577   6.506  0.4936  1.2885 -0.7987
  600MOL0     C80876   6.643   8.444   6.446 -0.4283  0.4906 -0.1354
  600MOL0     C80877   6.757   8.384   6.519 -1.0373  0.6468 -0.6908
  600MOL0     C80878   6.821   8.284   6.429 -0.4332  0.2864  0.4207
  600MOL0     C80879   6.743   8.147   6.418  0.0237 -0.2537 -0.4203
  600MOL0     C80880   6.813   8.039   6.342 -0.2715  0.2621  1.1409
  600MOL0     C80881   6.843   8.069   6.196  0.1647 -0.6082  0.6540
  600MOL0     N80882   6.879   7.954   6.112  0.9828  0.3939 -0.0171
  600MOL0     C80883   6.974   7.868   6.154  0.2002 -0.2932  1.0582
  600MOL0     C80884   6.951   7.748   6.079 -0.6194  0.0904  0.7583
  600MOL0     C80885   7.026   7.620   6.103  0.4110  0.7441 -0.0575
  600MOL0     C80886   7.171   7.622   6.071  0.0936  0.6925  0.3678
  600MOL0     C80887   7.189   7.645   5.921 -0.3550 -0.0007  0.3896
  600MOL0     C80888   7.322   7.694   5.888 -0.1894 -0.4156  0.3491
  600MOL0     O80889   7.322   7.758   5.756 -0.5280 -0.7742  0.3807
  600MOL0     C80890   7.433   7.823   5.718 -0.2978 -0.0913 -0.4645
  600MOL0     C80891   7.541   7.872   5.785 -0.0561 -0.8096  0.7461
  600MOL0     C80892   7.635   7.956   5.712  0.5871 -0.0833  0.8553
  600MOL0     C80893   7.619   7.986   5.575  0.4838  0.6043  0.2781
  600MOL0     C80894   7.719   8.063   5.499 -1.1390 -1.1219 -0.6426
  600MOL0     O80895   7.849   8.086   5.557 -0.4671  0.2710 -0.9531
  600MOL0     C80896   7.934   8.185   5.510 -0.1377 -0.6767 -0.2646
  600MOL0     C80897   8.002   8.257   5.608  0.1105  0.7927  0.3897
  600MOL0     C80898   8.092   8.359   5.571  0.3060 -0.5075 -0.6628
  600MOL0     C80899   8.104   8.398   5.441 -0.3288  0.1781  0.2443
  600MOL0     O80900   8.185   8.507   5.415  1.1341  0.0167  0.1223
  600MOL0     C80901   8.161   8.580   5.294  0.5062  0.3574 -0.6226
  600MOL0     C80902   8.175   8.728   5.323  1.0421  0.1285  0.2857
  600MOL0     C80903   8.140   8.793   5.193  0.0531  0.3930  0.4892
  600MOL0     C80904   8.132   8.937   5.229 -0.5635  0.1501  0.3198
  600MOL0     C80905   8.085   9.013   5.101  0.7677  0.4962 -0.9472
  600MOL0     C80906   8.077   9.164   5.133  0.1748  0.0379 -1.4147
  600MOL0     C80907   7.932   9.209   5.162 -0.1688  0.3476  0.9459
  600MOL0     C80908   7.837   9.194   5.044 -0.2884 -0.1174  0.5441
  600MOL0    Cl80909   7.663   9.235   5.076  0.3149 -1.0158 -0.4120
  600MOL0     C80910   8.044   8.328   5.338 -0.2876  0.2590 -0.2250
  600MOL0     C80911   7.958   8.219   5.379  0.8559 -0.3720 -0.3568
  600MOL0     O80912   7.687   8.095   5.386  0.5555 -0.1428  0.0652
  600MOL0     C80913   7.513   7.912   5.505 -0.3062 -0.7599  0.1609
  600MOL0     C80914   7.429   7.831   5.588  1.0343  1.3602 -0.2290
  600MOL0     N80915   6.856   7.772   5.985  0.6708 -0.3546  0.2768
  600MOL0     N80916   6.811   7.897   6.003  0.5396 -0.3161  0.4222
  600MOL0     C80917   6.424   8.891   6.710 -0.7568  0.9327 -0.4589
  600MOL0     C80918   6.470   9.022   6.708 -0.3370  0.6116  0.4464
  600MOL0     C80919   6.795   9.383   6.695 -0.2434  0.7025 -0.4603
  600MOL0     C80920   6.681   9.459   6.726 -0.1073 -0.1080  0.5637
  600MOL0     C80921   6.686   9.598   6.751 -0.2328 -0.2031  0.5656
  600MOL0     C80922   6.796   9.671   6.715 -0.0416 -0.2014  0.8616
  600MOL0     O80923   6.805   9.808   6.713  0.2941  0.2090  0.0456
  600MOL0     C80924   6.677   9.884   6.704 -0.6569  0.0823  0.4621
  600MOL0     C80925   6.667   9.970   6.825  0.9828  0.3099 -0.5653
  600MOL0     C80926   6.589   9.914   6.943 -0.3667  0.1458  0.7640
  600MOL0     C80927   6.572  10.020   7.047  0.0638 -0.3637  0.2726
  600MOL0     C80928   6.527   9.944   7.168  0.8479  0.4377  1.4750
  600MOL0     C80929   6.492   9.880   7.264  0.8439  0.2323 -0.4101
  600MOL0     C80930   6.904   9.595   6.665 -0.8959 -0.5777 -0.5050
  600MOL0     C80931   6.915   9.452   6.661  0.3859  0.4795 -1.2376
  600MOL0     C80932   7.050   9.384   6.626 -0.4543 -0.2454 -0.2990
  600MOL0     H80933   6.799   8.956   6.762  0.3463  1.0207  1.1207
  600MOL0     H80934   6.721   8.734   6.766 -1.2356 -0.3561 -0.5371
  600MOL0     H80935   6.635   8.535   6.724  0.7238  0.1116 -1.0153
  600MOL0     H80936   6.493   8.457   6.662  0.1158  0.1357 -2.1170
  600MOL0     H80937   6.683   8.648   6.512  1.6264 -0.0322 -0.3296
  600MOL0     H80938   6.509   8.623   6.466 -1.5062  0.2431  2.1590
  600MOL0     H80939   6.669   8.471   6.343  4.5370  2.7462  1.4282
  600MOL0     H80940   6.566   8.366   6.446 -0.8573  0.9026  0.4343
  600MOL0     H80941   6.829   8.461   6.548 -1.6069  0.3498  1.7834
  600MOL0     H80942   6.718   8.335   6.609  0.6951 -0.5984 -0.5703
  600MOL0     H80943   6.834   8.320   6.327  1.1725  3.4572  1.6101
  600MOL0     H80944   6.916   8.261   6.478 -1.4532  0.0137  2.3822
  600MOL0     H80945   6.719   8.118   6.521  0.5941 -0.2541 -0.2841
  600MOL0     H80946   6.643   8.167   6.377 -0.6877 -1.0044  0.8776
  600MOL0     H80947   6.776   7.937   6.354  2.1285 -0.9686 -0.8559
  600MOL0     H80948   6.910   8.023   6.391  0.2131 -2.1762 -0.4240
  600MOL0     H80949   6.755   8.113   6.148  0.7786 -0.9324 -0.8141
  600MOL0     H80950   6.922   8.143   6.187  0.3861 -0.9401 -0.2176
  600MOL0     H80951   7.041   7.879   6.239 -0.0263  1.3851  1.0592
  600MOL0     H80952   7.026   7.601   6.211  0.3294  0.1654 -0.1617
  600MOL0     H80953   6.975   7.539   6.051 -3.6486  2.1032  1.3940
  600MOL0     H80954   7.225   7.698   6.129 -1.8407  0.2833  2.9067
  600MOL0     H80955   7.209   7.524   6.099 -0.0936  0.1441 -1.1920
  600MOL0     H80956   7.122   7.724   5.887 -0.2571 -0.6801 -1.4584
  600MOL0     H80957   7.158   7.559   5.861 -2.1739  1.0039 -0.1927
  600MOL0     H80958   7.387   7.607   5.906  1.5053  0.8311  0.5262
  600MOL0     H80959   7.350   7.776   5.955 -1.5551  0.7823 -0.4927
  600MOL0     H80960   7.559   7.879   5.891  1.0408  2.9332  0.4382
  600MOL0     H80961   7.728   7.990   5.757  1.6314 -1.5468 -0.0975
  600MOL0     H80962   7.989   8.252   5.716  1.4519 -3.0877  0.5181
  600MOL0     H80963   8.133   8.413   5.656 -0.3439 -3.1377  1.4648
  600MOL0     H80964   8.228   8.546   5.215  3.3658  3.2498  0.3791
  600MOL0     H80965   8.059   8.570   5.256 -0.1647  0.3406  1.0736
  600MOL0     H80966   8.109   8.753   5.407  1.6654  0.8220  0.5859
  600MOL0     H80967   8.276   8.759   5.351  1.0694  1.4741 -1.1735
  600MOL0     H80968   8.220   8.783   5.120 -3.6326  2.1349 -4.3027
  600MOL0     H80969   8.051   8.753   5.143 -0.2986  2.9428 -1.0967
  600MOL0     H80970   8.226   8.974   5.270 -0.3754  2.7951 -2.1395
  600MOL0     H80971   8.061   8.950   5.311  2.2608  4.6524  2.4823
  600MOL0     H80972   7.988   8.969   5.079  0.9330 -0.9745  0.9914
  600MOL0     H80973   8.154   8.992   5.018  0.1057 -1.1724 -1.1047
  600MOL0     H80974   8.134   9.184   5.224 -0.4263 -1.3415 -0.7076
  600MOL0     H80975   8.126   9.236   5.067  0.7999  2.2687  1.2864
  600MOL0     H80976   7.941   9.316   5.180  3.3357  0.2470  0.3661
  600MOL0     H80977   7.889   9.152   5.246 -0.4680 -1.0203 -0.1021
  600MOL0     H80978   7.864   9.242   4.950 -3.2865  0.0864 -0.3332
  600MOL0     H80979   7.837   9.093   5.002  1.1823  0.7435 -1.6637
  600MOL0     H80980   8.073   8.338   5.234 -2.9068 -2.3394 -1.3556
  600MOL0     H80981   7.916   8.154   5.303  0.4145 -2.1582  1.3397
  600MOL0     H80982   7.490   7.933   5.401 -2.6499  0.6894  0.9014
  600MOL0     H80983   7.357   7.763   5.545  2.8464 -2.0516  1.6953
  600MOL0     H80984   6.320   8.865   6.689  0.2413 -2.7080 -1.5552
  600MOL0     H80985   6.406   9.109   6.699  0.9576  1.4514 -1.0042
  600MOL0     H80986   6.597   9.405   6.769  0.8243 -3.1762 -1.1918
  600MOL0     H80987   6.599   9.655   6.780 -0.1087  1.8001 -2.5970
  600MOL0     H80988   6.586   9.825   6.693 -0.8801  0.0218  2.2805
  600MOL0     H80989   6.695   9.938   6.610 -1.2779  0.0687  0.3325
  600MOL0     H80990   6.601  10.054   6.802 -0.3233 -0.3812  0.4686
  600MOL0     H80991   6.767   9.987   6.865  1.4609 -2.4431 -0.3586
  600MOL0     H80992   6.644   9.829   6.984  1.5658  1.2315  0.5588
  600MOL0     H80993   6.492   9.876   6.910  0.7037 -0.5459 -1.8655
  600MOL0     H80994   6.661  10.079   7.069  0.1926 -1.0275  1.5885
  600MOL0     H80995   6.491  10.090   7.020 -0.4512 -0.9772  0.1903
  600MOL0     H80996   6.460   9.829   7.353  3.0302  1.2828  1.0769
  600MOL0     H80997   6.986   9.657   6.630 -1.7087  0.3109 -0.8938
  600MOL0     H80998   7.050   9.366   6.518 -0.7831  2.6345 -0.8723
  600MOL0     H80999   7.123   9.462   6.648 -1.2617  1.2318 -2.5513
  600MOL0     H81000   7.075   9.295   6.684  0.2267  0.2221  0.1400
  601MOL0     O81001   7.267   9.089   2.559  0.5504 -0.1239  0.0127
  601MOL0     C81002   7.179   9.171   2.588 -1.0770 -1.1779 -0.5342
  601MOL0     O81003   7.084   9.147   2.685 -0.1002  0.0164  0.3795
  601MOL0     C81004   7.104   9.059   2.786  1.0433  0.5346  0.4064
  601MOL0     C81005   7.154   9.094   2.908  0.3477  0.3642 -0.0992
  601MOL0     C81006   7.182   9.004   3.009 -0.8612  0.4570  1.2931
  601MOL0     C81007   7.166   8.866   2.980 -0.9992  0.0805 -0.0025
  601MOL0     O81008   7.200   8.767   3.067  0.0758  0.0393  0.3376
  601MOL0     C81009   7.326   8.768   3.143 -0.4277 -0.9679  0.5940
  601MOL0     C81010   7.385   8.627   3.116  0.4767 -0.3282 -0.1928
  601MOL0     C81011   7.462   8.634   2.987  0.2431 -0.2262  0.2273
  601MOL0     C81012   7.521   8.496   2.952 -0.3559 -0.5675 -0.4367
  601MOL0     C81013   7.611   8.489   2.821  0.3145  0.4990  0.1183
  601MOL0     C81014   7.747   8.563   2.835  0.1190  1.3133  0.5452
  601MOL0     C81015   7.854   8.488   2.751 -0.5450 -1.4118 -0.4637
  601MOL0     C81016   7.829   8.520   2.604 -0.0280  0.0403  0.9251
  601MOL0     N81017   7.937   8.480   2.513  0.1267 -0.0502  0.4190
  601MOL0     C81018   8.058   8.543   2.495 -0.0105 -0.5156 -1.3827
  601MOL0     C81019   8.129   8.482   2.393 -0.4541  0.3787 -0.0637
  601MOL0     C81020   8.271   8.500   2.339 -0.6908 -1.0085 -0.3042
  601MOL0     C81021   8.301   8.419   2.202 -0.4508 -0.1308  0.9643
  601MOL0     C81022   8.396   8.481   2.103 -0.3079  0.1322 -0.5790
  601MOL0     C81023   8.423   8.389   1.984 -0.5376  0.4374  0.5010
  601MOL0     O81024   8.492   8.272   2.034 -1.0014 -0.1667 -0.6311
  601MOL0     C81025   8.556   8.186   1.946 -0.0544 -0.1718 -0.1009
  601MOL0     C81026   8.499   8.062   1.905  0.1416  0.0397 -0.3203
  601MOL0     C81027   8.577   7.970   1.839  0.7277  0.5064 -0.5207
  601MOL0     C81028   8.710   7.992   1.790 -0.5202  1.0682 -0.0793
  601MOL0     C81029   8.785   7.899   1.698 -0.5461  1.2240  0.1324
  601MOL0     O81030   8.913   7.925   1.680  0.0818  0.4923  0.1891
  601MOL0     C81031   8.994   7.873   1.568 -0.1111  0.2243 -0.9720
  601MOL0     C81032   9.052   7.745   1.584 -0.8432  0.1435  0.1305
  601MOL0     C81033   9.119   7.684   1.473 -0.1000  0.1058  0.4102
  601MOL0     C81034   9.121   7.739   1.348  0.3619 -0.1475  0.0539
  601MOL0     O81035   9.194   7.678   1.254 -0.1563  0.0322  0.0860
  601MOL0     C81036   9.187   7.733   1.119 -0.0759  1.0445 -1.0676
  601MOL0     C81037   9.297   7.665   1.039  0.3360 -0.1769 -0.3671
  601MOL0     C81038   9.252   7.655   0.892 -0.3763  0.7107 -1.0707
  601MOL0     C81039   9.226   7.793   0.825  0.8340 -0.5484 -1.2254
  601MOL0     C81040   9.208   7.776   0.672  0.1541  0.7381  0.4229
  601MOL0     C81041   9.210   7.915   0.605 -0.7917  0.6724  0.2163
  601MOL0     C81042   9.159   7.892   0.462  0.5534 -0.1669  0.0520
  601MOL0     C81043   9.020   7.941   0.435 -0.2898  1.2132  0.4385
  601MOL0    Cl81044   9.023   8.126   0.453 -0.4183 -0.1458  0.2120
  601MOL0     C81045   9.048   7.861   1.328  0.3218 -0.2349  0.4699
  601MOL0     C81046   8.993   7.934   1.440 -0.2804  0.2725  0.2578
  601MOL0     O81047   8.722   7.811   1.640  0.2786  0.0914 -0.2534
  601MOL0     C81048   8.757   8.110   1.824  0.4526 -0.2875  0.5181
  601MOL0     C81049   8.689   8.207   1.898 -0.5095  0.8798 -0.0578
  601MOL0     N81050   8.057   8.377   2.362 -0.7491  0.1387  0.7811
  601MOL0     N81051   7.945   8.370   2.433  0.4759  0.1274  0.2990
  601MOL0     C81052   7.109   8.824   2.863  0.9685  0.1711  0.1667
  601MOL0     C81053   7.087   8.916   2.761  0.2636 -0.1997  0.9064
  601MOL0     C81054   7.185   9.307   2.539  0.4352 -0.1350  1.3826
  601MOL0     C81055   7.089   9.390   2.588  0.6906  0.1269 -0.1179
  601MOL0     C81056   7.082   9.527   2.553  0.2653  0.3261 -0.3345
  601MOL0     C81057   7.169   9.577   2.453  0.1369  0.1596 -1.0587
  601MOL0     O81058   7.184   9.718   2.454 -0.4304  0.7293 -0.3214
  601MOL0     C81059   7.157   9.760   2.321 -0.9232 -0.1852  0.2426
  601MOL0     C81060   7.024   9.826   2.310  0.3721  0.1218 -0.7244
  601MOL0     C81061   7.010   9.952   2.409 -0.4907  0.5622  0.4234
  601MOL0     C81062   7.091  10.067   2.345  0.7950 -0.3749 -0.1135
  601MOL0     C81063   7.050  10.199   2.391  0.0012 -0.0379  0.6783
  601MOL0     C81064   6.995  10.294   2.447  0.2015  0.4581 -0.4157
  601MOL0     C81065   7.263   9.492   2.403 -0.0230 -0.1590  0.6567
  601MOL0     C81066   7.273   9.358   2.434  0.2947 -0.6851 -0.4715
  601MOL0     C81067   7.394   9.282   2.381 -0.7906 -0.0335  0.8479
  601MOL0     H81068   7.163   9.202   2.907  0.8627  0.3507  1.4594
  601MOL0     H81069   7.211   9.033   3.109  2.8160 -1.7807  1.0391
  601MOL0     H81070   7.391   8.848   3.108 -2.8368  0.2784 -1.4417
  601MOL0     H81071   7.308   8.785   3.250  2.2809 -1.7227  1.2415
  601MOL0     H81072   7.308   8.550   3.115  0.2496 -0.1826  1.6364
  601MOL0     H81073   7.458   8.613   3.197  0.6281  1.5871  0.0671
  601MOL0     H81074   7.555   8.691   2.996 -0.5421  0.9101  1.5433
  601MOL0     H81075   7.406   8.685   2.907  2.0382 -0.6606 -1.3699
  601MOL0     H81076   7.581   8.465   3.038 -2.5472  0.6585  1.6815
  601MOL0     H81077   7.444   8.418   2.953  1.1418 -2.1303  1.1557
  601MOL0     H81078   7.630   8.382   2.810 -0.9573  0.2612  0.0193
  601MOL0     H81079   7.549   8.528   2.739  2.4264  0.4894 -1.5440
  601MOL0     H81080   7.747   8.665   2.795  0.1802  2.2078  2.7159
  601MOL0     H81081   7.773   8.571   2.941 -0.2786  1.0022  0.6688
  601MOL0     H81082   7.850   8.380   2.767 -0.2891 -1.9358 -3.2992
  601MOL0     H81083   7.954   8.520   2.782 -1.1839  1.3350 -0.9037
  601MOL0     H81084   7.748   8.464   2.556  0.0249 -0.3350  1.2682
  601MOL0     H81085   7.823   8.628   2.586  1.8633  0.2041  1.1464
  601MOL0     H81086   8.103   8.621   2.556  2.6390  0.5376 -4.4216
  601MOL0     H81087   8.291   8.605   2.317  2.4457 -1.8394 -1.9944
  601MOL0     H81088   8.334   8.469   2.423 -1.0598  1.9315  1.1877
  601MOL0     H81089   8.334   8.321   2.238 -1.0470  0.0635  2.0640
  601MOL0     H81090   8.206   8.397   2.153 -1.0483  0.8046  1.6741
  601MOL0     H81091   8.492   8.514   2.142 -0.3396 -1.6685  1.1631
  601MOL0     H81092   8.352   8.579   2.083 -2.9898 -0.6839  0.7739
  601MOL0     H81093   8.485   8.432   1.906  0.6282 -1.4536  0.3035
  601MOL0     H81094   8.331   8.352   1.937 -0.0487  1.2729 -1.1872
  601MOL0     H81095   8.400   8.037   1.941  1.1115  0.4240  2.9445
  601MOL0     H81096   8.528   7.875   1.821  0.0458  1.1143 -1.9479
  601MOL0     H81097   9.010   7.689   1.668 -0.0993  1.4629  1.4159
  601MOL0     H81098   9.164   7.586   1.475 -0.2802  0.0406  1.3501
  601MOL0     H81099   9.085   7.728   1.078 -1.0461 -2.5198  1.2955
  601MOL0     H81100   9.218   7.837   1.125 -0.1810  1.0373 -0.2680
  601MOL0     H81101   9.383   7.731   1.052  1.4195 -1.6150 -0.0732
  601MOL0     H81102   9.320   7.562   1.066 -3.8460 -1.9458 -2.5800
  601MOL0     H81103   9.326   7.593   0.840 -2.0050  0.0537 -2.7280
  601MOL0     H81104   9.163   7.591   0.889  0.4510 -0.6864  1.4621
  601MOL0     H81105   9.307   7.866   0.838  1.1685 -1.3768  2.1196
  601MOL0     H81106   9.149   7.839   0.886  0.5643 -4.5774  1.8989
  601MOL0     H81107   9.114   7.725   0.650  0.8743 -0.2904 -0.3461
  601MOL0     H81108   9.297   7.724   0.638  1.2362  1.1935  2.3856
  601MOL0     H81109   9.146   7.988   0.656  0.0163  0.7199  1.1965
  601MOL0     H81110   9.310   7.958   0.614  0.0919 -1.3912  0.7363
  601MOL0     H81111   9.164   7.792   0.419 -2.4320  0.2114 -1.5151
  601MOL0     H81112   9.221   7.944   0.388  0.2751 -0.8660 -0.6796
  601MOL0     H81113   8.981   7.901   0.340  0.7463  0.7611  0.1876
  601MOL0     H81114   8.955   7.897   0.511  0.0995 -2.9523 -1.3404
  601MOL0     H81115   9.038   7.911   1.232 -1.0786 -1.3135  0.0236
  601MOL0     H81116   8.946   8.027   1.411 -0.4002 -0.5037 -2.3219
  601MOL0     H81117   8.852   8.137   1.779  0.6495  1.4172  1.8559
  601MOL0     H81118   8.738   8.302   1.911 -1.3179  1.0155  2.4728
  601MOL0     H81119   7.100   8.716   2.856 -0.8960  0.3515 -0.8162
  601MOL0     H81120   7.051   8.878   2.666 -0.6810  2.3323  0.1789
  601MOL0     H81121   7.024   9.344   2.662 -1.3025 -0.1714 -1.9351
  601MOL0     H81122   7.017   9.601   2.599  1.9653  2.8384 -1.7251
  601MOL0     H81123   7.154   9.673   2.255  2.5942 -0.2380 -0.0422
  601MOL0     H81124   7.231   9.837   2.298 -0.7358  0.9198  3.9123
  601MOL0     H81125   6.946   9.757   2.345  0.0124  0.4861 -0.7880
  601MOL0     H81126   7.004   9.857   2.207 -0.9425 -1.1829 -0.8908
  601MOL0     H81127   7.051   9.937   2.509 -0.0002 -0.5777  0.0726
  601MOL0     H81128   6.906   9.983   2.407 -0.3683  1.0042  0.7306
  601MOL0     H81129   7.198  10.047   2.356  0.2537 -2.1886  2.7739
  601MOL0     H81130   7.061  10.075   2.240 -1.3110  4.3177  0.5868
  601MOL0     H81131   6.941  10.374   2.494 -0.7900  1.5129 -3.1769
  601MOL0     H81132   7.344   9.529   2.341  0.7573  0.7183  2.1489
  601MOL0     H81133   7.445   9.328   2.296 -0.0727 -2.4781 -0.1315
  601MOL0     H81134   7.472   9.267   2.456 -2.6342 -3.6413  2.2901
  601MOL0     H81135   7.346   9.195   2.336  0.6986 -0.2520 -0.3767
  602MOL0     O81136   9.605   3.287   2.968 -0.2841  0.0020 -1.0783
  602MOL0     C81137   9.591   3.193   3.056 -1.0605 -0.1594  0.4758
  602MOL0     O81138   9.586   3.060   3.033 -0.3792 -0.9560  0.2465
  602MOL0     C81139   9.582   2.992   2.913 -0.9746 -0.2349  0.3586
  602MOL0     C81140   9.581   2.852   2.930 -0.0327 -0.2319 -0.3616
  602MOL0     C81141   9.572   2.764   2.819 -0.1249 -0.1694 -0.3881
  602MOL0     C81142   9.585   2.822   2.691 -0.5800  0.2983 -0.3981
  602MOL0     O81143   9.587   2.758   2.576 -0.1933  0.5426  0.6826
  602MOL0     C81144   9.650   2.624   2.587 -0.0748 -0.2263  0.7063
  602MOL0     C81145   9.694   2.596   2.443  0.2411 -0.8329  0.7905
  602MOL0     C81146   9.802   2.479   2.438  1.3094  0.2152  0.2546
  602MOL0     C81147   9.843   2.460   2.295 -0.2357  0.3219  0.2358
  602MOL0     C81148   9.986   2.406   2.279 -0.6628  0.1348 -0.6114
  602MOL0     C81149  10.001   2.262   2.325  0.3827  0.5171 -0.0518
  602MOL0     C81150  10.149   2.225   2.317  0.4515  0.1912  0.8727
  602MOL0     C81151  10.175   2.069   2.317  0.8771 -0.0876 -0.8692
  602MOL0     N81152  10.318   2.041   2.323 -0.5739 -1.0146 -0.0128
  602MOL0     C81153  10.414   2.115   2.395 -0.3372  1.0688 -0.8203
  602MOL0     C81154  10.529   2.085   2.340 -0.9223 -0.6389 -0.6641
  602MOL0     C81155  10.657   2.132   2.403  0.5539 -0.3568 -0.4664
  602MOL0     C81156  10.709   2.059   2.522 -0.8359 -0.6592  0.8536
  602MOL0     C81157  10.789   2.148   2.616 -0.1701 -0.1928 -0.4337
  602MOL0     C81158  10.855   2.068   2.723  0.7348  0.7149  0.4264
  602MOL0     O81159  10.958   2.132   2.784 -0.5984 -0.3077  0.2616
  602MOL0     C81160  11.038   2.067   2.880  0.5950  0.1870  0.3125
  602MOL0     C81161  11.115   2.141   2.967 -0.1839  1.4122  0.3044
  602MOL0     C81162  11.199   2.096   3.067  0.0523  0.6400  0.3619
  602MOL0     C81163  11.195   1.958   3.086  0.3861  0.6194  0.0413
  602MOL0     C81164  11.285   1.889   3.186  1.5894 -0.6747 -0.2276
  602MOL0     O81165  11.270   1.755   3.206 -0.1453  0.4255  0.2029
  602MOL0     C81166  11.365   1.700   3.292 -0.9509  0.0630 -0.8051
  602MOL0     C81167  11.358   1.737   3.425 -0.5270  0.4815  0.0264
  602MOL0     C81168  11.453   1.680   3.510  0.6978 -0.2896 -0.7779
  602MOL0     C81169  11.554   1.600   3.468 -1.0937 -0.5714 -0.8391
  602MOL0     O81170  11.647   1.552   3.557  0.1013  0.1875 -1.1649
  602MOL0     C81171  11.678   1.421   3.549 -0.5285  0.4524 -0.3258
  602MOL0     C81172  11.746   1.377   3.682 -0.1710 -0.1244  0.3905
  602MOL0     C81173  11.661   1.415   3.803  0.6056  0.4702 -0.0963
  602MOL0     C81174  11.727   1.362   3.934 -0.4985  0.2534  0.9791
  602MOL0     C81175  11.619   1.345   4.042 -0.3127  0.3104  0.6420
  602MOL0     C81176  11.673   1.315   4.187 -0.1169 -0.3334  1.8652
  602MOL0     C81177  11.774   1.194   4.176 -0.5556  0.2363 -0.2961
  602MOL0     C81178  11.851   1.180   4.300 -0.0481  0.7933  0.3534
  602MOL0    Cl81179  11.962   1.322   4.298 -0.2861  0.4708 -0.2772
  602MOL0     C81180  11.556   1.560   3.333 -0.3025  0.3079  0.2573
  602MOL0     C81181  11.457   1.614   3.249  0.5352 -0.6544 -0.0738
  602MOL0     O81182  11.368   1.965   3.238  0.3211  0.3711 -0.6386
  602MOL0     C81183  11.112   1.876   3.005  0.4005  0.3798  0.2177
  602MOL0     C81184  11.035   1.929   2.897 -0.3646  0.8020  0.3136
  602MOL0     N81185  10.513   1.994   2.239  0.0624  0.4121  0.0250
  602MOL0     N81186  10.384   1.957   2.233  0.1824  0.2640 -0.2360
  602MOL0     C81187   9.590   2.960   2.677  0.3114  0.5078  0.3350
  602MOL0     C81188   9.586   3.048   2.784  0.0251 -0.0905 -0.2962
  602MOL0     C81189   9.591   3.242   3.197  0.0843  0.6183  0.2103
  602MOL0     C81190   9.519   3.362   3.231  0.0359 -0.5300 -0.4053
  602MOL0     C81191   9.508   3.413   3.356 -0.2860 -0.6647 -0.7756
  602MOL0     C81192   9.575   3.342   3.465  0.6167 -0.1315 -0.4109
  602MOL0     O81193   9.618   3.394   3.585  0.3529  0.1576 -0.7444
  602MOL0     C81194   9.598   3.536   3.605 -0.3578 -0.0472  0.0117
  602MOL0     C81195   9.692   3.603   3.712  0.1209  0.3541  0.4513
  602MOL0     C81196   9.664   3.756   3.730 -0.1492  0.9446  0.3271
  602MOL0     C81197   9.757   3.822   3.838  0.2895  0.9759 -0.0819
  602MOL0     C81198   9.741   3.973   3.837 -0.1295 -0.3701 -0.4892
  602MOL0     C81199   9.747   4.092   3.866  0.6886 -0.0804  0.1918
  602MOL0     C81200   9.633   3.221   3.430 -0.3605 -0.6368 -0.1635
  602MOL0     C81201   9.646   3.173   3.304  0.6614 -0.9075 -0.5157
  602MOL0     C81202   9.725   3.042   3.280 -1.3088  0.5667  0.2438
  602MOL0     H81203   9.579   2.807   3.029  0.4405 -0.3358 -0.3977
  602MOL0     H81204   9.569   2.657   2.838 -2.6955 -0.1777 -0.5210
  602MOL0     H81205   9.734   2.620   2.656 -1.1014 -0.9101  1.9523
  602MOL0     H81206   9.577   2.550   2.622 -1.8545  0.8370 -0.5440
  602MOL0     H81207   9.730   2.691   2.403 -4.4235  1.0731  0.4975
  602MOL0     H81208   9.607   2.564   2.385 -0.9869 -1.2555  2.7959
  602MOL0     H81209   9.771   2.380   2.473  0.8741  0.6372  1.1003
  602MOL0     H81210   9.882   2.514   2.504 -0.6702  4.0392  0.9171
  602MOL0     H81211   9.768   2.398   2.246 -1.8809  1.0571  1.7134
  602MOL0     H81212   9.845   2.559   2.249  0.5025  1.5093  2.6820
  602MOL0     H81213  10.029   2.433   2.182 -0.0905  2.1681  0.1644
  602MOL0     H81214  10.060   2.457   2.342  0.5102  2.4948 -3.6163
  602MOL0     H81215   9.961   2.251   2.426  1.8059 -1.3673  0.3833
  602MOL0     H81216   9.949   2.194   2.257  0.4581  2.3403 -2.0313
  602MOL0     H81217  10.204   2.257   2.406  1.2170  2.5233 -0.3464
  602MOL0     H81218  10.198   2.271   2.230 -0.3521  0.2809  0.4608
  602MOL0     H81219  10.131   2.018   2.404 -0.0154 -0.1059 -1.3269
  602MOL0     H81220  10.118   2.024   2.236  0.0016 -0.2898 -0.1564
  602MOL0     H81221  10.405   2.195   2.468 -1.8623  0.1690  0.0355
  602MOL0     H81222  10.728   2.137   2.320  1.2855 -1.2382  0.0894
  602MOL0     H81223  10.627   2.235   2.427 -4.0576 -1.0084 -2.4085
  602MOL0     H81224  10.621   2.014   2.568 -1.1472 -1.9725 -0.9495
  602MOL0     H81225  10.774   1.978   2.489  0.6954  0.2641  1.4727
  602MOL0     H81226  10.730   2.230   2.659  0.9431 -0.3001  1.4276
  602MOL0     H81227  10.873   2.195   2.564  0.1664 -0.6103 -0.2685
  602MOL0     H81228  10.887   1.972   2.683 -0.5637  0.2161  0.5494
  602MOL0     H81229  10.783   2.053   2.804 -0.5877 -2.5865 -1.2024
  602MOL0     H81230  11.104   2.248   2.951 -1.5117  1.2250 -0.1888
  602MOL0     H81231  11.262   2.157   3.130 -0.2863 -0.4323  1.7774
  602MOL0     H81232  11.279   1.807   3.451 -3.0190 -1.7908 -0.9433
  602MOL0     H81233  11.451   1.699   3.617 -1.0980  1.4140 -1.0515
  602MOL0     H81234  11.590   1.359   3.529 -0.9954  2.0972 -4.2023
  602MOL0     H81235  11.738   1.410   3.458 -2.8823  3.1120 -2.3591
  602MOL0     H81236  11.778   1.273   3.679  1.8532  0.4129  1.3009
  602MOL0     H81237  11.833   1.439   3.659  2.0560 -3.8724 -2.4307
  602MOL0     H81238  11.648   1.523   3.805  1.6880  0.6531 -1.2602
  602MOL0     H81239  11.563   1.370   3.785  0.2969  1.2051 -0.2515
  602MOL0     H81240  11.811   1.426   3.964  0.1409  0.3379 -0.8807
  602MOL0     H81241  11.775   1.267   3.907  0.1352  0.8701 -0.1157
  602MOL0     H81242  11.548   1.269   4.008  0.8510 -0.6597  0.2850
  602MOL0     H81243  11.560   1.436   4.035  0.1497  0.4674 -2.0393
  602MOL0     H81244  11.723   1.404   4.226  0.7344 -0.4857  1.1491
  602MOL0     H81245  11.589   1.296   4.255 -1.3363 -2.8881 -0.1788
  602MOL0     H81246  11.840   1.212   4.090 -1.0657  3.0706 -0.1907
  602MOL0     H81247  11.718   1.103   4.150 -1.1367 -0.0763  1.8674
  602MOL0     H81248  11.792   1.178   4.391  1.5553 -0.2813  1.4258
  602MOL0     H81249  11.910   1.088   4.305 -0.1010  0.7748  0.6360
  602MOL0     H81250  11.623   1.481   3.299  0.7831 -0.0692  3.0604
  602MOL0     H81251  11.453   1.592   3.143 -0.5510 -0.4438 -0.0812
  602MOL0     H81252  11.114   1.767   3.005  0.7988  0.3563 -1.2591
  602MOL0     H81253  10.983   1.853   2.840  1.9238  1.8387 -3.4711
  602MOL0     H81254   9.605   3.006   2.579  0.7484  2.5029  1.2881
  602MOL0     H81255   9.588   3.156   2.768  3.4842 -0.1786 -1.2146
  602MOL0     H81256   9.469   3.426   3.158 -0.7937  1.0969  1.4957
  602MOL0     H81257   9.459   3.508   3.370  0.4216 -0.5946  1.6329
  602MOL0     H81258   9.495   3.551   3.639 -0.1502 -3.1812  2.4974
  602MOL0     H81259   9.614   3.592   3.512 -2.7306 -1.6363 -1.4418
  602MOL0     H81260   9.799   3.580   3.706 -0.2559 -1.3893 -0.3702
  602MOL0     H81261   9.658   3.568   3.810  0.9312  0.6813  0.8603
  602MOL0     H81262   9.559   3.756   3.761 -0.2714  1.9701 -0.0593
  602MOL0     H81263   9.679   3.797   3.630  1.0601 -0.1500  0.0247
  602MOL0     H81264   9.726   3.790   3.938 -1.7483  4.9638  0.7249
  602MOL0     H81265   9.859   3.790   3.814  0.1285  2.7583 -3.6892
  602MOL0     H81266   9.763   4.195   3.891  3.6848  0.1985 -2.3320
  602MOL0     H81267   9.666   3.160   3.515  2.4801  3.6857  2.2178
  602MOL0     H81268   9.665   2.961   3.238  2.0316 -1.8105 -0.3183
  602MOL0     H81269   9.815   3.060   3.221 -0.2734 -1.6102  1.0763
  602MOL0     H81270   9.772   3.007   3.372 -1.2446 -0.8704 -0.3165
  603MOL0     O81271  10.554  11.251   7.182 -0.4045  0.1023 -0.4162
  603MOL0     C81272  10.593  11.372   7.163  0.5374  0.0275 -0.1497
  603MOL0     O81273  10.563  11.475   7.238  0.2970  0.3912 -0.4213
  603MOL0     C81274  10.500  11.437   7.362 -1.0177  0.4537  0.4667
  603MOL0     C81275  10.366  11.455   7.392  0.0749 -1.1465  0.8214
  603MOL0     C81276  10.302  11.398   7.499  0.1795 -0.7776 -0.2503
  603MOL0     C81277  10.379  11.321   7.589  0.2139 -0.5190 -0.5271
  603MOL0     O81278  10.328  11.274   7.704 -0.6098 -0.5660  0.3784
  603MOL0     C81279  10.219  11.340   7.770  0.8609 -0.0105  0.6696
  603MOL0     C81280  10.246  11.346   7.913 -0.4692 -0.2251 -0.3574
  603MOL0     C81281  10.365  11.442   7.951  0.0734 -0.3296  0.0148
  603MOL0     C81282  10.329  11.581   8.030 -0.5833 -0.0523 -0.4733
  603MOL0     C81283  10.292  11.545   8.183  0.2792 -0.4087 -0.9591
  603MOL0     C81284  10.262  11.666   8.272  0.2972 -0.3021  0.3029
  603MOL0     C81285  10.390  11.743   8.317  0.2928 -0.6051  0.0284
  603MOL0     C81286  10.341  11.863   8.383  0.2774 -0.3435  0.3296
  603MOL0     N81287  10.449  11.958   8.394  0.2653  0.0976 -0.6035
  603MOL0     C81288  10.460  12.085   8.338  0.5105  0.0107 -0.2160
  603MOL0     C81289  10.570  12.140   8.390  1.4519 -0.8784 -0.0279
  603MOL0     C81290  10.645  12.273   8.343 -0.2035  0.1490 -0.8453
  603MOL0     C81291  10.589  12.399   8.407 -1.0294 -0.3732 -0.3024
  603MOL0     C81292  10.651  12.527   8.358 -0.1251 -0.2439 -0.5734
  603MOL0     C81293  10.793  12.553   8.407  0.1689 -0.0225  0.5692
  603MOL0     O81294  10.890  12.461   8.357  0.5355  0.2341 -0.2948
  603MOL0     C81295  11.022  12.489   8.373 -1.2312 -0.1418  0.4982
  603MOL0     C81296  11.109  12.382   8.368 -0.0773  0.9439 -0.2107
  603MOL0     C81297  11.244  12.398   8.386  0.0798  0.0408  0.4841
  603MOL0     C81298  11.303  12.523   8.376 -0.4133 -0.4571  0.2902
  603MOL0     C81299  11.452  12.534   8.375 -0.1268  0.2555  0.1376
  603MOL0     O81300  11.516  12.429   8.424  0.1926  0.3092 -0.1739
  603MOL0     C81301  11.659  12.425   8.436  0.9655 -0.0367  0.4365
  603MOL0     C81302  11.757  12.515   8.372 -0.4722  0.1194 -0.2357
  603MOL0     C81303  11.887  12.492   8.390 -0.0953  0.0089 -0.7036
  603MOL0     C81304  11.931  12.375   8.458 -0.0541 -0.1613 -0.2080
  603MOL0     O81305  12.061  12.328   8.452  0.6107  0.4713 -0.5766
  603MOL0     C81306  12.153  12.393   8.372 -0.6161  0.4260  1.2682
  603MOL0     C81307  12.279  12.310   8.373 -0.2305  0.3497  0.4597
  603MOL0     C81308  12.409  12.382   8.311 -0.6645 -0.4382  0.8013
  603MOL0     C81309  12.523  12.285   8.298 -0.6258 -1.0278 -0.1064
  603MOL0     C81310  12.659  12.359   8.260  0.4817  0.2973  0.9702
  603MOL0     C81311  12.741  12.421   8.372  0.1079 -0.2780 -0.6976
  603MOL0     C81312  12.820  12.541   8.322 -0.3534 -0.0762 -0.0179
  603MOL0     C81313  12.909  12.538   8.190  1.7653  0.7056 -0.8582
  603MOL0    Cl81314  13.005  12.683   8.166  0.1336 -0.0704 -0.2707
  603MOL0     C81315  11.837  12.298   8.533 -0.2069 -0.1968  1.0680
  603MOL0     C81316  11.703  12.334   8.528 -0.3527 -0.0854  0.0030
  603MOL0     O81317  11.506  12.638   8.358 -0.4522 -0.6076  0.1499
  603MOL0     C81318  11.215  12.636   8.358 -0.6846 -0.5769 -0.4412
  603MOL0     C81319  11.079  12.626   8.367  0.0683  0.7021  0.2950
  603MOL0     N81320  10.639  12.040   8.454 -0.8266 -0.0195  0.7424
  603MOL0     N81321  10.569  11.931   8.455 -0.2465  0.0494  0.5599
  603MOL0     C81322  10.515  11.311   7.570 -0.8872 -0.2820  0.1919
  603MOL0     C81323  10.581  11.371   7.459 -0.1042 -0.0727  0.2842
  603MOL0     C81324  10.670  11.405   7.037  0.5208  0.3139 -0.3117
  603MOL0     C81325  10.720  11.535   7.021 -0.5662 -0.5729 -0.5530
  603MOL0     C81326  10.813  11.577   6.925 -0.2151 -0.0185  0.0403
  603MOL0     C81327  10.848  11.485   6.824  0.5342 -0.5502 -0.0910
  603MOL0     O81328  10.922  11.560   6.732  0.6319  0.8277  0.0753
  603MOL0     C81329  10.954  11.522   6.595  0.8084 -0.5455  0.8692
  603MOL0     C81330  11.040  11.636   6.539  0.2477 -0.0045  0.5155
  603MOL0     C81331  11.176  11.657   6.609 -0.7590  0.7475 -1.0076
  603MOL0     C81332  11.279  11.540   6.605 -0.3762  1.3098 -0.0806
  603MOL0     C81333  11.401  11.603   6.655 -0.2766 -1.0335 -1.4972
  603MOL0     C81334  11.496  11.657   6.708 -0.6289 -0.7031  0.1916
  603MOL0     C81335  10.798  11.352   6.825 -0.9706  0.5726 -0.3709
  603MOL0     C81336  10.715  11.311   6.932  0.1191  0.3331 -0.1796
  603MOL0     C81337  10.679  11.169   6.934 -0.6200  0.0107  0.3897
  603MOL0     H81338  10.312  11.522   7.326  1.5793 -0.9768 -0.2797
  603MOL0     H81339  10.200  11.422   7.527  0.7538 -1.3980  2.7553
  603MOL0     H81340  10.204  11.444   7.742 -0.3568 -0.4241 -0.3213
  603MOL0     H81341  10.122  11.293   7.750  0.9386  0.5559 -1.1960
  603MOL0     H81342  10.282  11.250   7.952  2.9381  1.5868  1.4406
  603MOL0     H81343  10.159  11.375   7.973  2.8347 -1.9143  6.3241
  603MOL0     H81344  10.412  11.465   7.855  0.4385 -0.0212  0.2603
  603MOL0     H81345  10.443  11.395   8.012  0.4303 -0.3477 -0.4509
  603MOL0     H81346  10.415  11.647   8.014  2.9075 -4.7196 -3.6029
  603MOL0     H81347  10.243  11.629   7.981  0.7346  0.8447 -2.0064
  603MOL0     H81348  10.207  11.476   8.176  2.2182 -2.9857 -0.5520
  603MOL0     H81349  10.377  11.495   8.228  0.7550  1.6120  0.5600
  603MOL0     H81350  10.187  11.724   8.217  1.0113  0.8575  0.5165
  603MOL0     H81351  10.202  11.637   8.358 -4.5129 -1.8877 -3.1396
  603MOL0     H81352  10.455  11.768   8.233  1.6159  0.6706  1.3872
  603MOL0     H81353  10.450  11.693   8.393  0.7856  0.5577  0.4263
  603MOL0     H81354  10.274  11.912   8.311  0.1101 -1.3053 -0.1854
  603MOL0     H81355  10.297  11.841   8.480  0.0305 -1.0331  0.0704
  603MOL0     H81356  10.398  12.139   8.268  1.0857  1.4121  0.3075
  603MOL0     H81357  10.751  12.251   8.362 -0.5208  0.3622  1.4641
  603MOL0     H81358  10.629  12.291   8.236 -1.8476 -0.2655 -0.6936
  603MOL0     H81359  10.481  12.403   8.392 -0.9473  2.7367 -0.7594
  603MOL0     H81360  10.613  12.393   8.514  1.2449  0.7902 -0.6810
  603MOL0     H81361  10.585  12.603   8.402 -1.6513 -1.9605  0.2521
  603MOL0     H81362  10.638  12.534   8.249 -1.7604  0.0377 -0.3931
  603MOL0     H81363  10.783  12.569   8.514  2.1546  0.0371  0.7740
  603MOL0     H81364  10.816  12.653   8.368  1.1606 -0.8795 -1.1825
  603MOL0     H81365  11.061  12.287   8.348  0.6781  0.7399 -1.0837
  603MOL0     H81366  11.308  12.311   8.392 -1.1919 -0.8567  1.7196
  603MOL0     H81367  11.729  12.606   8.318  1.1205  0.4812 -0.5036
  603MOL0     H81368  11.964  12.558   8.351 -0.1115 -0.0401 -0.8186
  603MOL0     H81369  12.114  12.409   8.271 -2.5537  1.2352  2.0945
  603MOL0     H81370  12.165  12.492   8.416  0.6348  1.0497 -0.3727
  603MOL0     H81371  12.299  12.297   8.480  2.9682  4.0572  0.5573
  603MOL0     H81372  12.273  12.212   8.325 -0.8762  0.3449  0.5411
  603MOL0     H81373  12.379  12.423   8.213  1.3894  1.9117  1.0634
  603MOL0     H81374  12.447  12.456   8.382  1.0840 -2.0287  1.5920
  603MOL0     H81375  12.492  12.206   8.229 -3.6154 -0.6262  0.6396
  603MOL0     H81376  12.533  12.239   8.397 -6.5362 -0.4176  1.1700
  603MOL0     H81377  12.634  12.423   8.175 -1.2794 -1.2089  0.3126
  603MOL0     H81378  12.729  12.285   8.219  0.9879  0.7253  1.0405
  603MOL0     H81379  12.667  12.446   8.448  1.6396 -0.8967  1.0927
  603MOL0     H81380  12.814  12.348   8.409 -0.3382 -1.1111 -1.4065
  603MOL0     H81381  12.886  12.573   8.403  0.4478  0.8201 -1.0006
  603MOL0     H81382  12.739  12.613   8.306  2.1567  3.1748  0.7599
  603MOL0     H81383  12.978  12.453   8.185  0.1175 -0.6639 -1.2746
  603MOL0     H81384  12.838  12.527   8.107 -1.8762  2.8267  1.6933
  603MOL0     H81385  11.874  12.217   8.594 -1.4894 -1.3781  0.3286
  603MOL0     H81386  11.623  12.279   8.578 -0.6931  0.1128 -0.3261
  603MOL0     H81387  11.261  12.733   8.343  1.6610 -1.6451 -0.4887
  603MOL0     H81388  11.015  12.714   8.371  0.3459  0.9465  4.7114
  603MOL0     H81389  10.564  11.258   7.651  0.0243 -0.7373 -0.6283
  603MOL0     H81390  10.689  11.365   7.460  0.1670  1.2281  5.6901
  603MOL0     H81391  10.681  11.623   7.072  0.9952  0.5227 -1.1910
  603MOL0     H81392  10.857  11.676   6.920  0.0698 -0.2178 -2.6243
  603MOL0     H81393  10.864  11.531   6.533  3.2051  2.2436 -2.5624
  603MOL0     H81394  11.000  11.422   6.592  1.6258 -0.1441 -1.2084
  603MOL0     H81395  10.981  11.727   6.551  0.3484  0.3431 -1.3901
  603MOL0     H81396  11.065  11.625   6.433 -0.9206  1.4552  0.0573
  603MOL0     H81397  11.152  11.684   6.712  3.0698  0.2522  0.1691
  603MOL0     H81398  11.208  11.747   6.555 -1.1535  0.3568 -1.9130
  603MOL0     H81399  11.238  11.473   6.681 -2.4080  2.0722 -0.4357
  603MOL0     H81400  11.281  11.494   6.506  1.8082 -3.1084  1.7266
  603MOL0     H81401  11.588  11.682   6.757  0.2382 -3.5172  0.1463
  603MOL0     H81402  10.802  11.288   6.738 -1.4068 -1.3478  0.9653
  603MOL0     H81403  10.575  11.163   6.902 -0.2791 -2.2700 -0.5677
  603MOL0     H81404  10.737  11.106   6.864  1.9102 -1.2634  3.3767
  603MOL0     H81405  10.676  11.121   7.032 -1.8860  0.7567  0.7307
  604MOL0     O81406   2.674   1.941   1.653 -0.5404  0.2836  0.0776
  604MOL0     C81407   2.794   1.925   1.679 -0.9470 -0.1766 -0.3546
  604MOL0     O81408   2.846   1.836   1.774  0.2514  0.1053 -0.0351
  604MOL0     C81409   2.742   1.760   1.835 -0.6427  0.4843  0.2184
  604MOL0     C81410   2.693   1.799   1.964 -0.8294  0.5192 -0.2435
  604MOL0     C81411   2.572   1.737   1.992  0.0187 -0.3334 -0.2081
  604MOL0     C81412   2.506   1.638   1.926  0.8351  0.1769  0.0448
  604MOL0     O81413   2.395   1.582   1.985  0.3904 -0.7524  0.0188
  604MOL0     C81414   2.307   1.503   1.908 -0.2224 -0.2341  0.9831
  604MOL0     C81415   2.161   1.478   1.964  0.9622 -0.3831  0.0056
  604MOL0     C81416   2.095   1.365   1.884  0.1739 -0.6348 -0.9479
  604MOL0     C81417   2.004   1.400   1.764 -0.4877 -1.1859  0.1643
  604MOL0     C81418   1.965   1.271   1.686 -0.2649  0.6884 -0.1543
  604MOL0     C81419   1.838   1.267   1.601  0.0383  0.0073  0.8609
  604MOL0     C81420   1.714   1.341   1.655 -0.0071 -0.4422  1.1229
  604MOL0     C81421   1.584   1.298   1.586  0.1780 -1.3590  0.7847
  604MOL0     N81422   1.571   1.327   1.441  0.7627  0.5815 -0.6913
  604MOL0     C81423   1.546   1.438   1.376  0.3655  0.1503  0.3938
  604MOL0     C81424   1.571   1.405   1.244  1.0285 -0.6636 -0.1350
  604MOL0     C81425   1.552   1.492   1.121  0.1809 -0.1070 -0.6855
  604MOL0     C81426   1.415   1.556   1.114  0.5025 -0.6183  0.0174
  604MOL0     C81427   1.308   1.451   1.079  0.4236  0.0224  0.0991
  604MOL0     C81428   1.167   1.465   1.142  0.4330 -0.5662 -0.6254
  604MOL0     O81429   1.173   1.489   1.282 -0.3604  0.2602  0.5768
  604MOL0     C81430   1.187   1.381   1.374 -0.7105  0.1651 -1.0279
  604MOL0     C81431   1.182   1.247   1.349  0.8022 -0.3276 -0.2054
  604MOL0     C81432   1.190   1.157   1.450 -1.2224  0.9491 -0.6823
  604MOL0     C81433   1.184   1.193   1.587 -0.1973  0.3112 -0.1502
  604MOL0     C81434   1.181   1.099   1.698 -0.3037 -0.5685 -0.1790
  604MOL0     O81435   1.164   1.157   1.824 -0.0586 -0.0635 -0.0279
  604MOL0     C81436   1.175   1.089   1.943  0.5521 -0.7484  0.0402
  604MOL0     C81437   1.255   1.143   2.042  1.0663 -0.2997 -0.4129
  604MOL0     C81438   1.278   1.076   2.168 -0.8360  0.2000 -1.5016
  604MOL0     C81439   1.234   0.946   2.176 -0.5470 -0.2083 -0.1130
  604MOL0     O81440   1.272   0.866   2.276  0.0360  0.5915 -0.1814
  604MOL0     C81441   1.254   0.931   2.409  0.8645 -0.3969  0.0747
  604MOL0     C81442   1.237   0.805   2.490 -0.1259  0.1723  0.6652
  604MOL0     C81443   1.222   0.799   2.643  0.1709 -0.6927 -0.1574
  604MOL0     C81444   1.123   0.905   2.687 -0.0110 -0.2638 -0.3278
  604MOL0     C81445   1.096   0.908   2.834 -0.0484 -0.6002  0.2133
  604MOL0     C81446   0.956   0.975   2.844  0.4387  0.5614 -0.6748
  604MOL0     C81447   0.919   0.963   2.998  0.1876 -0.0175 -0.4390
  604MOL0     C81448   0.807   1.055   3.021 -0.5583 -0.3406  0.5548
  604MOL0    Cl81449   0.778   1.093   3.190  0.1239  0.2158 -0.2723
  604MOL0     C81450   1.141   0.897   2.087 -0.9383 -0.2595 -0.2090
  604MOL0     C81451   1.114   0.967   1.970 -0.6706  1.2468 -0.5345
  604MOL0     O81452   1.209   0.986   1.674  0.4698  0.1716 -0.4047
  604MOL0     C81453   1.195   1.329   1.609 -0.3471  0.1741  0.3771
  604MOL0     C81454   1.197   1.427   1.503 -0.5745  1.0985 -0.4144
  604MOL0     N81455   1.621   1.280   1.232 -0.7443  1.3700  0.5362
  604MOL0     N81456   1.619   1.230   1.349 -0.0867 -0.1295  0.0869
  604MOL0     C81457   2.555   1.603   1.803 -0.8730  0.1853 -0.0424
  604MOL0     C81458   2.676   1.659   1.755 -0.3232 -1.0624 -0.3953
  604MOL0     C81459   2.883   2.023   1.609  0.1045 -0.3086  0.1626
  604MOL0     C81460   2.828   2.070   1.481  0.0770  0.3563  0.2922
  604MOL0     C81461   2.907   2.146   1.391  1.4666  0.1062 -0.5312
  604MOL0     C81462   3.030   2.186   1.437 -0.0505  0.2610  0.3551
  604MOL0     O81463   3.099   2.253   1.339  0.7228  0.7096  0.5983
  604MOL0     C81464   3.238   2.253   1.342  0.5258 -0.6395 -0.1561
  604MOL0     C81465   3.280   2.364   1.252 -0.8867 -0.4267  0.7557
  604MOL0     C81466   3.430   2.347   1.223 -0.7495  0.1201  0.9915
  604MOL0     C81467   3.491   2.445   1.113 -0.1174 -0.3944 -0.0592
  604MOL0     C81468   3.523   2.572   1.173  0.2510 -0.5077  0.0595
  604MOL0     C81469   3.551   2.670   1.233 -0.4186 -0.7992  0.4266
  604MOL0     C81470   3.084   2.145   1.557  0.5008  0.3471  0.3114
  604MOL0     C81471   3.006   2.064   1.646  1.2376 -0.4542 -0.1949
  604MOL0     C81472   3.068   2.003   1.765 -0.7909 -0.7596  0.5002
  604MOL0     H81473   2.748   1.870   2.024 -0.9626  1.2520 -0.9618
  604MOL0     H81474   2.551   1.755   2.097  2.4443  0.6704  0.1795
  604MOL0     H81475   2.293   1.556   1.813 -0.5775 -3.0189 -0.6339
  604MOL0     H81476   2.349   1.406   1.879  3.7247  2.1081 -2.2365
  604MOL0     H81477   2.097   1.565   1.948  2.3527  0.1972 -3.5064
  604MOL0     H81478   2.180   1.442   2.065 -3.1970  0.7640  1.3802
  604MOL0     H81479   2.038   1.306   1.956  1.4272 -0.7407  0.0007
  604MOL0     H81480   2.178   1.301   1.852  0.4173 -2.4179  2.7586
  604MOL0     H81481   1.909   1.435   1.806 -0.9048 -3.2203  1.0023
  604MOL0     H81482   2.056   1.475   1.703 -0.3389 -1.7209 -0.3812
  604MOL0     H81483   2.053   1.229   1.637 -0.1872 -2.7516  2.5149
  604MOL0     H81484   1.941   1.206   1.771 -2.3273  2.0902  0.4127
  604MOL0     H81485   1.858   1.309   1.502  1.0289 -1.5085  0.3992
  604MOL0     H81486   1.799   1.166   1.592 -1.0292  0.5109 -0.4527
  604MOL0     H81487   1.726   1.449   1.645  1.3443 -0.5756  1.0907
  604MOL0     H81488   1.705   1.317   1.762  0.3996 -0.5239  1.1390
  604MOL0     H81489   1.572   1.190   1.602 -2.7205 -1.2806 -0.2680
  604MOL0     H81490   1.491   1.331   1.632 -1.0185 -2.3298 -0.8307
  604MOL0     H81491   1.507   1.533   1.411  0.2537  0.7072 -1.1595
  604MOL0     H81492   1.633   1.566   1.125  2.3135 -2.3237  0.0097
  604MOL0     H81493   1.589   1.427   1.041 -0.6790 -0.8559 -0.4902
  604MOL0     H81494   1.384   1.605   1.206 -3.2282 -1.4085 -0.6561
  604MOL0     H81495   1.414   1.640   1.043 -1.9322 -0.3711  0.2410
  604MOL0     H81496   1.330   1.348   1.109 -1.7830  0.2623  3.0003
  604MOL0     H81497   1.299   1.445   0.970  0.7314 -0.7303  0.1057
  604MOL0     H81498   1.100   1.381   1.118 -1.9368  1.2959 -0.9162
  604MOL0     H81499   1.118   1.552   1.098  1.4160 -0.2573 -1.1189
  604MOL0     H81500   1.168   1.212   1.247  0.6624 -1.6599  0.2486
  604MOL0     H81501   1.201   1.051   1.431  0.9306  0.4546  2.4942
  604MOL0     H81502   1.295   1.242   2.023  1.9487 -0.7386 -0.8956
  604MOL0     H81503   1.328   1.125   2.252 -2.6320 -1.7183  0.8346
  604MOL0     H81504   1.338   0.989   2.448  1.8725 -1.3960 -0.5411
  604MOL0     H81505   1.161   0.989   2.414  2.1728  1.6777  2.2386
  604MOL0     H81506   1.145   0.775   2.439  1.8940 -1.2777 -2.3914
  604MOL0     H81507   1.317   0.741   2.453 -1.7208 -0.3577 -2.1662
  604MOL0     H81508   1.186   0.699   2.669 -0.1556 -0.3817  0.6181
  604MOL0     H81509   1.308   0.822   2.707 -1.6306  0.0637  2.1468
  604MOL0     H81510   1.024   0.900   2.640 -1.9871  0.9075  3.3001
  604MOL0     H81511   1.160   1.005   2.661  2.1034 -1.1950 -1.1107
  604MOL0     H81512   1.165   0.974   2.888  0.1370  0.0190 -0.7597
  604MOL0     H81513   1.101   0.809   2.880 -0.4806  0.0436  1.7289
  604MOL0     H81514   0.981   1.079   2.820  0.5183  0.5939 -0.4493
  604MOL0     H81515   0.881   0.933   2.775 -2.3197  2.8071  0.7545
  604MOL0     H81516   1.003   0.992   3.062  0.0737  0.7999 -0.6502
  604MOL0     H81517   0.882   0.866   3.033  0.3084 -0.1145 -0.5776
  604MOL0     H81518   0.827   1.156   2.983 -2.0019 -0.1073  0.3647
  604MOL0     H81519   0.714   1.029   2.971 -1.7705  3.7100  0.3743
  604MOL0     H81520   1.123   0.793   2.108  0.8034 -0.8199 -1.2477
  604MOL0     H81521   1.049   0.918   1.898  1.8305  0.1260 -2.1682
  604MOL0     H81522   1.193   1.370   1.710 -1.2945 -0.9359  0.8263
  604MOL0     H81523   1.221   1.532   1.519  0.3980  0.6137  1.6295
  604MOL0     H81524   2.529   1.523   1.735  3.2599 -0.2280 -1.4552
  604MOL0     H81525   2.716   1.641   1.655 -1.0162  1.1372 -1.1294
  604MOL0     H81526   2.738   2.035   1.432  1.2056  1.3571 -2.6615
  604MOL0     H81527   2.870   2.172   1.292 -3.8288 -0.7284  0.9205
  604MOL0     H81528   3.267   2.155   1.304 -1.9660 -1.6504  0.3543
  604MOL0     H81529   3.270   2.279   1.443  0.4666 -3.5639  0.6963
  604MOL0     H81530   3.270   2.456   1.311 -0.5826 -0.3615  0.7086
  604MOL0     H81531   3.213   2.367   1.165 -1.1835  1.6640  0.9810
  604MOL0     H81532   3.436   2.248   1.175  0.0418  0.0727  1.1743
  604MOL0     H81533   3.492   2.347   1.313  2.5273 -0.3254 -1.0516
  604MOL0     H81534   3.592   2.409   1.092 -0.3797 -1.5299  0.5705
  604MOL0     H81535   3.417   2.447   1.033 -0.0318  1.1069 -0.1259
  604MOL0     H81536   3.581   2.754   1.292 -0.7253 -1.6221  1.8263
  604MOL0     H81537   3.184   2.172   1.589  0.8510  0.7944 -1.0683
  604MOL0     H81538   3.160   2.052   1.799 -0.7911 -1.6896  1.9227
  604MOL0     H81539   2.996   1.989   1.846 -3.5045 -0.8248 -1.7735
  604MOL0     H81540   3.095   1.901   1.734 -1.3256 -0.2522 -1.7894
  605MOL0     O81541   8.209   6.706   0.462  0.5107 -0.4484  0.1177
  605MOL0     C81542   8.269   6.700   0.571  0.4233  0.3868  1.2461
  605MOL0     O81543   8.352   6.601   0.611  0.0272  1.0134  0.0641
  605MOL0     C81544   8.359   6.485   0.552  0.1547 -0.4240  0.6037
  605MOL0     C81545   8.289   6.374   0.591 -0.3745 -0.0580 -0.6922
  605MOL0     C81546   8.296   6.252   0.514 -0.7884 -0.5219 -0.2655
  605MOL0     C81547   8.367   6.246   0.397 -0.9790 -0.3487 -0.9474
  605MOL0     O81548   8.361   6.147   0.297  0.4001  1.1571  0.3963
  605MOL0     C81549   8.281   6.026   0.319 -0.3496 -0.1842 -0.3685
  605MOL0     C81550   8.142   6.031   0.249 -0.1100  1.2935  0.0941
  605MOL0     C81551   8.152   5.995   0.104 -0.1244 -0.0643  0.0178
  605MOL0     C81552   8.017   5.977   0.062 -0.2633 -0.0994 -0.1609
  605MOL0     C81553   7.993   5.932  -0.080  0.6098 -0.2829  0.5561
  605MOL0     C81554   7.847   5.877  -0.101  0.3737 -0.5452 -0.4936
  605MOL0     C81555   7.786   5.877  -0.235 -0.2889 -0.0655  1.2097
  605MOL0     C81556   7.819   5.757  -0.326  0.6341  0.7847  0.3328
  605MOL0     N81557   7.774   5.625  -0.276 -0.6301  0.0188  0.5349
  605MOL0     C81558   7.647   5.574  -0.269  0.0902  0.1035  0.1664
  605MOL0     C81559   7.644   5.449  -0.218  0.9123 -0.5615 -0.8158
  605MOL0     C81560   7.541   5.345  -0.192 -0.1540  0.4861  0.0318
  605MOL0     C81561   7.524   5.271  -0.319 -0.1590 -0.3625 -0.2236
  605MOL0     C81562   7.420   5.157  -0.326  0.4391 -0.2673  0.0428
  605MOL0     C81563   7.470   5.027  -0.266  0.3741  0.2726  0.5828
  605MOL0     O81564   7.465   5.032  -0.129 -0.0295  0.3227  0.0992
  605MOL0     C81565   7.471   4.916  -0.064 -1.1100 -0.4514 -0.0885
  605MOL0     C81566   7.523   4.798  -0.110  0.2722  0.4878 -0.2383
  605MOL0     C81567   7.525   4.691  -0.021 -0.4457  0.1282  0.2151
  605MOL0     C81568   7.481   4.697   0.107  0.4080  0.5378 -0.4595
  605MOL0     C81569   7.489   4.580   0.195  0.7796  0.1586  0.9215
  605MOL0     O81570   7.549   4.467   0.130  0.5268 -0.6335  0.2916
  605MOL0     C81571   7.586   4.356   0.208  0.1059 -0.6731  0.1311
  605MOL0     C81572   7.525   4.235   0.201  0.4446 -0.4590  1.5434
  605MOL0     C81573   7.574   4.117   0.260  0.3666  0.7440 -0.4381
  605MOL0     C81574   7.688   4.133   0.348  0.2465 -0.2176 -0.0324
  605MOL0     O81575   7.741   4.026   0.413  0.5379 -0.8942  0.1495
  605MOL0     C81576   7.672   3.989   0.535  0.5787  0.1163  0.6457
  605MOL0     C81577   7.775   3.931   0.623 -0.1891  0.2803  0.3451
  605MOL0     C81578   7.734   3.885   0.765 -0.0427  0.0138 -0.8749
  605MOL0     C81579   7.782   3.740   0.783  0.5527 -0.3739 -0.3046
  605MOL0     C81580   7.926   3.749   0.829 -0.4743  0.8218 -0.0602
  605MOL0     C81581   7.964   3.788   0.976  0.6185  1.3798 -0.9810
  605MOL0     C81582   8.114   3.826   0.991 -0.7269 -0.3289 -1.4075
  605MOL0     C81583   8.200   3.731   1.073  0.3890  0.7434  0.6140
  605MOL0    Cl81584   8.173   3.728   1.245  0.5241  0.1448 -0.1693
  605MOL0     C81585   7.753   4.255   0.355 -0.7076  0.2779 -0.3301
  605MOL0     C81586   7.703   4.365   0.283  0.1525  0.2655  0.5183
  605MOL0     O81587   7.454   4.575   0.312  0.3768  0.1274  0.4401
  605MOL0     C81588   7.425   4.813   0.149 -0.0080 -0.2398 -0.4454
  605MOL0     C81589   7.430   4.927   0.071 -0.0721  0.9328  0.4941
  605MOL0     N81590   7.780   5.435  -0.188  0.5831 -0.2889 -0.1245
  605MOL0     N81591   7.856   5.531  -0.216  0.4824 -1.0037 -0.2346
  605MOL0     C81592   8.439   6.365   0.364 -0.0568  0.1487 -0.2479
  605MOL0     C81593   8.429   6.486   0.432 -0.5396 -0.2678  1.0176
  605MOL0     C81594   8.256   6.821   0.660  0.5713 -0.2105 -0.2876
  605MOL0     C81595   8.271   6.947   0.606 -0.8442  0.8578  0.0523
  605MOL0     C81596   8.299   7.063   0.680  0.3117 -0.4278 -0.1045
  605MOL0     C81597   8.306   7.050   0.816 -0.2880  0.6106 -0.8645
  605MOL0     O81598   8.343   7.159   0.902  0.1182  0.8781  0.2966
  605MOL0     C81599   8.457   7.236   0.881 -0.8788 -0.1129  0.2673
  605MOL0     C81600   8.471   7.372   0.951 -0.1533  0.2514 -0.9270
  605MOL0     C81601   8.359   7.466   0.895  1.3225 -0.0239 -0.5567
  605MOL0     C81602   8.377   7.609   0.944  0.2524 -1.6145 -0.0066
  605MOL0     C81603   8.365   7.623   1.086 -0.8985  0.5956 -0.3900
  605MOL0     C81604   8.350   7.615   1.206 -0.4662 -0.6666 -0.4528
  605MOL0     C81605   8.284   6.923   0.880  0.2596  0.1172 -0.1190
  605MOL0     C81606   8.247   6.814   0.802 -0.0123  0.0437 -0.2400
  605MOL0     C81607   8.200   6.693   0.879  0.5442  0.6141 -0.0717
  605MOL0     H81608   8.227   6.369   0.679  0.3410 -0.7988 -0.2081
  605MOL0     H81609   8.236   6.169   0.547 -2.0147  1.0017  1.5941
  605MOL0     H81610   8.347   5.945   0.287  2.4953  1.4577  0.9141
  605MOL0     H81611   8.276   6.004   0.426  2.9575  0.2665  0.0095
  605MOL0     H81612   8.101   6.130   0.269  0.1890  1.4437 -0.0213
  605MOL0     H81613   8.069   5.963   0.295  0.5696  0.1646 -0.4337
  605MOL0     H81614   8.207   5.901   0.102 -1.3372 -0.7964 -0.9358
  605MOL0     H81615   8.206   6.068   0.043  1.0807  0.5483  1.7636
  605MOL0     H81616   7.975   5.898   0.126  1.8923 -3.5947 -2.6568
  605MOL0     H81617   7.961   6.066   0.092 -2.0857 -0.4371 -2.2570
  605MOL0     H81618   8.002   6.016  -0.150 -0.8481  2.6568  3.6099
  605MOL0     H81619   8.078   5.864  -0.090  0.5581 -0.4222  1.0304
  605MOL0     H81620   7.841   5.779  -0.052  3.4251 -0.3434  0.5556
  605MOL0     H81621   7.779   5.941  -0.045  0.4208 -1.2336  0.3828
  605MOL0     H81622   7.820   5.971  -0.280  1.0911 -1.1759 -0.1729
  605MOL0     H81623   7.677   5.883  -0.235 -0.5123 -2.4163 -1.1121
  605MOL0     H81624   7.768   5.779  -0.420 -0.0621  1.6780  0.9032
  605MOL0     H81625   7.927   5.756  -0.343  0.5141 -0.9557 -0.5769
  605MOL0     H81626   7.552   5.621  -0.293  0.2247 -0.2260 -1.1036
  605MOL0     H81627   7.576   5.278  -0.113 -0.1905  0.2165 -0.1759
  605MOL0     H81628   7.454   5.400  -0.155 -0.2323  0.9875 -0.8830
  605MOL0     H81629   7.500   5.344  -0.397  0.5306  0.2889  0.1569
  605MOL0     H81630   7.624   5.230  -0.337 -0.1029  0.7811 -3.1375
  605MOL0     H81631   7.395   5.122  -0.427  0.7677 -2.6198  0.7177
  605MOL0     H81632   7.322   5.182  -0.284  0.4224 -3.4122  2.1710
  605MOL0     H81633   7.577   5.021  -0.288  0.5039 -2.7191  1.5787
  605MOL0     H81634   7.409   4.943  -0.299 -2.7157  2.7192 -0.4511
  605MOL0     H81635   7.552   4.785  -0.213  1.1218 -2.4098  0.2601
  605MOL0     H81636   7.553   4.599  -0.071 -3.8287 -2.9914  3.4244
  605MOL0     H81637   7.431   4.232   0.145  1.4693  1.1642 -0.4133
  605MOL0     H81638   7.509   4.032   0.244 -0.3978  1.5477 -1.7957
  605MOL0     H81639   7.624   4.074   0.585 -3.0826  0.0915 -2.3916
  605MOL0     H81640   7.595   3.913   0.522 -2.5766  3.3257 -1.0633
  605MOL0     H81641   7.815   3.846   0.567 -1.4975 -0.7156  0.8568
  605MOL0     H81642   7.845   4.015   0.629  1.1038 -0.5838 -1.4462
  605MOL0     H81643   7.778   3.954   0.838 -1.9965 -0.2255  0.6313
  605MOL0     H81644   7.625   3.886   0.773 -0.0591  0.2861 -1.1209
  605MOL0     H81645   7.771   3.690   0.686 -0.5565  0.4189 -0.6035
  605MOL0     H81646   7.727   3.681   0.857  2.9208 -1.2505  0.8594
  605MOL0     H81647   7.980   3.806   0.753 -1.9429  2.5175  0.0981
  605MOL0     H81648   7.963   3.649   0.804  2.5937  2.3527 -2.2616
  605MOL0     H81649   7.907   3.876   1.006  0.0677  0.1596  1.9019
  605MOL0     H81650   7.955   3.710   1.052 -0.2906  3.8393  1.5906
  605MOL0     H81651   8.123   3.924   1.038  1.6049 -0.2589 -1.8649
  605MOL0     H81652   8.148   3.842   0.889 -0.1399  0.5117 -1.0945
  605MOL0     H81653   8.186   3.629   1.035  2.5423  1.3201 -2.0611
  605MOL0     H81654   8.306   3.756   1.065  0.7178  0.2362  2.7698
  605MOL0     H81655   7.846   4.255   0.411 -0.1150  2.0962 -1.2473
  605MOL0     H81656   7.762   4.455   0.272  1.2916 -0.6774 -1.8251
  605MOL0     H81657   7.384   4.809   0.250 -1.3944 -2.5268 -1.0363
  605MOL0     H81658   7.378   5.016   0.103 -2.4788 -1.5966  4.5100
  605MOL0     H81659   8.494   6.361   0.270  0.9499  0.8395  0.2952
  605MOL0     H81660   8.485   6.572   0.395 -1.4216 -0.4192 -0.7929
  605MOL0     H81661   8.258   6.957   0.499  2.8400  2.1856 -0.4095
  605MOL0     H81662   8.295   7.162   0.634 -0.9073 -0.0277  0.8055
  605MOL0     H81663   8.465   7.257   0.774  0.6051 -0.0162  0.3707
  605MOL0     H81664   8.548   7.186   0.916  0.0208  0.3733 -1.2472
  605MOL0     H81665   8.572   7.410   0.938  0.0640 -0.5563 -1.7443
  605MOL0     H81666   8.450   7.364   1.058  0.0701 -0.1036 -0.9074
  605MOL0     H81667   8.265   7.423   0.931  2.1509 -0.0764  1.7362
  605MOL0     H81668   8.374   7.486   0.788  2.3628  0.4604 -0.3384
  605MOL0     H81669   8.465   7.659   0.904 -2.1406  4.5710  1.3953
  605MOL0     H81670   8.291   7.665   0.907  2.2751  0.1087 -2.4257
  605MOL0     H81671   8.359   7.623   1.312  0.5277  4.2965 -0.6685
  605MOL0     H81672   8.295   6.917   0.988 -0.4769  0.2423 -0.0374
  605MOL0     H81673   8.276   6.659   0.950  0.8818  2.5456  0.5493
  605MOL0     H81674   8.102   6.717   0.921 -0.6018 -1.1575 -1.5772
  605MOL0     H81675   8.174   6.610   0.812 -2.6594 -1.5571  3.4917
  606MOL0     O81676   5.947   9.933   9.355 -0.5779 -0.7029  0.5768
  606MOL0     C81677   5.877   9.884   9.437  0.4202 -0.5036  0.2677
  606MOL0     O81678   5.743   9.887   9.429  0.2381  0.6410 -0.8148
  606MOL0     C81679   5.670   9.947   9.327 -0.5210 -0.4064 -0.4491
  606MOL0     C81680   5.540   9.979   9.369 -0.4886 -0.0991  0.3130
  606MOL0     C81681   5.462  10.053   9.279 -0.1157 -0.2904 -0.5464
  606MOL0     C81682   5.511  10.073   9.147 -0.8220  0.5125  0.3548
  606MOL0     O81683   5.459  10.134   9.040  0.8323 -0.9961 -0.4843
  606MOL0     C81684   5.310  10.135   9.039 -0.9329  0.0835  0.1729
  606MOL0     C81685   5.265  10.166   8.889 -0.6042 -0.0550 -0.2166
  606MOL0     C81686   5.373  10.241   8.807  0.5202  1.1582 -0.3846
  606MOL0     C81687   5.395  10.382   8.863 -1.2238  0.9646  0.0654
  606MOL0     C81688   5.279  10.476   8.863 -0.3914  0.1376 -0.3261
  606MOL0     C81689   5.217  10.496   8.715 -0.6025  0.3138 -1.6655
  606MOL0     C81690   5.097  10.593   8.705 -0.6618 -0.2420  0.1423
  606MOL0     C81691   5.021  10.574   8.570 -0.4202  0.3856  0.4508
  606MOL0     N81692   5.101  10.627   8.461  0.1635 -0.4492  0.4345
  606MOL0     C81693   5.104  10.755   8.411 -0.1503 -0.1714  0.4651
  606MOL0     C81694   5.179  10.724   8.295 -0.0748  0.8404  0.4004
  606MOL0     C81695   5.203  10.832   8.189  0.8103  0.1138  0.6820
  606MOL0     C81696   5.173  10.798   8.046 -0.1065 -0.0457  0.3838
  606MOL0     C81697   5.226  10.656   7.982  0.6339 -1.0820  0.9760
  606MOL0     C81698   5.125  10.542   7.986  0.0110  0.1347  0.3600
  606MOL0     O81699   5.030  10.578   7.879  0.1486 -0.5739  0.3502
  606MOL0     C81700   4.924  10.499   7.851  0.5573 -1.1150 -0.4810
  606MOL0     C81701   4.818  10.564   7.776 -0.8023 -0.2690 -0.0639
  606MOL0     C81702   4.720  10.501   7.707 -0.0195  0.2889  0.4537
  606MOL0     C81703   4.713  10.359   7.726  0.3773  0.3445 -0.0124
  606MOL0     C81704   4.624  10.276   7.647  0.9536  1.0253  0.0723
  606MOL0     O81705   4.559  10.337   7.540  0.3845 -0.5667  0.8601
  606MOL0     C81706   4.498  10.263   7.449  0.0244  0.0542  0.0380
  606MOL0     C81707   4.364  10.297   7.402 -0.5128  0.1910  0.0850
  606MOL0     C81708   4.298  10.214   7.306 -0.7022 -0.2484 -0.5924
  606MOL0     C81709   4.370  10.107   7.257 -0.8063  0.5116  0.1152
  606MOL0     O81710   4.327  10.019   7.165 -0.5463 -0.1897  0.3420
  606MOL0     C81711   4.183   9.992   7.172  0.1528 -0.4304  0.9660
  606MOL0     C81712   4.135   9.929   7.306 -0.2336  0.0091 -0.0293
  606MOL0     C81713   4.000   9.862   7.282 -0.0957  0.1441  0.3070
  606MOL0     C81714   3.883   9.967   7.286  0.9836  0.4692  0.0481
  606MOL0     C81715   3.759   9.878   7.271 -0.2693 -1.0245  0.3769
  606MOL0     C81716   3.643   9.966   7.277  0.0812  0.3840 -0.2976
  606MOL0     C81717   3.518   9.891   7.220  0.1685  0.7355  0.0720
  606MOL0     C81718   3.418   9.824   7.319 -0.5980 -0.2372  0.2308
  606MOL0    Cl81719   3.486   9.685   7.397 -0.4125  0.2079 -0.1161
  606MOL0     C81720   4.510  10.082   7.297 -0.1684 -0.0184  0.8975
  606MOL0     C81721   4.568  10.165   7.391  0.1447  0.5515 -0.1927
  606MOL0     O81722   4.608  10.163   7.675 -0.8619 -0.2898  0.0505
  606MOL0     C81723   4.807  10.293   7.814  1.6144 -0.4871 -0.7260
  606MOL0     C81724   4.919  10.360   7.872 -0.6569  0.0344  1.0590
  606MOL0     N81725   5.217  10.590   8.292  0.7434  0.4867  0.1491
  606MOL0     N81726   5.166  10.531   8.392  1.0351  0.4084  1.0475
  606MOL0     C81727   5.630  10.018   9.102  0.1010  0.3216 -0.2882
  606MOL0     C81728   5.715   9.949   9.192  0.0406  0.0488  0.4533
  606MOL0     C81729   5.937   9.825   9.563  0.0537 -0.7594 -0.1689
  606MOL0     C81730   5.881   9.702   9.617 -0.2197  0.5000 -0.0588
  606MOL0     C81731   5.937   9.648   9.734  0.7086 -0.4427 -0.1111
  606MOL0     C81732   6.026   9.723   9.805  0.3323 -0.4580 -0.3461
  606MOL0     O81733   6.049   9.676   9.934  0.5993  0.2199 -0.4565
  606MOL0     C81734   6.182   9.700   9.965  0.3604 -0.5985  0.3017
  606MOL0     C81735   6.245   9.581  10.027 -0.2525 -0.1696  0.4798
  606MOL0     C81736   6.196   9.551  10.160  0.8902  0.3294 -0.8685
  606MOL0     C81737   6.191   9.661  10.274  0.0337  0.5754 -0.2748
  606MOL0     C81738   6.329   9.708  10.282 -0.1587  0.4989  0.4550
  606MOL0     C81739   6.441   9.754  10.281 -0.8389  0.8801  0.8487
  606MOL0     C81740   6.075   9.839   9.755 -0.1732  0.5326  0.9266
  606MOL0     C81741   6.036   9.893   9.639  0.0011 -0.6925  0.5313
  606MOL0     C81742   6.101  10.020   9.594 -0.0814 -0.0911 -0.4131
  606MOL0     H81743   5.512   9.965   9.473  0.1382  1.8049  0.7714
  606MOL0     H81744   5.366  10.093   9.310  1.4294  0.8546  3.4690
  606MOL0     H81745   5.259  10.048   9.083 -2.8394 -0.8490 -3.4535
  606MOL0     H81746   5.274  10.212   9.106  0.4149 -0.6378  1.7984
  606MOL0     H81747   5.168  10.215   8.891 -0.7155 -0.3101  0.9252
  606MOL0     H81748   5.255  10.074   8.830  2.4922  0.6229 -2.0485
  606MOL0     H81749   5.350  10.230   8.700  1.5333 -1.3111 -0.4307
  606MOL0     H81750   5.462  10.178   8.813 -0.7521 -0.6493  0.1339
  606MOL0     H81751   5.446  10.380   8.961  0.6143 -1.2810 -0.8300
  606MOL0     H81752   5.472  10.423   8.796  0.3201 -1.3499  0.3028
  606MOL0     H81753   5.211  10.451   8.945  1.7576 -2.9971  0.6931
  606MOL0     H81754   5.312  10.577   8.889 -2.9616  1.1285 -0.6825
  606MOL0     H81755   5.297  10.539   8.653 -0.8392  1.5012 -1.1534
  606MOL0     H81756   5.194  10.395   8.678  2.1788 -1.0870  0.0477
  606MOL0     H81757   5.126  10.698   8.717  2.0201 -1.1776  3.1842
  606MOL0     H81758   5.019  10.570   8.777 -0.6868  0.9559  0.5216
  606MOL0     H81759   5.009  10.466   8.555 -0.0468  0.3018  0.7323
  606MOL0     H81760   4.920  10.614   8.563 -2.3382 -3.7899  0.8729
  606MOL0     H81761   5.056  10.842   8.454  1.8725  0.3820  1.7557
  606MOL0     H81762   5.127  10.909   8.207 -3.7436 -3.0050 -2.9696
  606MOL0     H81763   5.302  10.879   8.188  2.3663 -2.7073 -3.3262
  606MOL0     H81764   5.066  10.787   8.024  0.5666 -3.8523 -1.9716
  606MOL0     H81765   5.219  10.882   7.993  1.1923  0.6324  2.4609
  606MOL0     H81766   5.322  10.641   8.032  1.8576  0.9561 -0.5942
  606MOL0     H81767   5.246  10.677   7.877 -0.8194  0.0347  0.8851
  606MOL0     H81768   5.086  10.520   8.085  0.1830  4.2716  1.5307
  606MOL0     H81769   5.174  10.454   7.943  2.7271  1.1060  1.2429
  606MOL0     H81770   4.832  10.671   7.776 -1.4097 -0.1401  1.8753
  606MOL0     H81771   4.638  10.555   7.660 -0.3582 -0.1137  0.5654
  606MOL0     H81772   4.321  10.387   7.444  2.7506  2.8354 -1.7170
  606MOL0     H81773   4.193  10.221   7.279 -1.1970 -2.0704  0.6939
  606MOL0     H81774   4.131  10.086   7.152 -2.8075 -2.0629  0.3117
  606MOL0     H81775   4.150   9.928   7.089  1.6426  1.3569 -1.0910
  606MOL0     H81776   4.209   9.859   7.345 -2.7020 -2.0751  1.2694
  606MOL0     H81777   4.114  10.014   7.372 -0.7945 -0.3399  0.2522
  606MOL0     H81778   4.001   9.823   7.180  0.8819  3.6272 -1.1335
  606MOL0     H81779   3.983   9.775   7.346  2.2551 -0.5048  0.1421
  606MOL0     H81780   3.897  10.040   7.206  0.1060  0.1831 -0.3872
  606MOL0     H81781   3.884  10.002   7.389 -0.0998  2.3100 -0.5287
  606MOL0     H81782   3.753   9.797   7.345  2.3107 -2.5491 -0.9364
  606MOL0     H81783   3.773   9.839   7.170  1.9973  1.0306 -0.2229
  606MOL0     H81784   3.636  10.013   7.376  1.2791  2.1141 -0.9798
  606MOL0     H81785   3.668  10.054   7.217 -0.5014  0.1025 -0.9670
  606MOL0     H81786   3.555   9.814   7.151  0.4429  0.1946  0.8192
  606MOL0     H81787   3.474   9.973   7.161  0.8791  0.6438 -0.6124
  606MOL0     H81788   3.383   9.895   7.395  1.5794  0.5823  0.5327
  606MOL0     H81789   3.329   9.787   7.267 -0.1000 -2.6676  0.9535
  606MOL0     H81790   4.567  10.004   7.246 -0.1190  0.0112  0.9069
  606MOL0     H81791   4.671  10.140   7.414 -0.0588 -3.0939 -2.4941
  606MOL0     H81792   4.788  10.186   7.812  1.1654 -0.4023 -1.8711
  606MOL0     H81793   4.999  10.294   7.902 -1.2127 -0.4556  1.4884
  606MOL0     H81794   5.647  10.028   8.996  4.4071  1.4277  0.3127
  606MOL0     H81795   5.801   9.904   9.142 -2.0377  1.5159 -5.3184
  606MOL0     H81796   5.812   9.642   9.558  1.4510 -0.5226 -1.0953
  606MOL0     H81797   5.894   9.554   9.768  2.3320 -2.5549 -3.4114
  606MOL0     H81798   6.193   9.779  10.040  0.9480  1.0692 -1.4597
  606MOL0     H81799   6.260   9.723   9.891 -0.0503  1.6401  0.4808
  606MOL0     H81800   6.352   9.597  10.042  0.2861  0.9032 -3.3304
  606MOL0     H81801   6.225   9.499   9.957  2.1090  1.6059 -2.5332
  606MOL0     H81802   6.249   9.463  10.197  0.0627  0.7896  1.6810
  606MOL0     H81803   6.091   9.523  10.146  0.5535  0.0190  1.6736
  606MOL0     H81804   6.130   9.746  10.242 -2.5049 -2.0167 -2.9711
  606MOL0     H81805   6.149   9.627  10.370 -1.6713  0.8258 -0.9018
  606MOL0     H81806   6.536   9.799  10.262  0.3194 -1.5283  0.6391
  606MOL0     H81807   6.149   9.899   9.807 -2.7352  2.1620  2.9184
  606MOL0     H81808   6.026  10.097   9.580  1.3521  1.1707 -1.5108
  606MOL0     H81809   6.165  10.071   9.667 -2.2610  3.1185 -0.5652
  606MOL0     H81810   6.143  10.008   9.494  0.5080  1.4686 -0.3782
  607MOL0     O81811   5.447   0.604   9.750 -1.1639 -0.1938 -0.0908
  607MOL0     C81812   5.412   0.511   9.677  0.6214  0.0261 -0.0121
  607MOL0     O81813   5.285   0.489   9.645 -0.0352 -0.3041  0.0912
  607MOL0     C81814   5.180   0.562   9.678 -0.4457 -0.7162 -1.3308
  607MOL0     C81815   5.170   0.670   9.774  1.5432  0.3835 -0.0896
  607MOL0     C81816   5.038   0.727   9.793  0.4608 -1.1462 -0.7242
  607MOL0     C81817   4.930   0.690   9.726 -0.2154  1.0415 -0.5565
  607MOL0     O81818   4.807   0.748   9.736 -0.1600 -0.0738  0.6885
  607MOL0     C81819   4.806   0.891   9.761 -0.4235  0.1060 -0.1784
  607MOL0     C81820   4.661   0.924   9.723 -0.4762 -0.7112 -0.1805
  607MOL0     C81821   4.626   1.066   9.777 -1.2052  1.1350  0.2954
  607MOL0     C81822   4.487   1.118   9.780 -0.6243  0.5551  0.4735
  607MOL0     C81823   4.461   1.243   9.866 -0.2646  0.7925 -1.5675
  607MOL0     C81824   4.555   1.355   9.807  1.3224 -1.0921 -0.6254
  607MOL0     C81825   4.513   1.486   9.865  0.1850  0.1748 -0.5879
  607MOL0     C81826   4.474   1.603   9.770 -0.8559  1.1347  0.6320
  607MOL0     N81827   4.341   1.591   9.723  0.7162 -0.0986  0.3763
  607MOL0     C81828   4.287   1.509   9.622 -0.4182  1.5110  0.2815
  607MOL0     C81829   4.163   1.548   9.595  0.5914 -0.9722  0.4517
  607MOL0     C81830   4.052   1.506   9.500  1.1230  0.7216  0.6275
  607MOL0     C81831   4.068   1.374   9.415 -0.1202 -0.9160  0.1642
  607MOL0     C81832   4.170   1.392   9.296  0.7310  0.5599 -0.3636
  607MOL0     C81833   4.100   1.448   9.180  0.0027 -0.2483  0.9568
  607MOL0     O81834   4.019   1.356   9.115  0.3130  0.5592 -0.7186
  607MOL0     C81835   4.028   1.312   8.989  0.2915 -0.0653 -0.0353
  607MOL0     C81836   3.929   1.220   8.962 -0.4457  0.1656  1.2589
  607MOL0     C81837   3.929   1.159   8.831 -0.3465 -0.4777  0.5506
  607MOL0     C81838   4.014   1.200   8.722  0.2240 -0.4849 -0.4695
  607MOL0     C81839   4.013   1.130   8.589 -0.8457 -0.5620 -0.1698
  607MOL0     O81840   4.111   1.164   8.496  0.4573 -0.1898  0.2644
  607MOL0     C81841   4.123   1.091   8.385 -0.5563  0.0231 -0.4181
  607MOL0     C81842   4.098   1.139   8.258 -0.2075 -0.1577 -1.4158
  607MOL0     C81843   4.110   1.061   8.148  0.3772 -0.3760 -0.0271
  607MOL0     C81844   4.131   0.922   8.160 -0.4353 -0.2705  0.9170
  607MOL0     O81845   4.145   0.840   8.050 -0.4646 -0.2570  0.7754
  607MOL0     C81846   4.016   0.788   8.018 -0.6454  0.9661 -0.1787
  607MOL0     C81847   4.014   0.675   7.905  0.0576 -0.8412  0.6499
  607MOL0     C81848   3.869   0.631   7.886  0.4106  0.3038  0.7296
  607MOL0     C81849   3.824   0.523   7.993 -0.0906  0.1652 -0.0352
  607MOL0     C81850   3.676   0.524   8.018 -0.4173 -0.1873 -0.2907
  607MOL0     C81851   3.633   0.396   8.103  0.1808 -0.3463 -0.3004
  607MOL0     C81852   3.509   0.449   8.182  0.4792 -0.2003 -0.3459
  607MOL0     C81853   3.418   0.337   8.223  0.6619  0.3021 -0.3849
  607MOL0    Cl81854   3.316   0.291   8.080  0.6603 -0.2827 -0.0861
  607MOL0     C81855   4.152   0.871   8.291 -0.0153 -0.3595 -0.0798
  607MOL0     C81856   4.149   0.955   8.397 -0.2612 -0.3988 -0.3478
  607MOL0     O81857   3.916   1.059   8.569  0.3616  0.4456 -0.0636
  607MOL0     C81858   4.102   1.304   8.757 -0.3336 -0.5717  0.6959
  607MOL0     C81859   4.109   1.356   8.889 -0.0048  0.0672 -0.3983
  607MOL0     N81860   4.141   1.664   9.662 -1.0443  0.2166 -0.9192
  607MOL0     N81861   4.247   1.685   9.738  0.1130 -0.0637 -0.3282
  607MOL0     C81862   4.942   0.587   9.634  0.6344  0.0222 -0.5233
  607MOL0     C81863   5.066   0.521   9.614  0.7583 -0.0541 -0.1605
  607MOL0     C81864   5.518   0.414   9.642 -0.6895 -0.4892  0.3149
  607MOL0     C81865   5.621   0.390   9.733  0.6337  0.4749  0.6379
  607MOL0     C81866   5.720   0.298   9.710  1.2079  1.3380  0.6030
  607MOL0     C81867   5.717   0.212   9.594 -0.4102 -0.2623 -0.2763
  607MOL0     O81868   5.814   0.122   9.564  0.0493  0.2087 -0.5083
  607MOL0     C81869   5.940   0.150   9.634  0.2233  0.3366 -1.1650
  607MOL0     C81870   6.047   0.052   9.585 -0.6825 -1.0148  0.1034
  607MOL0     C81871   6.057   0.044   9.433 -0.7025  0.3378  0.9860
  607MOL0     C81872   6.149   0.150   9.380  0.2776 -1.0107  0.1725
  607MOL0     C81873   6.083   0.202   9.251  0.5717 -0.5527 -0.0038
  607MOL0     C81874   6.017   0.221   9.149  0.4391 -0.7117 -0.1161
  607MOL0     C81875   5.612   0.232   9.500 -0.5871  0.7905 -0.2641
  607MOL0     C81876   5.525   0.341   9.519  0.6773 -0.8094  0.5954
  607MOL0     C81877   5.441   0.389   9.401  0.2463  0.4212 -0.0343
  607MOL0     H81878   5.250   0.712   9.835 -0.2739  2.3781  1.0873
  607MOL0     H81879   5.036   0.810   9.863 -1.0399 -1.7174 -0.0513
  607MOL0     H81880   4.839   0.926   9.860 -4.9974  2.1912  0.8922
  607MOL0     H81881   4.874   0.942   9.692  0.5426 -3.6900 -2.3193
  607MOL0     H81882   4.588   0.851   9.758 -0.2023 -0.7181  0.3844
  607MOL0     H81883   4.652   0.929   9.614  0.7771  1.8165 -0.2404
  607MOL0     H81884   4.697   1.126   9.720  0.5033  0.7054  1.8316
  607MOL0     H81885   4.655   1.081   9.882  0.3715 -0.8588  0.2128
  607MOL0     H81886   4.456   1.136   9.676 -0.2904 -0.6180  0.1555
  607MOL0     H81887   4.419   1.039   9.813 -0.3644 -0.5883 -1.5607
  607MOL0     H81888   4.356   1.271   9.875 -0.2203  0.1238  3.4428
  607MOL0     H81889   4.491   1.230   9.970  2.4973  1.2076 -2.2228
  607MOL0     H81890   4.662   1.334   9.819  0.8683 -2.2997  2.1270
  607MOL0     H81891   4.535   1.351   9.700 -1.3101 -0.0145 -0.2383
  607MOL0     H81892   4.590   1.529   9.930 -1.4104  2.3464 -0.0076
  607MOL0     H81893   4.428   1.480   9.933  1.5203  3.7922  1.7022
  607MOL0     H81894   4.479   1.701   9.818 -1.8686  1.6938 -0.3614
  607MOL0     H81895   4.539   1.607   9.682 -1.0121  0.7813  0.4981
  607MOL0     H81896   4.332   1.419   9.581  1.2808 -0.8824  6.4017
  607MOL0     H81897   3.962   1.513   9.560 -0.6219  0.6163 -1.8157
  607MOL0     H81898   4.039   1.578   9.418 -2.6732  0.9373  1.2330
  607MOL0     H81899   4.113   1.300   9.482 -0.4534 -0.8883  0.4197
  607MOL0     H81900   3.974   1.328   9.382  0.5312 -2.3930  0.2734
  607MOL0     H81901   4.208   1.293   9.268  1.1525  0.2215  1.2945
  607MOL0     H81902   4.247   1.459   9.334  0.2513  0.7832  0.2352
  607MOL0     H81903   4.173   1.491   9.111 -1.9180 -1.7904 -2.2904
  607MOL0     H81904   4.036   1.526   9.222  1.3129  1.9829 -0.9454
  607MOL0     H81905   3.852   1.174   9.023  0.3755 -0.4177  1.8871
  607MOL0     H81906   3.872   1.073   8.798  2.2279 -2.3503  0.7149
  607MOL0     H81907   4.067   1.243   8.256 -1.1984 -0.4413 -3.1932
  607MOL0     H81908   4.084   1.109   8.055 -1.9057 -2.5952 -0.6496
  607MOL0     H81909   3.979   0.743   8.110  0.3321 -0.0281 -0.2501
  607MOL0     H81910   3.958   0.875   7.986 -0.3118  0.3760 -2.5571
  607MOL0     H81911   4.049   0.720   7.812 -2.9316 -0.6666 -0.5010
  607MOL0     H81912   4.075   0.586   7.924  1.1179 -0.4973 -0.9660
  607MOL0     H81913   3.812   0.724   7.891  1.9051  1.5371 -2.5100
  607MOL0     H81914   3.859   0.579   7.790 -0.5926  1.6363  0.0639
  607MOL0     H81915   3.874   0.549   8.087  1.1765  0.4037 -0.7415
  607MOL0     H81916   3.856   0.421   7.968 -0.5042 -0.1201  0.5985
  607MOL0     H81917   3.606   0.520   7.933 -1.7548  2.7201  0.5599
  607MOL0     H81918   3.658   0.615   8.075  1.4188 -0.4456  0.7711
  607MOL0     H81919   3.613   0.316   8.031 -0.2463 -1.7884  1.3451
  607MOL0     H81920   3.712   0.363   8.171 -0.4563 -1.1611  0.0616
  607MOL0     H81921   3.450   0.528   8.135  1.9545  2.8098  2.4206
  607MOL0     H81922   3.536   0.494   8.278  2.2839 -2.1395  0.1180
  607MOL0     H81923   3.458   0.248   8.273  0.5446  0.3199 -0.2601
  607MOL0     H81924   3.344   0.373   8.295 -0.1501  0.0051 -1.0496
  607MOL0     H81925   4.195   0.771   8.296  0.4755 -0.2439 -1.4504
  607MOL0     H81926   4.161   0.918   8.498  0.4168  0.8792  0.0644
  607MOL0     H81927   4.177   1.326   8.682  1.1469 -3.2096  1.2626
  607MOL0     H81928   4.180   1.432   8.921 -1.0798  0.7152  0.5118
  607MOL0     H81929   4.854   0.548   9.584 -1.9241  1.1573  2.7088
  607MOL0     H81930   5.065   0.430   9.555 -0.9490 -2.9057  3.8308
  607MOL0     H81931   5.630   0.451   9.822 -0.7189  2.4479 -0.4948
  607MOL0     H81932   5.799   0.287   9.783  1.7527 -3.7049 -0.3360
  607MOL0     H81933   5.924   0.130   9.740  0.1789 -0.5586 -1.3334
  607MOL0     H81934   5.977   0.252   9.619  0.5777  0.0535 -2.3073
  607MOL0     H81935   6.021  -0.050   9.615  3.3231 -3.2615 -3.0772
  607MOL0     H81936   6.146   0.085   9.619 -0.1816  0.1614 -2.2657
  607MOL0     H81937   5.959   0.042   9.384 -0.6456  2.1602  0.7156
  607MOL0     H81938   6.087  -0.059   9.412  0.1762  0.4319  1.7239
  607MOL0     H81939   6.167   0.226   9.456 -3.0094 -1.6661  1.7644
  607MOL0     H81940   6.246   0.101   9.372  0.2455 -1.1608  0.6924
  607MOL0     H81941   5.961   0.216   9.058  0.4196  1.2208 -0.2332
  607MOL0     H81942   5.626   0.183   9.405  0.3530  0.9246 -0.2061
  607MOL0     H81943   5.399   0.489   9.410  1.1112  0.7541  0.3921
  607MOL0     H81944   5.499   0.377   9.309  1.1976 -1.7636  0.7652
  607MOL0     H81945   5.359   0.319   9.380  1.3967 -0.6116 -1.2784
  608MOL0     O81946   2.376   1.366   1.507 -0.0825 -0.1217  0.0522
  608MOL0     C81947   2.425   1.261   1.459  0.7912 -0.4386  0.0831
  608MOL0     O81948   2.474   1.160   1.533 -0.5866  0.4846  0.7385
  608MOL0     C81949   2.484   1.168   1.669 -0.8320 -0.7898  0.2575
  608MOL0     C81950   2.605   1.217   1.733 -0.1416 -0.7337 -0.3020
  608MOL0     C81951   2.601   1.238   1.873  0.1920  0.5738 -0.2733
  608MOL0     C81952   2.492   1.201   1.948  0.4334  0.5896  0.7345
  608MOL0     O81953   2.478   1.204   2.091  0.2603 -0.3344  0.2841
  608MOL0     C81954   2.552   1.316   2.146 -0.1209  0.0782  0.5287
  608MOL0     C81955   2.512   1.348   2.283  0.1358 -0.0089  0.2518
  608MOL0     C81956   2.372   1.397   2.306 -0.7438 -0.9281  0.0155
  608MOL0     C81957   2.350   1.459   2.450 -0.5120  1.5525 -0.1785
  608MOL0     C81958   2.209   1.509   2.443  0.2746  0.1171 -0.1206
  608MOL0     C81959   2.180   1.630   2.359  0.4035 -0.5564  0.2472
  608MOL0     C81960   2.284   1.747   2.352  0.3808 -0.5689 -0.0854
  608MOL0     C81961   2.238   1.880   2.311 -1.2792  0.5475  0.6405
  608MOL0     N81962   2.355   1.960   2.269  0.4608 -0.2856  0.3006
  608MOL0     C81963   2.451   2.019   2.348  0.7416  0.5623  0.4457
  608MOL0     C81964   2.552   2.066   2.270 -0.1838  0.8061  0.6437
  608MOL0     C81965   2.673   2.141   2.311  0.1226  0.5186  0.6549
  608MOL0     C81966   2.650   2.288   2.274  0.0187  0.2171 -0.5809
  608MOL0     C81967   2.689   2.319   2.132 -0.6621 -0.1827 -0.3906
  608MOL0     C81968   2.833   2.282   2.090  0.6922 -0.9440 -0.7837
  608MOL0     O81969   2.868   2.363   1.974  0.2387  0.5870  0.2608
  608MOL0     C81970   3.006   2.375   1.945 -0.0644 -1.0915 -0.0410
  608MOL0     C81971   3.058   2.493   1.879 -0.0397 -0.1581 -0.7556
  608MOL0     C81972   3.195   2.512   1.874  0.0866 -0.3062 -0.4364
  608MOL0     C81973   3.278   2.401   1.903 -0.3158  0.0220 -0.3333
  608MOL0     C81974   3.412   2.395   1.846 -0.2897 -1.2634  0.3789
  608MOL0     O81975   3.451   2.498   1.756  1.3688 -0.0915 -0.2158
  608MOL0     C81976   3.565   2.489   1.683  0.2368 -0.5114 -0.6157
  608MOL0     C81977   3.684   2.492   1.750  0.7900 -0.6013 -0.1235
  608MOL0     C81978   3.810   2.496   1.695 -0.3109 -0.1418  0.0933
  608MOL0     C81979   3.816   2.502   1.561  0.5422 -0.3958 -0.6515
  608MOL0     O81980   3.938   2.496   1.502  0.2673  0.2100  0.6629
  608MOL0     C81981   4.006   2.615   1.501  0.2844  0.5718 -0.0923
  608MOL0     C81982   3.999   2.677   1.359 -0.0638 -0.4978 -0.0460
  608MOL0     C81983   4.090   2.608   1.258  0.8034 -0.3332 -0.5469
  608MOL0     C81984   4.009   2.594   1.125  0.1541 -0.0601  0.8330
  608MOL0     C81985   4.087   2.540   1.004  0.6270 -0.5018 -0.6657
  608MOL0     C81986   4.103   2.384   1.002 -0.2918 -1.1093 -0.1218
  608MOL0     C81987   4.194   2.352   0.881 -1.0269  0.1786 -0.8333
  608MOL0     C81988   4.139   2.362   0.741 -0.5260 -0.4560  0.3712
  608MOL0    Cl81989   4.275   2.404   0.630 -0.4803 -0.2155 -0.0438
  608MOL0     C81990   3.700   2.507   1.480  0.5671  0.3040  0.1416
  608MOL0     C81991   3.573   2.497   1.546 -0.1232 -0.0167 -0.3032
  608MOL0     O81992   3.487   2.303   1.876  0.4488 -0.0856  0.0474
  608MOL0     C81993   3.231   2.290   1.969 -0.6125  0.0866 -0.1131
  608MOL0     C81994   3.095   2.276   1.980 -0.3369 -0.3607 -0.8092
  608MOL0     N81995   2.508   2.040   2.141  0.6631  0.0426  0.3411
  608MOL0     N81996   2.391   1.994   2.145 -0.5465 -0.7019 -0.0984
  608MOL0     C81997   2.387   1.136   1.882 -0.5963  0.2473 -0.4872
  608MOL0     C81998   2.378   1.126   1.751 -0.0956  0.2248  0.8239
  608MOL0     C81999   2.419   1.243   1.314 -0.4961 -0.0799 -0.0585
  608MOL0     C82000   2.395   1.113   1.276 -0.0247  0.5920  0.9338
  608MOL0     C82001   2.374   1.077   1.139 -0.3296 -0.8494  0.3661
  608MOL0     C82002   2.387   1.173   1.039  0.3153 -0.1879  0.2651
  608MOL0     O82003   2.378   1.128   0.908 -0.3118 -0.1649  0.0062
  608MOL0     C82004   2.408   1.220   0.802  1.1110 -0.6342  0.7057
  608MOL0     C82005   2.362   1.165   0.670 -0.4500 -0.6708  0.5764
  608MOL0     C82006   2.208   1.142   0.652 -0.1601 -0.8287 -0.0027
  608MOL0     C82007   2.173   1.069   0.525 -0.7007 -0.8437  0.3692
  608MOL0     C82008   2.039   1.018   0.519  1.3500 -1.1640 -0.5047
  608MOL0     C82009   1.928   0.978   0.526  1.3224 -0.2702  0.1886
  608MOL0     C82010   2.400   1.312   1.073  0.1738  0.0502 -1.1647
  608MOL0     C82011   2.414   1.348   1.210 -0.1047  1.1513 -0.5434
  608MOL0     C82012   2.424   1.498   1.235  0.2779 -0.1595  0.8950
  608MOL0     H82013   2.686   1.250   1.669  1.1288 -2.4621  0.3528
  608MOL0     H82014   2.692   1.281   1.913  1.1127 -0.6229 -1.0286
  608MOL0     H82015   2.656   1.281   2.154  0.3948  1.2879 -0.4154
  608MOL0     H82016   2.539   1.403   2.080 -2.4349 -1.2242 -0.8428
  608MOL0     H82017   2.578   1.419   2.332 -0.2046  0.3615  0.1826
  608MOL0     H82018   2.513   1.250   2.332 -0.8539  0.3018  0.9267
  608MOL0     H82019   2.301   1.315   2.290 -2.2193  0.5182 -1.1950
  608MOL0     H82020   2.333   1.471   2.235 -0.9967  3.4372  4.2412
  608MOL0     H82021   2.352   1.376   2.521 -1.1307  0.3069 -1.5766
  608MOL0     H82022   2.426   1.534   2.476  2.0856 -2.2162  4.7036
  608MOL0     H82023   2.145   1.428   2.409 -1.4036  1.6207 -0.7297
  608MOL0     H82024   2.181   1.541   2.544 -1.4524 -3.4310  0.6489
  608MOL0     H82025   2.156   1.595   2.258  1.0469  3.1760 -1.3981
  608MOL0     H82026   2.086   1.676   2.392  0.5969  0.1190 -0.1199
  608MOL0     H82027   2.372   1.729   2.291  0.9203 -0.9433  0.7759
  608MOL0     H82028   2.309   1.769   2.457 -1.0029  0.0799  0.1346
  608MOL0     H82029   2.169   1.863   2.227  1.1767  0.2534 -1.4190
  608MOL0     H82030   2.191   1.931   2.396 -2.8022  1.6372 -0.7863
  608MOL0     H82031   2.442   2.014   2.456  0.0926 -3.5031  0.3430
  608MOL0     H82032   2.681   2.134   2.420 -0.2998 -1.9246  0.5772
  608MOL0     H82033   2.762   2.103   2.260 -2.2965 -0.8559 -2.8631
  608MOL0     H82034   2.545   2.313   2.292  0.2473 -0.6331  2.5847
  608MOL0     H82035   2.704   2.355   2.342 -0.3930 -0.0635  0.0287
  608MOL0     H82036   2.676   2.425   2.108  4.5491  0.5762 -0.8938
  608MOL0     H82037   2.614   2.268   2.070 -1.6620  1.4374 -0.5850
  608MOL0     H82038   2.838   2.174   2.071 -1.7222 -1.6173  1.8320
  608MOL0     H82039   2.903   2.301   2.172 -1.5489  0.3366  0.9336
  608MOL0     H82040   2.998   2.574   1.841  2.0797  2.4502  1.0843
  608MOL0     H82041   3.231   2.602   1.827  0.3183  0.1188  0.5288
  608MOL0     H82042   3.687   2.513   1.856  1.5171  2.1110 -0.6145
  608MOL0     H82043   3.894   2.490   1.762 -1.0266  4.0013  1.6841
  608MOL0     H82044   3.956   2.681   1.573 -0.9660  1.2894 -1.5688
  608MOL0     H82045   4.108   2.597   1.535  0.2718 -0.0718 -0.3739
  608MOL0     H82046   3.895   2.673   1.326 -0.7882 -0.1408  2.0424
  608MOL0     H82047   4.036   2.780   1.363 -0.8731 -0.2325  1.1476
  608MOL0     H82048   4.175   2.673   1.239  0.9080 -0.2319  0.2131
  608MOL0     H82049   4.130   2.511   1.290  0.1201  0.0504  1.6565
  608MOL0     H82050   3.979   2.692   1.087 -0.2696 -1.1077 -1.7547
  608MOL0     H82051   3.926   2.524   1.138  3.3877 -3.6978  4.3333
  608MOL0     H82052   4.187   2.586   1.002  0.1472  0.5650 -0.5929
  608MOL0     H82053   4.033   2.557   0.910  1.3628 -1.8281 -1.3687
  608MOL0     H82054   4.164   2.344   1.084  1.6586  1.1867 -0.3153
  608MOL0     H82055   4.013   2.323   0.989 -0.7590 -1.0757  2.3853
  608MOL0     H82056   4.233   2.252   0.902 -0.1026  0.7392  0.1891
  608MOL0     H82057   4.283   2.416   0.883 -0.6929 -0.2788 -0.9032
  608MOL0     H82058   4.100   2.261   0.724  0.7912 -0.8424 -0.5232
  608MOL0     H82059   4.059   2.436   0.742  1.2272  1.5700  2.1634
  608MOL0     H82060   3.713   2.504   1.372 -1.2406  1.3321 -0.1396
  608MOL0     H82061   3.477   2.492   1.495 -0.6868  3.1231  0.2485
  608MOL0     H82062   3.299   2.206   1.979  0.5287  1.0684  0.5848
  608MOL0     H82063   3.057   2.184   2.024 -1.8790  0.2561 -0.8097
  608MOL0     H82064   2.316   1.088   1.949  0.2477  0.3087  0.4824
  608MOL0     H82065   2.290   1.081   1.707  0.9961 -0.3704 -0.8260
  608MOL0     H82066   2.383   1.024   1.337  1.5979  0.4065  1.0192
  608MOL0     H82067   2.351   0.981   1.094 -0.4844 -1.1673  1.0909
  608MOL0     H82068   2.517   1.227   0.796  1.3048 -0.0223  3.3294
  608MOL0     H82069   2.360   1.317   0.813  1.4013 -0.4222  0.1049
  608MOL0     H82070   2.420   1.074   0.654 -0.4562 -1.1210  2.7653
  608MOL0     H82071   2.390   1.232   0.589 -3.7253  0.8310  0.5233
  608MOL0     H82072   2.154   1.237   0.653 -1.8862 -1.7628  0.9193
  608MOL0     H82073   2.177   1.079   0.736 -2.4527  0.2891  0.0770
  608MOL0     H82074   2.183   1.145   0.448  2.6241 -0.3169  1.1430
  608MOL0     H82075   2.244   0.992   0.493 -0.0579  0.9687 -2.9622
  608MOL0     H82076   1.830   0.945   0.555  1.4413 -1.5109 -0.7411
  608MOL0     H82077   2.395   1.398   1.006 -0.1323  2.9631  2.2950
  608MOL0     H82078   2.326   1.545   1.234 -1.7556 -3.7688 -2.8429
  608MOL0     H82079   2.465   1.511   1.336  1.1720  2.8437  0.2333
  608MOL0     H82080   2.493   1.537   1.159  0.6911 -2.4531 -0.0039
  609MOL0     O82081   2.412   3.491   1.276 -0.2942 -0.0286  0.2976
  609MOL0     C82082   2.427   3.610   1.241 -0.6018 -0.2584  0.1092
  609MOL0     O82083   2.339   3.706   1.259  0.5310  0.1640 -0.2072
  609MOL0     C82084   2.228   3.689   1.333 -0.8771 -1.0621  0.1521
  609MOL0     C82085   2.104   3.728   1.286  0.3396  0.6601  0.0631
  609MOL0     C82086   1.985   3.740   1.364 -0.1224  0.2850 -0.6847
  609MOL0     C82087   1.991   3.690   1.499 -0.1420 -0.8930 -0.2461
  609MOL0     O82088   1.880   3.684   1.576  0.8192  0.1244  0.0464
  609MOL0     C82089   1.873   3.565   1.653  0.9929  0.1337 -0.0648
  609MOL0     C82090   1.719   3.546   1.687 -0.0944  0.5834  0.3178
  609MOL0     C82091   1.630   3.521   1.566 -0.4431  0.0307  0.7066
  609MOL0     C82092   1.651   3.393   1.481  0.0677 -0.0704 -0.4801
  609MOL0     C82093   1.539   3.382   1.379 -0.7966 -0.3883 -0.1454
  609MOL0     C82094   1.547   3.241   1.329 -0.1611  0.8045 -0.2136
  609MOL0     C82095   1.466   3.139   1.419 -0.5088  0.3056 -0.0493
  609MOL0     C82096   1.476   3.000   1.369  0.0297 -0.1928  0.6267
  609MOL0     N82097   1.411   2.990   1.233  0.8589 -0.1892  0.3725
  609MOL0     C82098   1.267   2.988   1.222  0.5402 -0.2011  0.1276
  609MOL0     C82099   1.250   2.946   1.092 -0.4112  0.0597  0.1823
  609MOL0     C82100   1.114   2.936   1.020  0.2920 -0.2780  0.0008
  609MOL0     C82101   1.075   3.072   0.979  0.9137 -0.2123  0.2763
  609MOL0     C82102   0.939   3.082   0.920  0.2390  0.8918  0.0716
  609MOL0     C82103   0.934   3.148   0.776 -0.4770  0.5314  0.0301
  609MOL0     O82104   0.977   3.042   0.697 -0.1267 -0.8121 -0.1436
  609MOL0     C82105   1.038   3.082   0.583 -1.0366 -0.0303  0.1295
  609MOL0     C82106   0.978   3.166   0.491  0.4088 -0.3878 -0.1297
  609MOL0     C82107   1.043   3.215   0.380  0.6836  0.3171  0.4147
  609MOL0     C82108   1.177   3.175   0.355  0.6649  0.8711  1.0342
  609MOL0     C82109   1.244   3.238   0.236 -0.1618 -0.4452 -0.2765
  609MOL0     O82110   1.366   3.176   0.203 -0.5406  0.0587  0.2240
  609MOL0     C82111   1.416   3.194   0.076  0.7038 -0.2293 -0.1958
  609MOL0     C82112   1.533   3.281   0.065 -0.9933  0.3142 -0.4709
  609MOL0     C82113   1.588   3.316  -0.065 -0.6745 -0.8202  0.0610
  609MOL0     C82114   1.532   3.260  -0.180 -0.2849  0.2496  0.4064
  609MOL0     O82115   1.548   3.303  -0.309 -0.5763 -0.5643  0.2229
  609MOL0     C82116   1.610   3.432  -0.325  0.2474 -0.5260  0.2678
  609MOL0     C82117   1.545   3.473  -0.455 -0.2639  0.6554  0.4566
  609MOL0     C82118   1.578   3.612  -0.489 -0.4778  0.3719  0.8167
  609MOL0     C82119   1.530   3.656  -0.628  0.5913 -0.1772 -0.0252
  609MOL0     C82120   1.594   3.803  -0.677  1.0897 -0.0666 -1.0538
  609MOL0     C82121   1.506   3.931  -0.636  0.5834  0.3635 -0.2055
  609MOL0     C82122   1.540   3.988  -0.499 -0.9294 -0.5447  1.1470
  609MOL0     C82123   1.428   4.075  -0.444  0.4913  0.5493 -0.2424
  609MOL0    Cl82124   1.394   4.204  -0.564  0.1103 -0.0062 -0.0952
  609MOL0     C82125   1.420   3.175  -0.163 -0.0284  0.5389  0.1662
  609MOL0     C82126   1.355   3.144  -0.039 -0.2068 -0.5372  0.0606
  609MOL0     O82127   1.187   3.320   0.167 -0.6627 -0.0788 -0.2937
  609MOL0     C82128   1.227   3.080   0.440 -0.6841 -0.0071 -0.0111
  609MOL0     C82129   1.160   3.033   0.553 -0.1119 -0.7357  0.2977
  609MOL0     N82130   1.371   2.940   1.030  0.5585 -0.1336  0.6344
  609MOL0     N82131   1.471   2.959   1.118  0.1345  0.4078  0.7162
  609MOL0     C82132   2.117   3.651   1.541  0.4907 -0.1178 -0.5758
  609MOL0     C82133   2.231   3.656   1.460  0.1950  1.6061 -0.9232
  609MOL0     C82134   2.544   3.653   1.162 -0.1586  0.3509 -0.6208
  609MOL0     C82135   2.652   3.727   1.217 -0.1050  0.5430  0.5931
  609MOL0     C82136   2.766   3.763   1.144 -0.0695  0.5924 -0.8389
  609MOL0     C82137   2.773   3.734   1.008 -0.6823 -0.8656  0.4417
  609MOL0     O82138   2.889   3.798   0.954  0.3601  0.5742 -0.2507
  609MOL0     C82139   2.902   3.796   0.807  0.1278  0.2396  0.6162
  609MOL0     C82140   3.020   3.895   0.772 -0.3762  0.2325 -0.4552
  609MOL0     C82141   3.149   3.832   0.818  0.9171  0.0312  0.0406
  609MOL0     C82142   3.277   3.829   0.744  1.1413  0.9609  0.5916
  609MOL0     C82143   3.260   3.774   0.612 -0.5149 -0.5367 -0.0683
  609MOL0     C82144   3.286   3.776   0.493  1.0386  0.2059 -0.9043
  609MOL0     C82145   2.676   3.660   0.950  0.1305  0.6392 -0.1344
  609MOL0     C82146   2.561   3.614   1.025 -1.0541  0.0998 -0.9151
  609MOL0     C82147   2.465   3.533   0.955  0.6880 -0.0436  1.2002
  609MOL0     H82148   2.098   3.757   1.182 -5.3842 -1.1686 -0.4733
  609MOL0     H82149   1.886   3.767   1.329 -0.3725 -1.7455 -1.7008
  609MOL0     H82150   1.910   3.476   1.601  2.0226  1.5452 -1.8752
  609MOL0     H82151   1.937   3.568   1.742  0.8321  4.3292  0.0768
  609MOL0     H82152   1.690   3.642   1.733 -1.0988 -0.7655  2.7014
  609MOL0     H82153   1.706   3.466   1.760 -0.1228  0.2543 -0.0504
  609MOL0     H82154   1.644   3.610   1.505  2.0509 -2.3493 -2.5417
  609MOL0     H82155   1.527   3.517   1.605 -0.7732  0.2992 -0.1242
  609MOL0     H82156   1.752   3.403   1.440  0.9837  0.0781  1.6960
  609MOL0     H82157   1.651   3.304   1.545 -0.2424 -3.1736 -4.3696
  609MOL0     H82158   1.442   3.407   1.423 -0.7959  1.0255 -0.9048
  609MOL0     H82159   1.560   3.447   1.294 -1.4892 -0.4141 -0.3454
  609MOL0     H82160   1.485   3.236   1.238 -2.4879 -2.3044  1.3478
  609MOL0     H82161   1.648   3.202   1.317  0.8197  2.7690  1.0310
  609MOL0     H82162   1.361   3.169   1.419 -0.5523  0.2015  0.8125
  609MOL0     H82163   1.509   3.142   1.520 -1.4803  1.6995  0.3409
  609MOL0     H82164   1.579   2.966   1.373 -0.3082 -1.1435  1.5929
  609MOL0     H82165   1.414   2.931   1.427 -0.9577 -0.1330 -0.3086
  609MOL0     H82166   1.186   3.006   1.292 -0.0760 -0.0271 -0.6097
  609MOL0     H82167   1.130   2.866   0.937 -0.9010 -0.3940 -0.1575
  609MOL0     H82168   1.039   2.894   1.088 -0.2448 -0.5261 -0.7309
  609MOL0     H82169   1.071   3.142   1.063 -2.0401 -1.6148  1.4219
  609MOL0     H82170   1.139   3.114   0.900 -2.9309  1.5777 -2.2047
  609MOL0     H82171   0.871   3.149   0.972 -1.8960 -0.1411 -1.2442
  609MOL0     H82172   0.894   2.983   0.915 -0.9528  1.3468  1.4469
  609MOL0     H82173   1.012   3.225   0.781  2.0419 -1.7771 -1.0625
  609MOL0     H82174   0.842   3.196   0.740 -1.8780 -2.2836 -0.4134
  609MOL0     H82175   0.871   3.181   0.502  0.5547 -0.3539  1.4180
  609MOL0     H82176   0.987   3.285   0.318 -2.1982 -3.0886 -1.1335
  609MOL0     H82177   1.572   3.326   0.156 -0.7830  0.6286 -0.7148
  609MOL0     H82178   1.671   3.386  -0.070 -1.1787 -0.1382  0.8206
  609MOL0     H82179   1.585   3.508  -0.250 -0.2282  2.8829 -3.0981
  609MOL0     H82180   1.717   3.417  -0.337  0.6543  0.4142  2.2488
  609MOL0     H82181   1.588   3.405  -0.528  1.6582  2.2761 -0.0058
  609MOL0     H82182   1.437   3.458  -0.448 -0.4525  2.3762  2.4409
  609MOL0     H82183   1.543   3.672  -0.404  2.1080 -0.3063  2.4662
  609MOL0     H82184   1.687   3.623  -0.491 -0.4564  0.0968 -0.0040
  609MOL0     H82185   1.421   3.657  -0.640  0.5349  2.3236  0.1290
  609MOL0     H82186   1.559   3.580  -0.701 -4.1299 -0.5511 -1.8708
  609MOL0     H82187   1.595   3.804  -0.786 -2.5721 -0.6465 -1.2070
  609MOL0     H82188   1.697   3.813  -0.643  0.2903  5.1858  0.6689
  609MOL0     H82189   1.546   4.010  -0.700  3.4982  0.2104  1.2851
  609MOL0     H82190   1.400   3.905  -0.646  0.9488 -1.6790  0.8160
  609MOL0     H82191   1.631   4.048  -0.515  1.6395 -4.6333 -1.6160
  609MOL0     H82192   1.563   3.917  -0.419 -0.4493  0.5299  1.9928
  609MOL0     H82193   1.338   4.013  -0.434  0.7530 -0.9652 -4.6755
  609MOL0     H82194   1.455   4.115  -0.346 -1.2282  2.2299 -0.3811
  609MOL0     H82195   1.373   3.142  -0.256  3.0489 -0.8703 -1.0164
  609MOL0     H82196   1.262   3.090  -0.028 -0.7534 -0.1850 -2.2940
  609MOL0     H82197   1.330   3.051   0.426  0.1161  2.1306  1.0635
  609MOL0     H82198   1.202   2.968   0.630  2.1030 -0.9195 -0.9736
  609MOL0     H82199   2.123   3.629   1.647 -3.6780  1.5083  0.1844
  609MOL0     H82200   2.331   3.632   1.493  0.5393  1.0533 -2.3315
  609MOL0     H82201   2.645   3.776   1.314  0.7160  3.1364 -0.5637
  609MOL0     H82202   2.838   3.821   1.201 -2.1290  0.6713  1.8813
  609MOL0     H82203   2.811   3.818   0.750  1.2714 -1.1840 -1.8803
  609MOL0     H82204   2.931   3.692   0.790  2.9989  1.2457 -1.3333
  609MOL0     H82205   3.006   3.996   0.813  2.3700  0.1256  1.0285
  609MOL0     H82206   3.021   3.906   0.664  0.4727  0.2074 -0.4586
  609MOL0     H82207   3.134   3.725   0.837  0.7077 -0.4528 -2.4962
  609MOL0     H82208   3.183   3.873   0.914  2.4019 -0.3914 -0.2755
  609MOL0     H82209   3.322   3.927   0.730  1.8282  0.5589 -0.1083
  609MOL0     H82210   3.351   3.765   0.794  0.1883 -1.2201 -0.6388
  609MOL0     H82211   3.310   3.763   0.389  2.7689 -1.2804 -0.3778
  609MOL0     H82212   2.675   3.615   0.851 -2.9529 -2.0151  0.9467
  609MOL0     H82213   2.358   3.557   0.963  0.1346 -1.8671  0.1123
  609MOL0     H82214   2.491   3.551   0.850 -1.0024  1.0252  0.9255
  609MOL0     H82215   2.474   3.425   0.973  2.5874 -0.1961 -0.2852
  610MOL0     O82216   8.368   7.678  10.340 -0.5378  0.2689 -0.0684
  610MOL0     C82217   8.437   7.653  10.244 -0.0199  0.9259 -0.0454
  610MOL0     O82218   8.395   7.638  10.110 -0.4851 -0.3580 -0.2670
  610MOL0     C82219   8.271   7.710  10.084  0.4359  0.1212 -0.1201
  610MOL0     C82220   8.262   7.846  10.054  0.0328 -0.1863  0.1929
  610MOL0     C82221   8.138   7.905  10.032  0.3478 -0.6005  0.0631
  610MOL0     C82222   8.021   7.836  10.056 -0.1456  0.1140  0.0100
  610MOL0     O82223   7.897   7.890  10.025  0.5351  0.5197 -0.2193
  610MOL0     C82224   7.809   7.870  10.143  0.2387  0.6330 -0.9394
  610MOL0     C82225   7.662   7.852  10.092  0.2151  0.7966  1.0947
  610MOL0     C82226   7.567   7.795  10.207  0.1861  0.8833  0.3644
  610MOL0     C82227   7.512   7.661  10.173  0.0311  0.0734  0.4124
  610MOL0     C82228   7.443   7.596  10.284  0.0309  0.6940 -0.8400
  610MOL0     C82229   7.406   7.446  10.259  0.1706  0.2848  0.6533
  610MOL0     C82230   7.509   7.347  10.322  1.1063 -0.2127  0.4156
  610MOL0     C82231   7.428   7.224  10.348  0.7355  0.1617 -0.3641
  610MOL0     N82232   7.513   7.128  10.425 -0.2146  0.1865 -0.7084
  610MOL0     C82233   7.611   7.058  10.373 -0.2436  0.5818  0.0657
  610MOL0     C82234   7.708   7.033  10.471  0.3923 -0.1852  0.7843
  610MOL0     C82235   7.849   6.982  10.462  0.1469  1.4820 -1.1323
  610MOL0     C82236   7.846   6.848  10.381 -0.5886 -0.7806  0.6821
  610MOL0     C82237   7.767   6.729  10.439 -0.7283  0.0972  0.8720
  610MOL0     C82238   7.629   6.701  10.366 -1.0244 -0.1835 -0.1679
  610MOL0     O82239   7.649   6.664  10.226 -0.1056 -1.4491  0.4034
  610MOL0     C82240   7.681   6.546  10.179  0.2502 -0.3029  0.0800
  610MOL0     C82241   7.664   6.420  10.232 -0.9509 -0.6585 -0.1712
  610MOL0     C82242   7.702   6.300  10.183  0.1928  1.1201 -0.3067
  610MOL0     C82243   7.770   6.294  10.063  1.2579  0.0355  1.0453
  610MOL0     C82244   7.832   6.174  10.004 -0.6206  0.5999  0.1378
  610MOL0     O82245   7.794   6.061  10.055  0.3105 -0.2258 -0.1978
  610MOL0     C82246   7.871   5.950  10.033  0.1807 -0.4260  0.6508
  610MOL0     C82247   7.879   5.882   9.902 -0.3784  0.1267 -0.8233
  610MOL0     C82248   7.958   5.773   9.888  0.0681  0.8064  0.7958
  610MOL0     C82249   8.023   5.721  10.004  0.2308 -0.6432  0.1554
  610MOL0     O82250   8.112   5.616  10.007  0.0699  0.7397  0.8256
  610MOL0     C82251   8.144   5.542   9.878  0.9984 -0.3485  0.1532
  610MOL0     C82252   8.266   5.596   9.812  0.1738  0.3297 -0.1227
  610MOL0     C82253   8.388   5.563   9.890 -0.5985 -0.2069 -0.1413
  610MOL0     C82254   8.514   5.624   9.828 -0.4389  0.5817 -0.1294
  610MOL0     C82255   8.644   5.569   9.897 -1.1326 -0.4837  0.3910
  610MOL0     C82256   8.765   5.627   9.824  0.6154  0.0042  0.3758
  610MOL0     C82257   8.908   5.623   9.889 -0.0549  0.6390 -0.0233
  610MOL0     C82258   8.929   5.482   9.946  0.6975 -1.1332  0.2931
  610MOL0    Cl82259   9.103   5.489  10.011 -0.2025  0.0646 -0.1804
  610MOL0     C82260   8.017   5.798  10.121 -0.2660  0.5391  0.1360
  610MOL0     C82261   7.935   5.902  10.135  0.4482  0.5454 -0.0856
  610MOL0     O82262   7.916   6.189   9.921 -0.4317 -0.1895  0.2054
  610MOL0     C82263   7.799   6.420   9.995 -0.1006 -0.6959 -0.5701
  610MOL0     C82264   7.740   6.535  10.051  1.1032  0.1827  0.1423
  610MOL0     N82265   7.653   7.095  10.582 -0.1437  0.8645 -0.0870
  610MOL0     N82266   7.535   7.148  10.558  0.3988  0.0345  1.0860
  610MOL0     C82267   8.024   7.692  10.070  0.5894 -0.9272 -0.1630
  610MOL0     C82268   8.148   7.632  10.069  0.4770  0.1718 -0.4531
  610MOL0     C82269   8.582   7.657  10.275 -0.5612 -0.4654 -0.3126
  610MOL0     C82270   8.621   7.625  10.411  0.0990 -0.4807  0.0285
  610MOL0     C82271   8.762   7.625  10.443  0.4553 -0.4033  0.0477
  610MOL0     C82272   8.861   7.642  10.352 -0.7654 -0.2048  0.1374
  610MOL0     O82273   8.988   7.626  10.389 -0.0006  0.2197 -0.7458
  610MOL0     C82274   9.089   7.712  10.322  0.4561 -0.6534  0.2349
  610MOL0     C82275   9.084   7.857  10.390 -0.1618 -0.3281 -0.4245
  610MOL0     C82276   9.103   7.863  10.540  0.7880  0.4687  0.5383
  610MOL0     C82277   9.199   7.769  10.599 -0.3673 -0.5410  0.6431
  610MOL0     C82278   9.215   7.807  10.739 -0.4425 -0.1461 -1.4131
  610MOL0     C82279   9.244   7.820  10.858 -0.3955  0.1484 -0.1842
  610MOL0     C82280   8.825   7.662  10.217 -0.1793  1.3576 -0.7030
  610MOL0     C82281   8.686   7.662  10.176  0.4234  0.1699  0.3174
  610MOL0     C82282   8.660   7.652  10.029  1.0352 -0.4202 -0.0302
  610MOL0     H82283   8.352   7.906  10.060 -1.5052  2.2897 -0.2037
  610MOL0     H82284   8.137   8.013  10.021  0.9531 -0.8287 -3.0352
  610MOL0     H82285   7.828   7.782  10.206  0.4008  1.6454  0.4626
  610MOL0     H82286   7.822   7.957  10.207 -0.7007 -0.4401  0.7903
  610MOL0     H82287   7.671   7.783  10.007  2.5792  0.1081  1.8224
  610MOL0     H82288   7.639   7.949  10.047  3.8954  2.2135  1.9278
  610MOL0     H82289   7.495   7.874  10.229  1.6846  2.7561 -1.0245
  610MOL0     H82290   7.629   7.781  10.296 -1.0145 -2.2379  0.8382
  610MOL0     H82291   7.436   7.674  10.095  2.0024  4.7425 -1.0755
  610MOL0     H82292   7.590   7.596  10.131 -1.2209 -1.6336  0.5917
  610MOL0     H82293   7.512   7.607  10.368 -1.2973  0.2394  0.3562
  610MOL0     H82294   7.349   7.649  10.304  1.3483  1.9966  2.5558
  610MOL0     H82295   7.304   7.431  10.295 -1.5278  1.2576 -3.2652
  610MOL0     H82296   7.410   7.414  10.154  0.8676 -1.3869  1.1602
  610MOL0     H82297   7.537   7.380  10.423  0.9179 -0.2388  0.4761
  610MOL0     H82298   7.599   7.321  10.265  1.9753 -0.3745  1.7935
  610MOL0     H82299   7.341   7.244  10.412 -2.2878 -1.8539 -3.4986
  610MOL0     H82300   7.386   7.179  10.258 -0.2238 -1.4713  0.8412
  610MOL0     H82301   7.624   7.034  10.268  3.7208 -2.0414  0.9340
  610MOL0     H82302   7.918   7.056  10.423  1.6628 -0.1804 -1.7274
  610MOL0     H82303   7.886   6.969  10.565 -2.3652 -0.6404 -0.3687
  610MOL0     H82304   7.800   6.880  10.286  0.2646 -1.3095  0.0774
  610MOL0     H82305   7.946   6.813  10.353 -0.0932  0.1063  1.2840
  610MOL0     H82306   7.755   6.744  10.547  0.7914  0.9781  0.9387
  610MOL0     H82307   7.828   6.639  10.425  2.1791  1.5379  3.2079
  610MOL0     H82308   7.569   6.792  10.374  1.7092  1.5879  3.5001
  610MOL0     H82309   7.583   6.620  10.422 -1.1627 -3.1542 -4.1070
  610MOL0     H82310   7.633   6.423  10.336 -0.3129 -1.4436  0.0570
  610MOL0     H82311   7.672   6.210  10.237  1.6366 -0.4034 -1.8925
  610MOL0     H82312   7.826   5.919   9.816  0.9190  0.1358 -1.6505
  610MOL0     H82313   7.985   5.733   9.791 -1.6949  0.6277  0.3460
  610MOL0     H82314   8.156   5.434   9.886  2.3826 -0.5344 -2.8355
  610MOL0     H82315   8.058   5.539   9.811  1.4721 -2.7035 -0.4517
  610MOL0     H82316   8.277   5.540   9.719  1.6159 -2.3543  1.5357
  610MOL0     H82317   8.269   5.705   9.803 -1.0353  0.2386 -2.4900
  610MOL0     H82318   8.384   5.605   9.991 -2.4328  0.6229 -0.5193
  610MOL0     H82319   8.386   5.453   9.889 -1.8545 -0.2409  1.8333
  610MOL0     H82320   8.512   5.733   9.826 -1.6365  0.5900  0.3740
  610MOL0     H82321   8.521   5.605   9.721  1.0918  1.4389 -0.2131
  610MOL0     H82322   8.651   5.461   9.884  1.2001 -0.5228  1.4105
  610MOL0     H82323   8.648   5.599  10.002 -0.4825  1.6933 -0.2056
  610MOL0     H82324   8.776   5.578   9.727  0.4718  1.7265 -0.5451
  610MOL0     H82325   8.752   5.726   9.779  4.7223  0.1484 -0.9323
  610MOL0     H82326   8.906   5.695   9.970 -1.6038  0.1871  0.3908
  610MOL0     H82327   8.981   5.654   9.814 -0.3271 -0.6323 -0.8658
  610MOL0     H82328   8.854   5.466  10.024  0.9030 -0.8532  0.5541
  610MOL0     H82329   8.917   5.412   9.863  0.6124  2.8181 -3.3812
  610MOL0     H82330   8.067   5.772  10.213 -0.6835 -2.8553 -0.4761
  610MOL0     H82331   7.926   5.955  10.230  0.1376  0.7235 -0.2132
  610MOL0     H82332   7.846   6.433   9.899 -0.2807  1.1133 -0.4414
  610MOL0     H82333   7.756   6.625   9.993  1.1319 -0.6519 -1.1859
  610MOL0     H82334   7.936   7.628  10.078  2.8049 -4.0524  1.1192
  610MOL0     H82335   8.154   7.524  10.084 -2.9385  0.2902  3.3968
  610MOL0     H82336   8.553   7.607  10.493  0.0972 -0.7204 -0.0250
  610MOL0     H82337   8.787   7.609  10.547  1.5007 -0.8349 -0.2614
  610MOL0     H82338   9.067   7.705  10.215  0.9067 -3.8397  0.2629
  610MOL0     H82339   9.191   7.676  10.335  0.0461 -1.8306  0.2680
  610MOL0     H82340   8.983   7.892  10.365  0.0980 -0.3214 -1.4924
  610MOL0     H82341   9.148   7.922  10.330 -0.8001  0.3717 -0.3523
  610MOL0     H82342   9.001   7.849  10.578 -0.8932  3.8975 -2.1519
  610MOL0     H82343   9.133   7.963  10.574  0.5656  0.7171  0.0171
  610MOL0     H82344   9.164   7.665  10.601  0.6275 -0.8923  0.2474
  610MOL0     H82345   9.296   7.769  10.550  1.9544 -2.0464  4.7513
  610MOL0     H82346   9.256   7.847  10.961 -2.3501 -2.4771  0.8291
  610MOL0     H82347   8.897   7.672  10.136 -0.1496  1.6423 -0.6442
  610MOL0     H82348   8.754   7.647   9.973  1.4697  2.0242  0.3390
  610MOL0     H82349   8.593   7.568  10.009  0.5407  0.1587 -0.8216
  610MOL0     H82350   8.605   7.739   9.993 -1.9522 -2.2513 -0.2281
  611MOL0     O82351   8.212   1.753   2.863  0.0649  0.3706 -0.1324
  611MOL0     C82352   8.240   1.790   2.751 -0.3160 -0.1875 -0.0633
  611MOL0     O82353   8.159   1.857   2.663 -0.4294 -1.1365 -0.5155
  611MOL0     C82354   8.033   1.894   2.704  0.2611 -1.2173 -0.9525
  611MOL0     C82355   8.024   1.998   2.797  0.2460  0.4060 -0.2442
  611MOL0     C82356   7.900   2.054   2.834 -0.4698  0.3413  0.3538
  611MOL0     C82357   7.782   2.000   2.768  0.1409  0.8804 -0.3050
  611MOL0     O82358   7.656   2.058   2.781  0.6734 -0.1284 -0.0296
  611MOL0     C82359   7.614   2.093   2.912  0.5846 -0.2434 -0.0321
  611MOL0     C82360   7.469   2.102   2.945 -0.2489  0.2057  0.5068
  611MOL0     C82361   7.424   2.146   3.084 -0.0596 -0.0973 -0.3181
  611MOL0     C82362   7.527   2.131   3.191  0.3764  0.7673  0.8014
  611MOL0     C82363   7.468   2.176   3.328 -0.4654 -0.5676  0.1548
  611MOL0     C82364   7.583   2.173   3.436 -0.5231  0.3170 -0.5470
  611MOL0     C82365   7.556   2.296   3.517  0.3418 -0.1690 -0.1488
  611MOL0     C82366   7.643   2.294   3.643  0.7801 -0.4083  0.0313
  611MOL0     N82367   7.585   2.371   3.753 -0.1369  0.5954  0.3059
  611MOL0     C82368   7.497   2.319   3.843 -0.7844  0.1649 -1.2128
  611MOL0     C82369   7.486   2.423   3.941  0.0969  1.0281  1.1486
  611MOL0     C82370   7.399   2.431   4.056  0.8492 -0.2335 -0.8570
  611MOL0     C82371   7.334   2.297   4.093 -0.2168 -0.0298  0.7736
  611MOL0     C82372   7.192   2.320   4.159  0.0295  0.1783  0.3420
  611MOL0     C82373   7.154   2.206   4.250 -0.2020  0.2642  0.9091
  611MOL0     O82374   7.236   2.211   4.363  0.5295 -0.5392 -0.4251
  611MOL0     C82375   7.190   2.264   4.473 -0.2836 -0.7888 -0.3518
  611MOL0     C82376   7.088   2.358   4.463 -0.4693 -0.3552  0.5806
  611MOL0     C82377   7.036   2.415   4.575  0.6249 -0.1572  1.0356
  611MOL0     C82378   7.081   2.373   4.699 -0.1408  0.3623  0.0505
  611MOL0     C82379   7.003   2.420   4.824  0.9873 -1.3072  0.5966
  611MOL0     O82380   6.904   2.514   4.802 -0.7144  0.1416  0.5677
  611MOL0     C82381   6.827   2.578   4.904 -0.7580 -0.1754  0.5873
  611MOL0     C82382   6.744   2.515   4.993  0.6815  0.2178 -0.1003
  611MOL0     C82383   6.648   2.593   5.066  0.0713  0.5988 -0.3637
  611MOL0     C82384   6.633   2.731   5.039  0.6816 -1.0913  0.9654
  611MOL0     O82385   6.524   2.794   5.100 -0.2658  0.1527 -0.1770
  611MOL0     C82386   6.485   2.926   5.041  1.2731 -0.9692 -0.6931
  611MOL0     C82387   6.378   2.978   5.138  0.2759 -0.3342  0.5023
  611MOL0     C82388   6.367   3.133   5.158  0.2902  0.5905  0.1800
  611MOL0     C82389   6.328   3.214   5.035 -0.8841  0.3568 -0.1293
  611MOL0     C82390   6.185   3.180   4.992  0.1882 -0.9551  0.2716
  611MOL0     C82391   6.145   3.282   4.872  0.3181  0.1462  0.3766
  611MOL0     C82392   6.022   3.223   4.826 -0.6790  0.2057  0.0193
  611MOL0     C82393   5.950   3.322   4.751  0.7735 -0.8389  0.0617
  611MOL0    Cl82394   5.831   3.240   4.648 -0.4296 -0.1878  0.9466
  611MOL0     C82395   6.728   2.796   4.949 -1.0144  0.4944  0.0804
  611MOL0     C82396   6.825   2.719   4.883 -1.1109 -0.2546 -0.4651
  611MOL0     O82397   7.025   2.387   4.934  0.0226 -0.3654  0.1999
  611MOL0     C82398   7.195   2.292   4.708 -0.8085  0.6360  0.5689
  611MOL0     C82399   7.253   2.239   4.594  0.4046 -0.1792 -0.4135
  611MOL0     N82400   7.555   2.532   3.890  0.2596  0.1588  0.3091
  611MOL0     N82401   7.620   2.502   3.777  0.0993  0.7198 -0.1173
  611MOL0     C82402   7.797   1.893   2.686  0.3362 -0.5388 -0.6455
  611MOL0     C82403   7.917   1.837   2.653  0.1680 -0.0217  0.0773
  611MOL0     C82404   8.383   1.758   2.718 -0.3787  0.1915 -0.1778
  611MOL0     C82405   8.424   1.620   2.726 -0.3583 -0.0225  0.1723
  611MOL0     C82406   8.551   1.571   2.685 -0.6038  0.1262 -0.8405
  611MOL0     C82407   8.641   1.662   2.625 -0.6450  0.4658 -0.0021
  611MOL0     O82408   8.765   1.619   2.597  0.6997 -0.1497  0.4468
  611MOL0     C82409   8.818   1.510   2.672  0.4725  0.5975 -0.2676
  611MOL0     C82410   8.976   1.510   2.657  0.5410  0.4262 -0.2421
  611MOL0     C82411   9.030   1.650   2.688  0.7577 -0.2429  0.3296
  611MOL0     C82412   9.179   1.668   2.629  0.4497  0.4593 -0.3424
  611MOL0     C82413   9.270   1.557   2.679  0.5788  0.0867 -0.1240
  611MOL0     C82414   9.354   1.467   2.700 -0.0756  1.4787  0.9832
  611MOL0     C82415   8.608   1.795   2.606 -0.2160  0.2437  0.5800
  611MOL0     C82416   8.489   1.844   2.656  0.2666 -0.3956  0.2176
  611MOL0     C82417   8.464   1.994   2.655 -0.9230  0.5684  0.2975
  611MOL0     H82418   8.117   2.038   2.835  0.9408 -0.4123 -1.0171
  611MOL0     H82419   7.897   2.137   2.903  1.8704  0.1670  0.7756
  611MOL0     H82420   7.641   1.997   2.956  0.9228 -0.8030 -1.3882
  611MOL0     H82421   7.670   2.177   2.955  1.6107  0.0938 -1.9105
  611MOL0     H82422   7.416   2.008   2.929 -0.0662  0.2100 -0.1757
  611MOL0     H82423   7.427   2.171   2.871 -0.7478  0.5275  1.0801
  611MOL0     H82424   7.337   2.089   3.119  2.2519 -1.0127  4.8746
  611MOL0     H82425   7.396   2.251   3.092  0.4147 -0.1331  2.8692
  611MOL0     H82426   7.561   2.027   3.200  0.2647  0.7310  0.8005
  611MOL0     H82427   7.619   2.189   3.176  2.0987 -1.6286  1.3972
  611MOL0     H82428   7.427   2.276   3.312 -1.8834 -1.0529  0.5623
  611MOL0     H82429   7.384   2.111   3.353 -1.8880  1.4036  0.7169
  611MOL0     H82430   7.566   2.084   3.497 -1.4087 -0.5913 -2.0625
  611MOL0     H82431   7.685   2.172   3.396  0.0043  0.0492  0.7458
  611MOL0     H82432   7.448   2.291   3.537 -0.5534 -0.5153 -4.1848
  611MOL0     H82433   7.573   2.381   3.450 -0.9952 -1.6327 -2.4946
  611MOL0     H82434   7.663   2.191   3.676  1.4849 -0.7557 -1.4155
  611MOL0     H82435   7.743   2.332   3.618  0.8997  0.2864  1.4687
  611MOL0     H82436   7.447   2.223   3.851  2.9277 -1.7926  3.4256
  611MOL0     H82437   7.449   2.454   4.151  1.2692 -1.5360 -0.7358
  611MOL0     H82438   7.325   2.509   4.036 -0.2119 -0.3842  2.0120
  611MOL0     H82439   7.317   2.221   4.016 -0.0114 -0.0951  0.7932
  611MOL0     H82440   7.404   2.244   4.158  0.9290 -0.3168 -0.6671
  611MOL0     H82441   7.117   2.319   4.079  2.5951 -1.3994 -2.2283
  611MOL0     H82442   7.189   2.412   4.218 -0.0613 -0.0427  0.6808
  611MOL0     H82443   7.171   2.114   4.194  1.7595  0.6404  0.8153
  611MOL0     H82444   7.047   2.204   4.274 -0.2129  1.0224  0.9733
  611MOL0     H82445   7.042   2.382   4.368  0.7844 -0.6888 -0.1332
  611MOL0     H82446   6.957   2.489   4.567  0.5211 -0.4105 -1.1105
  611MOL0     H82447   6.727   2.408   4.989 -0.5664  0.3278 -5.0423
  611MOL0     H82448   6.581   2.551   5.141  0.0515  1.0914 -0.1030
  611MOL0     H82449   6.568   2.997   5.031 -0.6195  1.0716 -3.2290
  611MOL0     H82450   6.460   2.913   4.935  2.8217 -0.1072 -1.1890
  611MOL0     H82451   6.284   2.925   5.124  1.2006 -2.3307  1.4403
  611MOL0     H82452   6.414   2.944   5.236 -1.1277 -1.8458  0.5291
  611MOL0     H82453   6.290   3.144   5.236  1.4608 -0.4021  1.5413
  611MOL0     H82454   6.461   3.167   5.204  0.9609 -1.5135  0.4778
  611MOL0     H82455   6.390   3.187   4.949  0.3148 -1.2519  1.1569
  611MOL0     H82456   6.353   3.319   5.049  4.6650 -0.2854 -2.5957
  611MOL0     H82457   6.120   3.198   5.078 -0.1264  0.4630 -0.2379
  611MOL0     H82458   6.169   3.074   4.973  0.9533 -0.9050 -0.7249
  611MOL0     H82459   6.128   3.382   4.912 -3.8192 -0.7712  1.4312
  611MOL0     H82460   6.225   3.286   4.799  0.7618  3.0287  0.9192
  611MOL0     H82461   5.968   3.191   4.916 -0.6870  1.9287  0.6647
  611MOL0     H82462   6.039   3.138   4.759  1.1433  0.2633  0.3512
  611MOL0     H82463   5.889   3.379   4.822  0.4302  0.4185 -1.1865
  611MOL0     H82464   6.018   3.386   4.696 -1.4227  1.3532 -0.2763
  611MOL0     H82465   6.738   2.899   4.918  1.4538  0.2080 -0.2805
  611MOL0     H82466   6.884   2.774   4.811  1.3253 -0.1922  1.4686
  611MOL0     H82467   7.237   2.268   4.805  0.1707 -2.5636 -0.5061
  611MOL0     H82468   7.337   2.170   4.590  0.7926  0.3522 -2.8468
  611MOL0     H82469   7.703   1.854   2.648 -1.2890 -0.7001  3.0890
  611MOL0     H82470   7.925   1.748   2.591  1.6103  0.2070 -0.0990
  611MOL0     H82471   8.358   1.546   2.769  1.0154 -1.4466 -0.0462
  611MOL0     H82472   8.569   1.465   2.702  1.6386  0.9520  3.5875
  611MOL0     H82473   8.779   1.421   2.620  0.7791  1.0859 -1.3740
  611MOL0     H82474   8.783   1.509   2.775  0.6007  0.3220 -0.2254
  611MOL0     H82475   8.998   1.495   2.551 -0.8806 -0.4758 -0.4382
  611MOL0     H82476   9.020   1.431   2.719  0.9650  1.8571  1.3466
  611MOL0     H82477   9.030   1.672   2.795 -1.1740  0.1710  0.2871
  611MOL0     H82478   8.970   1.734   2.651  0.5149 -1.4264 -2.2213
  611MOL0     H82479   9.178   1.662   2.520 -1.6586 -0.1144 -0.3341
  611MOL0     H82480   9.211   1.764   2.670  1.6586 -0.6152  1.3469
  611MOL0     H82481   9.424   1.392   2.729 -0.5886  0.6476  0.1413
  611MOL0     H82482   8.691   1.859   2.578  0.1531 -0.4092  0.1340
  611MOL0     H82483   8.429   2.018   2.554  1.0398  2.1684 -0.0547
  611MOL0     H82484   8.386   2.038   2.717 -1.8368  1.0483 -1.1601
  611MOL0     H82485   8.558   2.047   2.671  0.6862 -0.9922 -3.0037
  612MOL0     O82486   9.588  10.365   3.740 -1.1743 -0.0218 -0.0664
  612MOL0     C82487   9.600  10.375   3.863 -0.6162  0.0315  0.3702
  612MOL0     O82488   9.533  10.293   3.955 -0.0690 -0.9392 -0.1915
  612MOL0     C82489   9.469  10.193   3.898  0.1145  1.1697  0.7824
  612MOL0     C82490   9.527  10.069   3.915  0.0818  0.0684 -0.2260
  612MOL0     C82491   9.462   9.954   3.886  0.4136  0.8563 -0.2321
  612MOL0     C82492   9.324   9.959   3.837 -0.1353  1.0596  0.0593
  612MOL0     O82493   9.243   9.852   3.808  0.6572 -0.3150 -0.1363
  612MOL0     C82494   9.298   9.719   3.798  0.6404 -0.7626  0.6610
  612MOL0     C82495   9.272   9.622   3.908  0.4803 -0.0685  0.1245
  612MOL0     C82496   9.303   9.678   4.049 -0.0499  0.6507  0.3288
  612MOL0     C82497   9.236   9.601   4.161  0.6988 -0.2671  0.3027
  612MOL0     C82498   9.288   9.644   4.299  0.4337  0.5909  0.2780
  612MOL0     C82499   9.249   9.555   4.416  0.3575 -1.0139  0.3021
  612MOL0     C82500   9.103   9.544   4.433  0.4562  0.1179 -0.3877
  612MOL0     C82501   9.034   9.438   4.344  1.4231  0.2826  0.1473
  612MOL0     N82502   9.096   9.302   4.323  0.1296 -0.1906  0.5710
  612MOL0     C82503   9.141   9.220   4.423  0.4677 -0.7717 -0.7066
  612MOL0     C82504   9.195   9.119   4.354 -0.0259 -0.1161 -0.2021
  612MOL0     C82505   9.276   9.026   4.441  1.1958 -0.1605  0.1588
  612MOL0     C82506   9.411   9.079   4.495 -0.1174  1.6386 -0.1817
  612MOL0     C82507   9.506   8.969   4.549 -0.0762 -1.1431 -0.4097
  612MOL0     C82508   9.534   8.853   4.459  0.5677 -0.1193  0.0842
  612MOL0     O82509   9.605   8.873   4.339 -0.8868  0.4198  0.2459
  612MOL0     C82510   9.689   8.766   4.291 -0.3076  0.0401  0.1981
  612MOL0     C82511   9.762   8.789   4.171 -0.0447  0.3266  0.5129
  612MOL0     C82512   9.834   8.682   4.105  1.6166  0.6389  0.4419
  612MOL0     C82513   9.847   8.551   4.166 -0.1825  0.3860 -0.3939
  612MOL0     C82514   9.923   8.444   4.101  0.3204  0.2500  1.6359
  612MOL0     O82515   9.942   8.326   4.170  0.0922 -0.2857  0.2204
  612MOL0     C82516  10.012   8.224   4.111  1.0303  1.5513 -0.9462
  612MOL0     C82517   9.939   8.106   4.090  0.3302 -0.3347 -0.6726
  612MOL0     C82518   9.992   7.985   4.046  0.1940  0.3146 -0.4321
  612MOL0     C82519  10.131   7.976   4.016 -0.5643 -0.3399  0.2739
  612MOL0     O82520  10.195   7.858   3.988 -0.8147 -0.7194 -0.1766
  612MOL0     C82521  10.155   7.728   4.025  0.0651  0.0098 -0.6085
  612MOL0     C82522  10.275   7.657   4.092 -0.0545  0.3104 -1.6799
  612MOL0     C82523  10.265   7.505   4.094 -0.3419 -0.5791 -0.0735
  612MOL0     C82524  10.303   7.461   3.957  0.3960  0.3153  1.7856
  612MOL0     C82525  10.303   7.307   3.942 -0.9006  0.1995  0.9066
  612MOL0     C82526  10.350   7.253   3.807 -0.6197 -1.0402 -0.1869
  612MOL0     C82527  10.373   7.104   3.810 -0.2781 -0.8295  0.5663
  612MOL0     C82528  10.412   7.049   3.674 -0.0641 -0.6578  0.3746
  612MOL0    Cl82529  10.496   6.893   3.704 -0.0004  0.0235 -0.1922
  612MOL0     C82530  10.205   8.095   4.041 -0.6566  0.6828  1.1702
  612MOL0     C82531  10.146   8.212   4.077  0.8015  0.2549  0.0706
  612MOL0     O82532   9.959   8.456   3.981 -0.0078  0.1367  0.2547
  612MOL0     C82533   9.783   8.539   4.290 -0.7822  0.3018 -0.6327
  612MOL0     C82534   9.709   8.642   4.348  0.2771  0.0065  0.3509
  612MOL0     N82535   9.173   9.133   4.218 -0.0284 -0.6529 -0.0302
  612MOL0     N82536   9.127   9.249   4.203 -0.8519  0.1733  0.9134
  612MOL0     C82537   9.265  10.082   3.815 -0.3637 -0.8134 -0.1343
  612MOL0     C82538   9.333  10.202   3.853 -0.6325 -0.5789 -0.6659
  612MOL0     C82539   9.705  10.477   3.892  0.5921 -0.0771  0.3304
  612MOL0     C82540   9.684  10.606   3.843  0.3785  0.4521  0.2610
  612MOL0     C82541   9.776  10.707   3.865  0.1600 -0.8680  0.1768
  612MOL0     C82542   9.877  10.690   3.954 -0.7261  1.0982 -0.3009
  612MOL0     O82543   9.949  10.805   3.973 -0.0992 -0.0307  0.9238
  612MOL0     C82544  10.021  10.821   4.095 -0.1515 -0.3600  0.0552
  612MOL0     C82545  10.035  10.970   4.146  0.3229 -0.2619 -0.0161
  612MOL0     C82546  10.078  11.063   4.033 -0.4245 -0.0001 -0.2156
  612MOL0     C82547  10.136  11.194   4.094 -0.0603 -0.0907 -0.3791
  612MOL0     C82548  10.042  11.308   4.118  0.1903 -0.4555 -0.1578
  612MOL0     C82549   9.963  11.400   4.143  0.5804  0.1509  0.0919
  612MOL0     C82550   9.906  10.570   4.012  0.0277 -0.8302 -0.2000
  612MOL0     C82551   9.820  10.460   3.977  1.5601 -0.4663 -0.1055
  612MOL0     C82552   9.846  10.312   4.031 -0.4182 -0.3207  0.9676
  612MOL0     H82553   9.626  10.067   3.960  0.3746  0.0537 -0.8715
  612MOL0     H82554   9.515   9.864   3.917  0.3334  1.0662  0.5447
  612MOL0     H82555   9.273   9.676   3.700  1.8718  1.3559 -0.6473
  612MOL0     H82556   9.407   9.719   3.788  0.4586  0.2733 -2.1778
  612MOL0     H82557   9.323   9.526   3.894 -2.3687 -1.3737 -2.7116
  612MOL0     H82558   9.163   9.613   3.918  0.3514 -1.6598 -1.9773
  612MOL0     H82559   9.282   9.785   4.039  1.7572  1.0337  0.2735
  612MOL0     H82560   9.410   9.657   4.060 -0.2015 -1.5320 -1.5261
  612MOL0     H82561   9.128   9.622   4.157 -0.0238 -2.8897  2.8328
  612MOL0     H82562   9.247   9.493   4.146  2.2918  0.2481 -3.4868
  612MOL0     H82563   9.397   9.641   4.294  0.4491 -2.3531  0.6439
  612MOL0     H82564   9.252   9.745   4.319 -2.5216  0.6150 -3.7775
  612MOL0     H82565   9.309   9.464   4.407  1.6522 -0.1822  0.1608
  612MOL0     H82566   9.277   9.610   4.507 -1.6038 -0.3798  0.5743
  612MOL0     H82567   9.058   9.643   4.417 -1.4711 -1.0463 -2.9077
  612MOL0     H82568   9.078   9.513   4.535  0.3019 -3.0684 -1.2934
  612MOL0     H82569   8.933   9.430   4.384  0.6516  1.8136 -1.3722
  612MOL0     H82570   9.008   9.476   4.245 -3.4098  0.8751  1.3865
  612MOL0     H82571   9.133   9.234   4.531  1.5262 -0.5562 -0.6492
  612MOL0     H82572   9.216   8.997   4.527 -2.7471 -0.6884 -2.5062
  612MOL0     H82573   9.286   8.935   4.380 -2.7370  1.5657 -3.5431
  612MOL0     H82574   9.448   9.131   4.407  1.0938  1.7755  0.3841
  612MOL0     H82575   9.399   9.143   4.583 -1.6337 -0.2553  1.0862
  612MOL0     H82576   9.464   8.930   4.643  0.7149 -0.8074  0.0879
  612MOL0     H82577   9.601   9.014   4.578 -0.6727 -2.5231  4.5485
  612MOL0     H82578   9.453   8.786   4.431  0.2139 -0.2695  1.4156
  612MOL0     H82579   9.588   8.787   4.528 -3.2979 -2.6975  0.9251
  612MOL0     H82580   9.756   8.890   4.131 -0.0295  0.4907  0.9248
  612MOL0     H82581   9.882   8.698   4.008 -0.2932  0.8369 -0.5257
  612MOL0     H82582   9.830   8.102   4.097  0.3335 -3.5061 -0.7124
  612MOL0     H82583   9.931   7.896   4.040 -1.7855  1.5562  0.0938
  612MOL0     H82584  10.072   7.715   4.094  1.4106 -0.9632  0.8985
  612MOL0     H82585  10.132   7.678   3.931 -2.6615  1.2998 -0.7116
  612MOL0     H82586  10.365   7.686   4.038  0.6138  3.7269  0.9280
  612MOL0     H82587  10.272   7.687   4.197  2.5405 -0.6097 -1.2789
  612MOL0     H82588  10.336   7.456   4.162 -0.1570 -0.8119 -0.4285
  612MOL0     H82589  10.163   7.472   4.112 -0.3624  0.9129  3.2155
  612MOL0     H82590  10.399   7.503   3.927 -0.0664  0.3998  0.2996
  612MOL0     H82591  10.230   7.502   3.886  2.5456  1.5234  0.1808
  612MOL0     H82592  10.200   7.275   3.959 -1.6723  0.1971 -2.9291
  612MOL0     H82593  10.372   7.274   4.021  1.4155  0.6799 -0.7924
  612MOL0     H82594  10.279   7.287   3.731  0.4113  0.2654 -0.6129
  612MOL0     H82595  10.442   7.308   3.782  0.4718 -1.0063  3.3847
  612MOL0     H82596  10.290   7.038   3.837 -1.6135 -0.1928 -1.6675
  612MOL0     H82597  10.459   7.089   3.875 -1.8913  0.5341  3.1534
  612MOL0     H82598  10.328   7.031   3.606  1.7896 -0.3516 -2.0834
  612MOL0     H82599  10.480   7.122   3.629  1.0341 -0.5607  2.1090
  612MOL0     H82600  10.311   8.076   4.027 -0.2810  2.6713  0.9672
  612MOL0     H82601  10.206   8.296   4.111 -1.2716  1.4251  0.9819
  612MOL0     H82602   9.790   8.444   4.341  0.1493  0.0974 -1.1252
  612MOL0     H82603   9.669   8.626   4.448 -1.1061 -1.5791 -0.3997
  612MOL0     H82604   9.160  10.095   3.791 -1.4057 -3.7768  2.1170
  612MOL0     H82605   9.294  10.303   3.848  1.8817  0.5741  0.9825
  612MOL0     H82606   9.598  10.634   3.784  0.7807 -2.1343 -1.7361
  612MOL0     H82607   9.758  10.799   3.811 -0.8413 -1.0767  0.1376
  612MOL0     H82608  10.120  10.775   4.094 -0.4001 -0.9393  1.3607
  612MOL0     H82609   9.969  10.774   4.179 -1.0759  1.1725  0.3860
  612MOL0     H82610  10.107  10.971   4.227 -0.8564 -0.0452  1.0658
  612MOL0     H82611   9.942  11.014   4.183  1.3864  0.4184  1.9424
  612MOL0     H82612   9.986  11.072   3.975 -1.2540 -0.9858  0.9017
  612MOL0     H82613  10.155  11.033   3.961  0.6832  0.0150  0.9321
  612MOL0     H82614  10.167  11.171   4.196 -0.7364  0.2307 -0.0990
  612MOL0     H82615  10.230  11.220   4.042 -0.9385  0.4458 -1.7719
  612MOL0     H82616   9.904  11.486   4.163 -0.1128 -0.5269  1.0741
  612MOL0     H82617   9.984  10.561   4.087 -2.1394 -1.2820  2.1267
  612MOL0     H82618   9.794  10.284   4.123 -2.4648 -1.2385 -0.3751
  612MOL0     H82619   9.843  10.232   3.956  0.5345  0.4188  0.1248
  612MOL0     H82620   9.950  10.318   4.064  0.4296 -1.4970 -1.2562
  613MOL0     O82621   8.799   2.007   8.858  1.1286  0.3341  0.2919
  613MOL0     C82622   8.734   2.016   8.749  0.0705  0.0791 -0.1964
  613MOL0     O82623   8.784   1.987   8.620  0.4170 -0.3895  0.0565
  613MOL0     C82624   8.895   1.900   8.617  1.0468  0.3486  0.3692
  613MOL0     C82625   9.021   1.939   8.581 -0.0489  1.1068 -0.1769
  613MOL0     C82626   9.129   1.857   8.549  0.5705  0.1403 -0.2101
  613MOL0     C82627   9.101   1.718   8.563 -0.2830  0.1988 -0.0556
  613MOL0     O82628   9.194   1.624   8.514 -0.1252 -0.1854  0.2340
  613MOL0     C82629   9.140   1.531   8.419 -1.1570 -0.1523 -0.6644
  613MOL0     C82630   9.247   1.459   8.344  0.1046 -0.1864  1.0781
  613MOL0     C82631   9.189   1.359   8.236  0.0470 -0.0641 -0.4767
  613MOL0     C82632   9.286   1.318   8.139 -0.8080 -0.8495 -0.0024
  613MOL0     C82633   9.219   1.276   8.003 -0.2875 -0.5721  0.3788
  613MOL0     C82634   9.153   1.145   8.020  0.4468  0.4169 -1.1189
  613MOL0     C82635   9.074   1.091   7.899  0.2575 -1.0600 -0.9026
  613MOL0     C82636   9.019   0.951   7.929  0.9165  0.2412  0.0648
  613MOL0     N82637   9.017   0.909   8.072  0.2412 -0.2911  0.1800
  613MOL0     C82638   9.106   0.820   8.126  0.4382 -0.0359 -0.3157
  613MOL0     C82639   9.055   0.800   8.248  0.2912  0.1316 -0.3204
  613MOL0     C82640   9.104   0.716   8.359 -0.4481  0.1217 -0.3088
  613MOL0     C82641   9.250   0.751   8.392  0.8347  0.1099 -0.6404
  613MOL0     C82642   9.252   0.889   8.459 -0.4769  1.0566 -0.1115
  613MOL0     C82643   9.361   0.985   8.426  0.2073  0.4448 -0.7402
  613MOL0     O82644   9.490   0.922   8.407 -0.3259 -0.1017 -0.0844
  613MOL0     C82645   9.542   0.846   8.510  0.8211 -0.5674 -0.1098
  613MOL0     C82646   9.506   0.869   8.647  0.3784 -0.4004  0.2388
  613MOL0     C82647   9.570   0.792   8.742  0.0863  0.1347  0.3261
  613MOL0     C82648   9.666   0.697   8.710  0.2646 -0.3612  0.6296
  613MOL0     C82649   9.730   0.612   8.820  1.4220  0.2829  0.0606
  613MOL0     O82650   9.784   0.494   8.785 -0.8823 -0.9856  0.2283
  613MOL0     C82651   9.835   0.409   8.882  1.0546 -0.3123 -0.1689
  613MOL0     C82652   9.955   0.350   8.851 -0.0030 -0.2337 -0.4632
  613MOL0     C82653  10.003   0.256   8.946  0.2548  0.3131 -0.3403
  613MOL0     C82654   9.957   0.239   9.084 -0.0954 -0.0033  0.0901
  613MOL0     O82655  10.030   0.175   9.183 -0.6772 -0.9531 -0.9201
  613MOL0     C82656   9.982   0.159   9.317  0.3881 -0.0441 -0.6523
  613MOL0     C82657   9.880   0.043   9.316 -0.3843 -0.3925  0.3748
  613MOL0     C82658   9.825   0.025   9.461  0.0425  0.7961  0.6591
  613MOL0     C82659   9.737  -0.097   9.454 -0.0632 -0.0448 -0.7966
  613MOL0     C82660   9.688  -0.128   9.591  0.1557  0.1194 -0.5380
  613MOL0     C82661   9.630  -0.276   9.583 -0.1316 -0.1794 -1.6331
  613MOL0     C82662   9.586  -0.354   9.707 -0.0692  0.7292 -0.4915
  613MOL0     C82663   9.689  -0.347   9.820 -0.5231 -0.9349 -0.4276
  613MOL0    Cl82664   9.642  -0.436   9.959  0.4225 -0.4107 -0.4813
  613MOL0     C82665   9.830   0.295   9.104  0.4653  0.3465 -0.1608
  613MOL0     C82666   9.772   0.371   9.000  0.8593  0.2491 -0.6058
  613MOL0     O82667   9.740   0.663   8.931  1.0761  0.0193  0.9247
  613MOL0     C82668   9.695   0.669   8.577  0.0967  0.1591  0.4660
  613MOL0     C82669   9.633   0.751   8.472  1.1793  0.1088 -0.2928
  613MOL0     N82670   8.943   0.879   8.268 -0.1934  0.4305 -0.7390
  613MOL0     N82671   8.922   0.943   8.161  0.2957  0.4677 -0.2921
  613MOL0     C82672   8.975   1.681   8.605  0.6452 -0.1021 -0.5820
  613MOL0     C82673   8.867   1.767   8.623  0.8128  0.3268 -0.1525
  613MOL0     C82674   8.594   2.059   8.753  0.6256 -0.7517  1.3234
  613MOL0     C82675   8.546   2.128   8.632  0.1418  0.1256 -0.6045
  613MOL0     C82676   8.408   2.147   8.625 -0.0159 -0.7327  0.5140
  613MOL0     C82677   8.315   2.115   8.724  0.7018 -0.7144  0.0578
  613MOL0     O82678   8.184   2.143   8.682 -0.0178  0.0553  0.0070
  613MOL0     C82679   8.075   2.127   8.781  0.1047 -0.8138 -0.7058
  613MOL0     C82680   7.973   2.023   8.734  0.2877  0.1465 -0.0161
  613MOL0     C82681   7.852   2.024   8.832  0.9640 -1.1778 -0.8823
  613MOL0     C82682   7.754   1.917   8.803  0.1340 -0.5258  0.6716
  613MOL0     C82683   7.690   1.933   8.668 -0.3778 -0.1840  0.0494
  613MOL0     C82684   7.624   1.955   8.567  0.0454 -0.5430  0.8159
  613MOL0     C82685   8.368   2.054   8.835  0.7294 -0.2678  0.9984
  613MOL0     C82686   8.506   2.025   8.856  0.1240 -0.1560  0.0933
  613MOL0     C82687   8.541   1.951   8.987 -0.7280 -0.4229  0.1807
  613MOL0     H82688   9.024   2.046   8.563  0.5116  0.9924 -0.7875
  613MOL0     H82689   9.230   1.882   8.519  0.6525  0.7300  0.5199
  613MOL0     H82690   9.094   1.452   8.479  0.5897  0.6110  1.8078
  613MOL0     H82691   9.071   1.573   8.344 -0.1063 -0.2293 -1.6934
  613MOL0     H82692   9.316   1.409   8.412  0.8344 -3.9508 -2.0662
  613MOL0     H82693   9.318   1.527   8.296 -0.0326 -1.6333 -1.3646
  613MOL0     H82694   9.093   1.394   8.196 -1.3711 -1.0393  1.8559
  613MOL0     H82695   9.177   1.264   8.289 -0.4044 -0.3535 -1.0813
  613MOL0     H82696   9.351   1.406   8.135 -1.3694 -0.1632  2.9732
  613MOL0     H82697   9.355   1.244   8.179 -0.7189 -0.4184  0.6740
  613MOL0     H82698   9.149   1.353   7.969  1.5026  0.2028 -1.7981
  613MOL0     H82699   9.290   1.267   7.920 -1.0071 -1.4460 -0.1609
  613MOL0     H82700   9.230   1.073   8.051 -1.1403 -0.5636  0.8159
  613MOL0     H82701   9.094   1.140   8.112  1.9094 -0.2134 -0.1711
  613MOL0     H82702   9.145   1.080   7.816  0.1357 -1.9293 -0.9014
  613MOL0     H82703   9.000   1.166   7.872  0.5127 -0.5151 -0.1332
  613MOL0     H82704   8.914   0.963   7.900 -0.0854 -2.5383  2.0850
  613MOL0     H82705   9.057   0.874   7.862  2.0488  2.1612 -1.6332
  613MOL0     H82706   9.182   0.760   8.079 -0.9335  0.1819 -2.9896
  613MOL0     H82707   9.028   0.717   8.437 -0.0298  1.6480  0.1042
  613MOL0     H82708   9.097   0.614   8.319 -1.0736 -0.7548  1.9092
  613MOL0     H82709   9.294   0.687   8.469  0.4284 -0.0804 -0.5640
  613MOL0     H82710   9.300   0.729   8.297  0.9885 -1.8762 -0.1463
  613MOL0     H82711   9.265   0.874   8.567  4.1424  1.8842 -0.3361
  613MOL0     H82712   9.157   0.942   8.455  0.2387  2.2828 -3.4832
  613MOL0     H82713   9.374   1.057   8.508  2.0172  0.3304 -0.8812
  613MOL0     H82714   9.327   1.029   8.332 -0.6173  1.9090  0.1949
  613MOL0     H82715   9.437   0.947   8.678 -1.8129 -0.9394 -2.7786
  613MOL0     H82716   9.552   0.821   8.845 -2.0547 -0.3876  0.1402
  613MOL0     H82717   9.999   0.383   8.757 -2.4612 -0.1022 -1.6435
  613MOL0     H82718  10.102   0.225   8.915  0.0339 -0.2066 -0.5465
  613MOL0     H82719  10.056   0.123   9.389  0.0185  0.9652  0.2458
  613MOL0     H82720   9.926   0.247   9.348  0.4100 -1.0879  2.7513
  613MOL0     H82721   9.797   0.066   9.248  0.7977  0.6403 -0.7924
  613MOL0     H82722   9.929  -0.050   9.286  1.1277 -0.5502  3.0618
  613MOL0     H82723   9.906   0.005   9.532 -1.9675 -3.1586  2.1588
  613MOL0     H82724   9.767   0.111   9.497 -2.2091 -0.6377  0.6888
  613MOL0     H82725   9.799  -0.183   9.426  0.5060 -1.2061  3.2598
  613MOL0     H82726   9.650  -0.079   9.391 -0.0302  1.3222 -0.4989
  613MOL0     H82727   9.615  -0.056   9.631 -0.9871 -0.9016 -0.7455
  613MOL0     H82728   9.772  -0.129   9.661  1.7347 -2.1686 -2.3413
  613MOL0     H82729   9.544  -0.281   9.515 -3.0531  0.1530  1.7573
  613MOL0     H82730   9.707  -0.336   9.534  0.7728  0.9004 -1.5828
  613MOL0     H82731   9.566  -0.460   9.689  0.7849 -0.1166  2.7897
  613MOL0     H82732   9.493  -0.314   9.748  1.9606  2.8667  2.4094
  613MOL0     H82733   9.778  -0.400   9.783  0.6548 -0.0449  1.0224
  613MOL0     H82734   9.707  -0.243   9.850 -1.1129 -1.7609  3.2180
  613MOL0     H82735   9.767   0.290   9.191  0.9875 -1.8743  0.1735
  613MOL0     H82736   9.673   0.413   9.019  0.0157 -0.6191 -2.6883
  613MOL0     H82737   9.773   0.595   8.563  1.4719  1.0275  3.0468
  613MOL0     H82738   9.644   0.735   8.366 -0.8795 -0.2248 -0.5038
  613MOL0     H82739   8.951   1.577   8.626 -2.0584 -0.2300 -3.4733
  613MOL0     H82740   8.769   1.730   8.652  1.2929 -1.8369 -1.0892
  613MOL0     H82741   8.625   2.129   8.557  1.0942 -0.8335  0.3466
  613MOL0     H82742   8.374   2.188   8.530 -0.2957  1.7676  1.6001
  613MOL0     H82743   8.012   2.216   8.795 -1.5489 -2.3382  2.8227
  613MOL0     H82744   8.108   2.104   8.882 -0.0788  0.9475 -0.2101
  613MOL0     H82745   8.026   1.928   8.726  2.2406  1.2403 -0.8505
  613MOL0     H82746   7.939   2.062   8.637 -0.7746  3.0567  1.4081
  613MOL0     H82747   7.807   2.124   8.838  1.3126 -0.9649 -1.6707
  613MOL0     H82748   7.880   2.002   8.936 -1.7893 -0.2071  0.1721
  613MOL0     H82749   7.814   1.826   8.808  3.4090  1.1180 -2.9691
  613MOL0     H82750   7.673   1.923   8.876 -1.7082 -1.2226 -1.2072
  613MOL0     H82751   7.579   1.985   8.474  0.4724  3.0671  1.6070
  613MOL0     H82752   8.295   2.035   8.913 -3.1088  0.8873 -1.9949
  613MOL0     H82753   8.463   1.970   9.062 -1.3141 -2.0857  0.0256
  613MOL0     H82754   8.568   1.849   8.961 -0.0481  0.3457 -2.3769
  613MOL0     H82755   8.634   1.993   9.026 -1.2449  0.5965  0.3802
  614MOL0     O82756   6.711   6.862   9.986  0.3306 -0.7351 -0.4787
  614MOL0     C82757   6.831   6.874   9.962  0.4524 -0.2713 -0.5574
  614MOL0     O82758   6.905   6.779   9.902 -1.0814 -0.0021 -0.0407
  614MOL0     C82759   6.848   6.658   9.889  0.1557 -0.1099 -0.2338
  614MOL0     C82760   6.777   6.636   9.772  0.5713 -0.5028  0.3043
  614MOL0     C82761   6.737   6.499   9.748 -0.4313  0.3955 -0.9372
  614MOL0     C82762   6.764   6.407   9.852 -0.0458 -0.3678  0.0339
  614MOL0     O82763   6.713   6.286   9.836 -0.2650 -0.2281 -0.5488
  614MOL0     C82764   6.816   6.189   9.821  0.3504 -0.7005  0.3715
  614MOL0     C82765   6.810   6.055   9.908  0.7489 -0.2527  0.5817
  614MOL0     C82766   6.876   6.071  10.042  0.5411  0.7348  0.0837
  614MOL0     C82767   6.886   5.925  10.089  0.0157  0.1878 -0.2239
  614MOL0     C82768   6.951   5.916  10.226  0.2404  0.3541 -0.5228
  614MOL0     C82769   6.911   5.793  10.314 -0.7526 -0.8332 -0.3325
  614MOL0     C82770   6.976   5.801  10.460  0.6721 -0.4167 -0.2545
  614MOL0     C82771   7.121   5.767  10.449 -0.5369  0.4219 -0.0258
  614MOL0     N82772   7.148   5.627  10.429 -0.1497  0.7527  0.5005
  614MOL0     C82773   7.216   5.563  10.323  0.1540 -0.3514  0.0166
  614MOL0     C82774   7.219   5.432  10.360  0.0745 -0.0893 -0.4726
  614MOL0     C82775   7.311   5.338  10.298  0.3760  0.3176 -0.3362
  614MOL0     C82776   7.422   5.275  10.387  0.6280  0.0682  0.1942
  614MOL0     C82777   7.482   5.371  10.491 -1.1875 -0.6110 -0.9148
  614MOL0     C82778   7.551   5.491  10.425 -1.4312 -0.2859  1.0815
  614MOL0     O82779   7.631   5.564  10.522 -0.3510  0.0831  0.4385
  614MOL0     C82780   7.608   5.696  10.528 -0.2621 -0.0011 -0.0125
  614MOL0     C82781   7.475   5.735  10.555 -1.0446  0.2839  0.0319
  614MOL0     C82782   7.443   5.876  10.558 -0.2118  0.5437  0.4364
  614MOL0     C82783   7.545   5.967  10.537  0.7710  0.4512 -0.2532
  614MOL0     C82784   7.518   6.119  10.551 -0.5604 -1.0084  0.2413
  614MOL0     O82785   7.411   6.164  10.617  0.0893  0.6644  0.4160
  614MOL0     C82786   7.420   6.297  10.642 -0.0254  0.0987  0.3772
  614MOL0     C82787   7.376   6.382  10.540  0.2758  0.7014 -0.0664
  614MOL0     C82788   7.382   6.517  10.552 -1.1094 -0.6725  0.4957
  614MOL0     C82789   7.449   6.574  10.652 -0.3466 -0.0527  0.0591
  614MOL0     O82790   7.482   6.712  10.640 -0.5808  0.8468  0.2076
  614MOL0     C82791   7.554   6.781  10.742  0.1795 -0.5691 -0.5655
  614MOL0     C82792   7.445   6.867  10.817 -0.0504 -0.9702  0.8201
  614MOL0     C82793   7.499   6.905  10.946  0.3693 -0.4153 -0.5640
  614MOL0     C82794   7.414   7.027  11.003 -0.4743  0.4266  0.9355
  614MOL0     C82795   7.485   7.080  11.128  0.3864  0.0644  1.5741
  614MOL0     C82796   7.406   7.201  11.189  0.0255  0.6611 -0.6335
  614MOL0     C82797   7.272   7.170  11.250 -0.4961  0.5260  0.8470
  614MOL0     C82798   7.208   7.297  11.303  0.1437  0.2861  0.3306
  614MOL0    Cl82799   7.310   7.416  11.389  0.0166  0.0610 -0.0614
  614MOL0     C82800   7.483   6.489  10.762  0.5954 -0.3985 -0.0688
  614MOL0     C82801   7.483   6.344  10.757 -0.0070 -0.0305 -0.1089
  614MOL0     O82802   7.600   6.189  10.494 -0.4169  0.1881  0.4012
  614MOL0     C82803   7.676   5.917  10.518  0.0041  0.8886 -0.0828
  614MOL0     C82804   7.708   5.787  10.521 -0.8534  0.0691 -0.2570
  614MOL0     N82805   7.147   5.414  10.471 -0.2360  0.0603  0.3483
  614MOL0     N82806   7.090   5.528  10.518 -0.2980  0.6997  0.1747
  614MOL0     C82807   6.824   6.442   9.977 -0.2123  1.4989 -0.0759
  614MOL0     C82808   6.867   6.564   9.997 -0.4738 -0.7940  0.0427
  614MOL0     C82809   6.880   7.010   9.980  0.7795 -0.0067  0.5318
  614MOL0     C82810   6.986   7.044   9.891  0.5726 -0.4182 -0.6688
  614MOL0     C82811   7.055   7.170   9.902 -0.5838  0.7850  0.6484
  614MOL0     C82812   7.006   7.269   9.990 -0.0381  0.9866 -0.2427
  614MOL0     O82813   7.063   7.396  10.015  0.4017  0.0662  0.0906
  614MOL0     C82814   7.157   7.454   9.932 -0.1164  0.2672  0.2397
  614MOL0     C82815   7.189   7.597   9.984 -0.4628 -0.3413 -0.4766
  614MOL0     C82816   7.249   7.689   9.873  0.0987  0.7850  0.0391
  614MOL0     C82817   7.287   7.832   9.920 -0.0539 -0.0545 -1.1018
  614MOL0     C82818   7.297   7.920   9.807  0.2272  0.2783  0.4639
  614MOL0     C82819   7.312   7.987   9.708  0.1077 -0.2293 -0.5984
  614MOL0     C82820   6.904   7.238  10.076 -0.0159 -0.1593  0.4035
  614MOL0     C82821   6.837   7.114  10.076 -0.4305  0.7239 -0.2510
  614MOL0     C82822   6.742   7.078  10.191 -0.1989  0.7377  1.1126
  614MOL0     H82823   6.753   6.717   9.704  4.0538  0.8672  0.4756
  614MOL0     H82824   6.695   6.454   9.658 -0.2761  0.2649 -0.9431
  614MOL0     H82825   6.808   6.165   9.714 -0.7040  1.3943 -0.0685
  614MOL0     H82826   6.915   6.235   9.832 -0.4228  0.7629  1.5378
  614MOL0     H82827   6.875   5.996   9.843  2.4874  0.5707  1.4844
  614MOL0     H82828   6.709   6.015   9.906  0.4858  0.4211 -0.6944
  614MOL0     H82829   6.820   6.141  10.105 -1.7621 -0.7651 -0.1902
  614MOL0     H82830   6.978   6.109  10.034 -0.1993  2.4869 -2.2367
  614MOL0     H82831   6.786   5.880  10.092  0.6906 -1.3721 -0.2880
  614MOL0     H82832   6.951   5.857  10.033 -0.8275 -0.5749 -0.3064
  614MOL0     H82833   7.059   5.930  10.231  0.3474 -0.7904  1.4603
  614MOL0     H82834   6.910   6.000  10.283  0.3973 -0.2437  0.4921
  614MOL0     H82835   6.805   5.792  10.337 -0.6404 -0.5092  0.2077
  614MOL0     H82836   6.941   5.704  10.257  1.0227  0.1738 -1.0433
  614MOL0     H82837   6.931   5.720  10.518  0.2822 -1.4143 -1.8842
  614MOL0     H82838   6.953   5.900  10.500 -1.6888 -0.1129 -2.1896
  614MOL0     H82839   7.176   5.831  10.379  0.0385 -0.8394 -0.7722
  614MOL0     H82840   7.160   5.799  10.546 -1.0108  0.5078  0.1407
  614MOL0     H82841   7.260   5.611  10.236 -2.0494 -1.3516 -1.7578
  614MOL0     H82842   7.248   5.263  10.248 -0.1139  1.1823 -1.0526
  614MOL0     H82843   7.362   5.383  10.212  0.7374  1.3064  0.3854
  614MOL0     H82844   7.376   5.188  10.435 -1.3837 -0.0181 -1.7299
  614MOL0     H82845   7.506   5.225  10.337 -0.3957 -1.9147  0.3524
  614MOL0     H82846   7.549   5.311  10.555 -0.1787  2.9087  1.6284
  614MOL0     H82847   7.404   5.395  10.563  1.1565 -1.7213  2.2583
  614MOL0     H82848   7.473   5.554  10.381 -0.1583  1.4204  1.1831
  614MOL0     H82849   7.606   5.447  10.342 -1.9261 -0.0013  0.5940
  614MOL0     H82850   7.404   5.653  10.561 -3.0057  1.8139 -1.2907
  614MOL0     H82851   7.341   5.908  10.574 -1.4542 -2.4186 -0.6749
  614MOL0     H82852   7.328   6.343  10.451  0.0530 -3.0169  1.5397
  614MOL0     H82853   7.345   6.579  10.471  0.8056  0.0060  0.0750
  614MOL0     H82854   7.604   6.703  10.800 -1.0600 -0.9237  0.0793
  614MOL0     H82855   7.629   6.847  10.699  0.4984  0.6831  1.7543
  614MOL0     H82856   7.424   6.955  10.757  0.2449 -2.2063 -1.1941
  614MOL0     H82857   7.354   6.808  10.833 -0.8408  0.3398  1.3087
  614MOL0     H82858   7.493   6.825  11.020 -1.6689 -0.5269 -0.8041
  614MOL0     H82859   7.605   6.931  10.946  0.1021  1.1992 -3.5768
  614MOL0     H82860   7.307   7.016  11.021 -1.0432 -0.0230 -2.2613
  614MOL0     H82861   7.416   7.112  10.934  1.9284 -0.5815 -0.3583
  614MOL0     H82862   7.581   7.125  11.099  0.3399 -1.7879 -2.0486
  614MOL0     H82863   7.512   7.003  11.202  3.2134 -1.4458 -0.7875
  614MOL0     H82864   7.472   7.240  11.267  0.5992 -1.6130  0.0933
  614MOL0     H82865   7.395   7.293  11.131 -1.8050  2.1735  1.9146
  614MOL0     H82866   7.291   7.106  11.336  2.5597 -0.3404 -0.3244
  614MOL0     H82867   7.212   7.120  11.174  0.4088  5.1528 -3.4495
  614MOL0     H82868   7.158   7.337  11.214 -2.5603 -3.7012 -0.1652
  614MOL0     H82869   7.124   7.271  11.367  0.6646  1.0014  1.3369
  614MOL0     H82870   7.509   6.540  10.854  0.6302 -0.1642 -0.2063
  614MOL0     H82871   7.490   6.277  10.843  2.6918 -0.1497 -0.3472
  614MOL0     H82872   7.761   5.985  10.511 -1.5216  3.0040  0.7247
  614MOL0     H82873   7.809   5.749  10.507 -0.9030 -0.4827  0.8572
  614MOL0     H82874   6.814   6.382  10.066  1.5382  2.0382  0.5200
  614MOL0     H82875   6.920   6.591  10.088  0.6779 -0.5057 -0.6966
  614MOL0     H82876   7.023   6.973   9.819  1.1585 -2.3979  1.4694
  614MOL0     H82877   7.142   7.191   9.841 -0.4526  0.4357  0.7140
  614MOL0     H82878   7.123   7.467   9.829  2.0089  1.4660 -0.3813
  614MOL0     H82879   7.248   7.394   9.926 -1.6894 -2.0968 -1.7092
  614MOL0     H82880   7.244   7.603  10.078 -0.2808  1.0697 -0.6406
  614MOL0     H82881   7.088   7.634  10.008 -0.8343 -1.8230  0.3887
  614MOL0     H82882   7.180   7.695   9.788  0.0263 -1.7931 -0.1813
  614MOL0     H82883   7.340   7.643   9.834 -0.9555 -0.9940 -0.4386
  614MOL0     H82884   7.228   7.874  10.003 -0.8940 -0.6747 -1.3725
  614MOL0     H82885   7.390   7.831   9.958  0.0057 -1.3540 -1.2714
  614MOL0     H82886   7.339   8.044   9.621  1.4037 -0.7680 -0.5686
  614MOL0     H82887   6.862   7.306  10.149 -2.8959 -1.9552  0.5664
  614MOL0     H82888   6.794   7.006  10.254  0.0165  0.1191  0.2428
  614MOL0     H82889   6.728   7.159  10.263  0.7038  1.4027  0.5668
  614MOL0     H82890   6.653   7.024  10.158 -1.0494  0.5248  3.5428
  615MOL0     O82891   4.988   6.302   9.846  0.2981 -0.3443  0.6751
  615MOL0     C82892   5.102   6.274   9.871 -0.3742  0.5221 -0.0871
  615MOL0     O82893   5.154   6.147   9.884  0.6945  0.3670  0.1745
  615MOL0     C82894   5.118   6.049   9.799  1.0538 -0.3520 -0.7884
  615MOL0     C82895   5.233   5.985   9.754  0.2003 -0.1608  0.0282
  615MOL0     C82896   5.231   5.878   9.660 -1.0264 -0.8134  0.1384
  615MOL0     C82897   5.102   5.840   9.613  0.3929  0.1118  0.0389
  615MOL0     O82898   5.091   5.739   9.522  0.7828  0.5785 -0.5775
  615MOL0     C82899   4.986   5.749   9.423  0.2584  0.2202  0.1150
  615MOL0     C82900   5.011   5.645   9.315 -0.1891  0.0333 -0.0180
  615MOL0     C82901   5.140   5.681   9.232 -1.2056  0.3527  0.4913
  615MOL0     C82902   5.147   5.582   9.125  0.1646  0.7082  0.8948
  615MOL0     C82903   5.263   5.622   9.034  0.0351 -0.1532  0.0509
  615MOL0     C82904   5.398   5.579   9.085 -0.4184 -0.4274 -0.9737
  615MOL0     C82905   5.519   5.634   9.007  0.5400  1.1382 -0.2993
  615MOL0     C82906   5.652   5.569   9.065 -0.1061 -0.6771  0.0896
  615MOL0     N82907   5.669   5.588   9.210 -0.9019  0.6138 -1.0827
  615MOL0     C82908   5.667   5.486   9.303  1.0008  0.1951  0.1437
  615MOL0     C82909   5.654   5.540   9.426  0.4731 -0.4996  0.1624
  615MOL0     C82910   5.631   5.477   9.562  0.4619 -0.0816  0.2707
  615MOL0     C82911   5.499   5.405   9.570  0.0358  0.6771  0.6802
  615MOL0     C82912   5.388   5.508   9.566  0.1115  0.5118  0.0162
  615MOL0     C82913   5.251   5.439   9.554  0.2308 -0.5482 -1.0568
  615MOL0     O82914   5.224   5.341   9.652 -0.2499 -0.2444  0.0241
  615MOL0     C82915   5.105   5.286   9.681 -0.1507 -0.2075 -0.1647
  615MOL0     C82916   4.984   5.327   9.612 -0.3897 -0.0276 -0.8638
  615MOL0     C82917   4.874   5.249   9.628 -0.1715 -0.9148  0.1210
  615MOL0     C82918   4.861   5.133   9.712 -0.4603 -1.4867 -0.1997
  615MOL0     C82919   4.735   5.060   9.720  0.8583  0.5408  0.0392
  615MOL0     O82920   4.728   4.963   9.815  0.4509 -0.6848 -0.0113
  615MOL0     C82921   4.599   4.901   9.835 -1.0621 -0.2044  0.9805
  615MOL0     C82922   4.539   4.901   9.966 -0.3830 -0.5675  0.2322
  615MOL0     C82923   4.427   4.809   9.997  0.2582 -1.2213  0.5205
  615MOL0     C82924   4.374   4.743   9.892  0.4231 -0.0435 -0.5878
  615MOL0     O82925   4.256   4.668   9.914  0.0933  0.0850 -0.0149
  615MOL0     C82926   4.145   4.751   9.935 -0.3834 -0.7819  0.5968
  615MOL0     C82927   4.019   4.671   9.904  0.2378 -0.1470  0.3075
  615MOL0     C82928   4.002   4.640   9.751  0.5911  0.6307  1.0521
  615MOL0     C82929   3.862   4.586   9.713  0.2978 -0.2161 -0.5367
  615MOL0     C82930   3.864   4.555   9.567  0.6129 -0.2691 -0.8557
  615MOL0     C82931   3.762   4.441   9.547  0.2309 -0.6471  0.0549
  615MOL0     C82932   3.617   4.495   9.565  0.4746  1.3748  0.2041
  615MOL0     C82933   3.540   4.479   9.438  0.7509  0.9364 -0.3469
  615MOL0    Cl82934   3.517   4.317   9.366 -0.2245 -0.3086  0.0295
  615MOL0     C82935   4.432   4.737   9.764  0.0681 -0.0010 -0.0156
  615MOL0     C82936   4.541   4.818   9.742 -0.2965  0.0556 -0.7614
  615MOL0     O82937   4.647   5.098   9.639 -0.0317  0.4158 -0.5950
  615MOL0     C82938   4.975   5.097   9.784  0.1337  0.0433 -0.8064
  615MOL0     C82939   5.087   5.180   9.768 -0.4758  0.2524 -0.5315
  615MOL0     N82940   5.673   5.676   9.410  0.2805  0.4951  0.3226
  615MOL0     N82941   5.681   5.706   9.278  0.4733 -0.6969 -0.7780
  615MOL0     C82942   4.984   5.905   9.655  0.0495 -0.1154  0.5529
  615MOL0     C82943   4.992   6.005   9.753  0.7594 -0.3390 -0.4002
  615MOL0     C82944   5.184   6.391   9.915  0.9144 -0.6738 -0.7295
  615MOL0     C82945   5.128   6.506   9.983 -0.0724  1.0762  0.1303
  615MOL0     C82946   5.200   6.606  10.039 -0.5014 -0.4740 -0.1401
  615MOL0     C82947   5.344   6.608  10.034  0.0889 -0.0365  0.0830
  615MOL0     O82948   5.423   6.699  10.101  0.2166  0.0419 -0.4047
  615MOL0     C82949   5.362   6.785  10.200 -0.2442  0.1067 -0.1128
  615MOL0     C82950   5.439   6.907  10.248 -0.4653  0.3558  0.7592
  615MOL0     C82951   5.579   6.880  10.313  0.2338 -0.9757  0.8074
  615MOL0     C82952   5.577   6.786  10.434  0.4200  0.0059  0.1418
  615MOL0     C82953   5.717   6.763  10.470  0.4617  0.4756  0.4272
  615MOL0     C82954   5.834   6.744  10.487 -0.2073  1.8117  0.3588
  615MOL0     C82955   5.406   6.509   9.955  0.1740 -0.2420  0.0350
  615MOL0     C82956   5.325   6.404   9.891 -0.1017 -0.1401 -0.2743
  615MOL0     C82957   5.393   6.313   9.799  0.2250  0.5847 -0.0081
  615MOL0     H82958   5.333   6.007   9.790  1.0426 -4.0373  0.4572
  615MOL0     H82959   5.315   5.811   9.649 -0.5484 -0.1444 -0.4377
  615MOL0     H82960   4.884   5.734   9.459 -0.2297 -0.1071 -1.3169
  615MOL0     H82961   4.981   5.852   9.387  2.6782  1.4778  2.9696
  615MOL0     H82962   4.926   5.646   9.246  0.1110 -2.9236 -0.5935
  615MOL0     H82963   5.021   5.548   9.364 -0.6322  1.7740  3.8934
  615MOL0     H82964   5.223   5.680   9.303 -1.3109  0.3799  0.6130
  615MOL0     H82965   5.138   5.778   9.182  2.9238  0.3796  0.0932
  615MOL0     H82966   5.158   5.482   9.167  5.5643  1.0891  1.0852
  615MOL0     H82967   5.056   5.581   9.065  0.9133 -2.0613 -0.3630
  615MOL0     H82968   5.250   5.568   8.939  1.2162 -2.0484  0.8969
  615MOL0     H82969   5.267   5.730   9.023  4.7830 -0.0610  0.6732
  615MOL0     H82970   5.411   5.612   9.188 -1.4650 -3.2521  0.1826
  615MOL0     H82971   5.401   5.470   9.096 -2.3853 -0.5534 -1.3681
  615MOL0     H82972   5.524   5.741   8.985  1.2083  1.0090 -0.8248
  615MOL0     H82973   5.512   5.579   8.912 -4.2019 -1.0394  0.9903
  615MOL0     H82974   5.675   5.469   9.029  3.0398  0.1801 -0.6296
  615MOL0     H82975   5.731   5.627   9.016  2.2022 -1.5244  2.5363
  615MOL0     H82976   5.641   5.384   9.277 -0.0964  0.9710 -2.0602
  615MOL0     H82977   5.720   5.413   9.572 -0.0627 -1.0291 -0.9157
  615MOL0     H82978   5.643   5.551   9.642  1.2319 -0.4002  0.4643
  615MOL0     H82979   5.486   5.335   9.487  2.5580 -0.8173  1.4392
  615MOL0     H82980   5.495   5.350   9.664  1.3531  0.1827  0.4608
  615MOL0     H82981   5.413   5.581   9.488  3.9203 -0.0650  0.5322
  615MOL0     H82982   5.381   5.555   9.664 -0.0095  2.6331 -0.9539
  615MOL0     H82983   5.250   5.390   9.456  2.1126  0.6087 -1.7216
  615MOL0     H82984   5.166   5.508   9.559  0.3748 -0.4468  1.0390
  615MOL0     H82985   4.972   5.410   9.544  2.5532  1.6340  0.4850
  615MOL0     H82986   4.785   5.277   9.573  2.3488  1.7820 -3.0397
  615MOL0     H82987   4.577   4.976  10.034  0.9800 -0.8898 -0.1456
  615MOL0     H82988   4.369   4.810  10.089 -3.7805  0.1651 -1.7468
  615MOL0     H82989   4.144   4.778  10.041 -0.3898 -0.7216  0.5810
  615MOL0     H82990   4.148   4.838   9.868  1.6288  0.7974  2.5803
  615MOL0     H82991   4.013   4.578   9.962 -1.7815  0.9502  1.9978
  615MOL0     H82992   3.936   4.737   9.931  2.0465  1.6117  1.9100
  615MOL0     H82993   4.021   4.733   9.696  2.1320 -0.9613 -1.3042
  615MOL0     H82994   4.071   4.565   9.712  1.7687  3.3741 -2.7438
  615MOL0     H82995   3.782   4.658   9.733 -1.2536 -1.6883 -1.2144
  615MOL0     H82996   3.844   4.507   9.786  2.0776  0.7602  1.0584
  615MOL0     H82997   3.960   4.505   9.553  0.3530  0.1693 -6.0754
  615MOL0     H82998   3.850   4.637   9.496  0.8894  0.3468 -0.2061
  615MOL0     H82999   3.787   4.384   9.456  0.3504 -2.0017  0.9075
  615MOL0     H83000   3.768   4.364   9.624 -0.9344 -2.7412 -1.8235
  615MOL0     H83001   3.621   4.600   9.595  0.9321  0.8805  1.9370
  615MOL0     H83002   3.576   4.432   9.644  1.7598  2.1732  1.5432
  615MOL0     H83003   3.439   4.518   9.452 -1.0067 -3.2004 -0.3025
  615MOL0     H83004   3.589   4.534   9.357  2.8049 -1.8845 -1.1861
  615MOL0     H83005   4.391   4.661   9.698  0.2795 -2.6684  2.7107
  615MOL0     H83006   4.598   4.810   9.650  0.7700  1.0199 -0.2164
  615MOL0     H83007   4.968   5.032   9.871  2.3542  4.4736  3.1882
  615MOL0     H83008   5.171   5.160   9.834 -1.0879  0.4110  0.3272
  615MOL0     H83009   4.887   5.871   9.621  0.8422 -2.1140  0.1822
  615MOL0     H83010   4.902   6.050   9.794  1.2727  0.0408  0.3290
  615MOL0     H83011   5.022   6.491  10.002 -0.4990  5.1303  2.1409
  615MOL0     H83012   5.148   6.671  10.107  0.9272 -0.7895  1.3208
  615MOL0     H83013   5.344   6.720  10.287 -2.4476 -0.9807 -1.3044
  615MOL0     H83014   5.266   6.825  10.165 -0.2769 -0.7537 -1.0335
  615MOL0     H83015   5.386   6.964  10.325 -1.2649 -1.1228  1.3376
  615MOL0     H83016   5.448   6.970  10.159 -1.8996 -0.8625 -0.3000
  615MOL0     H83017   5.617   6.975  10.352  0.5082 -0.8782  0.3034
  615MOL0     H83018   5.646   6.838  10.238 -0.5712  2.1198 -1.8923
  615MOL0     H83019   5.514   6.835  10.510 -0.7289 -2.5714  0.9520
  615MOL0     H83020   5.532   6.688  10.422 -2.6459  1.2618  0.4575
  615MOL0     H83021   5.941   6.745  10.495 -0.1690 -1.1509  1.7369
  615MOL0     H83022   5.512   6.518   9.935 -0.2374  0.0702 -2.2350
  615MOL0     H83023   5.495   6.344   9.777  1.0275 -2.0017 -0.2783
  615MOL0     H83024   5.398   6.213   9.844 -2.6581 -0.1236 -1.0510
  615MOL0     H83025   5.323   6.305   9.715 -2.7278  0.0921  2.3048
  616MOL0     O83026  10.968   6.374   1.263 -0.2448 -0.7305  0.0222
  616MOL0     C83027  10.950   6.411   1.148 -0.3978 -0.0794 -0.2041
  616MOL0     O83028  10.843   6.462   1.101  0.2400 -0.1611  0.0230
  616MOL0     C83029  10.726   6.462   1.178 -0.7543 -1.0694  1.0100
  616MOL0     C83030  10.722   6.523   1.310 -0.1113  0.1269 -0.1120
  616MOL0     C83031  10.605   6.509   1.388 -0.2560  0.3448 -0.3564
  616MOL0     C83032  10.494   6.433   1.341  0.0361 -0.8868  1.0399
  616MOL0     O83033  10.388   6.421   1.435  0.2444 -0.0250  0.1179
  616MOL0     C83034  10.280   6.330   1.404  0.4727  0.6423  1.4245
  616MOL0     C83035  10.200   6.307   1.535  0.2029  0.4653  1.3687
  616MOL0     C83036  10.090   6.200   1.512  0.5716  0.8931 -0.2830
  616MOL0     C83037  10.048   6.140   1.641  0.3685 -0.6819  0.5148
  616MOL0     C83038   9.951   6.029   1.609 -0.2758  0.9402 -0.1421
  616MOL0     C83039   9.995   5.896   1.535 -0.5032  0.2385 -0.3675
  616MOL0     C83040  10.119   5.848   1.611  0.1023 -0.4299  0.7199
  616MOL0     C83041  10.164   5.714   1.552  0.7420  0.3706  0.3811
  616MOL0     N83042  10.174   5.720   1.406 -0.8027 -0.4006  0.1268
  616MOL0     C83043  10.278   5.783   1.335 -0.1350  0.0540  0.2297
  616MOL0     C83044  10.273   5.727   1.213  0.1101 -0.6871 -1.0620
  616MOL0     C83045  10.352   5.772   1.093 -0.0982  0.8404 -0.2276
  616MOL0     C83046  10.424   5.906   1.128 -0.5196  0.4241 -0.3006
  616MOL0     C83047  10.486   5.981   1.006 -0.3153  0.3705  0.1698
  616MOL0     C83048  10.616   5.906   0.955 -0.6654  0.4704  0.0291
  616MOL0     O83049  10.709   6.004   0.920 -0.1205 -0.0587 -0.1400
  616MOL0     C83050  10.836   5.969   0.888  0.0934 -0.3382 -0.4990
  616MOL0     C83051  10.922   6.066   0.836  0.2319  0.3061  0.6780
  616MOL0     C83052  11.042   6.021   0.785 -0.9721 -0.4519 -0.5188
  616MOL0     C83053  11.085   5.890   0.787  0.1252  0.2609 -0.2009
  616MOL0     C83054  11.210   5.862   0.723 -0.4007  0.6351  0.6840
  616MOL0     O83055  11.287   5.960   0.653  0.2929  0.1493 -0.9929
  616MOL0     C83056  11.426   5.952   0.655  0.6299  0.5396  0.0746
  616MOL0     C83057  11.501   5.885   0.754  0.2696 -0.3309  0.1246
  616MOL0     C83058  11.649   5.893   0.740 -0.6447  0.0998 -0.4990
  616MOL0     C83059  11.711   5.971   0.640  0.5113 -0.1596 -0.1797
  616MOL0     O83060  11.846   5.974   0.638 -0.0135 -0.3460  0.0818
  616MOL0     C83061  11.904   6.036   0.529 -0.5404 -0.2151 -0.4939
  616MOL0     C83062  12.055   6.042   0.557  0.0994  0.0318  0.7045
  616MOL0     C83063  12.085   6.041   0.705  0.4740 -1.2465 -0.2413
  616MOL0     C83064  12.244   6.063   0.713  1.8360  0.8362  0.3373
  616MOL0     C83065  12.293   6.118   0.855  1.2184  0.3526 -0.1266
  616MOL0     C83066  12.437   6.127   0.879 -0.2635 -0.3096  0.2727
  616MOL0     C83067  12.518   5.995   0.866 -0.0545 -0.1511 -0.1807
  616MOL0     C83068  12.677   6.013   0.899 -0.0702  0.5751 -0.1886
  616MOL0    Cl83069  12.673   6.040   1.078 -0.4785  0.4725  0.1743
  616MOL0     C83070  11.631   6.036   0.558  0.2741 -0.7340  0.9500
  616MOL0     C83071  11.492   6.026   0.561 -0.2145 -0.4541 -0.0504
  616MOL0     O83072  11.250   5.748   0.737  0.1870  0.1262 -0.0707
  616MOL0     C83073  11.006   5.789   0.851 -1.6703 -0.7952  0.7305
  616MOL0     C83074  10.882   5.830   0.897 -0.6269  0.0865  0.3267
  616MOL0     N83075  10.163   5.635   1.218  0.2456  0.1561  0.1999
  616MOL0     N83076  10.104   5.640   1.332 -0.4571  0.1649  0.2011
  616MOL0     C83077  10.492   6.391   1.202  0.6175 -0.0236 -0.4094
  616MOL0     C83078  10.605   6.411   1.125 -1.0776 -0.4846 -0.3789
  616MOL0     C83079  11.068   6.407   1.057 -0.1423 -0.5737 -0.2743
  616MOL0     C83080  11.026   6.388   0.923 -0.5084  0.5505  0.2198
  616MOL0     C83081  11.127   6.392   0.823  0.5958  0.0862 -0.7833
  616MOL0     C83082  11.254   6.426   0.845  0.1123  0.3727 -0.1698
  616MOL0     O83083  11.340   6.438   0.739 -0.8980 -0.5603  0.0614
  616MOL0     C83084  11.420   6.318   0.719 -0.2234 -0.6611 -0.2501
  616MOL0     C83085  11.569   6.340   0.738 -0.0620 -1.2748 -0.0799
  616MOL0     C83086  11.614   6.445   0.631  1.1490 -0.0236  0.8602
  616MOL0     C83087  11.751   6.433   0.573  0.3293  0.8852 -0.0678
  616MOL0     C83088  11.861   6.459   0.662 -0.0908  0.7261  0.0635
  616MOL0     C83089  11.962   6.488   0.722 -0.5322  0.4211 -0.8241
  616MOL0     C83090  11.299   6.438   0.981  0.1898 -1.1113  1.1986
  616MOL0     C83091  11.202   6.432   1.088  0.1370 -0.3340 -0.2831
  616MOL0     C83092  11.258   6.464   1.225 -0.2722  0.4826 -0.5737
  616MOL0     H83093  10.811   6.568   1.353 -0.6094  0.5966  0.4334
  616MOL0     H83094  10.587   6.556   1.484 -0.3075 -2.3654  1.0602
  616MOL0     H83095  10.228   6.378   1.321 -0.8803 -1.8907  0.7170
  616MOL0     H83096  10.319   6.234   1.367  0.1790  0.1446  2.3673
  616MOL0     H83097  10.146   6.399   1.557 -3.3320 -1.4891  1.5997
  616MOL0     H83098  10.274   6.267   1.604 -1.5926 -3.8919  1.1523
  616MOL0     H83099  10.145   6.125   1.456  0.9879  0.0781  1.1595
  616MOL0     H83100  10.005   6.238   1.455  0.7648 -0.0778 -1.2495
  616MOL0     H83101  10.144   6.122   1.688  2.4862  3.7171 -1.5433
  616MOL0     H83102  10.016   6.232   1.690  3.4230  0.6940  0.1001
  616MOL0     H83103   9.909   6.001   1.706  2.3376  1.4066  1.2231
  616MOL0     H83104   9.872   6.070   1.546 -2.6692 -0.0593  2.0455
  616MOL0     H83105   9.920   5.817   1.543 -1.4842  1.2754  1.2559
  616MOL0     H83106  10.023   5.914   1.430 -1.2341  2.6928 -0.2092
  616MOL0     H83107  10.103   5.822   1.716  1.8377 -0.7838  0.9207
  616MOL0     H83108  10.202   5.919   1.616 -1.7437  1.7628  3.8704
  616MOL0     H83109  10.261   5.708   1.603  1.4829  1.4710 -0.8403
  616MOL0     H83110  10.093   5.636   1.580  2.2513 -0.2390  2.8005
  616MOL0     H83111  10.333   5.848   1.401 -0.9320 -1.6959  2.7630
  616MOL0     H83112  10.423   5.690   1.083 -2.3068 -1.4404  1.4754
  616MOL0     H83113  10.288   5.780   1.004  2.6672 -0.9841 -2.5566
  616MOL0     H83114  10.348   5.978   1.158  0.8174  2.7862 -2.2490
  616MOL0     H83115  10.494   5.882   1.209 -0.8653 -3.3136 -0.9144
  616MOL0     H83116  10.500   6.079   1.053 -1.4757 -1.1923  4.1957
  616MOL0     H83117  10.420   5.990   0.920  2.0623  1.4259 -1.6636
  616MOL0     H83118  10.590   5.837   0.874 -3.2948 -0.3805  1.4819
  616MOL0     H83119  10.658   5.843   1.034  4.6294 -0.2540 -2.8534
  616MOL0     H83120  10.902   6.172   0.823  0.1127  0.2893  0.7252
  616MOL0     H83121  11.101   6.091   0.727 -1.8436 -0.2508 -1.1895
  616MOL0     H83122  11.455   5.821   0.828 -0.0036 -0.9865 -0.5897
  616MOL0     H83123  11.720   5.848   0.809  1.6351  2.2125 -1.3328
  616MOL0     H83124  11.868   5.981   0.441 -3.0583 -1.2673  1.0812
  616MOL0     H83125  11.863   6.137   0.520  0.2943  0.0226 -2.2548
  616MOL0     H83126  12.107   5.961   0.504  0.9899  0.2154  1.2715
  616MOL0     H83127  12.096   6.139   0.527  2.4296 -0.9502  0.5119
  616MOL0     H83128  12.038   6.132   0.744  2.6335 -0.5336  0.8987
  616MOL0     H83129  12.036   5.965   0.767 -1.1600 -0.4882 -0.5475
  616MOL0     H83130  12.278   6.139   0.642  1.2486  0.3086 -0.5227
  616MOL0     H83131  12.293   5.967   0.693 -1.7263 -0.8193 -1.3323
  616MOL0     H83132  12.246   6.045   0.921 -0.4746  1.7554  0.2695
  616MOL0     H83133  12.244   6.212   0.879  0.6676 -0.2348  1.1012
  616MOL0     H83134  12.480   6.217   0.833  0.9224  0.9323  3.5570
  616MOL0     H83135  12.448   6.144   0.986 -0.1099 -0.2007  0.2388
  616MOL0     H83136  12.511   5.959   0.763  0.1571 -0.9941  0.0889
  616MOL0     H83137  12.471   5.909   0.915  0.2502 -0.8154 -1.0241
  616MOL0     H83138  12.728   5.925   0.858  2.0682  2.5961 -2.1310
  616MOL0     H83139  12.714   6.096   0.838  0.5390  1.6534  1.5755
  616MOL0     H83140  11.666   6.102   0.480 -2.0155  0.4819  0.8677
  616MOL0     H83141  11.428   6.063   0.481 -3.0607  2.1747  3.1714
  616MOL0     H83142  11.039   5.687   0.866 -4.3383 -2.0822 -1.4197
  616MOL0     H83143  10.826   5.747   0.939  0.4141 -1.3707 -1.0131
  616MOL0     H83144  10.397   6.360   1.162  1.2810 -1.6161 -0.8386
  616MOL0     H83145  10.617   6.377   1.023  0.7045 -1.6094  0.1551
  616MOL0     H83146  10.924   6.356   0.904 -0.5185 -0.3855  1.6597
  616MOL0     H83147  11.095   6.360   0.724  1.3397 -1.6324 -0.5119
  616MOL0     H83148  11.389   6.281   0.621 -4.1276  0.8572  0.2341
  616MOL0     H83149  11.394   6.238   0.788  1.5845 -0.8706  0.2166
  616MOL0     H83150  11.621   6.244   0.742  1.2999 -0.5210  0.7124
  616MOL0     H83151  11.588   6.379   0.838 -0.5606 -3.5353  0.9584
  616MOL0     H83152  11.577   6.542   0.665 -1.4968 -1.3834  2.1586
  616MOL0     H83153  11.555   6.426   0.541 -0.0597  1.5665  1.2658
  616MOL0     H83154  11.758   6.335   0.525 -1.1222  0.2153  1.0406
  616MOL0     H83155  11.767   6.509   0.496 -1.7675 -1.1749 -2.7666
  616MOL0     H83156  12.045   6.520   0.782  0.5797 -1.0792 -1.5040
  616MOL0     H83157  11.402   6.457   1.007 -0.1027  0.1521  1.5222
  616MOL0     H83158  11.346   6.403   1.249 -0.5594 -0.2780 -1.4133
  616MOL0     H83159  11.259   6.573   1.237 -2.8059  0.5121 -0.1471
  616MOL0     H83160  11.181   6.429   1.294 -1.4559  1.6630 -1.2329
  617MOL0     O83161   5.279   7.602   4.365 -0.5395 -0.0369  0.2534
  617MOL0     C83162   5.232   7.593   4.476  0.0253 -0.0796 -0.4154
  617MOL0     O83163   5.111   7.636   4.520  0.7095  0.3169  0.7362
  617MOL0     C83164   5.056   7.713   4.424  0.1991 -0.7548 -0.1489
  617MOL0     C83165   5.000   7.678   4.302  0.0322  0.7945 -0.6544
  617MOL0     C83166   4.944   7.767   4.210 -0.1422  0.3851  0.2604
  617MOL0     C83167   4.923   7.897   4.243  0.3089 -1.3053  0.1114
  617MOL0     O83168   4.857   7.975   4.153  0.1411  0.8080 -0.5614
  617MOL0     C83169   4.836   8.115   4.181  0.3075  0.2870 -0.6958
  617MOL0     C83170   4.963   8.198   4.163 -0.7793 -0.0621 -0.8147
  617MOL0     C83171   4.987   8.239   4.015 -0.5712  0.0909 -0.6360
  617MOL0     C83172   5.131   8.306   3.994  1.0035  0.4663 -0.2499
  617MOL0     C83173   5.149   8.388   3.860  0.0049 -0.6681 -0.3749
  617MOL0     C83174   5.096   8.527   3.890 -0.6880 -0.2117 -0.6550
  617MOL0     C83175   5.206   8.605   3.968  0.1318  0.1558 -0.0241
  617MOL0     C83176   5.151   8.678   4.086  0.6114  0.4167 -1.8056
  617MOL0     N83177   5.124   8.810   4.059 -0.2546 -0.2221  0.1805
  617MOL0     C83178   5.207   8.917   4.078 -0.7784  0.0259 -0.4278
  617MOL0     C83179   5.148   9.019   4.015  0.1932 -1.1440  0.2279
  617MOL0     C83180   5.200   9.159   4.034  0.5344 -0.4700 -0.2199
  617MOL0     C83181   5.137   9.215   4.162  0.2612 -1.1290 -1.1146
  617MOL0     C83182   5.172   9.366   4.186  0.9006 -0.2894 -1.0082
  617MOL0     C83183   5.125   9.460   4.073  0.3002 -0.2838 -0.2991
  617MOL0     O83184   5.115   9.588   4.132  1.1628  0.4673 -0.3650
  617MOL0     C83185   5.105   9.701   4.042 -0.8000  0.2348 -0.9189
  617MOL0     C83186   5.120   9.831   4.091  0.3907  0.1307 -0.2391
  617MOL0     C83187   5.120   9.941   4.007 -0.7236 -0.6669  0.7885
  617MOL0     C83188   5.085   9.927   3.869 -0.0613 -0.0811 -1.8912
  617MOL0     C83189   5.082  10.044   3.778 -0.6116  0.0405 -0.4626
  617MOL0     O83190   5.129  10.160   3.842 -0.6304 -0.6961  0.6137
  617MOL0     C83191   5.094  10.278   3.787 -0.1608  0.2592  0.0294
  617MOL0     C83192   5.143  10.382   3.873 -0.6762  0.1007 -0.2336
  617MOL0     C83193   5.113  10.518   3.843  0.1406  0.9066 -0.1689
  617MOL0     C83194   5.029  10.552   3.732 -0.0526  0.9534 -0.1665
  617MOL0     O83195   5.003  10.682   3.731 -0.9067  0.4883 -0.8014
  617MOL0     C83196   4.955  10.730   3.605 -0.6435  0.2532  0.8808
  617MOL0     C83197   4.966  10.880   3.576  0.9020 -0.4153  0.1912
  617MOL0     C83198   4.982  10.922   3.424  0.4834  0.7467  0.1930
  617MOL0     C83199   4.898  11.051   3.402 -0.3203  0.4945 -0.3038
  617MOL0     C83200   4.918  11.088   3.246  0.0077  1.0068 -0.1746
  617MOL0     C83201   4.872  10.972   3.149  0.3162  0.5053  0.7565
  617MOL0     C83202   4.830  11.036   3.016 -1.3253 -0.1905  1.0264
  617MOL0     C83203   4.766  10.934   2.915 -0.0924  0.0357  0.3591
  617MOL0    Cl83204   4.756  11.004   2.750 -0.0837  0.2789  0.0542
  617MOL0     C83205   4.988  10.447   3.650  0.2772 -0.4805 -0.3097
  617MOL0     C83206   5.012  10.310   3.678 -1.2846 -0.1044  0.4789
  617MOL0     O83207   5.059  10.031   3.658  0.1604 -0.0499  0.4100
  617MOL0     C83208   5.060   9.802   3.826 -0.0920  0.2065 -0.7583
  617MOL0     C83209   5.074   9.689   3.906 -0.2492 -1.0904 -0.1970
  617MOL0     N83210   5.033   8.978   3.958  1.0989  0.6262  0.9690
  617MOL0     N83211   5.017   8.849   3.983  0.9723 -0.7198  0.2622
  617MOL0     C83212   4.982   7.947   4.364  0.3657  0.4125 -0.2458
  617MOL0     C83213   5.055   7.852   4.444 -0.8740  0.2612 -1.1689
  617MOL0     C83214   5.309   7.528   4.580 -0.1098 -0.4498  0.8352
  617MOL0     C83215   5.237   7.465   4.677 -0.1277  0.7364 -0.2479
  617MOL0     C83216   5.300   7.392   4.780 -0.4079  0.4731  0.9239
  617MOL0     C83217   5.436   7.364   4.776  0.0326 -1.3796 -0.3804
  617MOL0     O83218   5.502   7.299   4.881  0.0675 -0.4126 -0.5095
  617MOL0     C83219   5.437   7.245   4.995 -0.0954  0.0998 -0.5770
  617MOL0     C83220   5.529   7.179   5.110 -0.5889  0.5123  0.1478
  617MOL0     C83221   5.645   7.262   5.173  0.6718  0.5809  0.4081
  617MOL0     C83222   5.597   7.389   5.246  0.5572 -0.3410  0.4452
  617MOL0     C83223   5.499   7.355   5.347  0.5764  0.3392 -0.3100
  617MOL0     C83224   5.401   7.325   5.420 -0.1146  0.1724  0.4890
  617MOL0     C83225   5.513   7.432   4.688 -0.0137 -0.3835 -0.2284
  617MOL0     C83226   5.451   7.510   4.587 -0.0612 -0.3464 -0.0381
  617MOL0     C83227   5.546   7.589   4.502  0.2724  0.4923 -0.0736
  617MOL0     H83228   5.002   7.576   4.266 -0.4638  0.5994 -0.1463
  617MOL0     H83229   4.902   7.739   4.113 -0.2082  0.9327  0.1268
  617MOL0     H83230   4.770   8.161   4.107 -0.0051 -2.1150 -2.0137
  617MOL0     H83231   4.798   8.127   4.283 -0.4676  0.0160 -0.9462
  617MOL0     H83232   5.050   8.142   4.200 -0.3345 -0.0883 -1.8859
  617MOL0     H83233   4.969   8.290   4.222  4.0714 -0.8238  0.3441
  617MOL0     H83234   4.908   8.307   3.983 -0.5730  2.2532  3.3129
  617MOL0     H83235   5.002   8.148   3.956  1.4082  2.0112 -3.3888
  617MOL0     H83236   5.151   8.362   4.086  0.1032 -2.0895  1.6183
  617MOL0     H83237   5.189   8.215   3.978 -1.2370 -0.5951 -3.3653
  617MOL0     H83238   5.250   8.387   3.817  0.0508 -0.7063 -0.2687
  617MOL0     H83239   5.089   8.349   3.778 -0.0956  0.2871 -0.7630
  617MOL0     H83240   5.066   8.574   3.796  0.4743 -0.9990 -1.4361
  617MOL0     H83241   5.007   8.511   3.952 -0.3362 -1.2401 -0.3903
  617MOL0     H83242   5.261   8.675   3.905 -3.2859  1.1316 -2.1639
  617MOL0     H83243   5.276   8.531   4.007 -0.6777 -1.6029 -1.7570
  617MOL0     H83244   5.052   8.646   4.121  0.9944  2.2116  1.3676
  617MOL0     H83245   5.229   8.670   4.163  0.4807 -2.5116 -1.8838
  617MOL0     H83246   5.301   8.932   4.131 -1.5721 -1.5541  1.5559
  617MOL0     H83247   5.306   9.157   4.060  0.7308  2.5509 -0.4807
  617MOL0     H83248   5.171   9.220   3.948  0.1975 -1.6738 -0.9762
  617MOL0     H83249   5.028   9.220   4.163  0.3093  1.9512 -1.1663
  617MOL0     H83250   5.174   9.164   4.251 -0.6409  1.9570  1.2073
  617MOL0     H83251   5.280   9.374   4.200  0.8382  1.7088 -1.4572
  617MOL0     H83252   5.121   9.398   4.277  1.1043  2.0561 -1.6682
  617MOL0     H83253   5.026   9.425   4.040  0.9872 -1.1830 -1.4647
  617MOL0     H83254   5.196   9.467   3.990 -0.3737 -0.4154 -0.9064
  617MOL0     H83255   5.133   9.832   4.199 -2.1391  1.8839  0.1275
  617MOL0     H83256   5.161  10.037   4.036  3.4982 -1.7743 -0.7424
  617MOL0     H83257   5.190  10.364   3.970 -1.3543  1.5315  0.3910
  617MOL0     H83258   5.137  10.597   3.913  2.3416  1.0400 -1.0014
  617MOL0     H83259   5.010  10.678   3.526  2.6105  1.1299  2.3829
  617MOL0     H83260   4.847  10.712   3.608 -0.3321 -2.0649  0.0913
  617MOL0     H83261   4.886  10.933   3.628  1.8232  0.4737  0.7479
  617MOL0     H83262   5.062  10.911   3.619 -0.2707  0.6307  2.1729
  617MOL0     H83263   5.083  10.944   3.387  0.0623 -1.6613 -2.7053
  617MOL0     H83264   4.933  10.848   3.361  2.7705 -1.7720  1.2105
  617MOL0     H83265   4.938  11.129   3.467  0.8894  1.1060 -1.7552
  617MOL0     H83266   4.796  11.026   3.432  1.1209 -2.2319  3.1748
  617MOL0     H83267   5.024  11.094   3.219 -0.2215  0.3652 -1.3176
  617MOL0     H83268   4.876  11.188   3.232 -1.0875  0.9201  2.0963
  617MOL0     H83269   4.951  10.898   3.132  1.2882  1.4049  1.2464
  617MOL0     H83270   4.782  10.920   3.183 -1.7241  0.7762 -3.5413
  617MOL0     H83271   4.920  11.077   2.970 -1.4931 -1.9253 -1.0472
  617MOL0     H83272   4.768  11.126   3.029 -0.1534  0.3969  2.9358
  617MOL0     H83273   4.823  10.840   2.918 -1.6248 -0.9694 -0.4279
  617MOL0     H83274   4.670  10.897   2.952  0.6578 -2.0359  0.3812
  617MOL0     H83275   4.925  10.461   3.564 -0.9050 -1.1994  0.4170
  617MOL0     H83276   4.981  10.236   3.606 -0.6543 -0.5187  0.6213
  617MOL0     H83277   5.048   9.784   3.719 -1.8174 -2.3370 -0.2249
  617MOL0     H83278   5.058   9.588   3.868 -1.3595 -0.2862 -1.9819
  617MOL0     H83279   4.990   8.048   4.404  2.0380 -0.2133  1.1372
  617MOL0     H83280   5.110   7.900   4.524  0.1329 -0.7711 -1.2280
  617MOL0     H83281   5.131   7.489   4.680  0.0006  1.4088 -0.8793
  617MOL0     H83282   5.241   7.326   4.844  0.3213 -0.2931  0.8269
  617MOL0     H83283   5.373   7.164   4.960  1.6259 -0.5897 -2.3094
  617MOL0     H83284   5.378   7.321   5.047 -0.6366  1.3278 -2.8415
  617MOL0     H83285   5.562   7.081   5.075  0.2617  0.9876 -0.4159
  617MOL0     H83286   5.461   7.150   5.190 -3.1049  1.5152 -1.4700
  617MOL0     H83287   5.718   7.291   5.097  0.7509  0.1507  0.3182
  617MOL0     H83288   5.680   7.187   5.244 -6.3160 -2.8130  1.1393
  617MOL0     H83289   5.686   7.435   5.291 -0.7086  0.5915  2.0688
  617MOL0     H83290   5.558   7.461   5.173  0.4127  0.2166  1.0639
  617MOL0     H83291   5.304   7.304   5.459 -0.8575 -0.7634 -1.6813
  617MOL0     H83292   5.619   7.408   4.692  0.6897  2.5431  0.8046
  617MOL0     H83293   5.647   7.598   4.541  0.1006 -3.4805  1.7182
  617MOL0     H83294   5.555   7.531   4.409  3.0350 -0.9726  1.0058
  617MOL0     H83295   5.502   7.687   4.478 -1.4168 -0.3438 -0.5915
  618MOL0     O83296   2.388   6.173   3.686 -0.1857  0.1879  0.6680
  618MOL0     C83297   2.427   6.267   3.612  0.9724  0.1485 -0.0407
  618MOL0     O83298   2.421   6.264   3.476  0.2620 -0.1639  0.1037
  618MOL0     C83299   2.327   6.177   3.415 -0.9384  0.3434 -0.6056
  618MOL0     C83300   2.364   6.069   3.328  0.0071 -0.7981  0.2946
  618MOL0     C83301   2.264   5.977   3.285 -0.4752 -0.6186 -0.1250
  618MOL0     C83302   2.128   5.991   3.330  0.7350 -0.4200  0.4376
  618MOL0     O83303   2.023   5.901   3.302 -0.0767 -0.1629  0.2025
  618MOL0     C83304   1.887   5.932   3.334  0.1578  0.3428  0.3148
  618MOL0     C83305   1.830   5.799   3.322  0.0943  0.1741  0.7890
  618MOL0     C83306   1.683   5.808   3.360  0.6797  0.3050  0.5157
  618MOL0     C83307   1.618   5.671   3.324  0.6045 -0.7672  0.4995
  618MOL0     C83308   1.466   5.689   3.316 -0.3843  0.6390 -0.2292
  618MOL0     C83309   1.398   5.568   3.259  0.6591  0.4303 -0.2815
  618MOL0     C83310   1.240   5.579   3.222 -1.0837 -0.6852  0.5795
  618MOL0     C83311   1.193   5.712   3.163  1.1944 -0.1647  0.9452
  618MOL0     N83312   1.046   5.712   3.144  0.2933  1.0100 -0.4242
  618MOL0     C83313   0.952   5.818   3.114 -0.1405  1.0463 -0.9889
  618MOL0     C83314   0.835   5.757   3.108 -0.0967  0.4732 -0.4566
  618MOL0     C83315   0.700   5.829   3.085 -1.2311 -0.0193 -0.2397
  618MOL0     C83316   0.681   5.908   2.954 -0.3059  0.4694  0.1623
  618MOL0     C83317   0.786   5.887   2.848  0.0049 -0.3452 -0.4480
  618MOL0     C83318   0.771   5.751   2.790 -0.3809  0.2052 -0.1292
  618MOL0     O83319   0.646   5.740   2.721 -0.6387  0.4525 -0.4964
  618MOL0     C83320   0.626   5.615   2.667 -0.6867 -0.3606  0.5035
  618MOL0     C83321   0.722   5.512   2.634  0.3765 -0.8637 -0.6159
  618MOL0     C83322   0.680   5.393   2.585 -0.3915  0.4745 -0.2012
  618MOL0     C83323   0.545   5.369   2.564  0.6212  0.2281  0.0418
  618MOL0     C83324   0.508   5.245   2.497 -0.0845  0.1024  0.5763
  618MOL0     O83325   0.376   5.214   2.493 -0.4203 -0.5453  0.2324
  618MOL0     C83326   0.346   5.095   2.442  0.0429  0.3507 -0.4716
  618MOL0     C83327   0.370   4.977   2.501 -0.0669  0.8204 -0.3688
  618MOL0     C83328   0.355   4.869   2.429  0.4244 -0.5483 -0.7261
  618MOL0     C83329   0.314   4.862   2.301  0.7485  0.1456  0.1315
  618MOL0     O83330   0.322   4.735   2.245  0.9449 -0.0208 -0.1691
  618MOL0     C83331   0.439   4.690   2.188  0.0105 -0.5757  0.6798
  618MOL0     C83332   0.446   4.731   2.037  0.2914  0.4084 -0.1457
  618MOL0     C83333   0.318   4.697   1.960 -0.2654  0.4133  0.7383
  618MOL0     C83334   0.344   4.609   1.832 -0.0242  0.3650 -0.2594
  618MOL0     C83335   0.216   4.553   1.762 -0.0221 -0.8129  0.5663
  618MOL0     C83336   0.254   4.435   1.685 -0.4950  0.1968  1.2896
  618MOL0     C83337   0.136   4.358   1.632 -0.4317  0.3010 -0.1164
  618MOL0     C83338   0.062   4.416   1.522  0.3547 -0.7855 -0.1976
  618MOL0    Cl83339  -0.085   4.315   1.516 -0.0032 -0.3454 -0.2269
  618MOL0     C83340   0.277   4.978   2.242  1.2008  1.2421 -0.1593
  618MOL0     C83341   0.295   5.098   2.314  0.3032 -0.0822  0.9670
  618MOL0     O83342   0.598   5.179   2.439  0.0352  0.3100 -0.0745
  618MOL0     C83343   0.450   5.467   2.587  0.6981  0.6479  0.2022
  618MOL0     C83344   0.489   5.582   2.650 -1.8571 -0.9265 -0.0946
  618MOL0     N83345   0.853   5.616   3.106 -0.3508 -0.4454 -0.5754
  618MOL0     N83346   0.978   5.589   3.124 -0.0715 -0.3690 -0.7390
  618MOL0     C83347   2.098   6.114   3.391 -0.5556 -0.4740 -0.4038
  618MOL0     C83348   2.196   6.199   3.444 -0.0691 -0.4022  0.2094
  618MOL0     C83349   2.498   6.387   3.669 -1.6077 -1.2841 -0.1263
  618MOL0     C83350   2.496   6.502   3.585  0.1451 -0.0503 -0.7769
  618MOL0     C83351   2.577   6.609   3.617  1.3894 -0.7454 -0.0026
  618MOL0     C83352   2.660   6.606   3.731 -0.8087  0.2008  0.8929
  618MOL0     O83353   2.734   6.718   3.754 -0.1778  0.0849  0.1615
  618MOL0     C83354   2.814   6.730   3.875 -0.1984  0.2394  0.4070
  618MOL0     C83355   2.892   6.862   3.884  0.6556  0.0747  0.7404
  618MOL0     C83356   2.998   6.898   3.783 -0.8594 -0.8313 -0.4956
  618MOL0     C83357   3.141   6.838   3.779 -0.0654 -0.3728  0.1300
  618MOL0     C83358   3.183   6.834   3.923  0.2518  0.8403  1.4540
  618MOL0     C83359   3.249   6.852   4.022 -0.1764  0.4705 -0.9077
  618MOL0     C83360   2.657   6.494   3.812  0.1207  0.2929  0.0651
  618MOL0     C83361   2.570   6.385   3.784  0.0236  0.3337 -0.4732
  618MOL0     C83362   2.581   6.268   3.878  0.4078 -0.5236  0.7913
  618MOL0     H83363   2.466   6.078   3.291 -0.4761  3.9021 -0.6051
  618MOL0     H83364   2.278   5.901   3.209 -0.8919 -1.0565  0.2274
  618MOL0     H83365   1.865   5.977   3.431 -1.4495  3.7275 -1.4645
  618MOL0     H83366   1.841   6.007   3.271 -1.3678 -0.5713  0.2998
  618MOL0     H83367   1.875   5.724   3.387 -0.0548 -0.3743  0.2633
  618MOL0     H83368   1.839   5.775   3.216  2.0151 -1.6776  1.3215
  618MOL0     H83369   1.636   5.879   3.292 -0.0610 -0.0713  0.6266
  618MOL0     H83370   1.672   5.824   3.468 -0.9482  1.1485  0.2579
  618MOL0     H83371   1.652   5.630   3.228  0.0948 -0.0852  0.0163
  618MOL0     H83372   1.630   5.596   3.403 -3.9212  0.0364  2.2789
  618MOL0     H83373   1.419   5.716   3.411  2.6986  2.4064  0.9398
  618MOL0     H83374   1.446   5.779   3.259  0.6313  1.9823  1.4365
  618MOL0     H83375   1.453   5.537   3.170  0.7372 -0.4602  0.0642
  618MOL0     H83376   1.412   5.472   3.310 -2.5632 -0.6462 -1.1919
  618MOL0     H83377   1.191   5.564   3.319 -1.1043 -1.2486  0.4815
  618MOL0     H83378   1.224   5.500   3.149  0.0485 -0.5039  0.1095
  618MOL0     H83379   1.216   5.788   3.238 -1.7569 -0.1507  1.9321
  618MOL0     H83380   1.253   5.713   3.072  1.7275 -2.2950  1.2126
  618MOL0     H83381   0.985   5.920   3.102 -0.3901  1.1744 -0.6041
  618MOL0     H83382   0.620   5.754   3.089 -0.2584 -1.0583  0.7210
  618MOL0     H83383   0.694   5.901   3.167 -0.5683 -0.4981  0.2446
  618MOL0     H83384   0.584   5.870   2.921 -1.5516  2.1499  1.6683
  618MOL0     H83385   0.683   6.017   2.966 -1.7628  0.4859  0.4037
  618MOL0     H83386   0.884   5.913   2.890  0.5168 -2.5122 -0.1704
  618MOL0     H83387   0.764   5.960   2.770 -0.9605  0.9396  0.9648
  618MOL0     H83388   0.766   5.684   2.876  1.6598  1.6895  1.2200
  618MOL0     H83389   0.859   5.718   2.735 -0.8963 -1.9415  0.2644
  618MOL0     H83390   0.830   5.527   2.636  0.5033 -1.7711 -0.4423
  618MOL0     H83391   0.751   5.315   2.561 -0.6462  0.3042 -0.4097
  618MOL0     H83392   0.417   4.968   2.599 -2.5354  2.0222  1.0341
  618MOL0     H83393   0.388   4.772   2.464  1.6274  0.0884 -0.0179
  618MOL0     H83394   0.521   4.742   2.238 -0.5267  1.5770 -0.5437
  618MOL0     H83395   0.443   4.581   2.200 -0.8781 -0.6692  0.2270
  618MOL0     H83396   0.457   4.839   2.026 -0.6713  0.2801 -3.1619
  618MOL0     H83397   0.532   4.688   1.987 -0.7061 -0.2894 -1.3079
  618MOL0     H83398   0.258   4.639   2.030 -1.2227  2.3658  1.6087
  618MOL0     H83399   0.254   4.779   1.926  1.2212  0.2044 -3.1255
  618MOL0     H83400   0.395   4.527   1.883 -1.2942 -0.2419  0.0899
  618MOL0     H83401   0.413   4.654   1.761 -0.4075 -0.8281 -1.4290
  618MOL0     H83402   0.186   4.640   1.702  3.4722  0.7898  0.8428
  618MOL0     H83403   0.139   4.530   1.836  0.0290  0.7536  1.1552
  618MOL0     H83404   0.312   4.462   1.596  0.4821  0.4505  1.9847
  618MOL0     H83405   0.311   4.373   1.755  1.3579 -1.8172 -1.7598
  618MOL0     H83406   0.075   4.325   1.717 -4.1365  2.4139 -1.7455
  618MOL0     H83407   0.184   4.270   1.588  0.1785  1.1625 -1.2072
  618MOL0     H83408   0.036   4.518   1.550 -1.3388 -0.9016 -1.2042
  618MOL0     H83409   0.117   4.400   1.429  0.0889  0.3324 -0.5642
  618MOL0     H83410   0.238   4.989   2.141 -0.9404 -0.1439  0.4453
  618MOL0     H83411   0.257   5.190   2.270 -1.1779 -1.0834  0.0545
  618MOL0     H83412   0.344   5.454   2.565 -0.6072  5.0263  2.6630
  618MOL0     H83413   0.418   5.663   2.668 -1.8797 -1.2531  1.4192
  618MOL0     H83414   1.996   6.142   3.416 -0.0257  1.2004 -0.0017
  618MOL0     H83415   2.162   6.280   3.507 -3.3717  1.3145 -3.3152
  618MOL0     H83416   2.438   6.503   3.493 -0.0407 -1.8385 -0.7216
  618MOL0     H83417   2.597   6.686   3.543  1.1910  0.3044  1.0233
  618MOL0     H83418   2.879   6.644   3.892  0.7447  0.9705  0.5439
  618MOL0     H83419   2.744   6.721   3.959 -1.8437  0.3161 -0.8977
  618MOL0     H83420   2.943   6.868   3.980  2.7397  1.3904 -0.3654
  618MOL0     H83421   2.816   6.941   3.879  1.2438  0.5799 -1.0286
  618MOL0     H83422   3.004   7.007   3.771  1.5653 -1.0243 -1.5050
  618MOL0     H83423   2.951   6.872   3.688 -1.7387 -0.4017 -0.1953
  618MOL0     H83424   3.157   6.743   3.728  0.4679 -0.1311 -0.1514
  618MOL0     H83425   3.211   6.908   3.733  0.2809 -0.3977  0.6151
  618MOL0     H83426   3.315   6.867   4.105 -1.4099 -0.7981  0.3336
  618MOL0     H83427   2.711   6.505   3.906 -1.4866 -1.3887  1.2650
  618MOL0     H83428   2.618   6.180   3.824 -0.5111  0.8745 -2.3383
  618MOL0     H83429   2.653   6.271   3.960  2.2499 -2.1278 -0.6766
  618MOL0     H83430   2.479   6.262   3.918 -0.4022 -0.6495 -1.1871
  619MOL0     O83431   2.051   8.833   3.808 -0.4318 -0.2152 -0.1707
  619MOL0     C83432   2.071   8.871   3.924 -0.1609  1.7198  0.7683
  619MOL0     O83433   1.986   8.963   3.985 -0.2651 -0.1297  0.6386
  619MOL0     C83434   1.914   9.049   3.904 -0.5004 -0.7457  0.0299
  619MOL0     C83435   1.935   9.188   3.922 -0.6416  0.6767  0.2371
  619MOL0     C83436   1.871   9.280   3.840  0.1490  1.1161  0.7712
  619MOL0     C83437   1.778   9.236   3.746  0.0623 -0.2377 -1.4981
  619MOL0     O83438   1.719   9.328   3.660  0.3833  0.4622  0.5704
  619MOL0     C83439   1.748   9.307   3.518 -0.5719  0.0820  0.5148
  619MOL0     C83440   1.705   9.431   3.448  0.4963  0.3713  0.3645
  619MOL0     C83441   1.740   9.395   3.297 -0.2642  0.6230  0.1648
  619MOL0     C83442   1.729   9.527   3.220 -0.5422  0.3272  1.3856
  619MOL0     C83443   1.751   9.515   3.063 -0.1590 -0.1900  0.3278
  619MOL0     C83444   1.652   9.422   2.997  0.4022  0.3963  0.9853
  619MOL0     C83445   1.718   9.378   2.868 -0.1170 -0.6021 -1.0690
  619MOL0     C83446   1.634   9.279   2.793  0.7251  0.2246  0.2788
  619MOL0     N83447   1.715   9.237   2.680  0.6796  1.1866  1.1268
  619MOL0     C83448   1.839   9.187   2.690 -0.9722 -0.8921 -0.0985
  619MOL0     C83449   1.891   9.211   2.564 -1.2437  0.2216 -1.1049
  619MOL0     C83450   2.039   9.189   2.539 -0.7900 -0.4120  0.0286
  619MOL0     C83451   2.125   9.313   2.577  0.2314 -0.6811 -1.1559
  619MOL0     C83452   2.137   9.417   2.470 -1.0173  0.8717 -0.3674
  619MOL0     C83453   2.186   9.350   2.343 -0.3822  1.1149 -0.1408
  619MOL0     O83454   2.086   9.285   2.258  0.2053 -0.0228 -1.0314
  619MOL0     C83455   2.116   9.177   2.176  0.1377  0.1924 -0.2250
  619MOL0     C83456   2.012   9.121   2.109  0.5214 -0.3769 -0.0798
  619MOL0     C83457   2.027   9.013   2.021 -0.1193  0.4224 -1.2182
  619MOL0     C83458   2.160   8.958   2.003  1.4966 -1.2455  0.4795
  619MOL0     C83459   2.191   8.853   1.906  0.7377  0.6810 -0.2222
  619MOL0     O83460   2.087   8.778   1.863  0.7671 -0.1650 -0.8151
  619MOL0     C83461   2.096   8.656   1.796 -0.1138 -0.0898 -0.1182
  619MOL0     C83462   1.973   8.602   1.751 -0.5060 -0.3326 -0.5017
  619MOL0     C83463   1.971   8.479   1.680 -0.0955  0.3934  0.2975
  619MOL0     C83464   2.087   8.418   1.629 -0.3443  0.1024 -0.0535
  619MOL0     O83465   2.089   8.313   1.543  0.3254  1.0248  0.1658
  619MOL0     C83466   1.979   8.219   1.549 -1.0085  0.2723  0.8854
  619MOL0     C83467   2.006   8.109   1.448  0.1923 -0.0606 -0.1019
  619MOL0     C83468   1.890   8.008   1.445  0.2371  0.5712 -0.7671
  619MOL0     C83469   1.920   7.894   1.346  0.4911 -0.9777 -0.7227
  619MOL0     C83470   1.791   7.823   1.334 -0.2884  0.2958  0.9342
  619MOL0     C83471   1.805   7.718   1.222 -0.2022  0.4984  0.3597
  619MOL0     C83472   1.879   7.587   1.270  0.1396 -0.4273 -0.2915
  619MOL0     C83473   1.869   7.479   1.169  0.2893  1.1789  0.2160
  619MOL0    Cl83474   1.704   7.433   1.145  0.1565 -0.2005  0.0364
  619MOL0     C83475   2.204   8.476   1.669 -0.2932  0.5214 -0.3157
  619MOL0     C83476   2.209   8.587   1.754 -0.0596  0.2632  1.0042
  619MOL0     O83477   2.309   8.818   1.892 -0.3205  0.2822 -0.0326
  619MOL0     C83478   2.269   9.021   2.067  0.1448  0.1101 -0.1494
  619MOL0     C83479   2.243   9.125   2.157 -0.7166 -0.8096 -0.3579
  619MOL0     N83480   1.794   9.276   2.493  0.2222  0.0790  0.7998
  619MOL0     N83481   1.685   9.278   2.560 -0.8220  0.0119 -0.0927
  619MOL0     C83482   1.742   9.104   3.748 -0.5560 -0.4790 -0.1587
  619MOL0     C83483   1.813   9.005   3.818  0.0367 -0.3842 -0.0497
  619MOL0     C83484   2.183   8.810   4.002 -0.6974 -0.1778 -0.4689
  619MOL0     C83485   2.216   8.677   3.983 -1.1162  1.0004  0.0657
  619MOL0     C83486   2.340   8.629   4.008  0.5133  0.7164 -1.2356
  619MOL0     C83487   2.432   8.700   4.075  0.5192 -0.5126 -0.3271
  619MOL0     O83488   2.550   8.643   4.120  0.1248 -0.3080 -0.3273
  619MOL0     C83489   2.667   8.656   4.030  0.8519 -1.3691 -0.6865
  619MOL0     C83490   2.762   8.550   4.066  0.3576 -1.1127 -0.0072
  619MOL0     C83491   2.760   8.436   3.966 -0.6950  0.2264 -0.3089
  619MOL0     C83492   2.638   8.411   3.887  0.0846  0.3997 -0.1007
  619MOL0     C83493   2.654   8.281   3.822 -0.3205 -0.2200 -0.0078
  619MOL0     C83494   2.674   8.190   3.743 -0.1401 -1.3487  0.8592
  619MOL0     C83495   2.389   8.828   4.122  0.0089 -0.3385 -0.5808
  619MOL0     C83496   2.267   8.879   4.083 -0.1017 -0.4583  0.0173
  619MOL0     C83497   2.232   9.028   4.122  0.5710  0.1755  0.3760
  619MOL0     H83498   1.986   9.232   4.007 -1.0300  0.5939  0.5199
  619MOL0     H83499   1.883   9.386   3.859  3.1581  1.3869 -1.8241
  619MOL0     H83500   1.856   9.304   3.497 -0.2317  0.8907  1.9684
  619MOL0     H83501   1.703   9.215   3.481 -0.5920  1.1415 -2.3505
  619MOL0     H83502   1.756   9.525   3.471  0.7560  0.4844 -0.6280
  619MOL0     H83503   1.599   9.456   3.446  1.1781  3.7661  0.5166
  619MOL0     H83504   1.663   9.323   3.269 -1.6929 -0.4010  5.6395
  619MOL0     H83505   1.843   9.359   3.292  0.7834  2.5820  3.7268
  619MOL0     H83506   1.625   9.559   3.227  0.3511  3.1121  6.2296
  619MOL0     H83507   1.783   9.607   3.272 -1.4226  1.0683  1.1832
  619MOL0     H83508   1.730   9.614   3.023  3.0279  0.4588  0.0410
  619MOL0     H83509   1.853   9.480   3.046 -0.0882  1.2472 -2.7443
  619MOL0     H83510   1.633   9.333   3.057 -1.0610  0.9991  1.4665
  619MOL0     H83511   1.551   9.461   2.979  0.5229  1.2329  1.9969
  619MOL0     H83512   1.807   9.329   2.910  0.6671  2.1278  0.6922
  619MOL0     H83513   1.729   9.470   2.810 -1.8868  3.1197  3.7712
  619MOL0     H83514   1.602   9.191   2.849  0.9084  0.7911  1.3099
  619MOL0     H83515   1.538   9.321   2.760  1.2439  0.4784 -0.9744
  619MOL0     H83516   1.903   9.152   2.770  1.8801 -0.4868 -2.0697
  619MOL0     H83517   2.063   9.099   2.597 -2.5282 -1.6676 -1.0817
  619MOL0     H83518   2.064   9.151   2.439 -0.7853 -2.7176  0.8386
  619MOL0     H83519   2.092   9.358   2.671  1.1722 -4.2400  1.0620
  619MOL0     H83520   2.229   9.284   2.593  1.4147  0.9465 -4.7292
  619MOL0     H83521   2.219   9.485   2.497 -1.2331  0.5604  1.1604
  619MOL0     H83522   2.052   9.484   2.454 -0.9204  0.6804 -1.8329
  619MOL0     H83523   2.258   9.277   2.382 -1.1433  1.7391  2.6667
  619MOL0     H83524   2.233   9.427   2.282  0.2475  2.4384  1.8832
  619MOL0     H83525   1.911   9.143   2.144  1.3393  1.4837  1.2877
  619MOL0     H83526   1.939   8.972   1.973  0.1946 -1.0289 -0.5717
  619MOL0     H83527   1.876   8.650   1.761 -1.7595 -2.6779 -0.7188
  619MOL0     H83528   1.877   8.437   1.646 -0.2285  0.8174  0.1335
  619MOL0     H83529   1.974   8.177   1.650  4.1740 -0.9125  0.8968
  619MOL0     H83530   1.884   8.267   1.521 -0.2846  0.7514 -0.8678
  619MOL0     H83531   2.017   8.158   1.351 -0.5059 -0.0012 -0.1601
  619MOL0     H83532   2.098   8.055   1.472 -0.5216 -2.2472 -1.9038
  619MOL0     H83533   1.868   7.983   1.549 -0.5092 -1.8974 -1.4626
  619MOL0     H83534   1.796   8.050   1.408 -3.4926 -3.7748  2.7079
  619MOL0     H83535   1.996   7.830   1.392  2.2761  0.2730 -1.7937
  619MOL0     H83536   1.953   7.945   1.254  0.7386  3.9210  1.7515
  619MOL0     H83537   1.715   7.890   1.293  0.9775  1.1627 -0.0634
  619MOL0     H83538   1.766   7.779   1.431 -1.0018 -0.1962  0.5336
  619MOL0     H83539   1.703   7.683   1.207 -0.2215  1.2980 -1.7076
  619MOL0     H83540   1.848   7.742   1.124 -0.8929 -1.2773 -0.4297
  619MOL0     H83541   1.846   7.558   1.371 -0.2434  2.4229  0.5039
  619MOL0     H83542   1.982   7.624   1.275 -0.9553  3.3796 -1.9821
  619MOL0     H83543   1.917   7.495   1.072 -0.0619 -2.3813 -0.7032
  619MOL0     H83544   1.914   7.386   1.204  1.4896  1.2225 -1.1124
  619MOL0     H83545   2.296   8.430   1.634 -1.7728 -1.0365 -2.4324
  619MOL0     H83546   2.313   8.617   1.768  1.2575 -1.7772 -2.7703
  619MOL0     H83547   2.372   8.993   2.047 -0.1975 -0.4145 -1.2484
  619MOL0     H83548   2.329   9.171   2.205  0.8571 -3.1724 -0.7139
  619MOL0     H83549   1.665   9.082   3.676 -0.0735  0.0187 -0.8364
  619MOL0     H83550   1.791   8.900   3.804  0.2880 -0.4344 -0.0634
  619MOL0     H83551   2.159   8.608   3.923  0.9413 -0.4404 -0.3493
  619MOL0     H83552   2.355   8.524   3.985  0.6097  0.0031  1.6836
  619MOL0     H83553   2.709   8.756   4.049 -1.6781 -0.3619  0.0708
  619MOL0     H83554   2.619   8.661   3.931 -2.7082  3.7561  0.8553
  619MOL0     H83555   2.752   8.510   4.167  0.1084  1.9730  1.2844
  619MOL0     H83556   2.852   8.610   4.052 -1.9537  3.8062  3.2485
  619MOL0     H83557   2.782   8.350   4.031 -0.8447  0.8370  0.5599
  619MOL0     H83558   2.844   8.426   3.897 -0.4648 -2.8137  0.2463
  619MOL0     H83559   2.540   8.410   3.936  0.4217 -0.9159  0.5857
  619MOL0     H83560   2.628   8.478   3.801  0.7797 -0.7127 -1.0648
  619MOL0     H83561   2.691   8.123   3.661 -0.2677 -3.6338  2.6176
  619MOL0     H83562   2.460   8.872   4.191 -0.9503 -1.6877  1.3708
  619MOL0     H83563   2.317   9.072   4.174  0.8828  1.9484 -1.5261
  619MOL0     H83564   2.213   9.089   4.033  1.5867  0.5519  0.4096
  619MOL0     H83565   2.132   9.018   4.166  0.2057 -0.5978 -0.5837
  620MOL0     O83566   5.091   8.749   7.634  0.8244  0.0639 -0.7810
  620MOL0     C83567   5.128   8.796   7.743  0.4437 -0.2656 -0.0366
  620MOL0     O83568   5.230   8.886   7.756 -0.2545  1.4265 -0.0555
  620MOL0     C83569   5.315   8.929   7.653 -0.0577  0.4981  0.9196
  620MOL0     C83570   5.318   8.889   7.518  0.2972  0.0481  0.2942
  620MOL0     C83571   5.422   8.928   7.436 -1.2095  0.2440 -0.4764
  620MOL0     C83572   5.520   9.025   7.483 -0.9666  0.1363 -0.3458
  620MOL0     O83573   5.607   9.063   7.387 -0.5712  0.2591 -0.3322
  620MOL0     C83574   5.614   9.198   7.346 -0.3878  0.8477 -0.5741
  620MOL0     C83575   5.752   9.247   7.364  0.9046 -0.6890 -0.3645
  620MOL0     C83576   5.874   9.167   7.316  0.5360  1.3030 -0.7200
  620MOL0     C83577   6.004   9.248   7.315  0.3542  0.1808 -0.4380
  620MOL0     C83578   6.076   9.284   7.445 -0.0460 -0.6737  0.6499
  620MOL0     C83579   6.157   9.402   7.432  0.0972  0.0151  0.0968
  620MOL0     C83580   6.276   9.392   7.335  0.0450 -0.7444  0.5071
  620MOL0     C83581   6.346   9.521   7.333 -0.3001  0.3138 -0.3208
  620MOL0     N83582   6.462   9.515   7.249  0.2405 -0.4915  0.3768
  620MOL0     C83583   6.589   9.472   7.297 -1.0557  0.6865  0.8137
  620MOL0     C83584   6.664   9.445   7.182 -0.3256  0.1613 -0.0597
  620MOL0     C83585   6.808   9.376   7.179  0.4230 -0.8853 -0.0007
  620MOL0     C83586   6.834   9.265   7.072  0.0531 -0.3346  0.0748
  620MOL0     C83587   6.741   9.147   7.078  1.4805 -0.4459  0.3850
  620MOL0     C83588   6.715   9.088   7.219 -0.2825  0.2817 -1.1633
  620MOL0     O83589   6.837   9.019   7.260 -1.0340  0.3122 -0.2108
  620MOL0     C83590   6.842   8.981   7.390  0.5507 -0.6436  0.9448
  620MOL0     C83591   6.963   8.969   7.453  0.1967  0.7683 -0.1047
  620MOL0     C83592   6.971   8.927   7.591  0.9933 -0.2287  0.1633
  620MOL0     C83593   6.850   8.881   7.653 -0.1668  0.6219  0.1060
  620MOL0     C83594   6.833   8.851   7.793 -0.7274 -0.9335  0.3934
  620MOL0     O83595   6.719   8.777   7.838 -0.2973 -0.7050 -0.3891
  620MOL0     C83596   6.682   8.773   7.970 -0.1781 -1.2358  0.5071
  620MOL0     C83597   6.705   8.860   8.074 -0.3893  0.6836  1.0421
  620MOL0     C83598   6.646   8.845   8.199  0.8192  0.9323 -0.8836
  620MOL0     C83599   6.552   8.751   8.213  0.6872  0.1125 -0.4045
  620MOL0     O83600   6.481   8.748   8.334  0.0705  0.8453  0.5177
  620MOL0     C83601   6.410   8.856   8.383  0.1948 -0.1135 -0.0581
  620MOL0     C83602   6.319   8.804   8.486  0.3168 -0.6377 -0.4010
  620MOL0     C83603   6.210   8.710   8.427  0.6193 -0.1693  0.7259
  620MOL0     C83604   6.072   8.779   8.438 -0.5068  0.6765 -1.2487
  620MOL0     C83605   5.962   8.695   8.376  0.9509  0.1786  0.0449
  620MOL0     C83606   5.946   8.557   8.433 -0.0375  0.0970 -1.1495
  620MOL0     C83607   5.878   8.559   8.565  0.0103  0.1916  0.1048
  620MOL0     C83608   5.844   8.425   8.637  0.3820  0.5662 -1.0829
  620MOL0    Cl83609   5.981   8.309   8.629  0.2014  0.2348  0.2838
  620MOL0     C83610   6.516   8.663   8.109 -0.4409 -0.3065  0.2839
  620MOL0     C83611   6.579   8.678   7.984 -0.7495 -0.3753  0.0625
  620MOL0     O83612   6.917   8.900   7.870 -0.3057 -0.5397  0.2450
  620MOL0     C83613   6.728   8.883   7.580 -0.3203 -0.2199  0.3910
  620MOL0     C83614   6.730   8.922   7.445  0.0656 -1.3941  0.8614
  620MOL0     N83615   6.590   9.490   7.072  0.3644  0.0883  0.0658
  620MOL0     N83616   6.467   9.517   7.118 -0.0160 -0.1367  0.4613
  620MOL0     C83617   5.521   9.060   7.624 -0.2493 -0.0483 -0.0037
  620MOL0     C83618   5.421   9.002   7.709 -0.1615  0.2878 -0.0740
  620MOL0     C83619   5.051   8.753   7.872  0.0473 -0.0715 -0.4700
  620MOL0     C83620   5.078   8.836   7.982  0.6855  0.0268 -0.1568
  620MOL0     C83621   5.016   8.816   8.101  0.1849  0.5498 -0.4326
  620MOL0     C83622   4.925   8.711   8.125 -0.3016 -0.6208 -0.1690
  620MOL0     O83623   4.879   8.713   8.254  0.5576 -0.8374  0.0966
  620MOL0     C83624   4.783   8.615   8.289 -0.3665 -0.9390  0.0424
  620MOL0     C83625   4.753   8.623   8.439 -0.5107 -0.1641 -0.2842
  620MOL0     C83626   4.624   8.561   8.460  0.6435 -0.4475  0.1940
  620MOL0     C83627   4.562   8.590   8.596 -0.6475  0.5347  0.0245
  620MOL0     C83628   4.564   8.730   8.643  0.6577 -0.1746 -0.2095
  620MOL0     C83629   4.547   8.850   8.677 -0.4322 -0.7199  0.1246
  620MOL0     C83630   4.889   8.625   8.018 -0.2609 -0.0597 -0.2739
  620MOL0     C83631   4.943   8.659   7.887 -0.4611  1.1649 -0.8619
  620MOL0     C83632   4.893   8.579   7.772 -0.1214  0.0389  0.2069
  620MOL0     H83633   5.234   8.834   7.477  1.4096 -1.5826  0.1221
  620MOL0     H83634   5.448   8.894   7.336 -1.6010 -2.8055  0.3840
  620MOL0     H83635   5.583   9.206   7.242 -2.9210 -1.8044 -0.1601
  620MOL0     H83636   5.553   9.254   7.418  1.4594 -0.1913  1.9311
  620MOL0     H83637   5.767   9.260   7.471 -1.0344 -0.5408 -0.0851
  620MOL0     H83638   5.756   9.352   7.333 -0.0321 -0.4760  0.2180
  620MOL0     H83639   5.851   9.132   7.215 -1.6430 -0.4719  0.2993
  620MOL0     H83640   5.893   9.095   7.396 -3.5942  1.6679  0.8019
  620MOL0     H83641   6.074   9.198   7.247  0.6172 -0.7772  0.5096
  620MOL0     H83642   5.985   9.341   7.260  1.1925 -0.2217 -1.4566
  620MOL0     H83643   6.007   9.290   7.530 -0.2557 -2.4007  0.6379
  620MOL0     H83644   6.147   9.205   7.473  2.4006  2.2456  3.4342
  620MOL0     H83645   6.085   9.476   7.395  2.7395  1.8657 -1.6133
  620MOL0     H83646   6.202   9.435   7.526  2.5255 -1.0438 -0.6427
  620MOL0     H83647   6.245   9.364   7.233 -1.0901 -1.0301  0.9132
  620MOL0     H83648   6.339   9.307   7.362 -1.1559 -2.7313 -2.3820
  620MOL0     H83649   6.273   9.590   7.291 -1.6950 -0.8826  0.0738
  620MOL0     H83650   6.371   9.556   7.433  2.0606 -1.3577 -0.2286
  620MOL0     H83651   6.623   9.456   7.399  2.1845  1.5531 -0.0403
  620MOL0     H83652   6.872   9.459   7.147 -2.5089  1.2907 -0.7302
  620MOL0     H83653   6.831   9.337   7.279 -1.5372 -3.0333 -0.3090
  620MOL0     H83654   6.833   9.305   6.971 -0.5935  2.6578  1.1541
  620MOL0     H83655   6.930   9.224   7.105  0.2076  1.0026  1.3830
  620MOL0     H83656   6.769   9.066   7.010  1.2653 -1.8757  1.9332
  620MOL0     H83657   6.645   9.175   7.035  1.0649 -0.5767  1.2098
  620MOL0     H83658   6.622   9.030   7.216 -0.2041 -0.0713  1.3531
  620MOL0     H83659   6.700   9.169   7.290  0.3930 -1.2274  0.7825
  620MOL0     H83660   7.055   8.998   7.405 -0.7171  0.1796 -2.3355
  620MOL0     H83661   7.056   8.927   7.658  1.8002 -1.7551 -0.7671
  620MOL0     H83662   6.778   8.939   8.060  0.7731 -0.7920 -2.0051
  620MOL0     H83663   6.669   8.921   8.273  1.3156  1.4207 -1.5320
  620MOL0     H83664   6.482   8.924   8.430 -0.9122  0.3587  1.0186
  620MOL0     H83665   6.351   8.897   8.301  1.8859  1.8003 -0.4076
  620MOL0     H83666   6.377   8.740   8.553 -0.6848 -1.2246 -0.0631
  620MOL0     H83667   6.275   8.891   8.535 -0.9763  0.9693 -4.0705
  620MOL0     H83668   6.237   8.689   8.323 -1.5328  0.2812  0.0303
  620MOL0     H83669   6.213   8.614   8.480 -2.4882 -0.4766  0.5303
  620MOL0     H83670   6.076   8.877   8.389 -0.6258  0.0227 -2.6018
  620MOL0     H83671   6.051   8.799   8.544  1.2113 -1.7402 -0.3698
  620MOL0     H83672   5.986   8.678   8.270  2.4504  1.2043  0.1833
  620MOL0     H83673   5.865   8.743   8.387  0.8535 -0.0415  0.1487
  620MOL0     H83674   5.892   8.512   8.349 -2.2078  1.9842 -0.8712
  620MOL0     H83675   6.045   8.511   8.445  0.2337  1.3031  2.1298
  620MOL0     H83676   5.778   8.602   8.553  0.8728  2.0929 -0.7596
  620MOL0     H83677   5.924   8.623   8.641  0.0849 -1.5664  1.6009
  620MOL0     H83678   5.819   8.455   8.740 -3.6880 -0.9547 -1.4618
  620MOL0     H83679   5.762   8.367   8.595  1.2669 -3.1041  1.6867
  620MOL0     H83680   6.438   8.587   8.110  0.0771 -1.0363 -3.0401
  620MOL0     H83681   6.554   8.606   7.907 -1.7017 -2.7751  2.4455
  620MOL0     H83682   6.632   8.845   7.613 -0.6025 -0.1497 -0.3201
  620MOL0     H83683   6.635   8.908   7.394  0.2967  1.6915 -0.6475
  620MOL0     H83684   5.603   9.118   7.665  0.3775  0.1103 -1.4295
  620MOL0     H83685   5.429   9.025   7.815  2.1420  0.9661 -0.3387
  620MOL0     H83686   5.147   8.917   7.961  0.7867 -0.0144  0.0149
  620MOL0     H83687   5.042   8.883   8.183  0.6600 -1.1790  0.8910
  620MOL0     H83688   4.818   8.514   8.267 -2.4041 -1.9930  1.3168
  620MOL0     H83689   4.696   8.630   8.225  1.3675 -1.8103 -2.6555
  620MOL0     H83690   4.743   8.730   8.454  0.0256  0.3017 -2.8848
  620MOL0     H83691   4.825   8.592   8.516  0.1319  1.6704 -0.1008
  620MOL0     H83692   4.645   8.456   8.437  1.5310 -0.7558  2.2742
  620MOL0     H83693   4.544   8.571   8.386 -0.1080 -1.8835  0.7603
  620MOL0     H83694   4.466   8.538   8.588  0.9548 -2.8779  0.9191
  620MOL0     H83695   4.622   8.535   8.669 -1.7959 -3.7689 -1.9434
  620MOL0     H83696   4.524   8.947   8.716 -0.0438 -0.9948  1.0600
  620MOL0     H83697   4.827   8.537   8.028  1.2850 -1.3688 -1.5953
  620MOL0     H83698   4.862   8.652   7.697  3.9587  1.5995 -0.2315
  620MOL0     H83699   4.979   8.525   7.730 -1.3626  0.8373 -3.6765
  620MOL0     H83700   4.812   8.508   7.790 -0.9673  0.8342 -0.4195
  621MOL0     O83701   3.212   1.278  11.382  0.0383  0.4311  0.3608
  621MOL0     C83702   3.285   1.213  11.458 -0.1903 -0.0691  0.1896
  621MOL0     O83703   3.412   1.254  11.481  0.2923  0.1450 -0.4459
  621MOL0     C83704   3.453   1.364  11.419  0.0780 -0.1786  0.0690
  621MOL0     C83705   3.510   1.467  11.497  0.5367  0.2887 -0.4774
  621MOL0     C83706   3.583   1.580  11.438 -0.4438 -0.1855  0.1231
  621MOL0     C83707   3.581   1.587  11.302  0.2195 -0.0612 -0.0195
  621MOL0     O83708   3.654   1.681  11.240 -0.4225  0.1140 -0.5789
  621MOL0     C83709   3.612   1.824  11.246 -0.1362  0.3281 -0.4364
  621MOL0     C83710   3.469   1.842  11.203  0.4620 -0.4554  0.2641
  621MOL0     C83711   3.451   1.997  11.193 -0.6626  0.3376 -0.2638
  621MOL0     C83712   3.309   2.036  11.154 -0.6412  0.0299 -0.4646
  621MOL0     C83713   3.297   2.105  11.023 -0.1669 -0.2946  0.0468
  621MOL0     C83714   3.302   2.266  11.032 -0.1124 -0.0897  0.1313
  621MOL0     C83715   3.205   2.332  10.932  0.1519  0.1761 -1.1093
  621MOL0     C83716   3.259   2.466  10.892 -0.5547  0.7851 -0.3406
  621MOL0     N83717   3.153   2.561  10.855 -0.9247 -0.9067  0.2046
  621MOL0     C83718   3.065   2.623  10.945  0.1550  0.6463 -0.0057
  621MOL0     C83719   2.974   2.676  10.861  0.5731 -0.2162  0.5603
  621MOL0     C83720   2.844   2.736  10.930 -0.3989  0.7751  0.9174
  621MOL0     C83721   2.732   2.737  10.823 -0.5517 -0.3365 -1.0103
  621MOL0     C83722   2.605   2.784  10.887 -0.1813 -0.6598  0.2056
  621MOL0     C83723   2.483   2.791  10.789 -1.1340  0.7793  0.4539
  621MOL0     O83724   2.356   2.807  10.846 -0.6204 -0.3227  0.4944
  621MOL0     C83725   2.263   2.892  10.770 -0.9351  0.6378  0.3024
  621MOL0     C83726   2.162   2.823  10.714  0.2289  0.6138  0.3407
  621MOL0     C83727   2.075   2.875  10.624  0.2151 -0.5655  0.2181
  621MOL0     C83728   2.077   3.012  10.603 -0.4119  0.3679  0.4536
  621MOL0     C83729   1.974   3.075  10.507 -0.2219 -0.3210 -0.0521
  621MOL0     O83730   2.017   3.185  10.437 -0.4858  0.0375  0.1089
  621MOL0     C83731   1.936   3.228  10.332 -0.1366 -0.2746 -0.7943
  621MOL0     C83732   1.810   3.294  10.344  0.1473 -0.6379  0.0194
  621MOL0     C83733   1.730   3.317  10.228  0.3424 -0.2630  0.2377
  621MOL0     C83734   1.769   3.254  10.114 -0.3916  0.0550  0.9131
  621MOL0     O83735   1.699   3.247   9.997  0.8189 -1.2092  0.6844
  621MOL0     C83736   1.579   3.333   9.974 -0.2905  0.4783  0.5784
  621MOL0     C83737   1.536   3.297   9.834  0.0744 -0.6438 -0.7564
  621MOL0     C83738   1.498   3.150   9.789 -0.0436  1.0114 -0.5693
  621MOL0     C83739   1.412   3.070   9.883 -0.7206  0.7536  0.5181
  621MOL0     C83740   1.384   2.922   9.838  0.0196 -0.4316  0.6615
  621MOL0     C83741   1.264   2.864   9.912  0.2261  0.6068  0.1083
  621MOL0     C83742   1.252   2.715   9.891  0.6783 -0.0514  0.3496
  621MOL0     C83743   1.127   2.665   9.949  0.6559  0.4380  1.0140
  621MOL0    Cl83744   0.975   2.741   9.904  0.3141 -0.3659 -0.5658
  621MOL0     C83745   1.894   3.200  10.095  0.0296  0.3972 -0.1496
  621MOL0     C83746   1.976   3.185  10.209  0.3919 -0.4206  0.2875
  621MOL0     O83747   1.870   3.030  10.502  0.3286  0.9968  0.5892
  621MOL0     C83748   2.181   3.087  10.669  0.8612  0.2349  0.5997
  621MOL0     C83749   2.277   3.024  10.748  0.0286  0.5515  0.7382
  621MOL0     N83750   3.005   2.657  10.727  0.5466 -0.3155 -0.5942
  621MOL0     N83751   3.118   2.591  10.723 -0.7995  0.6558 -0.6205
  621MOL0     C83752   3.530   1.481  11.219 -1.0277  0.0896 -0.6923
  621MOL0     C83753   3.466   1.372  11.285  0.3960  0.3300 -0.0131
  621MOL0     C83754   3.228   1.087  11.522 -0.1369  0.2448  0.6126
  621MOL0     C83755   3.278   1.064  11.647  0.5890 -0.0142  0.0069
  621MOL0     C83756   3.214   0.978  11.730  0.1863 -0.2607  0.1956
  621MOL0     C83757   3.111   0.892  11.689 -0.2568 -0.1372 -0.8997
  621MOL0     O83758   3.086   0.789  11.774  0.2958 -0.1239 -0.5388
  621MOL0     C83759   2.955   0.738  11.768  0.4727 -0.1712 -1.0709
  621MOL0     C83760   2.929   0.598  11.706  0.0661 -0.8038 -0.0215
  621MOL0     C83761   3.034   0.482  11.742  0.4912  0.3882  0.4458
  621MOL0     C83762   2.980   0.357  11.666 -0.2792  0.2449  0.0860
  621MOL0     C83763   3.038   0.226  11.715  0.3117 -0.0230 -0.7686
  621MOL0     C83764   3.103   0.130  11.753  0.5876 -0.0214  1.1405
  621MOL0     C83765   3.060   0.910  11.565  0.6446 -0.0223 -0.4215
  621MOL0     C83766   3.110   1.013  11.484 -1.0029  0.9989  0.2902
  621MOL0     C83767   3.036   1.049  11.366  0.6602  0.2234 -0.7397
  621MOL0     H83768   3.487   1.465  11.603  1.6934 -0.8748 -0.2183
  621MOL0     H83769   3.642   1.661  11.480 -0.0767 -0.0139 -0.7068
  621MOL0     H83770   3.640   1.861  11.345 -0.4529 -0.8601  0.1210
  621MOL0     H83771   3.681   1.882  11.184 -1.6550  3.5307  0.6531
  621MOL0     H83772   3.392   1.799  11.266  0.4316 -0.8519 -0.0382
  621MOL0     H83773   3.451   1.797  11.104 -0.5898  2.6636 -1.0912
  621MOL0     H83774   3.510   2.044  11.114 -1.5095 -2.3225 -2.6300
  621MOL0     H83775   3.461   2.047  11.290 -1.3236  0.3181 -0.1826
  621MOL0     H83776   3.260   1.939  11.149 -4.0062  1.6071 -0.4602
  621MOL0     H83777   3.260   2.089  11.237 -2.0367  1.3581 -2.0833
  621MOL0     H83778   3.371   2.066  10.952 -0.8941  0.9222 -1.4578
  621MOL0     H83779   3.198   2.069  10.992  0.6189 -1.4938 -1.1726
  621MOL0     H83780   3.276   2.302  11.132  0.9084 -1.3483  0.8857
  621MOL0     H83781   3.408   2.290  11.014  0.4107 -0.5256  2.3694
  621MOL0     H83782   3.104   2.338  10.974  0.2853  1.4643 -0.9516
  621MOL0     H83783   3.198   2.262  10.848  0.8937 -2.2754  0.7371
  621MOL0     H83784   3.319   2.516  10.968 -2.2809  3.0302 -0.3437
  621MOL0     H83785   3.331   2.450  10.811  2.1550  3.2690  1.4242
  621MOL0     H83786   3.039   2.611  11.050  0.1897 -0.9645 -0.1435
  621MOL0     H83787   2.805   2.665  11.002  2.9439  0.2674  2.3860
  621MOL0     H83788   2.864   2.836  10.970  1.3995  2.5868 -3.7476
  621MOL0     H83789   2.761   2.822  10.761 -0.5120  2.4265  2.4942
  621MOL0     H83790   2.730   2.644  10.765 -3.4604 -1.9655  1.3850
  621MOL0     H83791   2.643   2.873  10.937  2.0042 -1.3528 -0.1011
  621MOL0     H83792   2.588   2.712  10.967 -2.2751 -0.4197  0.0200
  621MOL0     H83793   2.474   2.693  10.740 -0.7558  0.9118  0.1128
  621MOL0     H83794   2.508   2.868  10.716 -0.6068  0.5597  0.3975
  621MOL0     H83795   2.159   2.715  10.725 -1.6652  0.8435  3.1684
  621MOL0     H83796   2.009   2.806  10.572 -3.0093  2.4744 -0.1513
  621MOL0     H83797   1.774   3.318  10.444  1.9094 -2.5265  1.1789
  621MOL0     H83798   1.626   3.348  10.226  0.6351  0.7346 -0.1649
  621MOL0     H83799   1.501   3.315  10.048  1.5400 -1.1076  2.2252
  621MOL0     H83800   1.616   3.436   9.977  0.3507  0.2501  0.6401
  621MOL0     H83801   1.444   3.355   9.824  2.1479  3.1484  0.1209
  621MOL0     H83802   1.610   3.330   9.761 -0.5291 -1.8357 -1.9462
  621MOL0     H83803   1.458   3.150   9.688 -0.9361  1.2366 -0.2223
  621MOL0     H83804   1.586   3.085   9.785 -1.5401 -1.2571  0.9661
  621MOL0     H83805   1.312   3.116   9.892 -1.3210 -0.2597 -0.7171
  621MOL0     H83806   1.460   3.066   9.982 -0.4470  2.1427  0.4589
  621MOL0     H83807   1.477   2.866   9.849 -1.2609 -2.3444  2.6723
  621MOL0     H83808   1.368   2.924   9.730  0.2569  0.5599  0.6302
  621MOL0     H83809   1.266   2.890  10.018  2.6344 -0.4922  0.4018
  621MOL0     H83810   1.178   2.906   9.858  0.1198 -0.4083 -0.5309
  621MOL0     H83811   1.337   2.673   9.945  0.7977 -0.8967 -0.4576
  621MOL0     H83812   1.252   2.690   9.784 -2.1301 -0.5641  0.3736
  621MOL0     H83813   1.129   2.557   9.933  1.1610  0.5587  0.1304
  621MOL0     H83814   1.133   2.677  10.057 -0.2181 -0.3536  1.1620
  621MOL0     H83815   1.926   3.166   9.996 -0.0972 -1.7604  0.4894
  621MOL0     H83816   2.078   3.148  10.205  0.4112 -0.3041 -0.5631
  621MOL0     H83817   2.201   3.190  10.640 -0.7256  0.5823  0.6860
  621MOL0     H83818   2.372   3.072  10.772 -0.1269  1.2668 -0.0557
  621MOL0     H83819   3.544   1.488  11.112 -0.0785 -0.2463 -0.5964
  621MOL0     H83820   3.437   1.296  11.213 -2.1229  1.4277 -0.2757
  621MOL0     H83821   3.353   1.131  11.688  3.4755 -0.6501 -3.6855
  621MOL0     H83822   3.264   0.964  11.826  1.5938 -2.1126 -0.7473
  621MOL0     H83823   2.889   0.810  11.718 -0.0094 -0.0784 -0.3214
  621MOL0     H83824   2.921   0.734  11.872  4.2319 -0.2012  0.2955
  621MOL0     H83825   2.927   0.609  11.597 -0.6487 -0.2209  0.0468
  621MOL0     H83826   2.835   0.557  11.745  1.1594 -1.9988  1.4758
  621MOL0     H83827   3.032   0.471  11.851 -0.4660  0.7496  0.4783
  621MOL0     H83828   3.135   0.501  11.706 -0.0466  0.6586 -0.9570
  621MOL0     H83829   2.871   0.356  11.670 -0.3599 -0.2944 -1.7050
  621MOL0     H83830   3.015   0.383  11.566  0.9626 -1.1268  0.1340
  621MOL0     H83831   3.152   0.039  11.779 -1.2204 -0.8627  1.7998
  621MOL0     H83832   2.977   0.856  11.519 -1.1627  1.8080  0.5273
  621MOL0     H83833   2.979   0.960  11.338 -0.4221  0.7484 -0.2448
  621MOL0     H83834   2.970   1.131  11.394 -0.3088 -0.8753  0.3281
  621MOL0     H83835   3.099   1.079  11.281 -1.3584  0.8904 -2.0749
  622MOL0     O83836   0.845   0.690   0.244  0.1544  0.8422  0.5755
  622MOL0     C83837   0.821   0.633   0.349  0.7722 -1.0198 -0.4260
  622MOL0     O83838   0.865   0.514   0.386 -1.2738 -0.2454  0.8076
  622MOL0     C83839   0.973   0.468   0.311 -0.2994 -0.5147  0.6845
  622MOL0     C83840   1.101   0.529   0.321  0.3887  0.1962 -0.6768
  622MOL0     C83841   1.211   0.468   0.251 -0.3287 -1.0653  1.1214
  622MOL0     C83842   1.187   0.346   0.174 -0.4925  1.0347 -0.3026
  622MOL0     O83843   1.285   0.289   0.098 -1.0565  0.3439 -0.5080
  622MOL0     C83844   1.410   0.356   0.082  0.0214 -0.0269 -0.6549
  622MOL0     C83845   1.482   0.265  -0.013 -0.7458  0.2304  0.4062
  622MOL0     C83846   1.426   0.280  -0.153  0.6114  0.3237  0.5395
  622MOL0     C83847   1.475   0.166  -0.236 -0.2094  0.6774  0.6641
  622MOL0     C83848   1.433   0.167  -0.394 -0.2390  1.0797 -0.0652
  622MOL0     C83849   1.429   0.031  -0.450 -0.8551  0.0239 -0.0776
  622MOL0     C83850   1.555  -0.053  -0.430 -0.2334 -0.1850  1.1079
  622MOL0     C83851   1.559  -0.177  -0.523  0.3897 -1.1006 -0.4061
  622MOL0     N83852   1.593  -0.130  -0.656  0.5065 -0.3870 -0.6606
  622MOL0     C83853   1.705  -0.177  -0.725 -0.3895 -0.5346 -0.1158
  622MOL0     C83854   1.705  -0.126  -0.846 -0.8142  0.1757  0.0525
  622MOL0     C83855   1.799  -0.173  -0.953 -1.2877  0.5772  0.2116
  622MOL0     C83856   1.730  -0.176  -1.085 -0.2389 -0.6433 -0.1615
  622MOL0     C83857   1.830  -0.221  -1.195  0.5110  0.2186 -0.0237
  622MOL0     C83858   1.730  -0.299  -1.281 -0.1636  0.0041  0.4279
  622MOL0     O83859   1.793  -0.308  -1.413 -0.1645  0.0913  0.2682
  622MOL0     C83860   1.730  -0.393  -1.500 -0.8863  0.7753 -0.3035
  622MOL0     C83861   1.611  -0.470  -1.479 -0.0049 -1.6152  0.1293
  622MOL0     C83862   1.558  -0.553  -1.572  0.5168 -0.0867 -0.2669
  622MOL0     C83863   1.620  -0.577  -1.696 -0.3949 -0.5689  0.4243
  622MOL0     C83864   1.546  -0.655  -1.801  1.0641 -0.2574 -0.2876
  622MOL0     O83865   1.587  -0.638  -1.922 -0.0835 -0.2842  0.8562
  622MOL0     C83866   1.561  -0.735  -2.019 -0.1987 -0.6914 -0.1830
  622MOL0     C83867   1.471  -0.701  -2.124 -1.2834 -0.0110  0.7276
  622MOL0     C83868   1.452  -0.792  -2.233 -0.0993 -0.2490  0.2278
  622MOL0     C83869   1.529  -0.911  -2.238 -0.1304  0.7890 -0.4185
  622MOL0     O83870   1.517  -1.015  -2.320 -0.4630 -0.0697 -1.2924
  622MOL0     C83871   1.416  -0.997  -2.428 -0.7381  0.3745 -0.2909
  622MOL0     C83872   1.389  -1.123  -2.508  0.1172  0.3835 -0.1554
  622MOL0     C83873   1.302  -1.218  -2.431 -0.9976  0.7423  0.8896
  622MOL0     C83874   1.264  -1.330  -2.522  0.2057 -0.6650 -0.4283
  622MOL0     C83875   1.175  -1.422  -2.446 -0.3271  0.5576  0.4279
  622MOL0     C83876   1.154  -1.559  -2.529 -0.0134 -0.6583  0.7866
  622MOL0     C83877   0.999  -1.597  -2.534  0.2491  1.0649 -1.0804
  622MOL0     C83878   0.901  -1.492  -2.597  0.0380  0.9475 -0.7598
  622MOL0    Cl83879   0.975  -1.448  -2.757 -0.4093  0.2005  0.0324
  622MOL0     C83880   1.615  -0.932  -2.136  0.0181 -0.2274  0.6437
  622MOL0     C83881   1.631  -0.853  -2.024 -0.4738 -0.4569  0.3685
  622MOL0     O83882   1.455  -0.732  -1.764 -1.3796 -0.8815 -0.1619
  622MOL0     C83883   1.736  -0.506  -1.723 -0.7598  0.2590 -0.1395
  622MOL0     C83884   1.796  -0.421  -1.626 -0.3300  0.4218  0.1782
  622MOL0     N83885   1.591  -0.040  -0.848  0.8995 -0.5651 -0.8471
  622MOL0     N83886   1.519  -0.050  -0.734  0.2040  0.4101 -0.0579
  622MOL0     C83887   1.055   0.289   0.180 -0.4882  0.6584  0.8336
  622MOL0     C83888   0.952   0.350   0.240 -0.3871  0.1952 -1.5605
  622MOL0     C83889   0.723   0.702   0.427  0.4737  0.1323 -0.1448
  622MOL0     C83890   0.674   0.645   0.546 -0.1144  0.9352 -0.4398
  622MOL0     C83891   0.579   0.696   0.624 -0.3848  0.4026 -0.3007
  622MOL0     C83892   0.516   0.816   0.589  0.6851  0.7734 -0.2271
  622MOL0     O83893   0.417   0.870   0.663  0.3374 -0.2695 -0.8566
  622MOL0     C83894   0.289   0.801   0.630  0.5508 -0.0064  0.6409
  622MOL0     C83895   0.250   0.773   0.492 -0.5791  0.5279 -0.4781
  622MOL0     C83896   0.124   0.679   0.472  0.3275  0.6021 -0.7994
  622MOL0     C83897   0.008   0.721   0.572 -0.2534  0.1209 -0.2608
  622MOL0     C83898  -0.048   0.855   0.548 -0.1438  0.0642 -0.0410
  622MOL0     C83899  -0.108   0.957   0.523  0.8679 -0.1882 -0.2622
  622MOL0     C83900   0.548   0.876   0.472 -0.3914  0.4700  0.6452
  622MOL0     C83901   0.648   0.813   0.379 -0.1334 -0.8241 -0.7183
  622MOL0     C83902   0.683   0.907   0.260  0.5359  0.6812  0.1380
  622MOL0     H83903   1.110   0.626   0.368 -0.8739 -1.0555  2.4674
  622MOL0     H83904   1.314   0.501   0.244 -0.1151 -1.3277  2.6648
  622MOL0     H83905   1.398   0.453   0.034 -0.2470  0.9990  1.3572
  622MOL0     H83906   1.474   0.363   0.171 -3.3015  2.1108  1.8554
  622MOL0     H83907   1.486   0.165   0.030 -2.3052 -1.0785 -2.2359
  622MOL0     H83908   1.582   0.309  -0.009 -1.1203  1.1865 -0.2298
  622MOL0     H83909   1.456   0.371  -0.205  0.2293  1.7217  2.6655
  622MOL0     H83910   1.317   0.277  -0.147  0.6870  0.0698  2.1965
  622MOL0     H83911   1.584   0.161  -0.232 -0.1502  1.8898  1.0860
  622MOL0     H83912   1.426   0.080  -0.189 -2.2393  2.7579  2.6544
  622MOL0     H83913   1.331   0.206  -0.395  0.4287  2.9340  0.5707
  622MOL0     H83914   1.505   0.235  -0.441  0.7303  0.3968  0.3772
  622MOL0     H83915   1.351  -0.028  -0.402  0.6080 -0.2948  2.0654
  622MOL0     H83916   1.395   0.040  -0.553 -1.0788  2.1314  0.1425
  622MOL0     H83917   1.550  -0.091  -0.328 -1.6435  1.7848  1.8421
  622MOL0     H83918   1.649   0.003  -0.436 -0.9955  0.9813 -1.7031
  622MOL0     H83919   1.638  -0.242  -0.484  1.3098 -0.0428 -0.4475
  622MOL0     H83920   1.461  -0.224  -0.526  0.1605 -0.5863 -1.2006
  622MOL0     H83921   1.782  -0.245  -0.691  0.5218  0.7961  0.5465
  622MOL0     H83922   1.887  -0.108  -0.962 -2.5899  2.2657 -1.2928
  622MOL0     H83923   1.827  -0.275  -0.929  1.2041  1.6569  2.2906
  622MOL0     H83924   1.646  -0.243  -1.069 -2.0186  0.9794 -2.1163
  622MOL0     H83925   1.690  -0.083  -1.127 -2.8204 -2.0017 -0.8963
  622MOL0     H83926   1.913  -0.278  -1.151 -1.0329 -0.4450  2.2409
  622MOL0     H83927   1.868  -0.140  -1.257 -1.3645 -0.9282 -2.8590
  622MOL0     H83928   1.634  -0.247  -1.279 -0.1484  0.0686  3.4055
  622MOL0     H83929   1.714  -0.397  -1.234  1.5559  0.6474  2.4890
  622MOL0     H83930   1.575  -0.453  -1.379  4.5146 -0.1008  1.7596
  622MOL0     H83931   1.466  -0.602  -1.543  1.9013 -0.8367  3.2964
  622MOL0     H83932   1.422  -0.606  -2.110  0.4705  0.4859  5.1913
  622MOL0     H83933   1.384  -0.774  -2.315  0.9270 -0.5171 -0.7177
  622MOL0     H83934   1.319  -0.959  -2.395 -1.4249 -2.3957  1.1681
  622MOL0     H83935   1.454  -0.918  -2.493  1.6436  1.2955  2.0164
  622MOL0     H83936   1.338  -1.089  -2.598 -0.9978  1.5919  0.8907
  622MOL0     H83937   1.490  -1.161  -2.524 -0.4412 -1.9094  1.2651
  622MOL0     H83938   1.354  -1.263  -2.347 -2.5088 -1.2765  0.8194
  622MOL0     H83939   1.216  -1.167  -2.388 -1.2040 -1.1305  2.8389
  622MOL0     H83940   1.350  -1.391  -2.554  1.0903 -0.4165  1.3595
  622MOL0     H83941   1.212  -1.295  -2.611  0.5076  0.7639 -0.0768
  622MOL0     H83942   1.084  -1.361  -2.444 -0.1679  0.8230  3.1321
  622MOL0     H83943   1.198  -1.433  -2.340  1.2863 -3.4085 -0.1620
  622MOL0     H83944   1.176  -1.542  -2.635 -1.8209  3.1340  0.8520
  622MOL0     H83945   1.214  -1.641  -2.489  0.5816 -1.0777 -0.8787
  622MOL0     H83946   0.963  -1.628  -2.436  3.2646 -1.4655 -0.6109
  622MOL0     H83947   0.982  -1.688  -2.592 -0.4382  0.3190  0.2499
  622MOL0     H83948   0.799  -1.529  -2.604  0.1677  0.7523 -1.8102
  622MOL0     H83949   0.898  -1.402  -2.535 -1.6223  0.8529 -0.6613
  622MOL0     H83950   1.678  -1.021  -2.131  3.1175  1.8204  1.3635
  622MOL0     H83951   1.698  -0.876  -1.942  0.8899 -1.0891 -0.8801
  622MOL0     H83952   1.767  -0.511  -1.827  3.2902 -6.8891  0.7697
  622MOL0     H83953   1.883  -0.359  -1.641  0.4244 -0.0465  2.1992
  622MOL0     H83954   1.037   0.196   0.127  1.1632  0.4786  0.5191
  622MOL0     H83955   0.853   0.305   0.248  0.1354 -0.6689  1.2077
  622MOL0     H83956   0.707   0.545   0.573 -1.9623 -0.5295 -3.1791
  622MOL0     H83957   0.559   0.644   0.717 -2.9685  2.3961  0.3712
  622MOL0     H83958   0.212   0.873   0.660 -0.1069  1.5240 -3.9007
  622MOL0     H83959   0.286   0.706   0.685  0.6617  0.2274  1.0490
  622MOL0     H83960   0.332   0.727   0.436  0.4300  0.1676  1.2426
  622MOL0     H83961   0.229   0.866   0.438 -1.2356  1.3301  1.1054
  622MOL0     H83962   0.157   0.576   0.482 -0.1136  0.6009  0.8780
  622MOL0     H83963   0.069   0.700   0.379 -2.0766 -0.9130  0.1750
  622MOL0     H83964  -0.069   0.644   0.557  0.9397 -0.7083 -2.6630
  622MOL0     H83965   0.038   0.720   0.677  3.7334 -3.3888 -1.1718
  622MOL0     H83966  -0.179   1.034   0.504 -0.8853 -1.1229  2.0499
  622MOL0     H83967   0.487   0.966   0.457  0.4448  1.5978  3.4436
  622MOL0     H83968   0.604   0.978   0.231  0.4824  0.8757  0.7591
  622MOL0     H83969   0.776   0.957   0.289  0.9332 -2.6021  5.9500
  622MOL0     H83970   0.705   0.841   0.175 -2.3097  0.7208 -0.7321
  623MOL0     O83971   8.740   3.079  10.662 -0.1466 -1.0543  0.2911
  623MOL0     C83972   8.623   3.096  10.629 -0.5962  0.5478 -0.6489
  623MOL0     O83973   8.532   3.136  10.720 -0.0128 -0.0450  0.7174
  623MOL0     C83974   8.561   3.216  10.828 -0.4958  0.2011  0.3513
  623MOL0     C83975   8.632   3.164  10.940  0.5394 -0.6147 -0.1917
  623MOL0     C83976   8.647   3.256  11.049  0.9569  0.5139  0.4173
  623MOL0     C83977   8.595   3.387  11.049  0.0487  0.3554  0.3632
  623MOL0     O83978   8.633   3.467  11.154 -0.8473  1.1097  0.3973
  623MOL0     C83979   8.641   3.605  11.147  0.0475 -0.1179 -0.0283
  623MOL0     C83980   8.706   3.648  11.277  0.4227 -0.6378  0.9413
  623MOL0     C83981   8.637   3.602  11.403 -0.2114  0.3461  0.1142
  623MOL0     C83982   8.676   3.673  11.531 -0.2930 -0.6331 -0.4205
  623MOL0     C83983   8.719   3.597  11.649 -0.1462  0.3929 -0.0420
  623MOL0     C83984   8.725   3.687  11.780 -0.3447 -0.7706 -0.8670
  623MOL0     C83985   8.807   3.612  11.889  0.6617  0.0288  0.6104
  623MOL0     C83986   8.957   3.593  11.863 -0.9812 -0.1803  0.8095
  623MOL0     N83987   9.025   3.709  11.795  0.2833  0.0889 -0.8752
  623MOL0     C83988   9.073   3.811  11.877 -1.1692  0.7207  0.3915
  623MOL0     C83989   9.143   3.885  11.787  0.4938 -0.6502  0.3193
  623MOL0     C83990   9.235   4.002  11.827  0.5631  0.1591  0.1629
  623MOL0     C83991   9.275   4.097  11.710 -0.1181  0.0878 -0.4320
  623MOL0     C83992   9.388   4.038  11.630  0.1978  0.0719 -0.3541
  623MOL0     C83993   9.472   4.156  11.555  0.9599 -0.5073  0.1113
  623MOL0     O83994   9.524   4.238  11.657 -0.4049 -1.2359 -0.0263
  623MOL0     C83995   9.600   4.345  11.603  0.1177 -0.6891 -0.1353
  623MOL0     C83996   9.583   4.475  11.662  0.0189 -0.0690 -0.4810
  623MOL0     C83997   9.663   4.587  11.632  0.2461  0.2689 -0.0753
  623MOL0     C83998   9.768   4.569  11.536 -1.5159 -0.1973 -1.1111
  623MOL0     C83999   9.869   4.668  11.505 -0.3044  0.6816  0.7193
  623MOL0     O84000   9.916   4.690  11.383 -0.5093 -0.2840  0.0517
  623MOL0     C84001  10.031   4.766  11.362 -0.3535  0.4732 -0.8815
  623MOL0     C84002  10.143   4.686  11.354  0.8152  0.0258 -0.6575
  623MOL0     C84003  10.267   4.746  11.352  1.0548  0.4528 -1.1811
  623MOL0     C84004  10.277   4.880  11.329  0.0922 -0.2065 -0.0562
  623MOL0     O84005  10.411   4.920  11.314  0.9457 -0.3545  0.1140
  623MOL0     C84006  10.447   5.056  11.329  0.0925  0.3830 -0.2755
  623MOL0     C84007  10.592   5.066  11.365  2.2279  0.8977  0.8320
  623MOL0     C84008  10.687   5.006  11.268 -0.0783  0.1820 -0.2171
  623MOL0     C84009  10.821   5.007  11.325 -1.3089  0.6163  0.6526
  623MOL0     C84010  10.912   4.920  11.218 -0.3930 -0.2929 -1.3048
  623MOL0     C84011  11.059   4.957  11.226 -0.1414 -0.1216  0.2502
  623MOL0     C84012  11.076   5.098  11.159  0.3180 -0.4787 -0.2209
  623MOL0     C84013  11.055   5.094  11.011  0.6883 -0.8232 -0.0933
  623MOL0    Cl84014  11.168   5.000  10.915 -0.3931 -0.0093  0.1221
  623MOL0     C84015  10.158   4.958  11.315  0.2629  0.3278 -0.2441
  623MOL0     C84016  10.033   4.907  11.343  0.6485 -0.6840 -1.2042
  623MOL0     O84017   9.900   4.738  11.601  0.0987  0.3863  0.1474
  623MOL0     C84018   9.778   4.448  11.465  0.3294  0.4853 -0.2753
  623MOL0     C84019   9.696   4.337  11.500 -0.8849  0.8096 -1.3555
  623MOL0     N84020   9.135   3.831  11.659  0.2218 -0.2840 -0.3323
  623MOL0     N84021   9.065   3.717  11.670  0.3635 -0.3210  0.2868
  623MOL0     C84022   8.530   3.428  10.930  0.2058  0.2310  0.4670
  623MOL0     C84023   8.501   3.346  10.818 -0.1570  1.3677  0.5745
  623MOL0     C84024   8.575   3.060  10.493 -0.3156 -0.4203  0.1276
  623MOL0     C84025   8.671   3.011  10.404 -1.0038 -0.2235 -1.1434
  623MOL0     C84026   8.634   2.980  10.271 -0.7112 -0.0854 -0.1477
  623MOL0     C84027   8.514   3.026  10.212  0.4619 -0.2529 -0.0150
  623MOL0     O84028   8.469   3.005  10.074 -0.0948 -0.2210 -0.3830
  623MOL0     C84029   8.546   2.934   9.984 -0.1814 -0.2921 -0.0010
  623MOL0     C84030   8.667   3.023   9.943  0.5375  0.9813 -0.6620
  623MOL0     C84031   8.756   2.945   9.834  0.1531 -0.0185  0.2664
  623MOL0     C84032   8.880   3.035   9.802  0.1342 -0.4688 -0.3010
  623MOL0     C84033   8.980   3.028   9.909  0.1454  0.3584  0.5759
  623MOL0     C84034   9.062   3.015   9.995  0.1483  0.0937 -0.9052
  623MOL0     C84035   8.421   3.075  10.301  0.1058 -0.1131  0.4734
  623MOL0     C84036   8.445   3.079  10.440  0.2561  0.3671 -0.2897
  623MOL0     C84037   8.339   3.161  10.511 -0.1892  0.1937  1.1431
  623MOL0     H84038   8.665   3.061  10.942 -1.3050 -1.2574  1.6693
  623MOL0     H84039   8.701   3.206  11.129  3.7983 -4.2478 -3.8226
  623MOL0     H84040   8.681   3.638  11.050 -0.9055 -4.4105 -2.1399
  623MOL0     H84041   8.537   3.640  11.145 -0.1702 -0.7749 -0.5951
  623MOL0     H84042   8.698   3.756  11.290  0.7227 -0.7126  1.8145
  623MOL0     H84043   8.809   3.615  11.290  0.0914 -1.3906  1.8035
  623MOL0     H84044   8.644   3.493  11.416 -5.0428 -1.0218 -4.9297
  623MOL0     H84045   8.531   3.628  11.395  0.3613  3.2173  0.6809
  623MOL0     H84046   8.756   3.744  11.509 -0.2554 -0.6557 -0.3533
  623MOL0     H84047   8.600   3.743  11.567  0.7850  1.0311 -1.2216
  623MOL0     H84048   8.646   3.516  11.659  1.0709 -0.6771  0.4513
  623MOL0     H84049   8.813   3.543  11.644 -0.6507 -0.4570 -0.5642
  623MOL0     H84050   8.773   3.785  11.774 -1.2987 -0.0691  1.8613
  623MOL0     H84051   8.625   3.701  11.821  0.0533  2.3380 -0.7140
  623MOL0     H84052   8.755   3.517  11.901 -0.4395  0.2076 -2.1938
  623MOL0     H84053   8.786   3.661  11.984 -0.4267 -0.4674  0.6338
  623MOL0     H84054   9.001   3.588  11.963  1.2669  3.2534  0.1553
  623MOL0     H84055   8.970   3.509  11.793  1.2786 -0.5957  1.6644
  623MOL0     H84056   9.051   3.823  11.983  0.0540 -1.1234  0.9068
  623MOL0     H84057   9.170   4.064  11.889 -0.6588 -1.5837  0.7175
  623MOL0     H84058   9.314   3.969  11.896 -0.1643  4.6583  3.6453
  623MOL0     H84059   9.198   4.118  11.635 -1.4727  0.8065  1.0945
  623MOL0     H84060   9.308   4.193  11.751 -0.6712 -0.1228  0.5183
  623MOL0     H84061   9.339   3.969  11.561 -0.2240 -1.0640  1.0461
  623MOL0     H84062   9.453   3.986  11.701 -1.3494 -0.2622  0.8787
  623MOL0     H84063   9.407   4.206  11.483  3.3599  1.5471 -0.7839
  623MOL0     H84064   9.546   4.104  11.492  0.1683  0.5434 -1.7936
  623MOL0     H84065   9.512   4.482  11.744  1.4430  1.5263  0.6831
  623MOL0     H84066   9.665   4.683  11.682 -0.1784  0.2034  0.0726
  623MOL0     H84067  10.135   4.579  11.369 -1.1429  0.2515  0.1740
  623MOL0     H84068  10.355   4.684  11.355  1.1266  0.5701 -0.7244
  623MOL0     H84069  10.428   5.107  11.234 -2.4987 -1.1648 -0.6870
  623MOL0     H84070  10.386   5.106  11.405  1.2946  0.3145  0.7562
  623MOL0     H84071  10.620   5.171  11.376 -0.1439  1.7015 -0.1764
  623MOL0     H84072  10.615   5.027  11.465  1.3522  0.9432  1.0629
  623MOL0     H84073  10.654   4.905  11.242 -1.3192  0.6831 -0.6870
  623MOL0     H84074  10.694   5.067  11.177  2.7521  0.3603  0.0366
  623MOL0     H84075  10.816   4.947  11.416 -2.1499  1.6106  1.2995
  623MOL0     H84076  10.860   5.104  11.359 -2.6301 -0.3183  5.6685
  623MOL0     H84077  10.861   4.937  11.123 -1.1806  2.7270 -0.4549
  623MOL0     H84078  10.906   4.816  11.250 -1.0813  0.4353  1.1944
  623MOL0     H84079  11.092   4.953  11.330 -0.1941 -0.8511  0.2481
  623MOL0     H84080  11.111   4.880  11.168 -0.4441 -0.0555 -0.1169
  623MOL0     H84081  11.177   5.139  11.170  0.7846 -1.2239 -1.5048
  623MOL0     H84082  10.996   5.160  11.199 -2.5053 -5.2212  2.4663
  623MOL0     H84083  10.952   5.062  10.990  0.0538  0.9700  0.1726
  623MOL0     H84084  11.054   5.194  10.967 -3.9965 -0.4333  0.4326
  623MOL0     H84085  10.166   5.064  11.295  0.6962  0.1105 -1.3004
  623MOL0     H84086   9.945   4.969  11.334  1.5671  0.5203 -2.2045
  623MOL0     H84087   9.854   4.425  11.391  0.4380  1.0255 -0.3371
  623MOL0     H84088   9.713   4.241  11.452  4.3134  0.3707  0.5997
  623MOL0     H84089   8.489   3.527  10.950  2.2940  1.3498 -0.4392
  623MOL0     H84090   8.449   3.386  10.731  0.9026 -0.1454 -0.8034
  623MOL0     H84091   8.772   2.984  10.435 -0.0608  1.4985 -2.5083
  623MOL0     H84092   8.702   2.925  10.207 -1.2745 -0.9388 -0.0226
  623MOL0     H84093   8.481   2.918   9.897  0.0702 -0.3755 -0.1748
  623MOL0     H84094   8.580   2.835  10.018  0.6611 -0.4712 -1.3151
  623MOL0     H84095   8.725   3.048  10.033 -0.7252  0.6432  0.2732
  623MOL0     H84096   8.633   3.122   9.911  2.4840  2.2760  0.9638
  623MOL0     H84097   8.702   2.918   9.743  0.5963 -0.3093  0.0847
  623MOL0     H84098   8.797   2.856   9.881  0.0480  0.1410  0.6625
  623MOL0     H84099   8.938   3.005   9.714 -0.0201  0.0707 -0.5879
  623MOL0     H84100   8.866   3.142   9.783 -0.1931  0.3034  3.5977
  623MOL0     H84101   9.128   3.010  10.079 -0.9951 -0.9455 -0.0412
  623MOL0     H84102   8.326   3.114  10.267 -1.4821 -1.2834  3.2805
  623MOL0     H84103   8.249   3.179  10.450 -0.3392 -2.4448  0.4463
  623MOL0     H84104   8.306   3.117  10.605  1.3203  0.0440  1.6233
  623MOL0     H84105   8.386   3.258  10.529  0.4758 -0.4643  3.1702
  624MOL0     O84106  10.998   9.681   1.942  0.4183  0.7607  0.4431
  624MOL0     C84107  11.085   9.737   2.012  0.8452  0.6683  0.0852
  624MOL0     O84108  11.063   9.798   2.136  0.3270  0.5783  0.2976
  624MOL0     C84109  10.935   9.797   2.188  0.4013  0.7328  0.4281
  624MOL0     C84110  10.862   9.913   2.177 -0.4051 -0.1942  0.2058
  624MOL0     C84111  10.724   9.909   2.189  0.4103  2.2003 -0.8077
  624MOL0     C84112  10.647   9.789   2.223 -0.9836 -0.6088 -0.0542
  624MOL0     O84113  10.510   9.775   2.260  0.3564  1.6349 -0.5166
  624MOL0     C84114  10.396   9.848   2.197  0.6066 -0.6962 -0.2959
  624MOL0     C84115  10.350   9.802   2.061  0.2369 -0.1944 -0.8315
  624MOL0     C84116  10.399   9.880   1.946  0.1782 -0.8597 -0.7367
  624MOL0     C84117  10.452   9.783   1.835  0.2857 -0.0517 -1.2545
  624MOL0     C84118  10.572   9.845   1.759  0.1391 -0.2021 -0.0819
  624MOL0     C84119  10.707   9.846   1.831  0.6233  0.5420 -0.2575
  624MOL0     C84120  10.800   9.943   1.754  0.8830  0.1901  0.1846
  624MOL0     C84121  10.841   9.882   1.626  0.1291 -0.9075  0.8502
  624MOL0     N84122  10.954   9.966   1.582 -0.4139  0.0652  0.6399
  624MOL0     C84123  11.081   9.958   1.640 -0.2026 -0.3829 -0.2552
  624MOL0     C84124  11.159   9.999   1.550  1.1252 -1.2387 -0.7177
  624MOL0     C84125  11.303  10.016   1.573  0.4588 -0.5296 -0.6090
  624MOL0     C84126  11.368   9.911   1.484 -1.2776  0.9356  0.6906
  624MOL0     C84127  11.516   9.927   1.452 -0.9293 -0.6635 -0.0206
  624MOL0     C84128  11.543  10.015   1.326 -0.5099  1.3104  0.0151
  624MOL0     O84129  11.682  10.010   1.300  0.1030  0.4543  0.6274
  624MOL0     C84130  11.727  10.049   1.175 -0.6817  1.2653  1.0267
  624MOL0     C84131  11.867  10.022   1.137  0.2731 -1.2135  1.0181
  624MOL0     C84132  11.913  10.077   1.013 -1.5211  0.0685  1.0124
  624MOL0     C84133  11.823  10.124   0.916  0.9238  0.2606 -0.1607
  624MOL0     C84134  11.848  10.141   0.774 -0.5152 -0.0367  0.1098
  624MOL0     O84135  11.734  10.129   0.692  0.4278 -0.5373  0.4878
  624MOL0     C84136  11.739  10.139   0.559 -0.8623 -0.1169  0.2608
  624MOL0     C84137  11.636  10.197   0.493  0.0939  0.8810  0.7549
  624MOL0     C84138  11.620  10.192   0.351 -0.2449  0.5054  0.7244
  624MOL0     C84139  11.728  10.153   0.278 -0.2072 -0.4204  0.4591
  624MOL0     O84140  11.726  10.172   0.141 -0.4385  0.4818  0.3346
  624MOL0     C84141  11.850  10.185   0.073 -0.0632 -0.0072  0.2982
  624MOL0     C84142  11.847  10.274  -0.045 -0.9683  0.3220 -0.2451
  624MOL0     C84143  11.957  10.379  -0.048  0.9877 -0.8244 -0.1611
  624MOL0     C84144  11.894  10.524  -0.079  0.1090  0.5822  0.0784
  624MOL0     C84145  11.981  10.641  -0.060  0.8340 -0.4211 -0.3065
  624MOL0     C84146  11.946  10.723   0.067  0.8709  0.2938 -0.0830
  624MOL0     C84147  12.006  10.862   0.059  0.8699  0.6123  1.2753
  624MOL0     C84148  12.066  10.910   0.194  0.6916 -1.4405 -0.7888
  624MOL0    Cl84149  12.190  10.779   0.240  0.0012 -0.4103  0.3859
  624MOL0     C84150  11.838  10.089   0.343  0.0060  0.0785 -0.4060
  624MOL0     C84151  11.838  10.083   0.482 -0.4411  0.7874  0.2199
  624MOL0     O84152  11.964  10.176   0.736  0.4713  0.2974  0.4354
  624MOL0     C84153  11.688  10.134   0.958  0.6626 -0.2978  0.7842
  624MOL0     C84154  11.644  10.107   1.075  0.0448 -0.7895  0.5672
  624MOL0     N84155  11.093  10.043   1.435 -0.2893 -0.0545 -0.6164
  624MOL0     N84156  10.967  10.026   1.459  0.4744 -0.1680  0.2854
  624MOL0     C84157  10.729   9.675   2.225 -0.1234 -0.9128 -0.1016
  624MOL0     C84158  10.870   9.672   2.223  0.5733  0.9323 -0.4205
  624MOL0     C84159  11.214   9.722   1.950 -0.2476 -0.3911 -0.8758
  624MOL0     C84160  11.294   9.836   1.964  0.1838  0.0387  0.3450
  624MOL0     C84161  11.413   9.848   1.885 -0.4555 -0.3051  1.0693
  624MOL0     C84162  11.471   9.729   1.829  0.2367  0.0727 -0.1695
  624MOL0     O84163  11.594   9.736   1.777  0.1319  0.0041  0.2195
  624MOL0     C84164  11.646   9.626   1.686  0.3483 -0.0083 -0.0270
  624MOL0     C84165  11.783   9.672   1.628 -0.2625  0.4942 -0.0947
  624MOL0     C84166  11.830   9.593   1.499 -0.5831 -0.4915  0.4095
  624MOL0     C84167  11.961   9.646   1.455 -0.1010  0.1450  1.1408
  624MOL0     C84168  12.064   9.605   1.550  0.2808 -0.2981 -1.0984
  624MOL0     C84169  12.142   9.579   1.636 -0.1661 -0.2829  0.0223
  624MOL0     C84170  11.395   9.604   1.836 -0.1688 -0.4182 -0.2918
  624MOL0     C84171  11.268   9.606   1.902 -0.2201  0.6224  0.3503
  624MOL0     C84172  11.193   9.476   1.922  1.0315  0.7783 -0.1998
  624MOL0     H84173  10.916  10.005   2.159  1.5592 -1.7285 -2.4860
  624MOL0     H84174  10.672  10.004   2.182  0.7374  2.5582  1.0055
  624MOL0     H84175  10.306   9.833   2.258 -1.5034  4.7133 -1.5454
  624MOL0     H84176  10.439   9.948   2.207  3.3199 -1.7434 -0.6115
  624MOL0     H84177  10.241   9.795   2.067 -0.0556  0.2578 -3.8323
  624MOL0     H84178  10.387   9.699   2.062  1.1948  0.1423 -0.1270
  624MOL0     H84179  10.487   9.939   1.974  0.2907 -1.8713  1.1753
  624MOL0     H84180  10.325   9.953   1.912 -1.2231 -2.3011 -0.9012
  624MOL0     H84181  10.486   9.690   1.880  2.5917  1.6310  0.7351
  624MOL0     H84182  10.366   9.765   1.769 -1.0773 -0.0114  0.4257
  624MOL0     H84183  10.577   9.810   1.656 -0.3339 -1.0211  0.1680
  624MOL0     H84184  10.552   9.952   1.753  0.4085 -0.0296  1.5470
  624MOL0     H84185  10.696   9.853   1.940  2.1877 -0.1414 -0.0211
  624MOL0     H84186  10.760   9.751   1.818  2.3544  1.4406 -0.1325
  624MOL0     H84187  10.886   9.954   1.821  1.3610 -0.8123 -0.2349
  624MOL0     H84188  10.752  10.040   1.746  1.9401  0.6009 -1.7504
  624MOL0     H84189  10.865   9.777   1.645 -1.1970 -1.3476  0.1958
  624MOL0     H84190  10.762   9.897   1.552 -2.3038  3.0649  3.8107
  624MOL0     H84191  11.114   9.928   1.739 -0.4837 -0.8106 -0.2866
  624MOL0     H84192  11.323  10.120   1.546 -3.1986  0.4196 -0.2580
  624MOL0     H84193  11.327   9.984   1.674 -1.3590 -1.5757 -0.4600
  624MOL0     H84194  11.353   9.814   1.532 -2.3182 -0.2064 -1.7635
  624MOL0     H84195  11.322   9.898   1.386  1.5359 -0.2397 -0.6104
  624MOL0     H84196  11.560   9.828   1.439  1.3542  0.2713 -0.0670
  624MOL0     H84197  11.562   9.985   1.533  1.4610 -1.2615 -0.8594
  624MOL0     H84198  11.502  10.116   1.339  0.8618  1.8991 -0.0834
  624MOL0     H84199  11.489   9.964   1.246  1.0384  2.4095 -1.8248
  624MOL0     H84200  11.936   9.969   1.202  1.3218 -0.1360  0.8156
  624MOL0     H84201  12.015  10.057   0.984 -2.1039  0.4159 -1.4610
  624MOL0     H84202  11.558  10.244   0.553 -2.7136  0.9751 -2.6382
  624MOL0     H84203  11.531  10.228   0.299  0.5195 -0.2825 -1.2167
  624MOL0     H84204  11.925  10.225   0.142 -0.6488  0.2445  0.8049
  624MOL0     H84205  11.875  10.082   0.046 -2.3478 -1.1684  2.2110
  624MOL0     H84206  11.854  10.226  -0.143  0.2079  1.5264 -0.7793
  624MOL0     H84207  11.746  10.316  -0.059  0.1590  2.1847 -4.6089
  624MOL0     H84208  12.022  10.378   0.040  1.8110 -0.0430 -0.7498
  624MOL0     H84209  12.025  10.351  -0.130  0.1646 -1.2012 -0.7393
  624MOL0     H84210  11.819  10.526   0.002  0.3016 -1.1958  0.3432
  624MOL0     H84211  11.850  10.520  -0.179 -2.0453  0.8171  0.9589
  624MOL0     H84212  11.953  10.692  -0.153 -0.8791 -1.6249 -0.4962
  624MOL0     H84213  12.086  10.612  -0.053  0.6056 -1.0551  0.7471
  624MOL0     H84214  11.838  10.735   0.063  0.8335 -0.3309 -1.2597
  624MOL0     H84215  11.981  10.676   0.159 -0.6692  1.9381  1.4164
  624MOL0     H84216  11.926  10.933   0.033  0.6473  0.0213  0.2988
  624MOL0     H84217  12.075  10.872  -0.024 -2.9386 -1.0067 -2.4612
  624MOL0     H84218  12.113  11.008   0.181  0.0047 -1.2831 -2.2200
  624MOL0     H84219  11.988  10.918   0.270  0.3680  0.5413 -1.2698
  624MOL0     H84220  11.926  10.068   0.283 -0.5027  2.7231 -2.2171
  624MOL0     H84221  11.922  10.047   0.541 -1.2080 -0.2212  0.7289
  624MOL0     H84222  11.607  10.176   0.899  0.0424 -0.0465  1.7883
  624MOL0     H84223  11.540  10.132   1.096  0.2808 -1.2127  2.3455
  624MOL0     H84224  10.672   9.586   2.249 -2.0829  1.0011  3.0283
  624MOL0     H84225  10.909   9.571   2.216 -2.8768 -0.6295  0.5763
  624MOL0     H84226  11.276   9.932   2.012 -0.5088 -0.3561  0.9005
  624MOL0     H84227  11.472   9.938   1.876  0.2952 -0.9217 -0.4565
  624MOL0     H84228  11.572   9.607   1.608  0.2611 -0.2790  0.1214
  624MOL0     H84229  11.663   9.533   1.740  1.7026 -0.7196 -1.5806
  624MOL0     H84230  11.848   9.648   1.712 -0.0522 -2.2158 -0.9389
  624MOL0     H84231  11.789   9.779   1.606  1.7258  1.1055  2.8327
  624MOL0     H84232  11.750   9.591   1.424 -4.2261 -0.5445  3.9497
  624MOL0     H84233  11.825   9.486   1.524 -1.4457 -1.0481 -1.9056
  624MOL0     H84234  11.987   9.603   1.358  2.2274 -0.3245  1.9172
  624MOL0     H84235  11.948   9.754   1.445 -1.7847 -0.0857  0.5442
  624MOL0     H84236  12.211   9.567   1.717 -0.6380  0.4936  0.5496
  624MOL0     H84237  11.430   9.506   1.805  1.2617 -0.8582  2.3202
  624MOL0     H84238  11.116   9.469   1.844  2.6645 -1.1242 -1.7452
  624MOL0     H84239  11.244   9.384   1.893 -3.1642 -2.1848  0.7445
  624MOL0     H84240  11.154   9.461   2.024  1.6087  0.5713 -0.0078
  625MOL0     O84241   4.796   5.032   1.671  0.5606  0.0138 -0.2538
  625MOL0     C84242   4.886   5.069   1.607 -0.0548  0.5645 -1.1391
  625MOL0     O84243   4.872   5.175   1.514  0.3523  0.0414  0.3649
  625MOL0     C84244   4.760   5.221   1.470  0.4977 -0.0105 -1.3191
  625MOL0     C84245   4.735   5.350   1.517  0.0365 -0.4794 -0.8057
  625MOL0     C84246   4.612   5.419   1.475 -0.3766  0.3418 -0.1233
  625MOL0     C84247   4.520   5.354   1.394  0.8784  0.5514  0.1299
  625MOL0     O84248   4.407   5.421   1.348 -0.2827  0.4128  0.1973
  625MOL0     C84249   4.339   5.507   1.439 -1.0362  0.0058 -0.2365
  625MOL0     C84250   4.203   5.549   1.384 -0.9285  0.3588 -0.1839
  625MOL0     C84251   4.117   5.420   1.372 -0.1615  0.0109  0.8774
  625MOL0     C84252   3.972   5.456   1.378 -0.5049  0.2173 -0.3519
  625MOL0     C84253   3.932   5.504   1.240  0.4193 -0.9010 -0.1021
  625MOL0     C84254   3.776   5.509   1.217 -0.8899 -0.5451  0.3114
  625MOL0     C84255   3.720   5.641   1.265  0.0012 -0.3235  0.2009
  625MOL0     C84256   3.571   5.651   1.269  0.2173  0.2560  0.2959
  625MOL0     N84257   3.502   5.612   1.149 -0.2724 -0.3538  0.4559
  625MOL0     C84258   3.518   5.655   1.022 -0.5500  1.0389 -0.5543
  625MOL0     C84259   3.446   5.572   0.949  1.2735  0.3446  0.6049
  625MOL0     C84260   3.435   5.568   0.802  0.0197  0.2772 -0.7346
  625MOL0     C84261   3.346   5.685   0.760 -0.2163 -1.2199  0.8879
  625MOL0     C84262   3.250   5.642   0.656 -0.1625 -0.1135 -0.1514
  625MOL0     C84263   3.190   5.756   0.587 -1.2513 -0.1335 -0.0446
  625MOL0     O84264   3.111   5.830   0.674  0.1085 -0.3446  0.2047
  625MOL0     C84265   2.970   5.825   0.662 -0.2390 -0.4498  0.0241
  625MOL0     C84266   2.895   5.923   0.738  0.0387 -0.4016 -0.4246
  625MOL0     C84267   2.762   5.914   0.735  0.6141  0.0801 -0.0225
  625MOL0     C84268   2.698   5.815   0.655  1.1576  0.3931  0.8335
  625MOL0     C84269   2.551   5.797   0.668  0.4608  1.0466 -0.6936
  625MOL0     O84270   2.495   5.736   0.559 -0.2788 -0.1608 -0.2747
  625MOL0     C84271   2.356   5.734   0.557  0.1330  0.0096  1.1753
  625MOL0     C84272   2.259   5.691   0.650  0.3409  1.1308 -0.7589
  625MOL0     C84273   2.126   5.701   0.630 -0.1639  0.6445  0.3455
  625MOL0     C84274   2.075   5.726   0.509 -0.0852  0.0175  0.7402
  625MOL0     O84275   1.932   5.728   0.482  0.1447  0.4295  0.0760
  625MOL0     C84276   1.844   5.701   0.583  0.1740  0.4028  0.1919
  625MOL0     C84277   1.704   5.700   0.514  0.6861  0.4252  0.5934
  625MOL0     C84278   1.598   5.725   0.626 -0.0854 -0.5152  0.2928
  625MOL0     C84279   1.471   5.670   0.581  0.2726  0.1232  0.1462
  625MOL0     C84280   1.359   5.681   0.690  0.2880  0.0486  0.0886
  625MOL0     C84281   1.390   5.606   0.824 -0.0036  0.1912  0.7009
  625MOL0     C84282   1.277   5.610   0.917  0.5531  0.1795  0.9567
  625MOL0     C84283   1.313   5.679   1.048  0.6711  0.8887  0.0796
  625MOL0    Cl84284   1.355   5.841   1.048 -0.0605 -0.1438 -0.1365
  625MOL0     C84285   2.166   5.758   0.409  0.6994  0.3009 -0.3165
  625MOL0     C84286   2.304   5.767   0.431 -0.1590  0.0957  0.1851
  625MOL0     O84287   2.493   5.839   0.766 -0.3107 -0.0923 -0.6347
  625MOL0     C84288   2.765   5.721   0.579  0.3995 -0.1934  1.0616
  625MOL0     C84289   2.908   5.727   0.587  0.6568  0.4047  0.8933
  625MOL0     N84290   3.391   5.472   1.027 -0.0132 -0.0168 -0.9244
  625MOL0     N84291   3.435   5.490   1.153 -1.0738 -0.9874 -0.2564
  625MOL0     C84292   4.550   5.223   1.353 -0.4914  0.5679 -0.8144
  625MOL0     C84293   4.672   5.160   1.383 -0.0375  0.3806  0.0606
  625MOL0     C84294   5.020   5.022   1.654  0.1717  0.4612  0.2921
  625MOL0     C84295   5.137   5.081   1.594 -0.0691  0.2181  0.9079
  625MOL0     C84296   5.271   5.039   1.599 -0.1424 -0.4642 -0.1575
  625MOL0     C84297   5.289   4.929   1.689  0.2152 -0.4099 -0.4086
  625MOL0     O84298   5.414   4.866   1.706  1.1079 -0.3986  0.3403
  625MOL0     C84299   5.513   4.870   1.605 -0.0668  0.5150  0.4434
  625MOL0     C84300   5.483   4.751   1.515 -0.2551 -0.0060  0.5513
  625MOL0     C84301   5.557   4.763   1.387  0.3650  0.3267  0.3579
  625MOL0     C84302   5.510   4.665   1.273 -0.5586  0.0063 -0.3100
  625MOL0     C84303   5.552   4.525   1.299 -0.3143 -0.7098 -0.9946
  625MOL0     C84304   5.593   4.408   1.294 -1.1939 -0.0834  0.1227
  625MOL0     C84305   5.185   4.877   1.770  1.5975 -0.5134  0.6248
  625MOL0     C84306   5.049   4.926   1.747 -0.2590  0.1564 -0.0271
  625MOL0     C84307   4.954   4.861   1.848  0.0588  1.0701 -0.5172
  625MOL0     H84308   4.803   5.392   1.591 -1.3316  0.1630  0.1239
  625MOL0     H84309   4.604   5.524   1.502  1.0837  0.6773 -0.9055
  625MOL0     H84310   4.325   5.460   1.537  1.7910 -0.4170  0.0646
  625MOL0     H84311   4.402   5.596   1.449 -2.6633  1.8457 -4.2777
  625MOL0     H84312   4.211   5.593   1.284  0.2229  1.1248  0.2266
  625MOL0     H84313   4.171   5.623   1.458  1.7241  1.8706 -0.4209
  625MOL0     H84314   4.144   5.355   1.455  2.3694 -1.4961 -0.9588
  625MOL0     H84315   4.133   5.361   1.281 -0.1678  4.9298 -2.7395
  625MOL0     H84316   3.904   5.375   1.406 -0.7407  1.1400  1.9380
  625MOL0     H84317   3.965   5.540   1.448  1.1839  0.0542  0.0410
  625MOL0     H84318   3.966   5.606   1.218 -0.7204 -1.0500 -2.9784
  625MOL0     H84319   3.967   5.437   1.161 -0.0328 -1.8578  0.4952
  625MOL0     H84320   3.750   5.501   1.111 -1.3946 -0.9856  0.4652
  625MOL0     H84321   3.727   5.425   1.267  2.4314 -0.1126  5.0344
  625MOL0     H84322   3.760   5.720   1.200 -0.5393  0.1205  0.3920
  625MOL0     H84323   3.756   5.661   1.366 -0.8553  0.3883  0.3859
  625MOL0     H84324   3.537   5.589   1.353  2.8227 -2.8997 -0.7538
  625MOL0     H84325   3.525   5.748   1.288 -1.1019  0.0598 -1.6056
  625MOL0     H84326   3.596   5.723   0.990  0.1241 -0.0053 -1.1845
  625MOL0     H84327   3.541   5.579   0.779  0.1606 -0.2149 -0.3440
  625MOL0     H84328   3.413   5.473   0.752  2.5219 -1.4244  1.1755
  625MOL0     H84329   3.294   5.726   0.847 -3.2048  1.3066 -1.8438
  625MOL0     H84330   3.413   5.761   0.719  0.6232 -1.7413  1.2464
  625MOL0     H84331   3.178   5.589   0.719  0.3833 -1.5739 -0.7164
  625MOL0     H84332   3.297   5.568   0.591  2.5160  0.6279  0.8007
  625MOL0     H84333   3.145   5.712   0.497  0.9619 -2.5605 -0.0660
  625MOL0     H84334   3.274   5.811   0.542  1.9025 -2.1629  2.8726
  625MOL0     H84335   2.945   5.999   0.798 -1.8131 -2.9276  4.8721
  625MOL0     H84336   2.696   5.972   0.799 -0.2336 -2.5398  1.6027
  625MOL0     H84337   2.275   5.674   0.756 -2.2948 -0.0509 -0.4625
  625MOL0     H84338   2.057   5.671   0.709  1.7911  0.7550  2.1749
  625MOL0     H84339   1.861   5.603   0.630 -1.3976 -0.9618 -1.8954
  625MOL0     H84340   1.850   5.781   0.658  0.5488  3.3842 -2.8098
  625MOL0     H84341   1.698   5.781   0.441 -1.6681 -2.0552 -2.2767
  625MOL0     H84342   1.686   5.609   0.456  0.6304 -0.3055  1.7200
  625MOL0     H84343   1.633   5.678   0.718 -0.3533 -4.8926 -1.5692
  625MOL0     H84344   1.592   5.832   0.646  1.7377 -0.7042  2.1445
  625MOL0     H84345   1.488   5.564   0.559  1.3024  0.1254  0.8321
  625MOL0     H84346   1.447   5.728   0.491  2.6125  3.4853  1.4669
  625MOL0     H84347   1.268   5.641   0.644  1.4401  1.3896 -3.7815
  625MOL0     H84348   1.339   5.788   0.702  0.7716  0.4099 -1.9577
  625MOL0     H84349   1.414   5.504   0.794  0.0699  0.3356  0.2571
  625MOL0     H84350   1.485   5.635   0.870  1.1105 -1.3156 -0.5137
  625MOL0     H84351   1.242   5.510   0.942  0.1146 -1.2656 -4.2421
  625MOL0     H84352   1.197   5.668   0.870  1.8991 -0.1275 -1.9045
  625MOL0     H84353   1.228   5.677   1.118 -2.1168 -1.6124 -3.0483
  625MOL0     H84354   1.394   5.620   1.093 -0.5493 -2.6384 -1.9766
  625MOL0     H84355   2.125   5.786   0.312 -0.5331  0.2512  0.1799
  625MOL0     H84356   2.352   5.813   0.345  0.3652 -0.3637  0.2260
  625MOL0     H84357   2.727   5.641   0.517 -1.4510  1.0026  0.5429
  625MOL0     H84358   2.962   5.643   0.544  2.6257  1.9458  0.2366
  625MOL0     H84359   4.481   5.172   1.286  0.9060  1.4418 -3.0273
  625MOL0     H84360   4.696   5.057   1.357 -3.4067 -0.4222 -0.3375
  625MOL0     H84361   5.122   5.149   1.511 -0.8809 -0.9509  0.0710
  625MOL0     H84362   5.350   5.082   1.537  2.7972 -2.5718  1.8701
  625MOL0     H84363   5.608   4.854   1.657  0.8483 -3.1624 -1.9458
  625MOL0     H84364   5.511   4.970   1.563 -0.9222  0.7658  1.0551
  625MOL0     H84365   5.378   4.742   1.485  0.1683  0.5273 -1.2233
  625MOL0     H84366   5.524   4.661   1.561  3.6980  1.7576  0.8541
  625MOL0     H84367   5.661   4.748   1.419 -0.7482 -0.7669  3.9841
  625MOL0     H84368   5.540   4.859   1.337  0.7471 -1.2361 -3.0857
  625MOL0     H84369   5.401   4.677   1.267 -0.9007 -2.8379 -0.8988
  625MOL0     H84370   5.557   4.697   1.179 -2.6127  2.1231 -0.7403
  625MOL0     H84371   5.648   4.317   1.282  4.5318  2.7431  1.2593
  625MOL0     H84372   5.221   4.812   1.849  0.4967  1.9006  3.3025
  625MOL0     H84373   4.849   4.857   1.819 -0.6251 -0.2393  1.9159
  625MOL0     H84374   4.980   4.757   1.870 -2.6361  0.0698 -1.6824
  625MOL0     H84375   4.964   4.918   1.941  1.1286  1.9455 -1.1387
  626MOL0     O84376  10.013   6.711   9.170 -0.1320  0.0506  0.2427
  626MOL0     C84377   9.985   6.600   9.214 -0.1334 -0.6994 -0.5705
  626MOL0     O84378  10.036   6.551   9.327 -0.3442  0.0494 -0.3774
  626MOL0     C84379  10.105   6.627   9.419  0.1393 -0.4170 -0.8789
  626MOL0     C84380  10.195   6.557   9.498  0.3902  0.0085 -0.5724
  626MOL0     C84381  10.250   6.619   9.612 -0.5912  0.0243  0.2713
  626MOL0     C84382  10.211   6.748   9.647  0.2186  0.2130  0.1551
  626MOL0     O84383  10.273   6.804   9.752  1.2137  0.2210 -0.4168
  626MOL0     C84384  10.206   6.922   9.816  0.9153 -0.4837  0.0839
  626MOL0     C84385  10.268   6.944   9.953 -0.4922  0.6534  0.6303
  626MOL0     C84386  10.236   7.074  10.015 -0.9961 -0.4197  0.9220
  626MOL0     C84387  10.115   7.070  10.112 -0.1723 -0.3619  0.2333
  626MOL0     C84388  10.058   7.206  10.141 -0.6509  0.7733 -0.0573
  626MOL0     C84389   9.964   7.206  10.258  0.1835  0.0755 -0.6825
  626MOL0     C84390   9.837   7.128  10.213  0.2488 -0.3978  0.6235
  626MOL0     C84391   9.702   7.154  10.301 -0.1645 -0.2515  0.1054
  626MOL0     N84392   9.690   7.057  10.405 -0.1159  0.3173 -0.6803
  626MOL0     C84393   9.661   7.088  10.531  0.1575  0.1106  0.9798
  626MOL0     C84394   9.641   6.969  10.588  0.0582 -1.0550 -0.6619
  626MOL0     C84395   9.613   6.973  10.737 -0.2264 -0.2441 -0.7515
  626MOL0     C84396   9.476   7.027  10.792 -0.0496  0.3832  0.0117
  626MOL0     C84397   9.483   7.040  10.947 -0.6233 -0.7321 -1.1087
  626MOL0     C84398   9.340   7.032  10.999  0.9123 -0.3593  1.0726
  626MOL0     O84399   9.287   7.162  10.981  0.5182  0.0800 -0.1895
  626MOL0     C84400   9.164   7.172  10.929  0.5031 -0.4098  0.2425
  626MOL0     C84401   9.139   7.262  10.819 -1.0087 -0.3539 -0.0390
  626MOL0     C84402   9.008   7.267  10.768 -0.8939 -1.1317 -0.4015
  626MOL0     C84403   8.911   7.187  10.810  0.5261 -0.5372 -0.4528
  626MOL0     C84404   8.771   7.217  10.768 -0.5360 -0.2627  0.0849
  626MOL0     O84405   8.675   7.143  10.830  0.0633 -0.6779  0.8252
  626MOL0     C84406   8.543   7.167  10.801  0.1137 -0.0470 -0.6400
  626MOL0     C84407   8.471   7.255  10.887  0.5823 -0.0704  0.1908
  626MOL0     C84408   8.348   7.307  10.850 -0.3623 -0.3417  0.5078
  626MOL0     C84409   8.293   7.268  10.724  0.2259 -0.0139  0.0737
  626MOL0     O84410   8.157   7.309  10.700  0.4040 -0.4697 -0.7696
  626MOL0     C84411   8.129   7.315  10.563 -0.0054  0.5375 -1.0081
  626MOL0     C84412   7.985   7.335  10.536  0.7013 -0.1277 -0.3748
  626MOL0     C84413   7.966   7.420  10.410  0.1516  0.9251  0.0206
  626MOL0     C84414   7.910   7.563  10.423 -0.7277  0.5854  0.2083
  626MOL0     C84415   8.024   7.660  10.466 -0.1706 -0.3268  1.6838
  626MOL0     C84416   8.094   7.649  10.598  0.3474  0.5601  0.4916
  626MOL0     C84417   8.126   7.779  10.674  1.0968  0.7153 -0.3819
  626MOL0     C84418   8.215   7.757  10.798 -0.6226  0.1839  0.1959
  626MOL0    Cl84419   8.258   7.915  10.860  0.2316 -1.0131  0.0607
  626MOL0     C84420   8.361   7.175  10.645 -0.0571 -0.5819  0.6846
  626MOL0     C84421   8.485   7.131  10.680 -0.6522  0.4916  0.1786
  626MOL0     O84422   8.753   7.293  10.683  0.8324 -0.3820  0.1051
  626MOL0     C84423   8.932   7.102  10.914  0.0031 -1.1923 -1.1333
  626MOL0     C84424   9.055   7.103  10.977  0.0915  0.4829  0.8099
  626MOL0     N84425   9.640   6.869  10.492  0.1956  0.2984 -0.0163
  626MOL0     N84426   9.669   6.920  10.376  0.0823  0.4995 -0.3828
  626MOL0     C84427  10.112   6.822   9.574 -1.2591  0.4585  0.0915
  626MOL0     C84428  10.066   6.760   9.455  0.5542  0.0781  0.0772
  626MOL0     C84429   9.895   6.515   9.143 -0.0789 -0.0998 -0.5330
  626MOL0     C84430   9.912   6.382   9.145 -1.3747 -0.5637 -1.1630
  626MOL0     C84431   9.836   6.290   9.067 -0.3849 -0.4012 -0.2299
  626MOL0     C84432   9.730   6.347   8.995  0.5340  0.8295 -0.7614
  626MOL0     O84433   9.651   6.284   8.898 -0.4063 -0.2872 -0.1131
  626MOL0     C84434   9.642   6.139   8.903 -0.0557 -0.1578 -1.1646
  626MOL0     C84435   9.571   6.090   9.025 -0.1079 -0.0572 -0.1663
  626MOL0     C84436   9.532   5.939   9.016  0.2561  0.7035  0.1686
  626MOL0     C84437   9.484   5.894   9.156  0.7920  0.1081  0.0026
  626MOL0     C84438   9.351   5.941   9.182 -0.0643 -0.4868 -0.8725
  626MOL0     C84439   9.250   6.008   9.204  0.2380  0.2518  0.1785
  626MOL0     C84440   9.699   6.487   9.000 -0.6807  0.5194  0.4404
  626MOL0     C84441   9.781   6.566   9.079  0.8772 -0.3144 -0.3942
  626MOL0     C84442   9.724   6.706   9.112  0.2804  0.1820  0.7420
  626MOL0     H84443  10.211   6.453   9.472  0.0573 -0.2812  0.3246
  626MOL0     H84444  10.299   6.558   9.687 -2.1376 -0.5149  0.8858
  626MOL0     H84445  10.231   7.003   9.746  0.1303 -2.7830 -3.0709
  626MOL0     H84446  10.099   6.904   9.806  1.1452 -0.4713 -5.0487
  626MOL0     H84447  10.377   6.941   9.943 -0.6086 -0.9458 -0.6371
  626MOL0     H84448  10.239   6.863  10.021  0.0983  0.4841  0.6829
  626MOL0     H84449  10.229   7.141   9.929 -3.2821  0.1390  1.4703
  626MOL0     H84450  10.323   7.097  10.078  1.4331 -4.4066 -0.6051
  626MOL0     H84451  10.036   7.008  10.070  2.0971 -4.1803  1.1018
  626MOL0     H84452  10.144   7.004  10.194  1.5009  0.8607  0.6780
  626MOL0     H84453  10.145   7.270  10.159  0.3261 -0.3134 -0.8189
  626MOL0     H84454  10.005   7.251  10.057  0.6612 -0.3852 -1.5554
  626MOL0     H84455  10.019   7.154  10.337 -1.3112  0.0196  0.3599
  626MOL0     H84456   9.927   7.302  10.297 -0.0380 -0.8245  1.4572
  626MOL0     H84457   9.868   7.024  10.211  1.2430 -0.1073  0.4802
  626MOL0     H84458   9.815   7.156  10.109 -0.0545  0.1375  0.8261
  626MOL0     H84459   9.709   7.257  10.336 -0.2165  1.5760 -4.5704
  626MOL0     H84460   9.612   7.143  10.240 -1.2268 -1.5141  1.8033
  626MOL0     H84461   9.663   7.186  10.579 -0.4954  1.4812 -1.6242
  626MOL0     H84462   9.618   6.868  10.767  0.1502 -0.0263 -0.0182
  626MOL0     H84463   9.701   7.015  10.787 -0.6118  0.1553 -0.4047
  626MOL0     H84464   9.440   7.121  10.750 -2.7273  0.8572  2.9654
  626MOL0     H84465   9.408   6.945  10.767  2.0334 -1.4576  0.0155
  626MOL0     H84466   9.530   7.134  10.981 -3.9434 -0.1573  2.6129
  626MOL0     H84467   9.537   6.958  10.995  0.6849 -1.9509 -4.3871
  626MOL0     H84468   9.352   7.005  11.104 -2.0053  0.8838  1.8171
  626MOL0     H84469   9.280   6.949  10.962 -3.7752  1.5297  3.6075
  626MOL0     H84470   9.217   7.325  10.778 -1.1087 -1.3275 -1.8256
  626MOL0     H84471   8.998   7.337  10.686  1.9574 -0.1367 -0.0297
  626MOL0     H84472   8.525   7.274  10.979  0.9595 -1.6813  0.3358
  626MOL0     H84473   8.285   7.374  10.907  1.4297  1.1403  0.8554
  626MOL0     H84474   8.194   7.389  10.513  0.5029 -1.1216 -2.9246
  626MOL0     H84475   8.148   7.226  10.502  0.2105  1.3147 -2.1182
  626MOL0     H84476   7.937   7.238  10.523  1.5008 -0.6741  0.6242
  626MOL0     H84477   7.934   7.386  10.618  1.6143 -0.3900  0.3607
  626MOL0     H84478   8.052   7.420  10.342  0.8864  0.6455  0.9424
  626MOL0     H84479   7.882   7.378  10.354 -1.8030  2.8915  1.2909
  626MOL0     H84480   7.839   7.571  10.506 -0.4224  1.4401  0.3946
  626MOL0     H84481   7.858   7.605  10.337 -0.7575 -1.3435 -0.7670
  626MOL0     H84482   7.976   7.758  10.463 -2.0555 -1.2186 -0.4805
  626MOL0     H84483   8.093   7.662  10.381 -1.4413 -2.1890  0.5262
  626MOL0     H84484   8.022   7.601  10.666  0.2206 -3.1088 -1.9153
  626MOL0     H84485   8.184   7.587  10.588  0.4032  0.4556  1.4612
  626MOL0     H84486   8.034   7.824  10.713  2.3855  0.3106  3.5676
  626MOL0     H84487   8.171   7.852  10.606  1.4650  3.3086  2.3725
  626MOL0     H84488   8.153   7.704  10.872 -2.1372 -2.4425 -2.7373
  626MOL0     H84489   8.310   7.709  10.772  0.3861  2.1303  0.1457
  626MOL0     H84490   8.324   7.121  10.559  0.5769 -1.8490  1.1952
  626MOL0     H84491   8.540   7.066  10.614 -2.2268  0.4519 -1.1611
  626MOL0     H84492   8.842   7.057  10.954 -0.7345  1.1736  0.0999
  626MOL0     H84493   9.076   7.048  11.069  0.6560  0.4663  0.6684
  626MOL0     H84494  10.083   6.923   9.597 -0.2679  0.8608 -0.3394
  626MOL0     H84495   9.994   6.815   9.396 -1.3754  0.3979  2.5782
  626MOL0     H84496   9.999   6.348   9.200 -0.8587 -0.2349 -1.7567
  626MOL0     H84497   9.871   6.188   9.055  0.5751  0.0112 -1.0943
  626MOL0     H84498   9.736   6.087   8.886 -1.3450 -2.1863 -2.5753
  626MOL0     H84499   9.580   6.110   8.817 -3.4783 -2.1007  1.6871
  626MOL0     H84500   9.483   6.150   9.050  0.7149  0.6268  1.2355
  626MOL0     H84501   9.641   6.103   9.108 -1.9155  0.8543  1.2879
  626MOL0     H84502   9.603   5.861   8.989 -1.3059 -1.8498  2.8661
  626MOL0     H84503   9.451   5.929   8.943  2.0639  1.5302 -2.0974
  626MOL0     H84504   9.483   5.785   9.150 -2.2214  0.0957 -0.8469
  626MOL0     H84505   9.554   5.933   9.230 -0.2168 -0.5033  1.3125
  626MOL0     H84506   9.159   6.059   9.231  0.7993  2.4033 -1.6826
  626MOL0     H84507   9.617   6.528   8.943  0.0261  3.1401  1.1473
  626MOL0     H84508   9.616   6.702   9.103  0.2543 -2.5879  1.3299
  626MOL0     H84509   9.751   6.741   9.212 -3.4980  2.5711  1.1268
  626MOL0     H84510   9.759   6.788   9.049 -0.7562  0.2542  0.2463
  627MOL0     O84511   2.208   2.930   9.629  0.1076  0.6231  0.5748
  627MOL0     C84512   2.098   2.976   9.622 -1.7261 -0.5695  0.6066
  627MOL0     O84513   1.986   2.924   9.684 -0.3556  0.3429  0.5616
  627MOL0     C84514   1.990   2.799   9.733  0.1049  0.5906 -0.6014
  627MOL0     C84515   2.025   2.755   9.861 -0.0966  0.4662  0.5679
  627MOL0     C84516   2.046   2.619   9.880 -0.4609  0.0294  0.2535
  627MOL0     C84517   2.035   2.514   9.786 -1.0022 -0.0090  0.3832
  627MOL0     O84518   2.054   2.375   9.806 -0.3602 -0.5923  0.0351
  627MOL0     C84519   2.018   2.326   9.934 -1.0245  0.0424  0.7322
  627MOL0     C84520   2.050   2.177   9.939  0.2076  0.3825  0.1075
  627MOL0     C84521   1.941   2.091   9.866  0.5449 -0.4377  0.1156
  627MOL0     C84522   1.929   1.950   9.922 -0.1682 -0.2280  0.6214
  627MOL0     C84523   1.801   1.940  10.004  0.7161 -0.0322  0.3799
  627MOL0     C84524   1.665   1.935   9.920 -0.4497  0.4327 -0.5254
  627MOL0     C84525   1.553   1.881  10.019  0.1897 -0.2605  0.5987
  627MOL0     C84526   1.409   1.865   9.951  1.0861 -1.5370  0.0659
  627MOL0     N84527   1.389   1.784   9.831  0.1022 -0.6889 -0.6493
  627MOL0     C84528   1.307   1.814   9.726  0.7144  0.9564 -0.1028
  627MOL0     C84529   1.281   1.684   9.673 -0.4216 -0.2808  0.1008
  627MOL0     C84530   1.190   1.632   9.562  0.3809  0.5665 -0.6177
  627MOL0     C84531   1.245   1.636   9.413 -0.0157  0.8145 -1.3018
  627MOL0     C84532   1.355   1.531   9.409 -0.5231  0.3065 -0.2768
  627MOL0     C84533   1.418   1.499   9.276 -0.3118 -0.0357 -0.1359
  627MOL0     O84534   1.317   1.476   9.184  0.4074  0.0394 -0.1652
  627MOL0     C84535   1.337   1.517   9.059 -0.9214 -0.2057 -0.0731
  627MOL0     C84536   1.343   1.429   8.951 -0.4786 -0.3727 -0.6773
  627MOL0     C84537   1.356   1.477   8.828  0.3943 -0.5824  0.6585
  627MOL0     C84538   1.359   1.615   8.791  0.4781 -0.3588 -0.7321
  627MOL0     C84539   1.406   1.657   8.657  0.9851  0.3718  0.1845
  627MOL0     O84540   1.415   1.556   8.579 -0.5999 -0.4214  0.2577
  627MOL0     C84541   1.455   1.569   8.445 -0.5682  0.0065  0.9420
  627MOL0     C84542   1.560   1.650   8.394  0.1192  0.7210  0.7622
  627MOL0     C84543   1.590   1.637   8.258  0.1963  0.4719 -0.0103
  627MOL0     C84544   1.522   1.545   8.179 -0.9743 -1.0078  0.0292
  627MOL0     O84545   1.561   1.542   8.046  0.1043  0.5168  0.2481
  627MOL0     C84546   1.537   1.417   7.976  0.1316 -0.6393 -0.0638
  627MOL0     C84547   1.399   1.420   7.898  0.7848 -0.3745  0.5298
  627MOL0     C84548   1.369   1.291   7.818 -0.1801  0.6004 -0.3508
  627MOL0     C84549   1.233   1.288   7.752  0.1168  0.0049 -0.0183
  627MOL0     C84550   1.113   1.308   7.841  0.0114  0.5315  0.8394
  627MOL0     C84551   1.122   1.211   7.965  0.2680 -0.3914  0.6210
  627MOL0     C84552   0.983   1.183   8.028 -0.2305 -0.3117 -0.5255
  627MOL0     C84553   0.916   1.289   8.104  0.3172  0.2759 -0.7991
  627MOL0    Cl84554   0.901   1.234   8.271 -0.2098  0.2365 -0.0135
  627MOL0     C84555   1.423   1.461   8.230  0.3529  0.0533  0.3749
  627MOL0     C84556   1.390   1.478   8.359 -0.1258 -0.2167 -0.3743
  627MOL0     O84557   1.430   1.775   8.631 -0.4054 -0.1624 -0.3500
  627MOL0     C84558   1.344   1.711   8.898 -0.9861 -0.4150 -0.0714
  627MOL0     C84559   1.322   1.650   9.031 -0.9221 -0.5738 -0.2233
  627MOL0     N84560   1.350   1.585   9.746 -0.1632  0.0299  0.8062
  627MOL0     N84561   1.422   1.650   9.826 -0.2691  0.0380 -0.1780
  627MOL0     C84562   1.979   2.562   9.669 -0.4800  0.3593  0.4010
  627MOL0     C84563   1.963   2.700   9.635 -0.4666  0.2671 -0.4400
  627MOL0     C84564   2.088   3.098   9.534 -0.0899  0.5177  0.4156
  627MOL0     C84565   2.148   3.074   9.409  0.1822 -0.2094  0.4538
  627MOL0     C84566   2.119   3.169   9.308 -0.8561 -0.0406  0.5544
  627MOL0     C84567   2.050   3.287   9.325 -0.4053  0.0145  0.1663
  627MOL0     O84568   2.041   3.384   9.229 -0.3251 -0.3751  0.2214
  627MOL0     C84569   2.056   3.357   9.087 -0.4867 -0.2638  0.5936
  627MOL0     C84570   1.947   3.269   9.016  0.5970  0.8638  0.0285
  627MOL0     C84571   1.979   3.275   8.868  0.3254  0.5414 -0.3445
  627MOL0     C84572   2.100   3.197   8.822  0.1905 -0.8137  0.3693
  627MOL0     C84573   2.080   3.050   8.873 -0.3120 -0.3691  0.3092
  627MOL0     C84574   2.067   2.945   8.934  0.5653  0.3090 -0.1300
  627MOL0     C84575   2.005   3.309   9.456 -0.2116  0.6017  0.1860
  627MOL0     C84576   2.017   3.217   9.554  0.0121 -0.6916 -0.0399
  627MOL0     C84577   1.952   3.265   9.680 -0.6766 -0.0770 -0.0578
  627MOL0     H84578   2.044   2.830   9.938 -0.3335  0.9388  0.1732
  627MOL0     H84579   2.092   2.598   9.976  0.5194  1.4741  0.1342
  627MOL0     H84580   2.078   2.358  10.020 -0.0654 -1.3054  0.6002
  627MOL0     H84581   1.916   2.354   9.962 -0.1979  0.9576  3.1475
  627MOL0     H84582   2.057   2.132  10.039 -3.0600  2.4841  1.4259
  627MOL0     H84583   2.140   2.163   9.879  0.8339  1.4622  0.7536
  627MOL0     H84584   1.973   2.075   9.762  1.5953 -1.9103  0.6353
  627MOL0     H84585   1.845   2.143   9.877  0.0904 -1.6363  2.3327
  627MOL0     H84586   1.929   1.882   9.836  1.9241  3.3227 -2.4729
  627MOL0     H84587   2.009   1.936   9.994 -0.8485 -0.1510  1.4112
  627MOL0     H84588   1.817   1.847  10.059  4.9626  1.0940  1.4054
  627MOL0     H84589   1.782   2.022  10.073 -1.7543  0.5810 -0.9133
  627MOL0     H84590   1.649   2.037   9.886  0.3081  0.1415 -1.8249
  627MOL0     H84591   1.672   1.864   9.837  0.5661 -1.7344  1.2928
  627MOL0     H84592   1.540   1.948  10.105 -1.1733 -1.7820  1.6468
  627MOL0     H84593   1.571   1.780  10.057  1.4010  0.8247  3.1997
  627MOL0     H84594   1.336   1.833  10.026  1.1498 -0.1192  0.7765
  627MOL0     H84595   1.376   1.968   9.936  0.9017 -1.3323  1.6958
  627MOL0     H84596   1.257   1.907   9.699 -0.9624 -0.1836 -1.1704
  627MOL0     H84597   1.153   1.534   9.594  2.4295 -0.1321 -0.2231
  627MOL0     H84598   1.103   1.698   9.565 -0.1404 -0.1355  1.9791
  627MOL0     H84599   1.170   1.610   9.338 -0.4805 -0.8209 -0.3069
  627MOL0     H84600   1.284   1.737   9.394  0.3303  0.7566 -0.9091
  627MOL0     H84601   1.319   1.439   9.455  0.6968  0.0275  0.1726
  627MOL0     H84602   1.434   1.569   9.474 -0.5140  1.8194 -1.1299
  627MOL0     H84603   1.483   1.413   9.296 -0.3580  0.9183  6.0933
  627MOL0     H84604   1.488   1.583   9.263 -0.2244  0.1396  1.3746
  627MOL0     H84605   1.346   1.322   8.968 -1.0117 -0.3959 -0.7231
  627MOL0     H84606   1.384   1.410   8.747 -0.8126 -0.3713  0.0470
  627MOL0     H84607   1.622   1.707   8.463  3.1607 -1.7766  0.3219
  627MOL0     H84608   1.670   1.695   8.213 -0.0052  3.5910  3.2332
  627MOL0     H84609   1.609   1.399   7.895  1.3766  0.6597  0.7240
  627MOL0     H84610   1.538   1.325   8.036 -0.9805 -1.9682 -1.9402
  627MOL0     H84611   1.315   1.440   7.965 -1.2082  3.2934 -2.6644
  627MOL0     H84612   1.379   1.509   7.837  1.8957 -0.1308  0.5064
  627MOL0     H84613   1.439   1.285   7.734 -1.1965 -4.2704 -1.1322
  627MOL0     H84614   1.376   1.205   7.884  2.4794 -3.0809 -4.8136
  627MOL0     H84615   1.231   1.194   7.696  3.2546 -0.3515  0.3177
  627MOL0     H84616   1.222   1.365   7.676 -0.6566 -0.0240  0.0506
  627MOL0     H84617   1.017   1.282   7.794  0.1930 -0.7421  1.1559
  627MOL0     H84618   1.099   1.411   7.876 -3.0273  0.9229 -1.1144
  627MOL0     H84619   1.162   1.117   7.926 -1.9539 -0.8003 -0.8675
  627MOL0     H84620   1.191   1.247   8.042  1.4157 -1.3814  0.0787
  627MOL0     H84621   0.991   1.088   8.082 -0.4519 -0.8918 -1.4878
  627MOL0     H84622   0.912   1.149   7.952 -0.9702 -1.5623  0.6818
  627MOL0     H84623   0.978   1.379   8.107  2.0360 -0.8453 -1.5577
  627MOL0     H84624   0.821   1.327   8.065  0.4886  1.8104  0.1700
  627MOL0     H84625   1.350   1.406   8.172 -0.4005  2.3925 -1.0185
  627MOL0     H84626   1.305   1.426   8.401 -0.2846  0.2821 -0.0786
  627MOL0     H84627   1.333   1.817   8.876 -0.7579 -0.8695 -2.8365
  627MOL0     H84628   1.284   1.708   9.114  0.4739 -1.8125  1.3374
  627MOL0     H84629   1.958   2.485   9.594 -1.1509 -2.4349  3.2397
  627MOL0     H84630   1.942   2.712   9.529 -0.6146 -1.3336 -0.6143
  627MOL0     H84631   2.197   2.981   9.383  1.5076  1.0658 -1.9578
  627MOL0     H84632   2.163   3.152   9.210 -0.2085 -1.4854  1.0611
  627MOL0     H84633   2.158   3.320   9.075 -0.6470 -0.6578  0.4264
  627MOL0     H84634   2.045   3.454   9.037 -1.1274 -0.3130  0.6340
  627MOL0     H84635   1.842   3.300   9.021 -0.7356 -3.2465  0.7802
  627MOL0     H84636   1.941   3.164   9.045 -0.5632  1.8720  4.0071
  627MOL0     H84637   1.983   3.381   8.843 -1.1530  1.4173  2.6058
  627MOL0     H84638   1.896   3.244   8.804 -0.9761  0.3567  1.3569
  627MOL0     H84639   2.101   3.189   8.713  0.5806 -1.3381  0.4073
  627MOL0     H84640   2.200   3.224   8.858 -0.8313  3.1695  0.6655
  627MOL0     H84641   2.057   2.876   9.015 -0.2339  0.2990 -0.2308
  627MOL0     H84642   1.950   3.402   9.470 -2.5058 -0.7771  1.0588
  627MOL0     H84643   1.948   3.374   9.691 -0.1402 -0.1405  0.9374
  627MOL0     H84644   1.846   3.240   9.686 -0.8698  0.9841  1.4469
  627MOL0     H84645   2.012   3.230   9.765 -1.4297 -1.8975 -0.2341
  628MOL0     O84646   4.220   0.646   9.307 -0.0609  0.4019 -0.6536
  628MOL0     C84647   4.163   0.705   9.401  0.2462 -0.5364  0.1773
  628MOL0     O84648   4.201   0.707   9.534 -0.5183 -0.3731  0.9507
  628MOL0     C84649   4.299   0.615   9.573 -0.4346  0.3736 -0.4362
  628MOL0     C84650   4.422   0.662   9.601 -0.7842  0.0016 -0.0724
  628MOL0     C84651   4.533   0.577   9.619  0.1661 -0.0471 -0.5565
  628MOL0     C84652   4.503   0.440   9.607  0.0574 -0.6961 -0.3633
  628MOL0     O84653   4.610   0.358   9.625  0.5304  0.4282  0.0238
  628MOL0     C84654   4.608   0.247   9.539  0.6972 -1.3155 -0.1692
  628MOL0     C84655   4.737   0.239   9.465  0.6805  0.3359 -0.2381
  628MOL0     C84656   4.853   0.203   9.537 -0.8414  0.2745 -0.6141
  628MOL0     C84657   4.954   0.160   9.440  1.2183  0.3177  0.5052
  628MOL0     C84658   5.098   0.124   9.492  1.1966  0.8835 -1.1904
  628MOL0     C84659   5.173   0.026   9.405 -0.3780 -0.4009 -0.1870
  628MOL0     C84660   5.313  -0.007   9.453  0.3156  0.4683 -0.3938
  628MOL0     C84661   5.388  -0.100   9.363 -0.1165 -0.4877  0.4968
  628MOL0     N84662   5.491  -0.187   9.428  0.2836  0.2775  0.0677
  628MOL0     C84663   5.552  -0.181   9.548 -0.5574 -0.3343 -0.3744
  628MOL0     C84664   5.618  -0.295   9.567 -0.8707  0.3636  0.4592
  628MOL0     C84665   5.703  -0.339   9.685  0.3030  0.4627 -0.1124
  628MOL0     C84666   5.799  -0.454   9.646 -0.3675 -0.0800  0.3259
  628MOL0     C84667   5.725  -0.588   9.654  0.3378 -0.1759  0.3476
  628MOL0     C84668   5.820  -0.707   9.682  0.0594  0.5305 -0.6883
  628MOL0     O84669   5.742  -0.828   9.667 -0.1166 -0.2743 -0.4039
  628MOL0     C84670   5.671  -0.873   9.775 -0.2464  0.9023  1.5122
  628MOL0     C84671   5.679  -0.828   9.906  0.8629 -0.2202 -0.4008
  628MOL0     C84672   5.595  -0.869  10.015  0.2356  0.8911 -0.4274
  628MOL0     C84673   5.505  -0.977   9.984  0.5586  0.0554  0.9747
  628MOL0     C84674   5.404  -1.040  10.079 -0.6763 -0.0695  0.4010
  628MOL0     O84675   5.408  -0.999  10.212 -0.5459 -0.0345 -0.2174
  628MOL0     C84676   5.303  -1.022  10.296  0.3854 -0.0515  0.2594
  628MOL0     C84677   5.160  -1.026  10.260  0.0568  0.1295 -0.4794
  628MOL0     C84678   5.058  -1.057  10.354  0.6245  1.4921  0.7962
  628MOL0     C84679   5.092  -1.081  10.489 -0.5826  0.3178  0.6661
  628MOL0     O84680   4.992  -1.110  10.575  0.0991 -0.6650  0.5457
  628MOL0     C84681   5.029  -1.118  10.717 -0.9044  0.9840 -0.0865
  628MOL0     C84682   4.896  -1.133  10.788  0.1654  0.2874  0.2712
  628MOL0     C84683   4.907  -1.147  10.944 -0.5855  0.3748  0.7020
  628MOL0     C84684   4.769  -1.176  10.995  0.1773 -0.7893 -0.5396
  628MOL0     C84685   4.657  -1.063  10.963  0.0639  0.8043  0.0781
  628MOL0     C84686   4.679  -0.916  11.004  1.0377  0.3873 -0.5175
  628MOL0     C84687   4.590  -0.871  11.121  0.6691  1.3067  0.1163
  628MOL0     C84688   4.610  -0.735  11.174 -0.7612 -0.0314 -1.2383
  628MOL0    Cl84689   4.519  -0.694  11.326  0.4829  0.0868 -0.1847
  628MOL0     C84690   5.227  -1.086  10.516  0.3715 -0.8648 -0.3512
  628MOL0     C84691   5.321  -1.056  10.424  0.5171  0.2531 -0.2824
  628MOL0     O84692   5.350  -1.133  10.032 -0.1692 -0.7948  0.8942
  628MOL0     C84693   5.503  -1.026   9.850 -0.8841 -0.6981  0.4406
  628MOL0     C84694   5.577  -0.973   9.753 -0.4581 -0.3761  0.0924
  628MOL0     N84695   5.591  -0.379   9.454  0.0701  1.0765 -0.1553
  628MOL0     N84696   5.512  -0.312   9.385 -0.3808  0.1535  0.4654
  628MOL0     C84697   4.367   0.390   9.591 -0.2558 -0.0909  0.7722
  628MOL0     C84698   4.263   0.479   9.582  0.0741 -0.2505  0.6287
  628MOL0     C84699   4.064   0.801   9.368  0.6832  0.3584  0.4552
  628MOL0     C84700   3.938   0.747   9.331  0.9038  0.3067  0.0232
  628MOL0     C84701   3.836   0.842   9.300  0.4466  0.6809 -0.7191
  628MOL0     C84702   3.870   0.974   9.277 -0.0242 -0.0779  0.0528
  628MOL0     O84703   3.765   1.058   9.261 -0.3642  0.0359 -0.3374
  628MOL0     C84704   3.728   1.119   9.387  0.9308  0.0050  0.4710
  628MOL0     C84705   3.641   1.239   9.358 -0.4582 -0.4619 -0.5552
  628MOL0     C84706   3.715   1.369   9.320 -0.4227  0.0407 -0.4566
  628MOL0     C84707   3.641   1.477   9.256 -0.0252 -0.0594  0.2626
  628MOL0     C84708   3.733   1.589   9.217  0.3643  0.2832 -0.1394
  628MOL0     C84709   3.822   1.666   9.184 -0.1793 -0.2173 -0.5187
  628MOL0     C84710   3.997   1.022   9.300  0.0235  0.0314  0.2506
  628MOL0     C84711   4.097   0.937   9.354 -0.6074  0.1357  1.4668
  628MOL0     C84712   4.229   0.988   9.392 -0.3798 -0.8948  0.2468
  628MOL0     H84713   4.439   0.769   9.606  3.1915 -0.5205  2.0549
  628MOL0     H84714   4.632   0.615   9.640  0.5865 -2.3262  2.0432
  628MOL0     H84715   4.590   0.157   9.599  4.8274 -0.9792  1.8830
  628MOL0     H84716   4.532   0.260   9.461  1.4373  2.1598 -0.4872
  628MOL0     H84717   4.761   0.340   9.432  0.9920  0.8998  1.6382
  628MOL0     H84718   4.721   0.168   9.383 -0.2661  1.0949 -0.7223
  628MOL0     H84719   4.821   0.118   9.598 -0.3023  0.6629  0.2184
  628MOL0     H84720   4.889   0.279   9.607  0.0592 -2.2159  1.7971
  628MOL0     H84721   4.912   0.069   9.396  2.6010 -1.0003  1.8364
  628MOL0     H84722   4.963   0.238   9.363  2.8077 -1.1349 -0.8677
  628MOL0     H84723   5.153   0.218   9.486 -1.9858  3.2546  2.3892
  628MOL0     H84724   5.100   0.085   9.594  0.2992 -0.8201 -1.7841
  628MOL0     H84725   5.107  -0.059   9.383 -1.3484  0.3625 -0.2979
  628MOL0     H84726   5.185   0.087   9.315 -3.1400 -0.7785 -0.8922
  628MOL0     H84727   5.294  -0.052   9.551 -1.8548  0.0466 -0.9561
  628MOL0     H84728   5.381   0.078   9.457  0.4823  0.3408 -0.5044
  628MOL0     H84729   5.317  -0.171   9.320 -0.8512  0.5302 -0.0155
  628MOL0     H84730   5.432  -0.046   9.279  0.3600  0.8580  1.5599
  628MOL0     H84731   5.556  -0.094   9.613  1.3691  0.0654 -0.9611
  628MOL0     H84732   5.771  -0.257   9.709 -0.2635  0.2552  2.3945
  628MOL0     H84733   5.643  -0.360   9.774 -1.3096  1.1999 -0.9679
  628MOL0     H84734   5.843  -0.438   9.547  1.6247 -3.2466  0.5429
  628MOL0     H84735   5.884  -0.455   9.714  1.0642 -0.8634 -1.3810
  628MOL0     H84736   5.687  -0.601   9.552  3.8637 -1.0560 -1.0212
  628MOL0     H84737   5.647  -0.582   9.730  0.1301 -2.2223  0.3567
  628MOL0     H84738   5.869  -0.702   9.780 -2.2206  0.7522  0.5230
  628MOL0     H84739   5.896  -0.707   9.604  0.7371  2.1972 -0.0813
  628MOL0     H84740   5.732  -0.734   9.919 -0.7343  0.8433 -1.1551
  628MOL0     H84741   5.607  -0.822  10.112  1.2595 -0.7892  0.3047
  628MOL0     H84742   5.134  -1.003  10.157 -5.7659  0.8707  0.8062
  628MOL0     H84743   4.962  -1.065  10.304  1.3136 -0.8868 -0.2683
  628MOL0     H84744   5.097  -1.200  10.743  0.9967  1.5816 -2.8305
  628MOL0     H84745   5.085  -1.026  10.736 -1.4734  2.0171 -2.9243
  628MOL0     H84746   4.845  -1.040  10.763 -1.0748 -0.0794  1.3163
  628MOL0     H84747   4.842  -1.217  10.743  0.5883  0.1416  0.0313
  628MOL0     H84748   4.975  -1.232  10.956 -2.3598 -0.8548  2.7363
  628MOL0     H84749   4.957  -1.057  10.981 -2.9500  1.7039  0.8503
  628MOL0     H84750   4.776  -1.179  11.105 -0.5054 -0.0986 -0.4648
  628MOL0     H84751   4.727  -1.266  10.950 -2.3025 -1.4197  2.6119
  628MOL0     H84752   4.567  -1.104  11.007  1.6857 -1.5836  1.3868
  628MOL0     H84753   4.645  -1.056  10.854  2.4878 -0.1089 -0.3192
  628MOL0     H84754   4.784  -0.894  11.026  0.6412  4.2304 -1.7336
  628MOL0     H84755   4.654  -0.852  10.919  0.8021 -1.3210 -1.7760
  628MOL0     H84756   4.603  -0.945  11.200  0.5001  3.4490  2.2921
  628MOL0     H84757   4.485  -0.888  11.097  0.8642 -0.7838  0.5417
  628MOL0     H84758   4.718  -0.727  11.184 -0.8390 -1.7707  2.8670
  628MOL0     H84759   4.586  -0.663  11.095 -2.4567 -0.0091 -0.7400
  628MOL0     H84760   5.272  -1.109  10.612  3.2426  2.2012 -0.7746
  628MOL0     H84761   5.425  -1.079  10.445  0.9928  1.6708 -0.9561
  628MOL0     H84762   5.442  -1.110   9.818  0.8061 -1.9011  0.2387
  628MOL0     H84763   5.554  -1.011   9.654 -0.1691 -2.1264  0.6647
  628MOL0     H84764   4.340   0.285   9.588 -0.2150 -0.0964  0.4976
  628MOL0     H84765   4.157   0.457   9.573 -0.1852  0.2239  2.2803
  628MOL0     H84766   3.903   0.644   9.325  1.9401 -0.1134  0.8056
  628MOL0     H84767   3.731   0.819   9.284  0.4035  0.5366 -0.2476
  628MOL0     H84768   3.806   1.152   9.456 -1.5876  0.6028  3.2404
  628MOL0     H84769   3.667   1.048   9.444 -1.7104  1.9850  0.3243
  628MOL0     H84770   3.567   1.265   9.435  1.4523  3.0723  0.3464
  628MOL0     H84771   3.585   1.207   9.270 -1.4401 -1.0118  0.2449
  628MOL0     H84772   3.798   1.350   9.251  0.2714 -0.5632  0.5298
  628MOL0     H84773   3.757   1.404   9.415 -3.2189  1.4272  0.3741
  628MOL0     H84774   3.579   1.435   9.177  0.9821  0.5081 -0.8673
  628MOL0     H84775   3.569   1.517   9.328  0.3733  2.0526 -0.4359
  628MOL0     H84776   3.897   1.736   9.152 -2.1023  3.6369  2.5429
  628MOL0     H84777   4.003   1.129   9.288 -1.7958 -0.0171 -1.6009
  628MOL0     H84778   4.312   0.929   9.353  0.5681  1.2616 -1.2445
  628MOL0     H84779   4.233   1.087   9.345 -0.8030 -1.3352 -0.7330
  628MOL0     H84780   4.241   1.004   9.500  1.2988 -0.1278 -0.0196
  629MOL0     O84781   6.123   2.015   9.810 -0.2383  0.2775 -0.0796
  629MOL0     C84782   6.108   1.908   9.749 -0.0234 -0.6435 -0.1797
  629MOL0     O84783   6.151   1.785   9.783 -0.4466  0.7562  0.1478
  629MOL0     C84784   6.208   1.751   9.906 -0.2801 -0.5887 -1.1728
  629MOL0     C84785   6.151   1.816  10.018  0.0435  0.5510 -0.0009
  629MOL0     C84786   6.212   1.801  10.143  0.0581 -1.0312 -0.1835
  629MOL0     C84787   6.302   1.697  10.170 -0.6362 -0.3680 -0.1162
  629MOL0     O84788   6.360   1.666  10.294  0.7961  0.0199 -0.4443
  629MOL0     C84789   6.380   1.770  10.394 -0.4346  0.3293 -0.4981
  629MOL0     C84790   6.529   1.802  10.409 -0.5971 -0.3737 -0.5526
  629MOL0     C84791   6.550   1.905  10.524  0.1472  0.4887  0.5860
  629MOL0     C84792   6.547   1.850  10.662 -0.0879  0.8849 -0.7544
  629MOL0     C84793   6.576   1.945  10.772 -0.0234 -0.7489 -0.3194
  629MOL0     C84794   6.706   2.031  10.742  0.3666 -0.3645 -0.7534
  629MOL0     C84795   6.744   2.119  10.864 -0.8395  0.0622 -0.6823
  629MOL0     C84796   6.655   2.235  10.866 -0.4069 -0.9210  0.8902
  629MOL0     N84797   6.676   2.317  10.986  0.1283  0.1055 -0.4402
  629MOL0     C84798   6.797   2.369  11.037  0.1132 -0.0785  0.4256
  629MOL0     C84799   6.757   2.468  11.124 -0.1582  0.4816 -0.0783
  629MOL0     C84800   6.847   2.566  11.191  0.2993 -0.1400 -0.3400
  629MOL0     C84801   6.821   2.716  11.133 -0.2039  0.5052 -0.2346
  629MOL0     C84802   6.930   2.818  11.173  0.3882 -0.3868  0.0552
  629MOL0     C84803   7.057   2.797  11.094 -0.7789 -0.3791 -0.8475
  629MOL0     O84804   7.148   2.901  11.124  0.8668 -0.4692  0.1941
  629MOL0     C84805   7.228   2.900  11.226 -0.8407  0.1329  0.2792
  629MOL0     C84806   7.206   2.981  11.333 -1.0081 -0.7490 -0.1154
  629MOL0     C84807   7.276   2.970  11.460 -0.0614 -0.3050  0.0469
  629MOL0     C84808   7.390   2.886  11.464 -0.7835  0.1797  0.0102
  629MOL0     C84809   7.476   2.872  11.588  0.6382  0.8192  0.7851
  629MOL0     O84810   7.480   2.979  11.674  0.8738 -0.0039 -0.7046
  629MOL0     C84811   7.561   2.968  11.782  0.6444  0.2129  0.1581
  629MOL0     C84812   7.516   2.873  11.882  0.5132 -0.8054  0.2379
  629MOL0     C84813   7.588   2.856  11.992 -0.0149  0.5359 -0.4786
  629MOL0     C84814   7.716   2.916  12.002 -0.7530 -0.7837 -0.9819
  629MOL0     O84815   7.811   2.894  12.108  1.2421 -0.4127 -0.2349
  629MOL0     C84816   7.795   2.792  12.212  0.9898 -1.1172  0.1041
  629MOL0     C84817   7.897   2.824  12.322 -0.2850 -0.6539 -0.0623
  629MOL0     C84818   7.888   2.715  12.427  0.0724  0.7603 -0.7721
  629MOL0     C84819   7.962   2.753  12.560 -0.4941  0.3118  0.3695
  629MOL0     C84820   7.888   2.692  12.680  0.1726  0.5178  0.4865
  629MOL0     C84821   7.909   2.534  12.682 -0.4171  0.4030  0.9528
  629MOL0     C84822   7.826   2.471  12.798 -0.5223 -0.5225 -0.1915
  629MOL0     C84823   7.850   2.314  12.792 -0.1373 -0.3853  0.8163
  629MOL0    Cl84824   8.011   2.246  12.853 -0.1415  0.2294 -0.5962
  629MOL0     C84825   7.768   2.995  11.895 -0.0689  0.0351  0.2437
  629MOL0     C84826   7.689   3.015  11.784 -0.2709 -0.8474  0.1764
  629MOL0     O84827   7.549   2.769  11.591  0.0096  0.1108  0.8038
  629MOL0     C84828   7.421   2.808  11.343 -0.2015  1.1091 -0.1117
  629MOL0     C84829   7.341   2.818  11.226  1.0613 -0.1922  0.9149
  629MOL0     N84830   6.616   2.467  11.121 -0.8187  0.5392 -0.0447
  629MOL0     N84831   6.571   2.381  11.034  0.0677 -0.5085 -0.4966
  629MOL0     C84832   6.346   1.621  10.059 -0.5484 -1.6827  0.5331
  629MOL0     C84833   6.304   1.645   9.929  0.5196 -0.5092  0.3516
  629MOL0     C84834   6.054   1.921   9.611  0.5109 -0.3804  0.0872
  629MOL0     C84835   6.038   2.053   9.562 -0.4851  0.5301  1.0117
  629MOL0     C84836   6.004   2.061   9.423  0.7618 -0.3217 -0.3234
  629MOL0     C84837   5.966   1.959   9.338 -0.6880  1.1310  0.5211
  629MOL0     O84838   5.926   1.983   9.204  0.8453  0.3229 -0.2881
  629MOL0     C84839   5.822   1.893   9.155 -0.0704 -0.5992  0.8609
  629MOL0     C84840   5.708   1.980   9.081  0.2772  0.9750  0.4773
  629MOL0     C84841   5.600   1.875   9.039  0.0524 -0.4415  0.2375
  629MOL0     C84842   5.462   1.942   9.008 -0.0877 -1.1293  0.2556
  629MOL0     C84843   5.404   2.024   9.114 -0.4388 -1.2527 -0.7224
  629MOL0     C84844   5.369   2.088   9.214 -0.0118 -0.3999  1.3430
  629MOL0     C84845   5.968   1.828   9.392 -0.5169  0.4378  0.8458
  629MOL0     C84846   6.013   1.809   9.529 -0.8477  0.8324  0.2187
  629MOL0     C84847   5.998   1.664   9.573  1.3533  0.2950 -0.3829
  629MOL0     H84848   6.066   1.884  10.019 -1.0251 -0.7423  0.8821
  629MOL0     H84849   6.175   1.863  10.225 -0.4776  0.3084 -1.3828
  629MOL0     H84850   6.342   1.866  10.359 -1.4111 -0.1491 -0.7970
  629MOL0     H84851   6.344   1.733  10.491 -2.9002 -0.0856 -1.4878
  629MOL0     H84852   6.575   1.841  10.318 -1.6684 -1.8106 -1.7643
  629MOL0     H84853   6.588   1.712  10.427  1.0399  0.6862 -0.4358
  629MOL0     H84854   6.472   1.979  10.508  1.0127  1.2575 -0.1788
  629MOL0     H84855   6.645   1.959  10.513  0.9284 -0.9525 -0.0394
  629MOL0     H84856   6.451   1.803  10.688  1.9400 -2.9380  0.6554
  629MOL0     H84857   6.625   1.777  10.683  1.0253  2.5689  1.3833
  629MOL0     H84858   6.495   2.017  10.769  1.5344  1.3286  2.4453
  629MOL0     H84859   6.587   1.903  10.873 -1.1354 -0.9981 -0.2891
  629MOL0     H84860   6.787   1.960  10.724  1.2128 -0.0819  1.5408
  629MOL0     H84861   6.700   2.097  10.655 -2.0624  2.5296  1.3737
  629MOL0     H84862   6.846   2.155  10.856 -0.5658 -0.4557  0.2483
  629MOL0     H84863   6.723   2.070  10.961 -0.8331  3.0406  0.9390
  629MOL0     H84864   6.687   2.300  10.785  3.9506 -1.0512  2.2453
  629MOL0     H84865   6.547   2.219  10.860 -1.4905  4.5078  0.7949
  629MOL0     H84866   6.898   2.339  11.009  0.1916 -0.2760  0.9103
  629MOL0     H84867   6.821   2.564  11.297 -3.0565 -2.4921 -1.0607
  629MOL0     H84868   6.952   2.534  11.187  0.3902  0.1349 -0.1303
  629MOL0     H84869   6.806   2.708  11.025  1.7517  2.2600 -0.7038
  629MOL0     H84870   6.727   2.754  11.173 -0.1528 -0.8501  1.3334
  629MOL0     H84871   6.939   2.809  11.282 -2.3920  0.9252  0.4739
  629MOL0     H84872   6.896   2.920  11.158 -0.3670 -0.2996  2.0036
  629MOL0     H84873   7.035   2.792  10.987  0.0737  0.2892 -1.0696
  629MOL0     H84874   7.106   2.706  11.127  2.6866  1.1316 -1.4257
  629MOL0     H84875   7.123   3.051  11.334  1.0952  1.8583  0.2901
  629MOL0     H84876   7.235   3.020  11.547 -5.5883  0.5034 -2.5879
  629MOL0     H84877   7.423   2.820  11.872 -0.7896  0.2613  4.5460
  629MOL0     H84878   7.556   2.786  12.068  0.1178  2.0632  1.0504
  629MOL0     H84879   7.694   2.792  12.253  0.0269 -0.6814 -2.1200
  629MOL0     H84880   7.809   2.692  12.172 -1.5833 -0.1436 -3.7949
  629MOL0     H84881   7.997   2.845  12.283 -0.9934 -0.4447 -1.8644
  629MOL0     H84882   7.867   2.919  12.367 -1.9727 -1.1178 -0.1485
  629MOL0     H84883   7.784   2.688  12.447  0.5049 -0.5710 -0.1943
  629MOL0     H84884   7.941   2.628  12.386 -0.1278 -2.4117  4.6551
  629MOL0     H84885   7.964   2.862  12.569  1.9579  0.3702 -0.0962
  629MOL0     H84886   8.070   2.734  12.560 -0.1853  1.8850 -0.9012
  629MOL0     H84887   7.781   2.713  12.674 -0.1754 -1.0668  0.5430
  629MOL0     H84888   7.924   2.730  12.776 -1.5453  0.0268  1.3624
  629MOL0     H84889   7.866   2.486  12.593  1.5826  4.4549 -2.5139
  629MOL0     H84890   8.016   2.510  12.680 -0.1023  1.7172 -1.7530
  629MOL0     H84891   7.721   2.501  12.792 -0.7872 -0.5835  2.7792
  629MOL0     H84892   7.866   2.512  12.892 -0.8267  1.4201 -0.8523
  629MOL0     H84893   7.775   2.260  12.851 -1.4008  0.2368 -0.1780
  629MOL0     H84894   7.830   2.278  12.691  0.2030 -1.4218  1.0978
  629MOL0     H84895   7.870   3.032  11.897  1.3507 -3.4341 -0.2815
  629MOL0     H84896   7.716   3.070  11.694 -1.3203 -1.2980 -0.4362
  629MOL0     H84897   7.503   2.740  11.326  0.6113  2.0099  0.1192
  629MOL0     H84898   7.358   2.754  11.140 -0.4923  0.9334 -0.2930
  629MOL0     H84899   6.423   1.549  10.085  4.3336  2.6168 -0.3530
  629MOL0     H84900   6.348   1.585   9.849  3.3932  1.7765  0.0201
  629MOL0     H84901   6.067   2.143   9.614 -0.6106 -1.2923  4.5083
  629MOL0     H84902   6.000   2.164   9.391 -2.6566 -0.5529 -1.0562
  629MOL0     H84903   5.778   1.845   9.243 -1.6593  1.2374  1.1482
  629MOL0     H84904   5.854   1.816   9.084 -2.2237 -0.2855 -0.5081
  629MOL0     H84905   5.745   2.041   8.999  0.0515  0.6644  0.1439
  629MOL0     H84906   5.655   2.054   9.143 -0.8683 -1.0191  2.0139
  629MOL0     H84907   5.583   1.807   9.123  0.2211 -2.5927 -1.3734
  629MOL0     H84908   5.636   1.816   8.954 -0.8574 -3.6842  1.9445
  629MOL0     H84909   5.483   2.015   8.929 -1.9289  1.5710  2.0733
  629MOL0     H84910   5.398   1.861   8.972  1.8651 -3.5240  1.8323
  629MOL0     H84911   5.341   2.124   9.311 -3.2108 -0.9584  0.7293
  629MOL0     H84912   5.949   1.746   9.323  2.5889  2.7030 -3.1449
  629MOL0     H84913   5.940   1.652   9.666 -1.0317 -1.6826 -1.9971
  629MOL0     H84914   5.955   1.589   9.506  1.1579 -2.7310  2.8049
  629MOL0     H84915   6.097   1.629   9.603  0.2103 -0.3567  3.1814
  630MOL0     O84916   3.324   0.279   5.441  0.0282  0.3422  0.6363
  630MOL0     C84917   3.436   0.264   5.483  0.4419  0.0964  0.5161
  630MOL0     O84918   3.534   0.207   5.422  0.6486  0.3294  0.1530
  630MOL0     C84919   3.640   0.163   5.489  0.5996 -0.6146  0.1942
  630MOL0     C84920   3.619   0.080   5.596 -0.6631 -0.1615  0.1432
  630MOL0     C84921   3.731   0.014   5.641  0.3090 -0.3641 -0.3045
  630MOL0     C84922   3.867   0.055   5.621  0.4051 -0.1206  1.2745
  630MOL0     O84923   3.970  -0.001   5.679  0.5299 -0.1920  0.3198
  630MOL0     C84924   4.056   0.074   5.766  0.0448 -0.7290 -0.7349
  630MOL0     C84925   4.095   0.010   5.905  0.3520 -0.6594  0.5561
  630MOL0     C84926   3.967  -0.014   5.993  0.3514  0.2086 -0.0773
  630MOL0     C84927   3.918  -0.155   5.969  0.9517  0.6042  0.1151
  630MOL0     C84928   3.794  -0.186   6.066  0.1867  0.3023  0.0124
  630MOL0     C84929   3.673  -0.120   6.018  0.1649 -0.2203  0.8608
  630MOL0     C84930   3.549  -0.160   6.095 -0.4559 -0.0026  0.4443
  630MOL0     C84931   3.426  -0.064   6.065  0.2737  0.0026  0.8290
  630MOL0     N84932   3.296  -0.105   6.113 -0.7229  0.1418  0.2995
  630MOL0     C84933   3.278  -0.157   6.237 -0.1053  0.5700 -0.3174
  630MOL0     C84934   3.147  -0.163   6.257  0.5389  0.3030  0.1547
  630MOL0     C84935   3.075  -0.205   6.386  0.7930  0.7645  0.0950
  630MOL0     C84936   3.122  -0.152   6.514  0.2033  0.6031  0.1284
  630MOL0     C84937   3.061  -0.008   6.556 -0.1394  0.3271 -0.2265
  630MOL0     C84938   2.912  -0.002   6.601  0.2473  1.1211 -0.2845
  630MOL0     O84939   2.906  -0.006   6.752 -0.9281  0.0094 -0.2830
  630MOL0     C84940   2.798  -0.048   6.822  0.1463 -0.1349  0.2250
  630MOL0     C84941   2.670  -0.037   6.769  0.4669  0.4724  0.3610
  630MOL0     C84942   2.557  -0.059   6.840  0.8505 -1.0135 -0.5198
  630MOL0     C84943   2.564  -0.079   6.981  0.0928  0.8296  0.2510
  630MOL0     C84944   2.449  -0.094   7.075  0.1061  0.3101 -0.3198
  630MOL0     O84945   2.329  -0.073   7.024  1.1161 -0.3836  0.2901
  630MOL0     C84946   2.211  -0.095   7.090  0.6657  0.4855  0.5000
  630MOL0     C84947   2.141   0.011   7.145  0.0127  0.9585  0.4486
  630MOL0     C84948   2.009  -0.013   7.196 -0.5107 -0.7808  0.5440
  630MOL0     C84949   1.956  -0.143   7.206 -0.5328  0.7936  1.4006
  630MOL0     O84950   1.825  -0.145   7.248  0.2902 -0.0316 -0.2180
  630MOL0     C84951   1.765  -0.276   7.263 -0.5873 -0.1706  0.4535
  630MOL0     C84952   1.648  -0.261   7.351 -0.2372 -0.7063  0.3251
  630MOL0     C84953   1.563  -0.388   7.356 -0.8487 -0.0439  0.3392
  630MOL0     C84954   1.511  -0.389   7.495 -0.3919  0.3813  0.3945
  630MOL0     C84955   1.418  -0.511   7.523 -0.1553 -0.6493 -0.3680
  630MOL0     C84956   1.395  -0.545   7.670  0.1011 -0.0217 -0.3531
  630MOL0     C84957   1.332  -0.688   7.677 -0.1299 -0.2527 -0.4866
  630MOL0     C84958   1.277  -0.710   7.820  0.4826  0.3855  0.0763
  630MOL0    Cl84959   1.141  -0.822   7.817 -0.0663  0.1141  0.5730
  630MOL0     C84960   2.039  -0.256   7.163  0.4813 -0.8638 -0.4273
  630MOL0     C84961   2.163  -0.224   7.101  0.0878 -0.6027 -0.4776
  630MOL0     O84962   2.474  -0.126   7.194  0.7674  0.1469  0.0981
  630MOL0     C84963   2.693  -0.070   7.036  0.0197  0.6485 -0.0358
  630MOL0     C84964   2.808  -0.057   6.958 -0.7822  0.4686 -0.7020
  630MOL0     N84965   3.092  -0.125   6.140  0.4456 -0.2652 -0.0443
  630MOL0     N84966   3.176  -0.075   6.062 -0.4793 -0.7833  0.2473
  630MOL0     C84967   3.876   0.150   5.521 -1.3849  0.4805 -0.4551
  630MOL0     C84968   3.769   0.205   5.453 -1.0500  0.3521  0.5380
  630MOL0     C84969   3.460   0.321   5.617 -0.1488  0.1316  0.3020
  630MOL0     C84970   3.569   0.410   5.649  0.2140  0.2559 -1.2511
  630MOL0     C84971   3.589   0.457   5.774  0.1296  0.5926 -0.0518
  630MOL0     C84972   3.514   0.418   5.875  0.5153 -0.4994 -0.1685
  630MOL0     O84973   3.541   0.470   5.998 -0.2304  0.2856  0.0328
  630MOL0     C84974   3.518   0.396   6.124 -0.4841  1.0594 -0.2852
  630MOL0     C84975   3.647   0.320   6.163  0.0645  0.5071 -0.4591
  630MOL0     C84976   3.755   0.427   6.213  0.6452  0.7404 -0.7748
  630MOL0     C84977   3.753   0.430   6.368 -0.3670 -0.1064  0.9647
  630MOL0     C84978   3.852   0.533   6.400 -0.2157 -1.3484 -0.3870
  630MOL0     C84979   3.921   0.619   6.443 -0.3254 -0.3362 -0.3145
  630MOL0     C84980   3.414   0.320   5.858  0.3852 -0.1970  0.4189
  630MOL0     C84981   3.380   0.273   5.728 -0.1962  0.0912  0.4278
  630MOL0     C84982   3.270   0.169   5.706 -0.2178 -0.9531 -0.1638
  630MOL0     H84983   3.524   0.035   5.623 -0.6690 -1.7061 -2.2197
  630MOL0     H84984   3.717  -0.075   5.701  1.3433  0.6737  1.5574
  630MOL0     H84985   4.150   0.098   5.715 -0.4229  1.8996 -0.4703
  630MOL0     H84986   4.010   0.169   5.793 -1.2991 -2.0637  2.1212
  630MOL0     H84987   4.156   0.089   5.952 -1.8624  0.5958  1.4999
  630MOL0     H84988   4.136  -0.088   5.880  0.7602  0.2577 -2.7745
  630MOL0     H84989   3.898   0.065   5.961  1.6099  2.5835  2.6761
  630MOL0     H84990   3.975  -0.004   6.101 -0.6208 -3.5424  0.4741
  630MOL0     H84991   3.890  -0.163   5.864  0.2836 -1.7706  0.4083
  630MOL0     H84992   3.991  -0.236   5.973  0.1677 -0.1915 -1.0681
  630MOL0     H84993   3.781  -0.295   6.073  0.8342  0.2921  1.4794
  630MOL0     H84994   3.815  -0.156   6.169  0.3018  0.4017 -0.0397
  630MOL0     H84995   3.688  -0.012   6.031 -0.9555 -0.3199  4.0122
  630MOL0     H84996   3.651  -0.133   5.912  0.0742  1.4051  0.6621
  630MOL0     H84997   3.584  -0.160   6.198  1.6114 -0.1429 -0.2130
  630MOL0     H84998   3.528  -0.265   6.072  0.2298  0.0408 -0.4556
  630MOL0     H84999   3.452   0.038   6.095 -0.4081  0.9056 -1.4330
  630MOL0     H85000   3.420  -0.052   5.957  0.5639  0.7820  0.8920
  630MOL0     H85001   3.355  -0.164   6.313  0.7097  1.0828 -1.0647
  630MOL0     H85002   2.967  -0.189   6.383  0.7670  0.3895 -1.2183
  630MOL0     H85003   3.093  -0.313   6.386 -5.9197 -0.7729  0.4973
  630MOL0     H85004   3.088  -0.218   6.594 -0.9576  0.9054 -0.1003
  630MOL0     H85005   3.231  -0.143   6.514  0.2087  0.5761 -0.7547
  630MOL0     H85006   3.070   0.044   6.460 -1.3966  0.6306 -0.1985
  630MOL0     H85007   3.129   0.034   6.631  3.3912  1.9147 -3.8647
  630MOL0     H85008   2.849  -0.081   6.558 -0.5303  0.8415  1.2694
  630MOL0     H85009   2.852   0.087   6.579 -6.9664 -2.8041  0.1604
  630MOL0     H85010   2.642  -0.012   6.667 -1.1965  1.8621  1.0992
  630MOL0     H85011   2.462  -0.031   6.795  0.3516  1.6506  1.9353
  630MOL0     H85012   2.192   0.106   7.137  1.4892  0.0813 -1.2823
  630MOL0     H85013   1.962   0.077   7.233  3.3485  1.2926  0.9027
  630MOL0     H85014   1.748  -0.327   7.168  3.8536  0.7331 -1.0375
  630MOL0     H85015   1.843  -0.336   7.312  0.8712  0.0092 -1.5391
  630MOL0     H85016   1.679  -0.222   7.449 -0.1532 -1.9985  0.8405
  630MOL0     H85017   1.576  -0.188   7.313 -0.5991 -0.2543  1.7979
  630MOL0     H85018   1.483  -0.378   7.283  0.2524  0.3048 -0.8494
  630MOL0     H85019   1.624  -0.477   7.337  0.2758  0.4296  1.5417
  630MOL0     H85020   1.468  -0.290   7.511 -1.1559  0.5866 -2.4360
  630MOL0     H85021   1.595  -0.400   7.565 -0.5275  1.6936  0.7895
  630MOL0     H85022   1.457  -0.603   7.477 -0.7569 -1.3127  0.4255
  630MOL0     H85023   1.317  -0.499   7.483 -0.5717  0.6762  1.0215
  630MOL0     H85024   1.495  -0.544   7.713  0.1102  2.8231 -0.2400
  630MOL0     H85025   1.333  -0.469   7.719 -2.1182 -1.7642 -0.3013
  630MOL0     H85026   1.400  -0.768   7.647  1.7390  1.4030 -0.8586
  630MOL0     H85027   1.248  -0.687   7.607 -1.2500  2.4059  0.7273
  630MOL0     H85028   1.350  -0.748   7.892  1.1023 -2.3452 -1.8172
  630MOL0     H85029   1.233  -0.614   7.850 -0.8259 -0.9084  2.5921
  630MOL0     H85030   2.007  -0.359   7.168 -0.3429 -0.5437  1.4859
  630MOL0     H85031   2.232  -0.300   7.065  3.5562  2.9645 -2.0745
  630MOL0     H85032   2.716  -0.084   7.141 -0.7914 -3.8481 -0.2782
  630MOL0     H85033   2.898  -0.065   7.019  0.0587  3.7533 -1.3180
  630MOL0     H85034   3.981   0.175   5.509  0.3859 -3.9150  3.2065
  630MOL0     H85035   3.780   0.277   5.373 -2.1506  0.1675  0.2160
  630MOL0     H85036   3.621   0.455   5.565  1.2582 -2.5989 -2.2356
  630MOL0     H85037   3.665   0.534   5.782 -1.5709  2.2955  0.1679
  630MOL0     H85038   3.441   0.319   6.121 -1.7265  2.2924 -1.2692
  630MOL0     H85039   3.502   0.464   6.208  2.6028 -1.8542  2.9968
  630MOL0     H85040   3.688   0.276   6.071  0.4541  0.6553 -0.3579
  630MOL0     H85041   3.633   0.238   6.233  2.4160 -0.1760 -0.7076
  630MOL0     H85042   3.724   0.525   6.176 -1.5241 -0.4770 -2.4076
  630MOL0     H85043   3.854   0.399   6.176 -0.8273 -3.1453 -2.3220
  630MOL0     H85044   3.655   0.449   6.411 -2.7774  2.0435 -4.4910
  630MOL0     H85045   3.798   0.335   6.401 -0.5081  0.0486  1.6085
  630MOL0     H85046   3.975   0.700   6.488 -0.0210 -0.0528 -1.1822
  630MOL0     H85047   3.352   0.300   5.945  1.5396 -1.0910  1.0666
  630MOL0     H85048   3.253   0.137   5.809  2.2450  2.3793  1.4548
  630MOL0     H85049   3.181   0.221   5.671  1.2540  1.9500  0.1042
  630MOL0     H85050   3.298   0.096   5.629  2.4090 -0.4163  0.1663
  631MOL0     O85051   0.870   5.603   4.689  0.0139 -0.6511 -0.2705
  631MOL0     C85052   0.851   5.642   4.804 -0.4899  0.8166 -0.1257
  631MOL0     O85053   0.886   5.765   4.853  0.0641 -0.0682 -0.0010
  631MOL0     C85054   0.911   5.881   4.779 -0.1868 -0.4225 -0.1130
  631MOL0     C85055   0.957   5.990   4.862  0.7469  0.0460  0.5232
  631MOL0     C85056   0.999   6.113   4.796 -0.1942  0.1172 -0.2767
  631MOL0     C85057   1.002   6.129   4.659  0.3845  0.1359  0.1212
  631MOL0     O85058   1.069   6.228   4.597  0.0539  1.1360 -0.5015
  631MOL0     C85059   1.012   6.355   4.600  0.0671 -0.7144  0.7535
  631MOL0     C85060   1.071   6.444   4.500  0.3232  0.4262  0.3899
  631MOL0     C85061   1.205   6.510   4.543 -0.5402  0.0424 -0.0754
  631MOL0     C85062   1.269   6.577   4.422  0.6940 -0.1167 -0.1794
  631MOL0     C85063   1.382   6.682   4.453  0.6039  0.4095  0.3134
  631MOL0     C85064   1.411   6.771   4.344 -0.0791  0.3168  0.7464
  631MOL0     C85065   1.495   6.722   4.219  0.0012  0.1127 -0.9403
  631MOL0     C85066   1.634   6.667   4.248  0.7717 -0.3306  0.8068
  631MOL0     N85067   1.699   6.626   4.115  0.0874  0.4238  0.3719
  631MOL0     C85068   1.771   6.711   4.032 -0.1041 -0.2464  0.0783
  631MOL0     C85069   1.787   6.646   3.916  0.1255 -0.1303 -1.0799
  631MOL0     C85070   1.860   6.686   3.796 -0.0052  0.0783  0.5466
  631MOL0     C85071   2.007   6.644   3.795 -0.2929 -0.7384  0.1495
  631MOL0     C85072   2.025   6.488   3.771  0.2520 -0.0968  0.9304
  631MOL0     C85073   1.929   6.420   3.671 -0.7350 -0.5521  0.6246
  631MOL0     O85074   1.949   6.480   3.544  0.6076 -0.6024 -0.5436
  631MOL0     C85075   1.870   6.437   3.436 -0.5619  0.6340  0.2695
  631MOL0     C85076   1.919   6.421   3.310  0.2270 -0.4318 -0.7650
  631MOL0     C85077   1.845   6.373   3.206  0.2639  0.8872 -0.2226
  631MOL0     C85078   1.716   6.355   3.219  0.5649 -0.4262  0.2194
  631MOL0     C85079   1.633   6.290   3.113 -0.5727 -0.7274 -0.0363
  631MOL0     O85080   1.504   6.294   3.142  0.8755  0.3862  0.7176
  631MOL0     C85081   1.417   6.246   3.043 -0.2413  0.1807  0.4804
  631MOL0     C85082   1.325   6.157   3.078  0.1650 -0.7612  0.2845
  631MOL0     C85083   1.213   6.113   2.991 -0.1963  0.8609 -0.1870
  631MOL0     C85084   1.214   6.150   2.856 -0.0529 -0.7726 -0.5226
  631MOL0     O85085   1.132   6.093   2.772 -0.1510 -0.9227  0.1244
  631MOL0     C85086   1.195   6.010   2.670  0.1199  0.8516 -0.2345
  631MOL0     C85087   1.147   5.864   2.672 -0.2747  0.0873  0.2871
  631MOL0     C85088   1.208   5.777   2.553 -0.9674  0.2644 -0.8954
  631MOL0     C85089   1.140   5.636   2.561 -0.1531 -0.2809  0.6861
  631MOL0     C85090   1.214   5.535   2.450  1.5090 -0.3402  1.2998
  631MOL0     C85091   1.162   5.393   2.445  0.4329  0.5096  0.3108
  631MOL0     C85092   1.239   5.300   2.345 -1.0550  0.5401  0.0654
  631MOL0     C85093   1.226   5.326   2.192 -0.1058  0.1984 -0.2756
  631MOL0    Cl85094   1.055   5.307   2.139  0.2613 -0.2384  0.1504
  631MOL0     C85095   1.319   6.241   2.823 -0.1571  0.8896  0.3608
  631MOL0     C85096   1.410   6.292   2.914 -0.3401  0.0266 -1.1872
  631MOL0     O85097   1.683   6.241   3.017 -0.7484  1.2865 -1.0035
  631MOL0     C85098   1.655   6.399   3.342 -0.3255  1.1036  0.5016
  631MOL0     C85099   1.736   6.444   3.448  0.0849  0.7695 -0.7964
  631MOL0     N85100   1.715   6.525   3.926  0.1460 -0.8023 -0.3018
  631MOL0     N85101   1.656   6.514   4.045 -0.1187  0.2758 -0.0619
  631MOL0     C85102   0.954   6.022   4.585 -0.4709 -0.3129  1.1927
  631MOL0     C85103   0.912   5.897   4.643  0.0037 -0.9511  0.6338
  631MOL0     C85104   0.775   5.553   4.897  0.1873  0.8769  0.0358
  631MOL0     C85105   0.735   5.606   5.020  0.0804 -0.6963 -0.8619
  631MOL0     C85106   0.680   5.535   5.124  0.1389 -0.6289 -0.1539
  631MOL0     C85107   0.654   5.391   5.105 -0.3724 -0.9280  1.0157
  631MOL0     O85108   0.580   5.307   5.182 -0.6921 -0.2557  0.2923
  631MOL0     C85109   0.510   5.359   5.297  0.9383  0.0535 -0.3114
  631MOL0     C85110   0.460   5.237   5.373 -0.1698  0.5294 -0.0382
  631MOL0     C85111   0.370   5.264   5.501 -1.0840 -0.1420  0.3482
  631MOL0     C85112   0.279   5.135   5.516  0.8466 -0.9313 -0.4136
  631MOL0     C85113   0.365   5.035   5.575  0.1659 -0.1715  0.0121
  631MOL0     C85114   0.446   4.956   5.612  0.7143 -0.2684 -0.1338
  631MOL0     C85115   0.702   5.333   4.990 -0.5693  1.2134 -0.4214
  631MOL0     C85116   0.762   5.407   4.884 -0.3865  1.0766 -0.0188
  631MOL0     C85117   0.827   5.330   4.776  0.6273  0.2534 -0.4845
  631MOL0     H85118   0.970   5.980   4.969  1.2025 -0.0687  0.4598
  631MOL0     H85119   1.035   6.193   4.861 -2.1429  0.4527  0.4547
  631MOL0     H85120   0.904   6.356   4.584 -0.1300  1.2452  1.8125
  631MOL0     H85121   1.012   6.397   4.701 -1.8555  1.8099 -0.1958
  631MOL0     H85122   1.005   6.531   4.493 -1.6884 -0.7916  2.6758
  631MOL0     H85123   1.072   6.383   4.409 -3.5283 -0.1014  0.5333
  631MOL0     H85124   1.281   6.435   4.568  0.4414  0.6061 -1.2767
  631MOL0     H85125   1.204   6.581   4.626  4.0635 -1.7393  1.8993
  631MOL0     H85126   1.296   6.498   4.352  1.6620 -1.5039  1.6880
  631MOL0     H85127   1.192   6.642   4.377  1.5958  0.5575 -0.7921
  631MOL0     H85128   1.350   6.748   4.533  2.1987  0.1657  1.2036
  631MOL0     H85129   1.473   6.633   4.489  0.7173  0.0266 -0.4536
  631MOL0     H85130   1.320   6.800   4.291  0.7796  0.2092 -0.8309
  631MOL0     H85131   1.463   6.863   4.371 -1.6995  0.8068  2.4256
  631MOL0     H85132   1.509   6.801   4.145  0.9611 -2.0102 -3.1867
  631MOL0     H85133   1.428   6.648   4.173 -1.8052 -1.5662  3.6924
  631MOL0     H85134   1.698   6.752   4.276 -0.1718  0.5169  0.4615
  631MOL0     H85135   1.634   6.595   4.331  2.7622  0.9211  1.9910
  631MOL0     H85136   1.794   6.817   4.041 -2.0421  0.3037 -0.9418
  631MOL0     H85137   1.820   6.642   3.705  0.5927  1.3365 -0.3518
  631MOL0     H85138   1.836   6.793   3.790 -1.9627 -0.0784  3.5788
  631MOL0     H85139   2.053   6.693   3.708  0.3851  1.0682  1.4603
  631MOL0     H85140   2.062   6.680   3.882  0.8602 -1.6895 -0.1709
  631MOL0     H85141   2.002   6.444   3.868 -0.7049  1.5632  1.5017
  631MOL0     H85142   2.127   6.469   3.734 -0.0361  0.6635 -0.3381
  631MOL0     H85143   1.824   6.424   3.700 -1.7274 -0.3828 -2.6231
  631MOL0     H85144   1.967   6.319   3.650  1.7774  0.5904 -0.7522
  631MOL0     H85145   2.023   6.433   3.280 -0.2509  1.6136 -1.8273
  631MOL0     H85146   1.890   6.353   3.109 -0.5738  0.6805 -0.5764
  631MOL0     H85147   1.333   6.129   3.183 -0.1282 -0.8290  0.2905
  631MOL0     H85148   1.143   6.041   3.032  2.1440 -1.5711 -0.2172
  631MOL0     H85149   1.156   6.062   2.582  0.1073  0.4945 -0.4431
  631MOL0     H85150   1.304   6.014   2.671  0.1439  0.9074  2.0822
  631MOL0     H85151   1.176   5.813   2.764 -0.7906  0.2078  0.5202
  631MOL0     H85152   1.039   5.872   2.659 -0.1905  0.8389 -0.0226
  631MOL0     H85153   1.181   5.817   2.455 -1.1443  1.5539 -0.3462
  631MOL0     H85154   1.317   5.774   2.562 -1.0941  0.2542  0.9634
  631MOL0     H85155   1.031   5.631   2.555 -0.1479 -3.7233  1.2236
  631MOL0     H85156   1.164   5.592   2.658  2.5022 -0.3443  0.0640
  631MOL0     H85157   1.320   5.531   2.476  1.3480 -1.8880  1.8853
  631MOL0     H85158   1.185   5.561   2.348  0.6162 -1.6712  1.1860
  631MOL0     H85159   1.186   5.347   2.541 -0.6867  0.0311  0.3743
  631MOL0     H85160   1.054   5.387   2.437  0.2439  2.2320  0.9967
  631MOL0     H85161   1.197   5.202   2.368 -0.6739 -0.2341 -2.2136
  631MOL0     H85162   1.342   5.289   2.380 -0.4857  0.1098 -1.6120
  631MOL0     H85163   1.271   5.423   2.167 -2.1332  1.0715 -0.7506
  631MOL0     H85164   1.291   5.258   2.136  1.5237 -0.2971  2.0927
  631MOL0     H85165   1.310   6.272   2.720 -0.0440 -2.0573 -0.6464
  631MOL0     H85166   1.482   6.369   2.890  0.8366  0.0865  2.0868
  631MOL0     H85167   1.546   6.403   3.347 -0.6229  4.1169 -3.6899
  631MOL0     H85168   1.686   6.482   3.537  0.0694 -0.5895 -0.2125
  631MOL0     H85169   0.944   6.031   4.477 -2.6603  2.1418  1.5111
  631MOL0     H85170   0.877   5.821   4.574 -0.3445 -1.2144  1.0985
  631MOL0     H85171   0.748   5.709   5.050 -2.1071  0.1925 -2.7169
  631MOL0     H85172   0.656   5.585   5.217  1.0026  0.1550 -0.3376
  631MOL0     H85173   0.426   5.420   5.261  1.1460  0.4286 -0.1690
  631MOL0     H85174   0.568   5.414   5.371 -0.2165  0.5160  0.2746
  631MOL0     H85175   0.541   5.166   5.395 -1.7432 -1.4896 -0.4951
  631MOL0     H85176   0.403   5.183   5.297 -0.0971  1.0077 -0.4355
  631MOL0     H85177   0.308   5.351   5.478 -0.8675 -0.2334 -0.6182
  631MOL0     H85178   0.434   5.277   5.589 -0.0850  0.3033 -0.4251
  631MOL0     H85179   0.183   5.136   5.569  1.4751 -1.5768  0.7806
  631MOL0     H85180   0.245   5.109   5.415  2.3075  1.1116 -1.5247
  631MOL0     H85181   0.520   4.892   5.656  0.0993 -1.7159 -1.1540
  631MOL0     H85182   0.700   5.224   4.988 -1.4321  1.2306 -0.7783
  631MOL0     H85183   0.804   5.224   4.791  0.4832  0.5893  2.2508
  631MOL0     H85184   0.774   5.340   4.681 -0.4226  1.4048  0.1910
  631MOL0     H85185   0.935   5.342   4.774  0.6069  0.2771 -2.2470
  632MOL0     O85186   6.820   1.121   6.374  0.0132 -0.3167 -0.6637
  632MOL0     C85187   6.792   1.022   6.313  0.0768  0.0622  0.3258
  632MOL0     O85188   6.710   0.924   6.355 -0.0365 -0.7878  0.6061
  632MOL0     C85189   6.621   0.941   6.463  0.7885  1.1034  0.7920
  632MOL0     C85190   6.551   0.814   6.497 -0.4909  0.2960 -0.6993
  632MOL0     C85191   6.435   0.826   6.587  0.0948 -1.2312 -0.0952
  632MOL0     C85192   6.400   0.945   6.642  0.2707  0.8252  0.2137
  632MOL0     O85193   6.289   0.957   6.717  1.1378 -0.7518  0.8264
  632MOL0     C85194   6.297   0.912   6.855  0.0900 -0.9832  0.1199
  632MOL0     C85195   6.154   0.908   6.901  0.1308 -0.8773  0.0345
  632MOL0     C85196   6.095   1.046   6.927  0.0493 -0.7071  1.1524
  632MOL0     C85197   5.952   1.045   6.966 -0.8169  0.3860  0.3646
  632MOL0     C85198   5.903   1.186   6.957  0.3224  1.0631  0.1303
  632MOL0     C85199   5.755   1.201   6.996 -0.5936  0.0961  1.1519
  632MOL0     C85200   5.733   1.211   7.145  0.0264 -0.3702  0.0233
  632MOL0     C85201   5.583   1.259   7.179 -1.0672 -0.4229 -0.1481
  632MOL0     N85202   5.575   1.306   7.313  0.6956  0.3092 -0.7192
  632MOL0     C85203   5.597   1.232   7.429 -0.5924  0.2560  0.8083
  632MOL0     C85204   5.611   1.328   7.524  0.8328 -0.3243 -0.7266
  632MOL0     C85205   5.632   1.314   7.674  0.4406  1.0266  0.5547
  632MOL0     C85206   5.707   1.422   7.743 -0.0473 -0.2701 -1.0676
  632MOL0     C85207   5.861   1.389   7.748  0.5229 -0.2588 -0.1312
  632MOL0     C85208   5.911   1.387   7.602 -0.1729  0.4412 -0.7312
  632MOL0     O85209   6.064   1.380   7.600 -0.3165 -1.2597 -0.2267
  632MOL0     C85210   6.120   1.368   7.476 -0.0383 -0.8019  0.9075
  632MOL0     C85211   6.249   1.416   7.469  0.1627  0.4336  0.2347
  632MOL0     C85212   6.323   1.420   7.353 -0.5477  0.6362 -0.7464
  632MOL0     C85213   6.268   1.351   7.238  0.7483  0.0479 -0.3130
  632MOL0     C85214   6.350   1.360   7.112 -0.7319  0.5081  0.0402
  632MOL0     O85215   6.467   1.436   7.113  0.3897  0.3214  0.0077
  632MOL0     C85216   6.550   1.444   6.999  0.9626 -0.2749  0.3139
  632MOL0     C85217   6.582   1.569   6.952 -0.5979  0.5934 -0.0835
  632MOL0     C85218   6.668   1.585   6.844  0.1907 -0.3825 -0.6725
  632MOL0     C85219   6.733   1.486   6.780 -0.1553  0.4356 -0.6723
  632MOL0     O85220   6.822   1.489   6.680 -0.0442 -0.2717  0.0308
  632MOL0     C85221   6.822   1.611   6.598  0.3416  0.1602 -0.9069
  632MOL0     C85222   6.886   1.591   6.460 -0.0909 -0.1141 -0.3189
  632MOL0     C85223   6.882   1.721   6.399 -0.4928 -0.0533  0.9375
  632MOL0     C85224   6.961   1.716   6.269 -0.5375  0.2026  0.6907
  632MOL0     C85225   7.019   1.846   6.217 -0.1311 -0.3566  0.9311
  632MOL0     C85226   6.902   1.938   6.194  0.1494  0.9896 -0.9389
  632MOL0     C85227   6.949   2.067   6.142 -0.1436 -1.0748 -0.1706
  632MOL0     C85228   6.867   2.196   6.154 -0.2806 -0.5291  0.5484
  632MOL0    Cl85229   6.692   2.165   6.107 -0.2781 -0.1598  0.0502
  632MOL0     C85230   6.705   1.359   6.828  0.1661 -0.0369 -1.7416
  632MOL0     C85231   6.614   1.334   6.937 -0.0500 -0.7360  0.2237
  632MOL0     O85232   6.311   1.292   7.019  1.1717 -0.1027 -0.8295
  632MOL0     C85233   6.150   1.280   7.247  0.3798  0.3427  0.0648
  632MOL0     C85234   6.069   1.296   7.364  0.4793 -0.5721  0.1657
  632MOL0     N85235   5.595   1.454   7.463 -0.0080  0.6132 -0.7121
  632MOL0     N85236   5.572   1.432   7.340  0.6194  0.2386  0.5480
  632MOL0     C85237   6.467   1.057   6.616 -0.1300  0.4800  0.0673
  632MOL0     C85238   6.570   1.059   6.517  0.4245 -0.4495 -0.4271
  632MOL0     C85239   6.866   0.991   6.181 -0.1520  0.9202 -0.0676
  632MOL0     C85240   6.822   0.877   6.109 -0.0345  0.3874 -0.7654
  632MOL0     C85241   6.891   0.841   5.985  0.3769 -0.1748 -0.0619
  632MOL0     C85242   6.997   0.920   5.944 -1.3427 -0.1116  0.0186
  632MOL0     O85243   7.055   0.886   5.824 -0.5288 -0.0918 -0.0647
  632MOL0     C85244   7.034   0.776   5.752  0.2348 -0.6290 -0.7248
  632MOL0     C85245   7.094   0.798   5.610 -0.4109  0.5863  0.0390
  632MOL0     C85246   7.239   0.750   5.599 -0.2806 -0.4205 -0.2497
  632MOL0     C85247   7.328   0.838   5.497  0.8764 -0.2714 -0.3852
  632MOL0     C85248   7.368   0.760   5.375  0.7610 -0.4250  0.0073
  632MOL0     C85249   7.411   0.687   5.291  0.8115 -0.7635 -0.1609
  632MOL0     C85250   7.036   1.033   6.015 -0.2311 -0.3306  0.4690
  632MOL0     C85251   6.972   1.078   6.130  0.4179 -0.0185 -0.5782
  632MOL0     C85252   7.031   1.195   6.198  0.2108 -0.3210 -0.7435
  632MOL0     H85253   6.579   0.723   6.445 -0.0869  1.7035 -3.1635
  632MOL0     H85254   6.373   0.744   6.622  0.5485 -1.9735 -0.9945
  632MOL0     H85255   6.311   0.804   6.848 -3.2867 -1.8869  3.6889
  632MOL0     H85256   6.363   0.974   6.917  0.2579 -0.6958 -0.3429
  632MOL0     H85257   6.139   0.849   6.993 -5.4199  0.9966  0.7426
  632MOL0     H85258   6.098   0.856   6.823  0.4322 -0.4985 -0.4351
  632MOL0     H85259   6.115   1.096   6.832  0.0029 -0.9133  1.0325
  632MOL0     H85260   6.147   1.088   7.014  0.5345 -0.0188  0.5355
  632MOL0     H85261   5.896   0.989   6.891  1.3246  1.0346 -1.8709
  632MOL0     H85262   5.942   1.002   7.067 -1.1152  2.7532  1.4040
  632MOL0     H85263   5.956   1.259   7.018 -0.3145 -1.0775  3.5568
  632MOL0     H85264   5.907   1.206   6.850  4.1003  0.0593 -0.0380
  632MOL0     H85265   5.726   1.293   6.944  0.4904 -0.1652  0.0470
  632MOL0     H85266   5.689   1.122   6.960 -0.3023  0.5367 -0.4564
  632MOL0     H85267   5.801   1.284   7.190 -0.8404  1.4413 -1.5060
  632MOL0     H85268   5.758   1.118   7.198 -2.3735 -1.3514 -0.4319
  632MOL0     H85269   5.547   1.339   7.114  2.1109 -0.6211 -2.4288
  632MOL0     H85270   5.518   1.175   7.152  4.6181 -5.3109 -0.6950
  632MOL0     H85271   5.595   1.124   7.427 -0.6679  0.1380 -3.8509
  632MOL0     H85272   5.536   1.309   7.725  1.0396  0.5920  1.6739
  632MOL0     H85273   5.674   1.218   7.706 -2.1206 -0.0883  0.7767
  632MOL0     H85274   5.688   1.520   7.700  0.9812  0.1313 -0.6316
  632MOL0     H85275   5.688   1.422   7.851  0.3444  3.6646 -0.8546
  632MOL0     H85276   5.877   1.295   7.802  1.2040  1.2381  2.4183
  632MOL0     H85277   5.912   1.471   7.800 -0.1158 -1.4621  2.5602
  632MOL0     H85278   5.885   1.477   7.545  1.0699  1.1531 -0.2145
  632MOL0     H85279   5.870   1.297   7.556  0.8787  0.3122 -1.4486
  632MOL0     H85280   6.308   1.449   7.554 -0.4619 -0.2395  0.9386
  632MOL0     H85281   6.417   1.472   7.344  0.8389 -1.2474  1.6853
  632MOL0     H85282   6.528   1.655   6.990  0.1298  1.5267 -1.0847
  632MOL0     H85283   6.678   1.692   6.826 -2.2741  0.9874  4.1668
  632MOL0     H85284   6.720   1.641   6.572  0.1429  0.2424 -0.0661
  632MOL0     H85285   6.876   1.687   6.657  1.3699  0.1825 -1.8498
  632MOL0     H85286   6.993   1.564   6.460  1.1353  3.6595 -4.4368
  632MOL0     H85287   6.830   1.512   6.409 -0.8035  1.1663 -1.5829
  632MOL0     H85288   6.779   1.741   6.370 -0.6640 -0.6709  1.1206
  632MOL0     H85289   6.928   1.802   6.457  0.4536 -0.6084  0.9838
  632MOL0     H85290   6.899   1.668   6.193  1.7377  2.0790 -2.6070
  632MOL0     H85291   7.059   1.667   6.271 -1.8416 -2.6698 -0.5980
  632MOL0     H85292   7.089   1.851   6.133 -1.3965  1.7469 -0.0765
  632MOL0     H85293   7.081   1.879   6.301  2.9764  1.5748 -1.8721
  632MOL0     H85294   6.823   1.903   6.127 -0.6424  1.4995 -0.2860
  632MOL0     H85295   6.850   1.966   6.286 -0.0338  0.3168 -0.8363
  632MOL0     H85296   6.961   2.051   6.034 -2.0134  0.2659 -0.6312
  632MOL0     H85297   7.045   2.089   6.189 -1.2060  0.0150  1.5955
  632MOL0     H85298   6.890   2.241   6.251  1.0736 -1.6058  0.7616
  632MOL0     H85299   6.900   2.278   6.090 -1.7642  0.7973  1.4088
  632MOL0     H85300   6.751   1.273   6.780 -2.1644 -1.6404 -1.2423
  632MOL0     H85301   6.607   1.230   6.966 -0.4047 -1.1063 -1.0935
  632MOL0     H85302   6.115   1.214   7.169 -0.3892  1.4213 -0.5426
  632MOL0     H85303   5.972   1.249   7.355  1.2324 -1.7475 -2.7133
  632MOL0     H85304   6.423   1.149   6.655 -2.5153 -0.5124 -0.0989
  632MOL0     H85305   6.616   1.156   6.501  0.4635 -0.7083 -2.0046
  632MOL0     H85306   6.738   0.819   6.148 -1.5594  3.1609  0.3377
  632MOL0     H85307   6.859   0.754   5.928 -0.0862 -0.8803  1.2288
  632MOL0     H85308   6.925   0.763   5.749  0.3656 -2.4361  0.4140
  632MOL0     H85309   7.066   0.683   5.801  1.3409 -0.5445 -1.2754
  632MOL0     H85310   7.091   0.903   5.578 -3.0018  0.0181 -1.9320
  632MOL0     H85311   7.040   0.739   5.535 -0.9728  2.6469 -1.2719
  632MOL0     H85312   7.250   0.645   5.572  2.2439  0.0636 -1.3320
  632MOL0     H85313   7.278   0.766   5.700 -2.7819 -1.1897  0.9198
  632MOL0     H85314   7.273   0.924   5.458 -1.8589 -1.3934  0.7532
  632MOL0     H85315   7.409   0.880   5.557  1.7097 -0.8197 -1.0932
  632MOL0     H85316   7.443   0.624   5.211 -3.0532 -0.0890 -2.5025
  632MOL0     H85317   7.122   1.078   5.966  0.7745  3.3555  5.0114
  632MOL0     H85318   7.111   1.237   6.136 -0.9283  2.0609 -0.7065
  632MOL0     H85319   6.965   1.281   6.217 -1.9404 -1.7812 -1.2373
  632MOL0     H85320   7.077   1.164   6.292 -0.4561  1.7438  0.3250
  633MOL0     O85321   9.014   9.990   9.789 -0.3524 -0.3338  0.3673
  633MOL0     C85322   8.952  10.014   9.683 -1.1833  0.2288 -0.7950
  633MOL0     O85323   9.012  10.069   9.568 -0.7302  0.1194 -0.8195
  633MOL0     C85324   9.150  10.090   9.589  0.2224  0.2185 -1.0033
  633MOL0     C85325   9.194  10.201   9.674 -0.4905  0.0883  0.5748
  633MOL0     C85326   9.340  10.214   9.701  0.0339  0.8449  0.0388
  633MOL0     C85327   9.434  10.124   9.640 -1.2860 -0.3708 -0.2401
  633MOL0     O85328   9.565  10.146   9.667 -0.0698 -0.0519  0.3957
  633MOL0     C85329   9.613  10.276   9.694 -0.0055  1.2839  0.0653
  633MOL0     C85330   9.762  10.288   9.671 -0.5305  0.5595  0.0984
  633MOL0     C85331   9.849  10.167   9.719 -0.2412  0.1023  0.0472
  633MOL0     C85332   9.852  10.044   9.626 -0.1496 -0.1654  0.0820
  633MOL0     C85333   9.963  10.063   9.523  0.0425  0.0800  0.3166
  633MOL0     C85334   9.949   9.945   9.421 -0.5373  0.7486  0.4408
  633MOL0     C85335  10.067   9.938   9.321  0.2913 -0.3201  0.1531
  633MOL0     C85336  10.072   9.825   9.204  0.0595  0.2721 -0.0687
  633MOL0     N85337   9.940   9.822   9.129  0.1776 -0.3229 -0.4637
  633MOL0     C85338   9.831   9.746   9.142  0.4784 -1.2354  1.0435
  633MOL0     C85339   9.735   9.809   9.064 -0.4906 -0.1640 -0.1346
  633MOL0     C85340   9.601   9.748   9.045 -0.2696 -0.9692 -0.1630
  633MOL0     C85341   9.493   9.752   9.159 -0.9528 -0.2630 -0.5759
  633MOL0     C85342   9.389   9.864   9.122 -0.0072 -1.4682 -0.2278
  633MOL0     C85343   9.438  10.001   9.172 -0.4249  0.2722  0.3706
  633MOL0     O85344   9.353  10.109   9.113 -0.4204 -0.2910 -0.7086
  633MOL0     C85345   9.371  10.149   8.988  0.2347 -0.1179  0.1251
  633MOL0     C85346   9.280  10.243   8.952 -0.3605  0.1178 -0.2192
  633MOL0     C85347   9.295  10.303   8.829 -0.2592  0.4112 -0.1006
  633MOL0     C85348   9.391  10.265   8.728  0.2331 -0.8856 -0.7725
  633MOL0     C85349   9.415  10.328   8.590  0.3709  0.5490 -0.9352
  633MOL0     O85350   9.373  10.457   8.573  0.8630  0.8545  0.2692
  633MOL0     C85351   9.441  10.521   8.472 -0.1976  0.1616 -0.2038
  633MOL0     C85352   9.553  10.597   8.509  1.2653  0.2649 -1.5013
  633MOL0     C85353   9.618  10.671   8.414  0.0589  0.2649  0.1532
  633MOL0     C85354   9.575  10.669   8.277 -0.8292 -0.7214 -0.3573
  633MOL0     O85355   9.655  10.730   8.177  0.1653 -0.2729 -0.4041
  633MOL0     C85356   9.647  10.872   8.185 -0.8755  0.3088  0.5086
  633MOL0     C85357   9.785  10.927   8.151 -1.4780  0.0236  0.1429
  633MOL0     C85358   9.874  10.918   8.287  0.5791  0.5976 -0.0297
  633MOL0     C85359   9.981  10.812   8.281  0.6265 -0.4490 -0.7748
  633MOL0     C85360  10.046  10.780   8.422  0.1106  0.1740  0.1738
  633MOL0     C85361  10.172  10.697   8.396 -0.9219 -0.1956  0.7773
  633MOL0     C85362  10.229  10.646   8.525 -0.6475 -0.2873  0.1430
  633MOL0     C85363  10.344  10.556   8.505 -0.1175  0.7330 -0.4808
  633MOL0    Cl85364  10.413  10.495   8.660  0.0997 -0.0889 -0.0491
  633MOL0     C85365   9.457  10.594   8.238 -0.9714  0.7476 -0.6235
  633MOL0     C85366   9.398  10.521   8.344 -0.7765  0.7698  0.5650
  633MOL0     O85367   9.465  10.261   8.501  0.5711 -0.0927  0.0413
  633MOL0     C85368   9.474  10.152   8.750 -1.2111 -0.1987 -1.2629
  633MOL0     C85369   9.461  10.100   8.890 -1.1529 -0.0226 -0.0740
  633MOL0     N85370   9.798   9.905   8.984  0.9521 -0.5422  0.0640
  633MOL0     N85371   9.914   9.920   9.033 -0.4474  0.8005  0.4247
  633MOL0     C85372   9.380  10.024   9.553 -0.8087  0.3705 -0.2165
  633MOL0     C85373   9.245  10.015   9.524 -0.2534  0.0399 -0.6482
  633MOL0     C85374   8.796  10.014   9.689  0.3127  0.3533 -0.0070
  633MOL0     C85375   8.742  10.026   9.816 -0.2921  0.4674 -0.1432
  633MOL0     C85376   8.601  10.029   9.820  0.0773 -0.1836 -0.7752
  633MOL0     C85377   8.518  10.016   9.709  0.5209 -0.0511  0.3795
  633MOL0     O85378   8.382  10.010   9.704 -0.3438  0.6061 -0.9245
  633MOL0     C85379   8.297   9.987   9.820  0.9924 -0.1094 -0.3120
  633MOL0     C85380   8.158   9.971   9.758 -0.4215  0.9356  0.6919
  633MOL0     C85381   8.090  10.108   9.703 -0.5778  1.3640  1.2266
  633MOL0     C85382   7.958  10.065   9.642  0.5422  0.0157 -0.0278
  633MOL0     C85383   7.922  10.175   9.553  0.7089 -0.2345 -0.2011
  633MOL0     C85384   7.874  10.269   9.488 -0.4064  0.9230  0.4050
  633MOL0     C85385   8.577  10.003   9.590 -0.5081  0.3888 -1.1464
  633MOL0     C85386   8.717   9.979   9.585 -1.0202  0.5233  0.9507
  633MOL0     C85387   8.773   9.935   9.449 -1.4572  0.4525  0.0259
  633MOL0     H85388   9.128  10.267   9.729 -0.0369  3.3710 -2.4225
  633MOL0     H85389   9.360  10.297   9.768 -0.7446  0.6432  0.5439
  633MOL0     H85390   9.553  10.355   9.648  0.4464  2.2705  1.1109
  633MOL0     H85391   9.607  10.288   9.803 -1.6263  1.7609 -0.0592
  633MOL0     H85392   9.793  10.381   9.721  1.1314 -1.1949  2.5762
  633MOL0     H85393   9.783  10.299   9.564  0.1819 -0.9886  0.0511
  633MOL0     H85394   9.808  10.130   9.814 -1.8226  1.5367 -0.0354
  633MOL0     H85395   9.952  10.189   9.749 -0.4819 -1.9215  2.7579
  633MOL0     H85396   9.876   9.956   9.687 -0.5463  1.5331  2.8681
  633MOL0     H85397   9.756  10.041   9.575 -0.7560  2.0531  0.9555
  633MOL0     H85398   9.950  10.162   9.478  0.5923 -0.4478 -1.0525
  633MOL0     H85399  10.063  10.050   9.565  0.8284 -1.7803 -1.9187
  633MOL0     H85400   9.957   9.858   9.487  1.9764  1.2140  0.8660
  633MOL0     H85401   9.855   9.957   9.367  0.0372  1.4395 -0.4226
  633MOL0     H85402  10.159   9.930   9.380  1.3260  1.9572 -1.0260
  633MOL0     H85403  10.076  10.038   9.277  0.1286  0.4803  1.8520
  633MOL0     H85404  10.153   9.853   9.136  2.0598 -0.5548  1.8807
  633MOL0     H85405  10.100   9.729   9.247 -1.7080 -0.0289  0.4944
  633MOL0     H85406   9.833   9.657   9.204  3.4964 -0.8939  1.6127
  633MOL0     H85407   9.551   9.793   8.959 -1.5731 -2.0577 -0.0046
  633MOL0     H85408   9.621   9.642   9.024 -1.9646 -1.8975  2.3785
  633MOL0     H85409   9.447   9.653   9.169 -1.6055 -0.1106 -1.8905
  633MOL0     H85410   9.527   9.765   9.263  0.5132 -0.7391 -0.9781
  633MOL0     H85411   9.301   9.857   9.187 -0.8504  1.6034 -0.8777
  633MOL0     H85412   9.365   9.861   9.016  0.6474  4.0323 -0.7878
  633MOL0     H85413   9.542  10.019   9.142 -1.0646  0.9136 -1.6436
  633MOL0     H85414   9.429  10.005   9.281  0.7758 -3.5469  0.7759
  633MOL0     H85415   9.205  10.282   9.020  0.1008  0.1087  0.3058
  633MOL0     H85416   9.232  10.391   8.818  0.4405  1.0773  1.1033
  633MOL0     H85417   9.585  10.614   8.611  2.4454 -2.5117 -1.3329
  633MOL0     H85418   9.704  10.732   8.439  0.6000  0.5306 -2.1545
  633MOL0     H85419   9.590  10.902   8.097  2.1726 -0.1166 -1.7833
  633MOL0     H85420   9.614  10.908   8.283 -0.1247  0.7494  0.6079
  633MOL0     H85421   9.844  10.885   8.070  0.2554 -0.3869  1.5436
  633MOL0     H85422   9.783  11.035   8.135 -0.6921 -0.2802 -2.5010
  633MOL0     H85423   9.927  11.013   8.297 -2.6092  2.4486  0.9171
  633MOL0     H85424   9.805  10.907   8.372 -2.3181 -0.6400 -2.3681
  633MOL0     H85425  10.053  10.850   8.208  0.5056 -0.8099 -1.0831
  633MOL0     H85426   9.939  10.719   8.243  1.3832 -1.0134 -0.2753
  633MOL0     H85427   9.973  10.725   8.481  2.4222 -0.1513  2.9558
  633MOL0     H85428  10.079  10.857   8.493 -1.1494 -2.2048  3.5451
  633MOL0     H85429  10.164  10.606   8.335  1.7699 -0.2670  0.4211
  633MOL0     H85430  10.238  10.751   8.327 -1.5927 -1.4386 -0.9063
  633MOL0     H85431  10.155  10.587   8.580 -1.3915  0.1356 -0.3718
  633MOL0     H85432  10.253  10.728   8.593 -2.4171  1.6777 -1.4504
  633MOL0     H85433  10.312  10.470   8.446 -0.5900 -0.6851  1.7277
  633MOL0     H85434  10.426  10.608   8.453 -0.7761  1.2339 -1.0473
  633MOL0     H85435   9.431  10.595   8.133 -3.3213  1.1434 -0.1016
  633MOL0     H85436   9.304  10.470   8.325 -1.5204  1.5237  2.0396
  633MOL0     H85437   9.537  10.104   8.676 -1.9898 -1.0361 -1.4088
  633MOL0     H85438   9.531  10.024   8.923  0.1577  1.0700 -0.2625
  633MOL0     H85439   9.450   9.947   9.524 -0.5391  0.3062  0.5826
  633MOL0     H85440   9.202   9.937   9.462 -1.6238  0.7228 -0.5799
  633MOL0     H85441   8.798  10.031   9.909  0.3755  0.7630 -0.5606
  633MOL0     H85442   8.551  10.060   9.911  0.5150  1.0500 -0.9387
  633MOL0     H85443   8.300  10.074   9.886 -0.7166  1.2563 -1.9437
  633MOL0     H85444   8.318   9.902   9.886 -0.4074  1.2689  2.0610
  633MOL0     H85445   8.097   9.943   9.844  0.5674  1.6103  1.6283
  633MOL0     H85446   8.153   9.886   9.689  1.6801  1.0728  0.3240
  633MOL0     H85447   8.144  10.147   9.616  0.1705 -1.1618  0.4661
  633MOL0     H85448   8.083  10.188   9.777  2.0049  0.7277  2.2983
  633MOL0     H85449   7.968   9.971   9.587  1.0990 -1.3484  2.2288
  633MOL0     H85450   7.885  10.041   9.720  0.4691 -0.6003 -0.2843
  633MOL0     H85451   7.829  10.354   9.442 -3.6738 -0.4404  0.8036
  633MOL0     H85452   8.515   9.990   9.502 -1.2306  0.1096 -0.6145
  633MOL0     H85453   8.688   9.912   9.383 -1.2305 -1.7521  0.4231
  633MOL0     H85454   8.830  10.006   9.388  0.8673 -0.6960  0.7763
  633MOL0     H85455   8.825   9.839   9.457  2.4099  1.8986 -3.7489
  634MOL0     O85456   1.683   4.786   5.820  0.2390  0.8751  1.1372
  634MOL0     C85457   1.801   4.765   5.826 -1.1256 -0.2471 -0.3753
  634MOL0     O85458   1.898   4.852   5.785  0.2566 -0.6242 -0.1059
  634MOL0     C85459   1.861   4.950   5.701 -0.6439  0.0881 -0.0088
  634MOL0     C85460   1.786   4.919   5.588  0.5627  0.4583  0.5191
  634MOL0     C85461   1.748   5.014   5.492 -0.1542  0.4659 -0.4855
  634MOL0     C85462   1.781   5.152   5.515 -1.1059  1.1612  0.6784
  634MOL0     O85463   1.768   5.252   5.416 -0.8764  0.7604  0.3253
  634MOL0     C85464   1.643   5.286   5.355  0.0385 -0.8116 -0.0190
  634MOL0     C85465   1.542   5.361   5.454  0.1808 -0.1166  0.5547
  634MOL0     C85466   1.603   5.489   5.520  0.0095 -0.6047  0.3418
  634MOL0     C85467   1.514   5.547   5.631 -0.0021  0.9323 -1.2348
  634MOL0     C85468   1.476   5.454   5.758  0.0033  0.5742 -1.5860
  634MOL0     C85469   1.433   5.544   5.877 -0.6009 -0.1314  0.8877
  634MOL0     C85470   1.371   5.463   5.983 -0.5281  0.0210  0.3715
  634MOL0     C85471   1.266   5.541   6.065 -0.0342  0.3718  0.2305
  634MOL0     N85472   1.298   5.649   6.146 -0.1652  0.1521  0.0049
  634MOL0     C85473   1.385   5.654   6.252 -0.0656  0.9763  0.2658
  634MOL0     C85474   1.344   5.749   6.342  0.6111  0.8916 -0.6846
  634MOL0     C85475   1.410   5.779   6.478  0.2180 -0.2491  0.7744
  634MOL0     C85476   1.330   5.882   6.557 -0.2223  0.6028  0.6317
  634MOL0     C85477   1.209   5.807   6.628  0.1220 -0.2538  0.0968
  634MOL0     C85478   1.144   5.907   6.724  0.1390 -0.3601  0.1167
  634MOL0     O85479   1.243   5.934   6.825  0.1370 -0.4022  0.2412
  634MOL0     C85480   1.201   6.002   6.938 -0.4507  0.9551 -0.2473
  634MOL0     C85481   1.078   6.075   6.952 -0.7404  0.6592  0.8068
  634MOL0     C85482   1.058   6.144   7.070  0.0066  0.5417 -0.2384
  634MOL0     C85483   1.145   6.128   7.181 -0.2582 -0.6566  0.4702
  634MOL0     C85484   1.115   6.191   7.307  2.3569  0.2096 -0.2232
  634MOL0     O85485   1.210   6.207   7.404  0.0729  0.7312  0.2824
  634MOL0     C85486   1.181   6.273   7.519  0.6711  0.7701  0.3890
  634MOL0     C85487   1.067   6.237   7.598  0.0997 -0.1255  0.3478
  634MOL0     C85488   1.059   6.290   7.728 -0.0886 -0.6027 -0.5065
  634MOL0     C85489   1.134   6.409   7.768 -1.1174 -0.3970  0.0787
  634MOL0     O85490   1.130   6.469   7.897 -0.0673  0.8482  0.0232
  634MOL0     C85491   1.016   6.535   7.933 -0.4098  0.8052 -0.2640
  634MOL0     C85492   0.912   6.427   7.990 -0.7566 -1.1369  1.0221
  634MOL0     C85493   0.813   6.512   8.061 -0.7657 -0.7565 -0.1789
  634MOL0     C85494   0.739   6.428   8.161  0.0199 -0.7716  0.9654
  634MOL0     C85495   0.590   6.410   8.125  0.4750 -0.3495  0.3252
  634MOL0     C85496   0.529   6.289   8.192 -0.5974  0.3252  0.1347
  634MOL0     C85497   0.377   6.270   8.167  1.2769 -0.3683 -0.2156
  634MOL0     C85498   0.330   6.133   8.229 -0.2350 -0.0843 -0.0253
  634MOL0    Cl85499   0.320   6.019   8.091 -0.6687  0.4367 -0.4469
  634MOL0     C85500   1.240   6.444   7.684 -0.2986  0.6036  0.3113
  634MOL0     C85501   1.271   6.369   7.571  0.9200 -0.2605  1.3758
  634MOL0     O85502   1.000   6.229   7.311  1.0018 -0.0812  0.2934
  634MOL0     C85503   1.251   6.034   7.174  0.0586 -0.9733  0.4271
  634MOL0     C85504   1.280   5.982   7.053  0.0753  0.0984 -0.6334
  634MOL0     N85505   1.246   5.817   6.277 -0.2176  0.1319 -0.0274
  634MOL0     N85506   1.231   5.766   6.158  0.3006 -0.0587 -0.4714
  634MOL0     C85507   1.857   5.191   5.625  1.0422 -0.4660 -0.2348
  634MOL0     C85508   1.894   5.092   5.716 -0.3600  0.7466 -0.2570
  634MOL0     C85509   1.868   4.645   5.882 -0.1871  0.3367 -0.8725
  634MOL0     C85510   2.002   4.638   5.914 -1.0878 -1.0592 -0.4311
  634MOL0     C85511   2.063   4.528   5.974 -0.7506 -0.5959  0.2525
  634MOL0     C85512   1.992   4.417   5.999 -0.7277  0.3874 -0.6991
  634MOL0     O85513   2.062   4.314   6.063 -0.4908  0.7473 -1.0420
  634MOL0     C85514   2.085   4.321   6.209 -0.0984 -0.3108 -0.7477
  634MOL0     C85515   2.100   4.181   6.265  0.9291  0.1554 -0.2714
  634MOL0     C85516   1.990   4.079   6.232 -0.4775  0.2974 -0.6722
  634MOL0     C85517   1.986   3.963   6.344  0.7287  0.6602  0.0868
  634MOL0     C85518   1.869   3.882   6.318  0.5124  0.2492  0.5040
  634MOL0     C85519   1.774   3.812   6.299  0.0874 -0.0213 -0.5800
  634MOL0     C85520   1.863   4.409   5.954 -0.4994  1.3861 -0.7681
  634MOL0     C85521   1.800   4.520   5.892 -0.0168 -0.5471 -0.4885
  634MOL0     C85522   1.657   4.497   5.846 -0.4565 -0.7620  0.5018
  634MOL0     H85523   1.761   4.815   5.570 -0.7031  0.9097 -0.4941
  634MOL0     H85524   1.711   4.981   5.395 -0.6151  0.5152 -0.3292
  634MOL0     H85525   1.669   5.351   5.271 -0.1591  1.4946  1.6283
  634MOL0     H85526   1.594   5.202   5.304 -1.1100  0.6740 -1.4641
  634MOL0     H85527   1.502   5.282   5.518 -2.7207  1.8636  1.3827
  634MOL0     H85528   1.449   5.383   5.400  0.9927 -0.2470 -0.9579
  634MOL0     H85529   1.627   5.565   5.445  2.0951  1.9373  3.3088
  634MOL0     H85530   1.696   5.470   5.574  1.1621  2.2211 -0.4526
  634MOL0     H85531   1.581   5.617   5.682  0.8785 -0.6114 -0.2169
  634MOL0     H85532   1.426   5.595   5.587  0.5372  1.5686 -1.6415
  634MOL0     H85533   1.404   5.377   5.729  0.6036 -1.3498  1.5469
  634MOL0     H85534   1.565   5.400   5.793 -2.5476 -1.7200  2.1277
  634MOL0     H85535   1.518   5.601   5.918 -0.4054  1.5006 -1.5994
  634MOL0     H85536   1.356   5.611   5.839 -1.9608 -1.7450  0.7092
  634MOL0     H85537   1.455   5.433   6.046  1.4594  1.6412 -1.3471
  634MOL0     H85538   1.323   5.369   5.953 -2.9815  1.0846  0.6678
  634MOL0     H85539   1.192   5.579   5.994 -0.3974 -2.3717 -1.0252
  634MOL0     H85540   1.205   5.473   6.125 -2.2216  1.1277 -1.0349
  634MOL0     H85541   1.466   5.581   6.253 -1.0795 -0.2091 -0.9292
  634MOL0     H85542   1.413   5.693   6.546 -0.1196 -2.1558 -1.5182
  634MOL0     H85543   1.516   5.804   6.466  0.5442 -2.4015 -1.6681
  634MOL0     H85544   1.392   5.933   6.632  0.1903  0.0662  0.6596
  634MOL0     H85545   1.314   5.958   6.480  2.3058  1.8420  1.1927
  634MOL0     H85546   1.238   5.727   6.697  2.0879  0.0094 -0.3567
  634MOL0     H85547   1.145   5.758   6.554  3.7222 -0.3744 -3.2858
  634MOL0     H85548   1.053   5.869   6.770 -0.6188  3.0454  1.7603
  634MOL0     H85549   1.124   6.003   6.676 -0.1061 -1.4758 -2.1648
  634MOL0     H85550   0.998   6.068   6.879 -0.7885 -0.3634  0.9496
  634MOL0     H85551   0.969   6.205   7.071  0.7449  1.6442 -0.1892
  634MOL0     H85552   1.003   6.163   7.551 -0.5880  0.9588 -0.4785
  634MOL0     H85553   0.985   6.241   7.791 -0.7452  0.6302 -0.2950
  634MOL0     H85554   1.059   6.589   8.019  0.1730  0.6392 -0.4444
  634MOL0     H85555   0.970   6.614   7.873 -4.2818  0.0391  1.4034
  634MOL0     H85556   0.875   6.370   7.904  0.9091 -0.6784 -0.0403
  634MOL0     H85557   0.971   6.364   8.057 -0.2128 -0.1568  1.4901
  634MOL0     H85558   0.862   6.584   8.126 -0.7429 -0.7626 -0.1898
  634MOL0     H85559   0.742   6.566   7.997 -2.6526 -3.7730 -0.8556
  634MOL0     H85560   0.746   6.472   8.261 -2.3519 -3.0514  2.2485
  634MOL0     H85561   0.796   6.336   8.180  0.2532 -0.1142  3.9589
  634MOL0     H85562   0.579   6.378   8.021  1.9239 -4.6420  1.3255
  634MOL0     H85563   0.540   6.504   8.153  2.0869  0.9359 -0.9221
  634MOL0     H85564   0.589   6.204   8.159  1.3267  0.2254  3.4408
  634MOL0     H85565   0.540   6.297   8.300 -1.7056 -3.5715  0.6635
  634MOL0     H85566   0.360   6.262   8.059 -2.0540 -1.5469  0.2680
  634MOL0     H85567   0.321   6.357   8.201  1.0965 -1.3452  2.2036
  634MOL0     H85568   0.405   6.096   8.299 -0.2534 -0.8719 -0.4115
  634MOL0     H85569   0.242   6.142   8.294  0.7884 -0.1103  1.4047
  634MOL0     H85570   1.316   6.517   7.708  1.1591 -0.8597  0.3684
  634MOL0     H85571   1.360   6.394   7.515  0.6896 -0.2169  1.0218
  634MOL0     H85572   1.309   6.018   7.264 -0.4265 -0.0784  0.9223
  634MOL0     H85573   1.368   5.921   7.035 -2.4261 -3.2658 -2.6424
  634MOL0     H85574   1.891   5.293   5.635 -3.3230  1.1770 -0.1278
  634MOL0     H85575   1.963   5.122   5.794 -0.6871  0.8770 -0.0114
  634MOL0     H85576   2.075   4.716   5.898  2.4671 -3.7928  1.1829
  634MOL0     H85577   2.170   4.512   5.973 -0.0635  2.7963 -2.4258
  634MOL0     H85578   1.997   4.374   6.247  0.7237  1.8607 -1.6613
  634MOL0     H85579   2.172   4.382   6.235 -2.7110  2.8149  1.6428
  634MOL0     H85580   2.085   4.194   6.372  1.3223  1.5196 -0.3604
  634MOL0     H85581   2.195   4.146   6.225  0.0393 -1.6275 -0.9450
  634MOL0     H85582   2.013   4.042   6.131  0.6284 -1.3008  0.1250
  634MOL0     H85583   1.888   4.117   6.236 -0.7974 -0.5967 -0.1246
  634MOL0     H85584   2.070   3.893   6.354 -0.2059 -0.1764  4.7164
  634MOL0     H85585   1.965   4.009   6.441 -0.6390 -0.5328  0.3835
  634MOL0     H85586   1.680   3.761   6.306  0.1507 -0.0521  0.1475
  634MOL0     H85587   1.808   4.317   5.973  2.6530 -0.2487  1.4191
  634MOL0     H85588   1.646   4.543   5.747 -0.6286  0.3616  1.0311
  634MOL0     H85589   1.635   4.391   5.832  2.2244 -1.6238  2.0454
  634MOL0     H85590   1.587   4.544   5.916 -1.6569 -0.0808 -1.1024
  635MOL0     O85591   2.591   8.817   4.870  0.6379 -0.2584  0.4806
  635MOL0     C85592   2.607   8.776   4.754 -0.1265  0.3180 -0.3375
  635MOL0     O85593   2.517   8.785   4.653  0.0203  0.0208 -0.5143
  635MOL0     C85594   2.386   8.814   4.687 -0.3491 -0.3537  0.7916
  635MOL0     C85595   2.315   8.743   4.776  0.0937  0.3629  0.0805
  635MOL0     C85596   2.179   8.766   4.812 -0.5270 -0.6517 -1.0262
  635MOL0     C85597   2.112   8.872   4.746  0.2502  0.3385  0.4210
  635MOL0     O85598   1.990   8.922   4.774  0.1700  0.6097  0.5156
  635MOL0     C85599   1.934   8.892   4.906  0.3027  1.4107  0.5310
  635MOL0     C85600   1.880   9.010   4.967 -0.4277 -0.2214 -1.0682
  635MOL0     C85601   1.748   9.049   4.904  0.1682 -0.3458 -0.5209
  635MOL0     C85602   1.627   8.958   4.963  0.2537 -0.1211  0.6172
  635MOL0     C85603   1.498   9.013   4.908 -0.1870  0.1637 -0.7864
  635MOL0     C85604   1.383   8.912   4.925 -0.0609  0.2774  0.8041
  635MOL0     C85605   1.260   8.966   4.841  0.3315 -0.9122  0.2523
  635MOL0     C85606   1.233   9.120   4.883  0.1393  0.0283 -0.1048
  635MOL0     N85607   1.115   9.182   4.822  0.5360  1.1040  0.0583
  635MOL0     C85608   1.000   9.115   4.767  0.5736  0.1862 -0.4306
  635MOL0     C85609   0.918   9.211   4.719 -0.5624 -0.0981  0.3663
  635MOL0     C85610   0.806   9.192   4.620 -0.0907 -0.2489 -0.1881
  635MOL0     C85611   0.684   9.284   4.650 -0.2918 -0.1156 -0.4202
  635MOL0     C85612   0.681   9.397   4.544 -0.0882 -0.4184  0.6481
  635MOL0     C85613   0.560   9.487   4.554 -0.1603  0.0763  0.3883
  635MOL0     O85614   0.442   9.394   4.544 -0.4822  0.8920  0.6199
  635MOL0     C85615   0.343   9.391   4.633  0.7952 -0.2003 -0.0896
  635MOL0     C85616   0.316   9.263   4.684  0.3671  0.0293  0.3973
  635MOL0     C85617   0.214   9.246   4.776 -0.1625 -0.4486 -0.4106
  635MOL0     C85618   0.137   9.358   4.822  0.3683 -0.7558  0.4192
  635MOL0     C85619   0.041   9.334   4.929  1.3309  0.5811  0.9462
  635MOL0     O85620  -0.077   9.406   4.911 -0.4174  0.5251  0.9102
  635MOL0     C85621  -0.173   9.420   5.010 -0.1636  1.2785 -0.2950
  635MOL0     C85622  -0.294   9.471   4.959  0.6042 -0.2968  0.3641
  635MOL0     C85623  -0.399   9.484   5.049 -0.0385 -0.2635  0.5050
  635MOL0     C85624  -0.390   9.453   5.186 -0.3515 -0.9609  0.8414
  635MOL0     O85625  -0.487   9.488   5.274  0.2309 -0.3987 -0.1926
  635MOL0     C85626  -0.602   9.407   5.264  0.2037 -0.1568  0.4356
  635MOL0     C85627  -0.612   9.266   5.324 -0.0176  0.2060  0.9252
  635MOL0     C85628  -0.522   9.152   5.259 -0.5354 -0.4165 -0.3208
  635MOL0     C85629  -0.577   9.113   5.120 -0.1550  0.4069 -0.9980
  635MOL0     C85630  -0.501   9.003   5.043 -0.8070  0.4567 -0.3096
  635MOL0     C85631  -0.355   9.047   5.007 -0.3030  0.1298 -0.1301
  635MOL0     C85632  -0.303   8.932   4.918 -0.2056 -0.0705  0.8873
  635MOL0     C85633  -0.176   8.986   4.838 -0.0418 -1.1665  1.2994
  635MOL0    Cl85634  -0.231   9.113   4.723  0.4750 -0.1492 -0.6912
  635MOL0     C85635  -0.267   9.416   5.237 -0.2516 -0.1767 -0.2645
  635MOL0     C85636  -0.162   9.389   5.149  0.2730 -0.0198 -0.0206
  635MOL0     O85637   0.055   9.246   5.017  0.8225 -0.2577 -0.2114
  635MOL0     C85638   0.169   9.490   4.779  0.3220  0.0171  0.9561
  635MOL0     C85639   0.262   9.498   4.673 -0.2403  0.1539  0.4450
  635MOL0     N85640   0.984   9.333   4.755 -0.0417 -0.0031  0.5560
  635MOL0     N85641   1.094   9.312   4.819  0.2317  0.1923  0.2730
  635MOL0     C85642   2.173   8.930   4.640 -0.8347  0.6257  0.5783
  635MOL0     C85643   2.311   8.901   4.605 -0.7375 -1.1817 -0.3011
  635MOL0     C85644   2.740   8.715   4.725  0.5757  0.1436 -0.6752
  635MOL0     C85645   2.779   8.676   4.593 -0.5367  0.3727 -0.3601
  635MOL0     C85646   2.904   8.623   4.557 -1.8787  0.7388  0.5896
  635MOL0     C85647   2.994   8.593   4.667  0.2068 -0.6808  0.1591
  635MOL0     O85648   3.103   8.521   4.632 -0.5299 -0.1538 -0.3480
  635MOL0     C85649   3.211   8.520   4.728  0.3880  0.8151  0.3539
  635MOL0     C85650   3.307   8.418   4.666 -0.3138  0.0117  0.1854
  635MOL0     C85651   3.399   8.352   4.769 -0.1820 -0.1984  1.1349
  635MOL0     C85652   3.500   8.269   4.700 -0.4408 -0.4281 -0.1778
  635MOL0     C85653   3.555   8.173   4.805 -0.0417 -1.1432 -0.5754
  635MOL0     C85654   3.612   8.104   4.884 -0.4779 -0.5564 -0.1375
  635MOL0     C85655   2.959   8.633   4.795  0.0179 -0.0834  0.8391
  635MOL0     C85656   2.838   8.703   4.824  0.1145  0.5506  1.0577
  635MOL0     C85657   2.826   8.755   4.971 -0.7362  0.2925 -0.2681
  635MOL0     H85658   2.367   8.672   4.840 -0.8877 -1.7482 -1.3507
  635MOL0     H85659   2.132   8.701   4.886  2.5826 -1.1187  0.7147
  635MOL0     H85660   1.865   8.808   4.906  2.9868 -1.0096 -1.4310
  635MOL0     H85661   2.003   8.842   4.975 -0.9618 -1.8276 -0.4164
  635MOL0     H85662   1.951   9.093   4.965  0.2127 -0.4982  2.7149
  635MOL0     H85663   1.885   9.002   5.076  1.6639 -0.6286 -1.1564
  635MOL0     H85664   1.758   9.057   4.796  0.0119  2.7732 -0.3940
  635MOL0     H85665   1.715   9.147   4.940 -0.6959 -0.4788 -0.9271
  635MOL0     H85666   1.657   8.857   4.934  3.6267  1.0845 -0.4278
  635MOL0     H85667   1.631   8.954   5.073 -1.4470  1.8267  0.8170
  635MOL0     H85668   1.476   9.107   4.959  1.6936  1.4041 -2.1087
  635MOL0     H85669   1.513   9.034   4.802 -0.5284  1.3069 -0.6233
  635MOL0     H85670   1.410   8.813   4.887  0.5586  0.4145  0.8851
  635MOL0     H85671   1.351   8.904   5.029  2.7179 -1.0686  1.6343
  635MOL0     H85672   1.170   8.912   4.874 -1.8410  2.0163 -0.4590
  635MOL0     H85673   1.256   8.951   4.733 -0.5393  0.3701  0.0765
  635MOL0     H85674   1.220   9.129   4.992 -1.8633 -1.1758 -0.1993
  635MOL0     H85675   1.310   9.192   4.856 -1.4486  1.0981 -2.0048
  635MOL0     H85676   1.005   9.008   4.750  0.8381  0.2684 -0.9068
  635MOL0     H85677   0.839   9.188   4.516  2.5228 -0.4950  0.5696
  635MOL0     H85678   0.768   9.092   4.641  0.1054  0.2466  3.0331
  635MOL0     H85679   0.593   9.224   4.638 -1.3672  1.2871  0.3869
  635MOL0     H85680   0.684   9.326   4.751  1.8544  0.6176 -0.6672
  635MOL0     H85681   0.660   9.355   4.445 -1.9118  1.3072  0.2446
  635MOL0     H85682   0.774   9.453   4.557  2.1107 -3.7395  0.4264
  635MOL0     H85683   0.553   9.559   4.472  0.9059 -1.7360 -1.3853
  635MOL0     H85684   0.553   9.541   4.648  0.6706 -2.1997  1.8298
  635MOL0     H85685   0.380   9.176   4.671 -0.6849 -0.6982 -0.0880
  635MOL0     H85686   0.197   9.145   4.813  2.9149 -0.4134  1.4346
  635MOL0     H85687  -0.300   9.482   4.851 -0.3568  1.1664  0.5468
  635MOL0     H85688  -0.487   9.536   5.012 -0.4751  0.0207  1.8832
  635MOL0     H85689  -0.667   9.475   5.321 -0.0561  0.8939 -1.0486
  635MOL0     H85690  -0.643   9.411   5.162 -0.1406  3.3493  0.5644
  635MOL0     H85691  -0.587   9.283   5.430  1.5912  0.4970  0.5306
  635MOL0     H85692  -0.714   9.226   5.329  0.0293 -0.0893 -0.2165
  635MOL0     H85693  -0.417   9.185   5.255 -0.5236  0.3496  3.1713
  635MOL0     H85694  -0.511   9.061   5.317  2.8607 -1.3529 -2.1305
  635MOL0     H85695  -0.579   9.202   5.057 -1.2161 -0.3442 -2.0702
  635MOL0     H85696  -0.683   9.087   5.134 -0.0389 -1.7697 -3.4233
  635MOL0     H85697  -0.549   8.983   4.947 -2.8712 -2.6935  1.2328
  635MOL0     H85698  -0.491   8.917   5.110  5.6392 -1.5949 -3.0847
  635MOL0     H85699  -0.355   9.149   4.968 -2.6289  0.8001  1.3621
  635MOL0     H85700  -0.291   9.053   5.095 -2.5982  0.8001  1.6032
  635MOL0     H85701  -0.376   8.898   4.844 -1.3755 -0.6744  2.2672
  635MOL0     H85702  -0.263   8.850   4.979 -0.0501 -1.1132 -0.5552
  635MOL0     H85703  -0.109   9.027   4.914  0.1238  2.1955 -0.4487
  635MOL0     H85704  -0.112   8.917   4.783 -0.1159  0.0996 -0.4873
  635MOL0     H85705  -0.264   9.404   5.345  0.8383 -1.6816 -0.4332
  635MOL0     H85706  -0.065   9.362   5.188  2.9169  2.0554 -4.4699
  635MOL0     H85707   0.117   9.582   4.806 -0.0738 -0.1737  0.8488
  635MOL0     H85708   0.283   9.584   4.610 -1.9909 -2.4291 -4.1152
  635MOL0     H85709   2.124   9.009   4.585  0.0838  0.4122 -0.5938
  635MOL0     H85710   2.370   8.965   4.540 -1.9915  2.4304  1.8558
  635MOL0     H85711   2.719   8.703   4.506  2.2565  4.0033 -1.4119
  635MOL0     H85712   2.931   8.600   4.454 -3.8727 -1.2080  0.4143
  635MOL0     H85713   3.170   8.476   4.819 -0.7892 -2.0056 -1.3783
  635MOL0     H85714   3.262   8.613   4.752  1.5406  0.3265 -0.1289
  635MOL0     H85715   3.357   8.474   4.586 -0.3205 -0.7182 -0.3405
  635MOL0     H85716   3.246   8.342   4.616 -4.0900  1.9601  1.5106
  635MOL0     H85717   3.337   8.289   4.834 -1.0460 -0.6806 -0.1180
  635MOL0     H85718   3.447   8.424   4.836  2.0853 -2.1103  1.7195
  635MOL0     H85719   3.456   8.209   4.621  1.4167 -0.9272 -0.8827
  635MOL0     H85720   3.586   8.324   4.660  0.7943 -1.7531  0.5559
  635MOL0     H85721   3.665   8.045   4.956 -2.8148 -0.5984  1.6949
  635MOL0     H85722   3.039   8.631   4.868  2.9031 -5.5908 -1.8478
  635MOL0     H85723   2.826   8.864   4.979 -1.1095  0.4464 -1.9626
  635MOL0     H85724   2.759   8.694   5.033 -0.3686  0.4613  0.3029
  635MOL0     H85725   2.914   8.716   5.023  0.3847  2.7063 -0.2220
  636MOL0     O85726   2.412   2.435   9.976 -0.6114 -0.1852  0.7246
  636MOL0     C85727   2.527   2.428   9.932  0.0801  0.8351 -0.0928
  636MOL0     O85728   2.599   2.316   9.951 -0.0084 -0.4226  0.0923
  636MOL0     C85729   2.538   2.203   9.989  0.9688  1.2272  0.7639
  636MOL0     C85730   2.434   2.135   9.905 -0.2700  0.1938 -0.8465
  636MOL0     C85731   2.385   2.012   9.947 -0.8270 -0.2445  0.4553
  636MOL0     C85732   2.438   1.950  10.063  0.0231 -0.6640  0.8115
  636MOL0     O85733   2.403   1.825  10.105  0.5532  0.5920  0.8612
  636MOL0     C85734   2.346   1.733  10.003 -0.0126 -0.5921  0.4897
  636MOL0     C85735   2.360   1.585  10.045  0.3738  0.2847 -0.0691
  636MOL0     C85736   2.243   1.514   9.955  0.5011 -0.0837 -0.9581
  636MOL0     C85737   2.117   1.498  10.051 -0.2916 -0.4196  0.2593
  636MOL0     C85738   2.026   1.397   9.985  0.6233  0.7093  0.5999
  636MOL0     C85739   1.977   1.432   9.843 -1.1413 -0.0043  0.6064
  636MOL0     C85740   1.907   1.560   9.832  0.6013  0.6502 -1.0068
  636MOL0     C85741   1.858   1.601   9.693  0.4899 -0.7657 -1.4001
  636MOL0     N85742   1.778   1.496   9.630  0.1784  0.0093 -0.2114
  636MOL0     C85743   1.661   1.437   9.672  0.5008  0.0436 -0.0178
  636MOL0     C85744   1.622   1.346   9.577  0.3259  0.5908 -0.7321
  636MOL0     C85745   1.508   1.254   9.596 -0.1485 -0.2720 -0.3632
  636MOL0     C85746   1.553   1.114   9.644 -0.7827  0.3281  0.4844
  636MOL0     C85747   1.446   1.012   9.670  0.0701  0.2498  0.3039
  636MOL0     C85748   1.505   0.877   9.671 -0.5000  0.4023  0.8077
  636MOL0     O85749   1.518   0.844   9.532 -0.1496 -0.7657 -0.8121
  636MOL0     C85750   1.615   0.755   9.507  0.2308  1.0747  0.6125
  636MOL0     C85751   1.662   0.651   9.595  0.0051 -0.3096 -0.5074
  636MOL0     C85752   1.760   0.551   9.563  0.5130  0.4099  0.1082
  636MOL0     C85753   1.819   0.565   9.435  0.3384 -0.0344  0.1848
  636MOL0     C85754   1.925   0.481   9.390 -0.0385 -0.1936 -0.0152
  636MOL0     O85755   1.926   0.442   9.261 -0.2491  0.3565 -0.2823
  636MOL0     C85756   2.015   0.349   9.230  0.2682  1.3622  0.5822
  636MOL0     C85757   1.974   0.235   9.153  0.0077  0.6206 -0.1967
  636MOL0     C85758   2.061   0.127   9.134 -0.3701 -1.1852  0.1596
  636MOL0     C85759   2.193   0.136   9.172 -0.3554  0.2521 -1.0019
  636MOL0     O85760   2.293   0.043   9.142  0.0677 -0.3089  0.0409
  636MOL0     C85761   2.242  -0.080   9.087  0.3942  0.1581 -0.5835
  636MOL0     C85762   2.359  -0.185   9.088 -0.4021  0.3004  0.2591
  636MOL0     C85763   2.396  -0.228   9.233  0.3019 -0.0100  0.3204
  636MOL0     C85764   2.469  -0.360   9.243  0.1371  0.4970  0.0450
  636MOL0     C85765   2.468  -0.414   9.385  0.4941 -1.1618  0.3823
  636MOL0     C85766   2.346  -0.494   9.427  0.4009  0.3193 -0.0801
  636MOL0     C85767   2.370  -0.573   9.558 -0.0679  0.8130  0.0150
  636MOL0     C85768   2.243  -0.636   9.613 -0.1873  0.0686 -0.7974
  636MOL0    Cl85769   2.146  -0.504   9.676  0.1773 -0.2627  0.5225
  636MOL0     C85770   2.237   0.254   9.233 -1.4620 -0.5897 -0.4946
  636MOL0     C85771   2.152   0.354   9.263  0.1821  0.7947  0.4223
  636MOL0     O85772   1.985   0.421   9.481  0.0208 -0.3187  0.2469
  636MOL0     C85773   1.771   0.666   9.345  0.2610 -0.7776  0.0378
  636MOL0     C85774   1.674   0.755   9.380  0.4669  0.0749 -0.3722
  636MOL0     N85775   1.708   1.358   9.472 -0.2695  0.4363  0.5548
  636MOL0     N85776   1.791   1.457   9.505 -0.7072 -0.6002  0.9602
  636MOL0     C85777   2.518   2.021  10.150 -0.1329 -0.2091 -0.4265
  636MOL0     C85778   2.570   2.150  10.115 -0.0048  0.3257 -0.2558
  636MOL0     C85779   2.601   2.546   9.866  0.5851 -0.9721 -0.7614
  636MOL0     C85780   2.730   2.535   9.815  0.5578 -0.3031  0.2864
  636MOL0     C85781   2.791   2.653   9.764  0.3708  0.0329 -0.5029
  636MOL0     C85782   2.735   2.785   9.774 -0.3671 -0.2849 -0.1627
  636MOL0     O85783   2.813   2.893   9.738 -0.2973 -0.2555  0.7334
  636MOL0     C85784   2.837   3.004   9.822  0.6846 -0.1361  0.6300
  636MOL0     C85785   2.912   3.124   9.756 -0.7171 -0.6643 -0.4413
  636MOL0     C85786   2.946   3.101   9.611  0.0465 -0.3232  0.1163
  636MOL0     C85787   3.034   3.218   9.563  0.8907 -0.7010  0.2302
  636MOL0     C85788   3.010   3.247   9.421 -0.1655  0.1518  0.1063
  636MOL0     C85789   2.974   3.282   9.310 -0.6412  0.1688  0.5147
  636MOL0     C85790   2.602   2.791   9.822  0.6158  0.2377 -0.5807
  636MOL0     C85791   2.534   2.666   9.862  0.5952 -1.6029 -0.5610
  636MOL0     C85792   2.389   2.691   9.907 -0.3092  0.1300  0.0278
  636MOL0     H85793   2.398   2.177   9.811 -1.8140  1.2480  0.1811
  636MOL0     H85794   2.297   1.968   9.901 -1.3795  1.4239 -0.1536
  636MOL0     H85795   2.244   1.764   9.977  1.0557  1.2339 -2.0138
  636MOL0     H85796   2.404   1.745   9.911  1.6000 -0.3453  1.4923
  636MOL0     H85797   2.333   1.576  10.151 -2.0445 -0.6605 -0.6776
  636MOL0     H85798   2.451   1.533  10.015 -0.6180 -1.3478 -0.3828
  636MOL0     H85799   2.275   1.419   9.913  2.2177 -0.7084  1.5692
  636MOL0     H85800   2.217   1.585   9.876  0.1499  0.5631 -0.2865
  636MOL0     H85801   2.146   1.468  10.152  0.1043  1.4253  0.7357
  636MOL0     H85802   2.075   1.598  10.063  0.9741  0.0577  0.8281
  636MOL0     H85803   2.080   1.302   9.980  0.9047  0.9256 -0.6879
  636MOL0     H85804   1.938   1.386  10.050  2.6845  1.4952  3.7657
  636MOL0     H85805   2.066   1.440   9.779  0.9837 -2.6408  2.9449
  636MOL0     H85806   1.916   1.354   9.796  0.3087  1.4982 -4.3399
  636MOL0     H85807   1.968   1.641   9.874  0.0144 -0.0114  1.2947
  636MOL0     H85808   1.824   1.542   9.902 -1.7909  0.0541 -3.8153
  636MOL0     H85809   1.789   1.682   9.717  1.7205  0.4914 -2.0278
  636MOL0     H85810   1.948   1.640   9.645 -0.1943  1.6114 -0.8491
  636MOL0     H85811   1.613   1.465   9.765 -2.7154  2.8420 -2.2484
  636MOL0     H85812   1.431   1.299   9.659  1.4618  0.2851  1.2908
  636MOL0     H85813   1.451   1.248   9.503 -1.7116 -2.1663  0.6214
  636MOL0     H85814   1.621   1.072   9.570 -0.6469  0.1715  0.6965
  636MOL0     H85815   1.610   1.133   9.736  0.1400  0.0616 -0.0181
  636MOL0     H85816   1.365   1.022   9.597  1.1849  0.1593 -1.0054
  636MOL0     H85817   1.389   1.024   9.762  0.4255  1.0254  0.4394
  636MOL0     H85818   1.440   0.808   9.726 -2.4349  1.2519 -0.2905
  636MOL0     H85819   1.602   0.869   9.720 -1.0237 -2.8724  1.5306
  636MOL0     H85820   1.621   0.645   9.695  3.7770 -2.5436  1.1419
  636MOL0     H85821   1.771   0.474   9.638  1.3816  0.3546 -0.0688
  636MOL0     H85822   1.877   0.231   9.104 -0.9163  2.5265  1.3307
  636MOL0     H85823   2.023   0.048   9.071  3.3739 -3.1583  0.0725
  636MOL0     H85824   2.159  -0.125   9.143 -1.8030  2.5402 -1.7026
  636MOL0     H85825   2.213  -0.072   8.982  1.6226 -2.7662 -1.2555
  636MOL0     H85826   2.319  -0.273   9.036 -1.7375  1.4245 -0.6777
  636MOL0     H85827   2.444  -0.145   9.032  0.1990  0.4940  1.2808
  636MOL0     H85828   2.454  -0.141   9.267  1.6625  0.5358 -2.9875
  636MOL0     H85829   2.304  -0.252   9.287 -0.3919  1.1425 -0.2933
  636MOL0     H85830   2.568  -0.350   9.199  1.5276  1.6083  3.1262
  636MOL0     H85831   2.412  -0.430   9.181 -1.2379  1.2531  0.4118
  636MOL0     H85832   2.491  -0.342   9.464  0.3431  2.8250 -2.9059
  636MOL0     H85833   2.552  -0.482   9.367  2.3580  1.5494 -2.2138
  636MOL0     H85834   2.266  -0.420   9.432  0.2661  0.0944  1.4953
  636MOL0     H85835   2.316  -0.562   9.347 -0.8651  0.0913  0.5680
  636MOL0     H85836   2.433  -0.534   9.639 -2.2907 -0.1395  2.3369
  636MOL0     H85837   2.431  -0.653   9.515  0.8689  1.5389 -0.0525
  636MOL0     H85838   2.196  -0.695   9.534  0.6161  0.0236 -1.2475
  636MOL0     H85839   2.265  -0.702   9.698 -1.8485  0.1138 -0.3014
  636MOL0     H85840   2.344   0.267   9.245 -1.3865  1.0254 -2.4441
  636MOL0     H85841   2.197   0.443   9.306  1.1169  2.3788 -3.3670
  636MOL0     H85842   1.821   0.685   9.250 -0.3035 -0.7563 -0.2583
  636MOL0     H85843   1.656   0.833   9.306  0.8120 -1.0062 -1.6505
  636MOL0     H85844   2.547   1.971  10.242 -1.3247 -0.8239 -0.3612
  636MOL0     H85845   2.643   2.207  10.173 -1.8008  1.2308  1.2158
  636MOL0     H85846   2.766   2.432   9.820  0.6053 -0.3063 -0.1259
  636MOL0     H85847   2.889   2.659   9.718  0.2364 -2.0544 -1.1322
  636MOL0     H85848   2.890   2.985   9.915  0.7323  0.3917  0.7159
  636MOL0     H85849   2.745   3.040   9.868  1.1577  0.3303  1.2262
  636MOL0     H85850   3.007   3.128   9.810 -0.4392 -1.5240 -0.8508
  636MOL0     H85851   2.841   3.206   9.770 -2.0077 -2.0973  2.1493
  636MOL0     H85852   2.854   3.103   9.552 -1.1965  1.5701  1.9662
  636MOL0     H85853   3.008   3.011   9.604  0.9165  0.2341  0.5062
  636MOL0     H85854   3.007   3.311   9.614 -2.1776  0.2554 -2.8337
  636MOL0     H85855   3.138   3.191   9.586  1.8838  0.2318 -2.7724
  636MOL0     H85856   2.946   3.304   9.209  0.9304 -0.3020 -0.0432
  636MOL0     H85857   2.547   2.884   9.833 -1.0988 -0.7717 -0.2555
  636MOL0     H85858   2.395   2.670  10.014 -0.0081  0.1215  0.0100
  636MOL0     H85859   2.355   2.793   9.886 -2.4830  0.1814  3.1116
  636MOL0     H85860   2.319   2.623   9.859  0.4285 -1.4970  1.1477
  637MOL0     O85861   1.464   1.613   6.488 -0.1017 -0.1735 -0.8191
  637MOL0     C85862   1.379   1.535   6.441  0.3874  0.0558  0.5059
  637MOL0     O85863   1.267   1.481   6.508  0.3640 -0.3864 -0.2693
  637MOL0     C85864   1.247   1.513   6.637 -0.7995 -0.7639 -0.2669
  637MOL0     C85865   1.346   1.517   6.738 -0.3815  0.5567  0.9295
  637MOL0     C85866   1.310   1.562   6.861  0.5453 -0.2246  0.0013
  637MOL0     C85867   1.177   1.598   6.890 -0.8688  0.4606  1.0127
  637MOL0     O85868   1.143   1.627   7.012 -0.6083 -0.1427  0.3288
  637MOL0     C85869   1.085   1.537   7.115 -0.4061  0.1362  0.6083
  637MOL0     C85870   0.932   1.524   7.112 -0.2458  0.3969  0.4041
  637MOL0     C85871   0.875   1.666   7.109  0.4255 -0.4569 -0.0252
  637MOL0     C85872   0.726   1.665   7.165  0.6667  0.0193 -0.1213
  637MOL0     C85873   0.660   1.808   7.169 -0.4529  0.3359 -0.2516
  637MOL0     C85874   0.516   1.807   7.220 -0.2684 -0.8237 -0.1802
  637MOL0     C85875   0.474   1.944   7.270  0.1666  0.1709 -0.3257
  637MOL0     C85876   0.320   1.935   7.285  0.4224  0.4543  0.7097
  637MOL0     N85877   0.252   2.061   7.330  0.0289  0.4580  0.3349
  637MOL0     C85878   0.298   2.136   7.438  0.4241  0.4636 -0.0232
  637MOL0     C85879   0.198   2.215   7.466  0.7501  0.3236  0.8625
  637MOL0     C85880   0.196   2.316   7.575  0.7247 -0.1403 -0.3601
  637MOL0     C85881   0.071   2.305   7.662  0.3389  0.0849 -0.1829
  637MOL0     C85882   0.091   2.359   7.796  0.2636 -0.6704  0.1986
  637MOL0     C85883  -0.018   2.296   7.890 -0.5181 -0.8967 -0.7240
  637MOL0     O85884  -0.026   2.392   8.004 -0.3766 -0.2076  0.6461
  637MOL0     C85885  -0.124   2.493   7.998 -0.1500 -0.0409 -0.3776
  637MOL0     C85886  -0.212   2.511   7.891 -0.0528  0.1253  0.2434
  637MOL0     C85887  -0.302   2.616   7.903  0.3248  0.3808 -0.7946
  637MOL0     C85888  -0.308   2.696   8.015  0.6670 -0.5490 -0.9198
  637MOL0     C85889  -0.386   2.815   8.012  0.7211  0.4708 -1.1851
  637MOL0     O85890  -0.322   2.927   8.067 -0.0191  0.5361  0.1008
  637MOL0     C85891  -0.372   3.049   8.091  0.0438 -0.2758 -0.0992
  637MOL0     C85892  -0.282   3.148   8.119 -0.6431  0.3069  0.8574
  637MOL0     C85893  -0.324   3.276   8.131 -0.2306 -0.8937  0.0076
  637MOL0     C85894  -0.464   3.305   8.133  0.2999 -0.1543 -1.2264
  637MOL0     O85895  -0.512   3.429   8.166 -0.8267  0.5880  0.2129
  637MOL0     C85896  -0.412   3.535   8.180  0.5734  0.6218  0.4909
  637MOL0     C85897  -0.496   3.651   8.233  0.1705  0.1019  0.8930
  637MOL0     C85898  -0.437   3.787   8.199  0.4997 -0.0901  0.0256
  637MOL0     C85899  -0.489   3.908   8.274  0.0517  0.8646  0.0368
  637MOL0     C85900  -0.364   4.000   8.301  0.5163  0.0664 -0.3724
  637MOL0     C85901  -0.394   4.134   8.373 -0.5095 -0.6596 -0.7337
  637MOL0     C85902  -0.282   4.233   8.368 -0.3972 -0.6621  0.2409
  637MOL0     C85903  -0.296   4.331   8.248  0.2279  0.7183 -0.8257
  637MOL0    Cl85904  -0.164   4.444   8.243 -0.4327 -0.1658 -0.1987
  637MOL0     C85905  -0.567   3.207   8.132 -0.9080 -0.3537 -0.4367
  637MOL0     C85906  -0.521   3.077   8.108 -0.3945  0.0268 -0.6967
  637MOL0     O85907  -0.494   2.807   7.960  0.3081  0.4031  0.1176
  637MOL0     C85908  -0.224   2.673   8.126  0.2320  0.3343  0.2766
  637MOL0     C85909  -0.132   2.576   8.111 -0.6110  0.0056  0.6788
  637MOL0     N85910   0.090   2.190   7.392  0.5920 -0.1309  0.3897
  637MOL0     N85911   0.120   2.101   7.305 -0.2686  0.1324 -0.4503
  637MOL0     C85912   1.076   1.579   6.792  0.3005 -0.0485 -0.2872
  637MOL0     C85913   1.114   1.538   6.668  0.4083  0.0260 -0.7084
  637MOL0     C85914   1.393   1.514   6.294  1.0868 -0.3563 -0.3230
  637MOL0     C85915   1.286   1.540   6.212  0.1068  0.8945  0.1998
  637MOL0     C85916   1.301   1.529   6.073 -0.1214 -0.3571 -0.2488
  637MOL0     C85917   1.432   1.511   6.017 -0.1659 -0.7873  0.2736
  637MOL0     O85918   1.424   1.524   5.882 -0.2091  0.3692  1.4221
  637MOL0     C85919   1.551   1.484   5.818  0.5192  0.8188 -0.7701
  637MOL0     C85920   1.558   1.334   5.788 -0.3397 -0.3881 -0.6420
  637MOL0     C85921   1.434   1.264   5.740  0.5688 -0.4761 -0.6955
  637MOL0     C85922   1.380   1.329   5.599 -0.5582  0.2009  0.0980
  637MOL0     C85923   1.259   1.253   5.562 -0.9608  1.3136 -0.2644
  637MOL0     C85924   1.180   1.168   5.543  0.5173  0.3052 -0.4687
  637MOL0     C85925   1.534   1.470   6.108 -0.3343  0.1302  0.3938
  637MOL0     C85926   1.512   1.476   6.240 -1.2447 -0.0538  0.4878
  637MOL0     C85927   1.629   1.423   6.324  0.2706  0.6385 -0.7029
  637MOL0     H85928   1.447   1.485   6.713 -1.8526 -2.0391 -2.5166
  637MOL0     H85929   1.381   1.573   6.942 -1.0633  0.3210  1.4024
  637MOL0     H85930   1.124   1.437   7.091  0.3600  0.4605  0.4655
  637MOL0     H85931   1.126   1.569   7.212  1.0704 -1.1840  0.4687
  637MOL0     H85932   0.883   1.463   7.189  1.4489  0.5624  1.6575
  637MOL0     H85933   0.901   1.484   7.015  2.0117 -0.1243 -0.1539
  637MOL0     H85934   0.880   1.700   7.005  1.9940  0.4972  0.3332
  637MOL0     H85935   0.936   1.737   7.167  0.4193  0.0393 -0.6218
  637MOL0     H85936   0.661   1.595   7.110  0.6971  1.5125 -2.1761
  637MOL0     H85937   0.740   1.620   7.264 -1.2067 -0.7529 -0.1630
  637MOL0     H85938   0.720   1.871   7.235  1.3742 -0.2147 -1.3386
  637MOL0     H85939   0.669   1.842   7.066  1.2748 -1.0042 -0.5978
  637MOL0     H85940   0.455   1.779   7.135  0.0676 -0.4244 -0.5569
  637MOL0     H85941   0.490   1.729   7.292  2.0065  0.6330  2.4433
  637MOL0     H85942   0.498   2.022   7.197 -0.2757  2.2145  1.5932
  637MOL0     H85943   0.515   1.964   7.370 -2.2902 -1.3002  1.0937
  637MOL0     H85944   0.273   1.907   7.191 -1.3464  1.0375  1.3818
  637MOL0     H85945   0.287   1.848   7.342  0.1766  2.5490  4.0226
  637MOL0     H85946   0.399   2.137   7.479  0.4673 -1.4003 -0.0101
  637MOL0     H85947   0.285   2.304   7.638  1.4579  0.6652 -1.2200
  637MOL0     H85948   0.196   2.408   7.516  0.9472  0.7399  0.9663
  637MOL0     H85949  -0.013   2.349   7.607 -0.7801 -2.4764 -0.6773
  637MOL0     H85950   0.060   2.196   7.660  3.2146 -0.2873 -2.1607
  637MOL0     H85951   0.094   2.468   7.794  2.6514 -0.6725  0.6085
  637MOL0     H85952   0.188   2.341   7.844  0.5674  1.4333  0.4377
  637MOL0     H85953   0.018   2.204   7.935 -1.7077 -0.0832  2.1139
  637MOL0     H85954  -0.114   2.274   7.842 -1.0452  0.5648 -0.4085
  637MOL0     H85955  -0.214   2.451   7.800  0.4327  0.2712  0.1376
  637MOL0     H85956  -0.373   2.649   7.828 -0.1161 -0.8605 -0.9287
  637MOL0     H85957  -0.175   3.128   8.119 -0.7253 -0.9294  4.3600
  637MOL0     H85958  -0.243   3.345   8.155 -0.8720 -0.1631  0.1306
  637MOL0     H85959  -0.329   3.518   8.249  1.7820 -0.1691 -1.0844
  637MOL0     H85960  -0.372   3.561   8.081 -3.2637  0.9029 -1.1789
  637MOL0     H85961  -0.597   3.645   8.190 -0.1407  2.4958  1.1754
  637MOL0     H85962  -0.512   3.638   8.340  0.6954 -0.1547  0.9453
  637MOL0     H85963  -0.328   3.788   8.210  0.6561  1.0083 -1.2677
  637MOL0     H85964  -0.456   3.814   8.094 -0.1089  1.8223  0.5828
  637MOL0     H85965  -0.528   3.866   8.367  0.9051  0.5347  0.2516
  637MOL0     H85966  -0.571   3.967   8.233 -1.0592  1.4966  2.8947
  637MOL0     H85967  -0.330   4.034   8.203 -0.2768  1.6332 -0.1441
  637MOL0     H85968  -0.286   3.938   8.346 -0.9912  1.1918  4.4770
  637MOL0     H85969  -0.489   4.173   8.337 -1.4729  0.0881  2.3407
  637MOL0     H85970  -0.429   4.110   8.474 -3.5401  0.9498 -1.2997
  637MOL0     H85971  -0.184   4.185   8.367  0.7753  1.6132  0.2385
  637MOL0     H85972  -0.288   4.289   8.462  3.8360 -0.1396  0.3732
  637MOL0     H85973  -0.312   4.273   8.156 -0.0971 -1.2516  0.4152
  637MOL0     H85974  -0.391   4.382   8.266  1.1491  2.5629 -0.9824
  637MOL0     H85975  -0.674   3.225   8.132 -0.6185  1.5023 -0.8974
  637MOL0     H85976  -0.598   3.002   8.094 -2.0290  1.4479  0.3950
  637MOL0     H85977  -0.228   2.738   8.213  0.2256  2.5858 -1.3107
  637MOL0     H85978  -0.075   2.564   8.202  0.6911 -0.0632 -0.1074
  637MOL0     H85979   0.970   1.587   6.811  0.5714 -0.5322  1.6371
  637MOL0     H85980   1.034   1.515   6.597 -1.7833  2.0472  0.9687
  637MOL0     H85981   1.194   1.576   6.256 -0.7205  0.2052 -0.9109
  637MOL0     H85982   1.215   1.557   6.014  0.1584  6.2532  1.6558
  637MOL0     H85983   1.636   1.513   5.881 -1.5762  0.8246  2.3229
  637MOL0     H85984   1.562   1.530   5.720 -0.8636 -1.5190 -2.1129
  637MOL0     H85985   1.602   1.291   5.878 -2.0817  0.9515  0.9498
  637MOL0     H85986   1.642   1.321   5.720  1.3846 -2.5044  1.7180
  637MOL0     H85987   1.359   1.273   5.818 -1.0119 -0.9461 -2.1012
  637MOL0     H85988   1.443   1.158   5.717  1.8076  0.0269 -2.8454
  637MOL0     H85989   1.351   1.434   5.609  1.1790  0.8893 -1.5564
  637MOL0     H85990   1.463   1.327   5.528 -0.0113 -1.7784  0.7475
  637MOL0     H85991   1.108   1.088   5.532 -0.6012  1.4249 -1.6741
  637MOL0     H85992   1.634   1.442   6.076 -0.3233 -0.1904  0.7000
  637MOL0     H85993   1.720   1.384   6.279  1.6650  2.8478  0.0689
  637MOL0     H85994   1.662   1.496   6.399  0.5216 -0.4169  0.2291
  637MOL0     H85995   1.588   1.331   6.367  0.1298  1.2434  0.5033
  638MOL0     O85996   0.799   9.144   0.059  0.2860  0.1831 -0.4015
  638MOL0     C85997   0.800   9.107  -0.053 -0.8029 -0.6779 -0.7616
  638MOL0     O85998   0.701   9.063  -0.131  0.5364  0.4599 -0.3789
  638MOL0     C85999   0.567   9.061  -0.105  0.1116 -0.3071  0.8610
  638MOL0     C86000   0.482   9.064  -0.218 -0.4979 -0.9654  0.1329
  638MOL0     C86001   0.348   9.068  -0.205 -0.6632 -0.1529 -0.3312
  638MOL0     C86002   0.294   9.092  -0.074  0.3893 -0.6337 -0.7529
  638MOL0     O86003   0.154   9.114  -0.064  0.4421  0.3286  0.1317
  638MOL0     C86004   0.148   9.260  -0.083 -0.6127 -0.0441  0.1098
  638MOL0     C86005   0.005   9.314  -0.076 -0.0414 -0.2906  0.0281
  638MOL0     C86006  -0.049   9.308   0.069 -0.1147 -0.1236  0.3474
  638MOL0     C86007  -0.206   9.275   0.075  0.4673  0.6825 -0.0228
  638MOL0     C86008  -0.263   9.279   0.222 -0.2219 -0.6155  0.4429
  638MOL0     C86009  -0.214   9.167   0.318 -1.2289 -1.0541  0.1626
  638MOL0     C86010  -0.299   9.043   0.301  0.4509 -0.0642 -0.0400
  638MOL0     C86011  -0.245   8.905   0.360  0.1356 -0.0139 -1.1895
  638MOL0     N86012  -0.223   8.927   0.507  0.1050  0.2756 -0.2217
  638MOL0     C86013  -0.294   8.877   0.609  0.9473  0.3682 -0.0315
  638MOL0     C86014  -0.236   8.905   0.732  0.6109 -0.3307  0.1556
  638MOL0     C86015  -0.271   8.861   0.871  0.2615 -0.2013 -0.0188
  638MOL0     C86016  -0.165   8.864   0.975 -0.3320  0.0064 -0.0703
  638MOL0     C86017  -0.212   8.796   1.103  0.0103  0.7704 -0.5183
  638MOL0     C86018  -0.315   8.865   1.181  0.4114 -0.1746  0.0209
  638MOL0     O86019  -0.268   8.977   1.257 -0.5588 -0.3967  0.2503
  638MOL0     C86020  -0.356   9.048   1.326 -1.0486 -0.9469 -0.6261
  638MOL0     C86021  -0.317   9.107   1.451  0.6280  0.8498  1.1103
  638MOL0     C86022  -0.412   9.173   1.529  0.1005  0.2342  0.7197
  638MOL0     C86023  -0.552   9.160   1.508 -0.6424  0.2860  0.4012
  638MOL0     C86024  -0.645   9.199   1.610 -1.0511 -0.5649 -0.3141
  638MOL0     O86025  -0.583   9.264   1.721 -0.7630 -0.1786  0.3707
  638MOL0     C86026  -0.647   9.266   1.838  0.7448 -0.5976  0.3909
  638MOL0     C86027  -0.637   9.156   1.918  0.0554  0.1876 -0.8253
  638MOL0     C86028  -0.700   9.161   2.051 -0.8462 -0.1582  0.3677
  638MOL0     C86029  -0.765   9.275   2.103  1.0772 -0.2889  0.3336
  638MOL0     O86030  -0.817   9.271   2.228  0.4124 -0.5871 -0.6595
  638MOL0     C86031  -0.955   9.293   2.242 -0.5619 -0.0882 -0.1010
  638MOL0     C86032  -1.007   9.275   2.387 -0.9865  0.4610 -0.3159
  638MOL0     C86033  -1.050   9.135   2.408 -0.2489 -0.3500  0.4760
  638MOL0     C86034  -0.938   9.038   2.436 -0.9354  0.5380 -0.5151
  638MOL0     C86035  -0.973   8.883   2.437  0.8012 -0.8158 -1.0261
  638MOL0     C86036  -1.088   8.854   2.539  0.1301  0.8250  1.0938
  638MOL0     C86037  -1.086   8.701   2.585 -0.4903 -0.2635 -0.7084
  638MOL0     C86038  -1.214   8.688   2.675  0.2354  0.0363  0.6890
  638MOL0    Cl86039  -1.210   8.535   2.754  0.2557 -0.0875 -0.7764
  638MOL0     C86040  -0.772   9.386   2.014  1.0140  0.2119  0.1009
  638MOL0     C86041  -0.711   9.383   1.889  0.0612 -0.6690 -0.7485
  638MOL0     O86042  -0.763   9.176   1.602 -0.3640  0.1915 -0.0600
  638MOL0     C86043  -0.585   9.111   1.382  0.4763 -0.1646  0.8975
  638MOL0     C86044  -0.491   9.050   1.293  0.7717 -0.0881  0.1864
  638MOL0     N86045  -0.131   8.985   0.698 -0.2755  0.1139 -0.6640
  638MOL0     N86046  -0.126   8.998   0.567 -0.2394 -0.3080 -1.0267
  638MOL0     C86047   0.374   9.081   0.042  0.4508  0.4699 -0.3037
  638MOL0     C86048   0.509   9.066   0.022  0.5553 -0.2135 -0.0889
  638MOL0     C86049   0.943   9.124  -0.114  0.2948  0.2453 -0.1695
  638MOL0     C86050   1.040   9.195  -0.039 -0.9197 -0.8216  0.5902
  638MOL0     C86051   1.166   9.195  -0.097  0.2293 -0.0756 -0.6528
  638MOL0     C86052   1.201   9.133  -0.215  0.4288  0.5093 -0.9185
  638MOL0     O86053   1.322   9.150  -0.282  1.1339 -0.7159  0.1413
  638MOL0     C86054   1.425   9.207  -0.204 -0.1286  0.4378 -0.2170
  638MOL0     C86055   1.443   9.361  -0.210  0.2359  0.0492 -0.2945
  638MOL0     C86056   1.543   9.393  -0.102  0.4184  0.2870 -0.3127
  638MOL0     C86057   1.593   9.545  -0.102 -0.3931 -0.2735 -0.2401
  638MOL0     C86058   1.479   9.634  -0.066  0.8685  0.4669  0.2610
  638MOL0     C86059   1.386   9.713  -0.049 -1.1341  0.0736  0.0396
  638MOL0     C86060   1.102   9.060  -0.286  0.0173 -0.5610 -0.3954
  638MOL0     C86061   0.971   9.050  -0.236  0.1741 -0.5973 -0.2901
  638MOL0     C86062   0.878   8.958  -0.314 -0.1249 -1.0355  0.6984
  638MOL0     H86063   0.531   9.058  -0.314  2.9055 -2.6535  1.7784
  638MOL0     H86064   0.283   9.055  -0.291 -0.4966 -0.2511 -0.4445
  638MOL0     H86065   0.189   9.320  -0.002 -1.6994  0.2741  0.4407
  638MOL0     H86066   0.195   9.279  -0.180  2.0980 -1.8932  0.9293
  638MOL0     H86067  -0.060   9.246  -0.130 -2.7807  1.4254  0.9440
  638MOL0     H86068   0.006   9.414  -0.120  1.0304  0.4636  1.6474
  638MOL0     H86069  -0.037   9.407   0.114 -1.1652 -2.0159  5.4510
  638MOL0     H86070   0.013   9.241   0.129  3.3087  1.4257 -1.1776
  638MOL0     H86071  -0.255   9.350   0.013 -2.1154 -0.6967  0.2248
  638MOL0     H86072  -0.217   9.178   0.027  1.2303  0.6541 -0.1612
  638MOL0     H86073  -0.227   9.376   0.258 -0.3992 -1.5744  3.4556
  638MOL0     H86074  -0.372   9.284   0.221 -0.2417  0.3875 -2.1665
  638MOL0     H86075  -0.106   9.148   0.309 -0.9346 -0.6603  2.3844
  638MOL0     H86076  -0.222   9.213   0.416  0.1689 -1.3313  0.4265
  638MOL0     H86077  -0.307   9.012   0.196 -0.5374 -0.1583  0.0524
  638MOL0     H86078  -0.401   9.074   0.325  0.8950  2.8411 -1.4602
  638MOL0     H86079  -0.325   8.831   0.351 -0.0764  0.1119 -0.3975
  638MOL0     H86080  -0.151   8.869   0.319  1.1328  1.7341 -0.5668
  638MOL0     H86081  -0.377   8.808   0.592  2.3503 -1.8680  1.6389
  638MOL0     H86082  -0.354   8.917   0.912 -1.2643 -0.7951 -2.1062
  638MOL0     H86083  -0.314   8.763   0.848  3.4691 -1.5522 -0.8207
  638MOL0     H86084  -0.070   8.820   0.941  0.1973  2.5855 -2.2747
  638MOL0     H86085  -0.121   8.961   0.998 -0.6737 -0.3552  2.3708
  638MOL0     H86086  -0.123   8.793   1.167 -1.5907  3.4934  2.1045
  638MOL0     H86087  -0.238   8.693   1.078  1.2589  0.5126 -0.8631
  638MOL0     H86088  -0.355   8.789   1.249  2.0421 -0.4115  0.7698
  638MOL0     H86089  -0.404   8.899   1.127  0.5214  1.7010  0.9465
  638MOL0     H86090  -0.219   9.090   1.492  0.7325  2.2066  1.4664
  638MOL0     H86091  -0.373   9.210   1.623 -0.3539 -1.2781  1.5348
  638MOL0     H86092  -0.591   9.067   1.875  1.9310  0.8468 -0.2857
  638MOL0     H86093  -0.700   9.077   2.119  0.0697 -1.3659 -1.0741
  638MOL0     H86094  -0.973   9.394   2.204  0.7050  0.0087 -0.4975
  638MOL0     H86095  -1.014   9.229   2.175 -1.7661  0.0255  0.8184
  638MOL0     H86096  -0.937   9.303   2.466  1.5129 -0.3816 -2.1139
  638MOL0     H86097  -1.099   9.334   2.397  0.5671  3.0889 -0.7289
  638MOL0     H86098  -1.110   9.133   2.499 -0.8476 -0.1547  0.0943
  638MOL0     H86099  -1.109   9.117   2.318  3.9642  2.1708 -3.2504
  638MOL0     H86100  -0.890   9.057   2.533  1.1899  1.5950 -1.6922
  638MOL0     H86101  -0.852   9.044   2.369 -1.8385 -1.9722 -1.9987
  638MOL0     H86102  -0.888   8.818   2.460 -1.4866 -4.2528 -1.5619
  638MOL0     H86103  -1.008   8.858   2.336 -0.2803  2.8610 -1.7110
  638MOL0     H86104  -1.069   8.916   2.627  1.0821  2.7332 -0.3638
  638MOL0     H86105  -1.186   8.886   2.502  0.4932  4.2676  2.7263
  638MOL0     H86106  -1.002   8.693   2.654  1.0848  1.4075 -2.3157
  638MOL0     H86107  -1.079   8.622   2.510  1.1189 -1.1110  0.2818
  638MOL0     H86108  -1.216   8.762   2.756  0.1176 -1.0469  1.7088
  638MOL0     H86109  -1.302   8.691   2.610  1.6015 -3.7751 -1.6049
  638MOL0     H86110  -0.807   9.485   2.043 -1.3329 -1.1169  2.2505
  638MOL0     H86111  -0.712   9.470   1.825 -0.6177  1.8326  2.3841
  638MOL0     H86112  -0.691   9.106   1.357  0.2721 -1.5320  1.9548
  638MOL0     H86113  -0.530   9.009   1.201  1.1713 -4.2156  1.6613
  638MOL0     H86114   0.327   9.083   0.140 -1.2510  0.6630 -1.1102
  638MOL0     H86115   0.568   9.067   0.113  1.1992 -0.2686 -0.4967
  638MOL0     H86116   1.025   9.250   0.053  2.0856  0.3230  0.4895
  638MOL0     H86117   1.227   9.265  -0.040  0.1587 -1.1996  0.8666
  638MOL0     H86118   1.519   9.171  -0.246  0.4418 -0.2042  1.5354
  638MOL0     H86119   1.437   9.168  -0.103  6.2888  3.2662  0.6483
  638MOL0     H86120   1.350   9.416  -0.191  0.8567  0.6839  0.9379
  638MOL0     H86121   1.480   9.385  -0.310  1.8654 -3.9608 -0.8391
  638MOL0     H86122   1.624   9.320  -0.104 -0.9701 -1.2935 -0.8305
  638MOL0     H86123   1.488   9.381  -0.008 -0.9465  0.4939 -1.0549
  638MOL0     H86124   1.677   9.543  -0.032  0.0504  0.1506 -0.7567
  638MOL0     H86125   1.626   9.583  -0.199 -1.9114  1.8571  0.0070
  638MOL0     H86126   1.309   9.781  -0.018 -1.8154 -1.6091  2.3309
  638MOL0     H86127   1.126   9.006  -0.377  0.1987 -0.7805 -0.2193
  638MOL0     H86128   0.936   8.906  -0.391  0.3771  0.6914 -0.1308
  638MOL0     H86129   0.824   8.891  -0.247  1.1897 -0.4701  2.3943
  638MOL0     H86130   0.810   9.024  -0.368  1.3235 -0.7262 -0.8355
  639MOL0     O86131   8.914   2.658   3.421  0.1229  0.7690 -0.3165
  639MOL0     C86132   8.928   2.569   3.336  1.1129  0.6594 -0.9063
  639MOL0     O86133   8.835   2.545   3.239 -0.3081 -0.3300 -1.1013
  639MOL0     C86134   8.721   2.616   3.224 -0.6669 -0.2928 -0.8984
  639MOL0     C86135   8.608   2.544   3.182 -0.6066  0.2674 -0.3864
  639MOL0     C86136   8.485   2.614   3.162  0.4485  0.4493 -0.5578
  639MOL0     C86137   8.476   2.752   3.172  0.6064 -0.3620  0.2287
  639MOL0     O86138   8.366   2.825   3.125  0.0011 -0.0690 -0.2644
  639MOL0     C86139   8.264   2.747   3.051 -0.5153 -0.0179 -0.2603
  639MOL0     C86140   8.139   2.832   3.048 -0.6737 -0.4874  0.2000
  639MOL0     C86141   8.136   2.917   2.913 -0.9495  0.2920 -0.5042
  639MOL0     C86142   8.061   3.048   2.940  0.3867 -0.0395 -0.5331
  639MOL0     C86143   8.132   3.179   2.916  0.1307  0.7076  0.3717
  639MOL0     C86144   8.272   3.203   2.966  0.5860 -0.4315 -0.1828
  639MOL0     C86145   8.297   3.197   3.118 -0.0641 -0.7449  0.0153
  639MOL0     C86146   8.444   3.223   3.141  0.6338 -0.1802  0.0858
  639MOL0     N86147   8.490   3.214   3.283  0.2502 -0.1793 -0.6584
  639MOL0     C86148   8.426   3.152   3.379  0.9573  0.0547 -0.7708
  639MOL0     C86149   8.525   3.145   3.479  0.6520  0.3135  0.4084
  639MOL0     C86150   8.513   3.061   3.598  0.3191  0.4567 -0.6283
  639MOL0     C86151   8.551   2.917   3.563  0.1064  0.4009  0.1210
  639MOL0     C86152   8.523   2.825   3.677 -0.2821 -0.0266  0.2923
  639MOL0     C86153   8.590   2.686   3.654  0.5569  0.3355 -0.4158
  639MOL0     O86154   8.515   2.612   3.563  0.3470 -0.1855  0.4984
  639MOL0     C86155   8.539   2.478   3.548 -0.5249  0.0634  0.5356
  639MOL0     C86156   8.451   2.399   3.471  0.2940 -0.0003  0.0246
  639MOL0     C86157   8.465   2.257   3.468  0.1176 -0.0580  0.9079
  639MOL0     C86158   8.570   2.193   3.527  0.8102  0.5686 -0.1548
  639MOL0     C86159   8.589   2.046   3.528 -0.8185  0.1028  0.2586
  639MOL0     O86160   8.711   2.004   3.578 -0.6530 -0.3479  0.4706
  639MOL0     C86161   8.727   1.869   3.579 -0.2405  0.5080 -0.0787
  639MOL0     C86162   8.674   1.770   3.493  0.6252  0.4495 -0.2412
  639MOL0     C86163   8.685   1.633   3.509  0.5211  0.6991 -0.5185
  639MOL0     C86164   8.752   1.585   3.620  0.0207 -0.4252  1.0782
  639MOL0     O86165   8.766   1.453   3.619  0.2346 -0.3455  0.5394
  639MOL0     C86166   8.887   1.397   3.647  0.6496  0.4481 -0.1781
  639MOL0     C86167   8.886   1.270   3.560  1.2433  0.0832  0.3269
  639MOL0     C86168   9.004   1.182   3.584  0.0442  0.1744  1.1797
  639MOL0     C86169   9.129   1.231   3.515  0.4739 -0.4721  0.7713
  639MOL0     C86170   9.242   1.131   3.528 -0.2755  0.9933 -0.8321
  639MOL0     C86171   9.379   1.172   3.461 -0.0031  0.2554  0.0885
  639MOL0     C86172   9.351   1.164   3.303 -0.4564 -0.1646  0.5822
  639MOL0     C86173   9.353   1.018   3.238  0.7756 -0.4830 -0.8017
  639MOL0    Cl86174   9.512   0.942   3.234  0.2079 -0.3432  0.2334
  639MOL0     C86175   8.813   1.677   3.702 -1.0165 -0.7890 -1.3470
  639MOL0     C86176   8.806   1.818   3.676 -0.6204  0.4442 -0.5367
  639MOL0     O86177   8.499   1.975   3.482 -0.9334  0.2477  0.8907
  639MOL0     C86178   8.658   2.266   3.605 -0.3295 -0.5479  0.3477
  639MOL0     C86179   8.639   2.407   3.622  0.0607  0.6525  1.1698
  639MOL0     N86180   8.649   3.195   3.429  0.6348 -0.1053  0.6409
  639MOL0     N86181   8.622   3.215   3.307 -0.2392 -0.0705 -0.4501
  639MOL0     C86182   8.586   2.828   3.217  0.1858 -0.9245  0.9635
  639MOL0     C86183   8.712   2.753   3.230  0.6174  1.4053 -0.6943
  639MOL0     C86184   9.045   2.475   3.354  0.3643 -0.9349 -0.0687
  639MOL0     C86185   9.169   2.537   3.362 -0.1930  0.1231  0.1022
  639MOL0     C86186   9.289   2.468   3.366 -0.6077 -0.0212 -0.3167
  639MOL0     C86187   9.287   2.329   3.367 -0.1313  0.0056  0.3312
  639MOL0     O86188   9.412   2.264   3.349 -0.0485  0.7979 -0.3627
  639MOL0     C86189   9.415   2.128   3.305 -0.7608 -0.9609  0.2721
  639MOL0     C86190   9.402   2.106   3.161 -0.4762 -0.9208  0.1961
  639MOL0     C86191   9.526   2.156   3.085  0.3871 -0.3138  0.9568
  639MOL0     C86192   9.504   2.191   2.938  0.4912  0.3767  1.2371
  639MOL0     C86193   9.467   2.083   2.855  0.4480  0.3339  0.7723
  639MOL0     C86194   9.431   1.978   2.809 -0.1164 -0.1036  0.0031
  639MOL0     C86195   9.157   2.259   3.358 -0.8657 -0.6635 -0.6937
  639MOL0     C86196   9.039   2.334   3.356  0.0703 -0.0737  0.1129
  639MOL0     C86197   8.912   2.256   3.336 -0.2332  0.3715  0.6251
  639MOL0     H86198   8.614   2.436   3.183  1.4181  0.3466 -0.1755
  639MOL0     H86199   8.397   2.556   3.134  1.4213 -0.5992 -1.5953
  639MOL0     H86200   8.292   2.724   2.948 -0.2549  0.6975 -0.3534
  639MOL0     H86201   8.239   2.650   3.095  4.4087 -1.4560  0.0129
  639MOL0     H86202   8.145   2.900   3.134  3.8484  0.9634 -1.0011
  639MOL0     H86203   8.051   2.770   3.064 -0.4359 -1.3655 -1.6007
  639MOL0     H86204   8.088   2.850   2.841  1.3161  0.2597 -2.0888
  639MOL0     H86205   8.241   2.937   2.889 -1.4558  2.7759 -0.9255
  639MOL0     H86206   7.971   3.046   2.878  1.8016  1.2406 -2.7605
  639MOL0     H86207   8.027   3.062   3.043  4.2402  0.3149  0.8539
  639MOL0     H86208   8.135   3.195   2.808  0.5625  5.3428  0.8358
  639MOL0     H86209   8.068   3.253   2.965 -0.1201 -0.3075  1.6158
  639MOL0     H86210   8.346   3.134   2.926 -0.1957 -2.1492  1.1727
  639MOL0     H86211   8.293   3.307   2.941  0.0608  0.1197  1.5297
  639MOL0     H86212   8.264   3.096   3.146 -2.3268 -0.4961 -1.4837
  639MOL0     H86213   8.229   3.261   3.174 -0.7186 -0.2737 -1.2902
  639MOL0     H86214   8.501   3.152   3.080 -0.4805 -0.7920 -0.2790
  639MOL0     H86215   8.461   3.325   3.106 -0.1554  1.1028  3.1137
  639MOL0     H86216   8.324   3.114   3.386  0.6592  0.9594  0.0502
  639MOL0     H86217   8.577   3.096   3.680  1.4377 -2.0505 -0.3371
  639MOL0     H86218   8.407   3.073   3.625  0.4976 -1.8026  1.4534
  639MOL0     H86219   8.511   2.876   3.470  0.8937  0.2994 -0.1830
  639MOL0     H86220   8.660   2.931   3.557  0.0762  1.3493  1.3552
  639MOL0     H86221   8.416   2.819   3.699 -0.1418 -1.5607  0.6777
  639MOL0     H86222   8.579   2.870   3.759 -0.1595 -0.8956  0.6974
  639MOL0     H86223   8.606   2.637   3.751 -0.2190  1.2185  0.1736
  639MOL0     H86224   8.691   2.705   3.617  1.0005 -1.5698 -0.3146
  639MOL0     H86225   8.383   2.451   3.404  0.3331 -1.2279 -1.0053
  639MOL0     H86226   8.381   2.205   3.422 -2.1872  2.9555  1.3878
  639MOL0     H86227   8.627   1.801   3.400 -0.4046 -0.7651 -0.1513
  639MOL0     H86228   8.651   1.565   3.431 -0.2506  2.1355 -1.4783
  639MOL0     H86229   8.970   1.461   3.616 -0.1605  1.5588 -0.1073
  639MOL0     H86230   8.900   1.367   3.752 -0.3748 -0.2628 -0.2332
  639MOL0     H86231   8.792   1.220   3.585  1.3295 -0.7379 -0.8781
  639MOL0     H86232   8.879   1.288   3.452  0.2719 -0.1722  0.3362
  639MOL0     H86233   9.028   1.163   3.689 -1.0183  0.6854  1.5330
  639MOL0     H86234   8.970   1.081   3.556 -2.0987  0.7745  1.4015
  639MOL0     H86235   9.157   1.312   3.583  2.0999  0.4633 -0.9143
  639MOL0     H86236   9.115   1.267   3.413  0.4606 -0.3921  0.8016
  639MOL0     H86237   9.219   1.030   3.493  5.6269 -0.5080 -1.4645
  639MOL0     H86238   9.258   1.112   3.634 -2.5479 -2.1398 -0.9001
  639MOL0     H86239   9.397   1.278   3.480  0.4853  0.1255  0.3516
  639MOL0     H86240   9.460   1.105   3.491 -0.5991 -2.2959 -3.3484
  639MOL0     H86241   9.436   1.215   3.255  0.4018 -1.1515  1.0268
  639MOL0     H86242   9.264   1.225   3.276 -0.3944 -0.1350  0.4478
  639MOL0     H86243   9.280   0.954   3.289  0.1825  0.6495 -0.1786
  639MOL0     H86244   9.314   1.020   3.136 -1.7801 -1.7012  0.0460
  639MOL0     H86245   8.865   1.640   3.790 -0.7915 -1.2750 -1.6754
  639MOL0     H86246   8.853   1.890   3.742 -1.8302 -0.4573  1.3834
  639MOL0     H86247   8.744   2.219   3.652  0.3051  0.3703  0.1150
  639MOL0     H86248   8.714   2.461   3.679 -1.6092  4.8143 -0.2426
  639MOL0     H86249   8.599   2.936   3.218  3.9672 -1.2451  1.4260
  639MOL0     H86250   8.807   2.805   3.241  0.8631  1.0893 -1.2538
  639MOL0     H86251   9.165   2.645   3.372  1.4550  0.1417  1.0061
  639MOL0     H86252   9.381   2.525   3.368 -0.0819 -0.7543 -1.7851
  639MOL0     H86253   9.353   2.058   3.361 -1.7097 -0.5614 -0.2659
  639MOL0     H86254   9.516   2.091   3.326 -1.2722 -3.2654 -1.0109
  639MOL0     H86255   9.309   2.151   3.124 -0.7090 -0.7172  1.0179
  639MOL0     H86256   9.394   1.999   3.140 -2.8174 -1.2756  2.3949
  639MOL0     H86257   9.602   2.078   3.088 -0.2484 -0.9148  1.8582
  639MOL0     H86258   9.559   2.250   3.130 -1.1084 -0.9610  3.6257
  639MOL0     H86259   9.417   2.256   2.929  1.0502  1.1292  1.1311
  639MOL0     H86260   9.589   2.247   2.898 -0.8534  1.1679 -0.6197
  639MOL0     H86261   9.381   1.886   2.783 -1.3836  0.5145  0.1833
  639MOL0     H86262   9.146   2.152   3.375 -0.1505 -0.4320  1.5757
  639MOL0     H86263   8.855   2.277   3.427 -1.4910 -2.5781  0.6250
  639MOL0     H86264   8.852   2.297   3.254 -1.3814  0.0010  1.2531
  639MOL0     H86265   8.933   2.151   3.316  1.1943  1.1030 -2.1245
  640MOL0     O86266  10.764   3.658  11.046  0.2987  0.9885  0.2381
  640MOL0     C86267  10.724   3.770  11.006  1.0298 -0.2838 -0.4705
  640MOL0     O86268  10.630   3.789  10.915  1.0069 -0.6190 -0.0065
  640MOL0     C86269  10.581   3.692  10.835 -0.8686 -0.5745  0.1576
  640MOL0     C86270  10.646   3.589  10.768  0.2077  0.5919 -0.0093
  640MOL0     C86271  10.571   3.494  10.686 -0.6815 -0.7439  0.9037
  640MOL0     C86272  10.437   3.509  10.661 -0.2134 -0.7498 -0.1141
  640MOL0     O86273  10.372   3.431  10.570 -0.4178  0.3089 -0.2228
  640MOL0     C86274  10.436   3.405  10.439 -0.2980  0.5252 -0.3385
  640MOL0     C86275  10.352   3.333  10.325  0.1068  1.1606 -0.1721
  640MOL0     C86276  10.441   3.249  10.229 -0.3002  0.3631  0.2126
  640MOL0     C86277  10.561   3.321  10.170  0.2247  0.5217  0.0384
  640MOL0     C86278  10.599   3.269  10.038  0.1334 -0.3545 -0.1380
  640MOL0     C86279  10.731   3.338   9.999 -0.0737  0.5308 -0.1598
  640MOL0     C86280  10.757   3.281   9.850 -0.4125 -0.1230 -0.7393
  640MOL0     C86281  10.787   3.136   9.850 -0.9942 -0.1006 -0.2845
  640MOL0     N86282  10.871   3.100   9.730 -0.6948  0.6920 -0.3004
  640MOL0     C86283  10.970   3.005   9.735  1.1264 -0.5148 -0.0379
  640MOL0     C86284  11.009   2.975   9.604  0.7924  0.1058  0.7623
  640MOL0     C86285  11.111   2.880   9.545 -0.4483 -0.2037 -0.6602
  640MOL0     C86286  11.063   2.733   9.561 -0.3226  0.2247  0.3501
  640MOL0     C86287  10.964   2.678   9.449 -0.7412 -0.2817  0.4129
  640MOL0     C86288  10.814   2.721   9.451 -0.9713 -0.3634 -0.2029
  640MOL0     O86289  10.749   2.648   9.563  0.1439 -0.3145  0.5243
  640MOL0     C86290  10.656   2.717   9.646  0.2334  0.6183  0.0143
  640MOL0     C86291  10.648   2.660   9.776 -0.1767 -0.4312  0.9065
  640MOL0     C86292  10.558   2.714   9.878  0.0147  0.4105  0.4719
  640MOL0     C86293  10.481   2.819   9.831 -0.6929 -0.3740 -0.1889
  640MOL0     C86294  10.398   2.878   9.923  0.5638 -0.3859 -0.1924
  640MOL0     O86295  10.351   2.799  10.028 -0.6497  0.1076 -0.2916
  640MOL0     C86296  10.277   2.865  10.115  1.7816 -0.0746 -0.7317
  640MOL0     C86297  10.135   2.860  10.102  0.5455 -0.2170  0.3228
  640MOL0     C86298  10.051   2.909  10.208 -0.5941  0.0072 -0.1622
  640MOL0     C86299  10.115   2.980  10.316 -0.8308 -0.0196 -0.4306
  640MOL0     O86300  10.045   3.050  10.400 -1.0632 -0.6525  0.2100
  640MOL0     C86301   9.913   3.101  10.366 -0.1830  0.5747 -0.0550
  640MOL0     C86302   9.858   3.175  10.489  0.6762  0.0951 -0.7512
  640MOL0     C86303   9.720   3.234  10.473 -0.3134 -0.0803  0.6930
  640MOL0     C86304   9.597   3.141  10.480 -0.1153  1.2175 -0.2141
  640MOL0     C86305   9.574   3.052  10.609  0.7949 -0.7318  0.6405
  640MOL0     C86306   9.562   3.136  10.731  0.3371 -0.6995 -0.2188
  640MOL0     C86307   9.522   3.036  10.842  0.1380  0.6930 -0.1368
  640MOL0     C86308   9.490   3.121  10.970 -1.9142  0.8393 -1.0036
  640MOL0    Cl86309   9.393   3.272  10.943 -0.0584  0.0923  0.6102
  640MOL0     C86310  10.249   2.978  10.331  1.1786  0.8384  0.0937
  640MOL0     C86311  10.332   2.917  10.234 -0.2563  0.0005 -0.9406
  640MOL0     O86312  10.382   2.999   9.911 -0.7361  0.4446  0.4844
  640MOL0     C86313  10.500   2.883   9.705 -0.2179  0.6987 -1.3561
  640MOL0     C86314  10.584   2.826   9.604  0.2876 -0.5360  0.2066
  640MOL0     N86315  10.927   3.052   9.525 -0.5452  0.0825 -0.6816
  640MOL0     N86316  10.834   3.110   9.601  0.2982 -0.1621 -0.0181
  640MOL0     C86317  10.375   3.615  10.725  0.0474  0.4679 -0.3698
  640MOL0     C86318  10.441   3.700  10.813  0.6625  0.4271 -0.0990
  640MOL0     C86319  10.796   3.884  11.076  0.1585  0.4368  1.4207
  640MOL0     C86320  10.890   3.845  11.175 -0.8764  0.6342  0.6795
  640MOL0     C86321  10.955   3.933  11.259  0.2985  0.3486  0.3892
  640MOL0     C86322  10.946   4.067  11.230  1.3239 -1.0805  0.6199
  640MOL0     O86323  11.008   4.166  11.300  0.4032 -0.4917 -0.2299
  640MOL0     C86324  11.123   4.124  11.380 -0.1050  0.6274  0.4394
  640MOL0     C86325  11.223   4.244  11.389  0.4437 -0.0552 -0.2268
  640MOL0     C86326  11.162   4.356  11.463 -0.2915 -0.3755  0.3284
  640MOL0     C86327  11.248   4.485  11.425 -0.7997 -0.3634  0.3126
  640MOL0     C86328  11.202   4.614  11.463  0.2083 -0.4908  0.5301
  640MOL0     C86329  11.172   4.724  11.498 -0.3435  1.1303 -0.1471
  640MOL0     C86330  10.859   4.108  11.119 -0.2365  1.1851  0.0177
  640MOL0     C86331  10.775   4.020  11.054  0.1978  0.9327 -0.6237
  640MOL0     C86332  10.667   4.079  10.973  0.0279  0.3469 -0.9002
  640MOL0     H86333  10.753   3.575  10.783 -0.1060 -2.2297  0.1050
  640MOL0     H86334  10.637   3.422  10.639 -1.4413 -0.6206 -0.4082
  640MOL0     H86335  10.472   3.500  10.400 -1.8230  0.3924 -2.2297
  640MOL0     H86336  10.519   3.334  10.453  0.4749  1.3050 -0.9043
  640MOL0     H86337  10.296   3.408  10.269  1.2873  3.1299  1.1255
  640MOL0     H86338  10.284   3.264  10.375  0.7706  0.7530  0.1772
  640MOL0     H86339  10.384   3.209  10.145  0.7803 -1.4264  0.2828
  640MOL0     H86340  10.478   3.161  10.282  3.0910  1.9775  0.7730
  640MOL0     H86341  10.535   3.428  10.169  0.4053  0.6570  2.5828
  640MOL0     H86342  10.646   3.331  10.238  0.4363  3.5728 -0.5016
  640MOL0     H86343  10.608   3.160  10.041 -3.2010 -0.7199  0.6749
  640MOL0     H86344  10.521   3.300   9.968 -2.1374  0.4935  2.5290
  640MOL0     H86345  10.725   3.446   9.983 -1.4959  0.3736 -0.8917
  640MOL0     H86346  10.802   3.309  10.077 -0.8870 -0.7142  0.1450
  640MOL0     H86347  10.834   3.339   9.799 -0.7752  1.4789  0.4594
  640MOL0     H86348  10.677   3.306   9.779 -0.7729 -0.6475 -0.5266
  640MOL0     H86349  10.845   3.107   9.938  1.5801  2.7291 -0.8766
  640MOL0     H86350  10.693   3.080   9.847 -0.0572 -2.0444  2.7796
  640MOL0     H86351  10.996   2.951   9.825  0.2177  0.0908  0.5982
  640MOL0     H86352  11.128   2.900   9.439 -3.7445  0.6370 -1.1341
  640MOL0     H86353  11.208   2.909   9.586  0.1113 -1.2420 -1.2103
  640MOL0     H86354  11.146   2.667   9.585 -0.1782  1.1584  2.6626
  640MOL0     H86355  10.998   2.720   9.649 -1.3045 -1.0284 -0.5144
  640MOL0     H86356  10.978   2.570   9.439  1.0208 -0.0282 -0.4076
  640MOL0     H86357  11.013   2.712   9.357  1.4797 -1.2406  1.1527
  640MOL0     H86358  10.770   2.684   9.358  0.2705 -1.3879 -0.4258
  640MOL0     H86359  10.806   2.830   9.451  2.6375  0.0525 -1.1266
  640MOL0     H86360  10.702   2.566   9.787 -1.9292 -2.1810 -3.3435
  640MOL0     H86361  10.542   2.671   9.977 -2.1064 -0.9324 -0.3954
  640MOL0     H86362  10.094   2.805  10.018  0.3072  1.0830 -0.4591
  640MOL0     H86363   9.942   2.906  10.214 -0.6998  3.1234  1.4849
  640MOL0     H86364   9.933   3.172  10.285  3.0314  1.5826  1.4519
  640MOL0     H86365   9.845   3.022  10.332 -0.7494  2.7324 -4.6886
  640MOL0     H86366   9.873   3.109  10.575 -0.3529 -0.1517 -0.7496
  640MOL0     H86367   9.925   3.262  10.496  1.2171 -0.4725  2.0619
  640MOL0     H86368   9.703   3.315  10.544  2.3154  0.8296  0.4143
  640MOL0     H86369   9.726   3.289  10.379  0.1914  1.6744  1.7117
  640MOL0     H86370   9.602   3.073  10.394  1.6211  0.8370  0.1473
  640MOL0     H86371   9.508   3.201  10.462 -2.5390 -2.0496 -0.1748
  640MOL0     H86372   9.653   2.977  10.618 -0.6823 -2.2718  1.3019
  640MOL0     H86373   9.480   2.999  10.592 -0.0045  1.0793 -1.0856
  640MOL0     H86374   9.659   3.180  10.757  0.2766 -1.2368  0.9920
  640MOL0     H86375   9.490   3.216  10.714  0.3545 -0.2458  1.6925
  640MOL0     H86376   9.602   2.965  10.861 -0.8709  0.6179  5.8982
  640MOL0     H86377   9.425   2.993  10.814  1.3608 -2.0088 -0.4839
  640MOL0     H86378   9.440   3.064  11.048  0.3964  1.7255  1.2723
  640MOL0     H86379   9.582   3.145  11.024 -3.3156  1.2006  1.3546
  640MOL0     H86380  10.286   3.036  10.416 -0.6827 -1.2386  2.5052
  640MOL0     H86381  10.440   2.913  10.237 -0.2218  1.0588 -0.1820
  640MOL0     H86382  10.442   2.974   9.691 -1.6498 -0.4465 -3.3311
  640MOL0     H86383  10.610   2.891   9.520 -0.5907  0.9826  1.0637
  640MOL0     H86384  10.268   3.609  10.708  0.2600 -2.6727 -1.1007
  640MOL0     H86385  10.388   3.783  10.860 -1.2465 -0.6592 -0.2537
  640MOL0     H86386  10.914   3.741  11.192  0.7014  0.7184 -0.7390
  640MOL0     H86387  11.018   3.886  11.334  0.4670 -0.7779 -0.4438
  640MOL0     H86388  11.170   4.044  11.321 -3.0934  0.6243 -2.1860
  640MOL0     H86389  11.087   4.077  11.472 -1.0064  0.9871  0.2822
  640MOL0     H86390  11.269   4.264  11.292  1.2669  0.4598  0.2515
  640MOL0     H86391  11.305   4.220  11.458  1.4517 -0.6577 -1.5827
  640MOL0     H86392  11.153   4.340  11.571  0.4742  3.1500  1.0564
  640MOL0     H86393  11.063   4.383  11.424 -0.6375  0.5718  1.7654
  640MOL0     H86394  11.346   4.467  11.471 -0.7720 -0.6678  0.1356
  640MOL0     H86395  11.260   4.480  11.316 -1.0615  0.8240  0.2125
  640MOL0     H86396  11.162   4.821  11.543  0.8501  1.3695 -0.3759
  640MOL0     H86397  10.863   4.211  11.086 -0.5739  0.2598 -3.3654
  640MOL0     H86398  10.697   4.061  10.869 -1.1357  1.1767 -1.4052
  640MOL0     H86399  10.568   4.038  10.998 -0.1039  1.2522  0.1041
  640MOL0     H86400  10.666   4.187  10.987  2.1185  0.5524 -2.0056
  641MOL0     O86401   8.924  10.280   7.019  0.0859  0.3215  0.3341
  641MOL0     C86402   9.033  10.336   7.043  0.5159  0.5629  0.5982
  641MOL0     O86403   9.038  10.475   7.050 -0.7872  0.0253  0.0180
  641MOL0     C86404   8.931  10.560   7.021  0.2881  0.5786 -0.0400
  641MOL0     C86405   8.961  10.664   6.937 -0.2083 -0.7171 -0.7018
  641MOL0     C86406   8.851  10.757   6.905  0.6503  0.6867  0.8483
  641MOL0     C86407   8.719  10.717   6.938  0.3255 -0.0253  0.0450
  641MOL0     O86408   8.616  10.803   6.914 -0.4839 -0.1793  1.1932
  641MOL0     C86409   8.631  10.936   6.951 -0.5397 -0.6707  0.0948
  641MOL0     C86410   8.508  11.000   6.993 -0.2712  0.0690 -0.6721
  641MOL0     C86411   8.462  10.913   7.126 -0.4111  0.4958 -0.1140
  641MOL0     C86412   8.358  10.989   7.211  1.2917 -0.9000  0.0096
  641MOL0     C86413   8.221  10.994   7.123 -0.6435 -1.1223 -0.2018
  641MOL0     C86414   8.135  11.114   7.182  0.0479 -0.0134  0.4128
  641MOL0     C86415   7.979  11.106   7.133 -0.1327  1.0275 -0.1676
  641MOL0     C86416   7.897  11.007   7.202 -0.1459  0.5720  0.3621
  641MOL0     N86417   7.876  11.027   7.340  0.9794 -0.1999  0.4094
  641MOL0     C86418   7.759  11.087   7.398 -0.5739  0.3504 -0.2617
  641MOL0     C86419   7.781  11.077   7.529  0.4309 -0.5947 -0.6119
  641MOL0     C86420   7.713  11.149   7.630  1.4057 -0.9700 -0.3971
  641MOL0     C86421   7.654  11.061   7.743  0.2061  0.0505  0.5012
  641MOL0     C86422   7.584  11.133   7.855 -1.0202  0.3852  0.5599
  641MOL0     C86423   7.451  11.196   7.831  0.8553 -0.7026  0.1669
  641MOL0     O86424   7.353  11.104   7.785  0.0520 -0.0141  0.6583
  641MOL0     C86425   7.227  11.136   7.825  0.5325  1.2452 -0.2255
  641MOL0     C86426   7.176  11.257   7.874  1.5979 -0.7800  0.0674
  641MOL0     C86427   7.039  11.280   7.895  0.1352  0.3352  1.4280
  641MOL0     C86428   6.942  11.186   7.869  0.3956 -0.3729 -0.4189
  641MOL0     C86429   6.796  11.198   7.909  0.1972 -0.4782 -0.3435
  641MOL0     O86430   6.712  11.088   7.886 -0.3040 -0.1989  0.8116
  641MOL0     C86431   6.584  11.100   7.914  0.6024  0.2173  0.0246
  641MOL0     C86432   6.509  11.213   7.880 -0.1803  0.9670 -0.2349
  641MOL0     C86433   6.378  11.233   7.900  0.3642  0.2030 -0.0638
  641MOL0     C86434   6.306  11.128   7.953 -0.4205  0.2669 -1.1791
  641MOL0     O86435   6.173  11.123   7.967 -0.2053 -0.3245 -0.7456
  641MOL0     C86436   6.112  11.245   8.004  0.3795 -0.2352 -0.2630
  641MOL0     C86437   6.057  11.234   8.144 -0.7279 -0.4394 -0.1854
  641MOL0     C86438   5.934  11.140   8.135 -0.4663 -0.0105  0.5126
  641MOL0     C86439   5.821  11.209   8.075  1.0307 -0.6152 -0.3655
  641MOL0     C86440   5.749  11.113   7.997 -0.3161  0.6290  0.0118
  641MOL0     C86441   5.651  11.185   7.901  0.7525  0.9811  0.6815
  641MOL0     C86442   5.574  11.079   7.813 -1.1374  0.1040 -0.1518
  641MOL0     C86443   5.486  10.986   7.903  1.3782  0.4419 -0.8686
  641MOL0    Cl86444   5.359  11.089   7.990  0.0122 -0.2792 -0.1671
  641MOL0     C86445   6.378  11.009   7.984  0.0264 -0.3063 -0.6472
  641MOL0     C86446   6.516  10.995   7.970  0.9170 -0.9483 -0.2611
  641MOL0     O86447   6.764  11.309   7.951  0.3327 -0.3469 -0.2632
  641MOL0     C86448   6.988  11.062   7.816  0.0212 -0.3600  0.3271
  641MOL0     C86449   7.126  11.040   7.789  0.6516 -0.7917 -0.5429
  641MOL0     N86450   7.890  10.999   7.560  0.3606  0.0178  0.9147
  641MOL0     N86451   7.950  10.971   7.443 -0.2935 -0.0730 -0.2711
  641MOL0     C86452   8.692  10.614   7.018 -0.5347  0.9340 -0.7346
  641MOL0     C86453   8.802  10.534   7.059  1.0418 -1.2456 -0.3661
  641MOL0     C86454   9.151  10.251   7.038  0.1399  0.1539  0.6949
  641MOL0     C86455   9.253  10.298   6.951 -0.4862  0.0117 -0.4839
  641MOL0     C86456   9.368  10.226   6.933 -0.2198  0.2933 -0.1670
  641MOL0     C86457   9.383  10.097   6.993 -0.1416 -0.0114 -0.4642
  641MOL0     O86458   9.486  10.007   6.976  0.2208  0.0124 -0.3000
  641MOL0     C86459   9.588  10.022   6.869  0.6393 -0.0398 -0.2952
  641MOL0     C86460   9.709  10.099   6.922 -0.2412 -0.2198  0.6353
  641MOL0     C86461   9.766  10.046   7.053  0.8880 -0.2882 -0.1929
  641MOL0     C86462   9.843  10.153   7.120 -1.1628  0.7521  0.1788
  641MOL0     C86463   9.964  10.193   7.038 -0.7362  0.0199 -0.6683
  641MOL0     C86464  10.046  10.219   6.959 -0.1810  0.7285  0.9243
  641MOL0     C86465   9.281  10.053   7.074 -0.0277 -0.0134  0.6244
  641MOL0     C86466   9.170  10.124   7.099 -0.3044  0.3395  0.3331
  641MOL0     C86467   9.058  10.063   7.183  0.2753  0.4671 -0.2637
  641MOL0     H86468   9.066  10.689   6.921 -0.4014 -0.5325 -1.7745
  641MOL0     H86469   8.871  10.851   6.854 -3.3072  0.2916 -1.9160
  641MOL0     H86470   8.702  10.947   7.034  1.2137 -2.4659 -1.0871
  641MOL0     H86471   8.653  11.004   6.869 -2.6659  2.0108  1.5840
  641MOL0     H86472   8.427  10.979   6.923 -0.9467 -0.7368  0.3296
  641MOL0     H86473   8.516  11.109   7.007 -0.6803  0.0541 -0.2942
  641MOL0     H86474   8.547  10.893   7.192  0.2413  3.2463 -0.0210
  641MOL0     H86475   8.412  10.821   7.093 -1.1246  0.0686  2.0320
  641MOL0     H86476   8.334  10.936   7.304 -0.4418  0.1499  0.1865
  641MOL0     H86477   8.389  11.090   7.237 -2.1373  0.2463  0.0375
  641MOL0     H86478   8.238  11.008   7.016  0.2570  1.3820  0.2064
  641MOL0     H86479   8.176  10.895   7.126 -0.1320 -1.3682 -0.5067
  641MOL0     H86480   8.142  11.104   7.291 -0.5391 -2.7575  0.2724
  641MOL0     H86481   8.182  11.209   7.153  1.0323 -0.3133  0.9874
  641MOL0     H86482   7.978  11.070   7.030 -1.9415  0.5781 -0.0213
  641MOL0     H86483   7.933  11.206   7.134 -2.5492  0.0711 -2.9373
  641MOL0     H86484   7.798  10.981   7.165  0.1719 -0.2237  0.0662
  641MOL0     H86485   7.946  10.910   7.200 -1.8786 -0.3330 -0.2469
  641MOL0     H86486   7.689  11.152   7.346 -0.0258  0.7547 -0.5026
  641MOL0     H86487   7.789  11.210   7.680  1.6662 -1.5192 -0.1071
  641MOL0     H86488   7.639  11.214   7.582  1.4506  1.9124  3.0251
  641MOL0     H86489   7.581  10.990   7.703 -0.8491  0.6790  1.2730
  641MOL0     H86490   7.734  11.004   7.792 -1.9562 -5.2587 -1.4696
  641MOL0     H86491   7.652  11.212   7.890 -1.5537  1.7907 -1.3890
  641MOL0     H86492   7.554  11.069   7.938 -3.5024 -0.1772 -0.6823
  641MOL0     H86493   7.465  11.282   7.765 -0.0821 -1.8313 -1.5692
  641MOL0     H86494   7.422  11.240   7.927  2.1500 -3.7983  2.1220
  641MOL0     H86495   7.239  11.337   7.910  0.9929  0.5601 -1.7023
  641MOL0     H86496   7.011  11.381   7.922  0.7846  0.3649  2.0130
  641MOL0     H86497   6.567  11.297   7.843 -0.4247  0.8092 -0.9932
  641MOL0     H86498   6.328  11.327   7.878 -2.3996 -1.7901 -3.0312
  641MOL0     H86499   6.188  11.323   8.014 -1.1134  1.7783 -3.2510
  641MOL0     H86500   6.048  11.287   7.927 -0.8988 -4.7319 -1.9755
  641MOL0     H86501   6.125  11.184   8.213 -2.5945 -1.2526  1.1486
  641MOL0     H86502   6.028  11.336   8.171 -0.8724 -0.0093 -1.8378
  641MOL0     H86503   5.956  11.042   8.092 -1.1690  0.8842 -2.0350
  641MOL0     H86504   5.907  11.123   8.240  0.2673  1.8561  1.0395
  641MOL0     H86505   5.857  11.286   8.006 -2.2692  1.3193 -0.1452
  641MOL0     H86506   5.752  11.264   8.139  1.5645  0.0292 -0.3367
  641MOL0     H86507   5.678  11.057   8.058 -0.1964 -0.2455 -0.6289
  641MOL0     H86508   5.820  11.052   7.939  0.3783  0.7059  0.7509
  641MOL0     H86509   5.569  11.237   7.951 -3.0050 -0.9159 -2.9280
  641MOL0     H86510   5.704  11.257   7.837  1.1400  1.1320  1.1713
  641MOL0     H86511   5.655  11.016   7.776  1.8975  4.9487 -2.8411
  641MOL0     H86512   5.512  11.115   7.731 -1.7594 -2.4962 -0.8975
  641MOL0     H86513   5.426  10.931   7.830  1.0127  0.9365 -0.9428
  641MOL0     H86514   5.529  10.916   7.976 -3.8755  1.2777  3.6191
  641MOL0     H86515   6.324  10.926   8.027 -0.7543  0.5946  0.1625
  641MOL0     H86516   6.555  10.897   7.996 -4.2540 -3.6947 -1.4917
  641MOL0     H86517   6.920  10.979   7.799 -1.7556  0.7700  1.5871
  641MOL0     H86518   7.144  10.944   7.742 -1.2622 -1.2166 -0.5225
  641MOL0     H86519   8.587  10.594   7.038  0.0848 -1.1607  0.7400
  641MOL0     H86520   8.782  10.450   7.125 -1.5006  0.9816  1.9544
  641MOL0     H86521   9.247  10.393   6.898  1.7615  0.6614  0.3097
  641MOL0     H86522   9.444  10.267   6.867 -3.1398  0.9800 -3.4605
  641MOL0     H86523   9.555  10.072   6.779  0.4746 -1.6128 -1.1493
  641MOL0     H86524   9.627   9.921   6.849  0.7596 -0.3429  1.2718
  641MOL0     H86525   9.679  10.203   6.936  3.9414  1.6366 -2.1560
  641MOL0     H86526   9.784  10.096   6.842  1.7786  2.3692  2.2641
  641MOL0     H86527   9.828   9.957   7.040 -2.0324 -2.3368 -1.1554
  641MOL0     H86528   9.686  10.024   7.125 -1.2195  0.9050 -2.0041
  641MOL0     H86529   9.791  10.249   7.116  0.6247  1.7215 -1.1907
  641MOL0     H86530   9.862  10.122   7.224  0.2016  3.3634  0.8086
  641MOL0     H86531  10.135  10.231   6.901 -1.4207 -1.6207 -1.7002
  641MOL0     H86532   9.276   9.949   7.104  0.3131 -0.0883  0.4378
  641MOL0     H86533   9.062   9.954   7.194 -2.3697  0.5909  5.1421
  641MOL0     H86534   9.058  10.107   7.283 -3.7737  3.2030 -1.2250
  641MOL0     H86535   8.960  10.081   7.137  0.5931  0.5243 -0.9273
  642MOL0     O86536   6.754   3.566   2.506 -0.0433 -1.1082 -0.5018
  642MOL0     C86537   6.869   3.526   2.512 -0.5792  0.4639 -0.5280
  642MOL0     O86538   6.962   3.569   2.610 -0.2017  0.8964 -0.7319
  642MOL0     C86539   6.907   3.621   2.727 -0.4230 -0.0508  0.0737
  642MOL0     C86540   6.918   3.755   2.741  0.2939 -0.1112 -0.3282
  642MOL0     C86541   6.883   3.812   2.865  0.0741  0.4420 -0.7245
  642MOL0     C86542   6.804   3.740   2.963 -0.4127 -0.8214 -0.4405
  642MOL0     O86543   6.757   3.780   3.087 -0.5467 -0.4429 -0.1120
  642MOL0     C86544   6.730   3.926   3.102 -0.6006  1.3813 -0.0205
  642MOL0     C86545   6.612   3.935   3.199 -0.1340  0.8564  0.4250
  642MOL0     C86546   6.561   4.079   3.209 -0.5122 -0.0612  0.3205
  642MOL0     C86547   6.432   4.092   3.295 -0.2096 -0.3349 -0.1679
  642MOL0     C86548   6.363   4.228   3.265  0.0650  0.2200 -0.1454
  642MOL0     C86549   6.242   4.230   3.372  0.2994 -0.9568 -0.2201
  642MOL0     C86550   6.196   4.376   3.379  0.6474  0.2260  0.9183
  642MOL0     C86551   6.103   4.407   3.494 -0.6654  0.4523  0.0175
  642MOL0     N86552   5.999   4.306   3.525  1.0086 -1.1191  0.9114
  642MOL0     C86553   5.887   4.269   3.443 -0.9756 -0.6961 -0.0707
  642MOL0     C86554   5.829   4.171   3.509 -1.0611  0.6457  0.2375
  642MOL0     C86555   5.703   4.094   3.461  0.3678 -0.8053  1.0139
  642MOL0     C86556   5.686   3.960   3.517 -0.0465  0.2779 -0.5853
  642MOL0     C86557   5.774   3.846   3.465 -0.6881 -0.1607 -0.3563
  642MOL0     C86558   5.740   3.723   3.557 -0.4587  0.7580  0.2809
  642MOL0     O86559   5.772   3.598   3.496 -0.1718 -0.4405  0.0751
  642MOL0     C86560   5.770   3.485   3.578  0.5208 -0.2185 -1.2996
  642MOL0     C86561   5.815   3.363   3.529 -0.2816  0.4704 -0.3996
  642MOL0     C86562   5.822   3.240   3.610  0.4795 -0.5620 -1.3552
  642MOL0     C86563   5.770   3.243   3.744 -0.0362  0.0071  0.5673
  642MOL0     C86564   5.774   3.122   3.835 -1.0906  1.2152 -0.0669
  642MOL0     O86565   5.779   2.999   3.775 -0.3474  0.8206  0.4290
  642MOL0     C86566   5.761   2.890   3.863  0.5090 -0.5121 -0.7769
  642MOL0     C86567   5.633   2.872   3.918 -0.1846  0.2896 -0.0976
  642MOL0     C86568   5.607   2.795   4.033 -0.3283 -1.1458 -0.6831
  642MOL0     C86569   5.716   2.735   4.089 -0.6871  0.5890 -0.5931
  642MOL0     O86570   5.712   2.645   4.194 -0.2733 -0.0800 -0.0671
  642MOL0     C86571   5.615   2.651   4.306  0.6302  0.0522 -0.6125
  642MOL0     C86572   5.498   2.557   4.303  0.2936 -0.7430 -0.2935
  642MOL0     C86573   5.430   2.563   4.450  0.6138 -0.5746  0.1253
  642MOL0     C86574   5.307   2.658   4.440 -0.0461 -0.1385 -0.1642
  642MOL0     C86575   5.214   2.648   4.569 -0.6077  0.6300  0.1760
  642MOL0     C86576   5.139   2.511   4.575 -0.5607 -0.0640 -0.5137
  642MOL0     C86577   5.091   2.491   4.716 -0.0626 -0.0383  0.2748
  642MOL0     C86578   5.122   2.352   4.762  1.0230  0.9891 -0.3964
  642MOL0    Cl86579   5.087   2.335   4.941  0.0157 -0.1866 -0.0066
  642MOL0     C86580   5.837   2.737   4.030 -0.3420 -0.9319  0.2169
  642MOL0     C86581   5.866   2.831   3.919  0.7732  1.1961  0.6087
  642MOL0     O86582   5.796   3.150   3.953 -0.4789 -0.2040 -0.5294
  642MOL0     C86583   5.728   3.369   3.790 -0.2742  0.2001 -0.1005
  642MOL0     C86584   5.717   3.483   3.712  0.8499  0.5114  0.0086
  642MOL0     N86585   5.899   4.159   3.628  0.5196 -0.0115 -0.0140
  642MOL0     N86586   5.993   4.240   3.641 -0.5886 -0.3859 -0.6396
  642MOL0     C86587   6.793   3.601   2.938 -0.5415 -0.6244  0.3719
  642MOL0     C86588   6.847   3.542   2.826 -1.0546 -0.4521  0.9697
  642MOL0     C86589   6.937   3.424   2.420  0.2506 -0.3466  1.1645
  642MOL0     C86590   7.063   3.378   2.446 -0.2017  0.2546  0.5603
  642MOL0     C86591   7.133   3.307   2.350 -0.2276 -0.0676 -0.0880
  642MOL0     C86592   7.077   3.259   2.228 -0.4676 -0.4405  0.1256
  642MOL0     O86593   7.150   3.175   2.135 -0.0280 -0.4004 -0.6230
  642MOL0     C86594   7.188   3.230   2.008 -0.2448 -0.2432  0.1041
  642MOL0     C86595   7.330   3.277   1.999  0.5030  0.5294 -0.0304
  642MOL0     C86596   7.381   3.388   2.094  0.0511  0.3367 -1.0216
  642MOL0     C86597   7.535   3.385   2.111  0.8903 -0.2365  0.9363
  642MOL0     C86598   7.568   3.308   2.233 -0.1452 -0.9793 -0.1047
  642MOL0     C86599   7.594   3.246   2.336 -0.8303  0.0842  0.4295
  642MOL0     C86600   6.946   3.295   2.213  0.2028  0.7996 -0.0391
  642MOL0     C86601   6.869   3.381   2.299  0.4185  0.0618 -0.2533
  642MOL0     C86602   6.720   3.403   2.273 -0.3858 -0.0818  0.2062
  642MOL0     H86603   6.976   3.807   2.665 -1.3647 -1.0431 -2.3237
  642MOL0     H86604   6.917   3.914   2.880 -1.3052  0.7067  0.9395
  642MOL0     H86605   6.812   3.976   3.154 -1.1281  0.5425  1.6852
  642MOL0     H86606   6.717   3.982   3.009 -0.5680 -1.4311 -1.8319
  642MOL0     H86607   6.649   3.883   3.287  0.5658  0.1296 -0.2797
  642MOL0     H86608   6.531   3.875   3.156 -0.2084 -0.7955  2.7242
  642MOL0     H86609   6.561   4.117   3.107  1.6504  2.1052  1.0269
  642MOL0     H86610   6.625   4.148   3.265  0.1496  0.4863 -1.0671
  642MOL0     H86611   6.368   4.005   3.278 -0.6324  0.3885 -2.7904
  642MOL0     H86612   6.451   4.101   3.402 -0.8308  3.1701 -0.2110
  642MOL0     H86613   6.435   4.310   3.269  0.2879  0.1103 -1.5327
  642MOL0     H86614   6.327   4.212   3.163  1.2460  1.9483 -0.8747
  642MOL0     H86615   6.165   4.156   3.348  0.7573 -1.9604  1.2481
  642MOL0     H86616   6.264   4.198   3.475 -2.1911 -3.5898 -0.3648
  642MOL0     H86617   6.139   4.392   3.287  0.8447 -1.6597  0.4101
  642MOL0     H86618   6.276   4.449   3.379  0.1985  0.8771 -2.6168
  642MOL0     H86619   6.164   4.411   3.584  1.4867 -2.8022 -1.1189
  642MOL0     H86620   6.054   4.501   3.470  0.3159  1.7363  2.6591
  642MOL0     H86621   5.868   4.301   3.341  0.9850 -0.8920 -0.5425
  642MOL0     H86622   5.617   4.158   3.476 -1.6575 -2.7073 -1.5729
  642MOL0     H86623   5.714   4.093   3.352 -1.4267  3.8422  0.5864
  642MOL0     H86624   5.703   3.964   3.625 -0.8035  0.9612 -0.4832
  642MOL0     H86625   5.581   3.934   3.509  0.4284 -1.4198 -1.8934
  642MOL0     H86626   5.875   3.881   3.488 -1.8836  3.6645 -0.2463
  642MOL0     H86627   5.753   3.822   3.360 -2.1998  2.2186 -0.6523
  642MOL0     H86628   5.632   3.709   3.572 -0.5217 -0.8880 -1.3310
  642MOL0     H86629   5.777   3.734   3.659 -1.3588  2.7775  0.4327
  642MOL0     H86630   5.856   3.359   3.429  0.9683  2.1303 -0.0020
  642MOL0     H86631   5.867   3.153   3.564  3.5046 -0.7497  1.5829
  642MOL0     H86632   5.545   2.924   3.882 -0.7808 -2.0605 -2.4113
  642MOL0     H86633   5.509   2.786   4.077  0.2455 -1.6122  0.5268
  642MOL0     H86634   5.671   2.633   4.398 -0.6381  2.7187  0.7926
  642MOL0     H86635   5.559   2.744   4.318 -0.0609 -0.2906 -1.1568
  642MOL0     H86636   5.436   2.597   4.222  0.9420  0.7782 -0.0856
  642MOL0     H86637   5.543   2.458   4.290  3.2032  0.4994 -0.3915
  642MOL0     H86638   5.402   2.461   4.476 -1.6299 -0.8483 -2.7736
  642MOL0     H86639   5.495   2.605   4.527 -1.3548  2.4413  0.3370
  642MOL0     H86640   5.241   2.653   4.353  0.2259  1.2061 -0.4588
  642MOL0     H86641   5.350   2.758   4.436 -2.1533  0.7627 -1.7337
  642MOL0     H86642   5.145   2.730   4.588 -0.1938  0.6095  1.9526
  642MOL0     H86643   5.290   2.660   4.647  0.3310  0.1480 -0.6260
  642MOL0     H86644   5.045   2.509   4.518 -1.0032 -3.9514  0.0489
  642MOL0     H86645   5.212   2.430   4.561  0.6667  0.9760 -0.3502
  642MOL0     H86646   4.982   2.493   4.715 -0.0991 -0.5359  1.3965
  642MOL0     H86647   5.137   2.553   4.793  0.9576  0.5441 -0.7685
  642MOL0     H86648   5.056   2.290   4.700 -1.8519  4.1146 -0.7302
  642MOL0     H86649   5.224   2.315   4.757  0.3654 -0.8291 -1.3640
  642MOL0     H86650   5.912   2.673   4.076 -0.0463  0.0148  1.1030
  642MOL0     H86651   5.966   2.850   3.883  0.7139  0.3066 -0.0788
  642MOL0     H86652   5.697   3.379   3.893 -0.9315 -1.2914 -0.1294
  642MOL0     H86653   5.660   3.566   3.754  0.4267  1.7420 -2.7732
  642MOL0     H86654   6.741   3.544   3.015 -2.8312  2.0191  0.9201
  642MOL0     H86655   6.851   3.434   2.815 -0.5702 -0.5609  2.0411
  642MOL0     H86656   7.118   3.417   2.531 -0.8827  0.3555  0.9637
  642MOL0     H86657   7.236   3.289   2.379 -1.3610 -0.2487  4.6119
  642MOL0     H86658   7.126   3.319   1.994  0.0818  0.0308  0.3982
  642MOL0     H86659   7.169   3.151   1.935 -0.2399  0.0837 -0.2539
  642MOL0     H86660   7.342   3.315   1.897  0.8199  0.9280  0.1514
  642MOL0     H86661   7.386   3.184   1.990 -0.2470  0.2192 -2.3237
  642MOL0     H86662   7.341   3.388   2.196  0.4804  2.2221 -0.8143
  642MOL0     H86663   7.368   3.489   2.053 -0.5796  1.2977  1.3427
  642MOL0     H86664   7.588   3.342   2.025  1.6199  3.2649 -0.5169
  642MOL0     H86665   7.563   3.488   2.134  1.0628  0.0809 -0.5644
  642MOL0     H86666   7.606   3.185   2.424 -0.3468 -2.1942 -1.1170
  642MOL0     H86667   6.903   3.239   2.130  0.3851  2.0194 -0.9867
  642MOL0     H86668   6.657   3.379   2.360  0.2828 -2.1251  0.1757
  642MOL0     H86669   6.703   3.511   2.268 -0.1945  0.2615  3.8255
  642MOL0     H86670   6.692   3.345   2.185 -1.1612  1.8773 -0.9174
  643MOL0     O86671   8.478   3.789  10.921  0.3262 -0.1160 -0.0221
  643MOL0     C86672   8.398   3.882  10.906  0.1536 -0.8735 -0.6390
  643MOL0     O86673   8.305   3.921  10.996  0.2877 -0.0052  0.0876
  643MOL0     C86674   8.260   3.831  11.090 -0.5713 -0.9503  0.0404
  643MOL0     C86675   8.249   3.885  11.219  0.5588 -0.1808 -0.5539
  643MOL0     C86676   8.210   3.801  11.322  0.7647 -0.3754 -0.1171
  643MOL0     C86677   8.167   3.670  11.303 -0.7712 -0.9177 -0.2068
  643MOL0     O86678   8.111   3.599  11.405 -0.0799 -0.0224 -0.4110
  643MOL0     C86679   8.194   3.499  11.467 -0.5649 -0.3682 -1.2059
  643MOL0     C86680   8.279   3.570  11.583  0.2011 -0.0030  0.2143
  643MOL0     C86681   8.196   3.623  11.699 -0.5290 -0.3909 -0.9410
  643MOL0     C86682   8.116   3.517  11.774 -0.3570 -0.5115  0.2407
  643MOL0     C86683   8.066   3.559  11.912  0.5427  0.3424  0.5141
  643MOL0     C86684   7.979   3.459  11.978  0.5148 -0.6155  0.6761
  643MOL0     C86685   8.043   3.320  12.012 -0.0103  0.3032 -0.4698
  643MOL0     C86686   7.972   3.239  12.121 -0.7837  0.4951  0.6104
  643MOL0     N86687   7.984   3.289  12.253 -0.1685 -0.1881  0.6909
  643MOL0     C86688   8.084   3.278  12.344 -0.8458  0.8349 -0.0878
  643MOL0     C86689   8.036   3.340  12.460  0.1301  0.5379 -0.0402
  643MOL0     C86690   8.116   3.350  12.599  0.2278  0.1025 -0.2817
  643MOL0     C86691   8.102   3.231  12.693 -0.8493 -0.2088  0.4718
  643MOL0     C86692   8.208   3.120  12.650  0.9284  0.1916 -0.0874
  643MOL0     C86693   8.206   3.017  12.756  0.5039  0.1474  0.2648
  643MOL0     O86694   8.070   2.990  12.791  0.0122 -0.6131 -0.2324
  643MOL0     C86695   8.050   2.905  12.905 -0.5148 -1.0443  0.5056
  643MOL0     C86696   7.963   2.930  13.001  0.1836 -0.4590 -0.8494
  643MOL0     C86697   7.955   2.846  13.122 -0.7012  0.7238 -0.5599
  643MOL0     C86698   8.051   2.741  13.148  0.4670  0.5705  0.1650
  643MOL0     C86699   8.060   2.646  13.268  0.3897 -0.0543  0.8560
  643MOL0     O86700   8.166   2.572  13.284  0.3733 -0.8243 -0.5914
  643MOL0     C86701   8.198   2.513  13.405  0.4083  0.2774 -0.0022
  643MOL0     C86702   8.155   2.561  13.527  1.1349  0.1510 -0.3755
  643MOL0     C86703   8.171   2.483  13.638 -0.7103  0.3916 -0.2110
  643MOL0     C86704   8.228   2.356  13.640 -0.1894 -1.2425  0.6761
  643MOL0     O86705   8.244   2.299  13.760 -0.2764 -0.4018 -0.4120
  643MOL0     C86706   8.236   2.154  13.781 -0.0145 -0.5084  0.5609
  643MOL0     C86707   8.108   2.097  13.826 -0.3315  1.0875 -0.2972
  643MOL0     C86708   8.107   1.960  13.890  0.0706  0.2068 -0.0140
  643MOL0     C86709   8.109   1.859  13.781 -0.0563  0.5252 -0.3643
  643MOL0     C86710   8.115   1.715  13.852  0.0201  0.9038 -0.4824
  643MOL0     C86711   8.103   1.598  13.757  0.0932  0.1201  0.4469
  643MOL0     C86712   8.235   1.566  13.685  0.4610 -0.2039  0.4530
  643MOL0     C86713   8.208   1.427  13.617 -0.1126 -0.9398  0.2142
  643MOL0    Cl86714   8.338   1.388  13.498  0.5438  0.3318  0.1647
  643MOL0     C86715   8.276   2.311  13.511 -0.2086  1.0126  0.0701
  643MOL0     C86716   8.256   2.387  13.398  0.3796 -0.0811  0.0203
  643MOL0     O86717   7.960   2.653  13.340  0.5005  0.5896  0.1990
  643MOL0     C86718   8.145   2.727  13.045  0.3163  0.4456 -0.3017
  643MOL0     C86719   8.140   2.798  12.925  0.0827 -0.0742 -0.2825
  643MOL0     N86720   7.911   3.382  12.432  0.7537  0.2264  1.1138
  643MOL0     N86721   7.883   3.368  12.301 -1.0560 -0.4840 -0.4624
  643MOL0     C86722   8.171   3.625  11.170 -0.5651 -1.0248  0.3643
  643MOL0     C86723   8.221   3.702  11.062  0.2011  0.4072  0.1630
  643MOL0     C86724   8.404   3.966  10.782  1.2615 -0.8694  1.0328
  643MOL0     C86725   8.321   4.081  10.782 -0.4897  0.0001  0.3335
  643MOL0     C86726   8.312   4.163  10.661  0.6156 -0.0055 -0.0912
  643MOL0     C86727   8.404   4.142  10.560  0.1558 -0.3298  0.1798
  643MOL0     O86728   8.433   4.235  10.461 -0.1358 -0.9346  0.2417
  643MOL0     C86729   8.311   4.294  10.407  0.4232 -0.2007  0.6436
  643MOL0     C86730   8.355   4.365  10.274  0.2491 -0.4675 -0.1900
  643MOL0     C86731   8.413   4.256  10.183 -1.0290 -1.0363  0.3698
  643MOL0     C86732   8.487   4.314  10.062 -0.1975  0.8763 -0.5969
  643MOL0     C86733   8.438   4.263   9.939  1.0091 -0.5886  0.2668
  643MOL0     C86734   8.395   4.229   9.834  0.1776  0.5691  0.2233
  643MOL0     C86735   8.496   4.031  10.565 -0.0361 -0.7897 -0.1231
  643MOL0     C86736   8.496   3.945  10.671 -0.1764  0.5599  0.3187
  643MOL0     C86737   8.601   3.835  10.670 -0.2538  0.5694 -0.6421
  643MOL0     H86738   8.260   3.992  11.233  0.1200  0.3928 -3.8101
  643MOL0     H86739   8.190   3.851  11.416  2.8490 -0.1600  0.2601
  643MOL0     H86740   8.133   3.422  11.513 -1.0446  1.2486  1.0266
  643MOL0     H86741   8.270   3.451  11.405 -0.1621 -0.6320 -0.5148
  643MOL0     H86742   8.353   3.641  11.545  0.9015 -1.6898 -1.7713
  643MOL0     H86743   8.342   3.491  11.625 -0.3754 -0.7043 -0.2082
  643MOL0     H86744   8.123   3.697  11.662 -3.9219 -2.9063  0.1980
  643MOL0     H86745   8.258   3.679  11.769 -3.1468  3.4586 -1.3529
  643MOL0     H86746   8.020   3.486  11.732  0.0063 -1.6746  0.2251
  643MOL0     H86747   8.179   3.428  11.783 -1.0624 -1.6614 -3.8929
  643MOL0     H86748   8.152   3.586  11.973 -0.7910  2.1438  1.7197
  643MOL0     H86749   7.999   3.646  11.907 -0.0075 -0.0383  1.1514
  643MOL0     H86750   7.948   3.521  12.062  1.8330 -1.6230  1.9472
  643MOL0     H86751   7.884   3.450  11.925 -0.7158 -3.5332  3.1075
  643MOL0     H86752   8.151   3.324  12.027  0.8030 -4.2650 -3.1449
  643MOL0     H86753   8.028   3.267  11.917 -2.8574  1.9956 -1.0812
  643MOL0     H86754   7.869   3.225  12.087  0.5570 -2.2496 -2.9855
  643MOL0     H86755   8.010   3.137  12.111 -0.2326  0.8260 -1.1188
  643MOL0     H86756   8.181   3.232  12.328 -2.1341 -2.3506  0.4887
  643MOL0     H86757   8.219   3.377  12.571  0.9769 -1.3117  0.9793
  643MOL0     H86758   8.071   3.426  12.663  0.4971 -0.6885  0.8766
  643MOL0     H86759   8.116   3.266  12.796 -3.4104  0.0451  0.8215
  643MOL0     H86760   7.996   3.204  12.681 -1.5405  2.5809 -0.3864
  643MOL0     H86761   8.308   3.165  12.641 -0.5165  3.6209 -0.5155
  643MOL0     H86762   8.177   3.078  12.554  1.0342 -1.6196  0.6279
  643MOL0     H86763   8.263   3.049  12.843  1.1088  0.8825 -0.3864
  643MOL0     H86764   8.260   2.932  12.713  0.7549  1.0735 -1.3442
  643MOL0     H86765   7.895   3.014  13.000  2.0884  1.1332 -1.3728
  643MOL0     H86766   7.874   2.862  13.193  0.4711 -3.1684  1.9172
  643MOL0     H86767   8.111   2.660  13.532 -2.3524 -1.2997  3.4607
  643MOL0     H86768   8.148   2.525  13.736  0.7536 -0.1315  0.3688
  643MOL0     H86769   8.262   2.101  13.688 -0.5155  2.4684 -1.4004
  643MOL0     H86770   8.307   2.127  13.860  2.1333 -0.9895 -1.3973
  643MOL0     H86771   8.048   2.161  13.892  0.4330  4.5668 -2.7043
  643MOL0     H86772   8.048   2.099  13.735  2.3996  0.8818 -2.2214
  643MOL0     H86773   8.188   1.956  13.963 -0.3836  0.9204  0.5406
  643MOL0     H86774   8.014   1.961  13.948 -0.1446 -0.3934 -0.3382
  643MOL0     H86775   8.193   1.871  13.712  0.9610 -1.5185  0.4282
  643MOL0     H86776   8.015   1.861  13.725  0.6490  0.1593 -1.6113
  643MOL0     H86777   8.028   1.713  13.918 -1.9103  1.2076 -2.8980
  643MOL0     H86778   8.205   1.700  13.913  1.2867  1.7082 -2.0694
  643MOL0     H86779   8.076   1.503  13.804 -0.3761 -0.3521 -0.7379
  643MOL0     H86780   8.025   1.614  13.683  0.1802 -1.3759 -0.0077
  643MOL0     H86781   8.321   1.572  13.752 -0.1728  1.9815  1.1520
  643MOL0     H86782   8.263   1.641  13.610  0.8459  0.7038  1.4766
  643MOL0     H86783   8.205   1.349  13.694 -0.3320  0.4214  1.6363
  643MOL0     H86784   8.111   1.432  13.566 -0.9989  1.3399  1.9271
  643MOL0     H86785   8.328   2.216  13.504 -3.0718 -0.9073  2.1893
  643MOL0     H86786   8.269   2.345  13.299 -3.0379 -1.2078 -0.0649
  643MOL0     H86787   8.208   2.642  13.067  3.2365  2.8050  1.2671
  643MOL0     H86788   8.210   2.762  12.851  1.1353  1.4535 -0.0676
  643MOL0     H86789   8.120   3.531  11.153 -2.1426 -0.1196 -0.1007
  643MOL0     H86790   8.216   3.661  10.962  0.2128  3.3263 -1.1278
  643MOL0     H86791   8.255   4.101  10.866 -1.3927 -0.1769 -0.3135
  643MOL0     H86792   8.232   4.233  10.641 -2.7055 -3.3408  0.4038
  643MOL0     H86793   8.273   4.375  10.469  2.2654 -0.4432  2.1940
  643MOL0     H86794   8.232   4.220  10.397 -0.4273  0.0382  4.2167
  643MOL0     H86795   8.436   4.433  10.301 -1.7125  0.3379  4.7220
  643MOL0     H86796   8.279   4.422  10.220 -0.4487 -1.4202 -0.2443
  643MOL0     H86797   8.327   4.199  10.148 -1.8125  1.5106 -2.2728
  643MOL0     H86798   8.485   4.194  10.238  1.8294  1.3539 -0.4055
  643MOL0     H86799   8.475   4.422  10.050  1.9522  1.2422  0.1291
  643MOL0     H86800   8.596   4.313  10.063 -0.2008  0.3589 -0.2075
  643MOL0     H86801   8.365   4.179   9.744 -2.8094  2.8277 -0.1853
  643MOL0     H86802   8.559   4.024  10.476  1.7416  2.0359  0.7597
  643MOL0     H86803   8.656   3.838  10.575  1.4351  0.0254  0.2844
  643MOL0     H86804   8.680   3.861  10.740 -0.2411  0.3978 -0.5932
  643MOL0     H86805   8.557   3.740  10.702 -2.4909  2.6367  3.2764
  644MOL0     O86806  11.372   8.140   1.010 -0.5326  0.7669  0.3356
  644MOL0     C86807  11.363   8.188   0.896  1.0641 -0.9859  0.3708
  644MOL0     O86808  11.288   8.132   0.798  0.6525  0.5435 -0.3907
  644MOL0     C86809  11.215   8.016   0.822  0.8328 -0.7159 -0.4356
  644MOL0     C86810  11.226   7.909   0.722 -0.9143 -1.0958 -0.7867
  644MOL0     C86811  11.137   7.803   0.738 -0.7503  0.8146 -1.1233
  644MOL0     C86812  11.061   7.785   0.849  0.5974  1.0185 -0.6212
  644MOL0     O86813  10.991   7.673   0.870 -0.6791  0.8811 -0.0235
  644MOL0     C86814  11.020   7.542   0.808  0.0681  0.1864 -0.9060
  644MOL0     C86815  10.904   7.507   0.717  0.8289 -0.1808 -0.0384
  644MOL0     C86816  10.883   7.609   0.604  0.5928 -0.2713  0.0688
  644MOL0     C86817  10.758   7.595   0.525 -0.6139 -0.8796  0.5616
  644MOL0     C86818  10.781   7.689   0.393  0.5054 -0.4736 -0.3389
  644MOL0     C86819  10.658   7.689   0.301  0.7126  0.2540  0.3226
  644MOL0     C86820  10.699   7.733   0.165  0.8217  0.9283 -0.7494
  644MOL0     C86821  10.601   7.703   0.054  0.9585 -0.3547  1.4482
  644MOL0     N86822  10.488   7.800   0.064 -0.3423  0.3650  0.7746
  644MOL0     C86823  10.476   7.927   0.007  0.2856  0.2725 -0.1638
  644MOL0     C86824  10.349   7.973   0.043 -0.3714  0.2474  1.2990
  644MOL0     C86825  10.267   8.084  -0.004  0.2257 -0.4450 -0.1057
  644MOL0     C86826  10.269   8.125  -0.143  0.3823 -0.2150 -0.3870
  644MOL0     C86827  10.192   8.251  -0.183  0.3799  0.3318 -0.2310
  644MOL0     C86828  10.116   8.241  -0.319  0.5631 -0.2730  0.6189
  644MOL0     O86829  10.025   8.126  -0.314 -0.3783 -0.0524 -0.1168
  644MOL0     C86830   9.966   8.083  -0.434  0.3870 -1.0717 -1.4070
  644MOL0     C86831   9.937   8.163  -0.544 -0.0963  0.0703  0.6254
  644MOL0     C86832   9.860   8.108  -0.649 -0.8012  1.2358  0.6234
  644MOL0     C86833   9.807   7.973  -0.642 -0.0263  0.3112  1.0444
  644MOL0     C86834   9.722   7.919  -0.738  0.9053  0.8520 -0.0747
  644MOL0     O86835   9.655   7.797  -0.712  0.4064  0.3728 -0.2187
  644MOL0     C86836   9.608   7.714  -0.815  0.5594  0.4775 -0.0165
  644MOL0     C86837   9.543   7.589  -0.775  0.5550 -0.0834  0.0694
  644MOL0     C86838   9.491   7.505  -0.867 -0.2852 -0.2930  0.1203
  644MOL0     C86839   9.487   7.538  -1.001  0.3592  0.2460  0.2977
  644MOL0     O86840   9.430   7.463  -1.098  1.1585 -0.1271 -0.4658
  644MOL0     C86841   9.360   7.345  -1.054 -0.1991 -0.1166  0.1430
  644MOL0     C86842   9.299   7.264  -1.173 -0.3207  0.4618 -1.1129
  644MOL0     C86843   9.193   7.348  -1.250  0.5158 -0.9093 -0.0688
  644MOL0     C86844   9.130   7.270  -1.366 -0.0169  0.7166 -0.2229
  644MOL0     C86845   9.017   7.183  -1.312 -0.1815  0.8972  0.4300
  644MOL0     C86846   8.903   7.251  -1.222 -0.4114  0.2467  0.2720
  644MOL0     C86847   8.783   7.154  -1.215 -1.1198  0.1947  0.0188
  644MOL0     C86848   8.653   7.227  -1.194 -0.0558  0.0731  1.2465
  644MOL0    Cl86849   8.606   7.278  -1.358  0.3645 -0.3104  0.2593
  644MOL0     C86850   9.531   7.673  -1.045 -0.1064  1.3370 -0.3461
  644MOL0     C86851   9.587   7.753  -0.951  0.5623  0.1961  0.2406
  644MOL0     O86852   9.714   7.986  -0.841  0.1679  0.7757 -0.0889
  644MOL0     C86853   9.822   7.916  -0.520 -0.7972  0.3007 -0.4175
  644MOL0     C86854   9.904   7.963  -0.416 -0.2901  0.5912  0.8748
  644MOL0     N86855  10.297   7.874   0.122  0.2452  0.1696  0.2271
  644MOL0     N86856  10.380   7.777   0.141  0.7195  0.3235 -1.0065
  644MOL0     C86857  11.061   7.879   0.948  1.0345 -0.0010 -0.8565
  644MOL0     C86858  11.139   7.996   0.941 -0.5040 -0.0282  0.0393
  644MOL0     C86859  11.465   8.282   0.851  0.7249 -0.4170 -0.3305
  644MOL0     C86860  11.515   8.275   0.719  0.8746  0.6150  0.6105
  644MOL0     C86861  11.595   8.375   0.660 -0.9170  0.5510  0.6941
  644MOL0     C86862  11.636   8.478   0.738 -0.6760 -0.3045 -0.2279
  644MOL0     O86863  11.716   8.579   0.700 -0.8366 -0.0395  0.4150
  644MOL0     C86864  11.647   8.681   0.622  0.6448  0.3993 -1.1147
  644MOL0     C86865  11.687   8.694   0.479 -0.1565  0.4838  1.1737
  644MOL0     C86866  11.848   8.720   0.472  0.5495  1.5044 -0.4207
  644MOL0     C86867  11.915   8.714   0.326  0.1510  1.0710  0.0064
  644MOL0     C86868  12.054   8.729   0.355  0.3508  0.2496  0.5611
  644MOL0     C86869  12.161   8.767   0.390  0.2543  0.4535  0.2258
  644MOL0     C86870  11.594   8.483   0.868  0.5138 -0.0471  0.0345
  644MOL0     C86871  11.507   8.392   0.929  0.9452 -0.3010 -0.9036
  644MOL0     C86872  11.450   8.416   1.067 -0.1686 -0.0056  0.8635
  644MOL0     H86873  11.297   7.915   0.640 -0.1813 -1.4019 -0.1829
  644MOL0     H86874  11.139   7.721   0.667 -2.8096  0.3928 -0.7368
  644MOL0     H86875  11.124   7.548   0.775  0.0289 -0.0615 -1.0808
  644MOL0     H86876  11.030   7.473   0.892  0.4081  0.2682 -0.8792
  644MOL0     H86877  10.814   7.515   0.779 -0.4451 -0.5653 -1.7458
  644MOL0     H86878  10.912   7.401   0.691  3.4832 -1.0619  3.5744
  644MOL0     H86879  10.972   7.596   0.540 -0.0010 -1.7528 -0.4798
  644MOL0     H86880  10.893   7.712   0.641  1.7370  0.0511 -1.0508
  644MOL0     H86881  10.756   7.490   0.497  1.5452 -1.5461  2.5444
  644MOL0     H86882  10.663   7.629   0.568 -0.8575 -0.0450 -0.5733
  644MOL0     H86883  10.806   7.790   0.428 -5.2478  1.4984 -0.9459
  644MOL0     H86884  10.866   7.655   0.333 -0.5934  3.3091 -4.5333
  644MOL0     H86885  10.640   7.582   0.290  0.4515  0.0808  2.2032
  644MOL0     H86886  10.562   7.731   0.331 -0.1855  2.6522 -4.7820
  644MOL0     H86887  10.788   7.673   0.144  0.1090  0.2087 -1.8641
  644MOL0     H86888  10.731   7.836   0.180 -0.0856  1.0537  0.4431
  644MOL0     H86889  10.649   7.720  -0.042 -0.2581  1.4753  1.1132
  644MOL0     H86890  10.561   7.601   0.059 -1.1878  0.3099 -0.4383
  644MOL0     H86891  10.555   7.976  -0.049  1.7056 -0.9430  0.7068
  644MOL0     H86892  10.166   8.089   0.038  1.3206  0.6948  2.6851
  644MOL0     H86893  10.312   8.171   0.045 -2.5497  1.4591 -0.7157
  644MOL0     H86894  10.371   8.145  -0.177  0.3338 -2.1838 -1.8341
  644MOL0     H86895  10.232   8.039  -0.199 -1.3088  0.7323 -0.7906
  644MOL0     H86896  10.238   8.346  -0.155  0.1578 -0.1243  1.9275
  644MOL0     H86897  10.112   8.261  -0.109 -0.5725 -2.6677 -0.7218
  644MOL0     H86898  10.191   8.218  -0.395  1.5638 -0.7570  1.7083
  644MOL0     H86899  10.078   8.337  -0.356  1.5409  0.8093  2.2409
  644MOL0     H86900   9.989   8.256  -0.566  0.1139  0.0401  0.9893
  644MOL0     H86901   9.832   8.180  -0.725  0.8612  0.2314 -1.0061
  644MOL0     H86902   9.538   7.567  -0.668 -0.2271  0.6364  0.1939
  644MOL0     H86903   9.454   7.408  -0.833 -0.8947 -0.2203 -0.3124
  644MOL0     H86904   9.428   7.267  -1.019  0.0473  0.9569  2.1964
  644MOL0     H86905   9.288   7.372  -0.977 -1.1514  1.7992 -1.3278
  644MOL0     H86906   9.378   7.235  -1.243 -0.0090 -0.3015 -0.4641
  644MOL0     H86907   9.254   7.171  -1.138 -1.4859  0.7896 -1.6998
  644MOL0     H86908   9.130   7.405  -1.182 -0.5260 -4.7358  2.5208
  644MOL0     H86909   9.257   7.416  -1.308  2.5734 -1.1780  1.7468
  644MOL0     H86910   9.201   7.206  -1.419 -1.7379  0.8925 -2.9901
  644MOL0     H86911   9.111   7.347  -1.442  2.7664  2.6374  0.8666
  644MOL0     H86912   9.061   7.109  -1.245  2.0317  0.1017 -1.7415
  644MOL0     H86913   8.964   7.137  -1.396 -0.2095 -0.5145  1.1964
  644MOL0     H86914   8.952   7.269  -1.125  2.5094  0.4873 -1.1440
  644MOL0     H86915   8.870   7.351  -1.253 -2.3782 -0.1703  0.9192
  644MOL0     H86916   8.796   7.085  -1.131 -2.6873 -1.9391 -1.3760
  644MOL0     H86917   8.772   7.091  -1.304  3.3486 -0.0533 -0.6216
  644MOL0     H86918   8.573   7.160  -1.161 -3.6081  2.7800 -0.9952
  644MOL0     H86919   8.666   7.309  -1.122  0.2267  0.6926  0.5063
  644MOL0     H86920   9.523   7.718  -1.143 -2.9738  2.4554  0.3023
  644MOL0     H86921   9.617   7.849  -0.990 -2.2041  0.9841 -0.1640
  644MOL0     H86922   9.787   7.815  -0.499  0.2026 -0.6079 -2.7842
  644MOL0     H86923   9.902   7.906  -0.324 -2.4035  0.8299  1.0365
  644MOL0     H86924  11.004   7.854   1.037  1.9520 -1.5957 -0.6855
  644MOL0     H86925  11.135   8.065   1.024 -1.5991  0.3348 -0.3003
  644MOL0     H86926  11.526   8.179   0.668  0.0106  0.1958  1.2081
  644MOL0     H86927  11.649   8.362   0.567  1.8851  2.4982  1.9470
  644MOL0     H86928  11.675   8.779   0.662  0.8774  0.4450 -1.3847
  644MOL0     H86929  11.539   8.662   0.618  0.3371  1.3096  1.3161
  644MOL0     H86930  11.638   8.778   0.430  0.7199  0.1926 -0.2797
  644MOL0     H86931  11.660   8.603   0.425 -0.1471  1.8457 -1.2904
  644MOL0     H86932  11.896   8.640   0.529 -3.6370 -1.5527 -0.6582
  644MOL0     H86933  11.867   8.814   0.524  1.3202  0.9622  0.2975
  644MOL0     H86934  11.887   8.623   0.272  2.2324 -0.6199  1.5894
  644MOL0     H86935  11.883   8.794   0.258 -1.6055 -1.5371 -2.4873
  644MOL0     H86936  12.255   8.799   0.431  0.9135 -2.7357  1.5124
  644MOL0     H86937  11.624   8.572   0.922 -0.4123 -0.1399  0.7186
  644MOL0     H86938  11.495   8.511   1.096  3.2904 -0.2184 -2.9606
  644MOL0     H86939  11.342   8.427   1.054 -0.6238 -1.9538  2.4256
  644MOL0     H86940  11.462   8.329   1.133 -0.8991 -2.1988 -1.6776
  645MOL0     O86941   9.898   1.186  10.057  0.6183  0.8572 -0.0926
  645MOL0     C86942   9.903   1.121  10.166  0.8601  0.2474 -0.4578
  645MOL0     O86943   9.875   0.988  10.186 -0.5712 -0.8966 -0.5801
  645MOL0     C86944   9.826   0.920  10.076 -0.7291  0.0618 -0.4158
  645MOL0     C86945   9.894   0.901   9.958 -0.1595 -0.2069  0.4794
  645MOL0     C86946   9.817   0.850   9.853 -0.0367  0.3116  0.5756
  645MOL0     C86947   9.685   0.797   9.867  0.0544  0.6834 -0.7568
  645MOL0     O86948   9.607   0.721   9.781  0.1581  0.2904  0.4405
  645MOL0     C86949   9.676   0.666   9.664 -0.6695 -0.2697 -0.7127
  645MOL0     C86950   9.594   0.546   9.624 -0.2352  0.0368 -0.6313
  645MOL0     C86951   9.651   0.465   9.512 -1.1555 -0.1597 -0.0975
  645MOL0     C86952   9.694   0.546   9.387 -0.2101 -0.0108  0.0027
  645MOL0     C86953   9.576   0.630   9.336  0.0422 -0.7650  0.8838
  645MOL0     C86954   9.608   0.707   9.207 -0.5583  0.2317 -0.0259
  645MOL0     C86955   9.563   0.853   9.204  0.3867  0.2771  0.1691
  645MOL0     C86956   9.408   0.870   9.213 -0.5509 -0.4957  0.0381
  645MOL0     N86957   9.369   1.010   9.249 -0.3407 -0.6463  0.1075
  645MOL0     C86958   9.323   1.030   9.378  0.6463  0.3920 -0.4330
  645MOL0     C86959   9.269   1.154   9.372  0.2558 -0.0480  0.0791
  645MOL0     C86960   9.196   1.219   9.476 -0.0260 -0.4847  1.2548
  645MOL0     C86961   9.064   1.133   9.492 -0.3705  1.0099 -0.9192
  645MOL0     C86962   8.953   1.203   9.556 -0.6483 -0.3522 -0.2588
  645MOL0     C86963   8.828   1.121   9.550  1.0922  0.3284  0.6891
  645MOL0     O86964   8.778   1.100   9.413  0.0715 -0.4045 -0.1035
  645MOL0     C86965   8.700   1.193   9.342 -0.2118  0.1354 -1.2261
  645MOL0     C86966   8.713   1.178   9.208 -0.2692 -0.3524  0.1406
  645MOL0     C86967   8.655   1.271   9.129  0.6745 -0.8493 -0.5493
  645MOL0     C86968   8.591   1.385   9.176  0.0903  1.0928  0.2861
  645MOL0     C86969   8.541   1.487   9.091 -0.2992 -0.7828 -0.2102
  645MOL0     O86970   8.534   1.441   8.956  0.2405 -0.4494 -0.2630
  645MOL0     C86971   8.467   1.514   8.856 -1.2912  0.4693 -1.2263
  645MOL0     C86972   8.498   1.477   8.725  0.4699 -0.1229  0.1587
  645MOL0     C86973   8.458   1.551   8.613  0.3473  0.3375 -0.0182
  645MOL0     C86974   8.366   1.657   8.630 -0.4814  0.6939 -0.6559
  645MOL0     O86975   8.305   1.705   8.521  0.2331  0.5345  0.0809
  645MOL0     C86976   8.157   1.720   8.512 -0.7967  0.4856  0.6844
  645MOL0     C86977   8.126   1.867   8.457  0.2762 -1.6137  0.1659
  645MOL0     C86978   8.006   1.878   8.368 -0.7711  0.0195  0.0578
  645MOL0     C86979   7.995   2.005   8.278 -0.3659 -0.6443 -0.1514
  645MOL0     C86980   7.893   1.960   8.174 -0.5828 -0.1035 -0.6664
  645MOL0     C86981   7.754   1.987   8.205  0.0256  0.4927  0.5439
  645MOL0     C86982   7.656   1.947   8.091  0.0695  1.0542 -0.4508
  645MOL0     C86983   7.573   2.065   8.043 -0.6047 -0.3583 -0.7447
  645MOL0    Cl86984   7.471   2.129   8.183 -0.1770  0.2859  0.5453
  645MOL0     C86985   8.344   1.704   8.765  0.8222  0.5141  0.5941
  645MOL0     C86986   8.378   1.622   8.875 -0.3577 -0.9132 -1.1616
  645MOL0     O86987   8.498   1.589   9.140 -1.0357 -1.0868  0.5066
  645MOL0     C86988   8.566   1.389   9.315 -0.7616 -0.4581  0.0748
  645MOL0     C86989   8.627   1.300   9.398 -0.5603 -0.3023  1.0470
  645MOL0     N86990   9.275   1.201   9.241 -0.2077 -0.5911 -0.0566
  645MOL0     N86991   9.342   1.116   9.167 -1.0505 -0.0893 -0.3280
  645MOL0     C86992   9.630   0.829   9.995 -0.3927  0.7584  0.8085
  645MOL0     C86993   9.692   0.894  10.095 -0.0286 -0.1849 -0.7769
  645MOL0     C86994   9.943   1.193  10.298  0.0644 -0.5185  0.0616
  645MOL0     C86995   9.987   1.119  10.408  0.5568 -0.0591  0.0492
  645MOL0     C86996  10.034   1.172  10.532  0.4802  0.1606  0.8124
  645MOL0     C86997  10.034   1.309  10.542 -0.3789 -0.3918  0.0129
  645MOL0     O86998  10.100   1.359  10.659 -0.5491  0.1838  0.3408
  645MOL0     C86999  10.133   1.504  10.659 -0.0220  0.1528 -0.0760
  645MOL0     C87000  10.246   1.517  10.765 -0.1720 -0.2984 -0.2978
  645MOL0     C87001  10.180   1.493  10.910  0.6493 -0.0372 -0.5959
  645MOL0     C87002  10.269   1.488  11.029 -0.1949  0.5152 -0.7429
  645MOL0     C87003  10.208   1.438  11.158 -0.8327 -0.3264 -0.6971
  645MOL0     C87004  10.142   1.425  11.264 -0.7548  0.4778  0.1670
  645MOL0     C87005   9.986   1.384  10.435  1.1309 -0.2273  0.0371
  645MOL0     C87006   9.935   1.334  10.315  0.6653 -0.8137  0.9779
  645MOL0     C87007   9.888   1.423  10.208 -0.1368  0.1519 -0.3472
  645MOL0     H87008  10.001   0.919   9.965 -0.1959 -0.5709  2.9981
  645MOL0     H87009   9.861   0.830   9.755  1.2236 -0.5639  1.2879
  645MOL0     H87010   9.696   0.742   9.588 -0.5487  0.0188 -0.3948
  645MOL0     H87011   9.773   0.623   9.691  0.1791  1.8659 -0.1384
  645MOL0     H87012   9.494   0.581   9.595  0.5067  1.0864 -2.0403
  645MOL0     H87013   9.588   0.483   9.713  2.1336  1.4305  0.6203
  645MOL0     H87014   9.578   0.390   9.480  0.0997 -2.2087  1.6025
  645MOL0     H87015   9.746   0.419   9.540 -0.3514 -1.1440 -3.9242
  645MOL0     H87016   9.779   0.612   9.405 -0.5993  0.2221  1.0682
  645MOL0     H87017   9.727   0.479   9.307 -1.8847  0.2741 -0.9576
  645MOL0     H87018   9.499   0.560   9.304  0.9210 -0.2010 -2.9802
  645MOL0     H87019   9.541   0.703   9.410 -0.9361 -0.8192  0.4886
  645MOL0     H87020   9.716   0.716   9.194 -0.9135  2.5101 -2.1165
  645MOL0     H87021   9.561   0.649   9.127 -0.3444 -0.1961  0.1568
  645MOL0     H87022   9.605   0.902   9.115  0.7929  2.7078  1.5983
  645MOL0     H87023   9.599   0.913   9.288  0.8757 -0.1525  0.2692
  645MOL0     H87024   9.361   0.862   9.114 -3.2297  0.3462  1.1520
  645MOL0     H87025   9.366   0.797   9.283  1.0427  1.7625  3.6711
  645MOL0     H87026   9.343   0.965   9.463 -2.4863 -0.2876 -0.0882
  645MOL0     H87027   9.243   1.229   9.575  2.4919  2.0279 -0.0364
  645MOL0     H87028   9.167   1.320   9.443 -1.2156 -0.8454  1.1326
  645MOL0     H87029   9.026   1.101   9.394  0.6363 -3.3684 -0.0641
  645MOL0     H87030   9.093   1.042   9.545  0.1961  0.2648 -2.4516
  645MOL0     H87031   8.919   1.296   9.508  3.9710  1.3892 -0.6845
  645MOL0     H87032   8.984   1.219   9.659 -0.4279  0.1895 -0.4028
  645MOL0     H87033   8.743   1.163   9.605  1.6703  1.1402  0.9682
  645MOL0     H87034   8.850   1.021   9.589  2.2885  0.4999  0.4782
  645MOL0     H87035   8.783   1.108   9.164  1.3067 -1.0089  3.3918
  645MOL0     H87036   8.678   1.242   9.027 -0.8522 -0.9665 -0.8867
  645MOL0     H87037   8.569   1.398   8.709 -0.4564 -0.7465 -1.0286
  645MOL0     H87038   8.479   1.525   8.510  2.4602  4.3588 -0.8128
  645MOL0     H87039   8.123   1.647   8.437 -1.9949  1.2178  0.4944
  645MOL0     H87040   8.113   1.704   8.611  1.7249 -0.5856  1.7396
  645MOL0     H87041   8.121   1.943   8.536  2.1163 -1.4586  0.1794
  645MOL0     H87042   8.207   1.903   8.393 -0.1097  0.8808  0.9807
  645MOL0     H87043   8.000   1.784   8.312 -0.3147  1.2201 -2.1024
  645MOL0     H87044   7.924   1.868   8.439  0.4010 -2.9265  1.1907
  645MOL0     H87045   8.088   2.052   8.243 -2.0448  2.5082 -0.8230
  645MOL0     H87046   7.949   2.082   8.341 -0.2922  2.2759 -3.3179
  645MOL0     H87047   7.893   1.852   8.156 -0.8372 -0.6289  2.0551
  645MOL0     H87048   7.917   2.016   8.083 -0.2254  4.8482  2.1268
  645MOL0     H87049   7.727   1.927   8.292  1.4572 -2.0095 -0.6170
  645MOL0     H87050   7.733   2.092   8.224 -3.6974 -0.3188  1.7083
  645MOL0     H87051   7.583   1.874   8.128  0.7389  0.7187  0.2454
  645MOL0     H87052   7.704   1.905   8.003  2.1358 -0.4569  1.2767
  645MOL0     H87053   7.634   2.145   7.999 -1.0532 -0.1435 -0.9869
  645MOL0     H87054   7.504   2.026   7.967 -1.4838  2.1182 -1.3250
  645MOL0     H87055   8.301   1.803   8.772  1.8276  1.4193 -3.6210
  645MOL0     H87056   8.359   1.678   8.966  0.0582 -1.6205 -0.6287
  645MOL0     H87057   8.510   1.467   9.365 -1.6816 -2.1110  1.7385
  645MOL0     H87058   8.608   1.300   9.505 -0.6375  2.9420  1.1117
  645MOL0     H87059   9.529   0.792  10.002  0.0317 -2.1300 -3.7630
  645MOL0     H87060   9.637   0.906  10.188  1.1629  1.3519 -0.2313
  645MOL0     H87061   9.989   1.010  10.401 -1.5313 -0.0469 -1.7934
  645MOL0     H87062  10.068   1.113  10.616  0.0024 -3.0907 -1.1093
  645MOL0     H87063  10.049   1.565  10.694  0.9628  0.7821  1.2844
  645MOL0     H87064  10.176   1.527  10.561  1.0036 -1.0832  0.0611
  645MOL0     H87065  10.276   1.623  10.767  2.1339 -0.7956  3.5062
  645MOL0     H87066  10.327   1.444  10.757  1.1126  1.1642 -1.3498
  645MOL0     H87067  10.140   1.394  10.887  2.1141 -0.6530 -0.6002
  645MOL0     H87068  10.097   1.561  10.930 -1.1533 -2.2878 -0.0789
  645MOL0     H87069  10.347   1.414  11.007 -1.0401 -0.2330 -1.3045
  645MOL0     H87070  10.321   1.583  11.034  2.2536 -0.5498 -3.2859
  645MOL0     H87071  10.086   1.412  11.355 -0.0897 -1.9329  0.3102
  645MOL0     H87072  10.000   1.491  10.431 -0.2395 -0.0160  0.4708
  645MOL0     H87073   9.794   1.390  10.163 -2.7645  1.2834  3.8199
  645MOL0     H87074   9.861   1.514  10.261 -2.6469 -2.0268  2.4184
  645MOL0     H87075   9.966   1.441  10.133  1.1884  0.8442  1.1332
  646MOL0     O87076   1.930   8.324  11.155 -0.3586 -0.6094  0.1329
  646MOL0     C87077   2.007   8.404  11.217 -0.1596  0.3240 -0.0652
  646MOL0     O87078   2.060   8.522  11.162 -0.4237  0.4410  0.2519
  646MOL0     C87079   1.987   8.585  11.059  0.0557 -1.2205  0.1174
  646MOL0     C87080   1.847   8.575  11.030 -0.2755  1.1365  0.2092
  646MOL0     C87081   1.789   8.633  10.911  0.4955  0.4342  1.1476
  646MOL0     C87082   1.867   8.704  10.816  0.9217  0.9602  0.3670
  646MOL0     O87083   1.806   8.764  10.700 -0.4885 -1.2246  0.2491
  646MOL0     C87084   1.673   8.733  10.654 -0.5649  0.2347 -0.3990
  646MOL0     C87085   1.563   8.818  10.721 -0.1208 -0.0662 -0.2066
  646MOL0     C87086   1.417   8.781  10.692 -0.2230  1.3833  0.8840
  646MOL0     C87087   1.339   8.775  10.829 -0.1324 -0.3379 -0.2339
  646MOL0     C87088   1.188   8.762  10.796  0.0515 -0.5169  0.8375
  646MOL0     C87089   1.100   8.718  10.910  0.2258  1.1012 -0.5698
  646MOL0     C87090   0.957   8.695  10.871  0.9064 -0.2098  0.4285
  646MOL0     C87091   0.900   8.561  10.932 -0.3324 -0.3313  0.1891
  646MOL0     N87092   0.859   8.579  11.069 -0.1594 -0.1742  0.9868
  646MOL0     C87093   0.737   8.534  11.114 -0.7406 -0.0190  0.2810
  646MOL0     C87094   0.724   8.582  11.242  0.6175  0.4095  0.2264
  646MOL0     C87095   0.602   8.569  11.332  0.0276  0.6000 -0.6889
  646MOL0     C87096   0.573   8.699  11.413  1.0151  0.3773  0.5828
  646MOL0     C87097   0.478   8.679  11.528  0.5896  0.5381  0.1805
  646MOL0     C87098   0.321   8.672  11.493  0.3815  0.6109  0.0391
  646MOL0     O87099   0.265   8.546  11.474  0.1860  1.3963  0.1087
  646MOL0     C87100   0.169   8.507  11.568  0.6939  0.1137  0.0683
  646MOL0     C87101   0.179   8.384  11.622  0.4193 -0.4151 -0.6821
  646MOL0     C87102   0.090   8.331  11.727 -0.2961  0.6093 -0.2647
  646MOL0     C87103  -0.006   8.420  11.772 -0.1902 -0.6611  0.2228
  646MOL0     C87104  -0.110   8.370  11.863 -0.7860 -0.8676  0.2781
  646MOL0     O87105  -0.185   8.465  11.927  0.3045 -0.0257  0.8253
  646MOL0     C87106  -0.282   8.425  12.015 -0.0985  0.9828 -0.3198
  646MOL0     C87107  -0.295   8.524  12.117  0.4036 -0.1353  0.1705
  646MOL0     C87108  -0.392   8.511  12.212 -0.0278  0.0634  0.4064
  646MOL0     C87109  -0.474   8.398  12.206  0.0827  0.0536  0.7702
  646MOL0     O87110  -0.583   8.411  12.290 -1.2207 -0.0481  0.0712
  646MOL0     C87111  -0.619   8.293  12.346  0.0841  1.4180  0.1121
  646MOL0     C87112  -0.717   8.305  12.446  0.2149 -0.5478 -0.9468
  646MOL0     C87113  -0.666   8.244  12.584  0.1364  0.3707 -0.1497
  646MOL0     C87114  -0.754   8.309  12.692  0.6046  0.8747 -0.1948
  646MOL0     C87115  -0.712   8.269  12.835 -1.4256  1.3394  0.6538
  646MOL0     C87116  -0.804   8.328  12.943  0.3996  0.7325  0.6122
  646MOL0     C87117  -0.729   8.308  13.087  0.4858  0.2727 -0.0040
  646MOL0     C87118  -0.803   8.391  13.190  0.3747  0.0782 -0.0736
  646MOL0    Cl87119  -0.745   8.350  13.350  0.5147 -0.1588 -0.1462
  646MOL0     C87120  -0.453   8.287  12.117 -0.3479 -0.2979 -0.1421
  646MOL0     C87121  -0.351   8.302  12.019  0.4676  0.2205 -0.0345
  646MOL0     O87122  -0.128   8.254  11.867 -0.8463  0.2347  0.3537
  646MOL0     C87123  -0.021   8.544  11.708 -0.0490  0.0403 -0.0228
  646MOL0     C87124   0.066   8.589  11.605  0.6626  0.6472 -1.0719
  646MOL0     N87125   0.837   8.657  11.271 -0.4038  0.3671  0.9835
  646MOL0     N87126   0.916   8.650  11.169 -0.7767  0.2464 -0.3258
  646MOL0     C87127   2.007   8.727  10.850 -0.1441  0.7616 -0.2682
  646MOL0     C87128   2.063   8.651  10.962 -0.4756 -1.0774 -0.0266
  646MOL0     C87129   2.092   8.348  11.323  0.6209 -0.5503  0.6272
  646MOL0     C87130   2.144   8.441  11.410  0.1767  0.7370 -0.9542
  646MOL0     C87131   2.230   8.403  11.514 -0.2056  0.3420 -0.3097
  646MOL0     C87132   2.262   8.260  11.528 -0.4036 -0.1807 -0.7684
  646MOL0     O87133   2.340   8.225  11.632 -0.5986  0.4256 -0.3303
  646MOL0     C87134   2.315   8.289  11.759  0.4671 -0.2244 -0.5693
  646MOL0     C87135   2.218   8.209  11.843 -0.0223  0.4762  0.1926
  646MOL0     C87136   2.209   8.259  11.988  1.0988 -0.1699 -0.4923
  646MOL0     C87137   2.080   8.204  12.043  0.2345 -0.2754  0.8590
  646MOL0     C87138   1.966   8.299  12.007  0.2812 -0.7672  0.0586
  646MOL0     C87139   1.871   8.375  12.006  1.4220  0.4683 -0.0901
  646MOL0     C87140   2.221   8.171  11.430 -0.1142 -0.1398  0.5049
  646MOL0     C87141   2.137   8.212  11.326  0.3077  0.4384 -0.5714
  646MOL0     C87142   2.099   8.100  11.227  0.0323 -0.5991 -1.3129
  646MOL0     H87143   1.786   8.511  11.093  0.1767  1.8642  1.4236
  646MOL0     H87144   1.685   8.627  10.882 -0.2380  3.7539  2.5617
  646MOL0     H87145   1.667   8.742  10.545 -2.3023  0.1433 -0.3419
  646MOL0     H87146   1.656   8.626  10.668  1.2446  0.0989  1.0367
  646MOL0     H87147   1.563   8.911  10.664 -2.4852 -0.3283 -0.7420
  646MOL0     H87148   1.581   8.843  10.826 -2.7666  0.3754  0.2204
  646MOL0     H87149   1.408   8.677  10.658  0.6528  1.7066 -0.3948
  646MOL0     H87150   1.374   8.850  10.620 -3.6500  0.2354  1.6450
  646MOL0     H87151   1.368   8.697  10.899  0.1004 -2.4481 -2.5582
  646MOL0     H87152   1.352   8.869  10.883  0.8632 -1.5044  1.6642
  646MOL0     H87153   1.143   8.857  10.763  0.2820 -0.3380  1.0351
  646MOL0     H87154   1.193   8.695  10.709  2.9661 -0.2907  0.7461
  646MOL0     H87155   1.137   8.625  10.953  0.8299  1.8624  0.6148
  646MOL0     H87156   1.107   8.791  10.991  1.5092 -0.8731  1.2147
  646MOL0     H87157   0.933   8.703  10.765  2.7584 -1.4186 -0.1358
  646MOL0     H87158   0.902   8.776  10.920 -1.4901  0.7469 -3.4164
  646MOL0     H87159   0.816   8.533  10.868  1.1464  1.1173 -2.5555
  646MOL0     H87160   0.964   8.472  10.925 -0.1072 -0.4002  2.3154
  646MOL0     H87161   0.663   8.487  11.049  1.0894 -2.2778 -0.2761
  646MOL0     H87162   0.518   8.536  11.269  0.1572  2.4526 -1.8972
  646MOL0     H87163   0.645   8.489  11.393  0.0987 -1.3719 -3.1661
  646MOL0     H87164   0.667   8.733  11.456  0.5485 -1.8636  3.7875
  646MOL0     H87165   0.526   8.778  11.354  0.6916  1.9945  2.8653
  646MOL0     H87166   0.500   8.762  11.596 -1.8576  0.8394  0.6813
  646MOL0     H87167   0.495   8.588  11.587 -0.3409 -0.6579 -1.3135
  646MOL0     H87168   0.307   8.725  11.399  5.8666 -1.5783 -2.4385
  646MOL0     H87169   0.285   8.717  11.586  0.5083 -1.6805  1.2590
  646MOL0     H87170   0.245   8.318  11.567 -0.5651 -1.9212 -0.1212
  646MOL0     H87171   0.104   8.235  11.777 -1.9642 -1.1762 -2.9646
  646MOL0     H87172  -0.242   8.616  12.096 -1.4761  0.8012 -0.7093
  646MOL0     H87173  -0.411   8.581  12.293  0.5534 -1.8067  2.2561
  646MOL0     H87174  -0.662   8.226  12.271  0.3345  1.9757 -0.5407
  646MOL0     H87175  -0.532   8.252  12.397  0.0752  0.8171 -0.3444
  646MOL0     H87176  -0.742   8.411  12.451 -1.0802 -0.8524 -0.5974
  646MOL0     H87177  -0.805   8.247  12.417 -1.0290  0.9867 -0.3701
  646MOL0     H87178  -0.687   8.137  12.590  2.6818 -0.1256  0.9937
  646MOL0     H87179  -0.559   8.260  12.597  0.2465 -0.8153  0.4732
  646MOL0     H87180  -0.855   8.280  12.663  1.0791  1.6870 -2.9414
  646MOL0     H87181  -0.747   8.417  12.678 -2.8917  1.3214  0.7352
  646MOL0     H87182  -0.607   8.299  12.845  0.0739 -3.1396  0.7421
  646MOL0     H87183  -0.717   8.160  12.827 -0.6828  1.4139 -1.1725
  646MOL0     H87184  -0.820   8.434  12.923  2.5805  1.0225  0.0940
  646MOL0     H87185  -0.901   8.278  12.942 -0.6370  2.6388 -0.7977
  646MOL0     H87186  -0.623   8.334  13.084  0.6663 -0.4619 -2.4554
  646MOL0     H87187  -0.738   8.203  13.115  2.0875  0.5389  1.6694
  646MOL0     H87188  -0.794   8.497  13.163 -1.4875 -0.1134 -1.6692
  646MOL0     H87189  -0.906   8.355  13.195  0.1527 -0.1564 -3.6159
  646MOL0     H87190  -0.514   8.198  12.106  0.4759 -0.7147 -1.5822
  646MOL0     H87191  -0.350   8.228  11.940  1.8026 -0.7734  0.8586
  646MOL0     H87192  -0.106   8.604  11.737  0.9170  1.8010 -0.6612
  646MOL0     H87193   0.053   8.687  11.562  0.5498  0.9270 -0.4174
  646MOL0     H87194   2.076   8.792  10.798 -1.5204  1.3947 -1.3722
  646MOL0     H87195   2.170   8.648  10.982 -0.7429  1.2446  2.2518
  646MOL0     H87196   2.115   8.546  11.411  1.2038  1.0960  1.9807
  646MOL0     H87197   2.275   8.476  11.582  1.0801 -1.7611  1.2245
  646MOL0     H87198   2.289   8.395  11.754  2.9284  0.6486  2.1095
  646MOL0     H87199   2.403   8.290  11.824 -1.7891  1.1969  2.7240
  646MOL0     H87200   2.238   8.102  11.829 -0.3659  0.5475 -0.9914
  646MOL0     H87201   2.120   8.230  11.798  0.6412  1.1889 -0.9693
  646MOL0     H87202   2.204   8.368  11.988 -0.5359 -0.2192 -1.4468
  646MOL0     H87203   2.298   8.218  12.036  0.7621 -1.7991 -1.1672
  646MOL0     H87204   2.063   8.097  12.027 -0.8594 -0.3760  2.4126
  646MOL0     H87205   2.093   8.207  12.152  0.7620  0.0931  0.7893
  646MOL0     H87206   1.783   8.436  12.010  2.7482  2.4532  3.3511
  646MOL0     H87207   2.261   8.071  11.443  0.3294 -0.0172  0.1004
  646MOL0     H87208   2.128   8.123  11.124 -2.2357  0.4669 -1.7742
  646MOL0     H87209   2.148   8.005  11.251 -1.1791 -0.7030  1.0627
  646MOL0     H87210   1.990   8.093  11.227 -0.2301  2.1916 -0.0808
  647MOL0     O87211   3.013   8.957   6.513 -0.2192 -0.3867  0.1201
  647MOL0     C87212   2.935   9.034   6.465 -0.1460  0.6391  0.1074
  647MOL0     O87213   2.802   9.023   6.477 -0.3496 -0.0947 -0.5101
  647MOL0     C87214   2.744   8.943   6.572 -0.9477 -0.0944 -0.8627
  647MOL0     C87215   2.636   8.863   6.533  0.0944 -0.4361  0.1322
  647MOL0     C87216   2.567   8.783   6.634 -0.3860  0.6274 -0.0601
  647MOL0     C87217   2.614   8.787   6.767  0.5454  0.0837 -0.1304
  647MOL0     O87218   2.538   8.701   6.847 -0.2891  0.1160 -0.0791
  647MOL0     C87219   2.596   8.627   6.957 -0.0490  0.0489 -0.4442
  647MOL0     C87220   2.500   8.513   6.996 -0.0705 -0.3345  0.4667
  647MOL0     C87221   2.483   8.409   6.878 -0.0714  0.5692  0.4882
  647MOL0     C87222   2.356   8.328   6.894  0.8558 -0.2921 -0.0590
  647MOL0     C87223   2.346   8.213   6.790  0.7755  0.8312  0.6287
  647MOL0     C87224   2.275   8.258   6.657 -0.9164  0.1714 -0.6517
  647MOL0     C87225   2.224   8.132   6.579 -0.2586 -0.5050  0.5709
  647MOL0     C87226   2.156   8.170   6.455  0.2860  0.6542 -0.0478
  647MOL0     N87227   2.147   8.058   6.353 -0.3457 -0.2882  0.6558
  647MOL0     C87228   2.132   7.928   6.373  1.0683  0.3151  0.5205
  647MOL0     C87229   2.114   7.868   6.252 -0.1298 -0.8894 -0.5097
  647MOL0     C87230   2.109   7.722   6.231  0.0161  0.6152 -0.0323
  647MOL0     C87231   1.999   7.694   6.121  0.3294  0.6454 -0.0450
  647MOL0     C87232   1.972   7.534   6.113  0.2706 -0.7402  0.2906
  647MOL0     C87233   1.918   7.479   6.251  0.0340  0.2878  0.0026
  647MOL0     O87234   1.829   7.370   6.238  0.0259  0.7182 -0.9666
  647MOL0     C87235   1.697   7.390   6.216 -0.0477 -0.8587  0.8367
  647MOL0     C87236   1.644   7.273   6.159  0.1250  0.5740 -0.5223
  647MOL0     C87237   1.506   7.257   6.144  0.5864  0.1000  0.5322
  647MOL0     C87238   1.418   7.371   6.155 -0.2987  0.3794 -0.8166
  647MOL0     C87239   1.283   7.371   6.100  0.2126  0.1680  0.0205
  647MOL0     O87240   1.259   7.281   6.001 -0.0574 -0.2120 -0.2434
  647MOL0     C87241   1.142   7.297   5.937  0.5957  0.7702 -0.7404
  647MOL0     C87242   1.058   7.178   5.931 -0.4620  0.3623 -0.1073
  647MOL0     C87243   0.954   7.180   5.844 -0.7493  0.7812  0.2623
  647MOL0     C87244   0.926   7.299   5.771  0.5929 -0.3316  1.0648
  647MOL0     O87245   0.824   7.305   5.672  0.0023 -0.5641  0.0465
  647MOL0     C87246   0.751   7.188   5.632  0.4341  0.1120  0.1278
  647MOL0     C87247   0.624   7.232   5.563 -0.1500 -0.2614  0.7703
  647MOL0     C87248   0.626   7.343   5.452 -0.5347  0.5979  1.5427
  647MOL0     C87249   0.493   7.381   5.399  1.1308 -0.5673 -0.6932
  647MOL0     C87250   0.466   7.512   5.319 -0.0773 -0.8992 -1.0039
  647MOL0     C87251   0.350   7.588   5.395 -1.2407  0.3050  0.1137
  647MOL0     C87252   0.298   7.709   5.313  0.0776  0.0152 -0.8016
  647MOL0     C87253   0.195   7.664   5.204 -0.0367  0.2509  0.7917
  647MOL0    Cl87254   0.213   7.772   5.058 -0.1884 -0.1379 -0.1639
  647MOL0     C87255   1.007   7.415   5.781 -0.0426  0.6231 -0.4232
  647MOL0     C87256   1.114   7.418   5.863  0.3847  0.0729 -0.2518
  647MOL0     O87257   1.208   7.461   6.141  0.2989  0.5929 -0.4132
  647MOL0     C87258   1.475   7.490   6.224 -0.6263 -0.3263  0.3540
  647MOL0     C87259   1.615   7.501   6.252 -0.3806 -0.3740  0.6115
  647MOL0     N87260   2.104   7.970   6.159  0.3318  0.4390  0.5039
  647MOL0     N87261   2.121   8.081   6.221  0.1010 -0.6412 -0.8761
  647MOL0     C87262   2.729   8.862   6.804 -0.0097 -0.3911 -0.0210
  647MOL0     C87263   2.789   8.942   6.701  0.0208  1.0695 -0.3989
  647MOL0     C87264   2.984   9.135   6.373  0.0173  0.2113 -0.3874
  647MOL0     C87265   2.890   9.198   6.290  0.5026 -0.3180  0.8440
  647MOL0     C87266   2.923   9.302   6.202 -0.3436  0.0594  0.4091
  647MOL0     C87267   3.044   9.367   6.217  0.7676  0.5222  0.3000
  647MOL0     O87268   3.093   9.469   6.145  0.4355 -0.3209  0.8489
  647MOL0     C87269   2.995   9.545   6.070 -0.6066  0.3473 -0.7411
  647MOL0     C87270   3.077   9.656   6.003  0.3398 -0.9004 -0.1537
  647MOL0     C87271   3.147   9.630   5.864  0.0382 -0.6563 -0.8591
  647MOL0     C87272   3.046   9.686   5.754 -0.4275  0.5863 -0.0929
  647MOL0     C87273   2.906   9.649   5.755 -0.8357  0.2388 -0.5912
  647MOL0     C87274   2.793   9.613   5.764  0.3290 -0.6486  0.9842
  647MOL0     C87275   3.138   9.313   6.302  0.9038 -0.5097 -0.0528
  647MOL0     C87276   3.111   9.197   6.379  0.6543  0.1531 -0.6330
  647MOL0     C87277   3.214   9.155   6.479  0.2218  0.7656 -0.5621
  647MOL0     H87278   2.593   8.866   6.433  2.3781 -1.8206 -0.9647
  647MOL0     H87279   2.488   8.722   6.591  0.0203  1.9115 -2.8832
  647MOL0     H87280   2.692   8.586   6.924  0.5287 -0.6933  1.9544
  647MOL0     H87281   2.617   8.701   7.035 -3.0299 -0.1087  0.6295
  647MOL0     H87282   2.405   8.563   7.014  0.0861  0.6293 -1.1845
  647MOL0     H87283   2.536   8.475   7.092 -0.0072 -0.6153  0.3301
  647MOL0     H87284   2.564   8.336   6.891  0.3878  0.8078 -0.9129
  647MOL0     H87285   2.492   8.456   6.780  0.9309  0.3371  0.4562
  647MOL0     H87286   2.369   8.269   6.986  1.4745 -0.2528 -0.1154
  647MOL0     H87287   2.268   8.392   6.898  1.6258  0.8799 -1.0611
  647MOL0     H87288   2.447   8.178   6.767  0.2365 -1.6991  1.7952
  647MOL0     H87289   2.284   8.140   6.842 -1.2445  1.8368 -0.2455
  647MOL0     H87290   2.185   8.310   6.692 -1.9836 -1.1158 -1.3734
  647MOL0     H87291   2.342   8.324   6.602  0.5947 -0.7600  0.0164
  647MOL0     H87292   2.157   8.077   6.645 -2.7179  0.4337 -1.0153
  647MOL0     H87293   2.305   8.062   6.556 -1.4686 -1.3282 -1.4425
  647MOL0     H87294   2.060   8.202   6.498  1.1929  0.8602  1.9284
  647MOL0     H87295   2.192   8.255   6.396 -1.1895  1.0942 -0.3477
  647MOL0     H87296   2.143   7.875   6.467  4.0908 -0.4902 -0.1827
  647MOL0     H87297   2.208   7.692   6.195  0.3705 -1.3621  2.3183
  647MOL0     H87298   2.091   7.669   6.325  3.9697  1.3961  1.3754
  647MOL0     H87299   1.904   7.742   6.148 -0.4860 -0.0655 -1.5076
  647MOL0     H87300   2.031   7.722   6.020 -0.2529 -1.8409 -0.9999
  647MOL0     H87301   2.072   7.491   6.106  1.4302  0.6960  4.7673
  647MOL0     H87302   1.920   7.501   6.023  1.1378 -3.3207  0.6537
  647MOL0     H87303   1.874   7.561   6.308  0.2670  0.0973  0.4637
  647MOL0     H87304   2.005   7.452   6.312 -0.3153 -0.9707 -0.0369
  647MOL0     H87305   1.701   7.183   6.137 -2.1940 -1.8882  2.6648
  647MOL0     H87306   1.466   7.176   6.082 -1.7216  2.0771 -0.7496
  647MOL0     H87307   1.090   7.087   5.981 -1.5934 -0.0753 -0.1448
  647MOL0     H87308   0.891   7.092   5.841 -0.2886  0.2377  3.1722
  647MOL0     H87309   0.808   7.126   5.562 -0.4438  1.0458 -1.4716
  647MOL0     H87310   0.713   7.141   5.723  0.3175 -0.3180 -0.1429
  647MOL0     H87311   0.571   7.145   5.522  0.7927 -1.1577  1.3995
  647MOL0     H87312   0.561   7.275   5.642  2.5578  0.1134  2.8532
  647MOL0     H87313   0.689   7.424   5.488  1.4024 -1.4550  3.0727
  647MOL0     H87314   0.671   7.307   5.359 -1.8876  0.6716  0.8333
  647MOL0     H87315   0.440   7.400   5.493  2.2573  1.3443 -0.3896
  647MOL0     H87316   0.451   7.293   5.350  2.4924 -0.7938 -1.5105
  647MOL0     H87317   0.431   7.474   5.223 -0.3990  0.6020 -1.5032
  647MOL0     H87318   0.543   7.586   5.296 -1.6207  0.3338 -2.4942
  647MOL0     H87319   0.266   7.520   5.415 -0.7784 -0.4557 -0.4546
  647MOL0     H87320   0.386   7.619   5.493  0.2242 -1.3140  0.1390
  647MOL0     H87321   0.380   7.772   5.276  2.3007 -1.3710  1.3945
  647MOL0     H87322   0.232   7.767   5.378  1.0107  0.7105 -0.4456
  647MOL0     H87323   0.210   7.564   5.162 -1.1806  1.0718 -1.7968
  647MOL0     H87324   0.091   7.672   5.237 -0.8596 -3.1977 -0.5176
  647MOL0     H87325   0.987   7.498   5.713  3.2123  1.9067  0.0006
  647MOL0     H87326   1.172   7.510   5.868  1.2035 -0.3109 -2.0395
  647MOL0     H87327   1.419   7.579   6.252 -1.2733 -0.8957  0.9161
  647MOL0     H87328   1.658   7.595   6.287 -1.0099  0.0878  0.1593
  647MOL0     H87329   2.764   8.870   6.907  2.2398  0.0460 -0.7553
  647MOL0     H87330   2.870   9.008   6.728  1.5263 -0.8463  0.0059
  647MOL0     H87331   2.783   9.183   6.284  0.5639 -0.8446  1.0436
  647MOL0     H87332   2.850   9.335   6.129  0.3773 -2.9737 -1.8532
  647MOL0     H87333   2.930   9.578   6.152  1.0962  1.9855  0.0275
  647MOL0     H87334   2.936   9.490   5.996  0.4603  0.3522 -1.6212
  647MOL0     H87335   3.150   9.697   6.073  0.4259  0.3152 -0.9245
  647MOL0     H87336   3.006   9.739   6.004 -0.0826 -0.9950  4.7189
  647MOL0     H87337   3.171   9.523   5.859  1.6953 -0.2893 -1.4334
  647MOL0     H87338   3.241   9.687   5.865 -2.0961  3.2115  0.8764
  647MOL0     H87339   3.055   9.795   5.753 -0.5121  0.5975 -1.5036
  647MOL0     H87340   3.085   9.658   5.656 -0.4333 -0.5378  0.2027
  647MOL0     H87341   2.704   9.554   5.754  1.0718 -1.4863 -1.1919
  647MOL0     H87342   3.234   9.364   6.293 -0.6620  2.5437 -0.8781
  647MOL0     H87343   3.300   9.222   6.485 -0.4799  1.5510  2.3071
  647MOL0     H87344   3.165   9.144   6.577 -1.0943 -1.1361 -1.3826
  647MOL0     H87345   3.245   9.052   6.462 -3.8395 -0.6438 -0.6609
  648MOL0     O87346   1.524  10.705   2.045  0.4929 -0.0032 -0.4162
  648MOL0     C87347   1.457  10.801   2.092  0.5277  0.9710 -0.0116
  648MOL0     O87348   1.503  10.931   2.118  0.2774  0.5337 -0.2891
  648MOL0     C87349   1.638  10.964   2.104 -0.7915  1.0228  0.4488
  648MOL0     C87350   1.737  10.883   2.167  0.2410 -0.2753  0.4156
  648MOL0     C87351   1.873  10.917   2.158  0.6073 -0.1232 -0.5452
  648MOL0     C87352   1.911  11.036   2.087 -0.2249  0.8608  0.6468
  648MOL0     O87353   2.046  11.071   2.068 -0.1694 -0.5344 -0.5051
  648MOL0     C87354   2.088  11.211   2.093 -0.1476  0.1099 -1.0174
  648MOL0     C87355   2.230  11.241   2.136 -0.2162  0.3063 -0.2188
  648MOL0     C87356   2.333  11.251   2.033  0.3378 -1.0024  0.5944
  648MOL0     C87357   2.416  11.123   2.012 -0.3849  0.0587  0.2565
  648MOL0     C87358   2.451  11.096   1.865 -0.7910  0.7466 -0.6289
  648MOL0     C87359   2.326  11.048   1.793 -0.5547  0.9992 -0.5440
  648MOL0     C87360   2.354  11.023   1.644 -0.5717  0.2144  0.2203
  648MOL0     C87361   2.229  11.077   1.568  0.1019  0.0326  0.3530
  648MOL0     N87362   2.119  10.984   1.587 -1.1510 -0.2729  0.6688
  648MOL0     C87363   2.012  10.991   1.665 -0.5291 -0.5390 -0.0479
  648MOL0     C87364   1.943  10.874   1.644  0.0026 -0.4551  0.0610
  648MOL0     C87365   1.837  10.815   1.720  0.2754 -0.7163 -0.5049
  648MOL0     C87366   1.879  10.685   1.774  0.0901  0.0215 -0.4628
  648MOL0     C87367   1.996  10.698   1.881 -0.2959  0.3222  1.2601
  648MOL0     C87368   2.027  10.553   1.922  0.2051 -0.0012 -0.7081
  648MOL0     O87369   2.153  10.551   1.989 -0.3818  0.4907 -1.0449
  648MOL0     C87370   2.267  10.593   1.917 -0.7999 -0.6211 -0.2338
  648MOL0     C87371   2.301  10.571   1.785  0.3693 -0.8731  0.4492
  648MOL0     C87372   2.428  10.593   1.727  0.8957  0.5965 -0.1529
  648MOL0     C87373   2.513  10.676   1.804 -0.6988  1.0441  0.6899
  648MOL0     C87374   2.648  10.708   1.746  0.4937 -0.4588  0.7428
  648MOL0     O87375   2.736  10.782   1.818  0.2924 -0.2570 -0.7268
  648MOL0     C87376   2.844  10.854   1.773 -1.9067  0.1850  0.7253
  648MOL0     C87377   2.958  10.886   1.859  0.0670  0.0154 -0.4475
  648MOL0     C87378   3.069  10.955   1.817  0.9660 -0.1880 -0.3051
  648MOL0     C87379   3.082  10.984   1.676  0.5315 -0.6170  1.2528
  648MOL0     O87380   3.196  11.045   1.628 -1.1170  0.0493 -0.6587
  648MOL0     C87381   3.266  10.970   1.524 -0.5732 -0.1554 -0.5904
  648MOL0     C87382   3.391  11.037   1.470 -0.2349 -0.7668  1.0344
  648MOL0     C87383   3.473  10.954   1.366 -1.0638 -0.1899  0.7316
  648MOL0     C87384   3.422  10.967   1.216 -0.0892 -0.1129  0.6009
  648MOL0     C87385   3.293  10.883   1.188 -0.7005 -1.4321  0.0350
  648MOL0     C87386   3.308  10.732   1.216 -1.2008  0.2046  0.2283
  648MOL0     C87387   3.194  10.644   1.166  0.0625  0.1586 -0.1113
  648MOL0     C87388   3.065  10.679   1.236 -0.7984 -0.4889 -0.8148
  648MOL0    Cl87389   2.966  10.761   1.122  0.1326  0.2017  0.2013
  648MOL0     C87390   2.967  10.964   1.594 -0.5228 -0.5329 -0.4197
  648MOL0     C87391   2.852  10.895   1.647  0.3327 -0.0702 -0.0772
  648MOL0     O87392   2.668  10.653   1.637  0.8540 -0.2621  0.5240
  648MOL0     C87393   2.468  10.722   1.927 -0.7130  0.5181  0.2745
  648MOL0     C87394   2.347  10.677   1.988 -0.4472  0.0191  0.0751
  648MOL0     N87395   1.998  10.805   1.533 -0.9168 -0.1128 -0.2157
  648MOL0     N87396   2.095  10.887   1.496  0.2420 -0.6716  0.1822
  648MOL0     C87397   1.811  11.122   2.030 -1.0000 -1.1290  1.2087
  648MOL0     C87398   1.678  11.083   2.043 -0.6826  0.5131  0.3410
  648MOL0     C87399   1.310  10.788   2.099 -0.9718  0.2117  0.3346
  648MOL0     C87400   1.236  10.904   2.056 -1.0242 -0.2317 -0.8002
  648MOL0     C87401   1.095  10.896   2.085 -0.1396 -0.5519  0.2376
  648MOL0     C87402   1.027  10.779   2.117  0.0198 -0.3738  0.3946
  648MOL0     O87403   0.890  10.778   2.145  0.3042  0.7802 -0.7540
  648MOL0     C87404   0.799  10.888   2.142 -0.1567 -0.4193 -0.1153
  648MOL0     C87405   0.666  10.830   2.188  0.2070 -0.0276  0.5991
  648MOL0     C87406   0.672  10.795   2.339  1.1906  0.2579  1.1125
  648MOL0     C87407   0.685  10.918   2.426 -0.5465  0.9946  0.1893
  648MOL0     C87408   0.574  11.013   2.411  0.4069 -0.0430  0.3977
  648MOL0     C87409   0.476  11.074   2.413  0.2508 -0.5995  0.5630
  648MOL0     C87410   1.106  10.663   2.146 -0.7871  0.9991 -0.8067
  648MOL0     C87411   1.245  10.676   2.160  0.5368  0.5929  0.0580
  648MOL0     C87412   1.311  10.556   2.216 -0.4158  0.4298  0.3934
  648MOL0     H87413   1.710  10.792   2.220  0.4997  1.1005  3.0956
  648MOL0     H87414   1.952  10.857   2.202 -0.2521 -0.6569  0.3274
  648MOL0     H87415   2.068  11.262   1.998 -0.8930 -0.0879 -0.9681
  648MOL0     H87416   2.020  11.243   2.172 -0.6297 -3.9870  0.4458
  648MOL0     H87417   2.253  11.151   2.193 -2.6972 -1.6420 -2.0546
  648MOL0     H87418   2.228  11.334   2.194 -0.1490  0.5909 -0.6645
  648MOL0     H87419   2.398  11.334   2.062 -0.7316  0.0175  0.1581
  648MOL0     H87420   2.298  11.290   1.937  0.6120 -3.8046 -0.7628
  648MOL0     H87421   2.508  11.139   2.068  2.0836 -2.3945 -2.7265
  648MOL0     H87422   2.373  11.028   2.045 -0.9589 -0.4599 -1.8325
  648MOL0     H87423   2.478  11.193   1.823  3.1467  1.7196  3.3461
  648MOL0     H87424   2.538  11.031   1.847 -0.6066  1.9082 -5.1411
  648MOL0     H87425   2.288  10.966   1.855  2.5150 -0.1336  0.0672
  648MOL0     H87426   2.253  11.129   1.796 -1.6463  0.0218  0.9837
  648MOL0     H87427   2.369  10.917   1.624 -0.9348  0.1530  0.2744
  648MOL0     H87428   2.440  11.087   1.622 -3.1746  3.3547 -1.8463
  648MOL0     H87429   2.178  11.172   1.588 -1.8008 -0.4938 -1.7005
  648MOL0     H87430   2.248  11.071   1.461 -0.4570 -0.8890  0.2977
  648MOL0     H87431   1.999  11.051   1.755  1.1813 -1.2582  0.7226
  648MOL0     H87432   1.819  10.884   1.803 -0.4097 -0.7152 -0.6461
  648MOL0     H87433   1.750  10.795   1.657  0.2701  0.8633 -1.0379
  648MOL0     H87434   1.797  10.636   1.827 -1.4162  1.0015 -1.7998
  648MOL0     H87435   1.893  10.607   1.698  1.0387 -2.1811  1.8258
  648MOL0     H87436   1.962  10.748   1.972 -0.4740 -3.9978  3.8708
  648MOL0     H87437   2.078  10.759   1.844  0.3112 -0.4615  1.3029
  648MOL0     H87438   2.028  10.482   1.838  0.7141  0.5738 -1.2020
  648MOL0     H87439   1.943  10.519   1.984 -0.7681  2.2058 -0.7372
  648MOL0     H87440   2.248  10.522   1.704  2.1283 -2.1108 -0.0051
  648MOL0     H87441   2.454  10.547   1.633  1.8759  1.5363 -0.3564
  648MOL0     H87442   2.944  10.836   1.954 -0.0406  0.3768 -0.2713
  648MOL0     H87443   3.155  10.979   1.878  0.9396  1.4938 -0.8686
  648MOL0     H87444   3.299  10.875   1.567  0.8322  1.0298  1.1305
  648MOL0     H87445   3.194  10.961   1.443 -0.9753  0.1380 -0.2732
  648MOL0     H87446   3.357  11.134   1.431 -2.1623 -1.3423  1.1343
  648MOL0     H87447   3.447  11.084   1.551  1.8395 -0.0296 -0.7494
  648MOL0     H87448   3.575  10.994   1.368  0.1245 -2.8676 -1.0080
  648MOL0     H87449   3.474  10.848   1.392  0.3637 -0.3976 -0.0722
  648MOL0     H87450   3.505  10.939   1.150  0.8977 -2.4815  2.6585
  648MOL0     H87451   3.408  11.069   1.179  0.1293 -0.4957 -0.5892
  648MOL0     H87452   3.275  10.897   1.081 -0.1263 -1.6427 -0.0962
  648MOL0     H87453   3.207  10.930   1.236 -0.0751 -1.4022  1.1699
  648MOL0     H87454   3.400  10.712   1.161  1.0299  1.4616  3.2125
  648MOL0     H87455   3.326  10.710   1.322  1.2037  4.6053  0.9800
  648MOL0     H87456   3.206  10.538   1.189  0.3638  0.3285  0.5244
  648MOL0     H87457   3.191  10.646   1.056 -2.9957 -4.6447 -0.4032
  648MOL0     H87458   3.006  10.591   1.265 -3.3702  0.8416 -1.7572
  648MOL0     H87459   3.086  10.739   1.325  2.9727  0.2703 -2.0014
  648MOL0     H87460   2.963  10.992   1.489 -2.0330  0.6797 -0.0559
  648MOL0     H87461   2.765  10.896   1.580  2.8849  1.3585 -3.7193
  648MOL0     H87462   2.529  10.794   1.980  3.0432 -0.7212 -1.9231
  648MOL0     H87463   2.323  10.720   2.084 -1.3885 -1.4221  0.5106
  648MOL0     H87464   1.841  11.218   1.989 -0.9461 -0.7825  2.0355
  648MOL0     H87465   1.604  11.143   1.992 -1.2913 -0.5128 -0.0285
  648MOL0     H87466   1.287  10.995   2.027 -0.4437  0.8246  2.9408
  648MOL0     H87467   1.048  10.994   2.081  1.2656  0.1114 -2.4474
  648MOL0     H87468   0.786  10.923   2.039  0.5868 -0.8010 -0.3441
  648MOL0     H87469   0.836  10.969   2.205 -0.1117  0.1844 -0.9039
  648MOL0     H87470   0.660  10.730   2.145  2.8211 -0.1218  0.2653
  648MOL0     H87471   0.582  10.892   2.154  2.4537  1.2454 -3.2898
  648MOL0     H87472   0.758  10.732   2.363  0.6904 -0.4810  0.9954
  648MOL0     H87473   0.582  10.741   2.367 -0.2068  2.0096  0.1767
  648MOL0     H87474   0.693  10.892   2.532 -1.6303  1.6257  0.4322
  648MOL0     H87475   0.786  10.961   2.416  0.8529 -1.5820  2.0669
  648MOL0     H87476   0.383  11.122   2.435  1.6888  1.6443  2.2297
  648MOL0     H87477   1.058  10.571   2.178  0.0854  0.0405 -2.0949
  648MOL0     H87478   1.375  10.579   2.302  0.5255 -1.1303  0.1362
  648MOL0     H87479   1.244  10.481   2.260  0.5087 -1.7128 -1.6445
  648MOL0     H87480   1.358  10.501   2.134 -1.2032  1.2263 -0.6190
  649MOL0     O87481   1.537   4.038   1.059  0.7094  0.2354  0.7754
  649MOL0     C87482   1.580   4.034   0.942  0.1317  0.2118 -0.4072
  649MOL0     O87483   1.639   3.928   0.892 -0.3645  0.8658 -0.9907
  649MOL0     C87484   1.661   3.806   0.955  0.5026 -0.0377 -0.2710
  649MOL0     C87485   1.669   3.782   1.094  0.2290  0.0319  0.5073
  649MOL0     C87486   1.694   3.659   1.152  0.3066 -0.6389  0.1626
  649MOL0     C87487   1.713   3.551   1.064  0.1353  0.1758  0.8794
  649MOL0     O87488   1.741   3.427   1.108  0.1584 -0.2245  0.0398
  649MOL0     C87489   1.869   3.412   1.165  0.3462  0.0425  0.2096
  649MOL0     C87490   1.912   3.264   1.182  0.4970 -0.5606  0.0670
  649MOL0     C87491   1.872   3.166   1.059 -0.1256  0.1883  0.0204
  649MOL0     C87492   1.957   3.036   1.075 -0.4810 -0.7689  1.6422
  649MOL0     C87493   1.916   2.938   0.967 -0.7527 -0.1385  1.0554
  649MOL0     C87494   2.033   2.839   0.936 -0.6291 -0.4066 -0.1647
  649MOL0     C87495   2.013   2.782   0.794  1.0671 -0.3530 -0.2236
  649MOL0     C87496   1.895   2.691   0.770  0.0074 -0.2159  0.2120
  649MOL0     N87497   1.928   2.597   0.659  0.5938 -0.0410  0.1875
  649MOL0     C87498   2.002   2.485   0.662  0.0849  0.5714 -0.0763
  649MOL0     C87499   1.994   2.436   0.535  0.4818  0.7170  0.0419
  649MOL0     C87500   2.030   2.294   0.490  0.1969  0.4896 -0.0274
  649MOL0     C87501   1.918   2.193   0.514 -0.0335  0.1571  0.2864
  649MOL0     C87502   1.944   2.047   0.511  1.0531 -0.4800 -0.9851
  649MOL0     C87503   1.990   1.983   0.379 -0.2375 -0.6126 -0.4135
  649MOL0     O87504   2.014   1.840   0.390  0.4750 -1.1029  0.1622
  649MOL0     C87505   2.080   1.787   0.280  0.2507  1.3612 -0.9095
  649MOL0     C87506   2.163   1.671   0.298  0.1579 -0.4313  0.4188
  649MOL0     C87507   2.230   1.601   0.195  0.5193 -1.2151 -0.3185
  649MOL0     C87508   2.228   1.663   0.074 -0.4020 -0.6014  0.5900
  649MOL0     C87509   2.307   1.606  -0.027 -0.1350  0.4558 -0.1440
  649MOL0     O87510   2.295   1.661  -0.156 -0.7470 -0.5581  0.5776
  649MOL0     C87511   2.360   1.592  -0.264 -0.2709 -0.1800 -0.3117
  649MOL0     C87512   2.499   1.569  -0.258 -0.6041  0.6906  0.2802
  649MOL0     C87513   2.560   1.512  -0.370  0.4130 -0.6966  0.4573
  649MOL0     C87514   2.495   1.469  -0.485  0.4842  0.5990  0.2295
  649MOL0     O87515   2.566   1.409  -0.593 -0.5041 -0.2196 -0.2652
  649MOL0     C87516   2.504   1.348  -0.715 -0.2637 -0.3303 -0.2556
  649MOL0     C87517   2.606   1.328  -0.826  0.1481 -0.9031 -0.4087
  649MOL0     C87518   2.681   1.457  -0.877 -0.0198  0.5954  1.1080
  649MOL0     C87519   2.713   1.436  -1.020  1.2769  0.2716  0.9562
  649MOL0     C87520   2.837   1.490  -1.080  0.4667  0.3199 -1.2362
  649MOL0     C87521   2.831   1.638  -1.078  0.6196  0.8224  0.8274
  649MOL0     C87522   2.947   1.688  -1.155 -0.9226  0.1150  0.2302
  649MOL0     C87523   2.926   1.677  -1.310  0.2919 -0.2967 -0.0566
  649MOL0    Cl87524   2.832   1.823  -1.364  0.0921 -0.1153 -0.2602
  649MOL0     C87525   2.359   1.485  -0.491  0.4493 -0.1809  0.4790
  649MOL0     C87526   2.299   1.547  -0.379 -0.3338  0.1012  0.1717
  649MOL0     O87527   2.389   1.520   0.005  0.1868  0.2330  0.2777
  649MOL0     C87528   2.151   1.777   0.049  0.7385  0.0868  0.3724
  649MOL0     C87529   2.075   1.830   0.150  0.5598  0.2311 -0.8396
  649MOL0     N87530   1.923   2.527   0.462 -0.2659 -0.1105 -0.1271
  649MOL0     N87531   1.877   2.622   0.536 -0.3274  0.8504 -0.0106
  649MOL0     C87532   1.709   3.564   0.929  0.0862  0.7426  0.2247
  649MOL0     C87533   1.677   3.692   0.877  1.0298  0.2522 -0.3026
  649MOL0     C87534   1.546   4.156   0.851  0.1429  0.5846  0.2455
  649MOL0     C87535   1.551   4.147   0.708 -0.7696  0.1434  0.0777
  649MOL0     C87536   1.504   4.244   0.615 -0.9734 -0.0716 -0.5364
  649MOL0     C87537   1.460   4.361   0.664  0.1669 -0.9117 -1.1162
  649MOL0     O87538   1.416   4.466   0.585  0.4338 -0.1564 -0.1828
  649MOL0     C87539   1.295   4.523   0.627 -0.6990 -0.3909  0.1418
  649MOL0     C87540   1.193   4.420   0.648  0.0780  0.4103 -0.7703
  649MOL0     C87541   1.050   4.468   0.626 -0.3704  0.4510 -0.0811
  649MOL0     C87542   0.990   4.583   0.709  0.0789  0.0811 -0.1315
  649MOL0     C87543   1.019   4.551   0.850  0.2507  0.6982 -0.1054
  649MOL0     C87544   1.052   4.523   0.962 -0.5648  0.5735  0.2319
  649MOL0     C87545   1.468   4.381   0.801 -0.6312 -0.3908  0.0677
  649MOL0     C87546   1.504   4.286   0.896 -0.9288  1.0714  0.4359
  649MOL0     C87547   1.480   4.329   1.046  0.0525 -0.2441  0.2747
  649MOL0     H87548   1.656   3.870   1.158 -2.4676  1.4011 -1.7141
  649MOL0     H87549   1.696   3.654   1.261 -2.3429  2.1460  0.4835
  649MOL0     H87550   1.938   3.452   1.090  1.8446 -2.6259  0.0324
  649MOL0     H87551   1.878   3.466   1.259 -0.7705 -2.0880  1.6307
  649MOL0     H87552   1.866   3.226   1.274  2.0336 -0.1606  1.0352
  649MOL0     H87553   2.018   3.265   1.208  0.1913  0.7957  1.3990
  649MOL0     H87554   1.892   3.219   0.965  0.8429 -0.8813 -0.4084
  649MOL0     H87555   1.764   3.147   1.056 -0.2163  0.7863 -1.3677
  649MOL0     H87556   2.066   3.039   1.082 -0.4664 -2.7215  2.9659
  649MOL0     H87557   1.925   2.985   1.166  0.7608 -3.6170  0.6051
  649MOL0     H87558   1.825   2.881   0.987 -2.2511  0.8224 -2.3537
  649MOL0     H87559   1.898   2.982   0.868  1.2863 -3.9839 -1.2782
  649MOL0     H87560   2.132   2.884   0.935  0.7292 -3.1750 -1.3373
  649MOL0     H87561   2.036   2.755   1.006 -2.4699 -2.6591 -2.5603
  649MOL0     H87562   2.108   2.753   0.748  1.9520  4.4425 -2.0155
  649MOL0     H87563   1.999   2.866   0.725 -0.3221 -0.7251 -0.4143
  649MOL0     H87564   1.881   2.619   0.851 -0.9377  1.5505  1.6908
  649MOL0     H87565   1.800   2.736   0.742 -1.0554 -2.5511 -0.1715
  649MOL0     H87566   2.055   2.429   0.739 -0.5353  1.9293  1.4021
  649MOL0     H87567   2.026   2.302   0.381  0.8231  1.5439  0.0167
  649MOL0     H87568   2.132   2.272   0.525 -0.4303  1.5952  2.7990
  649MOL0     H87569   1.868   2.217   0.608 -0.4843 -1.7364  0.5668
  649MOL0     H87570   1.834   2.206   0.446 -0.4472 -0.4781  0.6673
  649MOL0     H87571   1.858   1.986   0.539 -0.3850  0.2152 -3.5313
  649MOL0     H87572   2.015   2.020   0.589  0.9612  0.1227 -0.6842
  649MOL0     H87573   2.080   2.037   0.350 -0.5976 -0.9514 -2.2460
  649MOL0     H87574   1.913   1.992   0.302  1.3633 -0.2732 -2.0290
  649MOL0     H87575   2.191   1.625   0.393 -2.2488  1.7609  2.3388
  649MOL0     H87576   2.289   1.516   0.225 -1.7622 -2.5488  0.6611
  649MOL0     H87577   2.549   1.602  -0.167 -3.7164  0.1659  2.3513
  649MOL0     H87578   2.666   1.492  -0.360 -0.0971 -3.1612  1.7209
  649MOL0     H87579   2.448   1.260  -0.681  0.9877 -0.4829  1.5428
  649MOL0     H87580   2.437   1.426  -0.754  1.2404  0.8288 -0.6033
  649MOL0     H87581   2.666   1.245  -0.787 -2.8125 -2.1206  1.9685
  649MOL0     H87582   2.560   1.283  -0.914  4.3961 -3.0194 -1.8096
  649MOL0     H87583   2.611   1.537  -0.854 -1.0927 -0.5888  2.1699
  649MOL0     H87584   2.768   1.474  -0.813 -0.3975 -1.5095  2.3157
  649MOL0     H87585   2.630   1.477  -1.079  0.5710  2.6934  3.4066
  649MOL0     H87586   2.720   1.330  -1.045  0.9004 -0.0076  1.9854
  649MOL0     H87587   2.846   1.468  -1.187  0.4409  0.8953 -1.3587
  649MOL0     H87588   2.923   1.461  -1.019 -0.6345  2.9624  1.8534
  649MOL0     H87589   2.733   1.680  -1.104  1.2347  1.7575 -0.0522
  649MOL0     H87590   2.843   1.671  -0.975 -1.1869  3.5349  0.2931
  649MOL0     H87591   3.041   1.636  -1.133  0.4284  2.1367 -0.4037
  649MOL0     H87592   2.963   1.794  -1.129  0.9600 -0.4062  1.4607
  649MOL0     H87593   3.027   1.668  -1.349  0.1354  1.8607 -1.1085
  649MOL0     H87594   2.885   1.586  -1.353 -0.5256  1.2712 -2.8999
  649MOL0     H87595   2.290   1.459  -0.571 -0.7389  0.5777  1.2162
  649MOL0     H87596   2.193   1.569  -0.384 -0.3728 -0.3003 -1.1078
  649MOL0     H87597   2.128   1.818  -0.049  0.8305  3.2346  1.5372
  649MOL0     H87598   2.005   1.909   0.123  0.2594 -0.2976 -1.6493
  649MOL0     H87599   1.743   3.484   0.863 -1.1070 -2.7386  3.4953
  649MOL0     H87600   1.675   3.700   0.769 -2.7319  0.4858 -0.3588
  649MOL0     H87601   1.580   4.050   0.670  2.6213 -0.2430  3.1662
  649MOL0     H87602   1.516   4.244   0.507  1.4592  1.2059 -0.3614
  649MOL0     H87603   1.259   4.591   0.549 -1.8859 -0.3616  0.6829
  649MOL0     H87604   1.308   4.577   0.721 -0.7974  0.2864 -0.2321
  649MOL0     H87605   1.182   4.380   0.749 -2.6297  1.7505 -0.4422
  649MOL0     H87606   1.204   4.336   0.579  0.7703 -0.6122  0.5419
  649MOL0     H87607   0.989   4.382   0.653  0.7988 -1.3623 -2.6693
  649MOL0     H87608   1.027   4.489   0.521  0.5612  3.1976  0.2014
  649MOL0     H87609   1.046   4.673   0.684 -0.9080  0.4252 -1.1378
  649MOL0     H87610   0.882   4.593   0.696 -0.1044  0.8010  1.6056
  649MOL0     H87611   1.079   4.497   1.063  0.3179 -0.6009 -0.2825
  649MOL0     H87612   1.422   4.471   0.839  2.0454  1.0660  0.0702
  649MOL0     H87613   1.566   4.325   1.114  1.8388  2.3744 -1.6567
  649MOL0     H87614   1.436   4.429   1.045 -1.7012 -0.9615  1.0835
  649MOL0     H87615   1.395   4.265   1.071 -0.3201  0.0225 -0.2913
  650MOL0     O87616   7.428   3.601   0.999 -0.1241  0.1576  0.0426
  650MOL0     C87617   7.335   3.684   0.977  0.1649 -0.1411 -0.0581
  650MOL0     O87618   7.293   3.784   1.068 -0.0802 -0.1858  0.0078
  650MOL0     C87619   7.396   3.819   1.153 -0.5180 -0.1164  0.1069
  650MOL0     C87620   7.513   3.880   1.094 -0.6796 -0.0398 -0.6988
  650MOL0     C87621   7.622   3.921   1.173  0.2305  0.2329  0.0113
  650MOL0     C87622   7.631   3.887   1.304  0.0830 -0.4635  0.2195
  650MOL0     O87623   7.753   3.918   1.374  0.5332  0.2025 -0.1987
  650MOL0     C87624   7.774   3.832   1.488  0.6830  0.2627 -0.3305
  650MOL0     C87625   7.922   3.844   1.518  1.3200 -0.4655  0.0013
  650MOL0     C87626   7.969   3.733   1.618 -0.0537 -0.4444  0.6637
  650MOL0     C87627   7.913   3.750   1.761  0.4058 -0.0152  0.0494
  650MOL0     C87628   7.834   3.620   1.797  0.0211 -0.3120 -0.1364
  650MOL0     C87629   7.929   3.507   1.835  0.6090 -0.4373  0.2416
  650MOL0     C87630   7.855   3.380   1.876  1.1885  0.5787  0.4747
  650MOL0     C87631   7.749   3.323   1.781  1.1304 -0.9790  0.4652
  650MOL0     N87632   7.691   3.201   1.829 -0.0873 -0.4537  0.2824
  650MOL0     C87633   7.754   3.106   1.904 -1.9475  0.3370  0.5373
  650MOL0     C87634   7.661   3.013   1.934 -0.4815 -0.2496  0.8682
  650MOL0     C87635   7.695   2.888   2.014 -0.3234 -0.3431  0.4050
  650MOL0     C87636   7.702   2.902   2.156  0.1771  0.5908 -0.8218
  650MOL0     C87637   7.752   2.768   2.233  1.7638 -0.5709  0.2933
  650MOL0     C87638   7.671   2.653   2.186  0.9587 -0.2733  0.4565
  650MOL0     O87639   7.714   2.549   2.287 -0.4497 -0.2406  1.1792
  650MOL0     C87640   7.650   2.425   2.280 -0.7667  0.6355  0.1166
  650MOL0     C87641   7.710   2.323   2.363 -0.0618 -0.0354 -1.7428
  650MOL0     C87642   7.660   2.196   2.358 -0.7175 -0.2046 -0.1866
  650MOL0     C87643   7.548   2.158   2.282  0.1644 -0.8247 -0.8735
  650MOL0     C87644   7.524   2.013   2.258  0.8367 -0.2345  0.9982
  650MOL0     O87645   7.601   1.918   2.314  0.8186  0.3094  0.0123
  650MOL0     C87646   7.595   1.791   2.263  0.1470 -0.2262  0.3984
  650MOL0     C87647   7.720   1.743   2.232  0.6822 -0.4791  0.1237
  650MOL0     C87648   7.735   1.614   2.186 -0.7229  0.5113  1.3910
  650MOL0     C87649   7.624   1.529   2.170 -0.4947  0.6367  0.5525
  650MOL0     O87650   7.638   1.397   2.135  0.3844 -0.0066  0.6244
  650MOL0     C87651   7.762   1.347   2.083 -0.0542 -0.1771 -0.8006
  650MOL0     C87652   7.743   1.195   2.064 -0.8723 -0.0104  0.6866
  650MOL0     C87653   7.860   1.148   1.970  0.4291 -0.3112 -0.2326
  650MOL0     C87654   7.833   1.018   1.918  0.0070  0.4069 -1.2664
  650MOL0     C87655   7.951   0.960   1.837 -1.2679  0.3376 -0.4745
  650MOL0     C87656   7.921   0.827   1.770 -0.6260  0.1781  0.4049
  650MOL0     C87657   8.046   0.786   1.689 -0.1193  0.0327  0.6946
  650MOL0     C87658   8.035   0.647   1.630 -0.2766  0.3902  0.8345
  650MOL0    Cl87659   7.913   0.668   1.486 -0.0176  0.0704 -0.3637
  650MOL0     C87660   7.498   1.578   2.192  0.1989  0.4778  0.4639
  650MOL0     C87661   7.474   1.711   2.243 -0.7662 -0.1786 -1.0189
  650MOL0     O87662   7.429   1.993   2.170 -0.4954  0.4705 -0.1337
  650MOL0     C87663   7.487   2.260   2.210  0.1854 -0.6174  0.2877
  650MOL0     C87664   7.533   2.393   2.216 -0.0022 -0.4652 -0.3982
  650MOL0     N87665   7.549   3.050   1.860  0.5639  1.3061 -0.7034
  650MOL0     N87666   7.568   3.154   1.795 -0.3209 -0.9118  0.6070
  650MOL0     C87667   7.512   3.847   1.368  1.1853 -0.1422 -0.3920
  650MOL0     C87668   7.397   3.813   1.297  0.1163 -1.1220  1.6773
  650MOL0     C87669   7.261   3.667   0.849 -0.0037 -0.6066  0.0216
  650MOL0     C87670   7.128   3.711   0.853  0.1405  0.5156  0.2411
  650MOL0     C87671   7.035   3.699   0.754  0.4042  0.6875  0.7462
  650MOL0     C87672   7.085   3.657   0.631  1.3479  0.1741  0.2472
  650MOL0     O87673   7.010   3.637   0.521  0.1313  0.7085  0.4469
  650MOL0     C87674   6.927   3.523   0.526  0.6091 -0.1591 -0.3760
  650MOL0     C87675   6.905   3.453   0.397  0.2141 -0.3190  0.7664
  650MOL0     C87676   7.037   3.411   0.332  0.6988  0.1456 -0.2750
  650MOL0     C87677   7.022   3.350   0.202 -0.4663 -0.1746  0.0505
  650MOL0     C87678   7.158   3.321   0.158  0.1705 -0.6071  1.0443
  650MOL0     C87679   7.259   3.285   0.101 -0.2655 -0.4141 -0.1239
  650MOL0     C87680   7.222   3.627   0.612  0.2675  1.4239  0.1178
  650MOL0     C87681   7.310   3.635   0.723  0.8266  1.3916 -0.4955
  650MOL0     C87682   7.457   3.649   0.694  0.1928 -0.6260 -0.4250
  650MOL0     H87683   7.525   3.886   0.986  0.5440 -3.8698 -0.9214
  650MOL0     H87684   7.706   3.957   1.114  0.6151  3.1418  2.1706
  650MOL0     H87685   7.729   3.861   1.584  1.2604 -0.1041  0.0536
  650MOL0     H87686   7.750   3.727   1.471 -0.2409 -0.0074  2.2336
  650MOL0     H87687   7.940   3.941   1.564  0.2316 -0.3162  0.1247
  650MOL0     H87688   7.980   3.837   1.426  1.5163  0.5478  0.0417
  650MOL0     H87689   8.078   3.743   1.610 -0.2971  2.0740 -0.2811
  650MOL0     H87690   7.940   3.636   1.577  0.9006 -1.8162  2.9953
  650MOL0     H87691   7.997   3.766   1.829  1.1810  0.4399 -0.9760
  650MOL0     H87692   7.844   3.835   1.761  1.6878  1.0583  0.8110
  650MOL0     H87693   7.774   3.643   1.885  1.0182  4.1215 -0.3465
  650MOL0     H87694   7.761   3.591   1.721 -1.7408  2.3495  0.4151
  650MOL0     H87695   7.990   3.472   1.751 -2.5073 -2.0938 -1.5454
  650MOL0     H87696   7.990   3.544   1.918 -2.4386 -0.0497  2.4867
  650MOL0     H87697   7.804   3.405   1.970  1.0388 -1.8120  1.0784
  650MOL0     H87698   7.925   3.302   1.905 -0.1114 -0.6105  0.5250
  650MOL0     H87699   7.671   3.398   1.775  2.0530 -0.1062 -3.3583
  650MOL0     H87700   7.792   3.320   1.680  0.7679 -1.4267  0.3209
  650MOL0     H87701   7.856   3.106   1.941 -1.6235  0.5642 -0.3272
  650MOL0     H87702   7.621   2.810   1.993 -1.0309 -1.6769  6.2157
  650MOL0     H87703   7.795   2.853   1.985  0.0155  1.6170 -0.9862
  650MOL0     H87704   7.771   2.986   2.169 -0.3679  0.5872  3.6980
  650MOL0     H87705   7.607   2.926   2.203 -0.3798  1.2159 -2.2250
  650MOL0     H87706   7.756   2.779   2.341  0.0354  0.6872  0.2806
  650MOL0     H87707   7.849   2.759   2.184  0.4170  0.4174 -2.8359
  650MOL0     H87708   7.699   2.620   2.086  1.0342  0.1972  0.3242
  650MOL0     H87709   7.564   2.669   2.174  1.0843 -0.2439 -0.6570
  650MOL0     H87710   7.801   2.347   2.417 -1.1682  2.1798 -0.7599
  650MOL0     H87711   7.703   2.121   2.424  1.7181 -0.6680 -2.1617
  650MOL0     H87712   7.806   1.809   2.240 -1.5910  2.9361 -1.0350
  650MOL0     H87713   7.831   1.573   2.156 -2.4568 -2.0600 -1.1303
  650MOL0     H87714   7.764   1.384   1.980  0.8497 -0.7500 -0.9956
  650MOL0     H87715   7.857   1.361   2.135 -1.3365  2.0899  1.1374
  650MOL0     H87716   7.749   1.142   2.159  3.9172 -2.4594 -0.6727
  650MOL0     H87717   7.646   1.177   2.017 -1.1055  0.8537  0.8104
  650MOL0     H87718   7.889   1.212   1.886 -1.8719  0.2021 -0.7099
  650MOL0     H87719   7.952   1.132   2.027  1.1099  1.3097 -0.8210
  650MOL0     H87720   7.738   1.027   1.864 -0.7634 -1.3534 -0.2896
  650MOL0     H87721   7.810   0.948   1.999 -1.9709  1.0349 -1.2306
  650MOL0     H87722   8.043   0.956   1.897  0.6604 -1.8602 -3.2943
  650MOL0     H87723   7.970   1.032   1.756 -2.3548  0.3269 -0.7500
  650MOL0     H87724   7.904   0.748   1.844  0.5598 -0.9171 -0.4614
  650MOL0     H87725   7.838   0.828   1.698 -0.8470  0.2697  0.6583
  650MOL0     H87726   8.133   0.791   1.756  0.6336 -1.9013 -0.0576
  650MOL0     H87727   8.078   0.858   1.613  0.3338 -1.5756 -0.6857
  650MOL0     H87728   8.129   0.616   1.583 -1.7142 -1.4529 -1.0363
  650MOL0     H87729   8.006   0.562   1.691  1.8170  1.0551  2.9040
  650MOL0     H87730   7.424   1.499   2.187 -0.7775  1.4260 -0.7617
  650MOL0     H87731   7.381   1.753   2.280 -3.1390 -1.5909 -4.7666
  650MOL0     H87732   7.399   2.247   2.149  0.9829 -0.7507 -0.8581
  650MOL0     H87733   7.507   2.463   2.138  3.9097 -0.2642 -1.7583
  650MOL0     H87734   7.515   3.837   1.476 -1.6850  1.3540 -0.0628
  650MOL0     H87735   7.310   3.758   1.331  0.0244 -1.5745  0.7397
  650MOL0     H87736   7.087   3.751   0.945  2.8526 -0.3894  1.9754
  650MOL0     H87737   6.928   3.711   0.762  0.1740 -1.4263  1.4702
  650MOL0     H87738   6.833   3.566   0.562  1.8454  1.2523  1.3471
  650MOL0     H87739   6.970   3.458   0.603 -2.3308  0.1821  1.7440
  650MOL0     H87740   6.856   3.524   0.329 -0.8671 -2.9226 -1.3715
  650MOL0     H87741   6.843   3.367   0.425 -0.9230  0.4363  0.6346
  650MOL0     H87742   7.084   3.344   0.405 -1.2740 -0.6389  0.3387
  650MOL0     H87743   7.097   3.502   0.336  0.8730 -0.0083  2.5482
  650MOL0     H87744   6.978   3.250   0.210  0.0660 -0.2352  4.3814
  650MOL0     H87745   6.963   3.412   0.133 -0.0416  1.5945  1.2105
  650MOL0     H87746   7.342   3.249   0.043 -0.5449  0.4884 -1.1000
  650MOL0     H87747   7.245   3.608   0.508  0.5862 -0.1055  0.4475
  650MOL0     H87748   7.492   3.600   0.603  0.8878  0.1270 -0.5728
  650MOL0     H87749   7.488   3.754   0.692  2.0508 -1.0033  2.2908
  650MOL0     H87750   7.511   3.613   0.783 -2.1449  0.2859  1.4836
  651MOL0     O87751   4.099   7.873   1.019  0.3669  0.3739 -0.0042
  651MOL0     C87752   4.091   7.806   1.128 -0.9069  0.0463  0.4391
  651MOL0     O87753   4.007   7.819   1.228 -0.0336  0.8285 -0.0773
  651MOL0     C87754   3.926   7.932   1.234  0.1677  0.2744  0.0817
  651MOL0     C87755   3.974   8.042   1.310  0.2957  0.3574  1.2453
  651MOL0     C87756   3.905   8.170   1.306 -0.4888 -0.2226  0.2784
  651MOL0     C87757   3.786   8.181   1.224 -0.1033 -1.0059  0.1301
  651MOL0     O87758   3.712   8.300   1.222  0.1079 -0.5622 -0.7253
  651MOL0     C87759   3.612   8.319   1.117 -0.2007  0.3567 -0.6892
  651MOL0     C87760   3.587   8.473   1.090 -0.8221 -0.0496  0.2372
  651MOL0     C87761   3.712   8.562   1.104 -0.0352  0.4050 -0.6863
  651MOL0     C87762   3.698   8.651   1.227 -0.5997 -0.6391 -0.4426
  651MOL0     C87763   3.823   8.735   1.261 -0.5868 -0.7503 -0.6730
  651MOL0     C87764   3.871   8.831   1.151  0.0070  0.3077  0.3726
  651MOL0     C87765   3.955   8.930   1.226 -0.2834 -0.2753 -0.7671
  651MOL0     C87766   4.074   8.875   1.309  0.7483  0.8964  0.9070
  651MOL0     N87767   4.184   8.792   1.233 -0.2610  0.1589  0.1612
  651MOL0     C87768   4.168   8.662   1.181 -0.2862  0.3433 -0.0531
  651MOL0     C87769   4.290   8.626   1.129  0.3531 -1.0468 -0.7089
  651MOL0     C87770   4.309   8.492   1.068  0.6259 -0.2871  0.7251
  651MOL0     C87771   4.342   8.520   0.920 -0.7088 -0.3530 -0.0656
  651MOL0     C87772   4.508   8.541   0.928 -0.8679  0.2545 -0.7415
  651MOL0     C87773   4.548   8.633   0.813 -0.2420 -0.2882 -0.3517
  651MOL0     O87774   4.489   8.764   0.841 -0.5055  0.4554  0.1491
  651MOL0     C87775   4.560   8.861   0.774  0.5760  1.0411 -0.9441
  651MOL0     C87776   4.597   8.965   0.858  0.4098 -0.7898 -0.8637
  651MOL0     C87777   4.689   9.068   0.813  0.0031 -0.0081  0.1915
  651MOL0     C87778   4.725   9.079   0.677  0.5636 -0.5500  0.8478
  651MOL0     C87779   4.806   9.187   0.627  0.0113  1.3665 -0.3433
  651MOL0     O87780   4.875   9.168   0.509 -0.1371  0.1613  0.0394
  651MOL0     C87781   4.974   9.252   0.488  0.5729 -0.4638 -0.3423
  651MOL0     C87782   4.968   9.335   0.375  0.6719  0.8324 -0.4675
  651MOL0     C87783   5.076   9.420   0.340  0.7272 -0.1399  0.4635
  651MOL0     C87784   5.196   9.411   0.409 -0.7564  0.5107  0.1061
  651MOL0     O87785   5.321   9.470   0.372  0.3417  0.2506  0.2711
  651MOL0     C87786   5.349   9.488   0.232  0.0879 -0.3405 -1.5114
  651MOL0     C87787   5.483   9.549   0.214  0.1084 -0.0726  0.3014
  651MOL0     C87788   5.527   9.557   0.068  0.4110  0.1519 -1.2945
  651MOL0     C87789   5.675   9.601   0.037 -0.2466  1.1350 -0.1800
  651MOL0     C87790   5.703   9.594  -0.116 -1.3089  0.0918  0.1460
  651MOL0     C87791   5.824   9.695  -0.151  0.4022  0.3908  0.0915
  651MOL0     C87792   5.958   9.656  -0.082  0.0986  0.2428 -0.3538
  651MOL0     C87793   6.066   9.757  -0.099 -0.6822 -0.1699 -0.7970
  651MOL0    Cl87794   6.095   9.798  -0.278  0.2190 -0.1185 -0.0436
  651MOL0     C87795   5.199   9.336   0.530 -0.0866 -0.1607 -0.7555
  651MOL0     C87796   5.090   9.253   0.566 -1.2194 -0.0905  0.0985
  651MOL0     O87797   4.824   9.279   0.707  0.7004 -0.0408 -1.3301
  651MOL0     C87798   4.677   8.974   0.585  0.8780  0.3410 -0.1754
  651MOL0     C87799   4.603   8.869   0.634 -0.6793 -0.7215  0.3165
  651MOL0     N87800   4.372   8.731   1.158  0.3039  0.3374  0.3227
  651MOL0     N87801   4.312   8.833   1.217 -0.3883 -0.3828 -0.2645
  651MOL0     C87802   3.738   8.073   1.172  1.2697  0.7781  0.1598
  651MOL0     C87803   3.804   7.950   1.166  0.2522 -0.2057  0.2446
  651MOL0     C87804   4.192   7.698   1.150  0.4896  0.8199 -0.3342
  651MOL0     C87805   4.320   7.714   1.100  0.0627  0.1272 -0.7903
  651MOL0     C87806   4.409   7.612   1.105 -0.3036 -0.2847  0.3366
  651MOL0     C87807   4.392   7.502   1.173 -0.4740 -0.4592  0.3315
  651MOL0     O87808   4.497   7.423   1.163  0.3877  0.0803 -0.1705
  651MOL0     C87809   4.500   7.338   1.042  0.3646  0.7017 -1.3380
  651MOL0     C87810   4.601   7.395   0.951  0.9085  1.0062  0.6979
  651MOL0     C87811   4.601   7.318   0.812 -0.7115  0.9323 -0.1071
  651MOL0     C87812   4.700   7.353   0.712  0.0545  0.7860  1.9122
  651MOL0     C87813   4.725   7.234   0.622 -0.2582 -0.6492 -0.3490
  651MOL0     C87814   4.748   7.141   0.554  0.0842  0.8032 -0.7768
  651MOL0     C87815   4.268   7.478   1.228  0.2209 -0.4254  0.2138
  651MOL0     C87816   4.164   7.572   1.218 -0.4374  0.8166  0.5994
  651MOL0     C87817   4.030   7.528   1.280  0.9248  0.8432  0.1304
  651MOL0     H87818   4.066   8.019   1.362  1.1249 -0.5770 -0.5591
  651MOL0     H87819   3.943   8.255   1.362  1.2442  0.6469 -2.0766
  651MOL0     H87820   3.648   8.282   1.020  4.0920  0.7285  0.5328
  651MOL0     H87821   3.523   8.271   1.158  0.5055  0.5656  1.1854
  651MOL0     H87822   3.512   8.501   1.165 -2.4218 -2.1476 -0.4779
  651MOL0     H87823   3.547   8.497   0.991 -2.4017 -0.9657  0.6083
  651MOL0     H87824   3.720   8.627   1.016 -0.7409 -1.3111 -2.0782
  651MOL0     H87825   3.805   8.504   1.107 -0.7972 -0.8252 -0.2928
  651MOL0     H87826   3.613   8.715   1.200 -0.5585  0.8276  2.5271
  651MOL0     H87827   3.664   8.597   1.316  0.4271  2.2459  1.8584
  651MOL0     H87828   3.788   8.786   1.352  0.1948 -1.0130 -0.2168
  651MOL0     H87829   3.909   8.679   1.298 -0.3687  0.1763  0.2953
  651MOL0     H87830   3.923   8.772   1.075 -0.3109  1.5461 -0.8414
  651MOL0     H87831   3.780   8.866   1.101 -0.7333 -1.6349  0.2416
  651MOL0     H87832   3.893   8.991   1.293 -0.3777  0.7257 -1.7473
  651MOL0     H87833   4.008   8.991   1.153  0.9572 -1.3420 -0.7915
  651MOL0     H87834   4.123   8.960   1.357 -3.1872  2.9377  1.6931
  651MOL0     H87835   4.043   8.816   1.396 -2.2922  0.3918 -0.3783
  651MOL0     H87836   4.087   8.595   1.207 -0.5905  0.7348  0.0061
  651MOL0     H87837   4.387   8.434   1.118 -1.3759 -4.0820 -0.1373
  651MOL0     H87838   4.218   8.437   1.093  0.4197 -0.8169 -1.0921
  651MOL0     H87839   4.307   8.451   0.843 -4.1319  0.0790  0.9542
  651MOL0     H87840   4.280   8.609   0.903  1.4906  1.6740  1.7430
  651MOL0     H87841   4.559   8.445   0.919 -0.4283  0.6499 -3.1539
  651MOL0     H87842   4.543   8.589   1.020 -0.2923 -2.2656  0.4552
  651MOL0     H87843   4.516   8.593   0.716 -1.1905 -1.8341  0.5580
  651MOL0     H87844   4.656   8.628   0.799 -0.1649  0.8016 -0.2755
  651MOL0     H87845   4.552   8.960   0.956 -1.2823  1.3515 -1.4358
  651MOL0     H87846   4.715   9.148   0.881  1.3913 -0.0710 -0.2307
  651MOL0     H87847   4.872   9.330   0.324 -0.0112 -1.8986  0.8965
  651MOL0     H87848   5.056   9.494   0.263 -0.3668 -2.3872 -1.5426
  651MOL0     H87849   5.345   9.389   0.186 -0.6785 -1.4920  0.8589
  651MOL0     H87850   5.271   9.554   0.193  0.1814  2.1699  2.0015
  651MOL0     H87851   5.482   9.641   0.273  0.4125  1.6495 -2.2224
  651MOL0     H87852   5.553   9.483   0.265 -0.2139 -0.5668  0.1187
  651MOL0     H87853   5.515   9.450   0.049 -2.5067 -0.2159  1.6591
  651MOL0     H87854   5.467   9.618  -0.000 -0.3195 -0.7863 -1.4903
  651MOL0     H87855   5.736   9.517   0.072 -3.3519 -0.3363  2.2427
  651MOL0     H87856   5.698   9.695   0.087  2.2826  0.7710 -0.5506
  651MOL0     H87857   5.615   9.616  -0.178  0.1142 -0.8382 -2.3295
  651MOL0     H87858   5.735   9.494  -0.145  1.9400  1.9636 -3.7864
  651MOL0     H87859   5.827   9.702  -0.260 -0.7950 -0.5494 -0.0233
  651MOL0     H87860   5.785   9.789  -0.112 -2.5225 -0.7809  0.2703
  651MOL0     H87861   5.987   9.562  -0.130  0.0244 -0.1420  0.3361
  651MOL0     H87862   5.941   9.637   0.024 -0.1077  2.1957 -0.0056
  651MOL0     H87863   6.042   9.852  -0.051 -0.6830 -0.2501 -0.6373
  651MOL0     H87864   6.152   9.709  -0.052 -2.6525 -1.7025  1.4211
  651MOL0     H87865   5.294   9.325   0.581  0.0503 -0.6720 -1.1113
  651MOL0     H87866   5.105   9.191   0.654 -1.0621  1.5717  1.2909
  651MOL0     H87867   4.730   8.962   0.491  2.7329 -0.3434  0.8978
  651MOL0     H87868   4.569   8.797   0.560  0.7283 -3.1895  1.9383
  651MOL0     H87869   3.642   8.073   1.120  0.3901 -3.4378  1.4039
  651MOL0     H87870   3.746   7.870   1.121 -0.9797  0.0333  1.3665
  651MOL0     H87871   4.355   7.811   1.066  0.6714  0.4733  0.7394
  651MOL0     H87872   4.511   7.635   1.075 -0.4134  0.8223  0.7494
  651MOL0     H87873   4.403   7.336   0.991 -1.5322 -2.2757  1.9543
  651MOL0     H87874   4.539   7.239   1.067 -0.7389  0.2070 -1.5245
  651MOL0     H87875   4.702   7.378   0.991  1.2063  1.7240  0.2531
  651MOL0     H87876   4.580   7.498   0.924 -0.2214  0.1747 -1.8738
  651MOL0     H87877   4.501   7.318   0.766 -0.0955 -0.3027 -1.5080
  651MOL0     H87878   4.614   7.212   0.835 -0.2469  1.0465  0.1594
  651MOL0     H87879   4.659   7.438   0.656 -0.9227 -1.4246 -0.9320
  651MOL0     H87880   4.797   7.372   0.759 -0.3599 -2.3597  4.4239
  651MOL0     H87881   4.770   7.060   0.488 -1.7716 -0.9746  0.6661
  651MOL0     H87882   4.254   7.390   1.288 -0.6786  0.3868  1.2372
  651MOL0     H87883   4.016   7.423   1.308  0.5058  0.5340 -1.1986
  651MOL0     H87884   4.013   7.588   1.370  2.3561 -0.1060  1.0806
  651MOL0     H87885   3.962   7.556   1.199 -0.1507 -0.5477  0.4966
  652MOL0     O87886   9.507   2.770   6.184  0.0408  0.0140  1.1224
  652MOL0     C87887   9.392   2.787   6.158  1.0080  0.5814 -0.7396
  652MOL0     O87888   9.319   2.902   6.160 -0.5864  0.1232  0.5479
  652MOL0     C87889   9.365   3.031   6.185 -0.3065 -0.2954  0.1792
  652MOL0     C87890   9.272   3.137   6.197  0.7441  0.1520 -0.3874
  652MOL0     C87891   9.310   3.268   6.236  0.4662  1.3283  0.8861
  652MOL0     C87892   9.439   3.300   6.260 -0.1799  0.8386 -0.9462
  652MOL0     O87893   9.465   3.426   6.296  0.1274 -0.5589  0.1539
  652MOL0     C87894   9.590   3.465   6.338 -0.2111 -0.1938 -0.0787
  652MOL0     C87895   9.553   3.605   6.393  0.5578  0.5438  0.4538
  652MOL0     C87896   9.482   3.617   6.518  0.1031  0.8895 -0.4234
  652MOL0     C87897   9.443   3.760   6.546  0.3551  0.2576  0.4186
  652MOL0     C87898   9.404   3.778   6.699  0.8364  0.0027  0.8867
  652MOL0     C87899   9.332   3.911   6.730  0.9361 -0.2677 -1.6662
  652MOL0     C87900   9.299   3.906   6.884  0.4113  0.5165  0.3567
  652MOL0     C87901   9.258   4.048   6.917  0.6082  0.5974  0.2547
  652MOL0     N87902   9.263   4.063   7.066 -0.1508 -0.8735  1.2006
  652MOL0     C87903   9.187   3.984   7.145  0.6176  0.4928 -0.1487
  652MOL0     C87904   9.237   4.006   7.267  0.0336 -0.0097 -0.1430
  652MOL0     C87905   9.163   3.964   7.393  0.7940  0.5942 -0.0119
  652MOL0     C87906   9.166   3.823   7.433 -1.0621  0.3110  0.4845
  652MOL0     C87907   9.304   3.765   7.442 -0.1651 -0.0882 -0.2829
  652MOL0     C87908   9.330   3.620   7.500 -0.2774 -1.6359  0.8109
  652MOL0     O87909   9.441   3.546   7.441  0.5539 -0.3783 -0.2396
  652MOL0     C87910   9.571   3.572   7.481  0.3178 -0.6394  0.4525
  652MOL0     C87911   9.679   3.526   7.399  1.1766  0.1073  0.5770
  652MOL0     C87912   9.806   3.566   7.421  0.0175  0.4352 -0.4334
  652MOL0     C87913   9.836   3.654   7.529 -0.5243 -0.1333  1.3195
  652MOL0     C87914   9.971   3.713   7.562  0.0428  0.4115  0.3956
  652MOL0     O87915  10.083   3.649   7.501  0.0646  0.6401 -0.1780
  652MOL0     C87916  10.209   3.703   7.502 -1.2713  1.0035 -1.3235
  652MOL0     C87917  10.265   3.759   7.623  0.0457 -0.0583 -0.8198
  652MOL0     C87918  10.398   3.807   7.633  0.2143  0.1029  0.1555
  652MOL0     C87919  10.485   3.782   7.521  1.0923 -0.1137 -0.4630
  652MOL0     O87920  10.612   3.829   7.519 -0.3135 -0.2174  0.1012
  652MOL0     C87921  10.689   3.779   7.632  0.4862  0.5341 -1.1965
  652MOL0     C87922  10.812   3.858   7.646  0.6024 -0.3613 -0.3025
  652MOL0     C87923  10.919   3.791   7.741 -0.1937 -0.6157  1.5246
  652MOL0     C87924  11.051   3.855   7.714  0.2559 -0.1279 -0.2190
  652MOL0     C87925  11.137   3.741   7.651 -0.9249 -0.0450  0.5750
  652MOL0     C87926  11.265   3.810   7.601 -0.9132  0.6192  1.3698
  652MOL0     C87927  11.377   3.718   7.559 -0.0707  0.9558  0.7433
  652MOL0     C87928  11.459   3.797   7.459  0.1982  0.2671  0.9419
  652MOL0    Cl87929  11.611   3.708   7.403  0.1964 -0.0519  0.1286
  652MOL0     C87930  10.428   3.716   7.407  1.0946  0.2433  0.4096
  652MOL0     C87931  10.290   3.692   7.386 -0.2407  0.7807 -0.2133
  652MOL0     O87932   9.975   3.807   7.630 -0.5276 -0.8316  0.2106
  652MOL0     C87933   9.733   3.696   7.620  0.6224  0.2701  0.3488
  652MOL0     C87934   9.601   3.655   7.591 -0.6147  0.4412  0.1432
  652MOL0     N87935   9.343   4.102   7.261 -0.4432 -1.5675  0.2667
  652MOL0     N87936   9.358   4.129   7.134  0.2295  0.7062 -0.5227
  652MOL0     C87937   9.538   3.199   6.237  0.6163 -0.0989  0.2953
  652MOL0     C87938   9.499   3.070   6.201  0.6956 -0.5125  0.2238
  652MOL0     C87939   9.318   2.663   6.138  0.0260 -0.0102  0.6565
  652MOL0     C87940   9.184   2.669   6.177 -0.1786  0.4216 -0.1076
  652MOL0     C87941   9.087   2.577   6.125 -1.5908 -0.2475  0.7557
  652MOL0     C87942   9.129   2.461   6.053  0.1136 -0.2802 -1.8305
  652MOL0     O87943   9.030   2.363   6.040  0.7165 -0.8380  0.2682
  652MOL0     C87944   9.065   2.241   5.984 -0.2896 -0.5003 -1.2211
  652MOL0     C87945   9.077   2.265   5.841  0.4053  0.0524  1.0895
  652MOL0     C87946   9.115   2.132   5.773  0.5136  0.9426 -0.4218
  652MOL0     C87947   9.012   2.028   5.773 -0.5626  0.9792 -0.5467
  652MOL0     C87948   9.026   1.934   5.661  0.3957 -0.6237  0.1079
  652MOL0     C87949   9.037   1.845   5.581 -0.6931  0.3962 -0.0515
  652MOL0     C87950   9.266   2.453   6.023  0.4556 -0.4474  0.5543
  652MOL0     C87951   9.355   2.555   6.053  1.0528  0.1228 -0.2224
  652MOL0     C87952   9.495   2.532   5.984  0.8865  0.7756 -0.7432
  652MOL0     H87953   9.171   3.122   6.160  1.0199 -0.2582 -0.9917
  652MOL0     H87954   9.242   3.351   6.214  1.9671  2.3022 -0.2701
  652MOL0     H87955   9.634   3.406   6.419 -2.0827  0.1596  1.2657
  652MOL0     H87956   9.653   3.473   6.249  2.0490 -4.6502  0.8263
  652MOL0     H87957   9.508   3.661   6.311  4.3187  0.5327 -1.8713
  652MOL0     H87958   9.645   3.663   6.408  0.3302  1.8950 -2.5260
  652MOL0     H87959   9.535   3.587   6.610 -1.4315 -1.5233 -0.2449
  652MOL0     H87960   9.393   3.556   6.504 -0.7374  1.5711  1.4952
  652MOL0     H87961   9.528   3.827   6.534  0.0324  0.7869  1.0200
  652MOL0     H87962   9.365   3.788   6.474 -0.8433 -4.2675 -0.4095
  652MOL0     H87963   9.336   3.700   6.735 -3.3949  3.5816  1.4485
  652MOL0     H87964   9.496   3.781   6.758 -0.2820  3.2941  2.6703
  652MOL0     H87965   9.394   3.996   6.702  0.5865  0.8873  0.8089
  652MOL0     H87966   9.245   3.915   6.664  2.0277  1.8244 -3.0795
  652MOL0     H87967   9.389   3.880   6.940  2.4676  1.9998 -2.0861
  652MOL0     H87968   9.217   3.836   6.904 -1.3624  2.3285 -0.2063
  652MOL0     H87969   9.322   4.123   6.871 -0.5228  1.8457  0.6455
  652MOL0     H87970   9.156   4.069   6.883  1.9476  3.7031 -2.2599
  652MOL0     H87971   9.104   3.918   7.122  0.8409 -0.0829  0.6310
  652MOL0     H87972   9.197   4.027   7.476 -1.3604 -0.0725  1.4498
  652MOL0     H87973   9.061   4.002   7.383 -0.7450 -3.1650 -0.0110
  652MOL0     H87974   9.114   3.804   7.527 -1.2568 -1.8466  0.0091
  652MOL0     H87975   9.105   3.772   7.357 -0.2501  0.1456 -0.0597
  652MOL0     H87976   9.375   3.836   7.485 -2.0009  0.4521  2.0599
  652MOL0     H87977   9.330   3.761   7.335 -1.3895 -0.5672 -0.5817
  652MOL0     H87978   9.231   3.575   7.485  0.5114 -3.1453 -0.1566
  652MOL0     H87979   9.340   3.629   7.608  1.2423 -0.7971  0.6319
  652MOL0     H87980   9.650   3.458   7.320 -0.2336  1.1593  0.1554
  652MOL0     H87981   9.881   3.523   7.355 -0.2479  0.5929 -0.8426
  652MOL0     H87982  10.192   3.775   7.701 -1.0635 -2.7901 -1.1784
  652MOL0     H87983  10.424   3.864   7.721 -4.4667  4.2574 -0.7157
  652MOL0     H87984  10.634   3.779   7.726 -0.2791  3.1462 -1.5596
  652MOL0     H87985  10.717   3.677   7.601  3.4287  1.2154 -1.1366
  652MOL0     H87986  10.853   3.858   7.545 -2.0059  2.9306 -1.5688
  652MOL0     H87987  10.790   3.961   7.677 -1.1135 -0.9045  0.3831
  652MOL0     H87988  10.880   3.815   7.841 -3.3735 -1.0239  0.5032
  652MOL0     H87989  10.922   3.682   7.730 -0.2933 -0.7194  2.3867
  652MOL0     H87990  11.108   3.881   7.804  3.5809 -3.6116 -1.0446
  652MOL0     H87991  11.043   3.942   7.648 -2.6562  0.6768  1.0306
  652MOL0     H87992  11.077   3.701   7.569  0.0248 -2.5986  1.0139
  652MOL0     H87993  11.153   3.669   7.732  3.5836 -0.8959 -0.7365
  652MOL0     H87994  11.243   3.878   7.518 -1.0462 -1.5228 -0.4277
  652MOL0     H87995  11.306   3.867   7.685  1.0136 -1.5274  2.0161
  652MOL0     H87996  11.339   3.630   7.506  0.1873  0.5756  1.1753
  652MOL0     H87997  11.443   3.675   7.636  3.4821 -0.3451 -2.6758
  652MOL0     H87998  11.398   3.815   7.370 -0.9706 -0.6701  1.5225
  652MOL0     H87999  11.476   3.899   7.495 -2.1604 -0.4659  4.6854
  652MOL0     H88000  10.492   3.703   7.321 -0.6818 -1.1179 -0.7947
  652MOL0     H88001  10.246   3.644   7.300  2.3736  0.2251 -1.3231
  652MOL0     H88002   9.758   3.757   7.706  2.7336 -2.5524  1.8958
  652MOL0     H88003   9.525   3.687   7.661 -1.6097  0.0570 -0.7258
  652MOL0     H88004   9.637   3.241   6.251  0.2714  1.5921 -1.8990
  652MOL0     H88005   9.584   3.007   6.177  1.1920  0.3428 -0.3070
  652MOL0     H88006   9.142   2.747   6.240 -0.0682 -1.1213  1.9797
  652MOL0     H88007   8.985   2.591   6.159 -1.3685  3.6900  0.2637
  652MOL0     H88008   8.985   2.171   6.006 -1.9623  1.3567 -1.1050
  652MOL0     H88009   9.158   2.211   6.033 -0.0415  1.3083 -0.5186
  652MOL0     H88010   9.155   2.335   5.808  2.0187 -2.2349 -0.2136
  652MOL0     H88011   8.976   2.293   5.811 -1.0270 -3.1704  2.4415
  652MOL0     H88012   9.196   2.084   5.828 -0.5868 -1.8419 -1.0490
  652MOL0     H88013   9.157   2.152   5.674  0.4281  0.7044 -0.5079
  652MOL0     H88014   9.019   1.970   5.865 -1.3184  2.7657  0.7023
  652MOL0     H88015   8.911   2.069   5.777 -1.1328 -0.5091  2.2411
  652MOL0     H88016   9.053   1.780   5.497  0.4354  0.6985 -0.0843
  652MOL0     H88017   9.306   2.367   5.969 -3.1396 -1.1017 -1.3880
  652MOL0     H88018   9.559   2.466   6.043 -0.2629  1.7939  1.8036
  652MOL0     H88019   9.464   2.485   5.891 -1.2031 -4.4431  2.1552
  652MOL0     H88020   9.552   2.625   5.984  1.8398  0.2442  1.2015
  653MOL0     O88021   7.403   4.003   0.742 -0.6349  0.0709 -0.1611
  653MOL0     C88022   7.331   4.084   0.785  0.4042 -0.0538  0.1803
  653MOL0     O88023   7.370   4.189   0.864  1.1319 -0.7009 -0.1924
  653MOL0     C88024   7.492   4.232   0.833  0.2611 -0.1314  0.6463
  653MOL0     C88025   7.517   4.315   0.731 -0.8757  0.3957 -0.1701
  653MOL0     C88026   7.649   4.363   0.700  0.1184  0.6431 -0.1555
  653MOL0     C88027   7.755   4.314   0.781  0.1063 -0.0887 -0.1292
  653MOL0     O88028   7.881   4.368   0.771  0.4907  0.2893  0.6376
  653MOL0     C88029   7.991   4.271   0.768  0.9726 -0.4690  0.7351
  653MOL0     C88030   8.103   4.350   0.701 -1.0384  0.4236  0.6522
  653MOL0     C88031   8.244   4.287   0.713 -0.5317  0.3597 -0.3455
  653MOL0     C88032   8.344   4.358   0.627 -0.2494  0.7574  0.2465
  653MOL0     C88033   8.393   4.266   0.519 -0.8939 -0.1780 -0.1366
  653MOL0     C88034   8.516   4.318   0.443 -0.4434  0.9557  0.4777
  653MOL0     C88035   8.501   4.460   0.382 -0.0002 -0.2156 -0.1453
  653MOL0     C88036   8.571   4.570   0.454  0.9454  0.2906 -1.4323
  653MOL0     N88037   8.579   4.686   0.372  0.2844  0.1161  0.1500
  653MOL0     C88038   8.482   4.776   0.340 -0.0097 -0.5739  0.1028
  653MOL0     C88039   8.547   4.868   0.263 -0.7099 -0.3225  0.4495
  653MOL0     C88040   8.512   5.004   0.201  0.1699 -0.4799 -0.8948
  653MOL0     C88041   8.500   5.106   0.326  0.2325  0.2640 -0.0308
  653MOL0     C88042   8.362   5.092   0.388  0.2206 -0.3528  0.0848
  653MOL0     C88043   8.336   5.209   0.486 -0.5939 -0.9108 -0.6483
  653MOL0     O88044   8.434   5.203   0.590  0.1020 -0.4485 -0.1353
  653MOL0     C88045   8.392   5.199   0.717  1.2543 -0.4216  0.5876
  653MOL0     C88046   8.284   5.280   0.775 -0.8152  0.9598 -0.0568
  653MOL0     C88047   8.255   5.267   0.909 -0.5162  0.9922  0.0073
  653MOL0     C88048   8.321   5.173   0.997 -0.5962 -0.0692 -0.5602
  653MOL0     C88049   8.289   5.162   1.140  0.1095  0.1999 -0.5828
  653MOL0     O88050   8.399   5.118   1.208  0.5896  0.0983 -0.5779
  653MOL0     C88051   8.398   5.114   1.343 -0.3786  0.3352 -0.4189
  653MOL0     C88052   8.393   5.227   1.424  0.0454 -0.1602  0.1049
  653MOL0     C88053   8.411   5.220   1.564  0.6143 -0.5248 -0.0772
  653MOL0     C88054   8.434   5.089   1.615 -0.7619 -0.7793 -0.1085
  653MOL0     O88055   8.466   5.088   1.751  0.0541  1.0115 -0.3318
  653MOL0     C88056   8.492   4.956   1.810  0.2680 -0.8679 -0.6892
  653MOL0     C88057   8.555   4.975   1.960  0.3733 -0.1501  0.0252
  653MOL0     C88058   8.611   4.838   2.014  0.2333  0.6477 -0.4572
  653MOL0     C88059   8.630   4.868   2.177  0.2286 -0.0064  0.7464
  653MOL0     C88060   8.686   4.746   2.260 -0.4216 -0.2547 -0.3409
  653MOL0     C88061   8.808   4.665   2.203  0.2545  0.3242 -0.0644
  653MOL0     C88062   8.926   4.761   2.212  0.4999 -0.1111  0.1062
  653MOL0     C88063   8.994   4.759   2.357  0.1729  0.0165 -0.3815
  653MOL0    Cl88064   9.167   4.749   2.324 -0.1400  0.0362 -0.2821
  653MOL0     C88065   8.423   4.974   1.529 -0.1310  0.4125  0.6565
  653MOL0     C88066   8.409   4.982   1.392 -0.2855 -0.2821 -0.1601
  653MOL0     O88067   8.188   5.217   1.189  0.4263  0.2481  0.1174
  653MOL0     C88068   8.423   5.103   0.939  0.4618  1.0324  0.6709
  653MOL0     C88069   8.460   5.122   0.800 -0.7716  0.6956  0.4415
  653MOL0     N88070   8.680   4.841   0.251  0.2926  0.1154 -0.1395
  653MOL0     N88071   8.697   4.732   0.318  0.1036 -0.2565 -0.3413
  653MOL0     C88072   7.718   4.232   0.889  0.2266  0.4729 -0.2237
  653MOL0     C88073   7.585   4.190   0.914  0.1583  0.5286 -0.5622
  653MOL0     C88074   7.189   4.068   0.748  0.3855  0.7350  0.0500
  653MOL0     C88075   7.084   4.088   0.850  0.4159  0.5408  0.4197
  653MOL0     C88076   6.956   4.057   0.807  0.8444  0.3834  1.0108
  653MOL0     C88077   6.917   4.010   0.680  0.0736 -0.4904  0.9575
  653MOL0     O88078   6.777   3.981   0.660 -1.2466  0.5820  0.4458
  653MOL0     C88079   6.731   3.908   0.545 -0.1007 -0.2198  0.2404
  653MOL0     C88080   6.716   4.000   0.424  0.0494 -0.5489  0.1384
  653MOL0     C88081   6.564   4.019   0.381  0.4882 -1.3869 -0.1739
  653MOL0     C88082   6.557   4.070   0.235  0.2687 -0.9089 -0.1589
  653MOL0     C88083   6.418   4.085   0.189  0.6402  0.3573  1.4216
  653MOL0     C88084   6.301   4.098   0.153 -0.5363 -0.5656 -1.4197
  653MOL0     C88085   7.015   4.010   0.582 -0.3784  0.0390  0.1755
  653MOL0     C88086   7.150   4.039   0.607  0.0954 -0.1173  0.3259
  653MOL0     C88087   7.244   4.032   0.495 -0.8672  0.1933  0.4319
  653MOL0     H88088   7.436   4.342   0.663 -0.2037  0.4480 -0.9666
  653MOL0     H88089   7.663   4.438   0.623  0.0187  3.5316  2.4474
  653MOL0     H88090   8.024   4.233   0.865  2.6492  0.6806  0.6747
  653MOL0     H88091   7.959   4.183   0.712  1.7757 -1.5525  1.9295
  653MOL0     H88092   8.115   4.449   0.746 -0.6371  0.2942  0.8370
  653MOL0     H88093   8.075   4.356   0.596 -0.4992  0.6718  0.5197
  653MOL0     H88094   8.239   4.182   0.682  0.8106 -0.0656  0.7518
  653MOL0     H88095   8.275   4.307   0.816 -0.6025 -3.4261  0.5720
  653MOL0     H88096   8.303   4.453   0.590 -0.0927 -0.9567 -5.2559
  653MOL0     H88097   8.437   4.378   0.682  0.8987  0.5786 -1.5335
  653MOL0     H88098   8.422   4.171   0.563  4.2134  0.9044 -0.5692
  653MOL0     H88099   8.309   4.255   0.450 -1.4290  0.3743  0.4071
  653MOL0     H88100   8.611   4.318   0.498  0.9548  2.4727 -1.7579
  653MOL0     H88101   8.524   4.240   0.367 -0.4204  4.3353 -3.3409
  653MOL0     H88102   8.393   4.475   0.377 -0.1949 -1.2441  0.7427
  653MOL0     H88103   8.531   4.463   0.277 -1.9158 -3.2183 -0.8930
  653MOL0     H88104   8.507   4.593   0.540  0.2386 -2.3210 -1.1749
  653MOL0     H88105   8.665   4.542   0.503 -0.4854 -2.9744 -0.2903
  653MOL0     H88106   8.375   4.774   0.358 -0.1495  2.3912  0.1144
  653MOL0     H88107   8.581   5.045   0.127  2.8463  5.0096  3.8616
  653MOL0     H88108   8.417   4.983   0.150 -1.0528 -0.7364  1.3688
  653MOL0     H88109   8.569   5.088   0.409 -0.3108  0.3384  0.4399
  653MOL0     H88110   8.508   5.208   0.286 -0.9929  0.3620 -0.0445
  653MOL0     H88111   8.349   4.997   0.441 -4.2707 -1.8504 -3.0293
  653MOL0     H88112   8.273   5.099   0.324 -2.9821  1.9071  4.2578
  653MOL0     H88113   8.243   5.194   0.541  1.3644  0.8096  3.6100
  653MOL0     H88114   8.343   5.309   0.442 -1.8051 -0.9930 -1.0627
  653MOL0     H88115   8.230   5.355   0.718 -0.8959  0.9036 -0.0539
  653MOL0     H88116   8.184   5.339   0.949  1.3854  1.7155  2.3459
  653MOL0     H88117   8.376   5.321   1.373 -1.4924 -2.7094 -4.7402
  653MOL0     H88118   8.411   5.304   1.632  0.4706  0.2209 -0.9762
  653MOL0     H88119   8.408   4.887   1.820 -1.1750  0.9489  0.3585
  653MOL0     H88120   8.567   4.909   1.746  0.4478  1.6074 -2.4138
  653MOL0     H88121   8.631   5.053   1.962  0.8684 -0.4348  4.7929
  653MOL0     H88122   8.473   5.010   2.024  0.1910  2.4282 -1.4965
  653MOL0     H88123   8.528   4.767   2.004 -0.0843  0.4498  2.5638
  653MOL0     H88124   8.699   4.797   1.964  0.6888 -0.0813  0.8765
  653MOL0     H88125   8.529   4.897   2.206 -0.8684 -0.4553 -2.2114
  653MOL0     H88126   8.690   4.957   2.199 -1.1030  1.5708 -1.5780
  653MOL0     H88127   8.599   4.680   2.265  0.6275 -1.6845 -0.2891
  653MOL0     H88128   8.715   4.778   2.361 -1.1177  1.9595 -0.7817
  653MOL0     H88129   8.837   4.570   2.249 -0.4412 -1.2884 -2.7315
  653MOL0     H88130   8.785   4.641   2.099  0.1390 -1.6968  0.3892
  653MOL0     H88131   8.897   4.863   2.184 -1.5206 -0.7290 -0.2224
  653MOL0     H88132   9.003   4.725   2.143 -1.5370 -1.7548 -1.4437
  653MOL0     H88133   8.970   4.850   2.412  0.2357 -0.9789  1.3745
  653MOL0     H88134   8.966   4.682   2.430 -0.0783  2.9304  2.8298
  653MOL0     H88135   8.426   4.871   1.562 -0.1904 -0.5826 -2.2237
  653MOL0     H88136   8.419   4.902   1.319 -1.6152  1.3829 -2.2858
  653MOL0     H88137   8.476   5.032   1.002 -0.9073 -1.2863 -0.6596
  653MOL0     H88138   8.547   5.064   0.774  0.2473  0.8818  3.1796
  653MOL0     H88139   7.800   4.216   0.958 -0.5822  0.6413  0.7989
  653MOL0     H88140   7.570   4.129   1.002  4.6840 -1.9565 -1.1646
  653MOL0     H88141   7.106   4.096   0.956  1.0726 -0.6181  0.3943
  653MOL0     H88142   6.875   4.073   0.877  0.3135  2.0893  0.0659
  653MOL0     H88143   6.635   3.860   0.563  1.7349 -4.2989  0.3773
  653MOL0     H88144   6.802   3.827   0.525  0.6154 -0.0812  2.0456
  653MOL0     H88145   6.781   3.965   0.343  2.2749  0.7704  1.2751
  653MOL0     H88146   6.759   4.101   0.430  0.3297 -0.5845 -0.9464
  653MOL0     H88147   6.512   4.073   0.460  0.2213 -3.2879  1.0086
  653MOL0     H88148   6.524   3.917   0.386 -0.6714 -1.2343 -3.6134
  653MOL0     H88149   6.608   4.162   0.205 -4.2464  0.9736 -3.1918
  653MOL0     H88150   6.613   4.011   0.162  0.8673  2.9788 -3.1814
  653MOL0     H88151   6.207   4.100   0.102 -1.0777  1.7720 -0.4799
  653MOL0     H88152   6.992   3.978   0.481  0.1692 -1.0341  0.3639
  653MOL0     H88153   7.350   4.052   0.512 -1.3662  2.2612  1.4081
  653MOL0     H88154   7.243   3.928   0.460 -1.1162 -0.1489  1.4155
  653MOL0     H88155   7.227   4.104   0.414  4.3941 -1.7296 -2.8895
  654MOL0     O88156   3.925   0.433   8.433  0.7326  0.4723  0.1916
  654MOL0     C88157   3.812   0.385   8.444  0.2622  0.1104  0.5858
  654MOL0     O88158   3.780   0.257   8.428 -0.8726 -0.1558  0.3622
  654MOL0     C88159   3.870   0.154   8.412 -0.3632  0.6148  0.5591
  654MOL0     C88160   3.847   0.022   8.474  0.2213  0.0153  0.6601
  654MOL0     C88161   3.942  -0.079   8.464 -0.8065  0.1091 -0.1547
  654MOL0     C88162   4.061  -0.058   8.394  0.3746  0.4985  1.0756
  654MOL0     O88163   4.165  -0.144   8.410 -0.0773  0.6511  0.1356
  654MOL0     C88164   4.167  -0.276   8.345 -0.3556 -0.4377 -0.3067
  654MOL0     C88165   4.251  -0.251   8.212  0.2258  0.7089 -0.4548
  654MOL0     C88166   4.402  -0.228   8.255 -0.0079 -0.4000 -0.0348
  654MOL0     C88167   4.437  -0.093   8.321 -0.1694  0.3169 -0.3965
  654MOL0     C88168   4.586  -0.053   8.309 -0.0659  0.5638 -0.2384
  654MOL0     C88169   4.612   0.095   8.327  0.2884 -0.8357 -0.3564
  654MOL0     C88170   4.574   0.149   8.472 -0.3354 -0.1757 -0.2712
  654MOL0     C88171   4.646   0.092   8.590 -0.8489 -0.4166 -0.5668
  654MOL0     N88172   4.787   0.123   8.591  0.3808  0.1672 -0.8052
  654MOL0     C88173   4.891   0.032   8.594  0.5552 -0.8766  0.5449
  654MOL0     C88174   5.003   0.117   8.616  1.0738  0.1983  1.2711
  654MOL0     C88175   5.139   0.059   8.645  1.8261  0.0777  0.3286
  654MOL0     C88176   5.225   0.077   8.526 -0.5949  0.2199  0.6491
  654MOL0     C88177   5.364   0.009   8.545 -0.0662 -1.0163  0.3670
  654MOL0     C88178   5.473   0.111   8.561  0.6807  0.5636 -0.2544
  654MOL0     O88179   5.501   0.170   8.439 -0.4833  0.4174  0.4091
  654MOL0     C88180   5.491   0.303   8.423  0.4670 -0.8803 -0.4249
  654MOL0     C88181   5.423   0.370   8.321 -0.9037  1.3357 -1.0770
  654MOL0     C88182   5.422   0.512   8.304 -0.4223  0.2717 -0.4083
  654MOL0     C88183   5.513   0.590   8.381 -0.1833  0.1096 -0.0018
  654MOL0     C88184   5.538   0.727   8.359 -0.0514 -0.2187 -0.6365
  654MOL0     O88185   5.496   0.769   8.233 -0.2064 -0.7508 -0.5546
  654MOL0     C88186   5.531   0.892   8.189 -1.1541 -1.0988 -0.0041
  654MOL0     C88187   5.498   1.005   8.260 -1.3136  0.0363 -0.8395
  654MOL0     C88188   5.542   1.125   8.215 -0.3259  0.0137  0.1770
  654MOL0     C88189   5.602   1.147   8.094  0.4281  1.1411  0.1906
  654MOL0     O88190   5.632   1.274   8.051  0.2101 -0.1931 -0.0443
  654MOL0     C88191   5.686   1.375   8.129 -0.2453 -0.3448  0.1403
  654MOL0     C88192   5.835   1.353   8.143 -0.9487 -0.0615  0.2462
  654MOL0     C88193   5.904   1.487   8.189 -0.1229 -0.2144  0.8291
  654MOL0     C88194   6.051   1.475   8.217 -0.4675 -0.9138 -0.7229
  654MOL0     C88195   6.110   1.613   8.263  1.1812  1.3358  0.3616
  654MOL0     C88196   6.252   1.601   8.302  0.3107 -0.1788  0.0831
  654MOL0     C88197   6.294   1.736   8.361  0.8698 -0.1274  0.3215
  654MOL0     C88198   6.301   1.856   8.265 -0.3547 -0.3167 -0.0097
  654MOL0    Cl88199   6.474   1.900   8.250  0.0829  0.2030  0.1452
  654MOL0     C88200   5.645   1.031   8.019  0.5333 -0.2647 -0.2005
  654MOL0     C88201   5.609   0.907   8.075 -0.9347 -0.7376  0.2330
  654MOL0     O88202   5.589   0.798   8.443  0.9612  0.1569  0.2337
  654MOL0     C88203   5.589   0.521   8.480 -0.5203 -0.6682  0.0830
  654MOL0     C88204   5.572   0.388   8.498  0.2521  0.5329  0.7197
  654MOL0     N88205   4.970   0.246   8.599 -0.3316 -0.9346 -0.1446
  654MOL0     N88206   4.841   0.246   8.592  0.0545 -0.2498  0.1920
  654MOL0     C88207   4.083   0.053   8.313  1.6357 -0.0119  0.1413
  654MOL0     C88208   3.981   0.156   8.320  0.0850 -0.9541 -0.2519
  654MOL0     C88209   3.703   0.454   8.523 -0.0815  0.2581  0.2048
  654MOL0     C88210   3.610   0.382   8.589 -0.5639  0.0518 -1.2926
  654MOL0     C88211   3.523   0.440   8.678  0.1825  0.4048  0.0353
  654MOL0     C88212   3.517   0.573   8.696  0.5248 -0.1030  0.7234
  654MOL0     O88213   3.421   0.618   8.777  0.3508  0.2001  0.1390
  654MOL0     C88214   3.375   0.749   8.763 -0.6836  1.0096  0.1774
  654MOL0     C88215   3.242   0.752   8.844 -0.0402 -0.9211 -0.3996
  654MOL0     C88216   3.272   0.738   8.991 -0.8810  0.7826  0.7351
  654MOL0     C88217   3.358   0.855   9.050  0.5642  0.5830  0.5122
  654MOL0     C88218   3.409   0.835   9.185  0.4545  0.1767 -0.4751
  654MOL0     C88219   3.451   0.807   9.292  0.6935  0.7875 -0.3134
  654MOL0     C88220   3.612   0.656   8.628 -0.2705  0.6483 -0.8425
  654MOL0     C88221   3.698   0.602   8.533 -0.8573  0.5012 -0.7269
  654MOL0     C88222   3.756   0.708   8.438  0.8307  0.7672  0.0424
  654MOL0     H88223   3.753   0.003   8.524  0.4455 -1.9200  0.4123
  654MOL0     H88224   3.942  -0.167   8.527 -1.7963  1.2480  1.5302
  654MOL0     H88225   4.221  -0.354   8.399  1.9175  0.6760 -0.8256
  654MOL0     H88226   4.067  -0.317   8.330 -1.3781  1.1842  1.6286
  654MOL0     H88227   4.215  -0.163   8.160  2.3896  2.4623  0.8329
  654MOL0     H88228   4.250  -0.335   8.141 -0.6741  0.9747 -0.7674
  654MOL0     H88229   4.462  -0.229   8.164 -1.4650  4.1033 -1.2907
  654MOL0     H88230   4.430  -0.313   8.318  0.7193 -0.9245 -1.0378
  654MOL0     H88231   4.376  -0.017   8.271  2.4382  2.5363 -0.4326
  654MOL0     H88232   4.395  -0.088   8.422  3.7390 -3.0262  1.6766
  654MOL0     H88233   4.653  -0.124   8.359 -1.0945 -0.5793 -0.4105
  654MOL0     H88234   4.618  -0.059   8.204  0.0553 -1.7154 -0.1392
  654MOL0     H88235   4.717   0.120   8.309  0.4859  0.8614  2.5232
  654MOL0     H88236   4.550   0.143   8.251  0.9468  2.1131  0.8452
  654MOL0     H88237   4.468   0.122   8.475  0.0538 -1.7630 -0.3729
  654MOL0     H88238   4.575   0.259   8.474  1.1191 -0.1640 -0.8381
  654MOL0     H88239   4.605   0.129   8.685  0.8208  0.5235 -0.1680
  654MOL0     H88240   4.642  -0.017   8.599  3.5330 -0.6408  1.7994
  654MOL0     H88241   4.883  -0.076   8.598 -1.5185 -0.7700  0.4776
  654MOL0     H88242   5.176   0.132   8.718  1.0818  0.5023  0.2840
  654MOL0     H88243   5.128  -0.047   8.672 -0.7417  0.4687  1.0190
  654MOL0     H88244   5.175   0.028   8.442 -0.7551  1.6505 -0.1148
  654MOL0     H88245   5.240   0.183   8.507  3.4974 -0.4670 -1.2059
  654MOL0     H88246   5.377  -0.042   8.449  1.0174 -0.2335  0.0762
  654MOL0     H88247   5.362  -0.069   8.622  1.5661  0.3557  1.8983
  654MOL0     H88248   5.571   0.069   8.586  0.0934 -1.1501 -0.6475
  654MOL0     H88249   5.443   0.176   8.643 -0.9254  0.5658 -0.8046
  654MOL0     H88250   5.369   0.294   8.267  3.2682 -3.3620  0.6258
  654MOL0     H88251   5.366   0.558   8.223 -0.3103  2.2002  0.5764
  654MOL0     H88252   5.437   1.014   8.350 -2.3679 -0.3897 -1.4946
  654MOL0     H88253   5.517   1.208   8.281  1.1682 -0.8967  2.0157
  654MOL0     H88254   5.674   1.469   8.074 -0.0837  0.8668  2.0687
  654MOL0     H88255   5.644   1.379   8.230  1.5522 -1.6957  0.9828
  654MOL0     H88256   5.850   1.277   8.219 -0.9317  2.2997  2.7555
  654MOL0     H88257   5.867   1.336   8.040  0.7907 -1.8704  1.0291
  654MOL0     H88258   5.890   1.568   8.118 -1.3663 -0.5723  0.6482
  654MOL0     H88259   5.859   1.519   8.284  3.2172  1.6259  1.9454
  654MOL0     H88260   6.109   1.447   8.129 -0.4918  0.6982 -1.2781
  654MOL0     H88261   6.074   1.409   8.301  0.6974  0.6716  0.2672
  654MOL0     H88262   6.061   1.655   8.351  1.1619 -1.3016  1.7114
  654MOL0     H88263   6.112   1.675   8.172 -3.4744 -0.1509 -1.0540
  654MOL0     H88264   6.272   1.531   8.383  1.4754  1.9922  1.7919
  654MOL0     H88265   6.309   1.570   8.214 -0.3075 -1.7425  0.2098
  654MOL0     H88266   6.392   1.720   8.407  0.9404 -0.2144  0.1397
  654MOL0     H88267   6.224   1.762   8.441  1.6924 -0.5364  1.1870
  654MOL0     H88268   6.278   1.814   8.167  0.8219 -0.6327 -0.1562
  654MOL0     H88269   6.228   1.929   8.301  0.0578 -0.9598  2.2875
  654MOL0     H88270   5.693   1.032   7.922 -0.0892 -0.5292 -0.5189
  654MOL0     H88271   5.641   0.812   8.035  0.5581  0.2270 -0.9639
  654MOL0     H88272   5.650   0.572   8.554  0.3612 -0.7675 -0.5744
  654MOL0     H88273   5.640   0.334   8.564 -0.2298  1.1443  1.7260
  654MOL0     H88274   4.170   0.088   8.258  0.7942 -1.4551 -2.2081
  654MOL0     H88275   4.012   0.240   8.259  0.8685 -0.1910  1.1303
  654MOL0     H88276   3.589   0.275   8.588 -3.7474  0.5557 -0.3376
  654MOL0     H88277   3.453   0.375   8.731  2.9057 -1.1636  1.9687
  654MOL0     H88278   3.359   0.776   8.658  3.7221  5.4319  0.2720
  654MOL0     H88279   3.451   0.826   8.784 -0.4505  1.3490 -1.6884
  654MOL0     H88280   3.173   0.676   8.807  1.0824 -1.8641 -0.6234
  654MOL0     H88281   3.190   0.848   8.841  2.0542  0.4000  2.1445
  654MOL0     H88282   3.332   0.648   9.001 -0.0887  1.4248  2.0416
  654MOL0     H88283   3.180   0.720   9.048 -0.8095 -0.3211  0.5200
  654MOL0     H88284   3.445   0.878   8.988 -0.1545  0.2926 -0.6211
  654MOL0     H88285   3.295   0.944   9.046 -0.6354 -0.1063  2.5991
  654MOL0     H88286   3.486   0.780   9.390  1.2781  0.4353 -0.6106
  654MOL0     H88287   3.601   0.762   8.645  0.2990  0.3771  1.7136
  654MOL0     H88288   3.766   0.805   8.487 -2.9207  1.9690 -1.2025
  654MOL0     H88289   3.853   0.677   8.399 -0.0650 -2.5729  0.1271
  654MOL0     H88290   3.685   0.724   8.356 -0.3239  0.3399  0.9235
  655MOL0     O88291   9.268   7.865   9.260 -0.1967  0.1879 -0.0538
  655MOL0     C88292   9.220   7.965   9.316 -0.2483  0.2673  0.4779
  655MOL0     O88293   9.284   8.031   9.404 -0.6862 -0.0407 -0.4172
  655MOL0     C88294   9.383   7.979   9.477 -1.8413  0.1980  0.6884
  655MOL0     C88295   9.378   7.856   9.533 -0.2639 -0.9717 -0.1109
  655MOL0     C88296   9.497   7.808   9.600 -0.9451  0.0727  0.1663
  655MOL0     C88297   9.614   7.896   9.612 -0.1434  0.2980 -0.6289
  655MOL0     O88298   9.727   7.840   9.672  0.1174  0.3995 -0.7057
  655MOL0     C88299   9.851   7.903   9.674 -1.2877  0.5502  0.1795
  655MOL0     C88300   9.927   7.843   9.790 -0.7106 -0.0225 -0.4530
  655MOL0     C88301  10.072   7.876   9.776 -0.2881 -0.9705  0.3016
  655MOL0     C88302  10.146   7.895   9.904  0.3178 -0.1421  0.3268
  655MOL0     C88303  10.192   7.761   9.966 -0.3032  0.0237 -0.6048
  655MOL0     C88304  10.237   7.789  10.113  0.6917  0.1725 -0.0204
  655MOL0     C88305  10.279   7.662  10.186 -0.0560 -0.1550 -0.2614
  655MOL0     C88306  10.312   7.696  10.335 -0.2888 -0.9213  0.6422
  655MOL0     N88307  10.352   7.596  10.425 -0.6258 -0.7924 -0.0111
  655MOL0     C88308  10.283   7.482  10.449 -0.0590 -0.0450  0.0575
  655MOL0     C88309  10.375   7.399  10.502 -0.5953 -0.1051 -1.2688
  655MOL0     C88310  10.343   7.259  10.544  0.4900  0.6161 -0.5952
  655MOL0     C88311  10.348   7.244  10.699  0.2305 -0.8191  0.5722
  655MOL0     C88312  10.377   7.105  10.744 -0.2361 -0.4223 -0.7061
  655MOL0     C88313  10.410   7.112  10.897  0.2991  0.1963  0.3595
  655MOL0     O88314  10.312   7.029  10.966 -0.9809  0.5032  0.8939
  655MOL0     C88315  10.375   6.949  11.057 -0.3376 -0.0494  0.2580
  655MOL0     C88316  10.487   6.973  11.135  0.4704 -0.0990  0.1404
  655MOL0     C88317  10.530   6.873  11.224 -1.0012  1.0743  0.4983
  655MOL0     C88318  10.480   6.752  11.232 -0.9423  0.5177  0.5980
  655MOL0     C88319  10.539   6.662  11.327 -1.1094 -0.5368 -0.1962
  655MOL0     O88320  10.457   6.571  11.374  0.7415  0.4556 -0.1514
  655MOL0     C88321  10.474   6.483  11.477  0.3180  0.0584 -1.1032
  655MOL0     C88322  10.420   6.359  11.480 -0.0182  1.0753  1.2424
  655MOL0     C88323  10.453   6.274  11.584  0.5246 -0.4732  0.1999
  655MOL0     C88324  10.529   6.313  11.695 -1.0957 -0.6162  0.3616
  655MOL0     O88325  10.554   6.213  11.779  0.4721  0.1796  0.5554
  655MOL0     C88326  10.670   6.221  11.866  0.3712  0.2674 -0.5694
  655MOL0     C88327  10.727   6.091  11.915 -0.3488 -0.1347  0.4781
  655MOL0     C88328  10.625   6.017  12.010  0.1727  0.5989  0.9128
  655MOL0     C88329  10.648   5.866  12.025  0.0174 -0.4077 -0.1603
  655MOL0     C88330  10.517   5.819  12.098  0.7485 -0.7393  0.8215
  655MOL0     C88331  10.516   5.673  12.131  1.1155 -0.2835  0.0555
  655MOL0     C88332  10.378   5.625  12.174  0.3601  0.0450  0.5278
  655MOL0     C88333  10.386   5.492  12.244  0.0606 -0.4696 -0.0428
  655MOL0    Cl88334  10.441   5.521  12.408 -0.4806  0.3771 -0.2627
  655MOL0     C88335  10.564   6.448  11.714 -0.8941 -0.2612 -0.4004
  655MOL0     C88336  10.534   6.528  11.599 -1.3897  0.0674  1.2125
  655MOL0     O88337  10.645   6.699  11.383  1.0358  0.4266  0.8602
  655MOL0     C88338  10.354   6.732  11.165 -0.6898 -0.2129 -1.2290
  655MOL0     C88339  10.304   6.834  11.084  0.5090 -0.2370  0.5632
  655MOL0     N88340  10.498   7.471  10.515  0.4630 -1.1896  0.5489
  655MOL0     N88341  10.477   7.596  10.470 -0.7565  0.3999  0.0111
  655MOL0     C88342   9.611   8.020   9.547 -0.0965 -0.0196 -0.7338
  655MOL0     C88343   9.500   8.061   9.480 -0.5616  0.0416  0.5083
  655MOL0     C88344   9.088   8.010   9.268  0.2634 -0.2612 -0.3002
  655MOL0     C88345   9.012   7.924   9.186 -0.3850  0.0348 -0.7144
  655MOL0     C88346   8.893   7.975   9.117  0.1154  0.6662  0.4702
  655MOL0     C88347   8.847   8.103   9.146 -0.4497  1.0757  0.2573
  655MOL0     O88348   8.745   8.158   9.062 -0.3624  0.4352 -0.3055
  655MOL0     C88349   8.766   8.276   8.985  0.0658  0.4307  0.0291
  655MOL0     C88350   8.874   8.249   8.877 -0.5350 -0.7011 -0.8917
  655MOL0     C88351   9.018   8.272   8.922 -0.1259 -0.4889  0.2131
  655MOL0     C88352   9.124   8.277   8.807 -0.6939 -0.2183  0.2422
  655MOL0     C88353   9.234   8.376   8.834  0.5336  0.1307  0.6716
  655MOL0     C88354   9.318   8.453   8.876 -0.6231  0.1190 -0.0112
  655MOL0     C88355   8.910   8.177   9.247  0.6031  0.2389  0.3819
  655MOL0     C88356   9.036   8.137   9.300  0.8625  0.0944 -0.6514
  655MOL0     C88357   9.088   8.222   9.418 -0.2939  0.8121  0.1346
  655MOL0     H88358   9.284   7.801   9.522  0.7795 -2.9278  0.3060
  655MOL0     H88359   9.510   7.702   9.622  1.8705  0.6096  1.4341
  655MOL0     H88360   9.905   7.877   9.582  0.9431  0.1246  1.5251
  655MOL0     H88361   9.847   8.011   9.684 -1.0031  0.7108 -1.2198
  655MOL0     H88362   9.916   7.734   9.790 -1.1162  0.0172 -1.0953
  655MOL0     H88363   9.877   7.886   9.878 -1.1753 -0.0179 -0.7175
  655MOL0     H88364  10.087   7.965   9.715  3.0340 -2.6108 -1.5708
  655MOL0     H88365  10.113   7.789   9.724 -0.5439  0.0266 -1.6760
  655MOL0     H88366  10.239   7.952   9.894  1.1961 -1.8540 -2.0704
  655MOL0     H88367  10.072   7.941   9.970 -0.0860 -0.7846  0.3304
  655MOL0     H88368  10.110   7.688   9.959  0.6306 -1.0856 -0.2945
  655MOL0     H88369  10.271   7.704   9.916  3.8494  3.8785  0.9064
  655MOL0     H88370  10.318   7.862  10.108  1.2618 -0.3827  0.6869
  655MOL0     H88371  10.152   7.838  10.161 -1.6556 -2.0725 -1.5931
  655MOL0     H88372  10.370   7.612  10.153 -2.4873 -3.6968 -2.2910
  655MOL0     H88373  10.203   7.584  10.179  1.1293 -1.9292  3.5371
  655MOL0     H88374  10.389   7.775  10.329 -3.7555  2.6460 -2.6621
  655MOL0     H88375  10.225   7.747  10.378  0.5212  3.4690 -2.1600
  655MOL0     H88376  10.183   7.444  10.429  0.6000 -0.7490 -2.0914
  655MOL0     H88377  10.246   7.230  10.502 -0.0174  0.3448  0.7060
  655MOL0     H88378  10.415   7.187  10.504 -0.3070 -2.1492  2.4632
  655MOL0     H88379  10.431   7.306  10.736  1.2915 -1.2070 -1.0757
  655MOL0     H88380  10.260   7.281  10.753 -0.3887 -1.0951 -0.2303
  655MOL0     H88381  10.474   7.067  10.710 -0.1560 -2.8544  1.8633
  655MOL0     H88382  10.298   7.030  10.739 -0.7152 -0.7255  4.8111
  655MOL0     H88383  10.413   7.210  10.944 -1.2937  0.4799 -0.0336
  655MOL0     H88384  10.513   7.078  10.909  0.1612  0.6124  3.4334
  655MOL0     H88385  10.549   7.061  11.117  1.4277 -0.0342  3.0900
  655MOL0     H88386  10.624   6.902  11.269 -0.0292  0.7455 -1.2354
  655MOL0     H88387  10.376   6.324  11.386  2.6149  3.3657 -1.0313
  655MOL0     H88388  10.421   6.172  11.566 -0.8295  0.3303 -2.6110
  655MOL0     H88389  10.753   6.268  11.811  0.8809  1.3756  1.0580
  655MOL0     H88390  10.657   6.288  11.952  3.3362  0.2084  0.0346
  655MOL0     H88391  10.762   6.027  11.834 -1.5961 -0.5028  0.2143
  655MOL0     H88392  10.808   6.116  11.985 -2.4778  5.1667  1.5791
  655MOL0     H88393  10.632   6.071  12.105  3.4930 -1.8174  2.2347
  655MOL0     H88394  10.524   6.018  11.969  0.7965 -1.0539 -0.8229
  655MOL0     H88395  10.734   5.856  12.092 -0.7872  0.0339  0.9715
  655MOL0     H88396  10.663   5.801  11.939 -0.5853 -2.2821  1.1050
  655MOL0     H88397  10.427   5.850  12.042  1.8137  1.6255  0.2930
  655MOL0     H88398  10.516   5.867  12.196  0.7847 -1.1965  1.0438
  655MOL0     H88399  10.569   5.622  12.051 -0.6789  0.2583 -1.5567
  655MOL0     H88400  10.591   5.669  12.210  0.2767  0.1283  0.9054
  655MOL0     H88401  10.316   5.622  12.084 -3.1880  1.8657  2.6772
  655MOL0     H88402  10.328   5.696  12.241 -1.4988 -3.8109  3.6960
  655MOL0     H88403  10.292   5.437  12.251 -0.1573  0.1100  2.6676
  655MOL0     H88404  10.457   5.426  12.194  2.7636  5.0152 -4.7138
  655MOL0     H88405  10.614   6.480  11.805 -2.7744 -0.4182  0.7422
  655MOL0     H88406  10.564   6.632  11.613 -2.2981  0.5027  0.0074
  655MOL0     H88407  10.306   6.636  11.180  1.0815 -1.3576 -2.5392
  655MOL0     H88408  10.208   6.822  11.035 -0.8732  2.0136  2.5237
  655MOL0     H88409   9.704   8.076   9.548  0.9104 -1.5481  1.9711
  655MOL0     H88410   9.514   8.158   9.435  2.6798  0.7041  2.5812
  655MOL0     H88411   9.032   7.818   9.175 -3.7457 -0.9043  0.9126
  655MOL0     H88412   8.841   7.913   9.045  1.6780  0.9302 -0.9495
  655MOL0     H88413   8.805   8.348   9.058 -1.5356  1.6298 -0.2550
  655MOL0     H88414   8.669   8.302   8.943  0.1900  2.3918  0.8413
  655MOL0     H88415   8.848   8.319   8.797  0.5596  1.8479  0.8331
  655MOL0     H88416   8.854   8.149   8.839 -2.0172 -0.1825 -1.5493
  655MOL0     H88417   9.043   8.188   8.988 -1.5735 -0.2380  1.1127
  655MOL0     H88418   9.024   8.361   8.985  0.6369 -1.0089  0.9122
  655MOL0     H88419   9.163   8.176   8.791 -0.7302  0.0307 -1.6067
  655MOL0     H88420   9.066   8.309   8.720 -0.0261 -1.0923 -0.5341
  655MOL0     H88421   9.395   8.506   8.929  3.0394 -2.1459 -2.6127
  655MOL0     H88422   8.883   8.279   9.274  1.3640  1.2349 -2.2625
  655MOL0     H88423   9.099   8.162   9.509  3.6517  1.5334  0.3297
  655MOL0     H88424   9.183   8.267   9.386  0.2390 -0.5163 -0.2030
  655MOL0     H88425   9.015   8.299   9.444 -1.3808 -1.0512  3.0265
  656MOL0     O88426   8.984   0.926   5.241  0.3292  0.3871  1.0917
  656MOL0     C88427   9.100   0.959   5.202 -0.6794  0.0801  0.5199
  656MOL0     O88428   9.221   0.915   5.248 -0.1900  0.0623 -0.3036
  656MOL0     C88429   9.246   0.854   5.368 -0.8403 -0.2227  0.1753
  656MOL0     C88430   9.164   0.869   5.482  0.3037 -0.2991  0.2563
  656MOL0     C88431   9.186   0.808   5.604  0.6209  0.8023  0.1488
  656MOL0     C88432   9.303   0.740   5.627 -1.4507 -0.8868 -0.2844
  656MOL0     O88433   9.336   0.683   5.748 -0.0859  0.6393  0.1662
  656MOL0     C88434   9.327   0.540   5.737  0.4308 -0.2264  0.1361
  656MOL0     C88435   9.287   0.474   5.871 -0.2068  0.5320  0.8909
  656MOL0     C88436   9.141   0.480   5.885  0.4927  0.2548 -0.3733
  656MOL0     C88437   9.097   0.440   6.023 -0.2632  0.1309  0.5030
  656MOL0     C88438   8.942   0.488   6.054 -0.7168  0.1583  0.4824
  656MOL0     C88439   8.837   0.504   5.940 -1.2187  0.0709 -0.6330
  656MOL0     C88440   8.745   0.619   5.984 -0.4446 -0.0482  0.0957
  656MOL0     C88441   8.807   0.758   5.957  0.1634 -0.0193  0.0911
  656MOL0     N88442   8.754   0.799   5.825 -0.4483  0.1211 -0.0315
  656MOL0     C88443   8.813   0.780   5.703 -0.0569  0.1612 -0.6245
  656MOL0     C88444   8.731   0.849   5.614  0.0972  0.2184  0.4985
  656MOL0     C88445   8.745   0.883   5.468  0.3038 -0.3947 -0.3581
  656MOL0     C88446   8.764   1.026   5.453 -1.0744 -0.1620 -1.5554
  656MOL0     C88447   8.869   1.105   5.543  1.0941  0.3289  0.2872
  656MOL0     C88448   8.933   1.230   5.480  1.0627 -0.5753  0.4056
  656MOL0     O88449   8.989   1.295   5.593 -0.4528 -0.6145  0.3393
  656MOL0     C88450   8.936   1.410   5.655  0.1279 -0.2189 -0.3200
  656MOL0     C88451   8.807   1.461   5.635  0.3559 -0.2975  0.2404
  656MOL0     C88452   8.770   1.575   5.708  0.5690  0.0737  0.2758
  656MOL0     C88453   8.851   1.628   5.809 -0.0083  0.3343  0.2307
  656MOL0     C88454   8.793   1.731   5.899  0.2513 -0.7306 -0.6744
  656MOL0     O88455   8.657   1.728   5.905  0.2432  0.2204 -0.2376
  656MOL0     C88456   8.584   1.813   5.989 -0.3400  0.7408 -0.4907
  656MOL0     C88457   8.614   1.946   6.009 -0.3512  0.3872  0.8527
  656MOL0     C88458   8.549   2.025   6.102  0.0260 -0.5706 -0.0731
  656MOL0     C88459   8.439   1.974   6.168 -0.0040  0.6291  0.0226
  656MOL0     O88460   8.376   2.051   6.265  0.0457 -0.5491 -0.0192
  656MOL0     C88461   8.432   2.061   6.398 -0.9895 -0.4362  0.9683
  656MOL0     C88462   8.549   2.172   6.424 -0.0876 -0.4055 -0.6957
  656MOL0     C88463   8.512   2.310   6.354 -0.4469 -1.0695  0.4554
  656MOL0     C88464   8.392   2.374   6.421  0.2547 -0.1070  0.2243
  656MOL0     C88465   8.353   2.512   6.386 -0.3720 -0.7465  0.4226
  656MOL0     C88466   8.442   2.620   6.446 -0.8330 -0.1774 -0.6705
  656MOL0     C88467   8.454   2.742   6.354 -0.5081  0.2575 -0.1818
  656MOL0     C88468   8.592   2.745   6.286 -0.4751  0.3617 -0.7240
  656MOL0    Cl88469   8.614   2.879   6.172 -0.0801 -0.4806  0.2180
  656MOL0     C88470   8.402   1.841   6.141 -0.0161  0.5253 -0.1578
  656MOL0     C88471   8.481   1.761   6.057 -0.0637 -0.0620  0.3552
  656MOL0     O88472   8.856   1.806   5.967  0.2103  0.7182 -0.2704
  656MOL0     C88473   8.972   1.569   5.840  0.9130 -0.8326 -1.3204
  656MOL0     C88474   9.003   1.456   5.767  0.2223 -0.5056 -0.3758
  656MOL0     N88475   8.616   0.890   5.684  0.3506 -0.2375  0.3097
  656MOL0     N88476   8.639   0.863   5.808 -0.3839 -0.7245  0.3476
  656MOL0     C88477   9.388   0.727   5.516  0.8038 -1.1043  0.0586
  656MOL0     C88478   9.370   0.786   5.387  0.7515 -0.0626 -0.2581
  656MOL0     C88479   9.108   1.046   5.076  0.1285  0.0501 -0.0764
  656MOL0     C88480   9.199   1.150   5.073  0.7379  0.0513 -0.5239
  656MOL0     C88481   9.197   1.236   4.964 -0.8868  0.9651  0.5846
  656MOL0     C88482   9.130   1.214   4.850  0.0509  0.3147  0.9237
  656MOL0     O88483   9.149   1.285   4.737  0.2842 -0.3383  0.5847
  656MOL0     C88484   9.201   1.425   4.751  0.4648  1.3006 -0.6351
  656MOL0     C88485   9.204   1.459   4.603 -0.3258 -0.5328  0.0943
  656MOL0     C88486   9.273   1.602   4.609 -0.8212  0.0003  0.2376
  656MOL0     C88487   9.342   1.673   4.482  0.7937  0.4506 -0.4789
  656MOL0     C88488   9.245   1.718   4.380 -0.9190 -1.1942  0.3961
  656MOL0     C88489   9.177   1.758   4.292 -0.3327  0.2692  0.3886
  656MOL0     C88490   9.037   1.106   4.852 -1.2178 -0.5159  0.0401
  656MOL0     C88491   9.029   1.024   4.963  0.0960  1.0387 -0.0540
  656MOL0     C88492   8.930   0.910   4.961  0.2981 -0.0864  0.7257
  656MOL0     H88493   9.071   0.926   5.486  0.7061  0.4441 -0.5305
  656MOL0     H88494   9.124   0.823   5.692  1.3232 -1.6874  1.1360
  656MOL0     H88495   9.267   0.512   5.650 -0.4976 -1.2552  1.0741
  656MOL0     H88496   9.429   0.508   5.712  0.9534 -0.0425  1.8854
  656MOL0     H88497   9.330   0.530   5.955 -1.6651  2.7050  0.2699
  656MOL0     H88498   9.324   0.371   5.865  1.2783  1.1087 -1.1042
  656MOL0     H88499   9.097   0.423   5.803 -1.2560 -1.8529  1.8994
  656MOL0     H88500   9.087   0.573   5.863 -1.9819 -1.2273 -1.0259
  656MOL0     H88501   9.089   0.331   6.028 -1.1235  0.1195 -0.6763
  656MOL0     H88502   9.159   0.479   6.103  1.6306  2.4134 -1.9002
  656MOL0     H88503   8.897   0.413   6.120  0.5647 -0.5380  0.5973
  656MOL0     H88504   8.963   0.586   6.097  1.3599 -0.6916  1.5191
  656MOL0     H88505   8.887   0.515   5.844 -1.3647 -3.6743 -1.2837
  656MOL0     H88506   8.784   0.409   5.931  1.6652 -1.8282  0.6564
  656MOL0     H88507   8.703   0.599   6.083  0.5264 -2.0005  0.1669
  656MOL0     H88508   8.661   0.619   5.914 -1.9647 -1.8678  1.7882
  656MOL0     H88509   8.772   0.823   6.038 -2.3629 -1.1178 -0.0284
  656MOL0     H88510   8.915   0.747   5.947  0.2470 -0.0903  0.9838
  656MOL0     H88511   8.905   0.730   5.673  1.9968  2.8299  0.7248
  656MOL0     H88512   8.828   0.819   5.436  2.8374  2.2807  0.4672
  656MOL0     H88513   8.665   0.854   5.399 -0.3218 -2.8339  1.2166
  656MOL0     H88514   8.781   1.032   5.345 -3.2043 -1.2135 -1.9979
  656MOL0     H88515   8.664   1.069   5.468 -0.6088  0.1015  1.2735
  656MOL0     H88516   8.947   1.042   5.585  1.1955 -0.0469 -0.4438
  656MOL0     H88517   8.804   1.139   5.624  0.0118 -1.0519  0.0398
  656MOL0     H88518   8.851   1.286   5.434 -0.2555 -1.6922  1.3212
  656MOL0     H88519   9.011   1.200   5.409 -0.2330  0.7275 -1.6713
  656MOL0     H88520   8.742   1.406   5.567  0.3798 -3.2369  2.3831
  656MOL0     H88521   8.669   1.611   5.688  0.1502  0.6442  2.9865
  656MOL0     H88522   8.692   1.990   5.949 -1.4662 -0.5134 -1.3913
  656MOL0     H88523   8.584   2.125   6.127  2.2714 -1.2312 -0.3361
  656MOL0     H88524   8.345   2.091   6.458 -2.7824 -1.4877 -0.9702
  656MOL0     H88525   8.467   1.961   6.426  0.3443 -0.1937  0.2625
  656MOL0     H88526   8.563   2.185   6.532  0.4128 -1.0790 -0.6757
  656MOL0     H88527   8.631   2.112   6.385  0.4780 -0.9809  1.2806
  656MOL0     H88528   8.597   2.377   6.372 -1.3799  0.5538 -0.8728
  656MOL0     H88529   8.504   2.298   6.245  2.4683  1.1045 -0.1459
  656MOL0     H88530   8.411   2.354   6.527  0.9622  0.4574  0.2206
  656MOL0     H88531   8.306   2.311   6.398 -1.9707  3.9703 -4.4286
  656MOL0     H88532   8.254   2.508   6.434  0.3996 -2.4236  2.0092
  656MOL0     H88533   8.331   2.522   6.279 -0.8765 -1.0387  0.4921
  656MOL0     H88534   8.400   2.658   6.539  3.4137  0.6902  1.1270
  656MOL0     H88535   8.540   2.582   6.477 -1.3939 -0.0189  1.3851
  656MOL0     H88536   8.453   2.837   6.408  3.8857  1.7875 -2.3288
  656MOL0     H88537   8.377   2.749   6.276  1.5003 -0.5208 -2.3419
  656MOL0     H88538   8.667   2.745   6.365  0.1546 -0.2511 -1.3072
  656MOL0     H88539   8.618   2.650   6.237 -1.2354 -2.0007  3.0366
  656MOL0     H88540   8.310   1.813   6.193  0.6943  0.3302  1.0280
  656MOL0     H88541   8.457   1.658   6.034  0.2321  0.2060 -1.2645
  656MOL0     H88542   9.036   1.614   5.915  2.1690 -1.5520 -1.9312
  656MOL0     H88543   9.099   1.405   5.770  1.7582  2.1057 -1.5285
  656MOL0     H88544   9.472   0.661   5.535  0.6509 -1.1441  0.6009
  656MOL0     H88545   9.442   0.764   5.309 -2.2861 -0.7521 -3.1202
  656MOL0     H88546   9.245   1.191   5.162  1.1399 -1.1947 -0.1270
  656MOL0     H88547   9.255   1.323   4.996 -1.3523  0.9541  1.4779
  656MOL0     H88548   9.293   1.435   4.809  1.3009 -0.4276 -1.5763
  656MOL0     H88549   9.116   1.483   4.787 -2.2590 -0.4867 -3.6519
  656MOL0     H88550   9.102   1.475   4.566 -0.0434  0.9626 -0.0817
  656MOL0     H88551   9.248   1.382   4.539 -2.3736 -0.6738 -1.2424
  656MOL0     H88552   9.355   1.603   4.681 -0.7107 -1.2950  0.1680
  656MOL0     H88553   9.192   1.668   4.641 -0.0458  1.6731 -1.1092
  656MOL0     H88554   9.401   1.754   4.527  1.0557 -0.6324  1.1822
  656MOL0     H88555   9.409   1.596   4.444  0.8184  1.2496 -2.1779
  656MOL0     H88556   9.119   1.794   4.210  0.3695 -0.6362 -0.5328
  656MOL0     H88557   8.978   1.074   4.767  1.5732 -4.6687 -0.6178
  656MOL0     H88558   8.835   0.948   5.000  1.1304  2.8900  0.1267
  656MOL0     H88559   8.930   0.875   4.858  0.5077  2.2968 -0.1478
  656MOL0     H88560   8.967   0.828   5.023  0.3443  0.9922  2.1736
  657MOL0     O88561  11.290  10.106   0.199  1.0121  0.0063  1.0938
  657MOL0     C88562  11.195  10.186   0.181  0.0159 -0.0353 -0.5470
  657MOL0     O88563  11.201  10.322   0.154 -0.4304  1.0071 -0.3794
  657MOL0     C88564  11.319  10.382   0.178 -0.5257  0.1998 -0.0426
  657MOL0     C88565  11.417  10.395   0.079  0.9729 -0.9173  0.9386
  657MOL0     C88566  11.520  10.474   0.119  0.4510  0.3822  0.4445
  657MOL0     C88567  11.546  10.520   0.251 -0.6470 -0.3970  0.4032
  657MOL0     O88568  11.672  10.560   0.278  0.2571 -0.3068 -1.3075
  657MOL0     C88569  11.708  10.523   0.406  0.6388  0.8006 -0.2931
  657MOL0     C88570  11.868  10.522   0.396  0.1678 -0.1907  0.6026
  657MOL0     C88571  11.929  10.468   0.528  0.3568 -0.0070  0.2550
  657MOL0     C88572  12.077  10.463   0.545 -0.3400 -0.2371  0.1053
  657MOL0     C88573  12.142  10.351   0.451  0.3593 -0.6582 -1.0372
  657MOL0     C88574  12.288  10.340   0.442  0.1854  0.4446  1.4206
  657MOL0     C88575  12.347  10.462   0.367  0.3345 -0.8013  0.0419
  657MOL0     C88576  12.487  10.435   0.334 -0.1582 -0.3912  0.2493
  657MOL0     N88577  12.534  10.567   0.290 -0.4371 -0.8668 -0.1138
  657MOL0     C88578  12.513  10.615   0.162  0.4093 -0.8071  0.0203
  657MOL0     C88579  12.593  10.724   0.161  0.1291  1.5772 -0.7365
  657MOL0     C88580  12.584  10.820   0.044 -0.5381  0.3593 -0.9283
  657MOL0     C88581  12.447  10.878   0.015 -1.0337 -0.1533 -0.9601
  657MOL0     C88582  12.454  10.979  -0.102  0.5761  1.0211 -0.6732
  657MOL0     C88583  12.318  11.041  -0.141  0.3258 -0.6456  0.1647
  657MOL0     O88584  12.247  11.112  -0.047 -0.3268  0.5704 -1.6733
  657MOL0     C88585  12.134  11.186  -0.085  0.0272  0.4073  0.4792
  657MOL0     C88586  12.087  11.202  -0.210  0.0681 -0.8174  0.4978
  657MOL0     C88587  11.976  11.277  -0.240  0.5007  0.2266  0.7915
  657MOL0     C88588  11.882  11.296  -0.137 -0.1897 -0.3509 -0.9293
  657MOL0     C88589  11.751  11.341  -0.185  0.1065  0.4943 -0.1582
  657MOL0     O88590  11.658  11.362  -0.081 -0.6714 -0.5319 -0.1999
  657MOL0     C88591  11.533  11.417  -0.114  0.0803  0.5938 -0.8886
  657MOL0     C88592  11.517  11.538  -0.174  0.4517  0.2680 -0.2809
  657MOL0     C88593  11.392  11.570  -0.223  0.1311 -0.5714 -0.0890
  657MOL0     C88594  11.283  11.486  -0.210 -0.2925  1.0255 -0.2278
  657MOL0     O88595  11.179  11.535  -0.277  0.0276 -0.8785  0.4503
  657MOL0     C88596  11.051  11.474  -0.257  0.4902 -0.1635 -0.0040
  657MOL0     C88597  10.936  11.551  -0.309  0.4313  0.7410  0.0082
  657MOL0     C88598  10.945  11.698  -0.254 -0.4007 -0.4402 -0.6555
  657MOL0     C88599  10.868  11.793  -0.352  0.0902 -0.5080 -0.7196
  657MOL0     C88600  10.876  11.945  -0.310 -0.4016  0.6964  0.1186
  657MOL0     C88601  10.785  12.010  -0.410 -0.8756  0.0085 -0.1178
  657MOL0     C88602  10.784  12.163  -0.368  0.0480  0.6076  0.3987
  657MOL0     C88603  10.678  12.240  -0.439 -0.0459 -0.5203 -0.5384
  657MOL0    Cl88604  10.715  12.278  -0.610  0.1173 -0.0128  0.0226
  657MOL0     C88605  11.299  11.360  -0.153 -0.2675  0.0517  0.3565
  657MOL0     C88606  11.422  11.337  -0.089  0.5039  0.6453 -0.4757
  657MOL0     O88607  11.723  11.335  -0.306  0.7075  0.1746 -0.2287
  657MOL0     C88608  11.927  11.278  -0.005  0.4664 -0.0948 -0.2009
  657MOL0     C88609  12.057  11.233   0.023 -0.7008 -0.2185 -0.2185
  657MOL0     N88610  12.646  10.741   0.285 -0.0515  0.7342 -0.2321
  657MOL0     N88611  12.609  10.653   0.366  0.0049 -0.0024 -0.1933
  657MOL0     C88612  11.441  10.509   0.345  0.6422 -0.5643  0.0791
  657MOL0     C88613  11.326  10.445   0.308 -0.4787  0.3340  0.4105
  657MOL0     C88614  11.051  10.141   0.182 -0.6764 -0.0593  0.9128
  657MOL0     C88615  10.952  10.234   0.216 -0.4814 -0.3905  0.2777
  657MOL0     C88616  10.820  10.198   0.203  0.2267 -0.1833  0.1598
  657MOL0     C88617  10.775  10.075   0.164  1.0934 -0.7277  0.5229
  657MOL0     O88618  10.639  10.067   0.145  0.7340  0.6493  0.3982
  657MOL0     C88619  10.577   9.942   0.134 -0.1965  0.8076 -0.3661
  657MOL0     C88620  10.543   9.905  -0.001  0.0093 -0.8951  0.7201
  657MOL0     C88621  10.462  10.016  -0.069 -0.1452 -0.0576  0.1157
  657MOL0     C88622  10.323  10.043  -0.006  0.7799 -0.6725  0.5394
  657MOL0     C88623  10.247   9.929   0.034 -0.5445  0.8565 -0.2344
  657MOL0     C88624  10.181   9.826   0.059  1.2665 -1.0283 -1.4183
  657MOL0     C88625  10.866   9.984   0.132 -0.6494  0.2938  0.3492
  657MOL0     C88626  11.008  10.010   0.140 -0.3589 -0.4124  0.2269
  657MOL0     C88627  11.099   9.906   0.089 -0.0100 -0.0843  0.1671
  657MOL0     H88628  11.406  10.361  -0.024 -0.2751  0.6301  0.5196
  657MOL0     H88629  11.600  10.485   0.046  1.3518  1.7379  1.5816
  657MOL0     H88630  11.672  10.602   0.472  1.6090  0.9734  0.0512
  657MOL0     H88631  11.664  10.428   0.438  2.4958 -0.6419 -1.8017
  657MOL0     H88632  11.901  10.624   0.375 -3.6012  1.8129  3.1081
  657MOL0     H88633  11.883  10.455   0.311  0.7205 -1.0805  1.3760
  657MOL0     H88634  11.886  10.369   0.546  0.4054 -1.2899 -5.0589
  657MOL0     H88635  11.893  10.523   0.616  2.0152 -1.1668  1.7269
  657MOL0     H88636  12.102  10.568   0.528 -3.2174  1.2160  3.5426
  657MOL0     H88637  12.099  10.441   0.649  0.7342  0.3023  0.0021
  657MOL0     H88638  12.121  10.250   0.488  2.3837 -0.0887  2.0270
  657MOL0     H88639  12.107  10.375   0.351  0.6459 -2.3840 -1.5892
  657MOL0     H88640  12.327  10.352   0.543  3.8283  1.1012  0.1004
  657MOL0     H88641  12.323  10.245   0.401  0.3544  0.9651  0.2984
  657MOL0     H88642  12.338  10.546   0.436  0.4572  0.1181 -1.0529
  657MOL0     H88643  12.295  10.492   0.276 -1.8883  1.0989  1.8290
  657MOL0     H88644  12.527  10.397   0.429 -1.2814 -1.1312  0.4574
  657MOL0     H88645  12.492  10.362   0.253 -3.4317  0.3637 -0.7818
  657MOL0     H88646  12.449  10.583   0.080  0.5081 -0.4577 -0.1977
  657MOL0     H88647  12.656  10.899   0.068  0.0510 -1.0902  2.7473
  657MOL0     H88648  12.618  10.763  -0.043 -2.3764 -0.1238 -1.3891
  657MOL0     H88649  12.380  10.796  -0.012 -1.0329 -0.4372 -0.1388
  657MOL0     H88650  12.403  10.919   0.106 -1.6092 -1.5674 -0.5713
  657MOL0     H88651  12.502  10.935  -0.190  1.5798  0.8712 -0.0728
  657MOL0     H88652  12.521  11.061  -0.072  1.8401  1.4161 -4.0904
  657MOL0     H88653  12.238  10.970  -0.165 -1.9918  1.8814 -0.2338
  657MOL0     H88654  12.341  11.119  -0.214  0.3822  0.5971  1.4563
  657MOL0     H88655  12.145  11.171  -0.297 -0.4547  2.1092 -0.9992
  657MOL0     H88656  11.960  11.292  -0.346 -0.4799  1.5592  1.1035
  657MOL0     H88657  11.592  11.616  -0.175  2.9685 -1.9099  1.9392
  657MOL0     H88658  11.362  11.666  -0.263 -2.1443 -1.5425 -0.8536
  657MOL0     H88659  11.044  11.385  -0.319  1.4063  0.7409 -1.4622
  657MOL0     H88660  11.050  11.452  -0.150  1.0357  3.7093  0.9580
  657MOL0     H88661  10.918  11.540  -0.417 -0.9870 -0.6966  0.3508
  657MOL0     H88662  10.847  11.502  -0.271 -0.1301  1.5502 -0.2488
  657MOL0     H88663  10.914  11.710  -0.150  0.1304  0.7620 -0.6249
  657MOL0     H88664  11.049  11.734  -0.254 -0.7296  0.6341  1.6905
  657MOL0     H88665  10.766  11.753  -0.348  0.4885 -1.4928  2.1652
  657MOL0     H88666  10.907  11.789  -0.454 -3.0084  0.6183 -2.0640
  657MOL0     H88667  10.977  11.984  -0.324 -1.1351  1.6581 -3.6869
  657MOL0     H88668  10.853  11.968  -0.206 -1.0947  0.9773 -0.0851
  657MOL0     H88669  10.824  11.995  -0.511  2.7706 -0.8143  1.2330
  657MOL0     H88670  10.686  11.967  -0.396 -1.2027  1.3660  2.1330
  657MOL0     H88671  10.874  12.214  -0.402 -1.2792  0.9076 -3.0393
  657MOL0     H88672  10.773  12.177  -0.260 -0.7176  2.7146  0.0913
  657MOL0     H88673  10.574  12.205  -0.436 -1.4929  3.1085 -1.7183
  657MOL0     H88674  10.671  12.335  -0.386 -0.1621 -1.7635  1.8179
  657MOL0     H88675  11.223  11.283  -0.164  0.2811 -0.4937  0.3972
  657MOL0     H88676  11.452  11.246  -0.037 -1.7757  1.3646  2.3569
  657MOL0     H88677  11.856  11.297   0.075  1.1451 -3.8802  1.5316
  657MOL0     H88678  12.088  11.203   0.123  0.1261 -1.1904 -0.7563
  657MOL0     H88679  11.442  10.560   0.441 -2.3862  2.5868 -1.3143
  657MOL0     H88680  11.242  10.434   0.375 -1.7673  1.2556 -0.9876
  657MOL0     H88681  10.977  10.331   0.258  1.4973 -1.3386  1.4485
  657MOL0     H88682  10.751  10.279   0.221  1.2788  0.6083  0.7920
  657MOL0     H88683  10.485   9.940   0.192  0.5749 -0.4340  0.8751
  657MOL0     H88684  10.634   9.867   0.190 -3.3660  0.3154  2.4517
  657MOL0     H88685  10.489   9.811   0.005 -0.2524 -0.7081  1.4398
  657MOL0     H88686  10.633   9.890  -0.062  0.6930 -3.2825  2.1760
  657MOL0     H88687  10.461   9.992  -0.175 -1.8116  0.1724  0.0577
  657MOL0     H88688  10.521  10.107  -0.058 -1.2586  0.5201  1.7236
  657MOL0     H88689  10.346  10.112   0.076 -0.8735 -0.6183  0.9814
  657MOL0     H88690  10.270  10.113  -0.071  3.4059  0.1800 -0.8245
  657MOL0     H88691  10.117   9.742   0.078 -1.0264  0.6976 -1.1370
  657MOL0     H88692  10.847   9.885   0.091  0.6639  0.8900 -1.8352
  657MOL0     H88693  11.058   9.846   0.007  5.4470 -0.5884 -2.6447
  657MOL0     H88694  11.169   9.970   0.035 -1.9296  2.7318  0.7569
  657MOL0     H88695  11.153   9.848   0.163 -0.7737  1.0880  1.7201
  658MOL0     O88696   6.782   6.710   8.616 -0.0294 -0.4403 -0.2255
  658MOL0     C88697   6.682   6.639   8.582 -0.1392  0.2280 -0.8388
  658MOL0     O88698   6.690   6.525   8.497  0.0660 -0.7520  0.3062
  658MOL0     C88699   6.813   6.472   8.457 -0.1818  0.1770  0.1327
  658MOL0     C88700   6.923   6.460   8.544  0.4567  0.7858  0.5329
  658MOL0     C88701   7.039   6.402   8.511  0.3418 -0.2664  0.9093
  658MOL0     C88702   7.053   6.341   8.384 -0.3320  0.8234  0.5494
  658MOL0     O88703   7.174   6.281   8.339  0.3704 -0.3240  0.0274
  658MOL0     C88704   7.237   6.204   8.444 -0.0310 -0.4162  0.0928
  658MOL0     C88705   7.332   6.118   8.382 -1.2825  1.5275  0.8052
  658MOL0     C88706   7.413   6.033   8.480  0.9951  0.2034 -0.7475
  658MOL0     C88707   7.322   5.925   8.540  0.6356  0.4586  0.0254
  658MOL0     C88708   7.406   5.821   8.615 -0.5729  0.2351  0.0530
  658MOL0     C88709   7.499   5.870   8.731 -0.0340  0.4496 -0.0662
  658MOL0     C88710   7.646   5.897   8.682  0.9687 -0.2554 -0.4802
  658MOL0     C88711   7.738   5.931   8.800  0.2079  0.4575  0.9259
  658MOL0     N88712   7.854   6.008   8.756  0.0467  0.2323  0.9980
  658MOL0     C88713   7.931   5.978   8.648 -0.7654  0.0499 -0.2784
  658MOL0     C88714   8.012   6.092   8.629  0.6979  0.3738  0.6122
  658MOL0     C88715   8.109   6.125   8.526  0.9344  0.2114  0.4929
  658MOL0     C88716   8.047   6.235   8.422 -0.8705  0.8916 -0.7491
  658MOL0     C88717   8.162   6.286   8.334  0.2029  0.2701  1.1155
  658MOL0     C88718   8.108   6.387   8.234  0.1432  0.0454  0.5601
  658MOL0     O88719   8.023   6.340   8.140  0.3397  0.1420  0.5803
  658MOL0     C88720   8.066   6.257   8.035 -0.7463 -0.0899  0.0838
  658MOL0     C88721   7.975   6.158   7.990 -0.5397 -0.2034 -0.3566
  658MOL0     C88722   8.004   6.075   7.887 -0.0613 -0.0827  0.1404
  658MOL0     C88723   8.132   6.075   7.824 -0.2960 -0.1130 -0.6121
  658MOL0     C88724   8.172   5.992   7.719 -1.1449 -0.7147 -0.2938
  658MOL0     O88725   8.312   5.956   7.730 -0.6548  0.5385 -0.0931
  658MOL0     C88726   8.354   5.876   7.628  0.0062 -0.0546 -1.0458
  658MOL0     C88727   8.353   5.912   7.496  0.1468  0.1935  0.0411
  658MOL0     C88728   8.413   5.829   7.398 -0.2894  0.0241  0.4677
  658MOL0     C88729   8.477   5.704   7.434  0.2265 -0.2006  0.5097
  658MOL0     O88730   8.523   5.629   7.328  0.0678 -0.6783 -0.0914
  658MOL0     C88731   8.608   5.515   7.352  1.1992 -0.1597 -0.1285
  658MOL0     C88732   8.713   5.486   7.239  1.0839  0.1868 -0.1171
  658MOL0     C88733   8.660   5.501   7.092  0.1905  0.0388  0.0150
  658MOL0     C88734   8.780   5.488   6.993  0.2525  0.2562  0.5336
  658MOL0     C88735   8.742   5.532   6.839 -0.7731 -0.3845 -0.3740
  658MOL0     C88736   8.849   5.513   6.728  0.2610  0.2202 -0.3105
  658MOL0     C88737   8.874   5.371   6.691  1.5738 -0.2328 -0.1812
  658MOL0     C88738   8.945   5.349   6.559 -0.4120  0.3059  0.3571
  658MOL0    Cl88739   8.889   5.184   6.498  0.0268  0.2852 -0.6376
  658MOL0     C88740   8.489   5.667   7.570 -0.6264 -0.3920 -0.3856
  658MOL0     C88741   8.423   5.752   7.664 -0.2037 -0.0889 -0.0798
  658MOL0     O88742   8.090   5.968   7.636 -0.5508  0.8384 -0.1123
  658MOL0     C88743   8.226   6.167   7.876  1.0635  0.8612  0.6354
  658MOL0     C88744   8.193   6.268   7.970 -0.8614 -0.2952  0.2710
  658MOL0     N88745   7.978   6.185   8.724 -0.0585 -0.0423 -0.4381
  658MOL0     N88746   7.888   6.128   8.796  0.9245  0.2308 -0.1649
  658MOL0     C88747   6.945   6.341   8.300  0.4499 -0.6723 -0.3279
  658MOL0     C88748   6.828   6.402   8.337  0.1292  0.2792 -0.0672
  658MOL0     C88749   6.544   6.671   8.632 -0.9614 -0.4080  0.0098
  658MOL0     C88750   6.437   6.632   8.554  0.2300 -0.6085 -0.3564
  658MOL0     C88751   6.309   6.653   8.578  0.1685 -0.6394  0.4299
  658MOL0     C88752   6.277   6.695   8.715 -1.0756 -0.2385  0.9976
  658MOL0     O88753   6.149   6.698   8.767 -0.1126 -0.0259  0.5092
  658MOL0     C88754   6.046   6.615   8.701 -0.3135 -0.2818  0.1777
  658MOL0     C88755   5.912   6.652   8.755  0.6811  0.1971 -0.2329
  658MOL0     C88756   5.894   6.610   8.902 -0.5860 -0.0388  0.6028
  658MOL0     C88757   5.769   6.656   8.967 -0.2564  0.5409 -0.2219
  658MOL0     C88758   5.736   6.563   9.074 -0.5851  1.1241 -1.1756
  658MOL0     C88759   5.712   6.486   9.166  0.2090  0.6032  0.2575
  658MOL0     C88760   6.382   6.736   8.795 -0.4225 -0.6300  0.6075
  658MOL0     C88761   6.519   6.732   8.753  0.7241 -0.0975 -0.2910
  658MOL0     C88762   6.626   6.804   8.841 -0.2645  0.6607  0.6383
  658MOL0     H88763   6.916   6.501   8.644 -0.5545  1.1206  0.3400
  658MOL0     H88764   7.122   6.425   8.577 -0.0435  2.7240  0.4675
  658MOL0     H88765   7.295   6.271   8.509  0.8901 -0.8800 -0.2273
  658MOL0     H88766   7.164   6.151   8.505 -1.4448  5.1913  4.1036
  658MOL0     H88767   7.405   6.170   8.319  2.5820 -1.8435  2.0953
  658MOL0     H88768   7.280   6.046   8.317  3.5945 -2.1540  0.4704
  658MOL0     H88769   7.456   6.093   8.561 -0.9713 -1.4721  1.6899
  658MOL0     H88770   7.499   5.985   8.433  1.7228 -0.1380  0.8473
  658MOL0     H88771   7.246   5.968   8.605  2.2400  2.1750  0.8561
  658MOL0     H88772   7.262   5.873   8.465 -1.4136 -0.6959  2.3033
  658MOL0     H88773   7.338   5.748   8.658  1.8240 -1.6566  0.8719
  658MOL0     H88774   7.466   5.774   8.536 -0.7914  0.6570 -0.3726
  658MOL0     H88775   7.448   5.960   8.765 -0.3586  1.9300 -3.9935
  658MOL0     H88776   7.498   5.791   8.808 -1.9052 -2.0545 -2.4492
  658MOL0     H88777   7.650   5.971   8.602 -2.5799 -2.5679 -3.0972
  658MOL0     H88778   7.681   5.803   8.637  2.0081 -0.9553  1.6585
  658MOL0     H88779   7.689   5.993   8.876  2.1456  2.4678  0.6293
  658MOL0     H88780   7.783   5.840   8.840  0.0915 -0.2717 -0.5392
  658MOL0     H88781   7.922   5.885   8.592 -4.4135 -0.7171  1.2594
  658MOL0     H88782   8.196   6.168   8.574  0.0297  2.7017  0.0598
  658MOL0     H88783   8.125   6.030   8.474 -4.9135 -1.3167  0.7053
  658MOL0     H88784   7.967   6.192   8.361 -1.5616 -4.9179  3.4346
  658MOL0     H88785   8.006   6.318   8.480 -0.4977 -0.1605  1.0920
  658MOL0     H88786   8.221   6.208   8.285  1.9404  2.5566 -0.6691
  658MOL0     H88787   8.228   6.352   8.391 -0.2742  0.3753  1.5442
  658MOL0     H88788   8.190   6.442   8.186 -0.2383 -1.0405 -1.4438
  658MOL0     H88789   8.058   6.461   8.298 -2.2339 -2.5748  1.9604
  658MOL0     H88790   7.875   6.150   8.032 -0.9679  0.2151 -1.2631
  658MOL0     H88791   7.932   6.002   7.849 -0.3948  0.3755 -0.1144
  658MOL0     H88792   8.298   6.005   7.481 -1.6038  0.2797  5.2455
  658MOL0     H88793   8.404   5.863   7.295  1.5965 -2.5725 -0.6633
  658MOL0     H88794   8.676   5.531   7.436 -0.3883 -0.7886  1.3304
  658MOL0     H88795   8.549   5.424   7.367  2.1292 -1.2123 -2.3779
  658MOL0     H88796   8.783   5.570   7.242  0.9291  0.8860 -5.5672
  658MOL0     H88797   8.749   5.385   7.261  0.5487 -0.3177 -1.4883
  658MOL0     H88798   8.597   5.413   7.078  0.6837  0.1605 -4.4896
  658MOL0     H88799   8.596   5.586   7.067  1.0243  0.0317 -2.3798
  658MOL0     H88800   8.818   5.386   7.009  0.3296  0.4989  2.0207
  658MOL0     H88801   8.864   5.551   7.024 -0.2970  1.9863 -1.2818
  658MOL0     H88802   8.713   5.637   6.833 -1.8693 -0.4922  2.0565
  658MOL0     H88803   8.653   5.482   6.798  0.8693 -1.6941 -2.6196
  658MOL0     H88804   8.832   5.581   6.644 -1.6995 -0.1573 -0.2635
  658MOL0     H88805   8.943   5.546   6.774  0.6745 -0.3027 -0.7686
  658MOL0     H88806   8.789   5.302   6.699  2.9220 -2.0183 -0.7778
  658MOL0     H88807   8.933   5.334   6.776 -0.3606  2.1998  2.4472
  658MOL0     H88808   8.903   5.420   6.487 -1.8421 -0.2328  0.6342
  658MOL0     H88809   9.052   5.373   6.561 -0.8486  2.6213 -0.8849
  658MOL0     H88810   8.529   5.571   7.600  0.0429  0.3715  1.2799
  658MOL0     H88811   8.438   5.721   7.767  0.7059 -0.1728 -0.2323
  658MOL0     H88812   8.325   6.191   7.840  1.8013 -2.0793  0.4585
  658MOL0     H88813   8.257   6.340   8.019 -2.6253  0.8951  0.9258
  658MOL0     H88814   6.961   6.290   8.205  1.5144 -1.6016  0.3250
  658MOL0     H88815   6.752   6.406   8.259  2.1370  1.9534 -2.0717
  658MOL0     H88816   6.457   6.601   8.452 -0.4910 -2.9272  0.1411
  658MOL0     H88817   6.237   6.616   8.507  3.2985 -2.1494 -2.2011
  658MOL0     H88818   6.066   6.511   8.731  0.0871  0.3070  2.1337
  658MOL0     H88819   6.055   6.624   8.593  2.2792 -1.6195  0.2122
  658MOL0     H88820   5.829   6.626   8.688 -0.1737  3.9126 -0.7914
  658MOL0     H88821   5.895   6.759   8.762  1.0243  0.9242 -5.7354
  658MOL0     H88822   5.974   6.658   8.959  1.6438  1.7708 -3.5616
  658MOL0     H88823   5.913   6.503   8.904  4.6948  0.4113 -2.8968
  658MOL0     H88824   5.780   6.757   9.007 -3.0718  1.9356 -2.6173
  658MOL0     H88825   5.688   6.645   8.894 -3.7151 -2.6894  3.5762
  658MOL0     H88826   5.690   6.420   9.247  0.5997  0.6725  0.4224
  658MOL0     H88827   6.353   6.772   8.893 -0.0116 -2.0449  1.2685
  658MOL0     H88828   6.718   6.744   8.841  0.9129  2.3592 -0.7882
  658MOL0     H88829   6.666   6.900   8.807  1.2826 -0.4094 -0.7879
  658MOL0     H88830   6.588   6.808   8.943 -1.4528 -2.2172  0.3997
  659MOL0     O88831   8.836   7.674   8.957 -0.2696  0.1565  0.0986
  659MOL0     C88832   8.735   7.607   8.965 -0.3072 -0.5185 -0.1313
  659MOL0     O88833   8.628   7.652   8.909  0.1782  0.9580  0.2224
  659MOL0     C88834   8.618   7.772   8.848 -0.0253  1.0041  0.2255
  659MOL0     C88835   8.527   7.866   8.887  0.2878  0.1690  0.3639
  659MOL0     C88836   8.516   7.980   8.800  0.0133  0.3965  0.3731
  659MOL0     C88837   8.598   8.005   8.691 -1.4958 -0.6918 -0.2625
  659MOL0     O88838   8.583   8.122   8.624  0.4394 -0.5537  0.0038
  659MOL0     C88839   8.701   8.178   8.561  0.9937  0.6957 -0.0415
  659MOL0     C88840   8.665   8.321   8.562 -0.4529 -0.4363 -1.4506
  659MOL0     C88841   8.779   8.402   8.497  0.2295 -0.1272 -0.8801
  659MOL0     C88842   8.784   8.382   8.348  0.2558 -1.1805 -0.2171
  659MOL0     C88843   8.830   8.505   8.270  0.6074 -0.7382  0.0166
  659MOL0     C88844   8.902   8.457   8.144  0.7629 -0.2556  0.0855
  659MOL0     C88845   8.983   8.575   8.063  0.3086  0.8095 -0.5120
  659MOL0     C88846   9.064   8.528   7.937 -0.4342 -0.0024 -0.6018
  659MOL0     N88847   8.988   8.519   7.812 -0.1030 -0.0019 -0.1623
  659MOL0     C88848   9.024   8.445   7.702  0.1461  1.5951  0.9616
  659MOL0     C88849   8.929   8.479   7.606  0.4622 -0.3763  0.2829
  659MOL0     C88850   8.914   8.424   7.468 -0.4011  0.6158  0.1384
  659MOL0     C88851   9.022   8.446   7.375 -0.0236  0.2952  0.7323
  659MOL0     C88852   8.988   8.404   7.240  0.1636  0.2827 -0.4324
  659MOL0     C88853   8.968   8.250   7.217 -0.3025 -0.3973 -0.1719
  659MOL0     O88854   9.068   8.157   7.276 -0.2604 -0.0517 -0.3377
  659MOL0     C88855   9.143   8.092   7.179  0.7993  0.1062 -0.1304
  659MOL0     C88856   9.216   8.163   7.092 -0.2765 -0.0915  0.4264
  659MOL0     C88857   9.310   8.096   7.011  0.6696 -0.7034 -0.1268
  659MOL0     C88858   9.335   7.953   7.024  0.9081 -0.5680 -0.1543
  659MOL0     C88859   9.435   7.889   6.930 -0.3721  0.5850 -0.5220
  659MOL0     O88860   9.511   7.970   6.846 -0.8363 -0.0053  0.0740
  659MOL0     C88861   9.619   7.909   6.789  0.8210 -0.3426  0.4552
  659MOL0     C88862   9.725   7.852   6.864 -0.4374 -0.0808  0.5789
  659MOL0     C88863   9.832   7.797   6.796  0.5664  0.3577  0.1153
  659MOL0     C88864   9.845   7.787   6.661  0.5728 -0.4103 -0.0955
  659MOL0     O88865   9.950   7.721   6.601  0.0757 -0.4433  0.0684
  659MOL0     C88866  10.026   7.629   6.676  0.2472  0.5180  0.4854
  659MOL0     C88867  10.119   7.545   6.585 -0.8668 -0.0031 -1.0191
  659MOL0     C88868  10.253   7.515   6.656 -0.2235  0.0906 -0.5699
  659MOL0     C88869  10.224   7.411   6.763 -0.9653 -0.6249 -0.6423
  659MOL0     C88870  10.365   7.357   6.807  0.2763  0.0280 -0.8684
  659MOL0     C88871  10.329   7.270   6.935 -0.6522  0.2317  0.2699
  659MOL0     C88872  10.460   7.232   7.010 -0.2628 -0.4282  0.5625
  659MOL0     C88873  10.432   7.099   7.086  0.1570  0.0752  0.0296
  659MOL0    Cl88874  10.303   7.107   7.201 -0.1875  0.2536 -0.0639
  659MOL0     C88875   9.735   7.836   6.588 -0.1439  0.5753 -0.3569
  659MOL0     C88876   9.626   7.903   6.653  0.5225  0.1259 -0.0206
  659MOL0     O88877   9.441   7.763   6.936  0.2463  0.2881 -0.4027
  659MOL0     C88878   9.261   7.889   7.119  0.7758 -0.0534  0.4007
  659MOL0     C88879   9.157   7.955   7.196  0.0634  0.3437  1.3336
  659MOL0     N88880   8.861   8.589   7.661  0.5411  0.4156 -0.6189
  659MOL0     N88881   8.906   8.615   7.779  0.4662  0.3072  0.6966
  659MOL0     C88882   8.699   7.908   8.660  0.3143 -1.0962 -0.3581
  659MOL0     C88883   8.696   7.793   8.732 -0.1075  0.9620  0.6584
  659MOL0     C88884   8.719   7.473   9.034 -0.8609  0.6731  1.1331
  659MOL0     C88885   8.598   7.399   8.983  0.4191 -0.0474 -0.4646
  659MOL0     C88886   8.572   7.276   9.047  0.8126  0.8126 -0.5449
  659MOL0     C88887   8.666   7.219   9.132  0.6515  0.2271  0.2450
  659MOL0     O88888   8.632   7.091   9.172  0.3082  0.1145 -0.9480
  659MOL0     C88889   8.628   7.083   9.317  1.1857 -0.8370 -0.5800
  659MOL0     C88890   8.734   6.993   9.390 -0.9253 -0.8950 -0.1582
  659MOL0     C88891   8.755   6.872   9.304 -1.7433  0.2968  0.1124
  659MOL0     C88892   8.856   6.766   9.371 -0.0076 -0.7004  0.2776
  659MOL0     C88893   8.823   6.728   9.511 -0.3684 -0.3056  0.4765
  659MOL0     C88894   8.791   6.684   9.619  0.5499 -0.1665 -0.1711
  659MOL0     C88895   8.774   7.295   9.181  0.5229  1.0730 -0.5001
  659MOL0     C88896   8.810   7.422   9.132  0.6239 -0.1325  0.1729
  659MOL0     C88897   8.948   7.481   9.182 -0.0381  0.1180 -1.5350
  659MOL0     H88898   8.467   7.852   8.976  0.3834 -1.9740  0.1383
  659MOL0     H88899   8.443   8.057   8.825 -1.4253 -1.0050  0.6295
  659MOL0     H88900   8.790   8.161   8.622  2.0456 -2.5100 -2.2085
  659MOL0     H88901   8.714   8.137   8.460 -4.2550 -1.6329 -0.0941
  659MOL0     H88902   8.673   8.365   8.662 -1.8040 -0.1428 -1.4531
  659MOL0     H88903   8.567   8.330   8.515 -1.6011  0.3829  0.9017
  659MOL0     H88904   8.877   8.374   8.537  0.0074 -2.6251 -1.9152
  659MOL0     H88905   8.748   8.506   8.511 -1.0199 -0.2309 -2.5146
  659MOL0     H88906   8.831   8.285   8.330  0.3955 -0.6448 -3.3312
  659MOL0     H88907   8.680   8.362   8.318 -0.5319  1.0174  0.7889
  659MOL0     H88908   8.750   8.575   8.247  1.6550  0.3036 -0.5845
  659MOL0     H88909   8.904   8.549   8.338 -0.9974  3.1312 -0.4930
  659MOL0     H88910   8.981   8.387   8.171  1.6216  0.7300  0.1989
  659MOL0     H88911   8.830   8.406   8.079 -2.7204  4.2723 -0.1071
  659MOL0     H88912   9.050   8.612   8.142 -0.0922 -1.2663  0.9089
  659MOL0     H88913   8.916   8.658   8.038  0.3615  0.8758 -0.4379
  659MOL0     H88914   9.141   8.605   7.929 -0.8997  1.2755  4.0877
  659MOL0     H88915   9.108   8.434   7.970 -0.5422  0.6532  1.6152
  659MOL0     H88916   9.104   8.376   7.679  2.0193  2.4065  4.3731
  659MOL0     H88917   8.899   8.315   7.473 -1.1791  0.7281  0.5284
  659MOL0     H88918   8.815   8.452   7.430 -0.3977 -2.1072 -2.2192
  659MOL0     H88919   9.036   8.554   7.369 -1.0115  0.4373  0.8959
  659MOL0     H88920   9.121   8.415   7.412 -0.7266 -1.7208  1.0512
  659MOL0     H88921   9.067   8.428   7.169  1.0957  2.1325  1.1411
  659MOL0     H88922   8.898   8.460   7.212  0.5989  2.4662  2.1408
  659MOL0     H88923   8.961   8.235   7.108 -2.4062 -0.7002 -0.0216
  659MOL0     H88924   8.874   8.224   7.265 -0.1594 -1.6963 -0.5357
  659MOL0     H88925   9.194   8.269   7.082  1.4881  0.5043  2.4428
  659MOL0     H88926   9.375   8.161   6.953  1.8255 -0.2002  1.6360
  659MOL0     H88927   9.734   7.869   6.971 -0.6714  2.7858  0.2085
  659MOL0     H88928   9.927   7.781   6.846  2.1531  2.1978 -2.1209
  659MOL0     H88929  10.092   7.696   6.732  2.9461  0.3093 -2.2213
  659MOL0     H88930   9.967   7.559   6.736 -0.0548 -1.2607 -1.7699
  659MOL0     H88931  10.070   7.453   6.552 -0.6636  0.0169 -1.3787
  659MOL0     H88932  10.147   7.604   6.498 -0.3859  1.1967 -0.0883
  659MOL0     H88933  10.324   7.480   6.580  3.2087  2.0158  1.5059
  659MOL0     H88934  10.290   7.608   6.700 -3.4085  2.1124 -1.8448
  659MOL0     H88935  10.161   7.325   6.739 -0.3943 -0.8959 -1.2082
  659MOL0     H88936  10.173   7.453   6.849  3.7205  2.3517  1.0586
  659MOL0     H88937  10.426   7.440   6.845 -2.0437  1.1752  0.5792
  659MOL0     H88938  10.418   7.302   6.729  0.9711 -2.2700  1.0726
  659MOL0     H88939  10.246   7.305   6.998 -0.0015 -1.3752  2.1123
  659MOL0     H88940  10.298   7.173   6.895 -3.7988  1.5973 -0.9182
  659MOL0     H88941  10.493   7.319   7.068 -2.1693  1.6326 -1.2765
  659MOL0     H88942  10.535   7.200   6.937 -1.9842 -1.4669 -0.8344
  659MOL0     H88943  10.406   7.020   7.014  1.4528  1.5352 -2.1918
  659MOL0     H88944  10.517   7.063   7.144  1.7442 -0.6060 -2.5350
  659MOL0     H88945   9.726   7.827   6.480 -1.2486  1.8418 -0.3951
  659MOL0     H88946   9.553   7.954   6.591 -0.6572 -1.2609  0.1704
  659MOL0     H88947   9.268   7.782   7.140  2.8739 -0.1913 -0.7187
  659MOL0     H88948   9.093   7.906   7.269 -1.2263  2.1955  1.5136
  659MOL0     H88949   8.771   7.935   8.583  0.3598 -0.8375 -0.2260
  659MOL0     H88950   8.768   7.717   8.701 -0.7190  0.2764  0.8938
  659MOL0     H88951   8.529   7.426   8.904 -2.1270  0.7751  1.8821
  659MOL0     H88952   8.494   7.211   9.009  1.7455 -0.0212 -1.0889
  659MOL0     H88953   8.533   7.041   9.351  2.7256 -2.8695  1.5732
  659MOL0     H88954   8.626   7.179   9.369  1.7121 -0.8793 -0.4764
  659MOL0     H88955   8.694   6.970   9.489 -0.9657 -0.1434  0.0041
  659MOL0     H88956   8.824   7.048   9.417  0.0811 -2.3608 -0.4035
  659MOL0     H88957   8.805   6.906   9.213 -0.6321  1.4013  1.1005
  659MOL0     H88958   8.668   6.814   9.271 -0.0950 -2.1011 -0.2917
  659MOL0     H88959   8.863   6.675   9.310 -0.7537  0.6779 -1.9781
  659MOL0     H88960   8.956   6.807   9.357 -0.1791 -1.2735 -3.7526
  659MOL0     H88961   8.770   6.628   9.708 -6.1242 -1.2623 -1.9321
  659MOL0     H88962   8.849   7.250   9.246 -2.5539 -2.2377  1.0938
  659MOL0     H88963   9.028   7.479   9.108  1.1879 -0.6412 -0.2434
  659MOL0     H88964   8.941   7.585   9.215 -0.2372 -0.6881  1.2165
  659MOL0     H88965   8.982   7.425   9.270 -0.4430  2.1126 -0.0394
  660MOL0     O88966   6.735   9.158  10.776  0.9170  0.2504 -1.1202
  660MOL0     C88967   6.622   9.119  10.772 -0.0654  0.5974  0.0380
  660MOL0     O88968   6.560   9.040  10.881  0.7113  0.4305 -0.3591
  660MOL0     C88969   6.630   8.943  10.961 -0.1275 -0.1294 -0.0672
  660MOL0     C88970   6.565   8.878  11.068  0.5435  0.6188 -0.6874
  660MOL0     C88971   6.634   8.783  11.139  0.3871  0.1749 -0.2819
  660MOL0     C88972   6.768   8.753  11.130  0.0450 -0.5377  0.2336
  660MOL0     O88973   6.818   8.656  11.213  0.8357 -0.4294  0.9139
  660MOL0     C88974   6.940   8.590  11.192 -0.3304 -0.5432  0.2206
  660MOL0     C88975   6.927   8.499  11.064  0.4286 -1.9108 -0.4316
  660MOL0     C88976   6.828   8.386  11.082 -0.1963  0.2927  0.2483
  660MOL0     C88977   6.835   8.293  10.964  0.9600  0.0843  0.4489
  660MOL0     C88978   6.747   8.329  10.846 -0.8869 -0.2516 -0.2104
  660MOL0     C88979   6.615   8.252  10.851  0.8980 -0.2120  0.2200
  660MOL0     C88980   6.527   8.243  10.726  0.8373  0.2004  1.3740
  660MOL0     C88981   6.374   8.212  10.757  0.1031  0.1240  0.1784
  660MOL0     N88982   6.361   8.078  10.818  0.3117 -0.1295  0.1955
  660MOL0     C88983   6.344   7.954  10.746 -0.4878  0.8268 -1.0295
  660MOL0     C88984   6.362   7.864  10.850 -0.1437  0.5803 -0.2505
  660MOL0     C88985   6.374   7.721  10.834 -0.3069  1.0604  0.4999
  660MOL0     C88986   6.512   7.664  10.800 -0.1226  0.4540 -0.0330
  660MOL0     C88987   6.508   7.515  10.754 -0.3363  0.4778  0.5460
  660MOL0     C88988   6.623   7.434  10.829  0.2322 -0.8462 -0.5649
  660MOL0     O88989   6.639   7.316  10.749 -1.7324 -0.3813  0.6582
  660MOL0     C88990   6.595   7.195  10.791  1.1793 -0.3669  0.6902
  660MOL0     C88991   6.636   7.082  10.720 -0.8918  0.1471 -0.3174
  660MOL0     C88992   6.598   6.948  10.754  0.2930 -0.5702 -0.2387
  660MOL0     C88993   6.499   6.932  10.848  0.2946 -0.2681  0.4421
  660MOL0     C88994   6.438   6.801  10.855 -0.5073 -0.0065  0.8035
  660MOL0     O88995   6.509   6.703  10.790  0.3900  0.2194 -0.0104
  660MOL0     C88996   6.466   6.574  10.787 -0.0968 -0.5379  0.3898
  660MOL0     C88997   6.547   6.488  10.860  0.1240 -0.2143  0.3508
  660MOL0     C88998   6.512   6.356  10.880  0.3741 -1.2285  0.0062
  660MOL0     C88999   6.397   6.304  10.821 -0.2911 -0.8422  0.4015
  660MOL0     O89000   6.374   6.176  10.864  0.2259 -0.5991 -0.3174
  660MOL0     C89001   6.266   6.108  10.805  0.2309  0.1777 -0.3758
  660MOL0     C89002   6.290   5.956  10.818  1.0805  0.3721  0.7813
  660MOL0     C89003   6.279   5.907  10.956 -0.2011  0.2462 -0.7989
  660MOL0     C89004   6.321   5.757  10.962 -1.3132 -0.8014 -0.3823
  660MOL0     C89005   6.199   5.664  10.916 -0.4912  0.8225  0.9067
  660MOL0     C89006   6.227   5.514  10.953  0.3700  0.7872 -0.7473
  660MOL0     C89007   6.108   5.418  10.911  1.1198  0.4558 -0.2972
  660MOL0     C89008   6.116   5.287  10.990  0.4174 -0.9844  0.3270
  660MOL0    Cl89009   6.251   5.175  10.943 -0.3816  0.1637  0.2736
  660MOL0     C89010   6.306   6.392  10.751  0.1818  0.1081 -0.7415
  660MOL0     C89011   6.341   6.527  10.741  0.2677  0.9571  0.2025
  660MOL0     O89012   6.335   6.782  10.921 -0.6636 -0.1353 -1.0464
  660MOL0     C89013   6.451   7.043  10.910 -1.3648 -0.7776 -0.2488
  660MOL0     C89014   6.485   7.175  10.874 -0.9946 -0.7047 -0.2004
  660MOL0     N89015   6.380   7.940  10.968 -0.2624  0.9337 -0.2119
  660MOL0     N89016   6.382   8.061  10.949  0.6538 -0.4482 -0.1754
  660MOL0     C89017   6.836   8.821  11.026 -0.1569 -0.2688  0.1102
  660MOL0     C89018   6.771   8.916  10.947  0.5460  0.2196 -0.7489
  660MOL0     C89019   6.533   9.117  10.652  0.6834 -0.3756 -0.0007
  660MOL0     C89020   6.460   8.997  10.620  0.4394 -0.6824  0.5294
  660MOL0     C89021   6.392   8.993  10.493  0.6015 -0.5183 -1.0886
  660MOL0     C89022   6.387   9.107  10.404 -0.1898  0.2236 -1.2424
  660MOL0     O89023   6.322   9.111  10.285  0.0747  0.8371 -0.2798
  660MOL0     C89024   6.184   9.088  10.304  0.7401 -0.2010  0.9904
  660MOL0     C89025   6.118   9.117  10.169  0.0238 -0.0173 -0.7271
  660MOL0     C89026   6.129   9.017  10.065  0.4854 -0.2174 -0.2014
  660MOL0     C89027   6.249   9.044   9.966 -0.0694 -0.2181  0.8341
  660MOL0     C89028   6.276   8.931   9.868  0.1247  0.0252 -0.5630
  660MOL0     C89029   6.310   8.857   9.779  0.3363  0.0082  0.6626
  660MOL0     C89030   6.469   9.214  10.446  0.2786  0.5903  1.1987
  660MOL0     C89031   6.538   9.225  10.561  1.3443  0.1670 -0.5246
  660MOL0     C89032   6.637   9.333  10.576  0.4744  0.4610 -0.7890
  660MOL0     H89033   6.460   8.903  11.082  0.7620 -0.4180  5.0506
  660MOL0     H89034   6.585   8.723  11.215  2.4116  0.0400  0.9825
  660MOL0     H89035   7.022   8.657  11.166  0.0544  0.0243  2.6607
  660MOL0     H89036   6.964   8.541  11.287  1.3730  0.8623  0.5629
  660MOL0     H89037   7.028   8.460  11.053  3.3338  3.9352  1.1008
  660MOL0     H89038   6.899   8.554  10.974  0.3131  1.4334  1.4603
  660MOL0     H89039   6.722   8.411  11.094 -2.1640 -5.1768 -2.3647
  660MOL0     H89040   6.853   8.348  11.181  0.5194  1.6173  0.6049
  660MOL0     H89041   6.938   8.289  10.930  0.6714  1.2581 -0.6330
  660MOL0     H89042   6.800   8.195  10.998 -2.6630  1.5286  1.3458
  660MOL0     H89043   6.729   8.437  10.838 -2.4732 -0.5529 -1.0794
  660MOL0     H89044   6.793   8.302  10.751 -2.7934  0.2952 -1.3464
  660MOL0     H89045   6.649   8.149  10.861  0.2367 -0.3449  1.2347
  660MOL0     H89046   6.563   8.266  10.946  0.3813 -2.4656  0.3152
  660MOL0     H89047   6.556   8.167  10.653 -1.9836  0.3522 -0.0280
  660MOL0     H89048   6.539   8.338  10.673 -2.3260  0.1117  0.3277
  660MOL0     H89049   6.333   8.276  10.835 -1.1580 -1.7790  1.1446
  660MOL0     H89050   6.301   8.204  10.676 -4.9810  1.8066  4.0706
  660MOL0     H89051   6.334   7.928  10.641 -2.8960 -1.7183 -0.3143
  660MOL0     H89052   6.342   7.669  10.926 -1.4917  0.0802 -0.4164
  660MOL0     H89053   6.303   7.682  10.760  2.0330 -0.8058 -0.8829
  660MOL0     H89054   6.551   7.729  10.721 -4.3874  5.4409  1.4405
  660MOL0     H89055   6.576   7.659  10.888 -1.4659  0.2428  0.9515
  660MOL0     H89056   6.518   7.513  10.645  1.5925 -0.9350  0.6999
  660MOL0     H89057   6.404   7.486  10.770 -1.0741  2.8259  0.3729
  660MOL0     H89058   6.592   7.415  10.932  1.0548  0.2638 -0.1080
  660MOL0     H89059   6.711   7.498  10.834 -0.7102  0.5741  5.4974
  660MOL0     H89060   6.711   7.079  10.642  0.6889  0.1289  1.1614
  660MOL0     H89061   6.638   6.862  10.700 -2.0509 -2.0394  0.2096
  660MOL0     H89062   6.630   6.527  10.917 -0.2450  2.2318 -0.6762
  660MOL0     H89063   6.571   6.298  10.951  0.1879 -1.2471  0.1445
  660MOL0     H89064   6.180   6.142  10.863 -0.7792 -1.7183 -0.7091
  660MOL0     H89065   6.255   6.131  10.698  1.8505 -1.2129 -0.8885
  660MOL0     H89066   6.234   5.896  10.746  1.9589  2.5112 -1.8745
  660MOL0     H89067   6.395   5.939  10.792  0.5155  1.2486 -2.5747
  660MOL0     H89068   6.351   5.968  11.012  2.1611 -2.2594 -0.9031
  660MOL0     H89069   6.182   5.922  11.005  0.7577  1.0205  0.9455
  660MOL0     H89070   6.333   5.743  11.070 -3.6483  1.0981  0.2304
  660MOL0     H89071   6.407   5.738  10.897  0.9891 -0.5781  2.4121
  660MOL0     H89072   6.171   5.670  10.811  3.6701  1.3708 -0.3644
  660MOL0     H89073   6.106   5.691  10.966 -0.4079 -0.4691  1.8181
  660MOL0     H89074   6.322   5.480  10.912 -0.2658 -1.0747 -0.7460
  660MOL0     H89075   6.229   5.516  11.063 -1.8789 -1.5336 -0.5655
  660MOL0     H89076   6.100   5.405  10.803  1.2746 -0.0757 -0.2516
  660MOL0     H89077   6.017   5.466  10.948  1.3053 -0.5747  1.6683
  660MOL0     H89078   6.137   5.329  11.089 -2.7088  1.1384  0.2277
  660MOL0     H89079   6.022   5.230  10.993  0.9001 -2.1266 -2.8877
  660MOL0     H89080   6.215   6.353  10.707 -0.6880  0.7488  0.4376
  660MOL0     H89081   6.277   6.609  10.709  0.0475  0.1640 -1.5592
  660MOL0     H89082   6.379   7.023  10.988 -0.1326  0.2960  1.2244
  660MOL0     H89083   6.432   7.258  10.920 -0.2524 -0.2398 -0.1686
  660MOL0     H89084   6.944   8.816  11.018  0.0932  0.3370  2.3716
  660MOL0     H89085   6.828   8.979  10.880 -1.3595  1.3681 -1.3920
  660MOL0     H89086   6.450   8.913  10.687 -0.4481  0.3847  1.7911
  660MOL0     H89087   6.342   8.899  10.469 -1.0655 -0.0756  0.4069
  660MOL0     H89088   6.158   9.155  10.386 -2.9006 -0.8602  0.5271
  660MOL0     H89089   6.161   8.984  10.329 -0.0661 -0.0581  0.8650
  660MOL0     H89090   6.155   9.211  10.125  1.9441 -1.3696 -2.2019
  660MOL0     H89091   6.011   9.123  10.188 -0.3540 -1.1032 -2.3006
  660MOL0     H89092   6.039   9.019  10.004  1.5237 -0.5218 -1.8175
  660MOL0     H89093   6.136   8.922  10.120 -1.0505  0.3537  1.0428
  660MOL0     H89094   6.221   9.130   9.903  0.0842 -0.8743 -0.1557
  660MOL0     H89095   6.339   9.082  10.015  0.3090  1.0368 -0.7229
  660MOL0     H89096   6.345   8.797   9.698 -0.4127  1.7302 -1.0039
  660MOL0     H89097   6.499   9.291  10.375  0.7160 -0.4015  0.2903
  660MOL0     H89098   6.622   9.422  10.515  0.7003  0.4171 -0.9076
  660MOL0     H89099   6.654   9.368  10.679  1.9539 -0.0481 -0.8470
  660MOL0     H89100   6.729   9.286  10.540  0.4026  0.3965 -0.8876
  661MOL0     O89101   7.403  11.395   1.588 -0.5600 -0.4008  0.1309
  661MOL0     C89102   7.326  11.349   1.500  0.4574 -0.4344  0.4869
  661MOL0     O89103   7.340  11.353   1.365  0.7558  0.1616 -0.3448
  661MOL0     C89104   7.437  11.433   1.315  0.6357 -0.5583  0.2401
  661MOL0     C89105   7.571  11.400   1.327 -0.3932 -0.2832  0.3166
  661MOL0     C89106   7.662  11.469   1.251 -0.0915  0.3366  0.1928
  661MOL0     C89107   7.624  11.595   1.192  1.1839  0.0209 -0.2265
  661MOL0     O89108   7.712  11.670   1.119 -0.6094  0.1960 -0.7662
  661MOL0     C89109   7.843  11.620   1.094 -0.1878  0.1462 -0.5156
  661MOL0     C89110   7.918  11.739   1.039 -0.3128  0.4635  0.2491
  661MOL0     C89111   8.042  11.710   0.967 -0.4699  0.9813 -0.2234
  661MOL0     C89112   8.137  11.601   1.021 -0.2146 -0.6195 -1.0997
  661MOL0     C89113   8.191  11.650   1.157  0.1755  0.5917  0.1346
  661MOL0     C89114   8.273  11.785   1.142  0.1509  0.1248  0.6363
  661MOL0     C89115   8.358  11.810   1.272  0.2398  0.6324  0.1550
  661MOL0     C89116   8.422  11.939   1.252  0.2154  0.1301 -0.1925
  661MOL0     N89117   8.473  11.993   1.383  0.5509 -0.0935 -0.4018
  661MOL0     C89118   8.606  12.028   1.410 -1.0147  0.2544  0.0212
  661MOL0     C89119   8.600  12.082   1.536 -0.0093  0.3277  1.0396
  661MOL0     C89120   8.709  12.123   1.623  0.1899  0.0299  0.0424
  661MOL0     C89121   8.827  12.017   1.616 -0.2304  0.2056 -0.3686
  661MOL0     C89122   8.870  11.963   1.752  1.5049 -0.3265  0.7846
  661MOL0     C89123   8.980  12.054   1.824 -0.2408 -0.7352 -0.3972
  661MOL0     O89124   9.091  11.987   1.893 -0.8826 -0.6681  0.4303
  661MOL0     C89125   9.052  11.938   2.022 -0.2278  0.3253  0.2587
  661MOL0     C89126   9.160  11.895   2.098  0.2488 -0.4802 -0.1223
  661MOL0     C89127   9.133  11.840   2.227 -0.1265  0.9323  0.9230
  661MOL0     C89128   9.006  11.807   2.274 -0.3788 -1.0227 -0.4670
  661MOL0     C89129   8.971  11.724   2.401  0.2900  0.0099  0.8439
  661MOL0     O89130   8.839  11.735   2.445  0.9966  0.2361 -0.0277
  661MOL0     C89131   8.789  11.659   2.543  0.6405  1.2896 -1.1172
  661MOL0     C89132   8.756  11.709   2.671 -1.3083 -0.7821 -0.4977
  661MOL0     C89133   8.702  11.635   2.769  0.2584  0.8428 -0.2942
  661MOL0     C89134   8.672  11.503   2.746  0.0025 -0.1310 -0.0952
  661MOL0     O89135   8.626  11.438   2.850  0.7207 -0.1605 -0.8753
  661MOL0     C89136   8.684  11.314   2.890 -0.2610 -0.3888  0.4604
  661MOL0     C89137   8.601  11.267   3.003 -0.4387 -0.2907  0.8582
  661MOL0     C89138   8.688  11.172   3.079  0.5622 -0.2582 -0.2890
  661MOL0     C89139   8.591  11.070   3.166  0.0672 -0.8219 -0.1297
  661MOL0     C89140   8.675  10.950   3.223  0.0927 -0.2071 -0.7536
  661MOL0     C89141   8.722  10.854   3.106 -0.2003  0.3475  0.9915
  661MOL0     C89142   8.780  10.719   3.154  0.8689  0.7042  0.4821
  661MOL0     C89143   8.905  10.731   3.247  0.7745 -1.0036 -0.7040
  661MOL0    Cl89144   9.024  10.855   3.194  0.3060 -0.1218  0.2345
  661MOL0     C89145   8.707  11.447   2.628 -0.9790  0.8661  0.4536
  661MOL0     C89146   8.767  11.519   2.526 -0.4920 -0.1805  0.4025
  661MOL0     O89147   9.064  11.649   2.444  0.2038 -0.4071  0.4870
  661MOL0     C89148   8.902  11.865   2.195  1.2902 -0.6183 -0.9069
  661MOL0     C89149   8.927  11.926   2.075  0.5374 -1.0692  0.3441
  661MOL0     N89150   8.465  12.091   1.574 -0.3073  0.0840  0.3070
  661MOL0     N89151   8.387  12.056   1.483 -0.5689  0.3351  0.1825
  661MOL0     C89152   7.492  11.630   1.188 -0.1055  0.2877 -0.9820
  661MOL0     C89153   7.397  11.541   1.239  0.5424 -0.1288  0.1545
  661MOL0     C89154   7.194  11.295   1.554 -1.0650  0.6562 -0.0208
  661MOL0     C89155   7.195  11.260   1.701  0.4120 -0.0314 -0.5418
  661MOL0     C89156   7.072  11.214   1.760  0.5976 -1.0756  0.0624
  661MOL0     C89157   6.948  11.214   1.689  0.2296 -0.0092 -0.0789
  661MOL0     O89158   6.822  11.190   1.740 -0.6960  1.0656 -0.4405
  661MOL0     C89159   6.838  11.117   1.859  0.6076  0.3650 -0.9802
  661MOL0     C89160   6.689  11.078   1.893 -0.2223 -0.4524  1.3444
  661MOL0     C89161   6.660  11.087   2.040  0.6976 -0.5687  0.1968
  661MOL0     C89162   6.510  11.088   2.079  0.3875  0.5492  0.0730
  661MOL0     C89163   6.487  11.091   2.225 -0.7457 -0.4505 -1.2034
  661MOL0     C89164   6.467  11.074   2.344  0.7690 -0.1065  0.0922
  661MOL0     C89165   6.955  11.251   1.554 -0.0147 -0.5012  0.9522
  661MOL0     C89166   7.074  11.295   1.486  0.4342 -0.0144  0.0482
  661MOL0     C89167   7.034  11.363   1.357 -0.2781  0.7672 -0.5242
  661MOL0     H89168   7.604  11.308   1.374 -1.9759 -0.0488  1.9706
  661MOL0     H89169   7.762  11.426   1.244 -0.9155 -2.5308  3.2852
  661MOL0     H89170   7.894  11.590   1.186 -1.4492  0.9549  0.4770
  661MOL0     H89171   7.843  11.537   1.023  1.0274 -0.3096 -0.0094
  661MOL0     H89172   7.947  11.799   1.126 -0.3932  0.9135 -0.0357
  661MOL0     H89173   7.850  11.805   0.985  0.3261 -0.5660 -1.9397
  661MOL0     H89174   8.103  11.798   0.945  0.3014  0.4778 -0.1370
  661MOL0     H89175   7.997  11.668   0.877  0.5865  1.7993 -1.1575
  661MOL0     H89176   8.096  11.501   1.038 -2.8782  0.4983 -0.5168
  661MOL0     H89177   8.220  11.592   0.950 -0.3273 -1.4130 -1.1380
  661MOL0     H89178   8.104  11.663   1.222  0.1612 -1.8846  0.6973
  661MOL0     H89179   8.262  11.575   1.193  1.7958  2.3019  0.6740
  661MOL0     H89180   8.338  11.780   1.054 -0.3655  0.1110  0.2502
  661MOL0     H89181   8.216  11.878   1.127  4.0135  2.8339  1.2433
  661MOL0     H89182   8.447  11.747   1.265 -0.5457 -0.3451 -1.9937
  661MOL0     H89183   8.299  11.800   1.363  2.3261 -0.5319  1.4637
  661MOL0     H89184   8.505  11.921   1.183 -0.1761 -1.2350 -0.3307
  661MOL0     H89185   8.354  12.013   1.208  0.4614  1.4791  1.5905
  661MOL0     H89186   8.697  12.003   1.356 -0.9183 -2.5869  1.3381
  661MOL0     H89187   8.753  12.213   1.579  0.8700 -1.0327 -1.5487
  661MOL0     H89188   8.682  12.147   1.726 -1.2482  0.0805 -0.3284
  661MOL0     H89189   8.783  11.928   1.570 -1.0497  1.4551 -2.1191
  661MOL0     H89190   8.909  12.055   1.555 -0.2041  1.3568  0.3563
  661MOL0     H89191   8.921  11.870   1.724  2.3652  0.4525 -0.3101
  661MOL0     H89192   8.783  11.935   1.812  1.0391 -2.7762 -0.8845
  661MOL0     H89193   8.939  12.138   1.882  0.6717 -0.1864 -0.5250
  661MOL0     H89194   9.024  12.111   1.742 -0.7449  0.6106  0.2353
  661MOL0     H89195   9.260  11.899   2.056 -0.4262  0.3788 -1.7414
  661MOL0     H89196   9.210  11.783   2.279  2.8748  2.2942 -1.6772
  661MOL0     H89197   8.768  11.814   2.697 -1.3024 -1.6891  3.9898
  661MOL0     H89198   8.674  11.672   2.867  0.5673  0.6027 -0.1160
  661MOL0     H89199   8.671  11.241   2.809 -2.2152 -1.0701  1.3255
  661MOL0     H89200   8.793  11.323   2.893  0.0329 -1.7320 -2.5649
  661MOL0     H89201   8.568  11.346   3.070  0.5243  0.3668  0.5901
  661MOL0     H89202   8.517  11.223   2.949 -0.8410  4.7714 -3.4371
  661MOL0     H89203   8.752  11.109   3.017 -2.1682 -1.6790 -1.8324
  661MOL0     H89204   8.763  11.223   3.141  1.1335  0.3783 -1.4792
  661MOL0     H89205   8.511  11.031   3.103 -3.5786  1.8869  2.4029
  661MOL0     H89206   8.527  11.127   3.233 -0.8394  0.3240 -1.8988
  661MOL0     H89207   8.617  10.894   3.296  2.4050 -1.5511  0.1688
  661MOL0     H89208   8.762  10.997   3.272  0.2017  0.2988 -1.4165
  661MOL0     H89209   8.641  10.823   3.040 -1.7856  0.5565  2.7620
  661MOL0     H89210   8.800  10.898   3.043 -2.2550  1.1175 -1.1483
  661MOL0     H89211   8.807  10.657   3.068 -1.2533 -1.1939  1.0791
  661MOL0     H89212   8.700  10.663   3.203  0.2885  0.2118 -0.9765
  661MOL0     H89213   8.868  10.755   3.348 -2.1259  0.9478 -2.0862
  661MOL0     H89214   8.950  10.632   3.254  2.0248 -0.3500  1.7763
  661MOL0     H89215   8.690  11.342   2.608 -0.1751  0.8473 -0.1565
  661MOL0     H89216   8.795  11.463   2.438  2.8465 -1.0493  1.8785
  661MOL0     H89217   8.803  11.872   2.238  3.0263  1.9292  3.2381
  661MOL0     H89218   8.835  11.959   2.028 -0.2324  0.3823  2.6755
  661MOL0     H89219   7.461  11.720   1.136 -1.5300  0.3595 -0.0620
  661MOL0     H89220   7.293  11.570   1.227  0.8151 -0.1737 -2.8663
  661MOL0     H89221   7.293  11.262   1.748  0.2755  2.1825 -0.2627
  661MOL0     H89222   7.073  11.179   1.863  1.7281  0.5142  0.6372
  661MOL0     H89223   6.885  11.165   1.946 -2.6541  2.0706 -0.0067
  661MOL0     H89224   6.887  11.019   1.851 -4.0056 -2.2079 -1.2564
  661MOL0     H89225   6.652  10.991   1.837 -1.6657  0.1841  1.2675
  661MOL0     H89226   6.631  11.160   1.850 -1.9884 -2.6778 -0.8311
  661MOL0     H89227   6.704  11.181   2.073 -1.2499  0.4083  0.0926
  661MOL0     H89228   6.718  11.010   2.093 -1.3443 -0.8627  2.1546
  661MOL0     H89229   6.471  11.185   2.045  3.2718  1.2622 -1.4691
  661MOL0     H89230   6.454  11.004   2.036 -0.8967 -0.2896  3.1212
  661MOL0     H89231   6.441  11.051   2.445 -1.5135 -0.9742 -0.6244
  661MOL0     H89232   6.863  11.253   1.497  0.0335 -0.3975  0.8787
  661MOL0     H89233   6.987  11.460   1.376 -1.5895  0.2052 -0.7294
  661MOL0     H89234   7.122  11.358   1.293 -0.0804 -1.5910 -0.1500
  661MOL0     H89235   6.956  11.315   1.297 -0.3808  1.3488 -0.8685
  662MOL0     O89236   8.028  10.195   1.904  1.0953  0.3188  0.0184
  662MOL0     C89237   8.071  10.303   1.860 -0.1911 -0.0616 -0.5225
  662MOL0     O89238   8.018  10.430   1.891 -0.4678 -0.0106  0.2280
  662MOL0     C89239   7.917  10.440   1.984 -0.3178 -0.7971  0.7078
  662MOL0     C89240   7.933  10.523   2.096 -0.0841 -0.0171  0.2009
  662MOL0     C89241   7.826  10.543   2.181 -0.4993  0.1670 -0.2538
  662MOL0     C89242   7.696  10.502   2.153  0.8140  0.2006 -1.1102
  662MOL0     O89243   7.603  10.521   2.251  0.7094  0.2409 -0.4604
  662MOL0     C89244   7.470  10.510   2.204 -0.2249 -0.1516  0.8157
  662MOL0     C89245   7.427  10.364   2.218 -0.3167  1.0093 -0.3442
  662MOL0     C89246   7.305  10.344   2.139  0.7051  0.5963  0.1114
  662MOL0     C89247   7.330  10.350   1.980 -0.0071  0.8226  0.4838
  662MOL0     C89248   7.217  10.321   1.886 -0.2003  0.3436  0.5689
  662MOL0     C89249   7.172  10.178   1.872  0.4336  1.0606  0.0497
  662MOL0     C89250   7.036  10.162   1.802 -1.1832  0.8378 -0.0075
  662MOL0     C89251   7.052  10.224   1.662  1.2887 -0.5099  0.0667
  662MOL0     N89252   6.949  10.169   1.567 -0.9487  0.3854 -0.5018
  662MOL0     C89253   6.833  10.229   1.544  0.3683  0.3901 -0.7776
  662MOL0     C89254   6.760  10.138   1.477 -0.0720 -0.0405 -0.7771
  662MOL0     C89255   6.622  10.168   1.424  0.0102 -0.6196 -0.7853
  662MOL0     C89256   6.513  10.096   1.505  0.1337  0.4146 -1.1421
  662MOL0     C89257   6.481   9.958   1.448  0.4326  0.6743  0.2897
  662MOL0     C89258   6.365   9.885   1.507  0.5387 -0.3912 -0.2761
  662MOL0     O89259   6.355   9.758   1.444 -0.5635 -0.4986  0.6709
  662MOL0     C89260   6.268   9.665   1.499  0.0428  0.8601 -0.4791
  662MOL0     C89261   6.172   9.693   1.601  0.6053 -0.4851 -0.2517
  662MOL0     C89262   6.101   9.589   1.660 -0.4416  0.0833  0.5277
  662MOL0     C89263   6.101   9.458   1.612  0.4968  0.1789  0.8958
  662MOL0     C89264   5.997   9.370   1.652  0.6077 -0.5236  0.2221
  662MOL0     O89265   5.883   9.418   1.712  0.8159 -0.5778  0.3277
  662MOL0     C89266   5.769   9.346   1.735 -0.0546 -0.3457  0.3832
  662MOL0     C89267   5.786   9.224   1.802  1.3345 -0.2463 -0.6431
  662MOL0     C89268   5.668   9.141   1.834 -0.0707 -0.2963  0.1224
  662MOL0     C89269   5.546   9.173   1.789  0.3421 -0.1206  0.9270
  662MOL0     O89270   5.439   9.085   1.814  0.4852 -0.9381  0.5556
  662MOL0     C89271   5.465   8.951   1.841 -0.1601  0.5806  0.3673
  662MOL0     C89272   5.323   8.876   1.853 -0.0222  0.3647  0.0349
  662MOL0     C89273   5.230   8.972   1.922 -0.3287 -0.9405  0.7838
  662MOL0     C89274   5.099   8.900   1.965  0.0106  1.4870  0.3809
  662MOL0     C89275   5.036   8.963   2.084  0.3557  0.5434 -0.1534
  662MOL0     C89276   4.948   9.089   2.087 -0.5826 -1.1273  0.7633
  662MOL0     C89277   4.839   9.100   1.981  0.6790  1.3176  1.1944
  662MOL0     C89278   4.753   8.976   1.979 -0.4691 -0.2725  0.0635
  662MOL0    Cl89279   4.625   8.987   1.856 -0.2006  0.3526  0.4172
  662MOL0     C89280   5.532   9.290   1.719 -0.2168 -0.9026 -0.2671
  662MOL0     C89281   5.638   9.380   1.700  0.5383 -0.2050 -0.1131
  662MOL0     O89282   6.004   9.252   1.612 -0.3831  0.0462  0.4785
  662MOL0     C89283   6.190   9.431   1.507 -0.0069  0.5897  0.7027
  662MOL0     C89284   6.275   9.537   1.445  0.2231 -0.3044  0.3480
  662MOL0     N89285   6.834  10.018   1.457 -0.9982 -0.7600 -0.2336
  662MOL0     N89286   6.947  10.039   1.517 -1.4750 -0.0680 -0.3343
  662MOL0     C89287   7.682  10.423   2.037  0.1441 -0.6139  0.2843
  662MOL0     C89288   7.790  10.393   1.957 -0.1270  0.0182  0.0753
  662MOL0     C89289   8.208  10.298   1.784 -0.7263  0.3217  0.5311
  662MOL0     C89290   8.321  10.279   1.855 -0.0308  0.7381 -0.7423
  662MOL0     C89291   8.447  10.271   1.810  0.2352 -0.5140  0.2253
  662MOL0     C89292   8.455  10.275   1.671  0.0139 -0.4829 -0.5390
  662MOL0     O89293   8.570  10.264   1.598  0.2645 -0.2435 -0.2461
  662MOL0     C89294   8.681  10.353   1.624 -0.1859  0.7943  0.3894
  662MOL0     C89295   8.820  10.302   1.594 -0.0939 -0.6858  0.2833
  662MOL0     C89296   8.856  10.305   1.441 -0.2949  0.9550  0.0505
  662MOL0     C89297   8.930  10.426   1.394 -0.2240  0.3485  0.0774
  662MOL0     C89298   8.893  10.469   1.259 -0.3888 -1.0597 -0.2027
  662MOL0     C89299   8.871  10.490   1.143  0.5873 -0.0224  0.8562
  662MOL0     C89300   8.347  10.314   1.590  0.8179  0.8792  0.0316
  662MOL0     C89301   8.219  10.314   1.645  0.3713 -0.6193 -0.6016
  662MOL0     C89302   8.087  10.335   1.573 -0.4500  0.5168 -0.0309
  662MOL0     H89303   8.033  10.562   2.111 -0.5952  1.8020 -0.9031
  662MOL0     H89304   7.845  10.601   2.271  0.1246  1.7264 -1.3473
  662MOL0     H89305   7.395  10.558   2.268 -2.1459 -2.3581  0.3742
  662MOL0     H89306   7.461  10.558   2.106 -0.5723 -0.6140  0.6140
  662MOL0     H89307   7.419  10.336   2.323  2.2238  1.6493  0.0816
  662MOL0     H89308   7.499  10.294   2.173  1.3866  0.7281  2.5816
  662MOL0     H89309   7.230  10.415   2.175  2.2498  3.0714 -1.2552
  662MOL0     H89310   7.265  10.246   2.167  2.3942 -0.1535  0.0354
  662MOL0     H89311   7.355  10.453   1.949 -2.9224  1.1008 -1.3254
  662MOL0     H89312   7.418  10.293   1.951  0.3085  2.3218 -1.8824
  662MOL0     H89313   7.130  10.382   1.911 -0.4085  0.4602 -0.3882
  662MOL0     H89314   7.232  10.355   1.783  0.3780 -0.8220  0.2514
  662MOL0     H89315   7.245  10.117   1.817 -0.3674 -0.0062  0.1484
  662MOL0     H89316   7.151  10.127   1.967 -0.2900 -3.5410 -2.3019
  662MOL0     H89317   6.955  10.219   1.848 -1.2170  0.7391  0.0564
  662MOL0     H89318   7.005  10.057   1.799 -3.5153  1.2198  3.7896
  662MOL0     H89319   7.041  10.333   1.674 -1.1920 -0.2191 -3.2518
  662MOL0     H89320   7.151  10.206   1.619  0.6942 -3.4207 -0.2539
  662MOL0     H89321   6.788  10.321   1.577 -0.4898  0.1082 -1.1316
  662MOL0     H89322   6.601  10.274   1.445  2.7493  0.6830 -3.7667
  662MOL0     H89323   6.610  10.146   1.318  2.6668 -1.0186 -1.0909
  662MOL0     H89324   6.542  10.073   1.608 -1.9328 -1.7013 -0.9276
  662MOL0     H89325   6.425  10.160   1.519  0.7373  0.6855  2.3099
  662MOL0     H89326   6.573   9.898   1.440 -2.5976 -4.4215 -0.9421
  662MOL0     H89327   6.449   9.960   1.344  0.8201  0.6085  0.1687
  662MOL0     H89328   6.281   9.954   1.493  2.8549  2.6153 -0.4332
  662MOL0     H89329   6.372   9.878   1.616 -0.5814  0.6492 -0.1151
  662MOL0     H89330   6.144   9.795   1.625  1.2443 -0.5026  0.6216
  662MOL0     H89331   6.030   9.611   1.739 -1.6999 -1.9429  0.0449
  662MOL0     H89332   5.882   9.179   1.826  2.3185  2.3725  0.7740
  662MOL0     H89333   5.696   9.057   1.897  3.8155 -0.2571 -1.3417
  662MOL0     H89334   5.512   8.896   1.758 -0.8405 -1.4803  1.2873
  662MOL0     H89335   5.511   8.951   1.940 -3.5390 -1.9705  2.1419
  662MOL0     H89336   5.280   8.838   1.760  0.2917  0.6470 -0.2259
  662MOL0     H89337   5.344   8.787   1.914 -0.7146 -0.4506 -0.8730
  662MOL0     H89338   5.275   9.025   2.006  0.1790  1.5150 -0.9302
  662MOL0     H89339   5.194   9.047   1.851 -0.2885 -2.3884 -0.8346
  662MOL0     H89340   5.115   8.795   1.990  0.8997  1.8461  1.3431
  662MOL0     H89341   5.036   8.914   1.876 -1.0406  1.0901  1.0405
  662MOL0     H89342   5.100   8.978   2.172 -1.3016  2.1470  0.8344
  662MOL0     H89343   4.965   8.891   2.125  0.2280  1.3941  1.1861
  662MOL0     H89344   4.897   9.090   2.183 -2.4086 -1.7172 -0.1477
  662MOL0     H89345   5.008   9.180   2.089 -1.4681 -0.3768 -1.8147
  662MOL0     H89346   4.879   9.106   1.879  0.7134 -2.5118  0.8309
  662MOL0     H89347   4.774   9.187   1.995 -2.3075 -0.8320  1.7707
  662MOL0     H89348   4.813   8.886   1.964 -1.3314 -1.4514  2.9919
  662MOL0     H89349   4.716   8.974   2.082  5.2939 -0.2153  2.4964
  662MOL0     H89350   5.434   9.324   1.686 -1.7432 -0.0252  4.3553
  662MOL0     H89351   5.607   9.474   1.656  0.1756 -0.3693 -0.2083
  662MOL0     H89352   6.217   9.328   1.489  1.2217  0.7526  1.5427
  662MOL0     H89353   6.357   9.508   1.380  1.6700  0.3070  1.8096
  662MOL0     H89354   7.580  10.400   2.009 -0.8752 -0.0934  3.1431
  662MOL0     H89355   7.785  10.335   1.865  0.4803 -0.7779  0.5345
  662MOL0     H89356   8.307  10.278   1.963  0.8519  2.5618 -0.5672
  662MOL0     H89357   8.524  10.234   1.877  0.6355 -0.5222 -0.2422
  662MOL0     H89358   8.683  10.380   1.730  4.5048 -0.9262  0.9968
  662MOL0     H89359   8.656  10.444   1.568 -1.4188  0.1447 -0.1587
  662MOL0     H89360   8.824  10.197   1.624  1.9604 -1.5378 -2.4724
  662MOL0     H89361   8.891  10.357   1.657 -0.9508  2.0213 -0.9475
  662MOL0     H89362   8.775  10.294   1.369  1.2239 -0.1612 -1.5569
  662MOL0     H89363   8.926  10.222   1.436 -0.4545  0.7787  0.6425
  662MOL0     H89364   8.923  10.510   1.462  1.3881  1.7573 -1.4139
  662MOL0     H89365   9.034  10.392   1.391 -1.2283 -3.1130 -2.3035
  662MOL0     H89366   8.854  10.494   1.038 -0.3896 -1.5704  0.9161
  662MOL0     H89367   8.352  10.331   1.483 -2.0423  3.4258  0.1712
  662MOL0     H89368   8.021  10.249   1.587  0.1976  0.2088  1.3295
  662MOL0     H89369   8.031  10.421   1.609 -2.0185  0.2354 -1.6397
  662MOL0     H89370   8.117  10.354   1.470  2.4917  1.7806  0.9492
  663MOL0     O89371   0.016   7.539   1.026 -0.2775  0.2196 -0.0077
  663MOL0     C89372   0.121   7.525   1.087  0.2631  0.3560 -0.4415
  663MOL0     O89373   0.170   7.607   1.181  0.9407 -0.3537 -0.3731
  663MOL0     C89374   0.093   7.724   1.228  0.3715 -0.4970 -0.0792
  663MOL0     C89375  -0.011   7.793   1.159 -0.0529  0.4401 -0.2998
  663MOL0     C89376  -0.062   7.917   1.219 -0.4761 -0.0664 -0.2133
  663MOL0     C89377  -0.012   7.967   1.340  0.1632 -0.1076 -1.0632
  663MOL0     O89378  -0.065   8.081   1.401 -0.5000 -0.3426  0.0842
  663MOL0     C89379  -0.205   8.078   1.461  0.1000 -0.4454 -0.3386
  663MOL0     C89380  -0.225   8.215   1.537  0.4333  0.0982 -0.7577
  663MOL0     C89381  -0.354   8.216   1.623 -0.1433  0.2026  0.5238
  663MOL0     C89382  -0.313   8.138   1.751 -0.2340 -0.9242 -1.5548
  663MOL0     C89383  -0.259   8.215   1.878 -0.0807 -0.6186  0.1040
  663MOL0     C89384  -0.273   8.365   1.875 -0.4356  0.3913  0.1537
  663MOL0     C89385  -0.419   8.413   1.881 -0.6745  0.4957  0.5558
  663MOL0     C89386  -0.466   8.419   2.026  0.1727 -0.2288 -0.0210
  663MOL0     N89387  -0.388   8.520   2.103  0.8777  0.0119 -0.3550
  663MOL0     C89388  -0.357   8.647   2.062 -0.6053 -0.2394  0.0580
  663MOL0     C89389  -0.339   8.719   2.174 -0.3186  0.1725  0.5410
  663MOL0     C89390  -0.304   8.870   2.201 -0.9137  0.3749  0.7279
  663MOL0     C89391  -0.382   8.958   2.101  0.5846  1.0904  1.0346
  663MOL0     C89392  -0.318   9.089   2.048  0.0578  0.4978  0.1186
  663MOL0     C89393  -0.201   9.064   1.953  0.0515 -0.8160 -0.3305
  663MOL0     O89394  -0.243   8.987   1.845  0.6936  0.2817 -0.0820
  663MOL0     C89395  -0.174   8.876   1.795  0.0912 -0.4102  0.4248
  663MOL0     C89396  -0.066   8.814   1.860  0.6493 -1.4118  0.9726
  663MOL0     C89397   0.006   8.717   1.804 -0.8589  0.4204 -1.0555
  663MOL0     C89398  -0.028   8.659   1.678 -0.4940  0.5005  0.1807
  663MOL0     C89399   0.062   8.557   1.610 -0.1239  0.1765  0.9805
  663MOL0     O89400   0.059   8.567   1.470 -0.6444  0.4406 -0.5901
  663MOL0     C89401   0.144   8.496   1.392  0.8006  0.3843 -0.3544
  663MOL0     C89402   0.201   8.553   1.277 -0.0590  0.1060  0.0575
  663MOL0     C89403   0.265   8.473   1.180 -0.3775  0.9561  0.0526
  663MOL0     C89404   0.282   8.339   1.216  0.1456  0.4657  0.2098
  663MOL0     O89405   0.350   8.252   1.136  0.1735 -0.0592 -0.3097
  663MOL0     C89406   0.282   8.225   1.013 -0.2955  0.7426 -0.1485
  663MOL0     C89407   0.358   8.100   0.961 -0.0712  0.8543 -1.3280
  663MOL0     C89408   0.298   8.048   0.825  0.3747  0.1080 -0.2757
  663MOL0     C89409   0.208   7.925   0.844  0.7004  0.8532  0.0868
  663MOL0     C89410   0.183   7.857   0.704 -0.8125  0.0192 -0.4244
  663MOL0     C89411   0.092   7.936   0.606  0.0616 -0.9173 -0.6297
  663MOL0     C89412   0.082   7.854   0.479 -0.6045 -0.2355  0.4179
  663MOL0     C89413   0.021   7.933   0.361 -0.2932  0.8039 -0.5714
  663MOL0    Cl89414  -0.055   7.806   0.246  0.2153 -0.2844  0.3021
  663MOL0     C89415   0.230   8.284   1.328  0.7318  1.2482 -0.6259
  663MOL0     C89416   0.155   8.355   1.418  0.1629  0.3091 -0.5111
  663MOL0     O89417   0.132   8.477   1.677 -0.0996 -0.6369 -0.0963
  663MOL0     C89418  -0.146   8.713   1.621 -0.5467 -0.5125  0.7766
  663MOL0     C89419  -0.219   8.813   1.682 -0.3484 -0.2233 -1.1722
  663MOL0     N89420  -0.349   8.627   2.281 -0.0032 -0.7082 -0.7770
  663MOL0     N89421  -0.387   8.520   2.237 -0.3145  0.0710  0.3992
  663MOL0     C89422   0.091   7.900   1.394  0.2419  0.0386  0.1516
  663MOL0     C89423   0.154   7.794   1.335  1.1303  0.7010  0.1812
  663MOL0     C89424   0.199   7.400   1.060 -0.2935 -1.4977  0.3356
  663MOL0     C89425   0.297   7.364   1.156 -0.3905  0.0419  0.6321
  663MOL0     C89426   0.366   7.245   1.145  0.1449  0.7716 -0.4793
  663MOL0     C89427   0.347   7.165   1.039 -0.8544 -0.0736 -0.3775
  663MOL0     O89428   0.429   7.062   1.006 -1.2852  0.3072  1.1787
  663MOL0     C89429   0.450   6.952   1.105 -0.5723 -0.1490 -0.8238
  663MOL0     C89430   0.592   6.917   1.126 -0.1930  0.0367 -0.4854
  663MOL0     C89431   0.691   7.031   1.118  0.0911  0.0025  0.4210
  663MOL0     C89432   0.830   6.970   1.108  0.0439 -0.7607 -0.0532
  663MOL0     C89433   0.858   6.872   1.215 -0.6972 -0.7302 -0.4953
  663MOL0     C89434   0.870   6.799   1.313 -0.6318  0.4539 -0.4025
  663MOL0     C89435   0.255   7.196   0.945  0.3066 -0.0040  0.7776
  663MOL0     C89436   0.177   7.312   0.953  0.3790  0.1098 -0.3133
  663MOL0     C89437   0.067   7.320   0.853 -0.7940 -0.8316 -0.3870
  663MOL0     H89438  -0.040   7.762   1.059 -2.2275 -0.6107  0.5861
  663MOL0     H89439  -0.137   7.985   1.179  1.9925  2.0809 -1.4896
  663MOL0     H89440  -0.284   8.077   1.385 -0.6194  0.0880  0.3715
  663MOL0     H89441  -0.221   7.983   1.513 -1.9098  0.2131  0.3514
  663MOL0     H89442  -0.232   8.290   1.457  0.5742  0.6049 -0.3049
  663MOL0     H89443  -0.147   8.239   1.610 -0.4874 -4.0575  1.8837
  663MOL0     H89444  -0.433   8.159   1.574  1.9977 -1.4817 -1.2065
  663MOL0     H89445  -0.394   8.317   1.637  0.6491  0.8252 -1.3835
  663MOL0     H89446  -0.413   8.097   1.771 -0.0427 -0.5607  0.3022
  663MOL0     H89447  -0.241   8.056   1.742 -2.1799 -2.8979 -0.0619
  663MOL0     H89448  -0.302   8.177   1.971 -0.4425 -0.3146  0.0606
  663MOL0     H89449  -0.152   8.189   1.885  0.3033  1.0276  0.8406
  663MOL0     H89450  -0.204   8.399   1.953  2.1448 -5.2645  0.8252
  663MOL0     H89451  -0.212   8.397   1.790 -0.4634  0.4347  0.1488
  663MOL0     H89452  -0.489   8.353   1.822 -1.0742  1.1952  0.2996
  663MOL0     H89453  -0.431   8.514   1.840 -0.0314  0.9520  1.4392
  663MOL0     H89454  -0.573   8.437   2.036  0.9197  3.9100  4.2274
  663MOL0     H89455  -0.462   8.322   2.074  0.7736  0.1636  0.7412
  663MOL0     H89456  -0.354   8.690   1.962  1.5771  3.8602  1.6231
  663MOL0     H89457  -0.316   8.913   2.301 -0.7680  2.0327  0.0693
  663MOL0     H89458  -0.196   8.877   2.185 -0.8222 -0.8172  0.7546
  663MOL0     H89459  -0.414   8.906   2.010  0.2875 -2.8593  3.1717
  663MOL0     H89460  -0.479   8.973   2.151  2.0477  1.3112  4.0324
  663MOL0     H89461  -0.276   9.143   2.134 -1.0749  0.2661  0.8455
  663MOL0     H89462  -0.391   9.149   1.993  0.6406  2.4460  1.3591
  663MOL0     H89463  -0.123   9.019   2.016  0.4441 -1.4170 -1.2169
  663MOL0     H89464  -0.149   9.156   1.924  0.1259  0.0426  2.3159
  663MOL0     H89465  -0.024   8.837   1.957  2.1875  0.2710 -0.0425
  663MOL0     H89466   0.090   8.679   1.861  0.4612 -0.8917 -3.6794
  663MOL0     H89467   0.203   8.660   1.257  0.3768 -0.0847 -1.0119
  663MOL0     H89468   0.327   8.518   1.103 -0.2541 -0.2993 -0.6070
  663MOL0     H89469   0.176   8.201   1.024 -0.4859 -0.0580 -2.9111
  663MOL0     H89470   0.300   8.298   0.934 -0.3939 -1.5432 -2.4104
  663MOL0     H89471   0.458   8.140   0.945  0.1212  1.0326  0.2526
  663MOL0     H89472   0.357   8.019   1.035 -0.3895 -0.0381 -2.2791
  663MOL0     H89473   0.247   8.124   0.765  1.0670 -0.5099 -1.7010
  663MOL0     H89474   0.384   8.024   0.763  0.4395 -0.0155 -0.1392
  663MOL0     H89475   0.114   7.956   0.891  0.5208  0.6496 -0.1349
  663MOL0     H89476   0.249   7.847   0.908  1.5373  0.0846 -1.3250
  663MOL0     H89477   0.151   7.754   0.726  0.5763 -1.0067 -2.8652
  663MOL0     H89478   0.277   7.843   0.651 -0.9043 -0.8695 -0.3720
  663MOL0     H89479  -0.006   7.965   0.645 -0.1576  0.2091 -1.9400
  663MOL0     H89480   0.147   8.027   0.579 -0.5884  0.9699  3.6095
  663MOL0     H89481   0.020   7.765   0.496 -1.6104  0.0375 -1.5122
  663MOL0     H89482   0.179   7.821   0.444  0.7176  2.5653  1.1232
  663MOL0     H89483  -0.064   7.983   0.410  0.4272  0.5517  0.9979
  663MOL0     H89484   0.096   8.003   0.325  0.1359  1.4380  1.4336
  663MOL0     H89485   0.229   8.175   1.329 -1.3969  1.2066 -1.5325
  663MOL0     H89486   0.100   8.301   1.494  2.4461 -3.4093 -1.2132
  663MOL0     H89487  -0.182   8.659   1.533 -0.8081  1.5000 -0.4159
  663MOL0     H89488  -0.306   8.845   1.627 -2.5813 -1.1208  1.5805
  663MOL0     H89489   0.132   7.944   1.484  3.0014 -1.0773 -0.4722
  663MOL0     H89490   0.240   7.743   1.378  0.3838 -2.8705 -2.1046
  663MOL0     H89491   0.309   7.429   1.242 -1.4967 -0.6640  1.3470
  663MOL0     H89492   0.443   7.229   1.220 -0.4010 -1.7342 -0.3856
  663MOL0     H89493   0.417   6.855   1.064  1.7144 -0.8241 -1.1771
  663MOL0     H89494   0.395   6.958   1.200  1.9854 -0.2960  0.7607
  663MOL0     H89495   0.631   6.847   1.053  3.1880  0.1964  0.9826
  663MOL0     H89496   0.592   6.861   1.220  0.8822  0.1423 -0.4156
  663MOL0     H89497   0.687   7.099   1.203  2.7260  0.6953  0.0778
  663MOL0     H89498   0.678   7.086   1.025  2.2089  1.6614  1.0193
  663MOL0     H89499   0.832   6.926   1.008 -0.8326  2.7908 -1.7925
  663MOL0     H89500   0.905   7.049   1.108  0.8591 -1.4673 -2.0721
  663MOL0     H89501   0.888   6.739   1.399  1.8808  0.1514 -1.0483
  663MOL0     H89502   0.239   7.129   0.861  0.0202 -0.8249  1.4780
  663MOL0     H89503  -0.031   7.297   0.897 -2.0463 -2.1720 -3.5297
  663MOL0     H89504   0.066   7.417   0.802  1.6661 -0.2937  0.4525
  663MOL0     H89505   0.060   7.242   0.776  1.8217 -1.6460  0.0971
  664MOL0     O89506   5.206   0.149   9.042  0.0500 -0.2479  0.0948
  664MOL0     C89507   5.086   0.174   9.024 -0.6500  0.2544 -1.0449
  664MOL0     O89508   5.041   0.284   8.951  0.3245  0.8137 -0.0405
  664MOL0     C89509   5.104   0.401   8.951  0.0044 -0.1689  0.7613
  664MOL0     C89510   5.106   0.481   8.831 -0.1248 -0.0390 -0.2165
  664MOL0     C89511   5.187   0.595   8.837  0.6372 -0.1653 -0.1779
  664MOL0     C89512   5.251   0.640   8.957 -0.3518 -1.1234  0.2813
  664MOL0     O89513   5.325   0.759   8.970 -0.5338  0.1036 -0.1585
  664MOL0     C89514   5.410   0.789   8.860 -1.2625 -0.0508  0.3172
  664MOL0     C89515   5.500   0.909   8.894  0.6992 -0.3574  1.6651
  664MOL0     C89516   5.599   0.944   8.781 -0.4220  0.2484 -0.7484
  664MOL0     C89517   5.529   1.040   8.684  0.0463  0.1081  0.4569
  664MOL0     C89518   5.604   1.106   8.573 -0.2359  0.9241 -0.2817
  664MOL0     C89519   5.702   1.197   8.644  0.1508 -0.1190  0.2475
  664MOL0     C89520   5.801   1.269   8.543 -0.3617 -0.8001  0.2621
  664MOL0     C89521   5.859   1.409   8.605  0.0436 -0.2033  0.1463
  664MOL0     N89522   5.945   1.372   8.721  0.7446 -0.3796  0.0714
  664MOL0     C89523   6.072   1.325   8.702 -1.0488 -0.6882 -0.1894
  664MOL0     C89524   6.135   1.345   8.816  0.8016 -0.4974 -0.4210
  664MOL0     C89525   6.279   1.329   8.853 -0.6848  0.3744  0.0871
  664MOL0     C89526   6.356   1.457   8.811  1.6156  0.0349 -0.1815
  664MOL0     C89527   6.506   1.444   8.822 -0.2638  0.5803 -1.2338
  664MOL0     C89528   6.582   1.564   8.767 -0.0547 -1.0959  0.4237
  664MOL0     O89529   6.628   1.659   8.864  0.2877 -0.1302 -0.6368
  664MOL0     C89530   6.667   1.787   8.822  0.4473 -0.2533  0.5919
  664MOL0     C89531   6.699   1.816   8.690  0.1833 -0.4094  0.2120
  664MOL0     C89532   6.730   1.946   8.647  0.0116  0.1423  0.6631
  664MOL0     C89533   6.715   2.051   8.733 -0.7094 -0.2778 -0.5051
  664MOL0     C89534   6.735   2.188   8.691 -0.4057  0.1215 -1.1550
  664MOL0     O89535   6.769   2.212   8.559  0.5896  0.6747  0.8608
  664MOL0     C89536   6.780   2.341   8.510 -0.2350  0.2892  0.1569
  664MOL0     C89537   6.831   2.453   8.577 -0.9077  0.0690  0.2281
  664MOL0     C89538   6.837   2.580   8.510  0.5523 -0.1202 -0.1969
  664MOL0     C89539   6.810   2.589   8.374 -1.3493 -0.8554 -0.8946
  664MOL0     O89540   6.841   2.695   8.300 -0.6183  0.2588  0.1389
  664MOL0     C89541   6.793   2.824   8.337  0.7047  0.6587 -1.7355
  664MOL0     C89542   6.724   2.908   8.216 -0.2071 -0.9309  0.5859
  664MOL0     C89543   6.741   3.058   8.232 -1.4599 -0.8057  0.2563
  664MOL0     C89544   6.666   3.151   8.122  0.0051 -0.3837  0.7441
  664MOL0     C89545   6.765   3.164   7.996  0.9993  0.3289 -0.6167
  664MOL0     C89546   6.694   3.234   7.873 -0.6248  0.3175 -0.7769
  664MOL0     C89547   6.789   3.252   7.749 -0.1703  0.3943 -1.4745
  664MOL0     C89548   6.745   3.340   7.637 -0.1309 -0.3171 -1.7653
  664MOL0    Cl89549   6.747   3.514   7.682  0.1296  0.1022 -0.2352
  664MOL0     C89550   6.767   2.478   8.313  0.9662 -0.0638  0.3190
  664MOL0     C89551   6.742   2.357   8.380  0.1111 -0.0984  0.9135
  664MOL0     O89552   6.708   2.273   8.776 -0.0911  0.1136  0.1412
  664MOL0     C89553   6.682   2.024   8.875  0.6300 -0.5181 -0.3390
  664MOL0     C89554   6.659   1.892   8.910 -0.5178 -0.9335  0.5852
  664MOL0     N89555   6.047   1.405   8.901 -0.5695 -0.4797 -0.5320
  664MOL0     N89556   5.938   1.422   8.847  0.2178 -0.8391 -0.0897
  664MOL0     C89557   5.247   0.565   9.073 -0.5768 -0.0684 -0.7829
  664MOL0     C89558   5.175   0.438   9.066  1.1046 -0.1474  0.2006
  664MOL0     C89559   4.978   0.080   9.053 -0.7937 -0.1595  0.7251
  664MOL0     C89560   4.851   0.141   9.053 -0.4617 -0.2192 -0.3090
  664MOL0     C89561   4.752   0.062   9.103  0.3996  0.5224  0.4768
  664MOL0     C89562   4.778  -0.073   9.152  0.5965 -0.0239  0.5941
  664MOL0     O89563   4.701  -0.153   9.227 -0.0843 -0.6218  0.0646
  664MOL0     C89564   4.626  -0.094   9.329  1.2969  0.3902  0.4022
  664MOL0     C89565   4.523  -0.179   9.380 -0.2143 -0.1199 -0.7244
  664MOL0     C89566   4.570  -0.277   9.489  0.6375  0.8327  0.7866
  664MOL0     C89567   4.451  -0.361   9.538 -0.8485 -0.6694  0.1200
  664MOL0     C89568   4.346  -0.287   9.597  1.2000 -0.5860 -0.4309
  664MOL0     C89569   4.253  -0.233   9.660  0.4050 -0.0482 -0.5890
  664MOL0     C89570   4.900  -0.126   9.136 -0.4923  0.9177 -0.2422
  664MOL0     C89571   5.006  -0.053   9.086  0.3791 -0.0628  0.0910
  664MOL0     C89572   5.138  -0.136   9.055  0.5663  0.8864 -0.2851
  664MOL0     H89573   5.062   0.447   8.737 -1.1647 -0.9621  0.5754
  664MOL0     H89574   5.194   0.639   8.738 -1.1432 -2.7077 -1.5744
  664MOL0     H89575   5.475   0.701   8.847  0.5032  1.3931 -1.1611
  664MOL0     H89576   5.362   0.818   8.767 -1.0437  0.6724  0.4226
  664MOL0     H89577   5.567   0.879   8.975  2.1700  1.2641  1.1035
  664MOL0     H89578   5.432   0.991   8.920  1.1879  1.0866 -1.2394
  664MOL0     H89579   5.643   0.861   8.724  1.2331  1.6037 -1.5617
  664MOL0     H89580   5.684   0.994   8.829  1.7276 -1.6086 -2.3878
  664MOL0     H89581   5.443   0.980   8.651 -0.5868  1.0012  0.4390
  664MOL0     H89582   5.499   1.120   8.752 -0.6485 -0.6741  1.1035
  664MOL0     H89583   5.646   1.025   8.512  0.5638  1.4335 -0.4197
  664MOL0     H89584   5.533   1.161   8.510 -0.8340  0.3802 -0.0912
  664MOL0     H89585   5.649   1.276   8.697  1.8056  3.1615 -2.5991
  664MOL0     H89586   5.762   1.154   8.725 -0.5905  0.4585  1.1273
  664MOL0     H89587   5.742   1.303   8.457  1.2225  3.1259  0.5311
  664MOL0     H89588   5.869   1.197   8.496  0.1274  0.1443 -0.5150
  664MOL0     H89589   5.913   1.453   8.521 -0.3026 -3.9932 -2.2790
  664MOL0     H89590   5.789   1.489   8.630  0.3718  0.6211 -1.4614
  664MOL0     H89591   6.117   1.291   8.609  2.3512 -0.8040  1.3545
  664MOL0     H89592   6.289   1.317   8.962  0.9683  0.6066 -0.0107
  664MOL0     H89593   6.331   1.242   8.812 -2.4932  0.5325 -2.7832
  664MOL0     H89594   6.334   1.463   8.704 -0.0915 -1.8446 -0.0203
  664MOL0     H89595   6.315   1.548   8.855 -3.5444 -1.1639 -1.8086
  664MOL0     H89596   6.546   1.347   8.791 -2.8926 -1.9116  2.2531
  664MOL0     H89597   6.534   1.441   8.927 -3.8571 -1.0458 -0.1344
  664MOL0     H89598   6.512   1.611   8.697  0.0859 -0.4996  0.6816
  664MOL0     H89599   6.675   1.534   8.717 -1.8504 -0.2331 -3.9371
  664MOL0     H89600   6.694   1.739   8.614 -2.3513 -0.2767  0.1780
  664MOL0     H89601   6.751   1.951   8.540 -2.5610  4.5708  0.1203
  664MOL0     H89602   6.873   2.466   8.676  0.4169 -0.1222 -0.2875
  664MOL0     H89603   6.858   2.675   8.559 -0.5769  1.4444 -2.5906
  664MOL0     H89604   6.718   2.806   8.415  0.6553 -0.2334 -1.9792
  664MOL0     H89605   6.873   2.870   8.396  0.3569 -1.4537  0.5555
  664MOL0     H89606   6.776   2.886   8.123  5.8900 -0.6192  3.4548
  664MOL0     H89607   6.618   2.880   8.211 -0.8519  0.6961  3.1767
  664MOL0     H89608   6.700   3.076   8.332  0.2461 -2.8453  1.4116
  664MOL0     H89609   6.848   3.077   8.223 -1.4426 -0.7720  0.5233
  664MOL0     H89610   6.650   3.254   8.153  1.2552  0.7113 -1.9650
  664MOL0     H89611   6.568   3.110   8.097 -0.6501  1.8731 -0.7171
  664MOL0     H89612   6.806   3.074   7.950 -0.3846 -0.1755 -0.9228
  664MOL0     H89613   6.847   3.225   8.036  0.2367 -0.3494  2.2334
  664MOL0     H89614   6.620   3.159   7.844 -2.0254  0.3205  2.3644
  664MOL0     H89615   6.648   3.327   7.906  0.5376  0.9924 -1.0142
  664MOL0     H89616   6.807   3.150   7.716  2.5948  1.1731 -2.6334
  664MOL0     H89617   6.883   3.297   7.782 -0.2635 -0.9182  0.8166
  664MOL0     H89618   6.813   3.324   7.553  0.2022  1.9461 -1.9674
  664MOL0     H89619   6.640   3.312   7.620 -0.8165  0.5716  0.5362
  664MOL0     H89620   6.738   2.481   8.208  1.3592  4.8265  0.1271
  664MOL0     H89621   6.692   2.281   8.321  1.1200 -0.8396  0.9890
  664MOL0     H89622   6.669   2.103   8.949  2.2051  0.8599 -1.4405
  664MOL0     H89623   6.666   1.874   9.017  2.4159 -2.0722  0.3190
  664MOL0     H89624   5.300   0.599   9.162 -3.1391  0.8958  0.4583
  664MOL0     H89625   5.173   0.385   9.161 -0.8754  1.1319  0.9341
  664MOL0     H89626   4.822   0.241   9.024 -2.0459 -0.5322  0.0801
  664MOL0     H89627   4.651   0.098   9.089  0.6901  0.8949 -0.7826
  664MOL0     H89628   4.562  -0.013   9.292 -0.0243 -1.0241 -0.5762
  664MOL0     H89629   4.695  -0.048   9.400  2.5554 -0.2056 -0.4056
  664MOL0     H89630   4.465  -0.225   9.299  1.5973 -2.3178 -0.8884
  664MOL0     H89631   4.463  -0.102   9.430  0.9710 -0.9510  2.1979
  664MOL0     H89632   4.608  -0.225   9.578 -1.7423  2.3913  0.9964
  664MOL0     H89633   4.646  -0.340   9.442 -0.6102  0.2728 -0.5406
  664MOL0     H89634   4.398  -0.400   9.451 -1.2460  2.5242 -1.2106
  664MOL0     H89635   4.491  -0.435   9.608  0.8945 -0.0354 -0.1685
  664MOL0     H89636   4.169  -0.187   9.709  0.8889  0.7545 -0.5073
  664MOL0     H89637   4.925  -0.229   9.156  3.5983  1.9304  0.8005
  664MOL0     H89638   5.150  -0.112   8.949  0.3598  2.5577  0.0488
  664MOL0     H89639   5.226  -0.118   9.116  0.1316 -0.0242  0.6507
  664MOL0     H89640   5.116  -0.243   9.066  3.3153  0.3945  1.4204
  665MOL0     O89641   9.845   7.616   8.550  0.2134  0.6018  0.4053
  665MOL0     C89642   9.739   7.668   8.600 -0.7758 -0.1582 -0.3300
  665MOL0     O89643   9.668   7.620   8.696 -0.0923 -0.2888 -0.0438
  665MOL0     C89644   9.716   7.514   8.771 -0.7083  0.7366  0.5441
  665MOL0     C89645   9.695   7.385   8.716 -1.6783 -0.6892 -1.1279
  665MOL0     C89646   9.740   7.265   8.778  0.7956 -0.5854  0.6823
  665MOL0     C89647   9.806   7.286   8.904  0.6499  0.4077  0.0267
  665MOL0     O89648   9.830   7.170   8.974 -0.5593  0.0356 -0.7784
  665MOL0     C89649   9.790   7.158   9.107  0.2615  0.3388 -0.2719
  665MOL0     C89650   9.642   7.197   9.133  0.2090  0.1543  0.2034
  665MOL0     C89651   9.578   7.158   9.268 -0.2833  0.4280 -0.0930
  665MOL0     C89652   9.569   6.997   9.297 -0.5730 -0.8287  0.7330
  665MOL0     C89653   9.453   6.975   9.384  0.6163  0.5524  0.3402
  665MOL0     C89654   9.469   6.841   9.465  0.1268 -0.2256 -0.5811
  665MOL0     C89655   9.340   6.822   9.550 -0.6083  0.3067  0.4167
  665MOL0     C89656   9.303   6.683   9.608  0.6327 -0.8216  0.4970
  665MOL0     N89657   9.320   6.570   9.519  0.3488  0.7301  0.0039
  665MOL0     C89658   9.441   6.505   9.493  0.2040  0.0000  0.6075
  665MOL0     C89659   9.409   6.417   9.391  0.3339 -0.4875 -0.5453
  665MOL0     C89660   9.512   6.324   9.327 -0.3779 -0.6788  0.3483
  665MOL0     C89661   9.604   6.230   9.403  1.0650 -0.2512 -0.2010
  665MOL0     C89662   9.533   6.166   9.528 -0.5609 -0.5603  0.5540
  665MOL0     C89663   9.418   6.071   9.485  0.1446  0.4385 -0.1578
  665MOL0     O89664   9.347   6.019   9.593 -0.4237 -0.0664  0.8784
  665MOL0     C89665   9.374   5.892   9.637 -0.0446  0.2461  0.3787
  665MOL0     C89666   9.285   5.830   9.722  0.2854  0.0174 -0.3262
  665MOL0     C89667   9.307   5.699   9.764  0.2902  0.1513 -0.4149
  665MOL0     C89668   9.427   5.625   9.725  0.0651  0.2702 -0.2327
  665MOL0     C89669   9.451   5.489   9.771 -0.5030  0.2280 -0.2231
  665MOL0     O89670   9.339   5.413   9.776  0.0153  0.2794  1.1105
  665MOL0     C89671   9.352   5.281   9.801  0.0833  0.0035  0.5271
  665MOL0     C89672   9.343   5.228   9.930  0.4557 -0.1150 -0.6421
  665MOL0     C89673   9.343   5.082   9.948 -0.2774  0.0682  0.2757
  665MOL0     C89674   9.368   4.989   9.840  1.2975 -0.5567  1.5012
  665MOL0     O89675   9.403   4.862   9.867  0.5827 -0.2577  0.4601
  665MOL0     C89676   9.308   4.775   9.933  0.4890  0.3338 -0.0309
  665MOL0     C89677   9.189   4.725   9.849 -0.0100 -1.0896  0.2450
  665MOL0     C89678   9.251   4.648   9.732  0.0659  0.2486 -0.1053
  665MOL0     C89679   9.145   4.625   9.620 -0.6266 -1.2922  0.9602
  665MOL0     C89680   9.182   4.518   9.516  0.9238 -0.6247  0.4838
  665MOL0     C89681   9.173   4.568   9.370 -0.0393 -1.5280  0.1203
  665MOL0     C89682   9.029   4.609   9.333  0.3895  0.0087 -0.1033
  665MOL0     C89683   8.999   4.602   9.191  0.4836 -0.1567 -0.3538
  665MOL0    Cl89684   8.932   4.442   9.149  0.1545  0.4148 -0.3713
  665MOL0     C89685   9.385   5.046   9.711  0.6012  0.2814 -0.5315
  665MOL0     C89686   9.364   5.182   9.692 -0.5158 -1.6890 -0.8813
  665MOL0     O89687   9.562   5.448   9.799 -0.5094 -0.0428 -0.1186
  665MOL0     C89688   9.521   5.693   9.639  0.9534 -0.1720 -0.2138
  665MOL0     C89689   9.497   5.828   9.605 -1.1017 -0.5539  0.8844
  665MOL0     N89690   9.275   6.433   9.350  0.0570  0.5618 -0.8829
  665MOL0     N89691   9.222   6.521   9.432 -1.3806 -0.0266 -0.1222
  665MOL0     C89692   9.826   7.409   8.957 -0.3184  0.5866  0.3703
  665MOL0     C89693   9.784   7.527   8.893 -0.3307 -0.7957  0.7713
  665MOL0     C89694   9.684   7.773   8.526 -0.7384  0.4118  0.9844
  665MOL0     C89695   9.550   7.807   8.538  0.0040  0.2084 -0.1943
  665MOL0     C89696   9.489   7.891   8.449 -0.2875 -1.2119  0.3139
  665MOL0     C89697   9.569   7.973   8.369  0.6464  0.3800  0.8378
  665MOL0     O89698   9.497   8.060   8.297  0.9551 -0.7449 -0.2552
  665MOL0     C89699   9.518   8.205   8.300  0.7336 -0.1207  1.0507
  665MOL0     C89700   9.372   8.277   8.306  0.1565  0.3080 -0.3460
  665MOL0     C89701   9.330   8.298   8.461 -0.5803  0.0710 -0.7936
  665MOL0     C89702   9.195   8.366   8.474  0.0772  0.1678  0.6917
  665MOL0     C89703   9.199   8.506   8.409  0.9114  0.3379  0.6361
  665MOL0     C89704   9.225   8.606   8.345 -0.0256 -0.3822  0.6711
  665MOL0     C89705   9.699   7.942   8.343 -0.1849  0.5744  0.1870
  665MOL0     C89706   9.755   7.834   8.415  0.3237 -0.6366 -0.2683
  665MOL0     C89707   9.887   7.801   8.364  0.1084  0.2625  0.5056
  665MOL0     H89708   9.654   7.388   8.615 -2.6371  1.5440 -0.7344
  665MOL0     H89709   9.734   7.165   8.735  0.5453  0.1312 -1.0019
  665MOL0     H89710   9.808   7.054   9.137 -1.9098 -0.6589 -2.1056
  665MOL0     H89711   9.860   7.215   9.169 -1.9564  2.5632  0.3744
  665MOL0     H89712   9.590   7.152   9.048  2.9538 -1.2147 -0.8631
  665MOL0     H89713   9.633   7.306   9.125 -1.3145 -0.1104 -2.8557
  665MOL0     H89714   9.473   7.187   9.257 -0.0658  1.1422 -0.3190
  665MOL0     H89715   9.624   7.211   9.352  2.6307 -3.2419  0.8573
  665MOL0     H89716   9.562   6.935   9.207  0.1372 -1.1047  0.8620
  665MOL0     H89717   9.667   6.975   9.340  1.7493  4.7915 -0.8381
  665MOL0     H89718   9.440   7.057   9.455 -0.4083  0.8706 -0.1852
  665MOL0     H89719   9.367   6.981   9.316  1.8443  1.9050 -1.1913
  665MOL0     H89720   9.491   6.762   9.392  1.0854 -1.3668  0.9068
  665MOL0     H89721   9.546   6.852   9.541 -0.1797 -1.5212 -0.0548
  665MOL0     H89722   9.252   6.849   9.492 -0.7144  1.0751  0.9227
  665MOL0     H89723   9.355   6.889   9.636  1.0882 -1.9128  1.9993
  665MOL0     H89724   9.364   6.665   9.697 -0.1582  1.6448  1.6250
  665MOL0     H89725   9.194   6.683   9.621  0.2335 -2.8197 -1.9829
  665MOL0     H89726   9.540   6.511   9.536  1.4420 -0.8107 -1.9016
  665MOL0     H89727   9.455   6.265   9.255  2.8392  1.5776 -4.5951
  665MOL0     H89728   9.572   6.392   9.267  0.0594  0.4209  1.9464
  665MOL0     H89729   9.646   6.153   9.337  0.9219  0.0495 -0.6481
  665MOL0     H89730   9.686   6.294   9.436 -0.7423  1.1098  1.9461
  665MOL0     H89731   9.512   6.254   9.590  4.1319 -0.2410  2.0711
  665MOL0     H89732   9.603   6.105   9.584 -2.6734 -3.0329  0.6817
  665MOL0     H89733   9.463   5.994   9.421 -0.1813  0.4134 -0.3568
  665MOL0     H89734   9.350   6.140   9.437  1.8441  1.2162 -1.5552
  665MOL0     H89735   9.190   5.882   9.732 -0.6127 -0.8385 -3.3526
  665MOL0     H89736   9.228   5.652   9.821 -0.4595  3.0680  1.1890
  665MOL0     H89737   9.338   5.292  10.017  0.6048 -0.9308 -0.0291
  665MOL0     H89738   9.326   5.045  10.049  0.1087  0.2895  0.4225
  665MOL0     H89739   9.361   4.681   9.953  1.0189  0.2950 -1.4727
  665MOL0     H89740   9.272   4.824  10.024 -0.2025 -0.1474 -0.0404
  665MOL0     H89741   9.122   4.663   9.910 -1.0252  0.3381  0.6305
  665MOL0     H89742   9.141   4.812   9.804 -1.2463 -3.0202 -2.4800
  665MOL0     H89743   9.328   4.711   9.686 -0.6716  0.5820 -0.9092
  665MOL0     H89744   9.293   4.554   9.770  1.6750  1.1504  0.4357
  665MOL0     H89745   9.128   4.719   9.567 -1.8459 -0.3960  2.8555
  665MOL0     H89746   9.045   4.615   9.661 -0.2025 -1.7658  1.8990
  665MOL0     H89747   9.100   4.445   9.521  0.3426  0.0566  1.1254
  665MOL0     H89748   9.282   4.480   9.540  2.1204  1.2527 -1.1813
  665MOL0     H89749   9.261   4.631   9.353  1.4162 -2.9555  1.9154
  665MOL0     H89750   9.210   4.486   9.307  2.3488 -0.5539  0.1154
  665MOL0     H89751   9.013   4.713   9.362 -3.1952 -0.9396  1.9979
  665MOL0     H89752   8.956   4.553   9.392 -1.5631  2.5697  0.0981
  665MOL0     H89753   8.923   4.672   9.155  1.0194  0.2747 -0.6424
  665MOL0     H89754   9.095   4.616   9.142  0.9801  2.2550  1.1715
  665MOL0     H89755   9.423   4.990   9.626  1.9013  1.9334 -1.0886
  665MOL0     H89756   9.355   5.221   9.592  0.9470 -1.1892 -0.8398
  665MOL0     H89757   9.614   5.646   9.612  0.6776 -0.6907 -0.2730
  665MOL0     H89758   9.589   5.870   9.564 -0.8354 -0.0747  1.9451
  665MOL0     H89759   9.876   7.419   9.052 -0.6820  1.5342  0.4731
  665MOL0     H89760   9.806   7.625   8.933  2.1069 -0.4293 -1.2343
  665MOL0     H89761   9.497   7.754   8.616  1.5061  2.7709  2.7526
  665MOL0     H89762   9.382   7.904   8.458 -0.1488 -0.6632  1.2960
  665MOL0     H89763   9.569   8.234   8.207 -1.5502  1.3327  0.1518
  665MOL0     H89764   9.586   8.236   8.380  1.2918 -1.1277  0.9739
  665MOL0     H89765   9.302   8.214   8.249  1.2457 -1.8289  0.5535
  665MOL0     H89766   9.378   8.375   8.257  0.6758  0.4895  0.0726
  665MOL0     H89767   9.412   8.354   8.508  0.7034 -1.0241 -1.6503
  665MOL0     H89768   9.338   8.202   8.512  0.4097  1.1279  1.1443
  665MOL0     H89769   9.123   8.294   8.433 -3.4455  3.0156  1.2888
  665MOL0     H89770   9.158   8.388   8.575  1.5582  2.5663  0.7973
  665MOL0     H89771   9.244   8.698   8.293 -1.7533 -0.4525 -0.1525
  665MOL0     H89772   9.737   7.985   8.251 -1.9101 -1.5013 -1.6315
  665MOL0     H89773   9.870   7.704   8.317 -4.5514  0.4731  1.3688
  665MOL0     H89774   9.937   7.874   8.299  0.7766  1.4683  2.2825
  665MOL0     H89775   9.961   7.783   8.443 -1.6093 -3.0939  1.5278
  666MOL0     O89776   5.411   7.046   9.166  0.0517 -0.3829  0.2798
  666MOL0     C89777   5.435   7.099   9.274 -0.3946  0.3957 -0.5767
  666MOL0     O89778   5.563   7.133   9.314  0.3482  0.0131 -0.5360
  666MOL0     C89779   5.664   7.100   9.221  0.2855  1.2775  0.3246
  666MOL0     C89780   5.738   6.980   9.240  0.3439 -0.5388 -0.6878
  666MOL0     C89781   5.840   6.954   9.154  0.0435  0.1304 -0.3893
  666MOL0     C89782   5.871   7.037   9.047 -0.1997  0.3932 -0.0191
  666MOL0     O89783   5.983   7.009   8.972  1.2012  0.7671  0.0182
  666MOL0     C89784   6.039   7.117   8.894  0.2021 -0.0699 -0.3121
  666MOL0     C89785   6.158   7.061   8.822  1.0064  0.3708 -1.2274
  666MOL0     C89786   6.235   7.180   8.742  0.5050  0.2127  1.0088
  666MOL0     C89787   6.383   7.134   8.711 -0.4618 -0.4341 -0.8918
  666MOL0     C89788   6.475   7.254   8.684  0.4702 -0.0520  0.8574
  666MOL0     C89789   6.569   7.278   8.795 -0.2170  0.4076  0.5441
  666MOL0     C89790   6.680   7.386   8.769  0.1594 -0.1328 -0.3107
  666MOL0     C89791   6.623   7.524   8.731 -0.3839  0.0949  0.8475
  666MOL0     N89792   6.537   7.597   8.819  0.3592 -0.4073  0.4181
  666MOL0     C89793   6.561   7.609   8.954  0.9703  0.1012  0.5074
  666MOL0     C89794   6.462   7.681   8.995  0.3394  0.3282 -0.3547
  666MOL0     C89795   6.430   7.728   9.138 -0.6079 -0.4527 -0.2702
  666MOL0     C89796   6.403   7.599   9.219 -0.7272  0.4779  0.1629
  666MOL0     C89797   6.281   7.528   9.147  1.2828  0.8605 -0.2694
  666MOL0     C89798   6.232   7.431   9.253 -0.0273 -1.0215 -0.4444
  666MOL0     O89799   6.335   7.329   9.259 -1.0942 -0.0813 -1.0617
  666MOL0     C89800   6.294   7.201   9.268  0.4113 -0.2763  0.0835
  666MOL0     C89801   6.163   7.153   9.301  0.9179 -0.7134 -0.9803
  666MOL0     C89802   6.129   7.015   9.300 -0.8963 -0.4303 -0.0145
  666MOL0     C89803   6.234   6.920   9.273  1.2196  0.2090  0.6902
  666MOL0     C89804   6.205   6.774   9.288 -0.1383  0.8513 -0.4000
  666MOL0     O89805   6.072   6.733   9.292 -0.1237  0.5916 -0.2715
  666MOL0     C89806   6.049   6.596   9.312 -0.4167 -0.1600 -0.5988
  666MOL0     C89807   6.071   6.508   9.204  0.0234  0.3034 -0.1033
  666MOL0     C89808   6.034   6.365   9.222  0.0330 -0.1952  0.0770
  666MOL0     C89809   5.967   6.318   9.337  0.0446 -0.2687 -0.4057
  666MOL0     O89810   5.913   6.191   9.354  0.8037 -0.3034  0.8955
  666MOL0     C89811   5.959   6.086   9.275 -0.6553 -0.2186 -0.7722
  666MOL0     C89812   5.844   6.025   9.196 -0.3336  0.9266  0.1068
  666MOL0     C89813   5.785   6.100   9.076 -0.6080 -0.8515  0.1971
  666MOL0     C89814   5.669   6.026   9.019  0.6176 -0.1864 -0.2769
  666MOL0     C89815   5.593   6.101   8.924  0.4261 -0.3339  0.4333
  666MOL0     C89816   5.494   6.200   8.985 -0.2168 -0.7062 -0.4001
  666MOL0     C89817   5.423   6.303   8.889 -0.1705  0.1391 -0.5505
  666MOL0     C89818   5.276   6.324   8.901  0.0172  0.5503 -0.4752
  666MOL0    Cl89819   5.198   6.161   8.896 -0.3291  0.3661  0.0945
  666MOL0     C89820   5.951   6.418   9.434 -0.2645  0.1330  0.0422
  666MOL0     C89821   6.001   6.550   9.434  0.7960 -0.3976 -0.0207
  666MOL0     O89822   6.295   6.693   9.281 -0.9893  0.0542 -0.1058
  666MOL0     C89823   6.365   6.971   9.241 -0.3535  0.0328 -0.3361
  666MOL0     C89824   6.390   7.114   9.233  0.1886  0.5176  0.3651
  666MOL0     N89825   6.371   7.709   8.886 -0.2378  0.6767 -0.2893
  666MOL0     N89826   6.415   7.648   8.783 -0.1817  0.5979  0.0103
  666MOL0     C89827   5.790   7.151   9.023  0.5900  1.0739 -1.0175
  666MOL0     C89828   5.691   7.182   9.113 -0.3074 -0.8633  0.8243
  666MOL0     C89829   5.321   7.140   9.352 -0.8881  0.2009  0.4166
  666MOL0     C89830   5.216   7.046   9.358 -0.9283 -0.2859 -0.9652
  666MOL0     C89831   5.106   7.062   9.440  0.9624  0.4482 -1.1163
  666MOL0     C89832   5.078   7.185   9.507 -0.7537  0.2638  0.6930
  666MOL0     O89833   4.961   7.208   9.568 -0.1217 -0.8055 -0.2296
  666MOL0     C89834   4.861   7.112   9.609 -0.0166 -0.2881 -1.0771
  666MOL0     C89835   4.779   7.083   9.475 -1.3758 -0.3829 -0.3255
  666MOL0     C89836   4.653   6.993   9.506 -1.0701 -0.4683  0.7873
  666MOL0     C89837   4.548   7.067   9.591 -1.2170 -0.7965  0.3065
  666MOL0     C89838   4.428   6.986   9.594  0.1994  0.0673 -1.5564
  666MOL0     C89839   4.317   6.930   9.592 -0.8581  0.1441 -0.5389
  666MOL0     C89840   5.188   7.274   9.506  0.3047 -0.4065 -0.4768
  666MOL0     C89841   5.300   7.258   9.427 -0.1753 -0.2558 -0.3254
  666MOL0     C89842   5.391   7.375   9.418 -1.0819 -0.0745  0.6462
  666MOL0     H89843   5.704   6.909   9.315 -0.5470  0.3706 -0.2223
  666MOL0     H89844   5.897   6.863   9.168 -0.0264  0.3991  2.1253
  666MOL0     H89845   5.957   7.148   8.829 -1.5114 -1.0946  1.2790
  666MOL0     H89846   6.066   7.201   8.958  0.6461 -1.7482  1.7954
  666MOL0     H89847   6.127   6.977   8.760 -2.0104  1.1044 -0.8864
  666MOL0     H89848   6.232   7.020   8.892 -1.0806  3.5019  3.3743
  666MOL0     H89849   6.237   7.272   8.800  0.0561 -0.4868  2.1671
  666MOL0     H89850   6.189   7.200   8.645  0.8885  1.5300  1.0863
  666MOL0     H89851   6.417   7.082   8.801 -1.9514  0.2086  0.0809
  666MOL0     H89852   6.365   7.066   8.628 -1.1848  0.7400 -1.7376
  666MOL0     H89853   6.535   7.230   8.596 -1.2028 -1.6813  0.0787
  666MOL0     H89854   6.413   7.339   8.654  2.4694  0.6681 -1.4951
  666MOL0     H89855   6.511   7.314   8.880 -0.6581  1.1909 -0.0759
  666MOL0     H89856   6.627   7.189   8.822 -0.3765  0.0008 -0.4050
  666MOL0     H89857   6.739   7.354   8.682 -0.2543  0.2013 -0.7183
  666MOL0     H89858   6.749   7.389   8.854 -0.2306 -0.4586  0.0200
  666MOL0     H89859   6.700   7.590   8.692 -1.4542  0.9223  0.0759
  666MOL0     H89860   6.565   7.490   8.645  2.7680 -1.2920 -0.9104
  666MOL0     H89861   6.639   7.576   9.022  1.4261  0.8560  0.3555
  666MOL0     H89862   6.520   7.776   9.177 -0.1440  1.7547 -3.6504
  666MOL0     H89863   6.352   7.805   9.143 -0.1387  0.0485 -0.5846
  666MOL0     H89864   6.496   7.546   9.202  0.0522  1.0153  2.3173
  666MOL0     H89865   6.400   7.623   9.326 -2.0044 -1.9075  0.7344
  666MOL0     H89866   6.324   7.464   9.069  2.4089  0.0975  0.9127
  666MOL0     H89867   6.210   7.603   9.113  0.7015  0.9300  1.0362
  666MOL0     H89868   6.135   7.395   9.215  0.4317 -1.1538 -1.5308
  666MOL0     H89869   6.225   7.476   9.352  0.7962  0.4122 -1.0173
  666MOL0     H89870   6.079   7.216   9.330  2.2679  1.0870 -0.7965
  666MOL0     H89871   6.029   6.979   9.320 -2.5659  3.5488 -0.2413
  666MOL0     H89872   6.131   6.544   9.121  2.4579 -0.4894  1.2155
  666MOL0     H89873   6.053   6.307   9.132 -0.6979 -0.0670 -0.1602
  666MOL0     H89874   6.044   6.112   9.210 -1.0432  0.1740 -1.1236
  666MOL0     H89875   5.988   6.009   9.348 -1.9801 -0.6969 -0.7293
  666MOL0     H89876   5.864   5.923   9.163  2.6831  1.4526  0.0904
  666MOL0     H89877   5.758   6.026   9.264 -1.3513  0.7568 -1.1285
  666MOL0     H89878   5.750   6.201   9.101  1.0520 -0.6051  1.7559
  666MOL0     H89879   5.861   6.117   8.999  0.5817 -0.5843  1.3825
  666MOL0     H89880   5.605   5.987   9.098 -1.2959 -0.3735 -1.8510
  666MOL0     H89881   5.716   5.943   8.966 -3.4263 -2.4942 -0.6422
  666MOL0     H89882   5.531   6.037   8.861  1.3980 -0.6369 -0.2531
  666MOL0     H89883   5.662   6.154   8.857  3.3164 -2.6188  1.4126
  666MOL0     H89884   5.424   6.140   9.044 -1.2923  0.5255 -0.3885
  666MOL0     H89885   5.544   6.264   9.058  0.5168 -1.1881 -0.4769
  666MOL0     H89886   5.441   6.262   8.790 -2.3393 -4.0863  0.5402
  666MOL0     H89887   5.479   6.397   8.894 -0.4978  0.3851 -1.5212
  666MOL0     H89888   5.249   6.381   8.990  0.5521 -0.7229  0.5252
  666MOL0     H89889   5.238   6.396   8.828 -2.3710  1.5554  1.6216
  666MOL0     H89890   5.910   6.366   9.520  0.6387 -2.0268 -0.7434
  666MOL0     H89891   5.985   6.614   9.520 -1.3678 -1.7682  0.6981
  666MOL0     H89892   6.441   6.896   9.221  0.5672  0.3229  1.7925
  666MOL0     H89893   6.489   7.156   9.215 -0.2554  1.4973  0.1302
  666MOL0     H89894   5.799   7.225   8.944 -0.4591  0.3273 -1.8572
  666MOL0     H89895   5.640   7.278   9.116 -1.8013 -1.6163  0.4482
  666MOL0     H89896   5.226   6.954   9.300  0.5373  0.8666 -2.6545
  666MOL0     H89897   5.037   6.979   9.448  1.8746 -0.5505 -2.8377
  666MOL0     H89898   4.797   7.164   9.681 -1.4299  0.5613 -2.8379
  666MOL0     H89899   4.905   7.027   9.660  1.5197 -0.3294 -2.3962
  666MOL0     H89900   4.849   7.047   9.400  2.1038 -1.5024  3.1041
  666MOL0     H89901   4.751   7.180   9.434 -2.2689 -0.5583 -0.1649
  666MOL0     H89902   4.700   6.901   9.541  2.5414  1.3092  0.9798
  666MOL0     H89903   4.598   6.960   9.417 -4.6622 -0.0222  2.6604
  666MOL0     H89904   4.584   7.076   9.693  0.6665 -2.0615 -0.2025
  666MOL0     H89905   4.532   7.169   9.553 -5.0887 -1.5167 -0.4707
  666MOL0     H89906   4.222   6.885   9.570 -0.9011 -0.9693  1.6405
  666MOL0     H89907   5.183   7.360   9.572 -1.2505 -0.3927 -0.5746
  666MOL0     H89908   5.346   7.470   9.444 -1.2664 -0.2433  0.9492
  666MOL0     H89909   5.451   7.368   9.509 -4.7863 -0.4155  3.2569
  666MOL0     H89910   5.438   7.374   9.319  2.0126 -4.3782  1.8382
  667MOL0     O89911   9.396   9.404   6.599 -0.6558 -0.3140 -0.0483
  667MOL0     C89912   9.390   9.318   6.684 -0.4364 -0.3334  0.3362
  667MOL0     O89913   9.492   9.231   6.725  0.0908  0.0085  0.8170
  667MOL0     C89914   9.622   9.228   6.677 -0.6148  0.5345  0.1309
  667MOL0     C89915   9.672   9.098   6.670  0.7501 -0.3074 -0.1283
  667MOL0     C89916   9.791   9.074   6.608  1.0041 -0.7178  0.5792
  667MOL0     C89917   9.860   9.180   6.547  0.5765  0.2214 -0.5530
  667MOL0     O89918   9.973   9.129   6.485 -0.3565  0.1798 -0.7318
  667MOL0     C89919  10.002   9.166   6.350 -0.1256 -0.7016  0.0937
  667MOL0     C89920  10.128   9.253   6.338 -0.4980  0.1369 -0.5220
  667MOL0     C89921  10.162   9.296   6.199 -0.0712  0.9238  0.8482
  667MOL0     C89922  10.180   9.184   6.088  0.1803 -0.2292  0.7964
  667MOL0     C89923  10.229   9.229   5.954 -1.0952  0.4794  0.0087
  667MOL0     C89924  10.123   9.312   5.882 -0.1595 -0.2386 -0.0127
  667MOL0     C89925  10.151   9.326   5.734 -0.5393 -0.1415 -0.0604
  667MOL0     C89926  10.019   9.351   5.660  0.3186  0.0328 -0.7525
  667MOL0     N89927   9.931   9.230   5.646  0.4178  0.0454  0.0229
  667MOL0     C89928   9.912   9.136   5.539 -0.3693 -0.2998 -0.3434
  667MOL0     C89929   9.807   9.053   5.568 -0.6793 -0.2002 -0.2647
  667MOL0     C89930   9.763   8.939   5.476  0.8208  0.1411  0.5965
  667MOL0     C89931   9.751   8.991   5.333  0.7040  0.7426  0.2724
  667MOL0     C89932   9.670   8.903   5.246  0.3915  1.4486  0.6908
  667MOL0     C89933   9.693   8.948   5.097 -0.2931 -0.2833 -1.0592
  667MOL0     O89934   9.678   9.093   5.075  1.0766 -0.0517  0.2882
  667MOL0     C89935   9.565   9.144   5.011 -0.0109  0.6620 -0.6620
  667MOL0     C89936   9.480   9.062   4.928  0.4108  0.6140  0.3070
  667MOL0     C89937   9.372   9.119   4.862 -0.0392 -0.1628  0.8372
  667MOL0     C89938   9.328   9.246   4.891 -0.1248 -0.5297 -0.2673
  667MOL0     C89939   9.210   9.302   4.819 -0.4183 -0.2333 -0.6927
  667MOL0     O89940   9.191   9.435   4.844  0.2346  1.1051 -0.1583
  667MOL0     C89941   9.059   9.485   4.838 -0.5425  0.5176 -0.6478
  667MOL0     C89942   8.940   9.417   4.852 -0.2116 -0.3497 -0.5783
  667MOL0     C89943   8.823   9.494   4.833 -0.0008 -0.0375  1.2065
  667MOL0     C89944   8.818   9.626   4.828  0.1053 -0.2934  0.9732
  667MOL0     O89945   8.696   9.683   4.832  0.4847 -0.0903 -0.6503
  667MOL0     C89946   8.682   9.808   4.891  0.8233 -0.0626 -0.1071
  667MOL0     C89947   8.526   9.827   4.906 -0.0843  0.0411  0.8927
  667MOL0     C89948   8.454   9.836   4.771  1.1068 -0.3094 -0.1956
  667MOL0     C89949   8.302   9.852   4.780  0.1040  0.4429 -0.1314
  667MOL0     C89950   8.225   9.814   4.909  0.5917 -0.6737 -0.3615
  667MOL0     C89951   8.074   9.838   4.896 -0.7459  0.3425  0.1868
  667MOL0     C89952   7.991   9.775   5.012  0.4120  0.5788  0.5258
  667MOL0     C89953   7.854   9.827   5.037 -0.5489 -0.6972  0.1845
  667MOL0    Cl89954   7.756   9.807   4.888  0.3616 -0.6253  0.1890
  667MOL0     C89955   8.937   9.694   4.820 -0.6992  0.0978 -0.7940
  667MOL0     C89956   9.057   9.621   4.829  0.6678 -0.0913  0.7188
  667MOL0     O89957   9.130   9.220   4.770  0.4289  0.2978 -1.2451
  667MOL0     C89958   9.403   9.321   4.983 -0.4688  0.3036  0.9860
  667MOL0     C89959   9.511   9.269   5.041  0.6680 -0.1575 -0.3601
  667MOL0     N89960   9.770   9.092   5.693  0.2475 -0.0572  0.4292
  667MOL0     N89961   9.833   9.200   5.732 -0.0648  0.6593 -0.8724
  667MOL0     C89962   9.812   9.314   6.551 -1.1601  0.2125 -0.1527
  667MOL0     C89963   9.698   9.340   6.625  0.0417  1.1334  0.0963
  667MOL0     C89964   9.259   9.287   6.741 -1.1540  0.0329  0.2623
  667MOL0     C89965   9.243   9.153   6.780  0.5495  1.4542  0.9925
  667MOL0     C89966   9.122   9.120   6.829 -0.3435  0.0133  0.1334
  667MOL0     C89967   9.019   9.218   6.856 -1.0880  1.1992 -0.0333
  667MOL0     O89968   8.906   9.190   6.930  0.2067  0.1257 -0.7860
  667MOL0     C89969   8.900   9.209   7.072  0.4388  0.0510 -0.6170
  667MOL0     C89970   8.789   9.119   7.132  0.2785 -0.0417 -0.5252
  667MOL0     C89971   8.647   9.158   7.089  0.4954  0.5275 -0.2530
  667MOL0     C89972   8.548   9.040   7.113 -0.2499 -0.4648  0.1250
  667MOL0     C89973   8.535   9.024   7.255  0.8045  0.6293 -0.6402
  667MOL0     C89974   8.505   9.016   7.378  0.1308  0.0802  0.2588
  667MOL0     C89975   9.030   9.350   6.808  0.0679 -0.0782  0.9783
  667MOL0     C89976   9.147   9.380   6.741 -0.4360 -1.1030  0.6586
  667MOL0     C89977   9.164   9.527   6.711  0.6537  0.1078 -0.1664
  667MOL0     H89978   9.620   9.022   6.726  1.4706 -2.4655 -2.2124
  667MOL0     H89979   9.818   8.969   6.602  2.7577 -0.4350  2.3808
  667MOL0     H89980  10.027   9.083   6.284 -0.6038  1.0233 -2.3798
  667MOL0     H89981   9.915   9.206   6.296  0.6908  2.1988  0.7093
  667MOL0     H89982  10.225   9.205   6.356  2.2885  4.7743 -1.5119
  667MOL0     H89983  10.122   9.340   6.404 -1.6749 -1.6313  1.8618
  667MOL0     H89984  10.257   9.350   6.201  0.9254 -0.7352  0.3577
  667MOL0     H89985  10.080   9.355   6.156 -0.5590 -2.3445 -3.3950
  667MOL0     H89986  10.243   9.104   6.127 -0.3182 -0.9005  0.2285
  667MOL0     H89987  10.081   9.142   6.069 -0.7398  1.6536  1.1669
  667MOL0     H89988  10.313   9.299   5.950  1.7235 -2.6157  0.6598
  667MOL0     H89989  10.253   9.137   5.901  0.2955 -0.6528  2.4329
  667MOL0     H89990  10.027   9.262   5.889  1.8855 -4.2652  3.4005
  667MOL0     H89991  10.114   9.404   5.941 -2.4181 -1.1180  1.1335
  667MOL0     H89992  10.205   9.238   5.699  0.8924  0.8363 -0.3636
  667MOL0     H89993  10.223   9.405   5.711  0.4275 -1.0003 -0.0433
  667MOL0     H89994   9.963   9.429   5.712 -1.5645 -0.3791 -2.0530
  667MOL0     H89995  10.045   9.388   5.560 -1.5209  1.1354 -0.8556
  667MOL0     H89996   9.982   9.114   5.459  0.8539  0.4877  0.4808
  667MOL0     H89997   9.823   8.849   5.493 -0.3766 -0.3960  2.3862
  667MOL0     H89998   9.658   8.917   5.501  0.2890 -1.3043 -2.3742
  667MOL0     H89999   9.710   9.093   5.326 -0.5392  0.2269 -0.1785
  667MOL0     H90000   9.854   8.999   5.296 -0.0100  2.9070 -1.4762
  667MOL0     H90001   9.561   8.905   5.259  0.1353  1.4646 -1.2567
  667MOL0     H90002   9.703   8.799   5.250 -4.8147 -0.6587 -1.9157
  667MOL0     H90003   9.620   8.884   5.046 -0.1243 -2.6944  1.4645
  667MOL0     H90004   9.790   8.918   5.057  0.3288  1.8543 -1.2874
  667MOL0     H90005   9.507   8.962   4.896 -0.1926  1.1722 -2.2335
  667MOL0     H90006   9.333   9.040   4.798 -0.8671 -1.1206  2.4531
  667MOL0     H90007   8.938   9.309   4.864 -0.6616 -0.1407  1.5348
  667MOL0     H90008   8.724   9.450   4.845 -0.2687 -0.3122 -1.4040
  667MOL0     H90009   8.730   9.798   4.988  0.1764  2.9327  0.6247
  667MOL0     H90010   8.729   9.888   4.832 -1.2933  2.2359  1.1346
  667MOL0     H90011   8.490   9.745   4.968 -1.8248  3.3351  4.6771
  667MOL0     H90012   8.509   9.917   4.966  2.9316  1.5864 -0.3313
  667MOL0     H90013   8.495   9.913   4.705  0.6185 -0.0144 -0.1615
  667MOL0     H90014   8.464   9.738   4.722 -3.2387 -1.3231  0.4794
  667MOL0     H90015   8.264   9.776   4.710  2.6059 -0.6633 -0.3868
  667MOL0     H90016   8.274   9.953   4.749 -0.3823  0.4523  0.3157
  667MOL0     H90017   8.266   9.872   4.991 -0.2780  2.8670 -2.2386
  667MOL0     H90018   8.238   9.708   4.932 -0.3512 -0.4079  1.5745
  667MOL0     H90019   8.051   9.945   4.897  0.4374  0.6233 -0.8194
  667MOL0     H90020   8.042   9.800   4.799  1.4846  0.3438 -0.6058
  667MOL0     H90021   8.039   9.789   5.109 -1.4245  2.3519  1.2580
  667MOL0     H90022   7.992   9.668   4.991  1.9545  0.8593 -1.0417
  667MOL0     H90023   7.805   9.776   5.121  1.9796 -0.4604  1.9114
  667MOL0     H90024   7.863   9.933   5.062 -1.9814  0.0429 -2.0923
  667MOL0     H90025   8.944   9.802   4.817 -2.8357  0.4333  1.9459
  667MOL0     H90026   9.153   9.673   4.837  1.9827 -2.4482  1.1766
  667MOL0     H90027   9.376   9.425   5.001 -2.1545  0.1718 -0.5529
  667MOL0     H90028   9.562   9.335   5.111  3.2490 -0.5215 -1.7648
  667MOL0     H90029   9.870   9.395   6.507 -1.5749 -0.2447 -1.6089
  667MOL0     H90030   9.651   9.437   6.618 -0.5532  0.8942  0.6762
  667MOL0     H90031   9.319   9.076   6.788 -0.7475  0.2894  2.6659
  667MOL0     H90032   9.095   9.020   6.861  2.0898 -0.6603  0.2104
  667MOL0     H90033   8.867   9.311   7.094  1.7181  0.3356  0.0547
  667MOL0     H90034   9.000   9.216   7.115  1.4708 -0.0217 -2.8617
  667MOL0     H90035   8.793   9.123   7.241  2.5406 -0.9310 -0.5216
  667MOL0     H90036   8.809   9.019   7.094 -0.5386  0.6843 -3.0636
  667MOL0     H90037   8.648   9.192   6.985 -4.4947  1.4738 -0.2625
  667MOL0     H90038   8.611   9.245   7.145  1.8376  1.3209 -0.5818
  667MOL0     H90039   8.448   9.055   7.072 -0.5281 -2.9013 -0.2164
  667MOL0     H90040   8.586   8.948   7.068 -2.4259 -1.8911  1.0632
  667MOL0     H90041   8.484   8.989   7.479  0.4715 -1.6050 -0.0890
  667MOL0     H90042   8.944   9.413   6.829 -1.0086 -1.9663  2.5480
  667MOL0     H90043   9.253   9.562   6.765  1.6563 -3.8597  1.1229
  667MOL0     H90044   9.178   9.552   6.606 -1.1368  2.1506  0.0222
  667MOL0     H90045   9.082   9.586   6.753 -0.6361 -0.5139 -1.7342
  668MOL0     O90046   6.366   0.265   1.369  0.7394 -0.1327 -0.1180
  668MOL0     C90047   6.417   0.167   1.315 -0.7045  0.8132  0.2323
  668MOL0     O90048   6.363   0.039   1.305  0.9452 -0.6456  0.2649
  668MOL0     C90049   6.234  -0.004   1.338  0.1562 -0.4557 -0.3498
  668MOL0     C90050   6.156  -0.072   1.254 -0.1420 -0.6662 -0.2106
  668MOL0     C90051   6.032  -0.123   1.281  0.7246 -0.0166 -0.4246
  668MOL0     C90052   5.980  -0.102   1.411 -0.0712  0.6588 -0.1471
  668MOL0     O90053   5.863  -0.156   1.450  0.0681  0.4538  0.5882
  668MOL0     C90054   5.747  -0.119   1.380  0.6218 -0.6060 -0.0283
  668MOL0     C90055   5.653  -0.237   1.381 -0.5893  0.2136  0.1912
  668MOL0     C90056   5.631  -0.287   1.521  1.0345 -0.2613  0.0392
  668MOL0     C90057   5.552  -0.419   1.535  0.5338 -0.5452  0.0290
  668MOL0     C90058   5.532  -0.454   1.686 -0.5748 -0.2259  0.4226
  668MOL0     C90059   5.427  -0.567   1.690 -0.8420  0.3131 -0.4432
  668MOL0     C90060   5.397  -0.597   1.843  0.2840  0.8182  0.1160
  668MOL0     C90061   5.312  -0.728   1.865  0.6671  0.3126  1.4851
  668MOL0     N90062   5.388  -0.844   1.903  0.0340 -0.7379 -0.9127
  668MOL0     C90063   5.509  -0.892   1.847  0.0247  0.1213 -0.6073
  668MOL0     C90064   5.556  -0.985   1.937 -0.1615  0.0403 -0.0951
  668MOL0     C90065   5.678  -1.064   1.936  1.0429 -0.8555 -0.1468
  668MOL0     C90066   5.675  -1.186   2.030  1.1147 -0.0030 -0.9575
  668MOL0     C90067   5.671  -1.166   2.184  0.1619 -0.1988  0.4928
  668MOL0     C90068   5.740  -1.280   2.263  0.5157  0.1631 -0.2398
  668MOL0     O90069   5.689  -1.408   2.206  0.0623 -0.0919  0.0572
  668MOL0     C90070   5.699  -1.521   2.287 -0.4055  0.0398  0.6519
  668MOL0     C90071   5.761  -1.528   2.413  0.0571  0.4355  1.5148
  668MOL0     C90072   5.759  -1.652   2.482  0.7758 -0.3176 -0.7077
  668MOL0     C90073   5.684  -1.764   2.431 -1.2887 -0.0704 -0.3582
  668MOL0     C90074   5.672  -1.887   2.505  0.3597 -0.1769  0.0716
  668MOL0     O90075   5.566  -1.968   2.473  0.0834  0.0957  0.2300
  668MOL0     C90076   5.558  -2.098   2.532 -0.8354 -1.0268  1.5496
  668MOL0     C90077   5.666  -2.181   2.567  0.2854  0.1135 -0.6544
  668MOL0     C90078   5.643  -2.296   2.641 -0.4809  0.3584 -0.3052
  668MOL0     C90079   5.519  -2.350   2.662  0.9848  0.0149 -0.3172
  668MOL0     O90080   5.478  -2.474   2.708 -0.3908  0.0745  0.5991
  668MOL0     C90081   5.578  -2.529   2.793 -0.7748 -0.0080 -0.5336
  668MOL0     C90082   5.530  -2.650   2.874 -0.1372 -1.0284 -0.0633
  668MOL0     C90083   5.483  -2.766   2.784 -0.8303  0.5685 -0.4685
  668MOL0     C90084   5.424  -2.877   2.876 -0.1137 -0.3911  0.4314
  668MOL0     C90085   5.403  -2.991   2.768  0.3884  0.1471 -0.9152
  668MOL0     C90086   5.360  -3.123   2.839 -0.6622 -0.6729 -1.1198
  668MOL0     C90087   5.332  -3.240   2.746 -0.1516  0.6911 -0.5940
  668MOL0     C90088   5.294  -3.362   2.832  0.2991  0.4542 -0.4722
  668MOL0    Cl90089   5.226  -3.478   2.701 -0.1463  0.1529 -0.0140
  668MOL0     C90090   5.412  -2.283   2.601 -0.3777  0.3080 -0.4908
  668MOL0     C90091   5.439  -2.163   2.537  0.2333 -0.7547  0.2567
  668MOL0     O90092   5.750  -1.901   2.601 -0.5618  0.7137  1.2910
  668MOL0     C90093   5.621  -1.752   2.306 -0.5447  0.6950  0.1057
  668MOL0     C90094   5.639  -1.636   2.235  1.4715 -0.1955  0.0601
  668MOL0     N90095   5.458  -0.996   2.036  0.1515 -0.2667  0.3997
  668MOL0     N90096   5.373  -0.898   2.029  0.0053  0.2854 -1.6934
  668MOL0     C90097   6.066  -0.043   1.507 -0.2310 -0.2252 -0.2487
  668MOL0     C90098   6.185   0.016   1.468  0.3788 -0.0057  0.2208
  668MOL0     C90099   6.562   0.187   1.283  0.1702 -0.2877  0.8268
  668MOL0     C90100   6.623   0.073   1.226 -0.3909  0.1493 -0.1052
  668MOL0     C90101   6.759   0.074   1.199  0.4358 -0.4234 -0.4054
  668MOL0     C90102   6.842   0.183   1.221  0.2846  0.0771 -0.2969
  668MOL0     O90103   6.982   0.164   1.216  0.0331 -0.0219  0.4443
  668MOL0     C90104   7.061   0.226   1.314 -0.7070  0.1137  0.2956
  668MOL0     C90105   7.133   0.340   1.243  1.2835 -0.6255  0.2673
  668MOL0     C90106   7.204   0.435   1.342 -0.6620  0.0933  0.9551
  668MOL0     C90107   7.277   0.551   1.270  0.9536 -0.0489  0.5345
  668MOL0     C90108   7.404   0.502   1.198  0.2504  0.2836 -1.1135
  668MOL0     C90109   7.503   0.473   1.139  0.3628  1.1337 -0.3565
  668MOL0     C90110   6.784   0.296   1.265  0.9508 -0.4234 -0.0574
  668MOL0     C90111   6.647   0.302   1.298  0.5214  1.0235 -0.0743
  668MOL0     C90112   6.599   0.434   1.362 -0.0749  0.0140 -0.7301
  668MOL0     H90113   6.203  -0.090   1.158  4.4415 -1.1648  1.8707
  668MOL0     H90114   5.978  -0.174   1.201 -2.4272  0.6004  1.1361
  668MOL0     H90115   5.722  -0.023   1.428  4.0966  0.2075  0.4532
  668MOL0     H90116   5.760  -0.085   1.277 -0.1270 -1.5350 -0.4376
  668MOL0     H90117   5.699  -0.317   1.322 -2.1203  0.5094 -1.5161
  668MOL0     H90118   5.560  -0.213   1.328  0.1532 -1.1783 -1.8680
  668MOL0     H90119   5.575  -0.214   1.580  0.1344 -3.3688  3.3793
  668MOL0     H90120   5.727  -0.294   1.574 -0.3283  1.7157  3.0698
  668MOL0     H90121   5.453  -0.400   1.491 -1.8052 -3.3532  3.5051
  668MOL0     H90122   5.591  -0.502   1.477  1.5724  0.3169 -0.5286
  668MOL0     H90123   5.628  -0.481   1.731  1.1529 -2.1279 -3.8123
  668MOL0     H90124   5.481  -0.372   1.737 -1.4061 -0.0909 -0.5842
  668MOL0     H90125   5.333  -0.538   1.641 -0.6093  1.2952 -0.3390
  668MOL0     H90126   5.456  -0.653   1.629  0.7558  1.5015 -1.4410
  668MOL0     H90127   5.352  -0.507   1.885 -1.6590 -0.1277  0.1592
  668MOL0     H90128   5.493  -0.616   1.893  0.3115 -2.0811 -0.8594
  668MOL0     H90129   5.239  -0.693   1.939 -1.0832 -1.3503  0.6320
  668MOL0     H90130   5.256  -0.732   1.771 -1.4824  2.0321  2.6027
  668MOL0     H90131   5.556  -0.865   1.753 -0.7626 -2.7760 -1.9541
  668MOL0     H90132   5.700  -1.107   1.838  1.2682 -1.1303  0.0231
  668MOL0     H90133   5.755  -0.989   1.959  0.5612  0.2097 -1.8184
  668MOL0     H90134   5.602  -1.257   1.990 -0.6750  2.1258 -1.6870
  668MOL0     H90135   5.773  -1.227   2.002  0.1737 -1.6303 -2.0351
  668MOL0     H90136   5.568  -1.155   2.219  0.3810  1.4322  0.6722
  668MOL0     H90137   5.710  -1.067   2.209  1.7297 -0.3663 -1.0783
  668MOL0     H90138   5.714  -1.271   2.369 -0.3122  3.5633 -0.6134
  668MOL0     H90139   5.848  -1.279   2.250  0.6400 -0.2058  0.6880
  668MOL0     H90140   5.813  -1.449   2.466  0.9535 -0.1099  1.4739
  668MOL0     H90141   5.791  -1.662   2.585 -1.4935 -3.0057 -0.1203
  668MOL0     H90142   5.764  -2.142   2.540 -0.1338  0.4587 -1.7121
  668MOL0     H90143   5.728  -2.359   2.668 -0.6984  0.4830  0.6991
  668MOL0     H90144   5.659  -2.571   2.733 -1.2723 -1.1305 -0.4325
  668MOL0     H90145   5.617  -2.452   2.860 -2.6146  0.1778  0.3776
  668MOL0     H90146   5.604  -2.678   2.950 -0.9201  1.5168  1.7470
  668MOL0     H90147   5.446  -2.609   2.930  0.7985  1.0736 -0.0909
  668MOL0     H90148   5.403  -2.726   2.721 -0.7450  0.4859 -0.6293
  668MOL0     H90149   5.562  -2.817   2.729 -0.5315  0.7747 -0.2288
  668MOL0     H90150   5.331  -2.844   2.923 -1.4930 -1.5246 -1.3744
  668MOL0     H90151   5.505  -2.903   2.946 -0.4012  1.6382  1.6121
  668MOL0     H90152   5.498  -3.013   2.716  1.0745  1.9901 -0.5038
  668MOL0     H90153   5.325  -2.958   2.699 -1.1329  1.4856  1.3317
  668MOL0     H90154   5.430  -3.146   2.920  0.4913  2.7405 -0.9948
  668MOL0     H90155   5.269  -3.098   2.894  1.2506 -0.1169  2.0712
  668MOL0     H90156   5.419  -3.263   2.684  0.6167 -0.4027  0.8039
  668MOL0     H90157   5.243  -3.231   2.683  0.4582 -1.7870 -1.9369
  668MOL0     H90158   5.382  -3.409   2.877  0.6693  0.4849 -1.1598
  668MOL0     H90159   5.225  -3.324   2.909 -1.1282  0.4261 -1.6793
  668MOL0     H90160   5.313  -2.326   2.614  0.7247 -1.5009  3.9701
  668MOL0     H90161   5.354  -2.100   2.512 -1.0285 -1.7143  1.9293
  668MOL0     H90162   5.565  -1.837   2.266  2.0440 -1.1513  0.1485
  668MOL0     H90163   5.621  -1.612   2.130  1.9476  1.3060  0.2932
  668MOL0     H90164   6.033  -0.026   1.609  0.0137  0.0183 -0.2093
  668MOL0     H90165   6.248   0.058   1.546 -1.7282  0.6323  1.6464
  668MOL0     H90166   6.565  -0.018   1.218 -2.1368  1.1006  1.0795
  668MOL0     H90167   6.814  -0.016   1.173 -0.9477 -1.1557 -0.8605
  668MOL0     H90168   7.142   0.161   1.350 -1.2427  1.0843  3.5518
  668MOL0     H90169   6.992   0.248   1.396 -1.5643 -2.4453  0.3682
  668MOL0     H90170   7.057   0.404   1.196 -0.0416 -0.8377  2.0451
  668MOL0     H90171   7.211   0.305   1.175  0.7592  0.9746 -1.2350
  668MOL0     H90172   7.279   0.391   1.408 -0.5290  1.0565  1.4649
  668MOL0     H90173   7.121   0.478   1.399 -2.3681  3.7166 -3.5886
  668MOL0     H90174   7.204   0.603   1.208 -0.0505 -0.4563  1.3400
  668MOL0     H90175   7.311   0.620   1.347  3.2917  0.3589 -0.7451
  668MOL0     H90176   7.582   0.462   1.067  1.4057  1.4536  0.7142
  668MOL0     H90177   6.838   0.385   1.297 -0.6865  0.2730  0.9184
  668MOL0     H90178   6.516   0.474   1.303 -1.9495 -0.2366  1.5977
  668MOL0     H90179   6.545   0.408   1.453 -0.8800 -3.1030 -1.9638
  668MOL0     H90180   6.670   0.512   1.390 -1.5493 -0.0811  4.2687
  669MOL0     O90181   2.364   3.061   9.942  0.4414 -0.2684 -0.1724
  669MOL0     C90182   2.471   3.115   9.959 -0.0628  1.4543 -0.7160
  669MOL0     O90183   2.563   3.072  10.059  0.0548  0.1248  0.3566
  669MOL0     C90184   2.536   2.973  10.144  0.1144  0.1441 -0.4589
  669MOL0     C90185   2.649   2.890  10.176  1.0580 -0.5496  0.4889
  669MOL0     C90186   2.636   2.790  10.273 -0.8106  1.4091  1.0186
  669MOL0     C90187   2.520   2.768  10.335 -0.1899  0.0786 -0.5882
  669MOL0     O90188   2.510   2.665  10.425  1.1420  0.4251 -0.8767
  669MOL0     C90189   2.456   2.541  10.370 -0.2544 -0.1003 -0.1290
  669MOL0     C90190   2.533   2.423  10.446  0.3593  0.3855 -0.1831
  669MOL0     C90191   2.679   2.442  10.464 -0.6827  0.5184 -0.5096
  669MOL0     C90192   2.728   2.295  10.507 -0.2186 -0.3478 -0.2076
  669MOL0     C90193   2.882   2.281  10.507 -0.1763 -0.1039 -0.6119
  669MOL0     C90194   2.958   2.274  10.379  0.3240  0.1499  0.0444
  669MOL0     C90195   2.938   2.140  10.306 -0.3818 -0.0760  0.2812
  669MOL0     C90196   3.017   2.144  10.176 -0.3753  0.7199 -0.3769
  669MOL0     N90197   3.135   2.065  10.186 -0.4083  0.4826 -0.5374
  669MOL0     C90198   3.165   1.935  10.149  0.1418 -0.8875  0.0405
  669MOL0     C90199   3.285   1.904  10.201 -0.4881  0.4498 -0.2621
  669MOL0     C90200   3.351   1.767  10.184  0.0053 -0.1567  0.1388
  669MOL0     C90201   3.382   1.710  10.049 -0.3234  0.1686 -0.6433
  669MOL0     C90202   3.523   1.752   9.991  0.4920  0.2637 -0.2047
  669MOL0     C90203   3.515   1.900   9.936 -0.1132  0.0213 -0.7421
  669MOL0     O90204   3.626   1.934   9.857  0.1171 -1.2767  0.1722
  669MOL0     C90205   3.743   1.974   9.917 -1.2117 -1.2833 -0.1677
  669MOL0     C90206   3.768   2.010  10.052  0.3411  0.4136 -0.0157
  669MOL0     C90207   3.895   2.050  10.099 -1.0065  0.4657  0.0600
  669MOL0     C90208   4.006   2.065  10.006 -0.3030  0.6261 -0.0131
  669MOL0     C90209   4.144   2.091  10.052  0.2018  0.2482 -0.7528
  669MOL0     O90210   4.243   2.110   9.963  0.6537 -1.2149  0.2706
  669MOL0     C90211   4.369   2.154  10.003  1.0603 -1.2689  0.2559
  669MOL0     C90212   4.381   2.266  10.077  0.5583 -0.4541 -0.6892
  669MOL0     C90213   4.509   2.309  10.111  0.1363  0.4555 -0.7081
  669MOL0     C90214   4.618   2.233  10.081 -0.4509 -0.4181  1.2836
  669MOL0     O90215   4.750   2.253  10.114 -0.6819 -0.3189  0.5995
  669MOL0     C90216   4.776   2.386  10.165  0.4329 -0.0663 -0.4611
  669MOL0     C90217   4.921   2.382  10.212  0.4206 -0.1967 -0.6014
  669MOL0     C90218   4.964   2.519  10.268 -0.2899  0.2900 -0.2337
  669MOL0     C90219   5.088   2.519  10.351 -0.4456 -0.3416 -0.3182
  669MOL0     C90220   5.093   2.644  10.426 -0.4194  0.9850 -0.2464
  669MOL0     C90221   5.196   2.624  10.539  0.1893  0.4330  0.2122
  669MOL0     C90222   5.254   2.742  10.610 -0.1173  0.3579  0.4729
  669MOL0     C90223   5.318   2.832  10.511 -0.4633  0.7372  0.5379
  669MOL0    Cl90224   5.464   2.757  10.436  0.1081 -0.1623 -0.4238
  669MOL0     C90225   4.603   2.141   9.981  0.7040 -0.2362 -0.8966
  669MOL0     C90226   4.480   2.102   9.942  0.1647  0.0142  0.3558
  669MOL0     O90227   4.152   2.098  10.178  0.0396  0.0201  0.3180
  669MOL0     C90228   3.977   2.037   9.877  0.3461  0.0156  0.9217
  669MOL0     C90229   3.853   1.991   9.828  0.6847 -1.2150 -1.2642
  669MOL0     N90230   3.325   2.015  10.270 -0.6163 -0.3644  0.4466
  669MOL0     N90231   3.243   2.109  10.254 -0.4641 -0.9873  0.7639
  669MOL0     C90232   2.408   2.849  10.310  0.1928  0.3307  1.5677
  669MOL0     C90233   2.415   2.945  10.212  0.2487 -0.2980  0.1734
  669MOL0     C90234   2.503   3.241   9.886  0.3622  0.6962  0.7797
  669MOL0     C90235   2.556   3.346   9.956  0.2104 -0.3334  0.8436
  669MOL0     C90236   2.566   3.470   9.898 -0.8846  0.6085  0.7380
  669MOL0     C90237   2.522   3.490   9.768 -0.5798 -0.6723  0.0437
  669MOL0     O90238   2.523   3.622   9.723 -0.8732  0.4438 -0.2857
  669MOL0     C90239   2.435   3.658   9.618  0.3973 -0.7956  0.4661
  669MOL0     C90240   2.294   3.681   9.675 -0.0572 -0.4742 -0.7615
  669MOL0     C90241   2.182   3.614   9.595  0.0596  0.2656 -0.1425
  669MOL0     C90242   2.122   3.704   9.488 -0.6493 -1.5141  0.2071
  669MOL0     C90243   2.203   3.723   9.363 -0.1678 -0.5162  0.0579
  669MOL0     C90244   2.262   3.723   9.264 -0.5334 -0.0425  0.2311
  669MOL0     C90245   2.481   3.382   9.692  0.1708  0.5290 -0.2541
  669MOL0     C90246   2.476   3.258   9.754  0.6530 -0.0076 -0.6202
  669MOL0     C90247   2.415   3.149   9.668  0.6047  0.6219 -0.8950
  669MOL0     H90248   2.740   2.904  10.119 -0.7211  1.3334 -2.1048
  669MOL0     H90249   2.711   2.714  10.290 -2.9166 -0.5333  2.3553
  669MOL0     H90250   2.346   2.544  10.371 -0.2860  0.7700 -2.0793
  669MOL0     H90251   2.482   2.544  10.264 -1.7983  0.9239 -0.5065
  669MOL0     H90252   2.524   2.331  10.387 -0.2698 -0.4777  1.1862
  669MOL0     H90253   2.476   2.414  10.539  2.0623 -0.4902  0.8175
  669MOL0     H90254   2.705   2.510  10.545  0.8134 -1.9868  1.2346
  669MOL0     H90255   2.716   2.474  10.366  2.4069 -2.1028 -0.3813
  669MOL0     H90256   2.683   2.260  10.600  1.0812  0.8158  0.8969
  669MOL0     H90257   2.687   2.221  10.437  2.2455 -0.4023 -1.7168
  669MOL0     H90258   2.917   2.366  10.565 -2.6930  0.7787 -0.2758
  669MOL0     H90259   2.910   2.197  10.571 -0.9770 -0.1093 -0.2593
  669MOL0     H90260   2.934   2.363  10.320 -2.1737  0.3966  1.2761
  669MOL0     H90261   3.064   2.273  10.403  0.3558  0.3729 -0.0811
  669MOL0     H90262   2.834   2.122  10.278  0.4476 -3.4200 -1.1414
  669MOL0     H90263   2.976   2.064  10.374 -3.1343  0.6706  2.8472
  669MOL0     H90264   2.947   2.115  10.098  0.6148 -1.5098 -0.5005
  669MOL0     H90265   3.044   2.243  10.138  0.0657  0.2612 -1.2926
  669MOL0     H90266   3.094   1.868  10.102  0.2281 -1.8606  1.2552
  669MOL0     H90267   3.442   1.766  10.246 -1.3370 -2.9802  2.3229
  669MOL0     H90268   3.275   1.702  10.228  0.0052  2.3584  4.3353
  669MOL0     H90269   3.387   1.604  10.078 -3.3222  0.4488  1.3285
  669MOL0     H90270   3.300   1.737   9.982 -0.9151 -1.1025 -0.4585
  669MOL0     H90271   3.541   1.698   9.898 -4.3949 -1.1128 -0.6289
  669MOL0     H90272   3.606   1.754  10.062  1.0280  0.5895 -0.8304
  669MOL0     H90273   3.502   1.978  10.012 -0.2808  2.6168 -3.2389
  669MOL0     H90274   3.434   1.909   9.863 -0.0734  0.9706 -0.6921
  669MOL0     H90275   3.685   2.006  10.121  0.3561 -0.4152 -0.0350
  669MOL0     H90276   3.907   2.082  10.202 -0.9559  1.7075 -0.3134
  669MOL0     H90277   4.290   2.314  10.112  0.1866 -0.5240 -1.5351
  669MOL0     H90278   4.514   2.389  10.184  1.5897 -1.9548  2.0290
  669MOL0     H90279   4.772   2.460  10.085  0.1841 -0.3406 -0.7048
  669MOL0     H90280   4.715   2.416  10.252  0.6171  0.3761 -0.4859
  669MOL0     H90281   4.925   2.308  10.293  0.7846  0.2915 -0.1623
  669MOL0     H90282   4.991   2.341  10.139  2.1027  1.1011  0.1899
  669MOL0     H90283   4.975   2.589  10.185  1.6622  3.4219  2.3809
  669MOL0     H90284   4.881   2.564  10.323 -2.2098 -0.3033 -2.4998
  669MOL0     H90285   5.177   2.501  10.291  0.7613  1.3903  0.8614
  669MOL0     H90286   5.088   2.440  10.426 -3.3544  0.4699  0.6812
  669MOL0     H90287   5.002   2.674  10.479 -0.0504  3.2360 -0.7919
  669MOL0     H90288   5.113   2.730  10.362 -0.6325  3.5036  2.8193
  669MOL0     H90289   5.149   2.569  10.620  0.2738  0.8556  0.5545
  669MOL0     H90290   5.272   2.553  10.505 -3.0172 -2.2696 -1.8231
  669MOL0     H90291   5.334   2.708  10.677 -2.4254  0.0724  3.2887
  669MOL0     H90292   5.177   2.791  10.670 -0.6607 -1.9091  1.7392
  669MOL0     H90293   5.245   2.870  10.438  0.0802  2.8718  1.0406
  669MOL0     H90294   5.349   2.923  10.564 -0.7422  1.0165  0.2297
  669MOL0     H90295   4.691   2.088   9.945  1.0935 -2.0741  2.3687
  669MOL0     H90296   4.456   2.032   9.862 -0.8946  1.7623 -0.9542
  669MOL0     H90297   4.064   2.039   9.812  0.2684 -2.3665  0.6805
  669MOL0     H90298   3.844   1.956   9.726 -2.2726  0.7670 -1.7782
  669MOL0     H90299   2.320   2.804  10.354  0.2038 -3.5021 -1.7439
  669MOL0     H90300   2.337   3.017  10.192  0.7657  0.2555  0.1267
  669MOL0     H90301   2.591   3.337  10.058 -3.0191 -1.0896  1.9768
  669MOL0     H90302   2.600   3.562   9.945 -1.0216  0.4719  1.1047
  669MOL0     H90303   2.438   3.585   9.537  2.1549 -5.3242  4.1899
  669MOL0     H90304   2.466   3.756   9.580  0.5587 -1.2988 -0.7466
  669MOL0     H90305   2.276   3.788   9.685 -0.0341 -0.6052  0.8478
  669MOL0     H90306   2.280   3.630   9.770 -1.0860  2.9127  1.0308
  669MOL0     H90307   2.099   3.580   9.658  1.6523 -0.3757  1.7201
  669MOL0     H90308   2.221   3.525   9.545  1.4282  1.5896 -1.5330
  669MOL0     H90309   2.017   3.693   9.460 -2.2870  2.1389  3.9285
  669MOL0     H90310   2.123   3.800   9.540 -2.8762 -1.4608  0.2563
  669MOL0     H90311   2.313   3.706   9.171  1.3259  2.9256  0.6018
  669MOL0     H90312   2.457   3.399   9.588  1.7807 -1.2880 -0.9819
  669MOL0     H90313   2.442   3.045   9.690  2.0283  0.4722 -3.0942
  669MOL0     H90314   2.306   3.160   9.671  0.5978  0.3895  0.1000
  669MOL0     H90315   2.456   3.170   9.569 -0.1569  1.2034 -1.0932
  670MOL0     O90316   7.729   3.814   5.060  0.3815  0.3185  0.0683
  670MOL0     C90317   7.690   3.699   5.079 -0.6637 -0.3542  0.5665
  670MOL0     O90318   7.600   3.672   5.169  0.2837  0.6362 -0.2371
  670MOL0     C90319   7.570   3.771   5.266 -0.3567 -0.4559 -0.9394
  670MOL0     C90320   7.666   3.841   5.348 -0.2224 -0.3881 -0.6438
  670MOL0     C90321   7.617   3.931   5.445 -0.1739 -0.0996 -0.2089
  670MOL0     C90322   7.491   3.988   5.429 -0.0628 -0.0825  0.1961
  670MOL0     O90323   7.477   4.099   5.510  0.2163 -0.0259 -0.1043
  670MOL0     C90324   7.355   4.174   5.485  0.4096 -0.6843  0.1702
  670MOL0     C90325   7.336   4.287   5.579  0.2942 -0.3308  0.4723
  670MOL0     C90326   7.231   4.396   5.535  0.1468 -0.5625 -0.0521
  670MOL0     C90327   7.248   4.524   5.611 -0.6562 -0.2518  0.1169
  670MOL0     C90328   7.173   4.523   5.742  0.3258  0.0417  0.1102
  670MOL0     C90329   7.205   4.630   5.858 -0.7915 -0.9829  0.4194
  670MOL0     C90330   7.358   4.624   5.899  0.0421  0.8412 -0.0012
  670MOL0     C90331   7.397   4.736   5.985  0.5517  0.8509 -1.0566
  670MOL0     N90332   7.493   4.682   6.087  0.6838  0.6104  0.6722
  670MOL0     C90333   7.478   4.690   6.223  0.0007  0.0814 -0.2336
  670MOL0     C90334   7.595   4.647   6.268 -0.8845  0.6070 -1.2316
  670MOL0     C90335   7.650   4.653   6.412 -0.6006  0.1094  0.1389
  670MOL0     C90336   7.544   4.630   6.511 -1.0189  0.4805  0.1126
  670MOL0     C90337   7.590   4.656   6.661  0.2634 -0.0279 -0.0397
  670MOL0     C90338   7.518   4.567   6.764  0.8308 -0.9590  0.2915
  670MOL0     O90339   7.543   4.428   6.735  0.3860  0.2298 -0.7233
  670MOL0     C90340   7.649   4.350   6.782  0.3505  0.9796 -0.2793
  670MOL0     C90341   7.633   4.214   6.770 -0.1842  0.2988  0.3467
  670MOL0     C90342   7.739   4.125   6.819  0.4101  0.7378 -0.4463
  670MOL0     C90343   7.847   4.185   6.885  0.0304  0.0171 -0.0048
  670MOL0     C90344   7.961   4.103   6.941 -0.0390  0.2457 -0.1005
  670MOL0     O90345   8.063   4.173   6.989  0.1355 -0.8823  0.2904
  670MOL0     C90346   8.165   4.117   7.057  0.1753 -1.6426  1.1469
  670MOL0     C90347   8.289   4.168   7.022 -0.3422 -0.2562  0.2757
  670MOL0     C90348   8.399   4.150   7.101  0.0089 -0.2215 -0.3673
  670MOL0     C90349   8.389   4.070   7.218  0.4856 -0.5347  0.3197
  670MOL0     O90350   8.484   4.044   7.311 -0.5284  0.0163 -0.1262
  670MOL0     C90351   8.588   4.146   7.330  0.4351 -0.1985 -0.0538
  670MOL0     C90352   8.653   4.129   7.465  0.3598 -0.6697 -0.4203
  670MOL0     C90353   8.784   4.200   7.484 -0.2312 -0.2025  0.4861
  670MOL0     C90354   8.842   4.178   7.625  0.7333  0.0041 -0.1021
  670MOL0     C90355   8.839   4.029   7.657  0.3276  1.0128 -0.2110
  670MOL0     C90356   8.902   3.986   7.785 -0.5586 -0.1799 -1.6492
  670MOL0     C90357   9.056   3.999   7.796 -0.3085  0.0600  0.7378
  670MOL0     C90358   9.104   4.070   7.927 -0.1972 -0.8720 -0.7651
  670MOL0    Cl90359   9.070   4.243   7.936 -0.1974  0.1341  0.0226
  670MOL0     C90360   8.261   4.026   7.253  0.3013  0.0781  0.6810
  670MOL0     C90361   8.151   4.038   7.165  0.0424 -0.1212 -0.4029
  670MOL0     O90362   7.963   3.983   6.929  0.4497  0.5395  0.6015
  670MOL0     C90363   7.866   4.325   6.891  1.0914  0.4147  0.8849
  670MOL0     C90364   7.760   4.406   6.844  0.4111  0.3399  0.5476
  670MOL0     N90365   7.674   4.601   6.160 -0.3381 -0.1744  0.3505
  670MOL0     N90366   7.614   4.633   6.054 -0.5271 -0.1065 -0.3079
  670MOL0     C90367   7.403   3.928   5.332 -0.1987 -0.1650  0.5507
  670MOL0     C90368   7.442   3.818   5.268 -0.4534  0.5175 -0.9657
  670MOL0     C90369   7.747   3.585   4.992 -0.6584 -0.1397  0.2460
  670MOL0     C90370   7.666   3.475   4.970 -0.1909 -0.6210 -1.1023
  670MOL0     C90371   7.701   3.369   4.885  1.4856 -0.5993  0.0747
  670MOL0     C90372   7.829   3.374   4.820 -0.5785 -0.2564 -0.5107
  670MOL0     O90373   7.864   3.269   4.742  1.1270 -0.3124  0.7609
  670MOL0     C90374   7.987   3.253   4.682 -1.0586 -0.0761 -0.6506
  670MOL0     C90375   8.007   3.104   4.690  0.5054 -0.0371 -0.8032
  670MOL0     C90376   8.134   3.071   4.609  0.0709 -0.7061 -0.5131
  670MOL0     C90377   8.133   2.919   4.562 -0.6326  1.0109 -0.5644
  670MOL0     C90378   8.030   2.889   4.462 -0.3822 -0.3199 -0.1344
  670MOL0     C90379   7.925   2.864   4.409  0.1168 -0.3679  0.0501
  670MOL0     C90380   7.908   3.486   4.841 -1.0256  0.5497  0.3077
  670MOL0     C90381   7.873   3.586   4.931 -0.2213 -0.3586 -0.4356
  670MOL0     C90382   7.975   3.688   4.974 -0.2796 -0.3842  0.4578
  670MOL0     H90383   7.767   3.801   5.346 -1.3453 -3.4791 -0.6417
  670MOL0     H90384   7.690   3.968   5.515 -0.7842 -4.0468  2.8877
  670MOL0     H90385   7.364   4.211   5.383 -4.4072 -0.5202 -0.4204
  670MOL0     H90386   7.260   4.121   5.477 -1.1281  2.0199 -0.4032
  670MOL0     H90387   7.429   4.339   5.604 -0.3870  2.2345 -1.8377
  670MOL0     H90388   7.290   4.235   5.663 -0.5380 -1.6639 -0.7681
  670MOL0     H90389   7.133   4.353   5.557 -0.4274 -0.1240 -1.5938
  670MOL0     H90390   7.238   4.417   5.427 -2.0238 -3.1925 -0.8033
  670MOL0     H90391   7.353   4.547   5.633 -0.4526 -1.0744  0.0603
  670MOL0     H90392   7.198   4.609   5.565 -0.4101  0.2756  0.8227
  670MOL0     H90393   7.065   4.513   5.736 -0.1934  0.4122  5.0414
  670MOL0     H90394   7.206   4.431   5.792 -2.7786 -0.6096  1.1959
  670MOL0     H90395   7.185   4.733   5.829 -0.5870 -1.5472 -1.9883
  670MOL0     H90396   7.155   4.607   5.953 -2.5030 -1.8872 -0.6346
  670MOL0     H90397   7.419   4.604   5.811 -1.6580 -2.4488 -0.5671
  670MOL0     H90398   7.370   4.531   5.955 -1.8451 -0.9428 -2.3590
  670MOL0     H90399   7.453   4.813   5.931  1.6876 -0.5160 -1.8747
  670MOL0     H90400   7.303   4.778   6.024  0.0469  0.6739 -2.0612
  670MOL0     H90401   7.391   4.737   6.266  0.8367  2.0529 -0.5504
  670MOL0     H90402   7.738   4.590   6.422  0.4837  0.6737 -3.9807
  670MOL0     H90403   7.692   4.753   6.422 -0.1523 -0.2348  2.2323
  670MOL0     H90404   7.450   4.685   6.509 -1.0445  0.4185 -0.6672
  670MOL0     H90405   7.522   4.523   6.501  0.2950  0.3950 -4.8817
  670MOL0     H90406   7.587   4.762   6.688  1.6637 -0.3254  1.4834
  670MOL0     H90407   7.696   4.630   6.663  0.9172  1.9306 -3.2692
  670MOL0     H90408   7.409   4.576   6.754  0.6590  1.2079  3.0048
  670MOL0     H90409   7.552   4.603   6.861  2.0062 -0.1916 -0.3783
  670MOL0     H90410   7.552   4.167   6.714  0.6938 -0.3378 -0.4057
  670MOL0     H90411   7.716   4.020   6.807  0.1782  0.7882 -0.4515
  670MOL0     H90412   8.296   4.219   6.926  0.8056 -2.4378 -0.8804
  670MOL0     H90413   8.498   4.194   7.093 -0.0017 -0.1883 -0.3234
  670MOL0     H90414   8.665   4.128   7.255  1.2051 -0.2892  0.7524
  670MOL0     H90415   8.554   4.250   7.329  1.0722  0.0114  0.1569
  670MOL0     H90416   8.581   4.156   7.543 -0.1137  0.0537 -1.0855
  670MOL0     H90417   8.666   4.020   7.466 -1.2703 -0.9889 -3.1303
  670MOL0     H90418   8.853   4.169   7.405 -2.2596  2.2740 -2.4999
  670MOL0     H90419   8.768   4.307   7.467  1.7289  0.3508  1.7167
  670MOL0     H90420   8.772   4.213   7.701  1.4784 -0.2609  0.7351
  670MOL0     H90421   8.946   4.211   7.633  1.9400 -3.6154  1.0961
  670MOL0     H90422   8.885   3.986   7.568 -0.8767 -2.2359  0.6002
  670MOL0     H90423   8.738   3.988   7.672  0.6759 -0.1589 -0.8843
  670MOL0     H90424   8.866   4.049   7.867  0.7643  0.7562 -1.7608
  670MOL0     H90425   8.873   3.882   7.802 -1.2330  0.4963  2.3297
  670MOL0     H90426   9.097   4.050   7.708  0.2137 -2.3786 -0.5279
  670MOL0     H90427   9.109   3.903   7.794  1.0921  0.8029  0.8090
  670MOL0     H90428   9.060   4.026   8.017  0.1544  1.1400  0.4426
  670MOL0     H90429   9.213   4.075   7.929 -0.0402 -2.5657 -2.4178
  670MOL0     H90430   8.243   3.971   7.345  1.8757  1.3170  1.7840
  670MOL0     H90431   8.056   3.990   7.185  1.3434 -2.3684  0.8695
  670MOL0     H90432   7.945   4.364   6.954  0.5639  0.8462  1.2842
  670MOL0     H90433   7.770   4.513   6.857  1.4578 -0.0853  4.4860
  670MOL0     H90434   7.310   3.983   5.325  0.7596  1.6379  1.3884
  670MOL0     H90435   7.369   3.771   5.203  0.0979 -2.4297  0.3500
  670MOL0     H90436   7.569   3.473   5.020 -0.7093  2.1767 -1.7955
  670MOL0     H90437   7.635   3.286   4.862  1.5238  0.2462 -3.7461
  670MOL0     H90438   8.074   3.298   4.730 -1.9163  1.1287 -0.1664
  670MOL0     H90439   7.975   3.297   4.582 -4.2813  0.0257 -0.3352
  670MOL0     H90440   7.917   3.056   4.649  0.8121 -3.2873  1.8816
  670MOL0     H90441   8.032   3.070   4.791  0.1893  0.2101 -0.6411
  670MOL0     H90442   8.214   3.081   4.683 -1.0135  2.0039  0.4486
  670MOL0     H90443   8.154   3.127   4.517 -0.4677 -0.8085 -0.6989
  670MOL0     H90444   8.229   2.895   4.517  0.0219 -1.0166  1.6752
  670MOL0     H90445   8.123   2.850   4.647  1.2998 -0.8720 -1.7741
  670MOL0     H90446   7.827   2.838   4.375  0.5728 -2.8444  0.4590
  670MOL0     H90447   8.006   3.498   4.795 -1.3105  1.3582 -0.1116
  670MOL0     H90448   7.976   3.709   5.081 -1.0319  1.6658  0.1056
  670MOL0     H90449   8.077   3.651   4.960  1.0498  3.4486 -1.2213
  670MOL0     H90450   7.951   3.779   4.919 -0.3486 -0.7176 -0.0636
  671MOL0     O90451   4.793  10.946   7.125 -0.2314  0.1947  0.5700
  671MOL0     C90452   4.779  11.027   7.212  1.1030 -0.4435 -0.2536
  671MOL0     O90453   4.684  11.132   7.212 -0.3027  0.2875 -0.1777
  671MOL0     C90454   4.622  11.139   7.094  0.1593 -1.4123 -0.1998
  671MOL0     C90455   4.640  11.244   6.998 -0.1902 -0.5225 -0.6469
  671MOL0     C90456   4.555  11.264   6.896  0.1771 -0.2998 -0.3128
  671MOL0     C90457   4.449  11.173   6.877 -0.5039 -0.4947 -0.6818
  671MOL0     O90458   4.372  11.208   6.762 -0.6399 -1.2026  0.2459
  671MOL0     C90459   4.243  11.149   6.730  0.2530 -0.8613  0.9139
  671MOL0     C90460   4.170  11.228   6.626 -0.0560 -0.8118  0.0937
  671MOL0     C90461   4.143  11.366   6.679  0.2037 -0.5722 -1.0116
  671MOL0     C90462   4.069  11.440   6.559 -0.2444  0.3301  0.5862
  671MOL0     C90463   4.068  11.591   6.592  0.1509 -0.1892 -0.0466
  671MOL0     C90464   4.062  11.663   6.456  0.1495  0.3067 -0.1912
  671MOL0     C90465   4.111  11.812   6.479  0.0114 -0.4479 -0.1003
  671MOL0     C90466   4.261  11.824   6.457  0.2077  1.0375 -0.5865
  671MOL0     N90467   4.311  11.964   6.473 -0.7806 -0.4155  0.5746
  671MOL0     C90468   4.361  12.039   6.370  0.0661 -0.4257  0.4620
  671MOL0     C90469   4.396  12.155   6.433  0.5030  0.1140 -0.8911
  671MOL0     C90470   4.468  12.276   6.379  0.6998  0.0109  1.2451
  671MOL0     C90471   4.522  12.266   6.240 -0.0023 -0.1213  0.3667
  671MOL0     C90472   4.568  12.402   6.178  0.1747  0.0058 -0.6018
  671MOL0     C90473   4.620  12.386   6.024 -0.7543  0.1643  0.1703
  671MOL0     O90474   4.531  12.323   5.931  0.2392  0.0811 -0.0497
  671MOL0     C90475   4.443  12.403   5.858  0.8705  0.7163 -0.2725
  671MOL0     C90476   4.400  12.537   5.885 -0.0461 -1.0044 -0.7316
  671MOL0     C90477   4.312  12.592   5.788  0.5738 -1.1799 -0.8197
  671MOL0     C90478   4.265  12.520   5.680 -0.1557 -0.8400 -0.4128
  671MOL0     C90479   4.176  12.593   5.589 -0.1398  0.5618 -0.2826
  671MOL0     O90480   4.138  12.518   5.481 -0.2444  0.1719 -0.6443
  671MOL0     C90481   4.059  12.579   5.385 -0.7172 -0.0976  0.4139
  671MOL0     C90482   3.926  12.527   5.364  0.1700  0.3208 -0.2882
  671MOL0     C90483   3.841  12.585   5.272  0.8119 -0.6642  0.6815
  671MOL0     C90484   3.893  12.684   5.189  0.7330  0.2293  0.6597
  671MOL0     O90485   3.828  12.748   5.085  0.3186  0.2663 -0.3960
  671MOL0     C90486   3.706  12.713   5.028  0.0065 -0.1709 -1.0897
  671MOL0     C90487   3.601  12.808   5.078  0.6641  0.0355  0.3125
  671MOL0     C90488   3.512  12.731   5.161 -0.5664 -0.1309 -0.3822
  671MOL0     C90489   3.377  12.819   5.198 -0.7887 -0.5934 -0.1117
  671MOL0     C90490   3.263  12.721   5.230  0.4171  0.2679  0.2626
  671MOL0     C90491   3.210  12.657   5.095 -0.4306 -0.1382 -0.8757
  671MOL0     C90492   3.102  12.557   5.130 -0.1307  0.7506  0.4090
  671MOL0     C90493   3.080  12.450   5.024  0.8189  0.3067 -0.1046
  671MOL0    Cl90494   2.974  12.323   5.099  0.0405  0.5204  0.0644
  671MOL0     C90495   4.015  12.747   5.219  0.4613 -0.6076  0.5670
  671MOL0     C90496   4.101  12.690   5.313  0.2701 -0.6771 -0.1141
  671MOL0     O90497   4.143  12.707   5.614 -0.4782 -0.1900 -0.0616
  671MOL0     C90498   4.294  12.381   5.665 -0.7668 -0.1532  0.6364
  671MOL0     C90499   4.373  12.329   5.764  1.2963 -0.6941  0.2803
  671MOL0     N90500   4.374  12.148   6.569 -0.1448  0.1812 -0.9965
  671MOL0     N90501   4.322  12.027   6.593  0.6164 -0.7463 -0.8141
  671MOL0     C90502   4.426  11.068   6.969 -0.4174  1.0342 -0.0394
  671MOL0     C90503   4.517  11.052   7.066  0.0448  0.4898 -1.9978
  671MOL0     C90504   4.871  11.048   7.321 -0.1500  0.1453  0.2529
  671MOL0     C90505   4.923  11.183   7.340  0.5123 -0.4735  0.3228
  671MOL0     C90506   5.024  11.203   7.428 -0.3137 -0.3733 -0.4841
  671MOL0     C90507   5.070  11.095   7.510  0.3500 -0.2714  0.0213
  671MOL0     O90508   5.173  11.126   7.601  0.4852  0.5138 -0.6075
  671MOL0     C90509   5.137  11.210   7.714 -0.5122  0.7582 -0.3926
  671MOL0     C90510   5.002  11.180   7.781  0.2468 -0.5186  0.7520
  671MOL0     C90511   5.004  11.058   7.871 -0.4475 -0.2051 -0.0497
  671MOL0     C90512   4.866  11.021   7.946  0.7334  0.5738 -0.5814
  671MOL0     C90513   4.837  11.115   8.051  0.6314 -0.1099  1.1280
  671MOL0     C90514   4.795  11.197   8.126  0.0555 -0.4198  0.2659
  671MOL0     C90515   5.012  10.971   7.494  1.2580 -1.3455 -0.1682
  671MOL0     C90516   4.911  10.938   7.410 -0.2534 -0.2126  0.3351
  671MOL0     C90517   4.861  10.789   7.402 -0.4185 -0.3714  0.0607
  671MOL0     H90518   4.723  11.312   7.013 -2.4171  1.8074  2.2018
  671MOL0     H90519   4.569  11.341   6.822 -2.1121 -3.6147 -4.6832
  671MOL0     H90520   4.253  11.045   6.698  0.8298 -0.4041 -0.4650
  671MOL0     H90521   4.177  11.150   6.817  0.8702 -1.9237  1.4119
  671MOL0     H90522   4.080  11.172   6.600  1.0061 -4.4571  3.4168
  671MOL0     H90523   4.239  11.225   6.540  2.2900  0.3328  1.8284
  671MOL0     H90524   4.240  11.400   6.717 -0.1922 -2.8415  2.5211
  671MOL0     H90525   4.072  11.357   6.763 -0.5760  0.2430 -1.5710
  671MOL0     H90526   4.124  11.411   6.469 -0.3843 -1.1840  0.9664
  671MOL0     H90527   3.968  11.403   6.544 -0.7889  1.8627  0.2627
  671MOL0     H90528   3.994  11.616   6.668  1.3266 -1.2286  1.5084
  671MOL0     H90529   4.162  11.621   6.640  1.7350 -1.7898 -1.9449
  671MOL0     H90530   4.104  11.624   6.363 -0.7778  1.7568 -1.2737
  671MOL0     H90531   3.954  11.679   6.446 -0.0185  0.2987  1.4399
  671MOL0     H90532   4.080  11.857   6.574  0.1678 -1.4648  0.4508
  671MOL0     H90533   4.074  11.867   6.393 -1.7292 -3.0179 -1.0880
  671MOL0     H90534   4.303  11.765   6.539  1.2114  2.3169 -0.1486
  671MOL0     H90535   4.286  11.786   6.358 -2.9391  0.6104 -1.3365
  671MOL0     H90536   4.374  12.018   6.264 -3.0997 -2.2868  0.3062
  671MOL0     H90537   4.404  12.363   6.370  2.0989  0.9620 -5.5048
  671MOL0     H90538   4.556  12.299   6.441  1.3684  3.3628 -0.7040
  671MOL0     H90539   4.605  12.194   6.235 -2.2414 -2.7965 -0.4762
  671MOL0     H90540   4.456  12.217   6.168 -0.0440 -1.7723  1.4910
  671MOL0     H90541   4.637  12.455   6.243 -2.7027  2.0299  1.0176
  671MOL0     H90542   4.474  12.458   6.182 -0.6435 -1.3820  2.3228
  671MOL0     H90543   4.716  12.334   6.018  0.4680  2.4155 -0.8251
  671MOL0     H90544   4.642  12.485   5.984  2.8860  1.1428  3.8389
  671MOL0     H90545   4.436  12.598   5.967 -1.0031 -1.6711  0.2177
  671MOL0     H90546   4.282  12.695   5.805 -0.8988 -1.7833  0.5062
  671MOL0     H90547   3.892  12.447   5.429 -3.8436  0.4952 -1.8893
  671MOL0     H90548   3.743  12.539   5.260  1.0423 -0.7237 -1.1910
  671MOL0     H90549   3.699  12.717   4.919 -0.5192  1.6078 -1.0111
  671MOL0     H90550   3.687  12.607   5.050  0.9856  0.2746  2.5166
  671MOL0     H90551   3.646  12.887   5.140  1.9644  0.0599 -0.6317
  671MOL0     H90552   3.550  12.858   4.995  0.9084 -1.8777 -1.0610
  671MOL0     H90553   3.488  12.640   5.105 -1.4394 -0.0933 -0.0903
  671MOL0     H90554   3.562  12.691   5.250 -2.1229 -0.7960  0.2224
  671MOL0     H90555   3.356  12.884   5.113 -0.9502  2.6109  2.2120
  671MOL0     H90556   3.398  12.885   5.283 -7.0000  2.7919 -0.6019
  671MOL0     H90557   3.183  12.763   5.292 -0.7550 -3.2937  1.3675
  671MOL0     H90558   3.306  12.649   5.300 -1.0084  0.0069  0.8836
  671MOL0     H90559   3.175  12.732   5.024 -0.9129 -2.3173 -3.0609
  671MOL0     H90560   3.294  12.603   5.051 -2.0769 -3.0777 -0.6642
  671MOL0     H90561   3.006  12.609   5.140 -0.9302 -0.4088 -0.7863
  671MOL0     H90562   3.119  12.510   5.227  0.2188 -1.7236 -0.7746
  671MOL0     H90563   3.035  12.481   4.929  3.3947  1.3272 -1.0922
  671MOL0     H90564   3.179  12.412   4.998  2.1782  2.8306  1.0682
  671MOL0     H90565   4.033  12.846   5.179 -2.1303 -1.0889 -2.1251
  671MOL0     H90566   4.199  12.733   5.330  0.6815 -2.2858  1.9958
  671MOL0     H90567   4.254  12.322   5.584 -2.8300  0.9814  0.7680
  671MOL0     H90568   4.378  12.221   5.769 -0.8421 -0.7646  2.6909
  671MOL0     H90569   4.341  11.002   6.979  0.1322  0.0923 -1.2831
  671MOL0     H90570   4.494  10.979   7.143  0.3215  3.4088  1.1172
  671MOL0     H90571   4.888  11.267   7.281 -1.0747 -0.3618  1.3464
  671MOL0     H90572   5.072  11.300   7.433 -1.3295  0.0662  3.2545
  671MOL0     H90573   5.150  11.314   7.683 -1.1050  0.9277 -0.0859
  671MOL0     H90574   5.204  11.187   7.797  0.8444 -1.3757 -1.9606
  671MOL0     H90575   4.933  11.169   7.697 -0.4071  0.5003  1.1423
  671MOL0     H90576   4.977  11.278   7.822  0.5078  0.3726 -1.1064
  671MOL0     H90577   5.078  11.073   7.950  0.8969 -0.3085 -1.2440
  671MOL0     H90578   5.048  10.979   7.810  0.2613  0.3151 -0.2185
  671MOL0     H90579   4.788  11.016   7.869  2.4692 -1.7081 -2.3145
  671MOL0     H90580   4.878  10.924   7.995 -1.4348 -0.4912 -2.0271
  671MOL0     H90581   4.773  11.270   8.201  2.0445 -1.0388  1.5461
  671MOL0     H90582   5.017  10.887   7.563 -0.7886 -1.9112 -0.6360
  671MOL0     H90583   4.887  10.733   7.492 -0.0106 -1.2657 -0.5975
  671MOL0     H90584   4.756  10.781   7.373 -0.2883 -1.1001 -0.2308
  671MOL0     H90585   4.914  10.737   7.322 -3.1610 -0.8888 -1.5309
  672MOL0     O90586   2.788   8.824  10.280  0.8418 -0.6235 -0.0237
  672MOL0     C90587   2.679   8.844  10.224  0.7009  0.1507  0.8950
  672MOL0     O90588   2.660   8.829  10.093 -0.2899  0.4000  0.0579
  672MOL0     C90589   2.776   8.817  10.024 -0.5800 -0.4618  0.7292
  672MOL0     C90590   2.832   8.923   9.947  0.8864 -0.1115  0.4411
  672MOL0     C90591   2.936   8.904   9.856 -0.3501 -0.0205 -0.1880
  672MOL0     C90592   2.977   8.774   9.829  0.3633  0.6589  0.7168
  672MOL0     O90593   3.070   8.744   9.732 -0.5574 -0.0594 -0.9897
  672MOL0     C90594   3.178   8.833   9.720 -0.0272 -0.3115  0.0885
  672MOL0     C90595   3.314   8.776   9.667  0.5554  0.5519  0.0126
  672MOL0     C90596   3.295   8.750   9.514  0.2443 -0.8897 -0.6063
  672MOL0     C90597   3.396   8.653   9.459 -0.4933 -0.2680 -0.1687
  672MOL0     C90598   3.390   8.642   9.312  0.1986  0.3144  0.5097
  672MOL0     C90599   3.496   8.550   9.260 -0.2546  0.6797 -0.4674
  672MOL0     C90600   3.493   8.400   9.308 -0.4067 -0.0422  0.3382
  672MOL0     C90601   3.399   8.314   9.221 -0.6498  0.5407 -0.7210
  672MOL0     N90602   3.399   8.171   9.259  0.2372 -0.2131  0.1485
  672MOL0     C90603   3.276   8.109   9.303  0.3787  0.3494  0.2317
  672MOL0     C90604   3.316   7.997   9.368  0.2542  0.5720  0.4947
  672MOL0     C90605   3.219   7.900   9.428  0.4497  0.6018 -0.1865
  672MOL0     C90606   3.178   7.794   9.325  0.3071 -0.2558 -0.0536
  672MOL0     C90607   3.282   7.684   9.322  1.1770 -0.3701  0.3220
  672MOL0     C90608   3.273   7.605   9.454  0.3315  0.4041  0.2423
  672MOL0     O90609   3.382   7.501   9.460 -0.4885 -0.5294 -0.7841
  672MOL0     C90610   3.399   7.440   9.581 -0.4983  0.3926 -0.5661
  672MOL0     C90611   3.484   7.320   9.579 -0.4162 -0.5705 -1.3626
  672MOL0     C90612   3.501   7.234   9.695 -0.1664 -0.2633  0.2547
  672MOL0     C90613   3.443   7.267   9.817  1.0438  0.6574 -0.7190
  672MOL0     C90614   3.448   7.183   9.938  0.3833  0.2498 -0.4632
  672MOL0     O90615   3.526   7.067   9.931  0.3444  0.9417  0.1701
  672MOL0     C90616   3.535   6.985  10.039  0.1516 -1.5057  0.8717
  672MOL0     C90617   3.645   6.992  10.124 -0.4005  0.4925 -0.1248
  672MOL0     C90618   3.649   6.916  10.242 -0.0978  0.2369 -0.1144
  672MOL0     C90619   3.547   6.821  10.275  0.1594 -0.1137  0.8056
  672MOL0     O90620   3.555   6.729  10.372  1.0105 -0.0613 -0.6074
  672MOL0     C90621   3.603   6.769  10.499 -0.5986 -0.1233  0.4279
  672MOL0     C90622   3.499   6.817  10.602 -0.4383 -0.4558  0.1001
  672MOL0     C90623   3.564   6.833  10.736  0.4453 -0.3204  0.1880
  672MOL0     C90624   3.446   6.846  10.835 -0.0911 -0.2774  0.1436
  672MOL0     C90625   3.481   6.851  10.985 -0.3009  0.9958 -0.2284
  672MOL0     C90626   3.524   6.992  11.028 -1.2141  0.2692  0.0791
  672MOL0     C90627   3.528   7.010  11.179  0.7805  0.0715 -0.5525
  672MOL0     C90628   3.586   7.151  11.216 -0.5476 -0.4857 -0.4675
  672MOL0    Cl90629   3.754   7.150  11.176 -0.1860 -0.3013 -0.3210
  672MOL0     C90630   3.430   6.833  10.193 -0.3725  0.1043 -0.5277
  672MOL0     C90631   3.424   6.912  10.077 -0.7722  0.4739  0.2599
  672MOL0     O90632   3.382   7.222  10.036 -0.1340 -0.2565 -0.3889
  672MOL0     C90633   3.367   7.387   9.821  1.1877 -0.6466 -0.8812
  672MOL0     C90634   3.353   7.479   9.710  0.1027  0.5240  0.7423
  672MOL0     N90635   3.451   7.984   9.355 -0.1925 -0.1107  0.0976
  672MOL0     N90636   3.495   8.084   9.279 -0.4383  0.4328 -0.3776
  672MOL0     C90637   2.927   8.669   9.898 -0.0073  0.2006 -0.9372
  672MOL0     C90638   2.831   8.691  10.007 -0.4501  0.8131  0.0731
  672MOL0     C90639   2.561   8.868  10.313  0.7755 -0.2339  0.3765
  672MOL0     C90640   2.434   8.824  10.265 -0.7907  0.0695 -0.3616
  672MOL0     C90641   2.314   8.829  10.336  0.5620 -0.3976 -0.2293
  672MOL0     C90642   2.320   8.879  10.468  0.4498 -0.5179 -0.9343
  672MOL0     O90643   2.216   8.905  10.558 -0.8016 -0.1209  0.2725
  672MOL0     C90644   2.087   8.899  10.500 -0.6409  0.1730 -0.5281
  672MOL0     C90645   2.065   9.035  10.445 -0.0942 -0.1223  0.6203
  672MOL0     C90646   1.920   9.087  10.452 -0.1221 -0.1435 -0.3577
  672MOL0     C90647   1.833   8.994  10.362  0.1033 -1.1657 -0.0117
  672MOL0     C90648   1.688   9.037  10.368 -0.1450  0.5503 -0.9895
  672MOL0     C90649   1.584   9.093  10.362  0.5537  0.0613 -0.3840
  672MOL0     C90650   2.440   8.926  10.518  0.1446 -0.5125  0.5710
  672MOL0     C90651   2.562   8.920  10.441 -0.2569 -0.2852  0.6300
  672MOL0     C90652   2.693   8.974  10.500  1.3019 -0.1204 -0.2877
  672MOL0     H90653   2.798   9.024   9.965  1.5324  0.4478 -1.2736
  672MOL0     H90654   2.965   8.987   9.791  1.2458 -2.0870 -2.3088
  672MOL0     H90655   3.149   8.911   9.649 -1.0473 -2.9439 -2.5511
  672MOL0     H90656   3.198   8.875   9.819 -0.7942 -0.4120  0.2908
  672MOL0     H90657   3.357   8.695   9.726  0.8527  1.9720  1.8484
  672MOL0     H90658   3.388   8.856   9.681  1.5845 -0.7466  2.6103
  672MOL0     H90659   3.294   8.841   9.453  5.7994 -0.6559 -0.8357
  672MOL0     H90660   3.196   8.707   9.493 -1.1715  2.2596 -0.9612
  672MOL0     H90661   3.492   8.682   9.502  0.8063 -3.3725 -0.7057
  672MOL0     H90662   3.370   8.556   9.502  0.3885 -0.2098  0.5143
  672MOL0     H90663   3.295   8.593   9.292  0.8802 -0.6304 -0.5909
  672MOL0     H90664   3.393   8.746   9.279 -3.8660  1.1453  2.1894
  672MOL0     H90665   3.484   8.550   9.151 -0.4278 -1.8977 -0.5057
  672MOL0     H90666   3.588   8.602   9.286  0.7729 -1.3997  0.2690
  672MOL0     H90667   3.459   8.394   9.412 -1.2267  2.6558  0.3182
  672MOL0     H90668   3.592   8.357   9.292  0.2778  2.2191 -2.4629
  672MOL0     H90669   3.300   8.357   9.203 -1.4142 -1.7456 -2.4711
  672MOL0     H90670   3.436   8.316   9.118 -0.9131  0.9483 -0.8141
  672MOL0     H90671   3.178   8.156   9.293 -0.1442 -0.8549 -0.6083
  672MOL0     H90672   3.255   7.856   9.521 -3.5153 -0.5687  0.9941
  672MOL0     H90673   3.122   7.949   9.440 -1.0018 -2.0059 -0.5240
  672MOL0     H90674   3.088   7.747   9.367  0.9329 -1.2243  0.2183
  672MOL0     H90675   3.154   7.835   9.226 -0.0879  0.2349  0.2385
  672MOL0     H90676   3.385   7.719   9.314  1.3577 -1.2790 -2.3333
  672MOL0     H90677   3.272   7.630   9.228  1.4905  0.4712 -0.2084
  672MOL0     H90678   3.176   7.555   9.464 -0.0835  1.6177  3.2591
  672MOL0     H90679   3.283   7.669   9.542 -0.2786 -0.8874  1.2667
  672MOL0     H90680   3.543   7.298   9.490  2.4708 -1.2909  0.5752
  672MOL0     H90681   3.568   7.149   9.698  1.7955  1.2351  1.6389
  672MOL0     H90682   3.723   7.065  10.104 -1.3562  1.6190  0.1134
  672MOL0     H90683   3.745   6.914  10.293  0.9412  2.0550 -1.8741
  672MOL0     H90684   3.640   6.679  10.548 -1.3838  1.7059  4.8408
  672MOL0     H90685   3.687   6.839  10.487 -0.0283 -0.7419  0.7920
  672MOL0     H90686   3.458   6.912  10.566  2.8053  1.5285  1.2588
  672MOL0     H90687   3.425   6.736  10.609 -0.6423 -0.1504  1.7434
  672MOL0     H90688   3.624   6.745  10.764  1.1932 -0.0155 -0.3969
  672MOL0     H90689   3.623   6.924  10.726  0.8135 -0.5278  0.4549
  672MOL0     H90690   3.373   6.764  10.825  0.9942 -1.1906 -0.5577
  672MOL0     H90691   3.402   6.942  10.809  0.2932 -0.4776 -1.2860
  672MOL0     H90692   3.534   6.762  11.019  0.0090  1.3549  0.2452
  672MOL0     H90693   3.391   6.835  11.046 -1.0316  0.3834 -1.4205
  672MOL0     H90694   3.625   7.004  10.988 -2.1376  1.7509 -1.9695
  672MOL0     H90695   3.462   7.071  10.984  0.2954  1.2024 -0.4782
  672MOL0     H90696   3.585   6.926  11.217 -2.7774 -1.0944  2.8641
  672MOL0     H90697   3.426   6.996  11.215  0.8603  0.5793 -0.1191
  672MOL0     H90698   3.522   7.224  11.167 -2.0791 -1.6617 -0.3169
  672MOL0     H90699   3.573   7.180  11.321  0.5895  0.7450 -0.6457
  672MOL0     H90700   3.349   6.767  10.222  0.9508 -0.5866  1.8479
  672MOL0     H90701   3.331   6.905  10.020  0.4070 -0.8231 -1.6520
  672MOL0     H90702   3.320   7.421   9.913  3.7682 -2.3530  1.2235
  672MOL0     H90703   3.317   7.582   9.716 -0.1760  0.3635  1.9913
  672MOL0     H90704   2.974   8.573   9.880  0.2925 -0.0865  1.1686
  672MOL0     H90705   2.785   8.608  10.059 -0.9913 -0.2640 -1.9839
  672MOL0     H90706   2.432   8.779  10.166 -0.1386  0.5169 -0.5795
  672MOL0     H90707   2.221   8.796  10.292 -0.8636 -0.4777  2.6469
  672MOL0     H90708   2.014   8.886  10.580 -0.1515 -2.5410 -0.3929
  672MOL0     H90709   2.066   8.824  10.423 -0.9025 -0.2390 -0.0619
  672MOL0     H90710   2.092   9.029  10.340 -2.2835  0.9222 -0.0766
  672MOL0     H90711   2.129   9.112  10.490 -1.9346  1.8187  0.0949
  672MOL0     H90712   1.909   9.192  10.422 -2.4749 -0.4567 -0.7346
  672MOL0     H90713   1.874   9.063  10.548 -1.3365 -3.3362 -1.6052
  672MOL0     H90714   1.877   9.002  10.262  1.7159 -1.4635  0.6632
  672MOL0     H90715   1.839   8.896  10.409 -1.2148 -2.1021 -1.6716
  672MOL0     H90716   1.509   9.169  10.351  2.3932  1.8631 -1.3217
  672MOL0     H90717   2.438   8.949  10.624 -2.9633 -0.0111  0.5219
  672MOL0     H90718   2.678   9.045  10.582 -2.7484 -0.1751 -0.7933
  672MOL0     H90719   2.759   8.898  10.542  0.7646 -0.1368  0.5417
  672MOL0     H90720   2.756   9.015  10.421  1.0660  0.0745 -0.3763
  673MOL0     O90721   6.850   9.683   5.240  1.2138  0.2378 -0.0184
  673MOL0     C90722   6.817   9.569   5.267  0.6999 -0.3821  0.1834
  673MOL0     O90723   6.710   9.502   5.209  0.3202  0.3979 -0.5662
  673MOL0     C90724   6.581   9.543   5.238  0.4709  0.5410 -0.3124
  673MOL0     C90725   6.550   9.684   5.253 -0.7980  0.7973  1.0476
  673MOL0     C90726   6.419   9.725   5.284  0.2158  0.4809 -0.1257
  673MOL0     C90727   6.328   9.628   5.316  1.1259  0.6195 -0.0177
  673MOL0     O90728   6.199   9.661   5.354 -0.7165  0.4136 -0.0759
  673MOL0     C90729   6.174   9.803   5.370 -1.1306  0.3600 -0.1683
  673MOL0     C90730   6.035   9.816   5.436  0.7341 -0.2426  0.9323
  673MOL0     C90731   6.015   9.967   5.475 -0.0262  0.6595 -0.0425
  673MOL0     C90732   6.028  10.064   5.360  0.1304  0.5129  0.7006
  673MOL0     C90733   5.946  10.183   5.381 -0.6741  0.1174 -0.5111
  673MOL0     C90734   5.971  10.264   5.511  0.0021  0.2547  0.7327
  673MOL0     C90735   5.856  10.365   5.529 -0.2292  0.8516 -0.0655
  673MOL0     C90736   5.903  10.457   5.634  0.1480  0.2743  0.6489
  673MOL0     N90737   5.850  10.591   5.619 -1.0721 -0.6626 -0.4704
  673MOL0     C90738   5.720  10.625   5.641  0.7719 -0.2339  0.9632
  673MOL0     C90739   5.722  10.752   5.628 -0.1920  0.3201 -0.1522
  673MOL0     C90740   5.598  10.851   5.635 -1.1072  0.4938  1.1522
  673MOL0     C90741   5.504  10.806   5.529  0.5518  0.0590 -0.2662
  673MOL0     C90742   5.390  10.913   5.518  0.4149 -0.1445  0.0034
  673MOL0     C90743   5.267  10.886   5.416 -0.1940 -1.0625 -0.2042
  673MOL0     O90744   5.320  10.838   5.284 -0.5560 -0.3456  0.0067
  673MOL0     C90745   5.241  10.841   5.180  0.3923 -0.4553  0.0686
  673MOL0     C90746   5.296  10.770   5.078 -0.5285 -0.2001  0.0194
  673MOL0     C90747   5.213  10.738   4.958  0.8239 -0.7518  0.4718
  673MOL0     C90748   5.075  10.772   4.958  1.0368 -0.4241 -1.2112
  673MOL0     C90749   4.990  10.723   4.844 -0.1691 -0.4960  0.0366
  673MOL0     O90750   4.871  10.782   4.836  0.9128 -0.0175  0.3004
  673MOL0     C90751   4.774  10.749   4.744 -1.2310 -1.6029  0.4593
  673MOL0     C90752   4.788  10.665   4.629 -1.3246 -0.2267  0.8879
  673MOL0     C90753   4.684  10.650   4.533 -0.0100  0.0085 -0.3952
  673MOL0     C90754   4.562  10.715   4.554 -0.2785 -0.4607  0.2348
  673MOL0     O90755   4.463  10.702   4.462  0.1029  0.0221 -1.1075
  673MOL0     C90756   4.363  10.806   4.440  0.0640  0.1981  0.2818
  673MOL0     C90757   4.301  10.812   4.299 -0.0200  0.2502  0.0244
  673MOL0     C90758   4.210  10.936   4.294 -0.9941  0.6536 -0.6695
  673MOL0     C90759   4.167  10.951   4.139 -0.0191  0.0097 -0.3262
  673MOL0     C90760   4.089  11.065   4.120 -0.1318 -0.0202  0.4721
  673MOL0     C90761   4.059  11.094   3.975 -0.1810  0.3092  0.1051
  673MOL0     C90762   4.074  11.242   3.937 -1.9338  0.7517  0.6772
  673MOL0     C90763   4.012  11.283   3.799 -0.8623  0.3011 -0.5477
  673MOL0    Cl90764   4.105  11.194   3.675 -0.6669 -0.1154  0.1660
  673MOL0     C90765   4.546  10.804   4.666 -0.3493  0.3120 -0.1820
  673MOL0     C90766   4.655  10.809   4.760  0.1536 -2.1574 -0.6708
  673MOL0     O90767   5.032  10.632   4.779  0.2443  0.4318  0.2774
  673MOL0     C90768   5.029  10.853   5.058 -0.6841 -0.2206 -0.3907
  673MOL0     C90769   5.105  10.882   5.177 -0.3768 -0.2762  0.1329
  673MOL0     N90770   5.849  10.798   5.613  0.0369  0.8004  0.5072
  673MOL0     N90771   5.923  10.703   5.593  0.0383 -0.5879  0.0836
  673MOL0     C90772   6.352   9.492   5.287  0.5929  0.5612 -0.0650
  673MOL0     C90773   6.477   9.447   5.260  0.0300  0.3417  0.1436
  673MOL0     C90774   6.878   9.499   5.378  0.3277  0.0633 -0.5648
  673MOL0     C90775   6.875   9.358   5.373 -0.9656 -0.3926 -0.5612
  673MOL0     C90776   6.945   9.276   5.465  0.8356  0.4031 -0.1345
  673MOL0     C90777   7.007   9.320   5.575  0.2395 -0.1943  0.1889
  673MOL0     O90778   7.076   9.248   5.672 -0.2684 -0.5514 -0.0462
  673MOL0     C90779   7.095   9.110   5.651  0.6287 -0.3371  0.8191
  673MOL0     C90780   7.207   9.047   5.732  0.5096 -0.2071  1.0087
  673MOL0     C90781   7.340   9.070   5.668 -0.7157 -0.9029 -0.2099
  673MOL0     C90782   7.453   8.989   5.731 -0.9204 -0.5960 -0.1367
  673MOL0     C90783   7.436   8.850   5.701 -0.3201  0.2963 -0.7955
  673MOL0     C90784   7.435   8.735   5.671 -0.2113  0.6054  0.5765
  673MOL0     C90785   7.004   9.466   5.584  0.1492  0.1834  0.4598
  673MOL0     C90786   6.936   9.556   5.495  0.7745 -1.2395  0.1046
  673MOL0     C90787   6.926   9.706   5.540 -0.5026  0.0744  0.2292
  673MOL0     H90788   6.619   9.767   5.237 -0.4195  0.3766  0.4505
  673MOL0     H90789   6.414   9.833   5.294  0.1254  0.4940 -0.3082
  673MOL0     H90790   6.258   9.832   5.433  1.3101 -0.2782 -2.8952
  673MOL0     H90791   6.176   9.867   5.281  2.2208  0.6224 -0.0238
  673MOL0     H90792   6.025   9.752   5.523 -2.5527  0.3567  1.1378
  673MOL0     H90793   5.959   9.795   5.360 -0.6411  3.6733  0.9786
  673MOL0     H90794   6.089   9.996   5.550 -0.5883  3.2938 -0.3983
  673MOL0     H90795   5.914   9.961   5.519 -0.3720 -0.4972 -0.9622
  673MOL0     H90796   6.136  10.080   5.352  0.9676 -3.2012  2.4323
  673MOL0     H90797   6.010  10.005   5.270 -0.6419  1.2985  0.3282
  673MOL0     H90798   5.971  10.251   5.299  1.1401  0.5679  0.3535
  673MOL0     H90799   5.840  10.158   5.383 -0.8154  0.7681  0.5442
  673MOL0     H90800   5.968  10.197   5.598 -0.9953 -2.6872 -1.4154
  673MOL0     H90801   6.069  10.313   5.518 -0.6674  1.9559 -1.0781
  673MOL0     H90802   5.762  10.314   5.553  1.8719 -3.7949 -0.6656
  673MOL0     H90803   5.849  10.422   5.435 -1.2731 -0.3631 -0.7644
  673MOL0     H90804   5.879  10.416   5.733  3.3167 -1.4345  0.8242
  673MOL0     H90805   6.010  10.465   5.618 -0.4041  0.8954 -3.8269
  673MOL0     H90806   5.634  10.563   5.660  1.5877 -1.7575 -0.0681
  673MOL0     H90807   5.545  10.841   5.730 -0.9121 -1.9895  1.0606
  673MOL0     H90808   5.634  10.952   5.614  2.0168 -0.9622 -1.5253
  673MOL0     H90809   5.550  10.780   5.433  0.4086  2.2925 -0.9983
  673MOL0     H90810   5.461  10.715   5.573  0.4145 -0.3560 -1.2233
  673MOL0     H90811   5.442  11.007   5.494  1.1327 -0.8713 -1.4351
  673MOL0     H90812   5.351  10.919   5.619  2.7693 -0.2160  0.9849
  673MOL0     H90813   5.214  10.981   5.404 -0.4913 -0.9337  1.7324
  673MOL0     H90814   5.200  10.806   5.451  0.0785 -1.5873 -0.8580
  673MOL0     H90815   5.394  10.723   5.086 -0.1126  0.6888  0.4266
  673MOL0     H90816   5.253  10.698   4.865 -0.3217 -0.0953 -0.3220
  673MOL0     H90817   4.872  10.605   4.598  0.7835  2.9746 -0.1742
  673MOL0     H90818   4.684  10.584   4.446  0.8384  1.7219 -1.7629
  673MOL0     H90819   4.279  10.785   4.506 -2.6752  0.4433 -2.8606
  673MOL0     H90820   4.399  10.906   4.467 -2.3598  1.4192 -0.7526
  673MOL0     H90821   4.378  10.835   4.224  1.9952  2.7193  2.6313
  673MOL0     H90822   4.251  10.722   4.261 -1.3093  2.7236 -5.0183
  673MOL0     H90823   4.131  10.934   4.368  1.7578  3.5536  2.7175
  673MOL0     H90824   4.261  11.023   4.336 -2.1197  1.4197 -0.8537
  673MOL0     H90825   4.124  10.855   4.112  1.4942 -1.1414  1.1592
  673MOL0     H90826   4.252  10.953   4.069 -1.0501 -2.0790 -1.7332
  673MOL0     H90827   4.148  11.147   4.163  0.5947 -1.1415  1.6998
  673MOL0     H90828   3.996  11.067   4.178  0.2241  1.7407  1.0446
  673MOL0     H90829   4.139  11.045   3.919 -1.1734 -1.1195 -0.1329
  673MOL0     H90830   3.961  11.052   3.949  1.1611 -3.0555 -0.0643
  673MOL0     H90831   4.181  11.265   3.938 -1.7493 -0.0777  1.0405
  673MOL0     H90832   4.036  11.300   4.022 -3.2182  0.2220  0.4903
  673MOL0     H90833   3.912  11.240   3.797  0.0948 -2.0979 -2.0702
  673MOL0     H90834   4.010  11.392   3.790  1.4360  0.3268 -1.6930
  673MOL0     H90835   4.454  10.856   4.693 -0.4941 -0.1978  0.3362
  673MOL0     H90836   4.658  10.872   4.849  2.2882 -3.6062  0.3729
  673MOL0     H90837   4.924  10.872   5.077 -1.6896 -5.4866  0.8516
  673MOL0     H90838   5.066  10.923   5.269  2.4610 -2.9414  2.7516
  673MOL0     H90839   6.281   9.413   5.305  0.4772 -0.0614 -2.7861
  673MOL0     H90840   6.509   9.344   5.249 -1.9116 -0.1317 -1.6271
  673MOL0     H90841   6.828   9.320   5.282 -1.3558  3.4478 -2.1625
  673MOL0     H90842   6.949   9.168   5.451 -2.5368  0.2938 -1.1705
  673MOL0     H90843   7.107   9.081   5.547  2.6317 -1.4036  1.3000
  673MOL0     H90844   7.002   9.075   5.697 -0.4740 -1.1010 -1.8485
  673MOL0     H90845   7.191   8.941   5.751  2.6772 -0.4823  1.5580
  673MOL0     H90846   7.224   9.098   5.828 -0.6225 -0.7059  1.4916
  673MOL0     H90847   7.379   9.172   5.673 -0.3244 -0.9588 -1.7171
  673MOL0     H90848   7.344   9.041   5.562  2.9401 -0.4864 -0.3127
  673MOL0     H90849   7.555   9.025   5.714  1.0274 -3.2268  4.3105
  673MOL0     H90850   7.450   8.999   5.839  1.2319  0.6548 -0.1299
  673MOL0     H90851   7.427   8.631   5.645  1.0768  0.7565 -0.5319
  673MOL0     H90852   7.047   9.508   5.674 -0.0729  1.8735 -0.1699
  673MOL0     H90853   6.923   9.775   5.454  0.9435 -1.3783 -1.0381
  673MOL0     H90854   6.836   9.716   5.602 -1.1028 -1.7980 -0.2926
  673MOL0     H90855   7.013   9.731   5.601  0.2534  0.5911 -1.0081
  674MOL0     O90856   3.927   1.696   2.470  0.1070 -0.0883 -0.3674
  674MOL0     C90857   3.952   1.578   2.482 -0.3170  0.5306  0.5000
  674MOL0     O90858   3.877   1.475   2.436 -0.3481 -0.0526  0.2162
  674MOL0     C90859   3.792   1.479   2.330 -0.0501  0.0451 -1.0392
  674MOL0     C90860   3.786   1.366   2.250  0.7570  0.2115  0.4066
  674MOL0     C90861   3.692   1.369   2.145  0.7339 -0.2919  0.8064
  674MOL0     C90862   3.600   1.472   2.117 -0.4010 -0.3975  0.3984
  674MOL0     O90863   3.508   1.437   2.029 -0.7346 -0.1333  0.7710
  674MOL0     C90864   3.430   1.538   1.962 -0.5994  0.5991 -0.6905
  674MOL0     C90865   3.392   1.504   1.822  0.3886  0.3621 -0.1689
  674MOL0     C90866   3.297   1.384   1.813  0.1679 -0.0966  0.0367
  674MOL0     C90867   3.271   1.338   1.663 -1.5157 -0.6822 -0.9365
  674MOL0     C90868   3.182   1.216   1.640  0.3698  0.2997  1.1499
  674MOL0     C90869   3.236   1.084   1.691 -0.4111  0.3762 -0.5198
  674MOL0     C90870   3.387   1.062   1.663  0.5707  0.1819  0.7167
  674MOL0     C90871   3.426   0.946   1.750  0.4383  0.2296 -1.1540
  674MOL0     N90872   3.573   0.924   1.763  0.5792  0.3923  0.8300
  674MOL0     C90873   3.627   0.824   1.683  0.6245  0.4324 -0.7569
  674MOL0     C90874   3.737   0.805   1.742 -0.1035 -0.6460 -0.8284
  674MOL0     C90875   3.842   0.708   1.706  0.6099 -1.2441 -0.4639
  674MOL0     C90876   3.799   0.571   1.759  0.1658 -0.1032 -0.4785
  674MOL0     C90877   3.932   0.485   1.764  0.7875  0.6414  0.8300
  674MOL0     C90878   3.907   0.346   1.801  0.3403  0.3369  0.4284
  674MOL0     O90879   4.016   0.264   1.756 -0.1599 -0.0870  0.9899
  674MOL0     C90880   4.001   0.132   1.785 -0.0200  0.3770  1.1224
  674MOL0     C90881   3.914   0.076   1.877  0.3851  0.7800 -0.5145
  674MOL0     C90882   3.927  -0.059   1.912 -0.5556 -0.0909  0.5106
  674MOL0     C90883   4.040  -0.133   1.852 -1.1398 -0.4103  0.3212
  674MOL0     C90884   4.083  -0.267   1.909 -1.3908 -0.0042 -0.7920
  674MOL0     O90885   4.199  -0.332   1.854  0.2215 -0.1195  0.0408
  674MOL0     C90886   4.225  -0.464   1.881 -0.2985  0.3680  0.4812
  674MOL0     C90887   4.356  -0.488   1.865  0.5141 -0.4659  0.2965
  674MOL0     C90888   4.408  -0.617   1.876  0.6143  0.0555 -0.0413
  674MOL0     C90889   4.322  -0.724   1.915 -0.1887 -0.0411  0.1517
  674MOL0     O90890   4.389  -0.843   1.955  0.4665 -0.2764 -0.4699
  674MOL0     C90891   4.325  -0.965   1.998  0.3224 -0.8105  0.1333
  674MOL0     C90892   4.429  -1.033   2.089 -0.8772 -0.7263 -0.8606
  674MOL0     C90893   4.416  -1.186   2.101  0.4682 -1.1446 -0.5093
  674MOL0     C90894   4.315  -1.223   2.214 -0.5887  1.1076  0.0664
  674MOL0     C90895   4.364  -1.185   2.357 -0.7106 -0.1958 -0.4769
  674MOL0     C90896   4.477  -1.266   2.424  0.2754  0.8864  0.4142
  674MOL0     C90897   4.513  -1.248   2.574 -0.1299  0.3005 -0.0309
  674MOL0     C90898   4.549  -1.384   2.653 -1.0795 -0.1397  0.7637
  674MOL0    Cl90899   4.432  -1.423   2.786  0.5765 -0.3857 -0.3198
  674MOL0     C90900   4.186  -0.707   1.926  0.3875 -0.9160  0.0734
  674MOL0     C90901   4.144  -0.573   1.915 -0.6059  0.1070 -0.7393
  674MOL0     O90902   4.002  -0.321   1.984 -0.6167 -0.2511  0.7219
  674MOL0     C90903   4.115  -0.081   1.740 -0.1377  0.0997  0.7218
  674MOL0     C90904   4.096   0.054   1.708  0.3294  0.1865 -0.3231
  674MOL0     N90905   3.769   0.905   1.831 -0.1265  0.3404  0.3457
  674MOL0     N90906   3.663   0.971   1.855 -0.4278  1.1087  0.0559
  674MOL0     C90907   3.589   1.573   2.212 -0.4475 -0.3302  0.4602
  674MOL0     C90908   3.691   1.574   2.316  0.5451 -0.4291  0.3616
  674MOL0     C90909   4.072   1.544   2.554 -0.6215 -0.4950  0.9084
  674MOL0     C90910   4.113   1.412   2.574 -0.3871  0.6372 -0.7230
  674MOL0     C90911   4.224   1.385   2.656  0.6924  0.0592 -0.4450
  674MOL0     C90912   4.303   1.479   2.704 -0.6853 -1.0719  0.0251
  674MOL0     O90913   4.418   1.431   2.754  0.2401 -0.2345 -0.0458
  674MOL0     C90914   4.521   1.523   2.795  0.3391 -0.7076 -0.7592
  674MOL0     C90915   4.497   1.595   2.935  0.1758 -0.8876 -0.3308
  674MOL0     C90916   4.601   1.707   2.959 -1.0448  0.3920  0.4416
  674MOL0     C90917   4.632   1.822   2.857  0.5288 -0.0755 -1.0758
  674MOL0     C90918   4.524   1.901   2.803  0.2676 -0.3243 -0.0641
  674MOL0     C90919   4.440   1.965   2.751 -0.1075  0.9246 -0.3463
  674MOL0     C90920   4.271   1.610   2.683 -0.2833 -0.5950 -0.2484
  674MOL0     C90921   4.153   1.650   2.612  0.2967  0.5879 -0.2312
  674MOL0     C90922   4.147   1.798   2.589  0.8843 -0.3798 -0.1209
  674MOL0     H90923   3.853   1.280   2.255 -0.1737 -0.7886 -2.5488
  674MOL0     H90924   3.700   1.285   2.076  0.2747 -1.1040  1.7184
  674MOL0     H90925   3.336   1.544   2.018  0.8191 -3.1875  2.5808
  674MOL0     H90926   3.487   1.632   1.966  1.5179 -0.6299  2.1126
  674MOL0     H90927   3.491   1.484   1.781  2.1044  1.7725  2.9919
  674MOL0     H90928   3.345   1.593   1.780 -3.0664 -0.1586  2.1261
  674MOL0     H90929   3.197   1.404   1.852  1.8493  3.3771  3.2825
  674MOL0     H90930   3.343   1.304   1.872 -0.0045  1.9203  3.1730
  674MOL0     H90931   3.218   1.425   1.623  1.4173  1.2812 -0.9243
  674MOL0     H90932   3.366   1.334   1.609 -2.4408  0.7067 -2.7769
  674MOL0     H90933   3.081   1.227   1.681  1.0295  1.0685  2.6697
  674MOL0     H90934   3.181   1.214   1.531  0.2454  1.5878  1.1096
  674MOL0     H90935   3.216   1.071   1.797 -1.2263 -4.5329 -1.0650
  674MOL0     H90936   3.182   1.002   1.644  1.6396 -0.6879 -1.1340
  674MOL0     H90937   3.448   1.146   1.697 -1.6073  1.3867  1.8464
  674MOL0     H90938   3.408   1.044   1.557  1.6092 -2.2585  1.2606
  674MOL0     H90939   3.401   0.972   1.853  1.8381  0.4204 -0.8360
  674MOL0     H90940   3.377   0.850   1.729  2.9932 -1.1896 -1.1118
  674MOL0     H90941   3.579   0.759   1.610  0.2065  0.9450 -0.9433
  674MOL0     H90942   3.866   0.710   1.599  1.2521  0.4640 -0.3150
  674MOL0     H90943   3.935   0.728   1.760  1.2735  3.9270 -2.9322
  674MOL0     H90944   3.751   0.567   1.857 -3.8320  1.2722 -2.1650
  674MOL0     H90945   3.719   0.537   1.693  1.0038 -0.3617 -1.3779
  674MOL0     H90946   4.003   0.529   1.835  2.8888 -2.7319  1.0372
  674MOL0     H90947   3.980   0.487   1.666 -1.1316 -0.1184 -0.1721
  674MOL0     H90948   3.816   0.321   1.746  0.3747  0.0473  0.5023
  674MOL0     H90949   3.886   0.337   1.908  1.9919 -0.6647  0.7012
  674MOL0     H90950   3.842   0.138   1.930 -1.3945 -2.7367  1.6078
  674MOL0     H90951   3.865  -0.118   1.979 -0.4150  0.0420  0.7593
  674MOL0     H90952   4.421  -0.409   1.830  0.9185 -0.7903  0.3089
  674MOL0     H90953   4.515  -0.632   1.860  0.3030 -0.4479 -1.8601
  674MOL0     H90954   4.230  -0.955   2.051 -0.5268  0.9256 -1.6284
  674MOL0     H90955   4.301  -1.022   1.908 -0.8863  0.7711 -0.5833
  674MOL0     H90956   4.528  -1.014   2.048 -0.8337  0.7727 -0.1215
  674MOL0     H90957   4.428  -0.981   2.185 -1.1457 -3.3245  0.6369
  674MOL0     H90958   4.392  -1.229   2.003  0.1393  4.8945 -3.5596
  674MOL0     H90959   4.512  -1.229   2.130  0.9775  0.2675 -0.0078
  674MOL0     H90960   4.306  -1.331   2.199 -1.3361  1.0957  0.5697
  674MOL0     H90961   4.210  -1.201   2.195 -1.7098 -2.5814  1.1088
  674MOL0     H90962   4.279  -1.186   2.426 -1.3384  1.7538 -1.1628
  674MOL0     H90963   4.384  -1.077   2.358  2.6732 -0.6812  1.0102
  674MOL0     H90964   4.449  -1.371   2.415 -1.1266  0.3730  6.4310
  674MOL0     H90965   4.567  -1.268   2.363 -0.9791 -3.4781 -1.6371
  674MOL0     H90966   4.436  -1.194   2.631  0.8344  0.3094  1.3097
  674MOL0     H90967   4.607  -1.193   2.580  0.1343 -0.1859  0.3199
  674MOL0     H90968   4.558  -1.472   2.589 -1.5449  0.5124 -0.2344
  674MOL0     H90969   4.645  -1.364   2.702  0.8836 -0.8782 -2.4352
  674MOL0     H90970   4.111  -0.785   1.941 -0.2221 -0.9050 -2.5012
  674MOL0     H90971   4.036  -0.559   1.924 -0.4076  0.8533  0.6822
  674MOL0     H90972   4.184  -0.139   1.680 -0.2190 -0.3053  1.0126
  674MOL0     H90973   4.143   0.107   1.625  2.1491 -0.0521  0.5072
  674MOL0     H90974   3.515   1.652   2.202 -0.9012 -1.0434 -4.0508
  674MOL0     H90975   3.685   1.655   2.388  1.1580 -2.5403  2.9453
  674MOL0     H90976   4.066   1.321   2.537  3.2615 -2.1096  0.8281
  674MOL0     H90977   4.247   1.280   2.676 -1.7246 -0.8880 -2.1264
  674MOL0     H90978   4.526   1.605   2.723 -0.3504 -0.4975 -0.5767
  674MOL0     H90979   4.620   1.476   2.803  1.3110  1.3255 -0.1038
  674MOL0     H90980   4.505   1.520   3.013 -1.0422 -1.4646 -0.7238
  674MOL0     H90981   4.395   1.636   2.945  0.6966 -0.0727  2.3770
  674MOL0     H90982   4.697   1.656   2.975 -0.2041  0.3802 -3.5379
  674MOL0     H90983   4.557   1.767   3.039 -1.4296 -0.6895  1.0505
  674MOL0     H90984   4.707   1.890   2.897 -0.4548  0.8681 -0.7933
  674MOL0     H90985   4.674   1.780   2.765  1.9725 -0.5084 -0.2534
  674MOL0     H90986   4.358   2.011   2.700 -0.6652 -2.4427 -2.8718
  674MOL0     H90987   4.335   1.691   2.714  0.5965 -0.1843 -2.9202
  674MOL0     H90988   4.218   1.863   2.641  2.4213 -2.3838  0.3890
  674MOL0     H90989   4.154   1.828   2.484  4.1984  0.9758  0.3754
  674MOL0     H90990   4.047   1.824   2.627  0.8075 -0.7720 -0.0477
  675MOL0     O90991   8.656   6.307   3.219  0.0807  0.4517 -0.3168
  675MOL0     C90992   8.732   6.306   3.323  0.2167  1.7341 -0.2793
  675MOL0     O90993   8.811   6.200   3.368  0.5782 -0.1809  0.6739
  675MOL0     C90994   8.784   6.074   3.331 -0.5015  0.5124 -0.5329
  675MOL0     C90995   8.654   6.030   3.316 -0.5996  0.5097  0.5553
  675MOL0     C90996   8.623   5.893   3.292  0.3354  0.7046  0.2524
  675MOL0     C90997   8.730   5.797   3.277 -0.9760 -0.8973 -0.1692
  675MOL0     O90998   8.711   5.660   3.270 -0.3303  0.1950 -0.3606
  675MOL0     C90999   8.578   5.615   3.231 -0.0949 -0.0029 -0.3150
  675MOL0     C91000   8.584   5.461   3.237  0.3838  0.0574  0.6277
  675MOL0     C91001   8.437   5.404   3.251  0.0303 -0.0287  0.5029
  675MOL0     C91002   8.430   5.255   3.278 -0.9478 -0.1966 -0.4069
  675MOL0     C91003   8.295   5.199   3.260  0.3300 -0.5782  0.6629
  675MOL0     C91004   8.196   5.275   3.343  0.4010 -0.6313  0.1907
  675MOL0     C91005   8.047   5.231   3.314  0.0232 -0.0525 -1.0420
  675MOL0     C91006   7.957   5.311   3.414  0.4403 -0.2805 -1.3985
  675MOL0     N91007   7.816   5.322   3.380 -0.5738  1.0384  0.0363
  675MOL0     C91008   7.771   5.387   3.266 -0.0480  0.4780  0.4305
  675MOL0     C91009   7.642   5.364   3.266  1.3808  0.4484 -0.7874
  675MOL0     C91010   7.548   5.364   3.154  0.3720  0.6002  0.6500
  675MOL0     C91011   7.464   5.483   3.115 -0.0059 -0.5242  1.0041
  675MOL0     C91012   7.370   5.452   2.995 -0.2630  0.0217 -0.0491
  675MOL0     C91013   7.306   5.582   2.946 -0.3038 -0.1268 -0.0791
  675MOL0     O91014   7.404   5.680   2.899  0.0097  0.5557 -0.0763
  675MOL0     C91015   7.372   5.813   2.911  0.0557  0.7033 -0.4898
  675MOL0     C91016   7.247   5.872   2.946 -0.0932 -0.3100  0.5907
  675MOL0     C91017   7.236   6.010   2.946  0.6225  0.6583 -1.4310
  675MOL0     C91018   7.345   6.095   2.937  0.2966 -0.4530  1.2472
  675MOL0     C91019   7.330   6.241   2.937 -0.1876  0.5314  0.1141
  675MOL0     O91020   7.444   6.313   2.940 -1.9866 -0.3368  0.3339
  675MOL0     C91021   7.433   6.444   2.888 -0.1989  0.0477  0.1819
  675MOL0     C91022   7.389   6.475   2.749 -0.2212 -0.7882  0.6290
  675MOL0     C91023   7.369   6.607   2.700  0.3287 -0.0928  0.8490
  675MOL0     C91024   7.394   6.719   2.783 -0.5908  0.4964  0.2326
  675MOL0     O91025   7.397   6.850   2.745  0.1191  0.2774 -0.6718
  675MOL0     C91026   7.339   6.894   2.625  0.1093  0.6941 -0.4808
  675MOL0     C91027   7.198   6.955   2.640 -0.4660  0.0903  0.1082
  675MOL0     C91028   7.126   6.947   2.503 -0.1303  0.2305  0.1669
  675MOL0     C91029   7.154   7.076   2.419 -0.6495 -0.2303 -1.4513
  675MOL0     C91030   7.090   7.064   2.274 -0.9252  0.7526  0.1683
  675MOL0     C91031   7.084   7.192   2.190 -0.0694 -0.7136  0.2899
  675MOL0     C91032   7.219   7.257   2.150  0.4126  0.7255 -0.6395
  675MOL0     C91033   7.183   7.399   2.096  0.5598  0.4695 -0.0434
  675MOL0    Cl91034   7.336   7.481   2.070 -0.0510 -0.1572  0.2810
  675MOL0     C91035   7.420   6.691   2.919 -0.1270 -0.4758 -0.3885
  675MOL0     C91036   7.442   6.567   2.970  0.6899 -0.2363 -0.9176
  675MOL0     O91037   7.220   6.288   2.946  1.0133  0.5344  0.1625
  675MOL0     C91038   7.469   6.029   2.926 -0.6248 -0.9669  0.7511
  675MOL0     C91039   7.484   5.895   2.917 -0.5294 -1.0973  0.3558
  675MOL0     N91040   7.602   5.299   3.384  0.1031  0.0914 -0.5952
  675MOL0     N91041   7.708   5.271   3.454 -1.3075 -0.2974 -0.2738
  675MOL0     C91042   8.857   5.835   3.310 -0.5818 -0.1711 -0.3702
  675MOL0     C91043   8.877   5.976   3.330 -0.5948  0.1688 -0.3612
  675MOL0     C91044   8.743   6.440   3.394  0.5937  1.5224  0.0814
  675MOL0     C91045   8.661   6.541   3.345 -0.2997  1.0930  0.1284
  675MOL0     C91046   8.668   6.675   3.384  0.3815  0.4893 -0.3853
  675MOL0     C91047   8.750   6.699   3.497 -0.6581  0.4019 -0.1969
  675MOL0     O91048   8.753   6.827   3.552 -0.5504 -0.5031 -0.2073
  675MOL0     C91049   8.828   6.924   3.482  0.8989 -0.1491 -0.1217
  675MOL0     C91050   8.838   7.053   3.576 -0.1863  0.6605  0.9854
  675MOL0     C91051   8.705   7.114   3.592  0.0413 -0.7516 -1.3536
  675MOL0     C91052   8.686   7.192   3.728 -0.2148  0.4847 -0.0147
  675MOL0     C91053   8.563   7.277   3.725 -0.6009  0.4634 -0.2967
  675MOL0     C91054   8.468   7.348   3.695 -0.2967 -0.2380 -0.7659
  675MOL0     C91055   8.823   6.595   3.559 -0.3042 -0.4756  0.7625
  675MOL0     C91056   8.825   6.469   3.505  0.4707 -0.1155  0.9824
  675MOL0     C91057   8.931   6.379   3.557  0.4231 -0.4124 -0.1615
  675MOL0     H91058   8.576   6.105   3.329 -1.2364 -0.3923  2.1110
  675MOL0     H91059   8.519   5.874   3.266  0.1732 -1.6702  2.2212
  675MOL0     H91060   8.495   5.654   3.291 -0.5739 -3.1158  1.2773
  675MOL0     H91061   8.560   5.652   3.130 -0.2999 -2.3042 -1.1854
  675MOL0     H91062   8.638   5.434   3.328 -2.4734 -0.5288  2.2403
  675MOL0     H91063   8.640   5.423   3.151 -0.9412  1.8922 -1.1443
  675MOL0     H91064   8.377   5.438   3.166  0.5970  1.7922  0.7838
  675MOL0     H91065   8.391   5.458   3.334 -0.7512 -1.4735  1.0363
  675MOL0     H91066   8.489   5.199   3.206 -0.9929  0.7803 -1.2302
  675MOL0     H91067   8.457   5.242   3.384 -0.4569  0.5177 -0.4356
  675MOL0     H91068   8.255   5.203   3.158  0.0463 -1.6263  0.7175
  675MOL0     H91069   8.298   5.094   3.291 -1.8436 -0.2052  2.3848
  675MOL0     H91070   8.215   5.260   3.449 -0.2828  0.1757  0.4315
  675MOL0     H91071   8.202   5.381   3.315  1.7944 -0.6793  0.2765
  675MOL0     H91072   8.027   5.126   3.339 -4.1421  0.9505  0.5995
  675MOL0     H91073   8.011   5.243   3.212 -0.1479 -0.3715 -1.0207
  675MOL0     H91074   7.965   5.278   3.518  1.3721  4.1084  0.1308
  675MOL0     H91075   7.988   5.416   3.412 -0.1728 -0.0446  0.0823
  675MOL0     H91076   7.818   5.428   3.177 -1.5654  0.6319 -0.3483
  675MOL0     H91077   7.601   5.335   3.063 -0.7551  3.7299 -1.1509
  675MOL0     H91078   7.482   5.279   3.176  0.9904 -0.2600 -0.7240
  675MOL0     H91079   7.407   5.508   3.205 -2.3454 -1.5991 -0.0949
  675MOL0     H91080   7.534   5.565   3.094 -0.9193  0.4963  1.8392
  675MOL0     H91081   7.290   5.386   3.029  0.2407  0.6598  2.6696
  675MOL0     H91082   7.421   5.402   2.913  2.0888 -1.1948  2.0516
  675MOL0     H91083   7.237   5.625   3.018  0.4414 -0.3447  0.7862
  675MOL0     H91084   7.240   5.551   2.864  1.6003  0.0872 -1.7879
  675MOL0     H91085   7.156   5.812   2.943 -0.3867  0.1524  0.0054
  675MOL0     H91086   7.138   6.053   2.964  1.3167  1.4528  0.7420
  675MOL0     H91087   7.369   6.390   2.684  0.9090 -0.8107  0.2962
  675MOL0     H91088   7.346   6.628   2.596  0.0355  2.7215  1.4243
  675MOL0     H91089   7.397   6.980   2.588 -1.2736  3.4625  3.1775
  675MOL0     H91090   7.326   6.814   2.552 -2.8032  1.4354 -0.8686
  675MOL0     H91091   7.139   6.891   2.706  0.0521  0.5338  1.0061
  675MOL0     H91092   7.204   7.057   2.678 -1.2573  0.6506 -1.1832
  675MOL0     H91093   7.160   6.856   2.453  0.2133  0.6003 -0.2830
  675MOL0     H91094   7.020   6.923   2.519  0.3303 -1.8004  0.5158
  675MOL0     H91095   7.260   7.102   2.420 -0.7014  0.1395  1.3654
  675MOL0     H91096   7.105   7.158   2.471  0.7424 -0.0730 -0.3407
  675MOL0     H91097   6.988   7.027   2.289 -1.0669  1.8956  2.4482
  675MOL0     H91098   7.147   6.993   2.213 -1.5468 -0.7156  1.2340
  675MOL0     H91099   7.011   7.169   2.112 -0.0360 -1.0593  0.3568
  675MOL0     H91100   7.031   7.267   2.249 -0.2626 -1.1413  0.6662
  675MOL0     H91101   7.282   7.203   2.079 -0.4442 -0.2703 -0.6842
  675MOL0     H91102   7.279   7.271   2.240 -0.6919 -1.4915  0.5461
  675MOL0     H91103   7.105   7.396   2.020  0.7902 -1.4367 -0.2468
  675MOL0     H91104   7.139   7.464   2.172  0.3669  1.3124 -0.8573
  675MOL0     H91105   7.424   6.789   2.966 -1.8141 -0.7638  0.4643
  675MOL0     H91106   7.446   6.547   3.076  0.1523 -2.1555 -1.2163
  675MOL0     H91107   7.553   6.096   2.910 -1.5624 -0.1974 -1.1946
  675MOL0     H91108   7.581   5.857   2.888 -0.6684 -0.9858 -0.2781
  675MOL0     H91109   8.921   5.750   3.329 -2.1488 -1.1511  0.8201
  675MOL0     H91110   8.973   6.011   3.367 -1.3992  3.0277 -0.7547
  675MOL0     H91111   8.589   6.516   3.267 -1.0042 -1.1743  1.4192
  675MOL0     H91112   8.611   6.745   3.324  0.6381 -0.5677 -1.9472
  675MOL0     H91113   8.768   6.961   3.399 -0.5655  0.3263  1.0835
  675MOL0     H91114   8.920   6.889   3.436  0.9193  1.4218 -1.3510
  675MOL0     H91115   8.922   7.113   3.541 -0.4200 -1.5640 -4.4277
  675MOL0     H91116   8.864   7.009   3.673  0.7240 -0.5855  0.2119
  675MOL0     H91117   8.629   7.035   3.591 -0.5440 -0.2446 -0.0419
  675MOL0     H91118   8.691   7.189   3.514  2.2565  0.0647 -1.0272
  675MOL0     H91119   8.671   7.121   3.810  0.7013 -0.1641 -0.3833
  675MOL0     H91120   8.780   7.247   3.738  0.4126 -0.7345  1.1021
  675MOL0     H91121   8.387   7.418   3.695  1.2373  1.6436 -0.2405
  675MOL0     H91122   8.879   6.624   3.647 -1.0983  2.0139  0.5156
  675MOL0     H91123   8.888   6.285   3.593 -1.4701  0.9113  1.1947
  675MOL0     H91124   9.002   6.364   3.475  3.2747  1.2679  1.8070
  675MOL0     H91125   8.991   6.438   3.626 -2.2216  3.1301 -0.6277
  676MOL0     O91126   3.723   3.136   4.274  1.2495 -0.6954  0.4679
  676MOL0     C91127   3.803   3.210   4.222  0.5759  0.0661  0.3082
  676MOL0     O91128   3.909   3.266   4.286  0.0721  0.2061  0.0989
  676MOL0     C91129   3.947   3.219   4.414 -0.0244 -0.5260  0.0509
  676MOL0     C91130   4.001   3.314   4.502 -0.9080 -0.6265 -0.1161
  676MOL0     C91131   4.039   3.280   4.631 -1.2378  0.5865  0.4813
  676MOL0     C91132   4.048   3.137   4.670  1.1356 -0.1042 -0.4632
  676MOL0     O91133   4.112   3.106   4.786  0.0473 -0.2156 -0.0687
  676MOL0     C91134   4.144   2.970   4.819  0.1199  0.6475 -0.0843
  676MOL0     C91135   4.221   2.971   4.950  0.4109 -0.7466 -0.5780
  676MOL0     C91136   4.321   2.846   4.960 -0.6408 -0.6106  0.3003
  676MOL0     C91137   4.449   2.868   4.881  1.0993 -1.1176 -0.8166
  676MOL0     C91138   4.510   2.726   4.858 -0.1103 -0.2297 -1.3472
  676MOL0     C91139   4.635   2.734   4.770  0.1045  0.4716  0.4300
  676MOL0     C91140   4.761   2.814   4.841  0.3083 -0.1873 -0.1203
  676MOL0     C91141   4.895   2.816   4.759  0.6108  0.3190 -0.2075
  676MOL0     N91142   4.900   2.913   4.657 -0.1751  0.2289  0.4717
  676MOL0     C91143   4.865   2.896   4.525 -0.3176  0.4502  0.3019
  676MOL0     C91144   4.917   3.008   4.464 -0.7016 -0.5174 -0.6506
  676MOL0     C91145   4.931   3.026   4.315 -0.5781  0.2892  0.0304
  676MOL0     C91146   4.831   3.128   4.264  0.1602  0.5542  0.0580
  676MOL0     C91147   4.894   3.261   4.235  0.2030  0.5270 -0.7219
  676MOL0     C91148   4.806   3.351   4.155 -0.1886 -0.0641 -0.3416
  676MOL0     O91149   4.895   3.457   4.095 -0.4439  0.5587  0.4187
  676MOL0     C91150   4.871   3.564   4.018 -0.2930 -0.0363  0.0085
  676MOL0     C91151   4.974   3.650   3.988  0.7088 -0.5213  0.6097
  676MOL0     C91152   4.936   3.769   3.925 -0.3757  0.5712  1.0293
  676MOL0     C91153   4.800   3.802   3.896 -0.4414 -1.0647  0.4058
  676MOL0     C91154   4.779   3.940   3.843  0.5883  0.3131 -0.1385
  676MOL0     O91155   4.882   4.034   3.833  0.1971  0.5070 -0.4720
  676MOL0     C91156   4.847   4.150   3.764  0.1006  0.1411 -1.2063
  676MOL0     C91157   4.848   4.274   3.837  0.1563  0.4750  0.2163
  676MOL0     C91158   4.826   4.391   3.765  0.1228 -0.1350 -0.0454
  676MOL0     C91159   4.822   4.393   3.629  0.0420  0.1886 -0.0840
  676MOL0     O91160   4.835   4.507   3.554 -0.2321 -0.3777  0.1399
  676MOL0     C91161   4.891   4.625   3.600 -0.5063 -0.0425  0.1089
  676MOL0     C91162   4.884   4.716   3.478  0.3881 -0.0110  0.0243
  676MOL0     C91163   4.953   4.854   3.487 -1.0489 -0.4367 -0.2709
  676MOL0     C91164   5.045   4.895   3.361  0.8732 -0.4604  1.0381
  676MOL0     C91165   5.095   5.046   3.359 -0.3502 -0.8495  0.7001
  676MOL0     C91166   4.977   5.135   3.323 -0.1908 -0.0375  0.0572
  676MOL0     C91167   5.013   5.285   3.360  1.4299 -0.0214  0.1207
  676MOL0     C91168   5.051   5.368   3.239  1.0625 -0.9487  0.3182
  676MOL0    Cl91169   5.220   5.347   3.182 -0.1259  0.3039 -0.1992
  676MOL0     C91170   4.818   4.275   3.559 -0.6049 -0.2202 -0.7431
  676MOL0     C91171   4.824   4.150   3.628 -0.8342  1.3859 -0.2326
  676MOL0     O91172   4.663   3.960   3.802  0.0415 -1.0669 -0.6239
  676MOL0     C91173   4.707   3.702   3.911  0.2143 -0.3159  0.5310
  676MOL0     C91174   4.743   3.581   3.974  0.3982 -0.6509  0.2533
  676MOL0     N91175   4.966   3.096   4.563  0.5483 -0.1347  0.1339
  676MOL0     N91176   4.954   3.032   4.674 -0.3795 -0.5857  0.1172
  676MOL0     C91177   4.000   3.040   4.573 -0.0514  0.1402  0.0483
  676MOL0     C91178   3.955   3.078   4.445  0.2582 -0.6032  0.3121
  676MOL0     C91179   3.774   3.257   4.081 -0.5353  0.3053  0.0776
  676MOL0     C91180   3.665   3.203   4.009 -0.0128  0.1638 -0.5362
  676MOL0     C91181   3.670   3.204   3.870  0.1249 -0.2923 -0.0186
  676MOL0     C91182   3.784   3.246   3.798 -0.5952 -0.8052  0.5316
  676MOL0     O91183   3.798   3.256   3.663 -0.0454 -0.2702 -0.0300
  676MOL0     C91184   3.701   3.198   3.573 -1.1330  0.4716  0.3267
  676MOL0     C91185   3.767   3.223   3.429  0.1060 -0.1903 -0.0402
  676MOL0     C91186   3.755   3.373   3.405 -0.1116  1.2335  0.3669
  676MOL0     C91187   3.801   3.414   3.263 -0.1363  0.5944 -0.5458
  676MOL0     C91188   3.943   3.412   3.249 -0.3236 -1.0732  0.2374
  676MOL0     C91189   4.063   3.400   3.234  0.7149 -0.8368 -0.0473
  676MOL0     C91190   3.886   3.311   3.873 -0.1621  0.7861 -0.8181
  676MOL0     C91191   3.873   3.327   4.010  0.3550  1.5408  0.0712
  676MOL0     C91192   3.954   3.434   4.067  1.3986  0.1172  0.1911
  676MOL0     H91193   4.042   3.406   4.461 -1.7315 -0.5476 -0.7858
  676MOL0     H91194   4.088   3.347   4.700  1.4218 -1.6025  0.9085
  676MOL0     H91195   4.053   2.910   4.814  0.4428 -0.1514  2.3963
  676MOL0     H91196   4.199   2.918   4.739  0.5841  0.6099  0.2547
  676MOL0     H91197   4.147   2.960   5.029 -0.2750  1.0967 -0.9136
  676MOL0     H91198   4.283   3.060   4.958  0.9499 -0.9313 -2.2384
  676MOL0     H91199   4.267   2.759   4.922 -2.3903  0.9698 -1.0057
  676MOL0     H91200   4.343   2.820   5.064 -2.9580 -0.7622  0.8081
  676MOL0     H91201   4.449   2.924   4.787  4.2858 -1.4299 -1.1282
  676MOL0     H91202   4.526   2.927   4.933  2.5717 -0.3842 -3.5725
  676MOL0     H91203   4.509   2.670   4.951 -3.5664  0.1830 -1.0171
  676MOL0     H91204   4.440   2.671   4.795  0.1779  1.5538 -3.3628
  676MOL0     H91205   4.667   2.635   4.736 -0.8568  1.2271 -3.0388
  676MOL0     H91206   4.620   2.785   4.675  4.0939  1.2724  0.0608
  676MOL0     H91207   4.778   2.770   4.940  0.0449  4.5863  2.3439
  676MOL0     H91208   4.722   2.916   4.855 -3.3003 -1.2092 -1.5225
  676MOL0     H91209   4.977   2.832   4.829 -0.4786  1.3856  0.8527
  676MOL0     H91210   4.914   2.719   4.712 -0.2337  0.8353 -1.6773
  676MOL0     H91211   4.815   2.809   4.483  0.3915  0.5373 -0.7716
  676MOL0     H91212   5.033   3.057   4.292 -0.2300 -1.7012 -1.3451
  676MOL0     H91213   4.930   2.934   4.256  1.7006  1.8693 -2.7027
  676MOL0     H91214   4.783   3.099   4.171 -1.3648  0.6510  0.7750
  676MOL0     H91215   4.752   3.141   4.339  1.3582  1.8755  1.1594
  676MOL0     H91216   4.993   3.249   4.191  1.5445  1.5432  1.8030
  676MOL0     H91217   4.899   3.311   4.332 -1.3016 -2.1220  0.8544
  676MOL0     H91218   4.729   3.397   4.216  0.7364  1.6661 -0.4044
  676MOL0     H91219   4.781   3.294   4.065 -2.5724 -0.3307  0.4459
  676MOL0     H91220   5.078   3.633   4.014  0.6002 -2.7104 -0.1608
  676MOL0     H91221   5.012   3.842   3.897 -3.2386  3.2102 -0.4789
  676MOL0     H91222   4.880   4.275   3.941  0.9586 -4.4437  0.2497
  676MOL0     H91223   4.830   4.484   3.821  2.7337 -0.7084  0.8706
  676MOL0     H91224   4.846   4.665   3.692  0.1037 -1.8484  1.2572
  676MOL0     H91225   4.997   4.604   3.614 -0.8150 -2.0711 -0.3798
  676MOL0     H91226   4.939   4.663   3.399  1.6069 -1.6749  1.8969
  676MOL0     H91227   4.780   4.733   3.449  0.6783 -1.5225 -2.1629
  676MOL0     H91228   4.872   4.927   3.489  1.2331  2.4624 -3.4176
  676MOL0     H91229   5.016   4.852   3.576 -1.0628 -0.9757 -0.2698
  676MOL0     H91230   4.984   4.872   3.272  0.6879  0.9560  0.7703
  676MOL0     H91231   5.132   4.830   3.351  0.0792 -1.1813 -2.8494
  676MOL0     H91232   5.185   5.081   3.307 -2.2575  1.5517 -1.2383
  676MOL0     H91233   5.122   5.070   3.462 -0.0286 -0.6919  0.5800
  676MOL0     H91234   4.962   5.128   3.215  0.7060  1.2739 -0.1780
  676MOL0     H91235   4.884   5.106   3.372 -1.8845 -1.1764 -3.4814
  676MOL0     H91236   5.099   5.280   3.427  0.0226  1.9071  2.2313
  676MOL0     H91237   4.935   5.336   3.418  0.7822  0.8479 -1.4675
  676MOL0     H91238   4.977   5.350   3.161 -0.9174  5.3797  0.2315
  676MOL0     H91239   5.030   5.469   3.274  2.4657 -1.2089  2.1017
  676MOL0     H91240   4.825   4.279   3.451  0.9218 -1.4835 -0.7262
  676MOL0     H91241   4.815   4.062   3.565  2.5529  0.6791  0.0841
  676MOL0     H91242   4.604   3.699   3.875 -0.2336 -2.0924  1.8225
  676MOL0     H91243   4.671   3.500   3.973 -1.5733  1.0283 -0.9386
  676MOL0     H91244   4.025   2.935   4.587  0.1622  0.0307 -1.0755
  676MOL0     H91245   3.938   3.012   4.360  1.7361 -0.2550 -0.2902
  676MOL0     H91246   3.592   3.140   4.058  0.4361  0.4832  0.5670
  676MOL0     H91247   3.589   3.159   3.813 -0.0144 -2.1032  1.5208
  676MOL0     H91248   3.595   3.220   3.584 -1.3413  0.2691 -1.0891
  676MOL0     H91249   3.718   3.091   3.587 -2.2633  0.1425 -0.6639
  676MOL0     H91250   3.712   3.184   3.343  3.6831 -0.2530 -2.5284
  676MOL0     H91251   3.872   3.192   3.427 -0.0001 -0.6912  1.3126
  676MOL0     H91252   3.809   3.429   3.483  0.9213 -1.0818  1.4027
  676MOL0     H91253   3.648   3.393   3.398 -0.8103 -2.4859 -2.6324
  676MOL0     H91254   3.760   3.342   3.192 -1.1227  1.0536 -0.4616
  676MOL0     H91255   3.766   3.515   3.238 -1.1040  0.9444  1.8618
  676MOL0     H91256   4.167   3.377   3.218  0.9472  0.5367 -0.7439
  676MOL0     H91257   3.975   3.356   3.829  1.8423 -1.8468  0.2927
  676MOL0     H91258   3.899   3.475   4.152 -0.3815  0.2202 -0.9597
  676MOL0     H91259   4.057   3.399   4.083  0.6818 -1.4276  1.8239
  676MOL0     H91260   3.952   3.512   3.990 -3.6055 -1.1222 -1.3293
  677MOL0     O91261   9.568  10.806  11.326  0.7673  0.2553  0.1407
  677MOL0     C91262   9.677  10.791  11.273  0.6086 -0.3470  0.0065
  677MOL0     O91263   9.688  10.776  11.128  0.3405  0.3239  0.5175
  677MOL0     C91264   9.574  10.757  11.046  0.1206  0.4742  0.0957
  677MOL0     C91265   9.458  10.840  11.048  0.2967 -0.0865  0.4379
  677MOL0     C91266   9.358  10.835  10.943 -0.1849  0.0153  0.0179
  677MOL0     C91267   9.373  10.734  10.846  0.4105 -0.8370 -0.3197
  677MOL0     O91268   9.292  10.729  10.737 -0.3154 -0.3425 -0.5983
  677MOL0     C91269   9.179  10.809  10.724 -0.4381 -0.6199 -0.9372
  677MOL0     C91270   9.077  10.725  10.637 -0.4637 -0.4570 -0.0419
  677MOL0     C91271   8.991  10.824  10.561  0.8156 -0.8246  0.1666
  677MOL0     C91272   8.901  10.759  10.447 -1.2372  1.0531 -0.3900
  677MOL0     C91273   8.835  10.618  10.492 -0.3249  1.0925  0.1225
  677MOL0     C91274   8.696  10.613  10.422 -0.2917  0.8500  0.5645
  677MOL0     C91275   8.616  10.486  10.459 -0.8814 -0.8438  0.6639
  677MOL0     C91276   8.491  10.471  10.372  0.5624  0.2546 -0.3234
  677MOL0     N91277   8.385  10.569  10.409 -0.5184  0.5631  0.3495
  677MOL0     C91278   8.293  10.545  10.514  0.7398 -0.1638 -0.0679
  677MOL0     C91279   8.218  10.653  10.522 -1.0638 -0.0104 -0.6971
  677MOL0     C91280   8.117  10.691  10.618 -0.5719  1.0842 -0.3574
  677MOL0     C91281   8.025  10.584  10.665  0.0342  0.9969 -0.2540
  677MOL0     C91282   7.929  10.545  10.553  0.8235 -0.0617 -0.7097
  677MOL0     C91283   7.802  10.481  10.606 -0.5881  0.3336  0.5492
  677MOL0     O91284   7.741  10.407  10.505  1.0673 -0.6374  0.2169
  677MOL0     C91285   7.623  10.456  10.434 -0.2456  0.4134  0.0463
  677MOL0     C91286   7.604  10.403  10.310 -0.2958 -0.1206  0.4556
  677MOL0     C91287   7.487  10.435  10.236 -0.3832  0.1681 -0.2226
  677MOL0     C91288   7.383  10.517  10.274  0.7012 -1.0654 -0.0774
  677MOL0     C91289   7.253  10.521  10.195 -0.1270 -0.0876 -0.6581
  677MOL0     O91290   7.147  10.587  10.252  0.0231  1.0841 -0.6225
  677MOL0     C91291   7.039  10.619  10.176 -0.6920  0.2048 -0.0959
  677MOL0     C91292   6.917  10.594  10.238  0.6401  0.1732 -0.1352
  677MOL0     C91293   6.798  10.624  10.182 -0.2814  0.2199  0.3694
  677MOL0     C91294   6.793  10.673  10.048 -0.2245 -0.0121  0.1295
  677MOL0     O91295   6.686  10.706   9.972  0.7337 -0.1233 -0.3208
  677MOL0     C91296   6.568  10.629   9.987  0.6970  0.6045 -0.4689
  677MOL0     C91297   6.464  10.691   9.892  0.3542 -0.4937 -0.2094
  677MOL0     C91298   6.445  10.848   9.902 -0.0256 -0.4593 -0.0170
  677MOL0     C91299   6.377  10.890   9.769  0.6310 -0.0236  0.2775
  677MOL0     C91300   6.356  11.040   9.772 -0.8158  1.6838 -0.2257
  677MOL0     C91301   6.297  11.087   9.642 -0.0957 -0.2157  0.5013
  677MOL0     C91302   6.277  11.243   9.649 -0.7090 -0.0084  0.5332
  677MOL0     C91303   6.409  11.312   9.623 -0.1885 -1.3701 -0.5792
  677MOL0    Cl91304   6.362  11.480   9.603  0.2982 -0.2078 -0.2365
  677MOL0     C91305   6.922  10.691   9.975  0.7064 -0.5276  0.6590
  677MOL0     C91306   7.039  10.657  10.038  0.3874  0.0524 -0.6031
  677MOL0     O91307   7.253  10.464  10.084  0.2220 -0.6622  0.5300
  677MOL0     C91308   7.394  10.572  10.408  0.9266 -0.7564  0.2142
  677MOL0     C91309   7.518  10.540  10.473  0.7858 -0.8774  0.1187
  677MOL0     N91310   8.251  10.739  10.420 -0.0124  0.0867 -0.0552
  677MOL0     N91311   8.357  10.688  10.358 -0.3075 -0.1467  0.9016
  677MOL0     C91312   9.467  10.642  10.859 -0.9051 -0.0014 -1.1362
  677MOL0     C91313   9.580  10.661  10.947  0.0607  1.0274 -0.4468
  677MOL0     C91314   9.793  10.799  11.358 -0.5593 -0.5924  0.8443
  677MOL0     C91315   9.915  10.764  11.304  0.0797  1.2020  0.9682
  677MOL0     C91316  10.033  10.768  11.369 -0.2315  1.0734 -0.0923
  677MOL0     C91317  10.041  10.802  11.505 -0.3303  0.0563  0.9270
  677MOL0     O91318  10.158  10.817  11.577  0.1492 -0.0849 -0.2814
  677MOL0     C91319  10.180  10.747  11.703 -0.1035  0.3118  0.2979
  677MOL0     C91320  10.173  10.600  11.674  0.4962  0.5140  0.7005
  677MOL0     C91321  10.177  10.513  11.796 -0.2965  0.3367  0.1051
  677MOL0     C91322  10.311  10.477  11.856 -0.6725  0.9793  0.2114
  677MOL0     C91323  10.426  10.451  11.762  1.2871 -0.4783 -0.2287
  677MOL0     C91324  10.521  10.438  11.691 -0.3456 -0.4991 -0.1696
  677MOL0     C91325   9.920  10.849  11.561 -0.9222  0.3535 -0.0915
  677MOL0     C91326   9.798  10.861  11.486 -0.8291  0.2302  0.0572
  677MOL0     C91327   9.683  10.933  11.552 -0.8706  0.9077 -0.6029
  677MOL0     H91328   9.443  10.917  11.123  2.3213 -0.0437  0.8648
  677MOL0     H91329   9.279  10.909  10.945  0.7200  0.9943  2.4240
  677MOL0     H91330   9.120  10.831  10.813 -0.5411 -1.4029 -0.8051
  677MOL0     H91331   9.211  10.900  10.672 -2.2587 -0.7211 -2.3362
  677MOL0     H91332   9.023  10.649  10.693  0.3508 -1.0278 -0.0122
  677MOL0     H91333   9.133  10.667  10.563  2.4154  1.1664  0.6913
  677MOL0     H91334   9.049  10.893  10.500  1.9816 -1.5824  0.3718
  677MOL0     H91335   8.926  10.882  10.626 -0.6691 -1.5974 -0.5636
  677MOL0     H91336   8.819  10.828  10.427 -0.4599  2.0661 -0.1199
  677MOL0     H91337   8.966  10.747  10.360  0.8665  0.3346  1.1708
  677MOL0     H91338   8.897  10.531  10.468 -1.6688 -0.4709  2.0301
  677MOL0     H91339   8.815  10.615  10.599 -0.1479  1.7406  0.1791
  677MOL0     H91340   8.632  10.701  10.431 -2.0521 -0.1774 -0.9775
  677MOL0     H91341   8.714  10.602  10.315 -2.4049 -2.1579  0.3874
  677MOL0     H91342   8.600  10.495  10.567  3.2973  2.4222  1.2736
  677MOL0     H91343   8.687  10.407  10.430 -2.0719 -0.9496 -2.2972
  677MOL0     H91344   8.517  10.472  10.266  3.2466 -0.8339  0.2521
  677MOL0     H91345   8.457  10.368  10.384  0.6540  0.3546  0.8914
  677MOL0     H91346   8.287  10.457  10.577  0.7278 -0.2227 -0.1503
  677MOL0     H91347   8.171  10.724  10.707  0.5869 -0.8350 -0.2841
  677MOL0     H91348   8.056  10.777  10.589 -1.5365 -0.2143 -2.3984
  677MOL0     H91349   8.081  10.496  10.695  0.4946  1.1958 -0.5225
  677MOL0     H91350   7.960  10.614  10.748  0.2808  0.8496 -0.0084
  677MOL0     H91351   7.971  10.477  10.478 -2.3771 -1.3342 -1.4828
  677MOL0     H91352   7.894  10.640  10.512  0.5962  1.0652  1.8704
  677MOL0     H91353   7.736  10.563  10.636  1.5500  3.1949 -1.9771
  677MOL0     H91354   7.827  10.417  10.692  1.2408  1.6727  1.0752
  677MOL0     H91355   7.669  10.338  10.253 -2.9946 -2.1206 -0.5366
  677MOL0     H91356   7.473  10.376  10.146  1.2499  0.0106 -0.3975
  677MOL0     H91357   6.907  10.556  10.340 -2.1141 -0.7210 -0.6516
  677MOL0     H91358   6.701  10.602  10.225 -2.2834 -1.3244 -4.3512
  677MOL0     H91359   6.589  10.530   9.945  0.0270  0.8325 -1.3800
  677MOL0     H91360   6.537  10.625  10.092  0.7197  3.2707 -0.2931
  677MOL0     H91361   6.482  10.658   9.789  3.8802 -2.3500  0.8721
  677MOL0     H91362   6.369  10.640   9.910 -0.0105 -0.7450 -2.5105
  677MOL0     H91363   6.389  10.880   9.990  0.7306  0.1364  0.2471
  677MOL0     H91364   6.546  10.886   9.915  1.2488 -3.9066  1.3338
  677MOL0     H91365   6.282  10.836   9.759 -1.2037  2.6967  1.5578
  677MOL0     H91366   6.438  10.846   9.689 -1.1388 -0.1350 -1.0708
  677MOL0     H91367   6.457  11.081   9.776  0.7100 -1.8192  1.3864
  677MOL0     H91368   6.280  11.050   9.851 -1.1340  1.0763 -0.4557
  677MOL0     H91369   6.363  11.057   9.560 -2.7407 -1.7634 -1.2105
  677MOL0     H91370   6.203  11.031   9.630  1.4683 -2.7714 -0.6539
  677MOL0     H91371   6.220  11.273   9.738  1.5829  1.4150  1.6077
  677MOL0     H91372   6.202  11.258   9.571  1.1991 -1.6167 -1.7392
  677MOL0     H91373   6.469  11.319   9.714 -1.3102  0.2770  0.0849
  677MOL0     H91374   6.466  11.270   9.539  5.4985  2.3260  0.8339
  677MOL0     H91375   6.919  10.724   9.871 -0.4911 -1.4669  0.3790
  677MOL0     H91376   7.132  10.651   9.982  1.8512 -0.6871  1.7753
  677MOL0     H91377   7.314  10.634  10.447  0.8646 -0.9519  0.3960
  677MOL0     H91378   7.532  10.583  10.572 -1.4740 -2.0126  0.9973
  677MOL0     H91379   9.485  10.565  10.785 -1.4643 -0.7910 -0.4628
  677MOL0     H91380   9.667  10.597  10.943 -0.6830 -0.5525  3.7411
  677MOL0     H91381   9.919  10.723  11.203  0.2290  0.1624  1.3874
  677MOL0     H91382  10.132  10.754  11.327 -0.4924  0.3394 -0.4739
  677MOL0     H91383  10.110  10.774  11.783  2.2176  0.0123  2.5758
  677MOL0     H91384  10.281  10.775  11.737  1.0729 -0.0776 -2.6068
  677MOL0     H91385  10.248  10.578  11.597  0.4323  4.4849 -0.7161
  677MOL0     H91386  10.071  10.573  11.647  0.7472 -2.5450  2.2685
  677MOL0     H91387  10.124  10.425  11.758  0.7775  1.0382 -3.3451
  677MOL0     H91388  10.110  10.557  11.871  1.9020  4.6485 -0.1363
  677MOL0     H91389  10.346  10.557  11.921  0.5996  0.5817  0.0480
  677MOL0     H91390  10.299  10.384  11.913  0.6008  1.0352  0.5839
  677MOL0     H91391  10.609  10.417  11.633 -0.8030  2.0920 -1.9692
  677MOL0     H91392   9.933  10.892  11.660 -0.0740  0.5724 -0.2914
  677MOL0     H91393   9.652  11.026  11.503  0.0918  2.2288  1.1594
  677MOL0     H91394   9.597  10.871  11.576 -1.4314  2.3133  1.2913
  677MOL0     H91395   9.717  10.956  11.653 -0.2928 -1.6516 -0.1600
  678MOL0     O91396   8.075   1.000   0.739 -0.2774  0.2914  0.9696
  678MOL0     C91397   7.983   1.074   0.696  1.0587 -0.3055  0.9706
  678MOL0     O91398   7.883   1.133   0.766  0.8413 -1.1017 -0.0751
  678MOL0     C91399   7.878   1.139   0.904  0.3404  0.5129 -0.0882
  678MOL0     C91400   7.956   1.070   0.997  0.2674  0.0235  0.1116
  678MOL0     C91401   7.931   1.074   1.137 -0.0741  0.3724  0.8314
  678MOL0     C91402   7.835   1.163   1.188  0.1570  0.4978 -0.2709
  678MOL0     O91403   7.821   1.164   1.330  0.1628 -0.3159 -0.5933
  678MOL0     C91404   7.713   1.238   1.380 -0.0816 -1.0824 -0.5190
  678MOL0     C91405   7.716   1.206   1.528 -0.9047 -0.3352  0.6597
  678MOL0     C91406   7.580   1.244   1.593 -0.3421  0.9746 -0.6197
  678MOL0     C91407   7.587   1.365   1.682 -0.1172  0.7776  0.8514
  678MOL0     C91408   7.553   1.491   1.605 -0.3481  0.1184  0.4886
  678MOL0     C91409   7.472   1.594   1.687 -0.0085 -1.2050 -0.9004
  678MOL0     C91410   7.545   1.668   1.807  0.3008 -0.9199  0.9437
  678MOL0     C91411   7.653   1.767   1.762 -0.1336  0.6109  0.2345
  678MOL0     N91412   7.790   1.719   1.772  0.3386 -0.7718  0.8581
  678MOL0     C91413   7.873   1.660   1.675 -0.6023 -0.3480 -1.0402
  678MOL0     C91414   7.984   1.635   1.747 -0.4478 -0.9865 -0.9418
  678MOL0     C91415   8.105   1.560   1.697 -0.3957 -0.1250 -0.2823
  678MOL0     C91416   8.071   1.433   1.614  0.3438 -0.8135 -0.7029
  678MOL0     C91417   8.154   1.430   1.481 -0.3850 -1.5260  0.2414
  678MOL0     C91418   8.293   1.350   1.505 -0.4642 -1.4532 -0.4114
  678MOL0     O91419   8.391   1.394   1.411  0.4980 -0.0929  0.4505
  678MOL0     C91420   8.383   1.383   1.271  0.0654  1.0297  0.6725
  678MOL0     C91421   8.472   1.456   1.186  0.9851 -0.8734 -0.8036
  678MOL0     C91422   8.463   1.431   1.048  0.2980 -0.9958  0.2641
  678MOL0     C91423   8.363   1.338   0.989 -0.0714 -0.9872 -0.4395
  678MOL0     C91424   8.347   1.321   0.851  0.8422  0.6360  0.1484
  678MOL0     O91425   8.448   1.338   0.765 -0.8775  0.5067  0.1738
  678MOL0     C91426   8.423   1.361   0.630 -0.7155 -1.2693  0.1535
  678MOL0     C91427   8.325   1.455   0.580  0.1730 -0.5748  0.7562
  678MOL0     C91428   8.304   1.477   0.445 -0.0846 -0.2156  0.0266
  678MOL0     C91429   8.395   1.407   0.357 -0.2931 -0.1126 -0.9314
  678MOL0     O91430   8.367   1.399   0.227  0.0443  0.3149  0.6325
  678MOL0     C91431   8.366   1.526   0.163 -0.1388  0.0176 -0.4836
  678MOL0     C91432   8.485   1.565   0.069  0.6871 -0.2307  0.3279
  678MOL0     C91433   8.513   1.722   0.067 -0.9948  0.1279  0.7921
  678MOL0     C91434   8.605   1.749   0.181 -0.8206  0.2572 -0.2817
  678MOL0     C91435   8.668   1.885   0.185 -0.1632 -0.3117 -0.0623
  678MOL0     C91436   8.571   2.002   0.215  0.0629  0.1584 -0.5352
  678MOL0     C91437   8.635   2.133   0.239 -0.2644  0.2789  0.4075
  678MOL0     C91438   8.702   2.187   0.118 -0.7674 -0.6576 -0.3831
  678MOL0    Cl91439   8.585   2.244  -0.012 -0.2060  0.2108  0.4394
  678MOL0     C91440   8.497   1.323   0.399 -0.5929  0.1207  0.4318
  678MOL0     C91441   8.512   1.302   0.537 -0.3451  0.3278  0.6572
  678MOL0     O91442   8.233   1.305   0.809  0.1584 -0.4099 -0.0608
  678MOL0     C91443   8.289   1.259   1.082 -0.3770 -0.8792  0.5236
  678MOL0     C91444   8.294   1.285   1.217  0.2156  0.4835  0.0547
  678MOL0     N91445   7.963   1.677   1.873 -0.1729 -0.4060 -0.2998
  678MOL0     N91446   7.848   1.723   1.891  0.0515 -0.1880  0.0041
  678MOL0     C91447   7.753   1.227   1.087  0.4851  0.3489  0.3046
  678MOL0     C91448   7.774   1.208   0.950 -0.0543 -0.3583  0.4052
  678MOL0     C91449   7.966   1.102   0.547 -0.3479 -0.1664  0.2660
  678MOL0     C91450   8.001   1.229   0.502  0.0318  0.2371 -0.3587
  678MOL0     C91451   8.008   1.253   0.362 -0.0404 -0.4101  0.1746
  678MOL0     C91452   7.976   1.164   0.265 -0.0389 -0.5392  0.5745
  678MOL0     O91453   8.007   1.191   0.131  0.3949  1.2948  0.0706
  678MOL0     C91454   8.008   1.099   0.024 -0.4126  0.0630 -0.7294
  678MOL0     C91455   8.162   1.063  -0.010 -0.2464  0.0840 -0.4397
  678MOL0     C91456   8.234   1.196  -0.047  0.0943 -0.0726  0.2380
  678MOL0     C91457   8.344   1.195  -0.148  0.3791 -0.1077 -0.3781
  678MOL0     C91458   8.288   1.169  -0.283 -0.7813  0.0478 -0.7008
  678MOL0     C91459   8.221   1.137  -0.380  0.0684  0.4210 -0.1281
  678MOL0     C91460   7.934   1.036   0.309  0.5660 -1.3541  0.5322
  678MOL0     C91461   7.938   1.004   0.445  0.1294  0.2328 -0.1646
  678MOL0     C91462   7.888   0.867   0.488  0.5219 -0.2706 -0.0217
  678MOL0     H91463   8.034   1.003   0.965 -0.5618 -1.1035  0.3980
  678MOL0     H91464   7.996   1.031   1.213  1.6351  2.0453  0.4094
  678MOL0     H91465   7.735   1.344   1.365  2.1362 -1.3709  0.3104
  678MOL0     H91466   7.614   1.213   1.341 -0.1258 -2.4443  0.3703
  678MOL0     H91467   7.805   1.246   1.578 -0.7140  1.3454 -0.9010
  678MOL0     H91468   7.728   1.098   1.536  3.9028 -0.1161 -0.1656
  678MOL0     H91469   7.564   1.159   1.659  1.5795  2.0216  1.2887
  678MOL0     H91470   7.494   1.250   1.525 -1.4953  3.3228  0.9116
  678MOL0     H91471   7.517   1.352   1.765  1.6052  2.1820  2.6031
  678MOL0     H91472   7.688   1.373   1.721  0.2483  1.4998 -0.1869
  678MOL0     H91473   7.636   1.548   1.562 -1.5768  0.9396 -0.9148
  678MOL0     H91474   7.491   1.472   1.516  0.7450  0.0968 -0.2932
  678MOL0     H91475   7.435   1.676   1.625 -1.6235 -0.2385  1.2446
  678MOL0     H91476   7.388   1.548   1.739  0.3220  0.6201  1.3592
  678MOL0     H91477   7.591   1.623   1.895 -0.1433  0.7081  2.0404
  678MOL0     H91478   7.472   1.734   1.854  1.1311  0.1235  0.8354
  678MOL0     H91479   7.643   1.791   1.656  2.9925  2.8573  0.3086
  678MOL0     H91480   7.643   1.864   1.812 -0.9040  3.6911 -5.1654
  678MOL0     H91481   7.866   1.642   1.568 -0.1147  1.0079 -1.3209
  678MOL0     H91482   8.163   1.633   1.640  0.4800  0.3136  1.1332
  678MOL0     H91483   8.168   1.534   1.783  0.9835  0.1620 -1.1726
  678MOL0     H91484   8.105   1.346   1.670  0.6586 -2.6334 -3.5191
  678MOL0     H91485   7.964   1.438   1.591 -0.7972 -3.6866  3.0889
  678MOL0     H91486   8.172   1.533   1.450  0.8380 -1.0038  2.4435
  678MOL0     H91487   8.089   1.386   1.405 -0.6889  1.7025 -1.5379
  678MOL0     H91488   8.272   1.243   1.515 -2.0761 -1.1681 -0.5715
  678MOL0     H91489   8.335   1.394   1.596  0.9200 -3.5607  0.0411
  678MOL0     H91490   8.537   1.526   1.238 -0.1583 -1.4506  1.5324
  678MOL0     H91491   8.529   1.490   0.985  0.8761 -1.4523  0.4353
  678MOL0     H91492   8.270   1.513   0.653  1.0601 -1.7741  2.4487
  678MOL0     H91493   8.227   1.544   0.410 -0.9127 -0.6877  0.9109
  678MOL0     H91494   8.276   1.524   0.101 -2.8109  0.2984  3.0912
  678MOL0     H91495   8.345   1.600   0.240  0.0420 -0.5087  0.0756
  678MOL0     H91496   8.575   1.506   0.088  0.8371 -0.0903  0.0577
  678MOL0     H91497   8.448   1.540  -0.031  0.0808 -3.6331  1.2729
  678MOL0     H91498   8.559   1.760  -0.025  1.1084  1.8905  2.4506
  678MOL0     H91499   8.419   1.779   0.067 -1.6341 -0.8629 -0.6837
  678MOL0     H91500   8.685   1.674   0.179 -0.9302  0.1544 -1.3260
  678MOL0     H91501   8.562   1.740   0.281  1.0977 -1.2784  0.4852
  678MOL0     H91502   8.730   1.891   0.095  3.1097 -1.5058  1.9189
  678MOL0     H91503   8.741   1.899   0.266  1.1640  2.2471 -1.6057
  678MOL0     H91504   8.504   2.007   0.129  0.0509 -2.2413 -0.7389
  678MOL0     H91505   8.506   1.978   0.300  1.0346 -0.6875 -0.0015
  678MOL0     H91506   8.700   2.136   0.327 -1.1552 -1.5739  1.1646
  678MOL0     H91507   8.566   2.215   0.260  2.3671  3.1454 -1.2297
  678MOL0     H91508   8.760   2.278   0.136 -0.9739 -0.1869 -1.9141
  678MOL0     H91509   8.772   2.110   0.082 -0.7378 -1.6149  1.5909
  678MOL0     H91510   8.555   1.273   0.322  3.7085  1.2687  2.6166
  678MOL0     H91511   8.585   1.229   0.569  0.3591  1.8877  2.8365
  678MOL0     H91512   8.226   1.177   1.050 -2.2161  0.1489  1.3540
  678MOL0     H91513   8.239   1.221   1.286  2.3448 -2.3848 -0.6892
  678MOL0     H91514   7.662   1.274   1.121  0.5109 -0.5428  1.6975
  678MOL0     H91515   7.692   1.240   0.888 -1.4397 -2.6857  0.9182
  678MOL0     H91516   8.024   1.309   0.572 -1.7108  0.7277 -0.3088
  678MOL0     H91517   8.055   1.345   0.329  3.2137 -1.8883  0.2569
  678MOL0     H91518   7.973   1.147  -0.068 -0.5361  0.4698 -0.4753
  678MOL0     H91519   7.947   1.012   0.050 -0.1647 -0.1389 -0.8303
  678MOL0     H91520   8.141   0.994  -0.092 -0.9017 -2.5030  1.7420
  678MOL0     H91521   8.202   1.011   0.078 -2.2139  1.2895  1.2731
  678MOL0     H91522   8.277   1.243   0.042 -0.6549 -2.3575  1.9192
  678MOL0     H91523   8.154   1.268  -0.067  0.0860  0.8627  3.0705
  678MOL0     H91524   8.417   1.277  -0.153 -0.1890  0.6624  2.2128
  678MOL0     H91525   8.411   1.114  -0.117 -0.6499 -1.1653 -0.8600
  678MOL0     H91526   8.163   1.124  -0.468 -1.3147  1.5709  0.5665
  678MOL0     H91527   7.890   0.969   0.237  2.2420 -0.3881 -1.4951
  678MOL0     H91528   7.968   0.821   0.546 -0.0689 -2.8557 -1.0833
  678MOL0     H91529   7.805   0.885   0.557  1.2100 -2.3159  1.4430
  678MOL0     H91530   7.867   0.802   0.402  1.6452  0.4166 -0.8401
  679MOL0     O91531   7.865   2.671   9.045  0.3953  0.1414 -0.6041
  679MOL0     C91532   7.959   2.740   9.077 -0.2686 -0.1896 -0.9285
  679MOL0     O91533   8.048   2.792   8.993 -1.1290 -0.9724 -0.0837
  679MOL0     C91534   8.102   2.716   8.892  0.8291 -0.9751  0.5067
  679MOL0     C91535   8.146   2.778   8.780 -0.6310 -0.4536  0.3127
  679MOL0     C91536   8.188   2.711   8.673  0.4253  0.1409 -0.6783
  679MOL0     C91537   8.176   2.568   8.660 -0.1308 -0.4632 -0.1724
  679MOL0     O91538   8.202   2.502   8.546 -0.1283 -0.0765 -0.6474
  679MOL0     C91539   8.179   2.567   8.419  0.5299  0.0976 -0.3047
  679MOL0     C91540   8.180   2.461   8.317 -0.0080  0.2732  0.5252
  679MOL0     C91541   8.072   2.347   8.337 -0.2601 -0.3178 -0.4278
  679MOL0     C91542   7.937   2.394   8.288  0.7220  0.0607  0.6809
  679MOL0     C91543   7.830   2.372   8.397  0.0323  0.1762 -0.1077
  679MOL0     C91544   7.840   2.463   8.515 -0.2367  0.5450 -0.5078
  679MOL0     C91545   7.730   2.442   8.612  0.4629 -0.6623 -0.2732
  679MOL0     C91546   7.776   2.497   8.744  0.2453  0.5833  0.3496
  679MOL0     N91547   7.678   2.473   8.856  0.5848 -0.3095  0.0643
  679MOL0     C91548   7.590   2.573   8.901  0.2481  0.1598 -0.5965
  679MOL0     C91549   7.510   2.519   8.994 -0.0396  0.2485 -0.4825
  679MOL0     C91550   7.390   2.574   9.069 -0.2687 -0.2033  1.0065
  679MOL0     C91551   7.258   2.569   9.006  0.4045  1.1159 -0.1676
  679MOL0     C91552   7.256   2.662   8.880  0.6186  0.0765  0.4962
  679MOL0     C91553   7.120   2.652   8.816 -0.1341  0.1879  0.1227
  679MOL0     O91554   7.137   2.705   8.687 -0.5610  0.2732 -0.4455
  679MOL0     C91555   7.117   2.836   8.650  0.6876 -0.6356 -0.6123
  679MOL0     C91556   7.024   2.927   8.714 -0.5717 -0.2194  0.7705
  679MOL0     C91557   7.002   3.054   8.661  1.1101  0.8006 -0.4136
  679MOL0     C91558   7.072   3.102   8.546 -0.1537 -0.0286 -0.2399
  679MOL0     C91559   7.039   3.231   8.482  0.7291  0.3180 -1.2165
  679MOL0     O91560   7.106   3.256   8.368 -0.0231  0.2183 -0.1615
  679MOL0     C91561   7.070   3.370   8.303  0.5427  0.1849  0.9656
  679MOL0     C91562   7.026   3.350   8.172  0.8865 -0.7554  1.2061
  679MOL0     C91563   6.984   3.466   8.099 -0.7010 -1.5769 -0.4659
  679MOL0     C91564   7.005   3.597   8.151  0.4828 -0.2037  0.9148
  679MOL0     O91565   6.971   3.708   8.073 -0.2628  0.3299 -0.1363
  679MOL0     C91566   7.022   3.705   7.940  0.1022  0.3187  0.0837
  679MOL0     C91567   7.044   3.838   7.873  0.5189 -0.2976  0.6282
  679MOL0     C91568   7.081   3.836   7.718  0.3649 -0.4779  0.1129
  679MOL0     C91569   6.957   3.821   7.630  0.1277  0.4602 -0.1851
  679MOL0     C91570   6.969   3.862   7.481 -0.8453  0.1265 -0.2443
  679MOL0     C91571   6.821   3.887   7.429  0.7328 -0.8755  0.4736
  679MOL0     C91572   6.734   3.749   7.415 -0.1031 -0.3693 -0.0949
  679MOL0     C91573   6.804   3.651   7.328  0.3517 -0.3060 -0.0141
  679MOL0    Cl91574   6.696   3.511   7.324 -0.3287 -0.5383  0.7452
  679MOL0     C91575   7.056   3.612   8.281  1.5803  0.1259 -0.7012
  679MOL0     C91576   7.085   3.505   8.354 -0.0735  0.8452 -1.1898
  679MOL0     O91577   6.951   3.303   8.534 -0.5025  0.5069  0.2774
  679MOL0     C91578   7.162   3.011   8.484 -0.1205 -0.6050  0.0736
  679MOL0     C91579   7.184   2.886   8.533 -0.0378 -0.2344 -0.4001
  679MOL0     N91580   7.556   2.388   9.008 -0.1427 -0.5738 -0.1738
  679MOL0     N91581   7.650   2.363   8.923 -0.4256  0.2523 -0.9427
  679MOL0     C91582   8.137   2.505   8.779 -0.2653  0.2857  0.1442
  679MOL0     C91583   8.098   2.576   8.893 -0.3932 -0.5245  0.3409
  679MOL0     C91584   7.954   2.805   9.215  0.2511  0.5139 -0.0913
  679MOL0     C91585   7.821   2.816   9.279  0.4332 -0.1409  0.2562
  679MOL0     C91586   7.806   2.887   9.401  0.0936  0.4800  0.3711
  679MOL0     C91587   7.920   2.937   9.461 -0.0370  0.0153 -0.5346
  679MOL0     O91588   7.897   3.010   9.574 -0.0640 -0.2978  0.3175
  679MOL0     C91589   8.004   3.083   9.641  0.2540  0.2759 -0.4821
  679MOL0     C91590   8.068   2.995   9.747 -0.8523 -0.4649 -1.2563
  679MOL0     C91591   7.952   2.937   9.847 -0.1015  0.1704  0.0349
  679MOL0     C91592   8.022   2.880   9.970 -0.2554 -0.1281 -0.4020
  679MOL0     C91593   8.065   2.988  10.061 -0.3424  0.3900 -0.7624
  679MOL0     C91594   8.102   3.085  10.125 -0.0065 -1.2868  0.2540
  679MOL0     C91595   8.045   2.914   9.413 -0.6451  0.5225 -0.5511
  679MOL0     C91596   8.067   2.859   9.282 -0.2144  0.1608 -2.5541
  679MOL0     C91597   8.201   2.872   9.221 -0.2050  0.4208 -0.1485
  679MOL0     H91598   8.130   2.883   8.762  0.7617 -0.0143  1.4240
  679MOL0     H91599   8.220   2.767   8.585  0.5037  0.7515 -0.2716
  679MOL0     H91600   8.080   2.612   8.412 -0.4249 -1.5852  1.4602
  679MOL0     H91601   8.262   2.634   8.394  0.5683  0.2593  0.2559
  679MOL0     H91602   8.273   2.406   8.331  0.5719  1.1092  0.0236
  679MOL0     H91603   8.170   2.502   8.217 -3.0864  1.1847  1.0939
  679MOL0     H91604   8.060   2.300   8.435 -0.0440 -3.0134 -1.6286
  679MOL0     H91605   8.105   2.269   8.268 -0.6076  0.0404 -1.0059
  679MOL0     H91606   7.940   2.501   8.264 -0.2000  0.9530  4.0439
  679MOL0     H91607   7.903   2.344   8.197  2.7767 -1.7546  0.8307
  679MOL0     H91608   7.728   2.395   8.365 -0.9330  2.6437  3.9993
  679MOL0     H91609   7.827   2.268   8.431  4.1028 -0.1358 -0.2158
  679MOL0     H91610   7.943   2.457   8.552  0.2573  0.4145 -1.8256
  679MOL0     H91611   7.845   2.567   8.482  3.2938  1.9706  3.5939
  679MOL0     H91612   7.700   2.338   8.626 -2.4083 -0.1363 -1.8722
  679MOL0     H91613   7.638   2.489   8.578 -1.0500 -0.7042  3.3536
  679MOL0     H91614   7.868   2.440   8.758 -0.5621 -1.1599 -1.0523
  679MOL0     H91615   7.808   2.602   8.744 -0.7613  0.9338  2.0858
  679MOL0     H91616   7.571   2.674   8.867  1.6815  0.1006 -1.6498
  679MOL0     H91617   7.392   2.526   9.167  0.6222  1.7904  2.0392
  679MOL0     H91618   7.405   2.682   9.083  1.3604 -0.2705  0.0876
  679MOL0     H91619   7.241   2.461   8.995  0.8190  0.6912  2.6391
  679MOL0     H91620   7.186   2.611   9.076  2.0514  1.0008  1.6934
  679MOL0     H91621   7.336   2.625   8.816  2.1356 -1.1127  2.9558
  679MOL0     H91622   7.279   2.764   8.912  1.8542 -1.5634  5.8634
  679MOL0     H91623   7.041   2.700   8.874  0.9753  0.5882  1.3466
  679MOL0     H91624   7.092   2.547   8.801  1.2569 -0.2581  0.5580
  679MOL0     H91625   6.979   2.890   8.806  0.7388  0.2202  1.6134
  679MOL0     H91626   6.929   3.125   8.698  1.2118  0.0763  1.2714
  679MOL0     H91627   7.020   3.250   8.132 -0.4655 -0.0016 -0.6506
  679MOL0     H91628   6.937   3.453   8.002 -0.3759 -0.1549 -0.8242
  679MOL0     H91629   7.108   3.638   7.951 -0.4469 -0.0851  2.8073
  679MOL0     H91630   6.946   3.645   7.889 -0.1961  0.4400  0.3837
  679MOL0     H91631   6.967   3.913   7.890  0.5365  0.7592 -3.0128
  679MOL0     H91632   7.127   3.875   7.933  0.7464  0.8257 -0.3348
  679MOL0     H91633   7.134   3.928   7.694 -1.7295  1.6128  2.8500
  679MOL0     H91634   7.153   3.758   7.694  1.6153  0.6538  0.0976
  679MOL0     H91635   6.879   3.888   7.667 -1.6631 -0.5793 -1.8843
  679MOL0     H91636   6.918   3.719   7.639  0.5870 -0.0275 -2.7828
  679MOL0     H91637   7.027   3.780   7.438  0.1563  0.4998  0.3597
  679MOL0     H91638   7.028   3.953   7.465  3.5911 -2.2313  0.9185
  679MOL0     H91639   6.775   3.972   7.480  4.7159  0.6492  1.9701
  679MOL0     H91640   6.833   3.930   7.329  0.6158  1.8239  1.5382
  679MOL0     H91641   6.637   3.772   7.371  0.6914 -3.5532 -4.0604
  679MOL0     H91642   6.713   3.712   7.516  4.6784  0.0449  1.3083
  679MOL0     H91643   6.812   3.689   7.226 -1.6659  2.4123  0.7250
  679MOL0     H91644   6.902   3.616   7.362  0.9102 -0.5180 -1.7272
  679MOL0     H91645   7.073   3.706   8.331  3.4298 -1.3055  1.5541
  679MOL0     H91646   7.113   3.535   8.455 -1.5316  1.7761 -1.0414
  679MOL0     H91647   7.207   3.038   8.389 -0.2611  1.0957  0.4479
  679MOL0     H91648   7.251   2.832   8.467  0.7202 -0.5882  0.6441
  679MOL0     H91649   8.120   2.398   8.779  2.0969 -0.1289  0.1984
  679MOL0     H91650   8.056   2.507   8.966 -1.0798 -3.9608 -3.0135
  679MOL0     H91651   7.732   2.768   9.240 -0.4705  1.1009  0.7504
  679MOL0     H91652   7.724   2.894   9.471  1.7969 -4.9680  3.4805
  679MOL0     H91653   7.968   3.165   9.703 -1.4019 -1.1506  0.5693
  679MOL0     H91654   8.076   3.131   9.574  0.2348  0.7761 -0.1481
  679MOL0     H91655   8.154   3.044   9.792  0.2506 -2.9411 -0.5147
  679MOL0     H91656   8.102   2.909   9.689 -0.4820 -0.8980 -0.4047
  679MOL0     H91657   7.895   2.859   9.794 -1.4068  0.7505  0.5364
  679MOL0     H91658   7.876   3.013   9.869 -0.9626 -0.7897  0.4847
  679MOL0     H91659   7.959   2.812  10.028  1.3581 -1.3118  0.0431
  679MOL0     H91660   8.100   2.820   9.924  0.9411  0.5926  0.6210
  679MOL0     H91661   8.126   3.175  10.178  1.6157 -3.3886  3.4931
  679MOL0     H91662   8.128   2.948   9.473 -1.3529  1.3875 -0.0416
  679MOL0     H91663   8.203   2.926   9.126  1.3977  0.8137  0.0871
  679MOL0     H91664   8.281   2.918   9.280  1.0160 -0.5733 -0.9563
  679MOL0     H91665   8.237   2.769   9.211  2.2128  1.0353  1.4490
  680MOL0     O91666   0.572   7.482   3.139  0.2174 -0.6585 -0.7331
  680MOL0     C91667   0.609   7.604   3.146  0.7503  0.5715  0.3709
  680MOL0     O91668   0.603   7.672   3.261 -0.2136 -0.4675  0.6875
  680MOL0     C91669   0.489   7.666   3.335 -1.2021 -0.1113  0.4781
  680MOL0     C91670   0.358   7.626   3.280 -0.1438  0.6718  0.3091
  680MOL0     C91671   0.254   7.614   3.364  0.1811 -0.4780 -0.3866
  680MOL0     C91672   0.267   7.636   3.505  0.3905 -0.4640 -0.9793
  680MOL0     O91673   0.180   7.619   3.609 -0.6173  0.4037 -0.5327
  680MOL0     C91674   0.048   7.608   3.574  0.7842 -1.2929 -0.3526
  680MOL0     C91675  -0.064   7.629   3.678 -1.4125 -0.1495  0.3692
  680MOL0     C91676  -0.046   7.768   3.756  0.5065  0.2522  0.8013
  680MOL0     C91677  -0.066   7.895   3.662 -0.1057 -0.2302  0.1169
  680MOL0     C91678  -0.017   8.012   3.746 -0.7855  0.8097  0.5662
  680MOL0     C91679  -0.083   8.041   3.887 -0.3066  0.3149  0.0720
  680MOL0     C91680  -0.063   8.180   3.931 -0.0785  0.7033 -0.6273
  680MOL0     C91681  -0.113   8.201   4.077 -0.5005 -0.1128  0.1213
  680MOL0     N91682  -0.022   8.161   4.190  0.0073  0.2701 -0.3957
  680MOL0     C91683   0.050   8.236   4.272 -0.0433 -0.7424  0.1717
  680MOL0     C91684   0.084   8.161   4.379  0.3470 -0.4337  0.0603
  680MOL0     C91685   0.142   8.207   4.507 -1.7195  0.4467  0.3522
  680MOL0     C91686   0.277   8.283   4.477  0.0952 -0.2916 -0.3903
  680MOL0     C91687   0.400   8.185   4.495  0.8819 -0.6768  0.1820
  680MOL0     C91688   0.428   8.161   4.635  0.8093  1.0014  0.0296
  680MOL0     O91689   0.564   8.118   4.671  0.1929  0.0701  0.5452
  680MOL0     C91690   0.602   8.062   4.783 -0.5590  0.0705 -0.0197
  680MOL0     C91691   0.516   8.047   4.889  0.0956 -1.0787 -0.9454
  680MOL0     C91692   0.557   7.999   5.013  0.0056 -0.1913  0.4137
  680MOL0     C91693   0.695   7.987   5.039  0.0274 -0.2998  0.7162
  680MOL0     C91694   0.743   7.956   5.172  0.2920 -0.8906 -0.7847
  680MOL0     O91695   0.868   7.900   5.188 -0.3507 -0.7367  0.2670
  680MOL0     C91696   0.920   7.885   5.314  0.3760 -0.3782  0.2126
  680MOL0     C91697   0.861   7.816   5.427  0.2044 -0.0413 -0.8453
  680MOL0     C91698   0.947   7.789   5.535 -0.2647  0.3250 -0.0030
  680MOL0     C91699   1.082   7.828   5.537 -0.7855  0.2981  0.9568
  680MOL0     O91700   1.151   7.795   5.648  0.3908  0.8604 -0.2463
  680MOL0     C91701   1.252   7.879   5.704  0.6006  0.7889 -0.1108
  680MOL0     C91702   1.196   8.022   5.723  0.5922 -0.5438 -0.3310
  680MOL0     C91703   1.280   8.112   5.802  0.3645 -0.7653 -0.6508
  680MOL0     C91704   1.215   8.233   5.862  0.1257  0.4651  0.0065
  680MOL0     C91705   1.227   8.348   5.760 -0.6139 -0.0337  0.4988
  680MOL0     C91706   1.343   8.447   5.797  0.2465  0.5203 -0.8004
  680MOL0     C91707   1.487   8.402   5.787 -0.2759 -0.3755 -0.9104
  680MOL0     C91708   1.535   8.408   5.643 -0.1311  0.2458 -0.0894
  680MOL0    Cl91709   1.506   8.559   5.570 -0.0900  0.5364  0.0068
  680MOL0     C91710   1.132   7.889   5.423  0.4912 -0.5587  0.2613
  680MOL0     C91711   1.057   7.922   5.313 -0.6933  0.2951  0.5263
  680MOL0     O91712   0.666   7.970   5.270 -0.8140  0.0651  0.6771
  680MOL0     C91713   0.790   8.010   4.932 -0.6528 -1.1087 -0.2513
  680MOL0     C91714   0.740   8.047   4.801 -0.1467 -0.2047 -1.1324
  680MOL0     N91715   0.033   8.039   4.363  0.5188 -0.1667  0.5141
  680MOL0     N91716  -0.034   8.036   4.248 -0.4928  0.6204 -0.8455
  680MOL0     C91717   0.392   7.681   3.553  0.6837 -0.1055 -0.3493
  680MOL0     C91718   0.496   7.705   3.469  0.0450 -0.8151  1.0889
  680MOL0     C91719   0.689   7.666   3.033 -0.3948 -0.3311 -0.0826
  680MOL0     C91720   0.775   7.778   3.048 -0.0079  0.6307  0.0533
  680MOL0     C91721   0.852   7.832   2.945  0.2374 -0.4034  0.4676
  680MOL0     C91722   0.842   7.780   2.819  0.8366 -0.1983  0.0794
  680MOL0     O91723   0.917   7.814   2.712  0.0308 -0.4514 -0.6603
  680MOL0     C91724   0.945   7.949   2.705 -0.1417  0.2192 -0.2770
  680MOL0     C91725   0.983   7.976   2.555  0.1058  0.0715 -0.3757
  680MOL0     C91726   1.138   7.957   2.544  0.4920  0.1097  0.6485
  680MOL0     C91727   1.180   7.973   2.400 -0.2189  0.6811  0.4662
  680MOL0     C91728   1.320   8.007   2.385 -0.2007  0.0921  0.3513
  680MOL0     C91729   1.435   8.044   2.364 -0.8330 -0.0514 -0.5987
  680MOL0     C91730   0.760   7.667   2.801  0.0421 -0.2623 -0.8584
  680MOL0     C91731   0.677   7.613   2.899 -0.0563 -0.5283  0.0118
  680MOL0     C91732   0.583   7.499   2.843 -0.3781  0.0569 -0.1885
  680MOL0     H91733   0.349   7.594   3.177  0.4454 -1.2249  0.7978
  680MOL0     H91734   0.160   7.592   3.313 -0.1274  1.9585 -1.0053
  680MOL0     H91735   0.039   7.688   3.499  0.5569 -1.9615 -1.0606
  680MOL0     H91736   0.025   7.512   3.526 -4.1867  0.2702 -1.7273
  680MOL0     H91737  -0.062   7.539   3.739 -1.7248 -2.7250 -3.0705
  680MOL0     H91738  -0.166   7.630   3.637 -1.4131  1.0710  0.3598
  680MOL0     H91739   0.050   7.786   3.805  1.8355 -0.0744 -1.5380
  680MOL0     H91740  -0.129   7.767   3.828 -0.4693  0.5452 -0.2777
  680MOL0     H91741   0.001   7.875   3.577  2.1755 -0.0388  1.7947
  680MOL0     H91742  -0.171   7.910   3.636  0.2881  3.7721  0.2630
  680MOL0     H91743   0.091   8.014   3.763 -0.7765  1.8271  0.4239
  680MOL0     H91744  -0.013   8.095   3.676  4.8965 -2.0654 -3.2902
  680MOL0     H91745  -0.190   8.023   3.871 -0.1542  0.2522 -0.9476
  680MOL0     H91746  -0.045   7.984   3.972  0.1655  2.0459  1.0859
  680MOL0     H91747  -0.133   8.245   3.877 -2.4579 -0.8027  0.4929
  680MOL0     H91748   0.043   8.207   3.929 -0.2965  1.6890  0.0978
  680MOL0     H91749  -0.149   8.305   4.079 -0.5765 -0.0748 -1.6496
  680MOL0     H91750  -0.202   8.137   4.073 -0.7410  0.1381 -4.5876
  680MOL0     H91751   0.068   8.343   4.274 -1.7507 -0.3115 -2.2620
  680MOL0     H91752   0.067   8.279   4.542 -0.1185  0.8471  3.2317
  680MOL0     H91753   0.142   8.125   4.578 -0.0921  0.8617  0.8726
  680MOL0     H91754   0.288   8.325   4.376  3.3282  2.3558  0.8570
  680MOL0     H91755   0.283   8.362   4.552 -2.0032  0.3942 -0.8783
  680MOL0     H91756   0.482   8.236   4.443 -0.0951 -0.5356 -1.2993
  680MOL0     H91757   0.375   8.092   4.443 -0.8184 -0.5908  0.8049
  680MOL0     H91758   0.370   8.072   4.660  0.8925  1.7030  3.1866
  680MOL0     H91759   0.401   8.243   4.703 -0.5589  0.1844  0.5137
  680MOL0     H91760   0.412   8.074   4.881  0.0421  0.4008  2.6731
  680MOL0     H91761   0.490   7.972   5.094  1.7856 -1.6831  1.4626
  680MOL0     H91762   0.761   7.774   5.429  0.8605 -1.7276  1.8603
  680MOL0     H91763   0.897   7.748   5.622 -4.0019  2.7616 -0.7668
  680MOL0     H91764   1.297   7.831   5.791  0.8732 -0.9682 -1.1914
  680MOL0     H91765   1.333   7.893   5.633  1.7724  2.8245  1.5037
  680MOL0     H91766   1.165   8.076   5.633  1.4626 -2.0676 -1.6003
  680MOL0     H91767   1.107   8.001   5.784  1.3901 -2.3121  0.3018
  680MOL0     H91768   1.315   8.059   5.891 -2.6840 -2.3826 -0.2722
  680MOL0     H91769   1.373   8.142   5.753  2.1587 -1.1054  2.2678
  680MOL0     H91770   1.261   8.258   5.959  2.2205 -3.0303  0.1085
  680MOL0     H91771   1.110   8.210   5.882  0.1383  0.0368 -0.4174
  680MOL0     H91772   1.127   8.392   5.769 -1.5729 -1.9095 -0.4479
  680MOL0     H91773   1.219   8.314   5.657  0.8265  2.0921 -0.3942
  680MOL0     H91774   1.325   8.544   5.749 -0.7138  0.6177 -0.2587
  680MOL0     H91775   1.338   8.460   5.906 -1.2539 -2.4577 -0.4253
  680MOL0     H91776   1.500   8.307   5.839  1.2171  0.7613  0.9446
  680MOL0     H91777   1.549   8.471   5.845 -1.2615 -1.0146  1.0030
  680MOL0     H91778   1.636   8.373   5.619 -0.7123  0.1716 -2.8511
  680MOL0     H91779   1.474   8.339   5.584 -0.9048 -1.4905  2.5934
  680MOL0     H91780   1.236   7.918   5.421 -0.6496  4.4316  0.3099
  680MOL0     H91781   1.110   7.966   5.229  1.3203 -2.1797  0.3534
  680MOL0     H91782   0.898   8.006   4.940 -0.4230  2.0014 -0.3282
  680MOL0     H91783   0.811   8.077   4.725  0.0244  0.2268 -0.8040
  680MOL0     H91784   0.385   7.704   3.659 -1.8139  4.5121 -1.2853
  680MOL0     H91785   0.589   7.748   3.505  1.2333 -1.8955 -0.5881
  680MOL0     H91786   0.802   7.824   3.142 -0.5254  0.4907  0.2733
  680MOL0     H91787   0.923   7.911   2.965 -0.7311  0.4053  0.8448
  680MOL0     H91788   1.031   7.984   2.763 -0.5145  1.8317 -0.6440
  680MOL0     H91789   0.866   8.022   2.730 -1.0703 -0.2214 -1.8303
  680MOL0     H91790   0.976   8.082   2.526  0.4055 -0.0262 -0.8146
  680MOL0     H91791   0.919   7.925   2.482  2.1956 -0.0712 -2.2188
  680MOL0     H91792   1.164   7.859   2.585 -2.4677 -0.9061  0.3728
  680MOL0     H91793   1.184   8.032   2.609 -1.9141  1.4545  0.9620
  680MOL0     H91794   1.156   7.883   2.343 -0.2272 -0.8028  2.6828
  680MOL0     H91795   1.116   8.050   2.356 -0.9547 -0.3003 -0.2069
  680MOL0     H91796   1.532   8.088   2.360 -0.5024 -0.7786 -0.7340
  680MOL0     H91797   0.748   7.627   2.701 -2.2139  0.8421 -1.0824
  680MOL0     H91798   0.482   7.528   2.872  0.3380  1.4738  1.0685
  680MOL0     H91799   0.599   7.508   2.735 -1.2351 -0.4436 -0.3687
  680MOL0     H91800   0.621   7.403   2.879  1.4174  1.4473  1.9346
  681MOL0     O91801   0.821   5.099  11.133 -0.1662  0.2497  0.5045
  681MOL0     C91802   0.790   5.198  11.061  0.3349 -0.5560 -1.0211
  681MOL0     O91803   0.690   5.185  10.968 -0.4800  0.0314  0.5424
  681MOL0     C91804   0.624   5.066  10.954  0.3174 -0.9562  0.3511
  681MOL0     C91805   0.490   5.063  10.991 -0.4780  1.1456  0.7870
  681MOL0     C91806   0.420   4.940  10.978 -0.4858 -0.1426  0.4228
  681MOL0     C91807   0.480   4.825  10.934 -0.8856 -0.1121  0.5542
  681MOL0     O91808   0.430   4.702  10.928  0.1780 -1.0004 -1.2366
  681MOL0     C91809   0.344   4.659  11.038  0.2581  1.3705  0.9360
  681MOL0     C91810   0.429   4.547  11.112 -0.4145  0.4236 -0.5985
  681MOL0     C91811   0.415   4.413  11.052  0.1833  0.4140  0.1602
  681MOL0     C91812   0.470   4.396  10.920  0.1420  0.4339  1.2971
  681MOL0     C91813   0.436   4.270  10.847 -1.4544  0.6038 -0.5503
  681MOL0     C91814   0.507   4.251  10.714 -0.2137  0.4091  0.0369
  681MOL0     C91815   0.440   4.134  10.650  0.5881  0.4511  0.3016
  681MOL0     C91816   0.320   4.182  10.572  0.9005  0.6163 -0.2118
  681MOL0     N91817   0.358   4.271  10.456 -0.0346  0.2185 -0.7617
  681MOL0     C91818   0.443   4.233  10.350 -0.6963  0.1001 -0.2773
  681MOL0     C91819   0.454   4.341  10.271  0.0406  0.5110 -0.3897
  681MOL0     C91820   0.552   4.358  10.160  0.7270 -0.1213  0.2801
  681MOL0     C91821   0.466   4.417  10.042  0.6027  0.1119  1.4330
  681MOL0     C91822   0.362   4.312   9.987  0.2084  0.8458  0.1713
  681MOL0     C91823   0.283   4.369   9.868  0.1340 -0.7427 -0.0265
  681MOL0     O91824   0.166   4.289   9.847 -0.7982  0.0666  0.2226
  681MOL0     C91825   0.117   4.298   9.723 -0.0653  1.1396  1.3805
  681MOL0     C91826   0.018   4.199   9.692 -0.1374  0.3847  0.9183
  681MOL0     C91827  -0.022   4.165   9.560 -1.1296  0.0653 -0.2409
  681MOL0     C91828   0.042   4.225   9.453  0.0154 -0.3340 -0.0590
  681MOL0     C91829   0.017   4.173   9.321  0.0891  0.0195 -0.2898
  681MOL0     O91830   0.101   4.208   9.218  0.0530 -0.4553  0.5920
  681MOL0     C91831   0.055   4.161   9.096  0.3648  0.4022  0.0049
  681MOL0     C91832  -0.054   4.217   9.026 -0.8934  1.4570 -0.2705
  681MOL0     C91833  -0.090   4.179   8.894  0.5286 -0.2496 -0.2076
  681MOL0     C91834  -0.011   4.087   8.829  0.2375  0.3335  1.0771
  681MOL0     O91835  -0.065   4.038   8.711 -0.9870 -0.3017  0.7017
  681MOL0     C91836  -0.019   3.899   8.672  0.4173 -0.3934  0.1540
  681MOL0     C91837  -0.099   3.857   8.548 -0.3835  0.6034 -0.7241
  681MOL0     C91838  -0.079   3.719   8.482  0.0398 -0.6943 -0.2792
  681MOL0     C91839  -0.133   3.606   8.565 -0.3258 -0.2583  0.4838
  681MOL0     C91840  -0.138   3.480   8.498 -0.0213 -0.4798  0.7766
  681MOL0     C91841  -0.007   3.415   8.461 -0.0863 -0.5457 -1.1472
  681MOL0     C91842  -0.038   3.266   8.412  0.2728  0.0789 -0.8991
  681MOL0     C91843   0.093   3.203   8.350  0.1167  0.0943 -0.4581
  681MOL0    Cl91844   0.092   3.228   8.179  0.4480 -0.3237  0.0734
  681MOL0     C91845   0.107   4.041   8.888 -0.0493 -0.3281  0.7678
  681MOL0     C91846   0.136   4.075   9.022  0.0247  0.9204 -0.2328
  681MOL0     O91847  -0.078   4.090   9.311 -0.2128 -0.6014 -0.4414
  681MOL0     C91848   0.142   4.317   9.478  1.1493 -0.1960 -0.3056
  681MOL0     C91849   0.175   4.356   9.614 -0.2115  0.7561  1.2733
  681MOL0     N91850   0.378   4.444  10.328  0.2842 -0.2439 -0.6729
  681MOL0     N91851   0.312   4.393  10.435  0.7082 -0.3412  0.0913
  681MOL0     C91852   0.618   4.839  10.898 -1.1736  0.0368 -0.1937
  681MOL0     C91853   0.685   4.954  10.912 -0.4408 -1.2632 -0.1394
  681MOL0     C91854   0.845   5.345  11.094  0.4694  1.3493  0.6273
  681MOL0     C91855   0.802   5.450  11.010 -0.5013  1.5114  0.2009
  681MOL0     C91856   0.833   5.576  11.048 -0.9001 -0.9567 -0.1205
  681MOL0     C91857   0.910   5.608  11.154  0.0582  0.9465 -0.6390
  681MOL0     O91858   0.942   5.740  11.164 -0.2135  0.3679 -0.0374
  681MOL0     C91859   1.065   5.765  11.230  0.2982  0.2964 -0.6731
  681MOL0     C91860   1.111   5.904  11.194  0.8274 -0.4270  0.4394
  681MOL0     C91861   1.249   5.944  11.237 -0.0963  0.3248 -0.5314
  681MOL0     C91862   1.282   5.936  11.388 -0.4892 -0.7286 -0.5582
  681MOL0     C91863   1.405   6.014  11.415 -0.7953 -0.5417 -0.8003
  681MOL0     C91864   1.497   6.085  11.449 -1.1271 -0.5702 -0.1111
  681MOL0     C91865   0.953   5.506  11.241  0.6980 -1.4851  0.5807
  681MOL0     C91866   0.926   5.373  11.211  0.8171  0.3047  1.1389
  681MOL0     C91867   0.975   5.266  11.317 -0.4789 -0.3726  0.9013
  681MOL0     H91868   0.428   5.145  11.027 -5.0685 -1.9494  0.8007
  681MOL0     H91869   0.314   4.946  11.001 -0.4798  0.6754  0.2560
  681MOL0     H91870   0.313   4.737  11.108  2.2421  3.9590 -0.8362
  681MOL0     H91871   0.250   4.628  10.992  1.6049  0.7033 -1.5444
  681MOL0     H91872   0.400   4.530  11.216  1.8836 -2.1523 -0.2781
  681MOL0     H91873   0.533   4.577  11.127  0.1973 -1.5762 -0.5235
  681MOL0     H91874   0.313   4.375  11.041  0.6203 -0.1128 -3.0428
  681MOL0     H91875   0.467   4.353  11.127 -3.5338 -1.3403  1.5746
  681MOL0     H91876   0.439   4.477  10.853  1.3173  1.1507  1.5989
  681MOL0     H91877   0.578   4.408  10.931  0.8361 -0.2650 -3.1571
  681MOL0     H91878   0.468   4.188  10.912 -2.4686  0.6576  0.0493
  681MOL0     H91879   0.328   4.255  10.842 -1.8201 -0.2375  4.5448
  681MOL0     H91880   0.503   4.345  10.657 -0.6904  2.8890  3.7573
  681MOL0     H91881   0.610   4.222  10.734 -0.5189 -2.2567 -1.7525
  681MOL0     H91882   0.423   4.066  10.733  1.6963  0.5808  0.6493
  681MOL0     H91883   0.514   4.092  10.581  1.6159  1.4581  0.7435
  681MOL0     H91884   0.273   4.092  10.532 -3.4278  2.8157 -0.5646
  681MOL0     H91885   0.244   4.220  10.641  1.1819 -2.1205  1.7600
  681MOL0     H91886   0.507   4.146  10.344 -1.4958 -0.6115  1.0188
  681MOL0     H91887   0.623   4.437  10.187  0.0156  1.4165 -2.0721
  681MOL0     H91888   0.614   4.271  10.134  0.3843  0.0295 -1.1478
  681MOL0     H91889   0.421   4.513  10.070 -2.8291 -0.1572 -2.2888
  681MOL0     H91890   0.535   4.431   9.958 -0.1668 -2.9734  0.1872
  681MOL0     H91891   0.286   4.289  10.062  1.8340 -1.5617  1.2183
  681MOL0     H91892   0.410   4.219   9.954  0.9292  0.1927  2.8216
  681MOL0     H91893   0.353   4.372   9.783 -0.7066  0.4616 -0.7016
  681MOL0     H91894   0.252   4.472   9.884 -0.8847 -1.4067  2.9466
  681MOL0     H91895  -0.041   4.155   9.772 -0.1236 -0.8841  0.2558
  681MOL0     H91896  -0.103   4.095   9.543  0.5387 -2.3126  1.0802
  681MOL0     H91897  -0.119   4.281   9.086 -0.4968  0.7585  0.9442
  681MOL0     H91898  -0.174   4.215   8.836  0.2209 -0.3272  0.1880
  681MOL0     H91899   0.082   3.910   8.633  0.1428  0.6940 -0.2964
  681MOL0     H91900  -0.021   3.828   8.755  3.2487 -0.9841 -0.1916
  681MOL0     H91901  -0.204   3.868   8.579  0.1112  2.5601  0.4452
  681MOL0     H91902  -0.092   3.929   8.466 -0.9024  0.6282 -0.7546
  681MOL0     H91903  -0.131   3.722   8.386  0.2761 -0.4796 -0.4009
  681MOL0     H91904   0.023   3.695   8.453 -0.9743 -1.4232 -3.7095
  681MOL0     H91905  -0.236   3.615   8.600 -0.5675 -5.2421  1.8686
  681MOL0     H91906  -0.067   3.593   8.652  1.3916 -0.1501 -0.7467
  681MOL0     H91907  -0.200   3.494   8.409  3.3252 -2.4883 -2.1336
  681MOL0     H91908  -0.184   3.404   8.562 -0.7741  0.7055  1.7113
  681MOL0     H91909   0.032   3.468   8.374  1.5764 -3.6527 -2.4609
  681MOL0     H91910   0.058   3.413   8.549 -2.3347  1.1723  0.6598
  681MOL0     H91911  -0.125   3.254   8.346  1.3718 -1.7512 -2.0869
  681MOL0     H91912  -0.053   3.214   8.507 -0.6842  0.1165 -1.0152
  681MOL0     H91913   0.182   3.233   8.405  0.7964 -1.5674 -0.6009
  681MOL0     H91914   0.081   3.095   8.359 -3.0206  0.3689  0.0729
  681MOL0     H91915   0.169   3.974   8.830 -1.3531 -1.6918  0.8911
  681MOL0     H91916   0.234   4.054   9.063 -1.5989 -1.3988  2.8859
  681MOL0     H91917   0.210   4.348   9.399  4.1941 -0.3733  2.0550
  681MOL0     H91918   0.258   4.426   9.616  1.0908 -0.7002  0.5894
  681MOL0     H91919   0.683   4.758  10.868  0.5189  0.2940  2.4561
  681MOL0     H91920   0.791   4.969  10.896 -1.2366  2.7290 -3.0640
  681MOL0     H91921   0.761   5.416  10.915 -1.5610 -3.5801  2.1167
  681MOL0     H91922   0.809   5.658  10.981  0.4050  1.1471  1.8530
  681MOL0     H91923   1.139   5.690  11.200 -2.6173 -3.8722  1.5711
  681MOL0     H91924   1.045   5.760  11.337  0.0939 -1.3359 -0.7620
  681MOL0     H91925   1.041   5.981  11.228  0.2089  0.3846 -2.4330
  681MOL0     H91926   1.099   5.913  11.086 -2.7738  0.0094  0.7345
  681MOL0     H91927   1.282   6.041  11.200 -1.1509  1.1156  0.5453
  681MOL0     H91928   1.321   5.875  11.190  0.6637  0.6804  0.0932
  681MOL0     H91929   1.199   5.963  11.454  0.1272  1.0412 -0.4616
  681MOL0     H91930   1.310   5.833  11.412 -2.5114 -1.2402 -0.1671
  681MOL0     H91931   1.579   6.151  11.468 -1.6449  0.3839 -1.1045
  681MOL0     H91932   1.021   5.534  11.321 -0.5945  3.5169  0.2785
  681MOL0     H91933   1.023   5.183  11.263 -0.0992 -0.5984  1.5720
  681MOL0     H91934   1.047   5.310  11.387  2.7880  1.5355 -3.1960
  681MOL0     H91935   0.894   5.221  11.374  0.1373  2.3517  4.2474
  682MOL0     O91936   0.471   1.716   2.968  0.1295  0.4586  0.6339
  682MOL0     C91937   0.354   1.715   2.936 -0.4291  0.2858 -0.0907
  682MOL0     O91938   0.254   1.685   3.029 -0.5743 -0.4942 -0.1346
  682MOL0     C91939   0.288   1.670   3.162 -0.9414 -0.2192 -0.4898
  682MOL0     C91940   0.373   1.569   3.213 -0.7604  0.7699 -0.3354
  682MOL0     C91941   0.413   1.562   3.345  0.6053 -0.6650  0.3162
  682MOL0     C91942   0.385   1.673   3.433 -0.8048 -0.4069 -0.1705
  682MOL0     O91943   0.421   1.666   3.561  0.1871 -1.1191 -0.2092
  682MOL0     C91944   0.423   1.798   3.632  0.3459  0.4831 -0.6792
  682MOL0     C91945   0.530   1.817   3.741 -0.3613 -0.0268 -0.0999
  682MOL0     C91946   0.675   1.763   3.712  0.7707  0.1461  0.0128
  682MOL0     C91947   0.772   1.791   3.830 -1.6264  0.5828  0.4672
  682MOL0     C91948   0.914   1.743   3.786 -0.7730  0.4356  0.2655
  682MOL0     C91949   0.960   1.672   3.920  0.3254 -0.8916 -0.8285
  682MOL0     C91950   0.979   1.770   4.044  0.0082 -0.4619  0.5031
  682MOL0     C91951   1.097   1.716   4.124 -0.7530  0.4379  0.0181
  682MOL0     N91952   1.129   1.807   4.229  0.1497 -0.1664 -0.6868
  682MOL0     C91953   1.202   1.778   4.340  0.4957  0.1385  0.3999
  682MOL0     C91954   1.175   1.888   4.415 -0.8066 -0.4269 -0.7764
  682MOL0     C91955   1.220   1.903   4.565 -0.5072 -0.6218 -0.6903
  682MOL0     C91956   1.245   1.771   4.629  1.0437  1.3994  0.5154
  682MOL0     C91957   1.269   1.780   4.775  0.2228 -1.0842  0.0644
  682MOL0     C91958   1.138   1.803   4.842 -0.1948 -0.5364 -1.0081
  682MOL0     O91959   1.146   1.770   4.982  0.1872 -0.2049 -0.5806
  682MOL0     C91960   1.035   1.733   5.058  0.3615 -0.6895 -0.2689
  682MOL0     C91961   1.050   1.683   5.190  0.3913 -0.5758  0.1408
  682MOL0     C91962   0.935   1.637   5.256 -0.9374 -0.4716 -0.6409
  682MOL0     C91963   0.808   1.656   5.216 -0.8651 -0.9492 -0.3043
  682MOL0     C91964   0.701   1.609   5.305 -0.1231  0.7615 -0.8727
  682MOL0     O91965   0.740   1.553   5.426 -0.4619 -0.6491  0.4986
  682MOL0     C91966   0.641   1.524   5.515 -0.5028 -0.0182 -0.1258
  682MOL0     C91967   0.571   1.403   5.501 -1.0667  0.0766 -0.8229
  682MOL0     C91968   0.481   1.363   5.599 -0.5611  0.0113 -0.2076
  682MOL0     C91969   0.452   1.439   5.707 -0.2786 -0.6597  0.1963
  682MOL0     O91970   0.368   1.390   5.797 -0.1388  0.4185  0.5115
  682MOL0     C91971   0.378   1.426   5.934 -1.0314 -0.3508 -0.4425
  682MOL0     C91972   0.300   1.550   5.985 -0.6217 -0.4162  0.0926
  682MOL0     C91973   0.289   1.552   6.144  0.4492  0.2457 -0.0301
  682MOL0     C91974   0.205   1.436   6.187  0.8243  0.5787 -0.5754
  682MOL0     C91975   0.083   1.471   6.285  0.6391 -0.7091  0.2408
  682MOL0     C91976   0.016   1.343   6.340  0.1109 -0.6698  0.1369
  682MOL0     C91977  -0.038   1.262   6.229  0.5216 -0.3314  0.3380
  682MOL0     C91978  -0.138   1.155   6.263 -0.2798 -0.1216 -0.1184
  682MOL0    Cl91979  -0.309   1.216   6.267 -0.0432  0.0619  0.6266
  682MOL0     C91980   0.504   1.568   5.719 -0.3705 -0.4484  0.4188
  682MOL0     C91981   0.598   1.610   5.621  0.3578  0.6006 -0.0564
  682MOL0     O91982   0.581   1.625   5.266 -0.4208 -0.8834  0.2115
  682MOL0     C91983   0.788   1.732   5.090 -0.2255  1.0007 -1.2700
  682MOL0     C91984   0.907   1.778   5.017  0.1001 -0.3935  0.5474
  682MOL0     N91985   1.114   1.985   4.350  0.0572 -1.2884  0.1509
  682MOL0     N91986   1.073   1.929   4.236 -0.7593 -0.1433  1.1385
  682MOL0     C91987   0.300   1.769   3.380 -0.4121  0.1971 -0.6406
  682MOL0     C91988   0.252   1.768   3.250  0.7200 -0.3370 -0.0752
  682MOL0     C91989   0.300   1.718   2.794  0.5270  0.3163 -0.4802
  682MOL0     C91990   0.164   1.689   2.763  0.0735 -0.6215 -0.0276
  682MOL0     C91991   0.121   1.670   2.626  0.5672  0.3239 -0.0168
  682MOL0     C91992   0.199   1.710   2.519  0.2207  0.4147 -0.5945
  682MOL0     O91993   0.143   1.693   2.399  0.2531 -0.3814 -0.4571
  682MOL0     C91994   0.211   1.730   2.284  0.7569 -0.1260  0.5266
  682MOL0     C91995   0.100   1.711   2.180 -0.9702  1.0368 -1.0335
  682MOL0     C91996   0.170   1.726   2.037  0.1519 -0.3688  0.3581
  682MOL0     C91997   0.185   1.870   2.002  1.1825  0.0919 -0.8250
  682MOL0     C91998   0.312   1.931   2.050  0.4464 -0.2205 -0.6523
  682MOL0     C91999   0.413   1.985   2.088 -0.0414 -0.6713  0.8422
  682MOL0     C92000   0.327   1.751   2.547 -0.2227  1.0705 -0.7203
  682MOL0     C92001   0.379   1.755   2.686  0.0995  0.5047 -0.4686
  682MOL0     C92002   0.518   1.804   2.695  0.7934 -0.2665 -0.1674
  682MOL0     H92003   0.397   1.486   3.147  1.2452 -0.8657  2.2375
  682MOL0     H92004   0.452   1.472   3.392  1.6961 -0.6974 -0.6096
  682MOL0     H92005   0.447   1.875   3.558  1.7725  0.9191  0.1838
  682MOL0     H92006   0.326   1.820   3.677 -1.3072 -3.5882 -1.8442
  682MOL0     H92007   0.487   1.775   3.832 -3.9388  1.5301 -0.8696
  682MOL0     H92008   0.523   1.924   3.761 -3.0684 -0.3019  0.8128
  682MOL0     H92009   0.707   1.818   3.623  2.1079  3.1444  2.1582
  682MOL0     H92010   0.666   1.662   3.672 -3.9016  1.2383 -2.5832
  682MOL0     H92011   0.772   1.899   3.845 -0.5117  0.6389  0.1562
  682MOL0     H92012   0.729   1.746   3.920 -0.0695 -1.4429  0.2686
  682MOL0     H92013   0.913   1.666   3.709  1.7552 -2.3637  2.7810
  682MOL0     H92014   0.989   1.822   3.772 -0.0487  0.0151  1.5765
  682MOL0     H92015   0.888   1.596   3.953 -0.8910 -0.3468 -2.0932
  682MOL0     H92016   1.053   1.617   3.907  1.0885  0.5241 -1.5699
  682MOL0     H92017   0.881   1.773   4.093 -1.1387  0.1769 -1.6681
  682MOL0     H92018   0.986   1.873   4.007 -0.6609  0.2246  2.1754
  682MOL0     H92019   1.068   1.619   4.167 -2.0927  0.9442  0.3018
  682MOL0     H92020   1.192   1.704   4.070 -0.2831  3.2533  0.1055
  682MOL0     H92021   1.240   1.683   4.375  2.2931  0.1406 -1.3897
  682MOL0     H92022   1.317   1.955   4.572 -1.6289  1.9768 -2.7091
  682MOL0     H92023   1.147   1.958   4.625  1.9692  0.9929  1.0433
  682MOL0     H92024   1.162   1.702   4.616 -0.3094  3.2866 -1.6785
  682MOL0     H92025   1.324   1.707   4.587 -1.9196 -0.7464 -2.3399
  682MOL0     H92026   1.317   1.875   4.799 -3.4435  1.1702 -0.6987
  682MOL0     H92027   1.318   1.691   4.814 -4.0697 -3.1519  1.3592
  682MOL0     H92028   1.065   1.735   4.798 -0.3958 -2.8422  2.5006
  682MOL0     H92029   1.111   1.909   4.838  1.6950  0.0367  0.1497
  682MOL0     H92030   1.149   1.671   5.234  0.8632  2.2444  0.0434
  682MOL0     H92031   0.960   1.573   5.340 -0.1764 -1.5921 -1.6932
  682MOL0     H92032   0.596   1.341   5.415  2.3280 -0.8689  0.6596
  682MOL0     H92033   0.433   1.266   5.595 -0.3486 -0.0686 -0.9035
  682MOL0     H92034   0.347   1.340   5.994 -0.9278 -0.4852 -0.5779
  682MOL0     H92035   0.480   1.445   5.970 -0.4677  1.1155 -2.6091
  682MOL0     H92036   0.350   1.640   5.946 -2.3253 -0.9872 -3.8590
  682MOL0     H92037   0.204   1.541   5.935  1.0245 -2.2423 -2.9813
  682MOL0     H92038   0.392   1.554   6.181  0.4015  2.1557  0.0962
  682MOL0     H92039   0.249   1.651   6.167 -2.2762  0.8029 -5.5139
  682MOL0     H92040   0.275   1.366   6.232  0.7159  1.4320  0.9866
  682MOL0     H92041   0.161   1.387   6.100 -0.5766  2.7020 -1.1355
  682MOL0     H92042   0.017   1.526   6.217  2.3288  0.5857 -0.4173
  682MOL0     H92043   0.111   1.539   6.366 -0.0242 -0.4539  0.2692
  682MOL0     H92044   0.088   1.295   6.407 -0.4040  0.2110  1.3489
  682MOL0     H92045  -0.063   1.372   6.409 -1.6506 -0.4006 -1.8600
  682MOL0     H92046   0.048   1.204   6.194  0.3826  0.2789 -1.1238
  682MOL0     H92047  -0.074   1.326   6.148  0.3071  1.2754  1.6515
  682MOL0     H92048  -0.127   1.082   6.182  2.1056 -2.4514  2.1495
  682MOL0     H92049  -0.114   1.095   6.351  0.6472  0.3298 -0.0614
  682MOL0     H92050   0.494   1.635   5.804 -2.5736 -0.8595  0.5283
  682MOL0     H92051   0.654   1.701   5.640  2.6311 -0.5807 -0.7086
  682MOL0     H92052   0.688   1.748   5.052  0.7263 -0.4156 -4.6966
  682MOL0     H92053   0.878   1.835   4.929 -2.9838  0.2543  1.8670
  682MOL0     H92054   0.246   1.838   3.443 -2.1974 -1.9591  0.3396
  682MOL0     H92055   0.169   1.834   3.226 -0.5130 -1.3876  1.1634
  682MOL0     H92056   0.087   1.668   2.836 -1.1754  1.6959 -0.5502
  682MOL0     H92057   0.020   1.637   2.602  1.4676 -1.4753 -1.6430
  682MOL0     H92058   0.294   1.662   2.259 -1.2668 -1.9454 -1.7103
  682MOL0     H92059   0.247   1.833   2.283 -2.2169  0.9924  1.1365
  682MOL0     H92060   0.007   1.767   2.195 -0.7421  1.7969 -2.2639
  682MOL0     H92061   0.064   1.608   2.191  4.0985 -0.6666  4.1195
  682MOL0     H92062   0.107   1.675   1.963 -0.0207  1.6242 -0.9568
  682MOL0     H92063   0.266   1.673   2.031  0.6140  0.1756  2.4108
  682MOL0     H92064   0.180   1.895   1.896 -3.3152  6.2494  0.2971
  682MOL0     H92065   0.103   1.930   2.044  0.7941 -0.2405 -1.0934
  682MOL0     H92066   0.500   2.036   2.124  2.4801 -3.8652 -0.1916
  682MOL0     H92067   0.406   1.789   2.483  2.6657 -1.9596  0.7747
  682MOL0     H92068   0.589   1.731   2.654  1.4633 -0.1443  0.7403
  682MOL0     H92069   0.519   1.889   2.626  0.1497  0.3083  0.5132
  682MOL0     H92070   0.549   1.837   2.795 -0.2453  0.0188  0.0634
  683MOL0     O92071   4.832   6.182   3.433 -0.3199 -0.7635 -1.0356
  683MOL0     C92072   4.892   6.126   3.520  0.3808 -0.1741  0.2957
  683MOL0     O92073   4.831   6.055   3.623  0.3987 -0.2178 -0.1599
  683MOL0     C92074   4.693   6.067   3.624  0.5995  0.2404  0.8692
  683MOL0     C92075   4.619   5.953   3.595  0.4544 -0.0560 -0.3408
  683MOL0     C92076   4.478   5.964   3.575 -0.4411  0.5008 -0.4519
  683MOL0     C92077   4.413   6.087   3.589  0.6343  1.2704  0.5596
  683MOL0     O92078   4.284   6.104   3.551  0.7172  0.0208 -0.0401
  683MOL0     C92079   4.192   5.987   3.554 -0.0380 -0.4750 -0.1098
  683MOL0     C92080   4.129   5.967   3.697 -0.7736  0.5062 -0.0735
  683MOL0     C92081   4.023   6.062   3.747  0.0204 -0.0824 -0.0633
  683MOL0     C92082   3.895   5.993   3.792 -0.1131 -0.1418 -0.4327
  683MOL0     C92083   3.795   6.028   3.691  0.2106 -0.2645  1.0875
  683MOL0     C92084   3.664   5.962   3.708 -0.7390  0.0103 -0.1314
  683MOL0     C92085   3.556   6.040   3.616  0.0757 -0.4276  0.2706
  683MOL0     C92086   3.517   5.956   3.493  0.0014 -0.7326  0.0854
  683MOL0     N92087   3.638   5.949   3.405 -0.3436  1.1657  0.2199
  683MOL0     C92088   3.685   5.834   3.339 -1.0456  0.7296 -0.5798
  683MOL0     C92089   3.793   5.884   3.270  0.3491 -0.4731 -0.5494
  683MOL0     C92090   3.874   5.802   3.179 -0.0003  0.7848  0.3301
  683MOL0     C92091   3.985   5.713   3.254  0.2446  0.6892  0.6220
  683MOL0     C92092   4.106   5.785   3.316  0.5521 -0.0419 -0.0154
  683MOL0     C92093   4.235   5.718   3.306  0.1190  0.0733  0.8539
  683MOL0     O92094   4.268   5.645   3.429  0.0968  0.0660  0.2408
  683MOL0     C92095   4.220   5.512   3.428 -0.7523  0.7473 -0.5540
  683MOL0     C92096   4.191   5.432   3.319  0.7458 -0.3098  0.8133
  683MOL0     C92097   4.123   5.308   3.337 -0.6653 -1.5360 -0.1939
  683MOL0     C92098   4.105   5.244   3.463  1.4621 -0.2221 -0.5538
  683MOL0     C92099   4.059   5.106   3.465  0.2734  0.1763  0.5577
  683MOL0     O92100   4.062   5.054   3.591 -0.3023  0.0240  0.3106
  683MOL0     C92101   4.003   4.930   3.612  1.2244 -0.0420  0.5963
  683MOL0     C92102   4.042   4.814   3.550 -0.1193  0.8838  0.1845
  683MOL0     C92103   3.967   4.693   3.563 -0.0138  0.6217 -0.4087
  683MOL0     C92104   3.853   4.688   3.646 -0.3573 -0.0271 -0.5566
  683MOL0     O92105   3.783   4.576   3.685 -1.0677 -0.4157 -0.4582
  683MOL0     C92106   3.850   4.445   3.682 -0.1997 -0.2545  0.2623
  683MOL0     C92107   3.964   4.433   3.788 -0.3115 -0.6215  0.6909
  683MOL0     C92108   3.904   4.488   3.919 -0.0409  0.1534  1.2032
  683MOL0     C92109   3.991   4.483   4.039 -0.7313 -0.8359 -1.0254
  683MOL0     C92110   4.098   4.592   4.048  0.9332 -0.1376  0.4755
  683MOL0     C92111   4.026   4.735   4.048  0.1809 -0.1172 -1.1267
  683MOL0     C92112   4.119   4.841   4.108 -0.2935  0.3705 -0.3341
  683MOL0     C92113   4.050   4.968   4.059  0.0394  0.3140  0.0621
  683MOL0    Cl92114   4.132   5.111   4.116 -0.2566 -0.5480  0.2036
  683MOL0     C92115   3.801   4.812   3.701  0.0763  1.2309  0.8072
  683MOL0     C92116   3.881   4.927   3.679  0.3192  0.0755 -0.5324
  683MOL0     O92117   4.017   5.050   3.365  0.2876  0.5789  0.8900
  683MOL0     C92118   4.151   5.323   3.571 -0.1459  0.3259 -0.0425
  683MOL0     C92119   4.197   5.452   3.558 -0.4174  0.4724  1.1492
  683MOL0     N92120   3.799   6.019   3.288  0.0587  0.2509  0.2393
  683MOL0     N92121   3.714   6.056   3.372  0.4239  0.5540 -0.0846
  683MOL0     C92122   4.494   6.204   3.622 -0.3648 -0.4536  1.0402
  683MOL0     C92123   4.630   6.188   3.649 -0.0149 -0.4535 -0.5750
  683MOL0     C92124   5.042   6.148   3.521 -0.0346  0.6281 -1.1937
  683MOL0     C92125   5.118   6.078   3.624 -0.1570 -0.2829  0.4132
  683MOL0     C92126   5.258   6.084   3.629 -0.1179  0.2832 -0.6881
  683MOL0     C92127   5.327   6.145   3.523 -0.1025  0.5372 -0.0829
  683MOL0     O92128   5.465   6.169   3.515  0.1547  0.3569  0.9297
  683MOL0     C92129   5.561   6.126   3.615 -0.5847  0.5796  0.8226
  683MOL0     C92130   5.543   6.191   3.750  1.0625  0.4170 -0.3613
  683MOL0     C92131   5.486   6.335   3.754  0.2680  0.3609  0.1651
  683MOL0     C92132   5.570   6.437   3.681 -0.3448 -0.8032  0.3979
  683MOL0     C92133   5.551   6.574   3.729  0.1305  0.4394 -0.3446
  683MOL0     C92134   5.525   6.691   3.750 -1.0840 -0.3797 -0.3984
  683MOL0     C92135   5.257   6.209   3.428  0.1984 -0.2397 -1.3771
  683MOL0     C92136   5.112   6.209   3.417 -0.4283 -0.2752 -0.0961
  683MOL0     C92137   5.060   6.259   3.290 -0.1643  0.1863  0.1295
  683MOL0     H92138   4.660   5.853   3.590  1.0734  0.1236  0.7149
  683MOL0     H92139   4.436   5.868   3.545 -0.6981 -1.2513  4.5682
  683MOL0     H92140   4.102   5.990   3.491 -1.7207  1.1743  2.1888
  683MOL0     H92141   4.248   5.902   3.515 -2.1370 -2.2994  0.6122
  683MOL0     H92142   4.205   5.951   3.774 -4.3030  0.9955  3.9005
  683MOL0     H92143   4.077   5.871   3.691  0.0281 -0.1311  2.2489
  683MOL0     H92144   4.002   6.138   3.672  1.4074  0.5152  0.1102
  683MOL0     H92145   4.064   6.123   3.829 -0.3945  1.3964 -0.9267
  683MOL0     H92146   3.912   5.885   3.791 -0.6862 -0.2716 -2.8127
  683MOL0     H92147   3.870   6.031   3.892  0.8145  0.6834 -0.5100
  683MOL0     H92148   3.780   6.136   3.688 -5.8910 -0.7435 -2.0861
  683MOL0     H92149   3.837   6.003   3.593  0.3410 -0.5351  1.2104
  683MOL0     H92150   3.673   5.856   3.686 -3.3114  0.0310 -1.7437
  683MOL0     H92151   3.640   5.977   3.813  1.4309  0.9940  0.2735
  683MOL0     H92152   3.577   6.139   3.575  2.0008 -1.8812 -2.7151
  683MOL0     H92153   3.457   6.053   3.659 -1.5328  0.1139 -3.2162
  683MOL0     H92154   3.485   5.859   3.531 -3.1100 -0.2167 -0.9456
  683MOL0     H92155   3.435   6.009   3.442  1.8654  0.6437 -1.6606
  683MOL0     H92156   3.650   5.732   3.344 -2.5380  1.2547  0.4340
  683MOL0     H92157   3.808   5.736   3.122  1.1932 -3.3219  3.2165
  683MOL0     H92158   3.923   5.867   3.106 -1.2533 -0.5945 -1.8360
  683MOL0     H92159   3.923   5.670   3.333  1.9955 -1.2079  1.0522
  683MOL0     H92160   4.011   5.625   3.195 -2.5979 -1.4550  2.3190
  683MOL0     H92161   4.091   5.795   3.424 -0.9993 -0.4268 -0.1605
  683MOL0     H92162   4.106   5.888   3.280  1.3802 -0.3326 -0.8982
  683MOL0     H92163   4.311   5.795   3.291  1.8253 -1.6473  0.1868
  683MOL0     H92164   4.228   5.654   3.217 -0.2965 -1.5416  2.0045
  683MOL0     H92165   4.203   5.457   3.214 -1.1431 -1.6035  0.2386
  683MOL0     H92166   4.097   5.248   3.250  0.5679 -2.4031  0.0098
  683MOL0     H92167   4.128   4.810   3.483  0.3442 -3.7331  0.7397
  683MOL0     H92168   4.009   4.601   3.523  4.3025  3.2076 -2.6454
  683MOL0     H92169   3.775   4.371   3.711  1.2683 -1.6049  0.7330
  683MOL0     H92170   3.881   4.415   3.582 -1.8518 -0.7020 -0.1444
  683MOL0     H92171   3.992   4.328   3.797 -2.6086 -1.3549  0.0060
  683MOL0     H92172   4.047   4.496   3.754 -1.7237  2.0897  1.8840
  683MOL0     H92173   3.866   4.591   3.915 -1.0008 -0.0245  3.8351
  683MOL0     H92174   3.815   4.433   3.952  2.1844 -3.8024  1.2966
  683MOL0     H92175   4.042   4.386   4.034 -2.2629 -1.6018 -3.3410
  683MOL0     H92176   3.926   4.484   4.127 -0.6064 -2.8511 -0.8602
  683MOL0     H92177   4.163   4.587   3.960  1.6753 -2.6894  1.0996
  683MOL0     H92178   4.156   4.581   4.140 -1.3241  3.3627  2.5621
  683MOL0     H92179   3.992   4.759   3.946 -0.9456  2.5998 -0.2258
  683MOL0     H92180   3.941   4.723   4.116  1.1389 -0.8698 -0.0249
  683MOL0     H92181   4.213   4.832   4.053 -1.9518 -0.5529 -3.2410
  683MOL0     H92182   4.127   4.830   4.217  2.0199 -1.9952 -0.6298
  683MOL0     H92183   4.041   4.966   3.950 -0.9243 -4.4980 -0.0060
  683MOL0     H92184   3.950   4.962   4.104 -0.1175  1.7030 -0.0540
  683MOL0     H92185   3.711   4.835   3.757 -1.4627 -1.9710 -0.1222
  683MOL0     H92186   3.854   5.022   3.723 -3.1121 -0.9651 -0.1054
  683MOL0     H92187   4.145   5.298   3.676  0.6987  0.0762 -0.0499
  683MOL0     H92188   4.211   5.494   3.658  2.2187 -2.5808  2.2462
  683MOL0     H92189   4.431   6.292   3.608 -0.5812 -1.0315 -2.9415
  683MOL0     H92190   4.680   6.284   3.656 -2.3853  1.0750 -2.6709
  683MOL0     H92191   5.061   6.019   3.694  1.6769 -0.9883  1.3847
  683MOL0     H92192   5.301   6.019   3.704  0.2514 -3.0073 -3.4906
  683MOL0     H92193   5.658   6.158   3.575  0.2974 -0.0354  2.3881
  683MOL0     H92194   5.557   6.017   3.616  0.6276  0.5137  0.6132
  683MOL0     H92195   5.637   6.195   3.805 -0.3569  3.3611  2.0964
  683MOL0     H92196   5.486   6.120   3.810  1.6139  0.5063  0.2737
  683MOL0     H92197   5.490   6.365   3.859  2.8916 -1.8100  0.7898
  683MOL0     H92198   5.390   6.343   3.702  0.5807  2.8509 -0.1888
  683MOL0     H92199   5.677   6.414   3.682 -0.2627 -0.6385  3.2207
  683MOL0     H92200   5.537   6.445   3.577  2.6044 -2.6122 -0.7958
  683MOL0     H92201   5.518   6.792   3.784 -2.5726 -0.6862  0.2798
  683MOL0     H92202   5.319   6.247   3.347  1.6756 -0.4332 -0.3803
  683MOL0     H92203   5.029   6.171   3.234 -0.6437  1.6387 -2.0080
  683MOL0     H92204   4.976   6.328   3.289  0.5238  1.0644 -1.4305
  683MOL0     H92205   5.145   6.302   3.236  2.1289 -2.1596  1.6453
  684MOL0     O92206   2.542  10.626  11.288  0.3342 -0.6121  0.1730
  684MOL0     C92207   2.488  10.697  11.206  0.2397  0.6763 -0.2371
  684MOL0     O92208   2.471  10.832  11.221 -0.4114 -0.8401 -0.3242
  684MOL0     C92209   2.468  10.903  11.337  0.0514  0.4185 -0.2639
  684MOL0     C92210   2.518  11.035  11.360 -0.2376  1.0403  1.3259
  684MOL0     C92211   2.497  11.101  11.482  0.0589 -0.8788  0.4650
  684MOL0     C92212   2.437  11.042  11.594  0.6564  0.3732 -0.4210
  684MOL0     O92213   2.409  11.104  11.706  0.4448 -0.4510 -0.3602
  684MOL0     C92214   2.499  11.084  11.817  0.4468  1.1050  0.9149
  684MOL0     C92215   2.455  11.154  11.940 -0.3602  0.0010 -0.3071
  684MOL0     C92216   2.498  11.301  11.946 -0.1675 -0.5473 -0.3847
  684MOL0     C92217   2.425  11.369  12.065 -0.2973 -0.5355  0.1706
  684MOL0     C92218   2.419  11.517  12.050 -0.3834 -0.5484  0.1694
  684MOL0     C92219   2.328  11.576  12.157  0.7248  0.1277 -0.5125
  684MOL0     C92220   2.337  11.734  12.144 -1.1168 -0.3878  0.0224
  684MOL0     C92221   2.247  11.776  12.022 -0.0133  0.5083 -0.8484
  684MOL0     N92222   2.207  11.917  12.006 -0.8921  0.0281  0.9341
  684MOL0     C92223   2.286  12.030  12.001 -0.6577  0.4517 -0.1499
  684MOL0     C92224   2.219  12.120  11.937  0.0599 -0.4484  0.5205
  684MOL0     C92225   2.276  12.267  11.909  0.1413  0.3391 -1.6555
  684MOL0     C92226   2.183  12.328  11.807  0.1260 -0.2970 -0.5545
  684MOL0     C92227   2.200  12.278  11.664 -0.2214 -0.6043 -0.4414
  684MOL0     C92228   2.077  12.295  11.573 -0.5247  0.5067 -0.8534
  684MOL0     O92229   2.111  12.242  11.441  0.6050  0.1939  1.3685
  684MOL0     C92230   2.055  12.298  11.327 -0.4670 -0.5153  1.0509
  684MOL0     C92231   2.117  12.257  11.207 -0.0460 -0.2121 -0.5060
  684MOL0     C92232   2.055  12.280  11.091 -0.5950 -0.5187  0.0062
  684MOL0     C92233   1.935  12.345  11.077 -0.5596  0.4376  0.5920
  684MOL0     C92234   1.876  12.357  10.939  0.1404  0.0306  0.1192
  684MOL0     O92235   1.742  12.357  10.925  0.1698  0.7490  0.4699
  684MOL0     C92236   1.670  12.396  10.814  0.6973 -0.0476  0.7147
  684MOL0     C92237   1.547  12.329  10.797 -0.6343  0.1497 -0.2738
  684MOL0     C92238   1.472  12.346  10.685  0.0792 -0.6188 -0.6068
  684MOL0     C92239   1.503  12.439  10.586 -0.1646  0.3200  0.2676
  684MOL0     O92240   1.417  12.486  10.487 -0.1536  0.5624  0.9083
  684MOL0     C92241   1.326  12.407  10.418  0.5160 -0.7321  0.6592
  684MOL0     C92242   1.368  12.366  10.276 -1.2564 -0.2989  0.6309
  684MOL0     C92243   1.461  12.237  10.277  0.2542 -0.1114  0.3909
  684MOL0     C92244   1.389  12.104  10.328  0.2561  0.8634  0.2800
  684MOL0     C92245   1.270  12.065  10.241 -0.0344  0.1023  0.5512
  684MOL0     C92246   1.299  12.027  10.092  0.8751 -0.8694  1.3522
  684MOL0     C92247   1.401  11.913  10.074 -0.0182 -0.3733  1.4736
  684MOL0     C92248   1.462  11.909   9.930  0.2521 -0.2597 -0.3683
  684MOL0    Cl92249   1.637  11.866   9.924 -0.2195  0.1492  0.2748
  684MOL0     C92250   1.626  12.509  10.600  0.4484  0.1263 -0.2451
  684MOL0     C92251   1.701  12.489  10.721 -0.5292 -0.1763  0.7237
  684MOL0     O92252   1.951  12.361  10.838  0.3070  0.8552  0.1414
  684MOL0     C92253   1.871  12.387  11.194 -0.4270  0.7490  0.4214
  684MOL0     C92254   1.930  12.362  11.316 -0.1298  0.3269  0.3908
  684MOL0     N92255   2.088  12.070  11.924 -0.0779 -0.4188  0.2525
  684MOL0     N92256   2.082  11.951  11.962  0.2303 -0.1502 -0.7116
  684MOL0     C92257   2.390  10.907  11.579  0.0483 -0.1910 -0.2973
  684MOL0     C92258   2.403  10.844  11.451  0.0619 -0.2091 -0.7610
  684MOL0     C92259   2.488  10.646  11.070  0.1937  0.6010  0.8538
  684MOL0     C92260   2.511  10.731  10.962  0.6927  0.1408 -0.9665
  684MOL0     C92261   2.513  10.691  10.826 -0.8259  0.1257 -0.1830
  684MOL0     C92262   2.488  10.555  10.792 -0.9031  0.3551 -0.0149
  684MOL0     O92263   2.475  10.523  10.656 -0.5553  0.1310  0.0298
  684MOL0     C92264   2.462  10.385  10.625  0.8072 -0.7600  0.4266
  684MOL0     C92265   2.464  10.349  10.470  0.8023  0.0599  0.7811
  684MOL0     C92266   2.403  10.218  10.441  0.1759 -0.3466  0.5843
  684MOL0     C92267   2.450  10.095  10.514 -0.2387  0.9015 -0.1249
  684MOL0     C92268   2.379   9.973  10.471  0.2052 -0.0750  0.5150
  684MOL0     C92269   2.327   9.864  10.441 -0.4744  0.3383  0.9937
  684MOL0     C92270   2.468  10.460  10.894 -1.1719  0.1387  0.3977
  684MOL0     C92271   2.470  10.504  11.031 -0.7021  1.4580 -1.1981
  684MOL0     C92272   2.420  10.402  11.133 -0.0596  0.3157  0.8046
  684MOL0     H92273   2.563  11.091  11.278 -0.1992 -1.8304 -0.7399
  684MOL0     H92274   2.539  11.200  11.495 -0.4749 -0.8977  2.9437
  684MOL0     H92275   2.511  10.975  11.824  2.2093  0.8641 -3.2388
  684MOL0     H92276   2.594  11.122  11.779  0.6934  1.3840  1.7905
  684MOL0     H92277   2.507  11.101  12.020  0.8364 -0.3923 -1.3136
  684MOL0     H92278   2.348  11.132  11.944 -0.3097 -0.1271  0.3262
  684MOL0     H92279   2.477  11.344  11.848 -0.0100  0.7403  0.1234
  684MOL0     H92280   2.604  11.304  11.972  0.0287 -0.9912 -1.1015
  684MOL0     H92281   2.325  11.329  12.083 -1.2726  2.1250  1.3058
  684MOL0     H92282   2.471  11.328  12.156  3.5883 -0.2346 -1.4397
  684MOL0     H92283   2.524  11.547  12.061 -0.5489 -0.6167  2.5406
  684MOL0     H92284   2.385  11.542  11.950  0.9503 -0.0150 -0.1706
  684MOL0     H92285   2.228  11.533  12.146  1.7162 -1.9693 -2.0669
  684MOL0     H92286   2.369  11.550  12.255  1.6878 -1.6262 -1.3325
  684MOL0     H92287   2.435  11.781  12.135 -1.7512  0.9847 -0.0034
  684MOL0     H92288   2.292  11.776  12.235  0.0828  0.9662  0.0211
  684MOL0     H92289   2.288  11.731  11.931 -2.5168  0.3732 -1.9930
  684MOL0     H92290   2.157  11.715  12.033  1.1192 -1.6243 -2.6667
  684MOL0     H92291   2.386  12.044  12.042 -1.0775  0.2692  0.9561
  684MOL0     H92292   2.270  12.327  12.001 -0.6746 -0.2970 -1.2759
  684MOL0     H92293   2.374  12.264  11.862 -0.7920 -0.9056 -3.6430
  684MOL0     H92294   2.078  12.331  11.838 -0.1477  1.8587 -1.4932
  684MOL0     H92295   2.213  12.434  11.808  4.0196 -1.2028  2.1388
  684MOL0     H92296   2.222  12.171  11.674  0.2828 -0.7082 -2.3368
  684MOL0     H92297   2.291  12.317  11.620 -0.5512 -0.1952 -0.7671
  684MOL0     H92298   2.057  12.402  11.563 -1.1090  0.2683 -2.6407
  684MOL0     H92299   1.986  12.249  11.612 -0.7583  0.6813 -1.1903
  684MOL0     H92300   2.215  12.210  11.204  0.0281  0.0062 -3.1907
  684MOL0     H92301   2.094  12.228  11.004 -2.5289 -0.2305 -1.0825
  684MOL0     H92302   1.511  12.251  10.863  3.4430 -0.1162  2.0018
  684MOL0     H92303   1.385  12.282  10.671 -0.1985 -0.0257 -1.7048
  684MOL0     H92304   1.282  12.323  10.473 -0.5795  0.0536  1.0103
  684MOL0     H92305   1.246  12.482  10.413  0.7727 -0.1368  3.6934
  684MOL0     H92306   1.274  12.346  10.224 -2.3973  1.8703  1.7416
  684MOL0     H92307   1.424  12.448  10.230  0.0299 -1.7832 -0.5661
  684MOL0     H92308   1.507  12.220  10.179 -0.7762  1.5828 -0.4304
  684MOL0     H92309   1.536  12.242  10.356 -0.8936  0.5748  1.4617
  684MOL0     H92310   1.351  12.121  10.429 -1.3812  2.6917 -0.5725
  684MOL0     H92311   1.467  12.028  10.326 -0.8833 -0.4168 -2.6897
  684MOL0     H92312   1.219  12.161  10.254  1.2678  0.4993  3.5958
  684MOL0     H92313   1.205  11.994  10.291 -1.1815 -0.3265 -1.4357
  684MOL0     H92314   1.206  12.010  10.037  0.8295  0.8849  0.8068
  684MOL0     H92315   1.340  12.109  10.031 -1.2114  0.5099  1.6930
  684MOL0     H92316   1.358  11.814  10.094 -1.0025 -0.0892  0.8175
  684MOL0     H92317   1.472  11.914  10.157 -0.7955 -2.5930  2.2494
  684MOL0     H92318   1.407  11.834   9.873 -0.8134  0.0394  0.2368
  684MOL0     H92319   1.461  12.011   9.891 -0.9325  0.0699  0.4708
  684MOL0     H92320   1.661  12.571  10.517  2.9377  0.4377  0.9628
  684MOL0     H92321   1.797  12.534  10.739 -1.4073  1.5512  1.3332
  684MOL0     H92322   1.777  12.441  11.193 -2.2341 -2.1851  1.0627
  684MOL0     H92323   1.872  12.385  11.404 -1.9796  4.1416 -1.5489
  684MOL0     H92324   2.341  10.858  11.662 -1.5836  2.0253  0.1392
  684MOL0     H92325   2.351  10.750  11.440  0.6345 -0.4762 -1.3021
  684MOL0     H92326   2.531  10.838  10.964 -0.0807  0.2875  1.1420
  684MOL0     H92327   2.497  10.755  10.740 -4.5872 -1.1759 -0.6445
  684MOL0     H92328   2.374  10.344  10.676 -0.1852  1.0539  0.2242
  684MOL0     H92329   2.553  10.332  10.655  1.7909  1.6715  2.0659
  684MOL0     H92330   2.566  10.340  10.431  0.3416  1.4751 -0.8683
  684MOL0     H92331   2.409  10.422  10.410 -2.1844 -2.5387  0.0606
  684MOL0     H92332   2.430  10.200  10.337  1.2030 -1.5728  1.0335
  684MOL0     H92333   2.297  10.226  10.465 -0.1793  3.9604 -1.3993
  684MOL0     H92334   2.557  10.072  10.507 -0.3059 -0.9962  3.1028
  684MOL0     H92335   2.434  10.112  10.620  0.1434  4.9148 -0.5648
  684MOL0     H92336   2.283   9.767  10.426 -2.1162  1.5181 -3.2617
  684MOL0     H92337   2.437  10.357  10.880  2.4387 -1.3000  1.6728
  684MOL0     H92338   2.494  10.374  11.209  1.9367  0.0579 -1.1355
  684MOL0     H92339   2.331  10.437  11.186 -0.0625  0.3390  0.7841
  684MOL0     H92340   2.382  10.310  11.088  0.5034 -0.8668  2.5958
  685MOL0     O92341   3.848   3.766   4.801  1.1141 -0.5595  1.4257
  685MOL0     C92342   3.905   3.743   4.700 -0.8824  0.8294 -0.3939
  685MOL0     O92343   4.035   3.793   4.670  0.3488  0.9451 -0.2573
  685MOL0     C92344   4.107   3.864   4.758  0.6770 -0.7278  0.8332
  685MOL0     C92345   4.225   3.817   4.801  0.3471  0.9271  0.7400
  685MOL0     C92346   4.305   3.885   4.886  0.0238  0.2015 -0.1917
  685MOL0     C92347   4.267   4.011   4.929 -0.0401  0.0657 -0.5179
  685MOL0     O92348   4.343   4.068   5.027  0.9657 -0.2378 -0.2067
  685MOL0     C92349   4.311   4.199   5.079 -1.0598 -0.3691  0.0436
  685MOL0     C92350   4.395   4.238   5.204 -0.3065 -0.4223  0.4919
  685MOL0     C92351   4.551   4.219   5.173 -0.3579  0.8631  0.0392
  685MOL0     C92352   4.627   4.236   5.314 -0.5550  0.6984  0.4260
  685MOL0     C92353   4.764   4.166   5.314  0.2023  0.1685 -0.2345
  685MOL0     C92354   4.820   4.189   5.450 -0.5467 -0.2344 -1.2734
  685MOL0     C92355   4.931   4.087   5.468 -0.3819  0.8991  0.3082
  685MOL0     C92356   4.980   4.071   5.616  0.1796  0.4056  1.2357
  685MOL0     N92357   5.068   3.955   5.608 -0.1087  0.1086 -0.0646
  685MOL0     C92358   5.049   3.822   5.632 -0.1358 -0.6678 -0.1672
  685MOL0     C92359   5.178   3.768   5.633 -0.4325 -0.0193 -0.2151
  685MOL0     C92360   5.199   3.628   5.675 -0.4652  1.0427 -0.0709
  685MOL0     C92361   5.296   3.630   5.803 -0.1817 -0.4435 -0.5416
  685MOL0     C92362   5.391   3.507   5.805  0.9327 -0.0560 -0.1152
  685MOL0     C92363   5.315   3.366   5.834 -1.3734  0.0809  0.2611
  685MOL0     O92364   5.278   3.348   5.974 -0.3952  0.1681 -0.0980
  685MOL0     C92365   5.363   3.301   6.062 -0.0373  0.0263 -0.3989
  685MOL0     C92366   5.307   3.249   6.177  0.9331 -0.4383 -0.4641
  685MOL0     C92367   5.382   3.186   6.277 -0.3119 -0.0320 -0.3733
  685MOL0     C92368   5.522   3.164   6.251  0.1611  0.0056 -0.3525
  685MOL0     C92369   5.598   3.092   6.352 -0.1330 -0.0186  0.0408
  685MOL0     O92370   5.720   3.127   6.373 -0.2284 -0.2916 -0.5040
  685MOL0     C92371   5.812   3.043   6.431  0.6112 -0.7761 -0.7560
  685MOL0     C92372   5.816   2.905   6.414  1.1400 -0.5916  0.2070
  685MOL0     C92373   5.909   2.829   6.474 -0.4874 -0.0055 -0.1359
  685MOL0     C92374   6.014   2.880   6.550  0.3898 -0.2253 -0.2883
  685MOL0     O92375   6.099   2.800   6.621  0.6710  0.3089 -0.1567
  685MOL0     C92376   6.179   2.710   6.546  0.3944 -0.6811 -0.0237
  685MOL0     C92377   6.268   2.655   6.643  0.2780  0.9643 -0.2884
  685MOL0     C92378   6.387   2.748   6.665 -0.2548  0.4177  0.4213
  685MOL0     C92379   6.469   2.798   6.543 -0.1233  0.3183  0.6405
  685MOL0     C92380   6.597   2.871   6.589 -1.1263  0.1997  0.8259
  685MOL0     C92381   6.702   2.881   6.477 -0.4527 -0.1436 -0.2344
  685MOL0     C92382   6.847   2.912   6.537  0.5268  0.5113  0.8185
  685MOL0     C92383   6.844   3.055   6.600 -0.0142  0.2663 -0.2268
  685MOL0    Cl92384   7.015   3.095   6.617 -0.1125 -0.0478  0.1442
  685MOL0     C92385   6.022   3.015   6.560  0.1205 -0.0967  0.2335
  685MOL0     C92386   5.922   3.096   6.507  0.0641 -0.8062  0.6401
  685MOL0     O92387   5.529   3.006   6.410  0.0249 -0.0965 -1.1849
  685MOL0     C92388   5.573   3.211   6.129 -0.1289 -0.5592  0.0418
  685MOL0     C92389   5.497   3.275   6.032 -0.4965 -0.1686 -0.1779
  685MOL0     N92390   5.265   3.870   5.632 -0.3557 -0.5057 -0.2535
  685MOL0     N92391   5.203   3.981   5.615 -0.5706 -0.4311 -0.8007
  685MOL0     C92392   4.154   4.070   4.873 -0.5571 -0.1654 -0.0520
  685MOL0     C92393   4.074   4.002   4.780  0.5918 -1.3328 -0.4728
  685MOL0     C92394   3.837   3.645   4.598 -0.5076  0.4765  0.2443
  685MOL0     C92395   3.749   3.545   4.641  0.1651 -0.0111  0.0707
  685MOL0     C92396   3.666   3.467   4.558  0.9053 -0.1817  0.2777
  685MOL0     C92397   3.656   3.489   4.417 -0.4503 -0.1441  0.0470
  685MOL0     O92398   3.575   3.434   4.322 -0.0211 -0.4139 -0.5752
  685MOL0     C92399   3.485   3.338   4.376  0.0010  0.0607  0.0061
  685MOL0     C92400   3.386   3.285   4.272 -0.5652  0.2724  0.1262
  685MOL0     C92401   3.313   3.395   4.186  0.6704  0.5185  0.0926
  685MOL0     C92402   3.187   3.336   4.117 -0.1273 -0.1928 -0.5565
  685MOL0     C92403   3.225   3.243   4.011 -0.0648  0.0076  0.6436
  685MOL0     C92404   3.255   3.179   3.916  0.8884 -0.1566  0.1124
  685MOL0     C92405   3.753   3.587   4.374 -0.4895 -0.6558 -0.8780
  685MOL0     C92406   3.841   3.659   4.456  0.0778  0.0695  0.7016
  685MOL0     C92407   3.926   3.768   4.390  0.4929  0.0415  0.2920
  685MOL0     H92408   4.254   3.725   4.752 -1.3043  0.9028 -0.2790
  685MOL0     H92409   4.399   3.841   4.918  0.6686  0.9214 -1.0361
  685MOL0     H92410   4.319   4.284   5.011 -2.9346  0.2964  0.5890
  685MOL0     H92411   4.208   4.195   5.118  0.0089 -0.0811  3.1744
  685MOL0     H92412   4.365   4.180   5.291  0.0880 -2.2464 -0.5367
  685MOL0     H92413   4.374   4.345   5.219 -4.9076 -0.9447 -0.6608
  685MOL0     H92414   4.592   4.283   5.095  1.2868  0.1956  0.3172
  685MOL0     H92415   4.569   4.117   5.138 -2.4071 -1.2969  4.3813
  685MOL0     H92416   4.643   4.343   5.333 -0.9963  0.5596  1.7068
  685MOL0     H92417   4.564   4.203   5.397  1.1202 -0.3862  1.3055
  685MOL0     H92418   4.765   4.060   5.289  3.2713  0.5082 -2.1802
  685MOL0     H92419   4.839   4.206   5.244  2.1172  0.3287  1.7709
  685MOL0     H92420   4.865   4.287   5.466 -3.9035  1.1363  1.0826
  685MOL0     H92421   4.739   4.193   5.524 -1.4293  0.0394 -2.2303
  685MOL0     H92422   5.009   4.097   5.392 -3.0043 -3.5377 -3.5541
  685MOL0     H92423   4.886   3.988   5.454 -1.0902  1.2344  0.1215
  685MOL0     H92424   5.034   4.160   5.650  0.7930 -0.1838  1.8472
  685MOL0     H92425   4.897   4.065   5.687  0.1706 -0.6660  1.1624
  685MOL0     H92426   4.955   3.772   5.655 -1.4171  1.8813  0.5021
  685MOL0     H92427   5.106   3.581   5.707  0.0334 -0.1837 -0.3705
  685MOL0     H92428   5.252   3.583   5.591 -0.2397  0.1722  0.5199
  685MOL0     H92429   5.365   3.714   5.794 -2.6046  1.4718 -3.8111
  685MOL0     H92430   5.242   3.646   5.897  3.1676 -0.1560  1.4605
  685MOL0     H92431   5.455   3.528   5.891 -0.3421  2.1083  0.3779
  685MOL0     H92432   5.454   3.501   5.715 -0.6911  1.0626 -1.3783
  685MOL0     H92433   5.384   3.288   5.803 -2.2160 -0.4265 -0.3864
  685MOL0     H92434   5.225   3.347   5.774  0.5147 -2.3016 -2.0521
  685MOL0     H92435   5.198   3.247   6.184  0.9972 -1.7548  0.4344
  685MOL0     H92436   5.337   3.159   6.372 -0.5035  1.6029  0.0340
  685MOL0     H92437   5.738   2.866   6.350  2.0953  0.0882 -1.4590
  685MOL0     H92438   5.921   2.721   6.467 -0.0029 -0.1340  1.8955
  685MOL0     H92439   6.125   2.629   6.496 -0.5893  0.1235 -0.2759
  685MOL0     H92440   6.242   2.761   6.472  1.9461 -0.2370  1.5243
  685MOL0     H92441   6.215   2.634   6.736  0.0781 -2.2343 -0.9873
  685MOL0     H92442   6.303   2.555   6.613 -3.1440 -0.2527 -0.6160
  685MOL0     H92443   6.330   2.828   6.714 -0.7423  0.9756 -1.0250
  685MOL0     H92444   6.454   2.700   6.738  1.4649  1.2291 -0.5514
  685MOL0     H92445   6.418   2.868   6.476  2.4608  0.3548 -1.4424
  685MOL0     H92446   6.504   2.711   6.487  1.5264 -1.0341  3.5585
  685MOL0     H92447   6.630   2.804   6.668  1.3922  0.5322  0.1200
  685MOL0     H92448   6.569   2.970   6.625  1.6851  0.5027  2.3837
  685MOL0     H92449   6.709   2.788   6.420  2.8529  0.8015 -1.6654
  685MOL0     H92450   6.675   2.958   6.405 -0.4240  1.8039  1.7265
  685MOL0     H92451   6.897   2.912   6.440  1.1859 -4.3191  0.9049
  685MOL0     H92452   6.902   2.842   6.600  2.4068  0.1681 -1.1165
  685MOL0     H92453   6.797   3.128   6.533 -1.4374  1.4109  1.8705
  685MOL0     H92454   6.788   3.044   6.694  1.8180 -4.8373  0.5637
  685MOL0     H92455   6.105   3.051   6.621 -0.8414  0.2983  1.3363
  685MOL0     H92456   5.925   3.203   6.526  0.6502 -0.5531 -0.7836
  685MOL0     H92457   5.679   3.204   6.109 -0.3635  0.3594 -1.7491
  685MOL0     H92458   5.546   3.317   5.945 -1.6727 -1.9097 -1.7599
  685MOL0     H92459   4.111   4.163   4.910 -0.6636 -1.1675  2.5176
  685MOL0     H92460   3.982   4.050   4.749  1.2117  0.8769  0.8154
  685MOL0     H92461   3.734   3.533   4.748  2.2618 -6.1573  0.0911
  685MOL0     H92462   3.611   3.385   4.603 -2.4061  1.4476 -0.4310
  685MOL0     H92463   3.432   3.402   4.447  2.4529  2.9774 -0.5763
  685MOL0     H92464   3.526   3.257   4.436 -2.1700 -0.0017  1.5062
  685MOL0     H92465   3.307   3.244   4.336  0.2678  0.2911  1.1740
  685MOL0     H92466   3.421   3.204   4.208  1.4074 -0.8631  2.5211
  685MOL0     H92467   3.384   3.431   4.111 -0.2211  0.4323 -0.8211
  685MOL0     H92468   3.290   3.482   4.248  0.3498  0.0856  0.5923
  685MOL0     H92469   3.139   3.275   4.194  0.7669 -0.0857  0.1069
  685MOL0     H92470   3.126   3.414   4.071 -0.3883  0.2210  0.4679
  685MOL0     H92471   3.292   3.131   3.827  0.5936 -0.9455  0.4127
  685MOL0     H92472   3.747   3.615   4.269  2.2737 -2.4485 -1.6134
  685MOL0     H92473   3.922   3.868   4.434  0.2043  1.3496 -2.5022
  685MOL0     H92474   4.028   3.729   4.389 -0.1800 -1.8242 -0.5021
  685MOL0     H92475   3.916   3.785   4.283  2.9853 -0.2290 -0.0333
  686MOL0     O92476   7.095  10.241  10.673  0.0119  0.4582 -0.1726
  686MOL0     C92477   7.057  10.329  10.750  0.8401  0.1586 -0.3689
  686MOL0     O92478   6.925  10.373  10.778 -0.6426 -0.0977  0.0858
  686MOL0     C92479   6.824  10.363  10.680  0.1339 -0.2594 -0.6359
  686MOL0     C92480   6.833  10.350  10.540  0.9805 -0.4761 -0.5550
  686MOL0     C92481   6.725  10.357  10.448  0.4829  0.0865  0.7591
  686MOL0     C92482   6.597  10.384  10.500 -0.5603  0.5732 -0.0709
  686MOL0     O92483   6.507  10.416  10.401 -0.5162 -0.0218 -1.3402
  686MOL0     C92484   6.392  10.473  10.444  0.2048 -0.1805 -0.1569
  686MOL0     C92485   6.300  10.490  10.322 -0.1503  1.3427  0.5324
  686MOL0     C92486   6.160  10.537  10.366 -0.3545 -0.5633  0.3667
  686MOL0     C92487   6.070  10.452  10.459 -0.8428 -0.5271 -1.1888
  686MOL0     C92488   5.937  10.515  10.515 -0.9683 -0.1756  0.0710
  686MOL0     C92489   5.841  10.584  10.406 -0.0077  0.3268 -0.6732
  686MOL0     C92490   5.694  10.613  10.452 -0.8102 -0.6300  1.1945
  686MOL0     C92491   5.681  10.766  10.479 -0.9615 -0.2873 -0.2724
  686MOL0     N92492   5.646  10.846  10.358  0.4608 -0.7811 -0.6217
  686MOL0     C92493   5.516  10.866  10.319 -0.3688  0.5076 -0.2589
  686MOL0     C92494   5.511  10.957  10.220  0.1023  0.1795  0.2382
  686MOL0     C92495   5.393  11.011  10.131  0.1200  0.1536 -1.4542
  686MOL0     C92496   5.436  11.118  10.045 -0.6715  0.0525  1.1543
  686MOL0     C92497   5.330  11.159   9.940  0.1680  0.7018 -0.3064
  686MOL0     C92498   5.248  11.045   9.877 -0.0593 -1.0435 -0.4460
  686MOL0     O92499   5.340  10.956   9.809  0.5823 -0.0636 -0.7541
  686MOL0     C92500   5.299  10.831   9.769  0.7563 -0.0702  0.4696
  686MOL0     C92501   5.345  10.778   9.654 -0.2291  0.3065  0.4805
  686MOL0     C92502   5.287  10.667   9.596 -2.4975  0.2298  0.1228
  686MOL0     C92503   5.193  10.594   9.665  0.0682 -0.3573 -1.4833
  686MOL0     C92504   5.132  10.480   9.609  0.3188 -0.8280  0.7130
  686MOL0     O92505   5.173  10.440   9.489  0.5407  0.2685  0.1210
  686MOL0     C92506   5.115  10.330   9.430  0.6855 -0.1730  0.3415
  686MOL0     C92507   5.155  10.201   9.455 -0.6186  0.9203 -0.3333
  686MOL0     C92508   5.085  10.090   9.410  0.7776 -0.9569 -0.2036
  686MOL0     C92509   4.972  10.112   9.329  0.7192  0.1767 -0.4633
  686MOL0     O92510   4.907   9.998   9.280  0.5881  0.4797  0.7829
  686MOL0     C92511   4.767   9.988   9.336 -0.3022 -0.0727 -0.0735
  686MOL0     C92512   4.708   9.854   9.302 -0.0109  0.0168  0.6243
  686MOL0     C92513   4.570   9.849   9.369  0.4293  0.7216  0.0309
  686MOL0     C92514   4.474   9.758   9.285 -0.6011 -0.0400  0.4174
  686MOL0     C92515   4.329   9.781   9.313  0.7629 -0.0473  0.7159
  686MOL0     C92516   4.260   9.678   9.224  0.3305 -0.6527 -0.8759
  686MOL0     C92517   4.109   9.676   9.259 -0.6019 -0.7106  0.2346
  686MOL0     C92518   4.028   9.605   9.149 -0.3544  0.0059 -0.2693
  686MOL0    Cl92519   4.086   9.440   9.149  0.3764 -0.0283 -0.4696
  686MOL0     C92520   4.933  10.236   9.294 -0.1094 -0.6599 -0.7635
  686MOL0     C92521   4.999  10.347   9.353 -0.1236  0.6414 -0.2147
  686MOL0     O92522   5.035  10.434   9.665 -0.7839 -0.1747 -0.4870
  686MOL0     C92523   5.161  10.634   9.800 -1.3283  0.2719 -0.0123
  686MOL0     C92524   5.207  10.757   9.844  0.4729 -0.0780  0.3952
  686MOL0     N92525   5.641  10.989  10.201  0.2551 -1.2633 -0.6502
  686MOL0     N92526   5.717  10.934  10.284  0.3195 -0.4795 -0.5155
  686MOL0     C92527   6.571  10.392  10.642 -0.1986 -0.1510 -0.3237
  686MOL0     C92528   6.686  10.388  10.729 -1.2137  0.9205  0.5631
  686MOL0     C92529   7.149  10.397  10.850 -0.9118  0.5440  0.1523
  686MOL0     C92530   7.102  10.456  10.965 -0.2261 -0.0048  1.1124
  686MOL0     C92531   7.185  10.475  11.073  0.1434 -0.1078  1.0509
  686MOL0     C92532   7.323  10.443  11.067 -0.8141 -0.6130  0.2315
  686MOL0     O92533   7.396  10.465  11.187  0.2985  0.4349  0.3062
  686MOL0     C92534   7.519  10.395  11.205 -0.5769  0.1789 -0.2800
  686MOL0     C92535   7.490  10.250  11.208 -0.7302 -0.8500  0.4137
  686MOL0     C92536   7.602  10.177  11.281  0.3305  0.2265  0.1398
  686MOL0     C92537   7.576  10.028  11.303 -0.3221 -0.1261 -0.6093
  686MOL0     C92538   7.465  10.013  11.402  0.1502 -0.1466  0.0382
  686MOL0     C92539   7.374  10.020  11.487  0.2391  0.4142 -0.5725
  686MOL0     C92540   7.372  10.394  10.943  0.0930  0.2629 -0.7144
  686MOL0     C92541   7.285  10.378  10.830 -0.6088 -0.4675 -0.2285
  686MOL0     C92542   7.363  10.327  10.713 -0.0719  1.0109  0.5357
  686MOL0     H92543   6.929  10.328  10.494  1.8342 -0.1461  0.9910
  686MOL0     H92544   6.734  10.332  10.343 -1.3197 -4.9669  1.4869
  686MOL0     H92545   6.343  10.406  10.516 -2.3708 -0.0506 -1.6727
  686MOL0     H92546   6.411  10.574  10.482  0.3251 -0.0114 -0.6550
  686MOL0     H92547   6.279  10.392  10.280 -0.3874  2.4266 -2.0817
  686MOL0     H92548   6.348  10.546  10.241 -0.3783 -1.0864 -1.3691
  686MOL0     H92549   6.096  10.546  10.279 -0.8615  5.9584  0.8903
  686MOL0     H92550   6.177  10.640  10.400  2.2450  0.2999 -3.0228
  686MOL0     H92551   6.036  10.365  10.402 -1.0183  0.5371 -2.7900
  686MOL0     H92552   6.132  10.423  10.544  1.0854 -0.2062 -2.4118
  686MOL0     H92553   5.896  10.433  10.575  1.2196 -0.5009  1.2321
  686MOL0     H92554   5.955  10.590  10.593 -0.4215  0.4926 -0.6905
  686MOL0     H92555   5.890  10.674  10.366 -1.5433  0.3263 -2.7334
  686MOL0     H92556   5.833  10.514  10.323 -2.1122  3.7720 -3.6833
  686MOL0     H92557   5.663  10.550  10.535  3.5669 -1.6446  2.2905
  686MOL0     H92558   5.619  10.593  10.375 -1.1223  3.2324  0.2791
  686MOL0     H92559   5.593  10.763  10.544 -0.0989  0.3795  0.9664
  686MOL0     H92560   5.775  10.798  10.524 -0.3970  3.2847 -3.4855
  686MOL0     H92561   5.437  10.803  10.360  0.8314  0.1065  1.5285
  686MOL0     H92562   5.359  10.926  10.072 -1.3851  0.3321 -0.9076
  686MOL0     H92563   5.317  11.059  10.194 -0.5575  1.1252 -2.9516
  686MOL0     H92564   5.477  11.199  10.107  2.7841 -0.0248 -0.7889
  686MOL0     H92565   5.526  11.092   9.989  0.8547  3.6283  1.7001
  686MOL0     H92566   5.387  11.205   9.859  2.0339  2.4580  1.8785
  686MOL0     H92567   5.263  11.236   9.980  0.8164 -0.1784  2.7297
  686MOL0     H92568   5.182  11.090   9.802  1.3830  0.4229 -0.8918
  686MOL0     H92569   5.184  11.001   9.954  0.7655 -0.3652  0.6423
  686MOL0     H92570   5.423  10.832   9.600 -0.2839  0.3572  0.4527
  686MOL0     H92571   5.319  10.630   9.499  1.3279 -0.7038  1.5734
  686MOL0     H92572   5.242  10.184   9.518 -1.1413  1.6318  0.6142
  686MOL0     H92573   5.126   9.992   9.430  1.9699 -0.8912 -2.0591
  686MOL0     H92574   4.777   9.985   9.444  0.6234 -0.5817 -0.1651
  686MOL0     H92575   4.698  10.060   9.290  0.8088  0.0750 -1.5851
  686MOL0     H92576   4.708   9.843   9.193 -3.4876  0.9379  0.4340
  686MOL0     H92577   4.766   9.779   9.357  1.1584  1.0334  0.8439
  686MOL0     H92578   4.581   9.810   9.471  1.6579 -3.9708 -1.6236
  686MOL0     H92579   4.521   9.946   9.372 -0.7265  0.1327  1.1175
  686MOL0     H92580   4.501   9.654   9.307 -0.0460 -0.1815 -0.8238
  686MOL0     H92581   4.498   9.773   9.179  1.8466 -3.0386  0.3969
  686MOL0     H92582   4.292   9.879   9.282  1.4410  1.3717  4.0724
  686MOL0     H92583   4.289   9.765   9.413  0.1159 -5.2435 -0.0787
  686MOL0     H92584   4.286   9.702   9.121 -1.6278 -1.9371 -1.7244
  686MOL0     H92585   4.286   9.575   9.252 -1.7963 -1.1989 -0.7274
  686MOL0     H92586   4.083   9.783   9.261  1.0722 -0.0479 -3.9298
  686MOL0     H92587   4.085   9.633   9.357  0.1276 -0.5114  0.5047
  686MOL0     H92588   3.922   9.614   9.175 -0.3143  2.3731 -0.6758
  686MOL0     H92589   4.015   9.641   9.046 -0.9285 -0.6349 -0.4326
  686MOL0     H92590   4.842  10.253   9.236  0.2149  1.8580 -0.6730
  686MOL0     H92591   4.958  10.447   9.339 -0.3470  0.3053 -2.3361
  686MOL0     H92592   5.101  10.566   9.860  0.7814 -0.0005  1.9390
  686MOL0     H92593   5.166  10.786   9.940  1.5400  0.6700  0.6453
  686MOL0     H92594   6.477  10.411  10.692  0.3425 -2.0507  1.5852
  686MOL0     H92595   6.669  10.414  10.833 -0.2360  0.8061  0.7598
  686MOL0     H92596   6.998  10.487  10.964  0.6897  3.9660 -2.7827
  686MOL0     H92597   7.148  10.514  11.167  2.8098 -1.8748  2.9571
  686MOL0     H92598   7.556  10.425  11.304 -0.5130  1.9165 -0.8039
  686MOL0     H92599   7.592  10.422  11.129 -0.2840  1.5171  0.4310
  686MOL0     H92600   7.480  10.206  11.108 -2.6175 -0.3988  0.3692
  686MOL0     H92601   7.399  10.238  11.266 -0.5918  2.6524  1.6146
  686MOL0     H92602   7.608  10.227  11.378 -2.6638 -1.4108  1.3203
  686MOL0     H92603   7.694  10.191  11.224  0.0212 -0.2487 -0.4784
  686MOL0     H92604   7.534   9.987  11.211 -0.0486  0.0168 -0.8016
  686MOL0     H92605   7.672   9.983  11.330  0.6753  0.6158 -2.6643
  686MOL0     H92606   7.290   9.999  11.549  0.0531 -0.4178 -1.0887
  686MOL0     H92607   7.475  10.362  10.948  0.2658  0.9624  1.0938
  686MOL0     H92608   7.467  10.362  10.716  0.6181 -0.9916  1.6807
  686MOL0     H92609   7.375  10.218  10.722  2.0972  1.2348  0.9384
  686MOL0     H92610   7.312  10.358  10.621 -1.4330  1.5691  1.4512
  687MOL0     O92611   8.178   5.550   6.648  0.3863 -0.0807 -1.0273
  687MOL0     C92612   8.268   5.588   6.724 -0.9021 -0.7500  0.2307
  687MOL0     O92613   8.397   5.543   6.717  0.1079 -0.0961 -0.2810
  687MOL0     C92614   8.460   5.536   6.600  0.2525 -0.1426  1.5827
  687MOL0     C92615   8.528   5.420   6.571  0.5116  0.9163 -0.3269
  687MOL0     C92616   8.624   5.422   6.466 -0.5024 -0.4501  0.3667
  687MOL0     C92617   8.636   5.535   6.381  0.2008 -0.8505  0.4880
  687MOL0     O92618   8.719   5.527   6.272  0.8087  0.2400 -0.3333
  687MOL0     C92619   8.705   5.404   6.191  0.0303 -0.5262  0.6333
  687MOL0     C92620   8.788   5.410   6.058  0.0947  0.4535  0.9454
  687MOL0     C92621   8.934   5.380   6.085 -0.5910 -0.7675  0.4368
  687MOL0     C92622   8.965   5.228   6.077  0.7167  0.0801 -0.3168
  687MOL0     C92623   9.095   5.191   6.163 -0.2321  0.2466  0.3513
  687MOL0     C92624   9.200   5.310   6.179  0.5329  1.1551  0.0887
  687MOL0     C92625   9.324   5.276   6.271 -0.0579  0.9995  0.0025
  687MOL0     C92626   9.280   5.227   6.410 -0.1560  0.2456 -1.4512
  687MOL0     N92627   9.371   5.230   6.533  0.7532  0.6377 -0.0755
  687MOL0     C92628   9.508   5.227   6.518  0.2851  0.5052 -0.3272
  687MOL0     C92629   9.555   5.216   6.646 -0.1951  0.6427  0.2346
  687MOL0     C92630   9.701   5.213   6.673 -0.2714  0.6025 -0.3648
  687MOL0     C92631   9.745   5.092   6.754  0.4395 -0.1057 -0.3483
  687MOL0     C92632   9.895   5.088   6.790  0.4352 -0.7782 -0.1416
  687MOL0     C92633   9.940   4.961   6.856 -0.1560  0.7714  0.3064
  687MOL0     O92634   9.975   4.873   6.743  0.2332 -1.1623  0.3558
  687MOL0     C92635  10.021   4.745   6.773  0.8051 -0.1441 -0.4187
  687MOL0     C92636  10.057   4.699   6.902 -0.1893  0.4621 -0.0611
  687MOL0     C92637  10.095   4.563   6.920 -0.4744  0.1042  0.7274
  687MOL0     C92638  10.108   4.480   6.798  1.1228 -0.0627  0.4177
  687MOL0     C92639  10.145   4.331   6.791  0.6249 -0.2210  0.1013
  687MOL0     O92640  10.148   4.264   6.914  0.0646 -0.6972  1.3222
  687MOL0     C92641  10.199   4.138   6.933  0.8318  0.2725  0.9173
  687MOL0     C92642  10.207   4.037   6.834  0.0424 -0.4448  0.6959
  687MOL0     C92643  10.249   3.907   6.862  0.0316 -1.1966 -0.6503
  687MOL0     C92644  10.288   3.866   6.993  0.2888 -0.4606 -0.7622
  687MOL0     O92645  10.317   3.733   7.030 -0.3163 -1.2010 -1.0432
  687MOL0     C92646  10.278   3.627   6.947  0.5678  0.0763  0.3567
  687MOL0     C92647  10.290   3.501   7.032  0.5721 -1.1482  0.4212
  687MOL0     C92648  10.300   3.380   6.942 -0.5679  1.2295 -0.3983
  687MOL0     C92649  10.355   3.258   7.025  0.4470 -0.1771 -0.3464
  687MOL0     C92650  10.331   3.132   6.943  0.6674 -0.5515  0.0510
  687MOL0     C92651  10.444   3.113   6.849  0.2061  0.5889  0.5912
  687MOL0     C92652  10.414   3.011   6.733  0.9138 -0.4998  0.1487
  687MOL0     C92653  10.320   2.889   6.773 -1.3682  0.2550 -0.3298
  687MOL0    Cl92654  10.327   2.774   6.634 -0.5742 -0.1020  0.3088
  687MOL0     C92655  10.283   3.961   7.098  0.0451 -0.3219  1.2543
  687MOL0     C92656  10.240   4.097   7.063 -0.2162  0.1937  0.5049
  687MOL0     O92657  10.203   4.292   6.688  0.3305  0.6350 -1.1239
  687MOL0     C92658  10.072   4.533   6.676 -0.8122 -0.2388  0.3078
  687MOL0     C92659  10.028   4.658   6.661 -0.3071 -0.6436  0.1286
  687MOL0     N92660   9.448   5.215   6.737 -0.0237  0.1131  0.6933
  687MOL0     N92661   9.336   5.212   6.664 -0.5347  0.5920  1.2276
  687MOL0     C92662   8.570   5.648   6.415  0.9937 -0.3986  0.1209
  687MOL0     C92663   8.481   5.654   6.523 -0.1868  0.1485 -0.0986
  687MOL0     C92664   8.234   5.692   6.819  0.0741 -0.3073 -0.6011
  687MOL0     C92665   8.346   5.775   6.853  0.4486 -0.1440  0.1495
  687MOL0     C92666   8.333   5.881   6.940  0.3867  1.4266  0.3391
  687MOL0     C92667   8.205   5.912   6.987  0.0847 -0.2040 -0.1115
  687MOL0     O92668   8.169   6.020   7.073  0.3658 -0.4160 -0.7089
  687MOL0     C92669   8.249   6.138   7.068 -0.4241 -0.4810  0.2842
  687MOL0     C92670   8.200   6.242   7.166 -0.8905 -0.8559 -1.1088
  687MOL0     C92671   8.253   6.217   7.310  0.4144  0.2130  0.5882
  687MOL0     C92672   8.236   6.337   7.415  0.8078  0.1629 -0.0994
  687MOL0     C92673   8.091   6.370   7.443 -0.5392  1.2372  0.3399
  687MOL0     C92674   7.999   6.436   7.446  0.0616  0.4297  0.2864
  687MOL0     C92675   8.096   5.822   6.961 -0.3234  0.1306 -0.0836
  687MOL0     C92676   8.107   5.715   6.877  0.4742  0.2888  0.2617
  687MOL0     C92677   7.983   5.638   6.850  0.4872 -0.3138  0.6658
  687MOL0     H92678   8.526   5.334   6.637 -1.6944  0.5682 -0.7901
  687MOL0     H92679   8.677   5.330   6.446 -0.3770 -0.3552  0.2639
  687MOL0     H92680   8.732   5.313   6.245 -2.7050 -3.8480 -3.0240
  687MOL0     H92681   8.598   5.394   6.170  0.8001 -0.6448 -4.4077
  687MOL0     H92682   8.779   5.513   6.022 -2.1992 -0.7342 -2.2767
  687MOL0     H92683   8.731   5.355   5.983  1.9996  0.1157 -0.3175
  687MOL0     H92684   8.970   5.425   6.178  2.3949  2.1697 -1.8809
  687MOL0     H92685   8.998   5.419   6.005 -2.4775  1.9088  0.1013
  687MOL0     H92686   8.876   5.175   6.112  0.6762  0.7964  0.7042
  687MOL0     H92687   8.976   5.201   5.971  3.1210 -1.6912  0.2941
  687MOL0     H92688   9.053   5.161   6.259  2.2086  0.0872  1.4475
  687MOL0     H92689   9.144   5.101   6.126 -0.1922  0.7372 -0.8338
  687MOL0     H92690   9.237   5.345   6.083  1.0266  0.4168  0.0008
  687MOL0     H92691   9.151   5.388   6.238  2.0838  2.4512 -0.2826
  687MOL0     H92692   9.384   5.367   6.281 -2.7767  2.9671 -0.3320
  687MOL0     H92693   9.387   5.203   6.219  0.5033  1.3329  0.2073
  687MOL0     H92694   9.190   5.283   6.440 -0.1802 -0.4489 -0.1433
  687MOL0     H92695   9.243   5.124   6.406 -0.2082 -0.1894  3.8023
  687MOL0     H92696   9.566   5.254   6.430 -2.5810  2.6034 -1.7445
  687MOL0     H92697   9.741   5.224   6.572 -2.5565  2.8063 -1.1556
  687MOL0     H92698   9.726   5.305   6.728  1.3554 -1.5835  2.8408
  687MOL0     H92699   9.706   5.078   6.855  0.8731 -1.5580 -0.3584
  687MOL0     H92700   9.727   4.994   6.708  0.5444  1.2076 -3.3932
  687MOL0     H92701   9.914   5.165   6.866 -0.1274 -3.2123  2.6510
  687MOL0     H92702   9.954   5.110   6.700 -1.2489 -1.1979 -1.3950
  687MOL0     H92703   9.863   4.907   6.912 -0.3545 -3.1516 -3.3018
  687MOL0     H92704  10.029   4.971   6.920 -0.4640  4.3945  0.3947
  687MOL0     H92705  10.052   4.767   6.987  2.7567  2.2180 -1.1765
  687MOL0     H92706  10.118   4.518   7.016  0.0387 -0.9868  0.1182
  687MOL0     H92707  10.196   4.052   6.727  2.1842 -1.6958  0.2331
  687MOL0     H92708  10.254   3.835   6.782  3.2811  0.4808 -2.1552
  687MOL0     H92709  10.181   3.648   6.900  3.0117  2.5378 -4.3371
  687MOL0     H92710  10.357   3.630   6.872 -0.1690  1.5906 -0.4163
  687MOL0     H92711  10.378   3.529   7.091  1.4814  0.4048 -1.5304
  687MOL0     H92712  10.206   3.491   7.101  0.8752 -0.5157  0.8967
  687MOL0     H92713  10.205   3.364   6.889  0.0117 -2.2182 -0.6113
  687MOL0     H92714  10.375   3.406   6.867 -2.3812  1.8995 -2.0765
  687MOL0     H92715  10.315   3.260   7.127  4.5841  3.7695  1.5872
  687MOL0     H92716  10.462   3.277   7.040  1.6750 -2.6869 -4.3431
  687MOL0     H92717  10.237   3.144   6.888  0.2314 -0.0209  0.8758
  687MOL0     H92718  10.329   3.042   7.006 -2.4239 -2.7926 -2.8524
  687MOL0     H92719  10.469   3.206   6.798 -2.9863  0.8394 -0.7587
  687MOL0     H92720  10.527   3.078   6.910  0.2580  2.8320  1.9054
  687MOL0     H92721  10.510   2.964   6.708  1.1553  0.8442 -1.5991
  687MOL0     H92722  10.379   3.058   6.641  5.6033  1.0121 -1.1217
  687MOL0     H92723  10.361   2.844   6.864 -3.1806  0.1814  0.4843
  687MOL0     H92724  10.220   2.929   6.794 -0.6992  1.8892 -0.1360
  687MOL0     H92725  10.294   3.927   7.200 -3.0477  1.2224  2.2391
  687MOL0     H92726  10.242   4.171   7.142  0.4858  0.1730  0.5143
  687MOL0     H92727  10.073   4.468   6.589  4.5838 -0.5760  0.3031
  687MOL0     H92728  10.001   4.702   6.565  0.7006  0.9090  0.5129
  687MOL0     H92729   8.589   5.731   6.347 -1.2750 -2.0098 -2.6855
  687MOL0     H92730   8.457   5.754   6.559 -0.8930  0.5633 -1.5938
  687MOL0     H92731   8.437   5.767   6.795 -1.0849 -0.0722 -2.4408
  687MOL0     H92732   8.417   5.939   6.975  0.1683 -0.4025  4.4947
  687MOL0     H92733   8.224   6.185   6.973 -0.2554 -0.1677  0.3935
  687MOL0     H92734   8.354   6.107   7.059  1.5438  5.6053 -3.8439
  687MOL0     H92735   8.090   6.240   7.167 -0.9160 -0.5359  0.9357
  687MOL0     H92736   8.231   6.338   7.125 -1.2584  2.5407  5.2481
  687MOL0     H92737   8.356   6.179   7.310  0.8333  1.2230  2.6786
  687MOL0     H92738   8.196   6.129   7.340  1.6699 -0.2722  1.6746
  687MOL0     H92739   8.271   6.310   7.516  0.1682  1.7833  0.5955
  687MOL0     H92740   8.298   6.417   7.374  0.3787  0.2934 -0.4964
  687MOL0     H92741   7.914   6.501   7.452 -1.8442 -1.6343 -2.1682
  687MOL0     H92742   8.000   5.860   6.996  0.9228  4.3579 -0.7885
  687MOL0     H92743   8.003   5.530   6.850 -1.1240 -0.6466 -0.1424
  687MOL0     H92744   7.899   5.660   6.917  1.1690 -0.3082  1.5291
  687MOL0     H92745   7.949   5.668   6.751  2.0273  2.4517  0.8752
  688MOL0     O92746   9.868   5.304   5.337  0.4475  0.1839  0.2938
  688MOL0     C92747   9.877   5.228   5.238 -0.2163 -0.5550  0.6272
  688MOL0     O92748   9.976   5.236   5.140 -0.3546 -1.6724  0.7536
  688MOL0     C92749  10.078   5.318   5.173  0.2179  0.1944 -0.2819
  688MOL0     C92750  10.196   5.272   5.244 -0.4083  0.0565 -0.1100
  688MOL0     C92751  10.308   5.352   5.266  0.6165 -0.1012  1.2713
  688MOL0     C92752  10.301   5.486   5.219  0.4738 -0.1151  0.1245
  688MOL0     O92753  10.408   5.573   5.221  0.0885 -0.0568  0.1044
  688MOL0     C92754  10.521   5.533   5.140 -0.1765 -0.0187 -0.6677
  688MOL0     C92755  10.603   5.658   5.121  0.9512  0.5732  0.7567
  688MOL0     C92756  10.540   5.746   5.015 -0.2283 -0.4087  0.3953
  688MOL0     C92757  10.606   5.886   5.003  0.2782 -0.4951 -0.3899
  688MOL0     C92758  10.752   5.893   4.962 -0.0466 -0.0629  0.1971
  688MOL0     C92759  10.809   6.034   4.962  0.4478 -0.4975  0.1357
  688MOL0     C92760  10.770   6.103   4.824  0.6748 -0.0623 -0.2814
  688MOL0     C92761  10.820   6.249   4.813  0.4648  0.3471 -0.1729
  688MOL0     N92762  10.963   6.259   4.762  0.2252 -0.6456  0.4611
  688MOL0     C92763  10.999   6.313   4.639 -0.7140 -0.2879 -0.2006
  688MOL0     C92764  11.131   6.293   4.624  0.9165 -0.4358  0.7317
  688MOL0     C92765  11.210   6.327   4.497  0.1558 -1.2395  0.1271
  688MOL0     C92766  11.291   6.456   4.510 -0.0463 -0.7813  0.6360
  688MOL0     C92767  11.386   6.479   4.387 -0.6060 -0.9129 -0.5993
  688MOL0     C92768  11.417   6.626   4.385 -0.0405 -0.6645 -0.4744
  688MOL0     O92769  11.523   6.648   4.300 -0.4696 -0.3854 -0.5362
  688MOL0     C92770  11.532   6.773   4.256  0.2880 -0.9757 -0.4522
  688MOL0     C92771  11.523   6.800   4.121 -0.0818 -0.4044 -0.3557
  688MOL0     C92772  11.530   6.927   4.068 -0.8405 -0.3797 -0.7346
  688MOL0     C92773  11.550   7.039   4.154 -0.2039  0.4985  0.1067
  688MOL0     C92774  11.564   7.173   4.105 -0.6791 -0.8054  0.2669
  688MOL0     O92775  11.598   7.270   4.203  0.2992  0.2585  0.6172
  688MOL0     C92776  11.643   7.393   4.160 -0.7490  0.6312 -0.1190
  688MOL0     C92777  11.634   7.455   4.032  0.6047 -0.6355  1.4999
  688MOL0     C92778  11.695   7.572   3.993  0.2862 -0.2637  0.4534
  688MOL0     C92779  11.764   7.647   4.097 -0.4253  0.2038  0.5883
  688MOL0     O92780  11.842   7.755   4.070 -0.5250 -0.1035 -0.0691
  688MOL0     C92781  11.800   7.875   4.125 -0.7425 -0.0717  0.0265
  688MOL0     C92782  11.904   7.989   4.111 -0.2119 -0.5149  0.0354
  688MOL0     C92783  11.996   7.967   3.986 -0.8624 -0.6550 -0.0855
  688MOL0     C92784  12.041   8.107   3.938  0.5248 -0.1853  0.0256
  688MOL0     C92785  12.129   8.102   3.816 -0.0951 -0.1306 -0.1941
  688MOL0     C92786  12.071   8.077   3.686  0.8657  0.6267 -0.3768
  688MOL0     C92787  12.160   8.095   3.563 -0.6640 -0.0875 -0.0969
  688MOL0     C92788  12.211   8.234   3.530  0.4586 -0.2815  0.3249
  688MOL0    Cl92789  12.073   8.358   3.480 -0.1675 -0.0371 -0.1284
  688MOL0     C92790  11.780   7.584   4.219  0.6796 -0.5472  1.1527
  688MOL0     C92791  11.711   7.474   4.248 -0.2714  0.5456 -0.7169
  688MOL0     O92792  11.552   7.202   3.979 -0.5367  0.5520  0.2282
  688MOL0     C92793  11.567   7.005   4.295 -0.1116  0.0784 -0.5392
  688MOL0     C92794  11.553   6.877   4.345 -0.0986 -0.2371 -0.0137
  688MOL0     N92795  11.177   6.241   4.742  0.4851  0.5381 -0.6989
  688MOL0     N92796  11.074   6.207   4.818 -0.7454 -1.2287 -0.4335
  688MOL0     C92797  10.186   5.540   5.159 -0.5570  0.4835  0.4377
  688MOL0     C92798  10.076   5.458   5.138 -0.4080  0.7915 -0.4130
  688MOL0     C92799   9.777   5.121   5.212  0.8542 -0.1922 -0.1263
  688MOL0     C92800   9.778   5.055   5.091 -0.2799  0.3237  0.2664
  688MOL0     C92801   9.680   4.968   5.049  0.6153  0.4634 -1.1582
  688MOL0     C92802   9.578   4.929   5.149  0.6699 -0.6548  1.0887
  688MOL0     O92803   9.477   4.850   5.123  0.9930  0.2752  0.0220
  688MOL0     C92804   9.452   4.836   4.983 -0.8697 -0.1811 -0.4995
  688MOL0     C92805   9.306   4.798   4.971  0.2571 -0.2571  0.7183
  688MOL0     C92806   9.254   4.669   5.030  0.0616  0.1927  0.4264
  688MOL0     C92807   9.110   4.658   5.000  1.2083  0.0397 -0.0401
  688MOL0     C92808   9.018   4.725   5.094 -0.6519 -0.3041 -0.5152
  688MOL0     C92809   8.938   4.770   5.170 -0.1096 -0.1634  0.5191
  688MOL0     C92810   9.583   4.996   5.274 -0.0117 -0.2698  0.1493
  688MOL0     C92811   9.673   5.088   5.309 -1.0634 -0.4228  1.2599
  688MOL0     C92812   9.658   5.135   5.449 -0.1984  0.3411 -0.7573
  688MOL0     H92813  10.202   5.171   5.284 -0.4190 -0.9235 -2.4187
  688MOL0     H92814  10.399   5.320   5.316  0.5491  1.0429  2.1415
  688MOL0     H92815  10.580   5.458   5.194 -0.4259 -0.1996 -0.6429
  688MOL0     H92816  10.488   5.496   5.042 -0.7213  0.5096 -0.6841
  688MOL0     H92817  10.702   5.624   5.089 -0.1402  0.5917 -2.9990
  688MOL0     H92818  10.625   5.700   5.220 -0.6236  0.4985  1.1637
  688MOL0     H92819  10.432   5.752   5.032 -0.0428 -0.0081  1.4717
  688MOL0     H92820  10.552   5.707   4.913  1.2277 -1.0191  0.7833
  688MOL0     H92821  10.551   5.932   4.921 -0.0346 -0.5560 -0.2130
  688MOL0     H92822  10.596   5.947   5.093 -0.9686  2.2389 -2.2353
  688MOL0     H92823  10.815   5.828   5.024 -0.9791 -1.5277 -0.3407
  688MOL0     H92824  10.760   5.846   4.864  0.2984  0.6943 -0.1440
  688MOL0     H92825  10.770   6.103   5.037 -2.0135 -1.0830 -0.5237
  688MOL0     H92826  10.918   6.044   4.965  0.2915  1.6885  0.3928
  688MOL0     H92827  10.663   6.107   4.802  0.8794 -0.2762 -1.3810
  688MOL0     H92828  10.798   6.032   4.745 -1.1964 -2.7178  1.2612
  688MOL0     H92829  10.761   6.310   4.744  2.4892  3.0608  0.3064
  688MOL0     H92830  10.810   6.298   4.911  0.4470  1.6503 -0.8087
  688MOL0     H92831  10.934   6.363   4.568  1.6246  1.2909 -1.3459
  688MOL0     H92832  11.278   6.245   4.470 -0.0932 -0.3189 -3.8461
  688MOL0     H92833  11.136   6.338   4.418 -1.0132  0.9927  1.4385
  688MOL0     H92834  11.216   6.535   4.514 -1.3670 -1.8283 -1.4577
  688MOL0     H92835  11.347   6.440   4.602 -0.2060  0.7793  1.0340
  688MOL0     H92836  11.347   6.445   4.291 -1.4681  0.8343 -0.9195
  688MOL0     H92837  11.478   6.426   4.415  0.2627  0.6850 -0.2937
  688MOL0     H92838  11.441   6.671   4.482 -0.1829  0.2310 -0.8400
  688MOL0     H92839  11.333   6.691   4.358  2.0400  1.1865 -2.9816
  688MOL0     H92840  11.518   6.708   4.064 -1.0122 -1.0136  0.6925
  688MOL0     H92841  11.495   6.938   3.966 -0.8934 -0.9978 -0.7846
  688MOL0     H92842  11.569   7.420   3.952  0.5449 -1.2208  1.7947
  688MOL0     H92843  11.686   7.614   3.893 -2.5918  0.5662  0.9875
  688MOL0     H92844  11.705   7.915   4.088 -0.6686  1.5478  1.4985
  688MOL0     H92845  11.792   7.848   4.230 -0.4670  1.3373  0.4276
  688MOL0     H92846  11.865   8.090   4.124  5.0758  2.1958 -2.1769
  688MOL0     H92847  11.963   7.981   4.203  0.7834 -0.6572 -0.6061
  688MOL0     H92848  12.083   7.910   4.020 -2.8201 -2.8280  1.6179
  688MOL0     H92849  11.943   7.921   3.903 -0.0593 -0.6514 -0.6079
  688MOL0     H92850  12.100   8.148   4.021 -1.5918  1.2597  0.9065
  688MOL0     H92851  11.961   8.180   3.920 -0.3221 -0.2388  2.9416
  688MOL0     H92852  12.204   8.023   3.830 -1.9423 -1.6340  2.0732
  688MOL0     H92853  12.180   8.199   3.812  0.8096 -0.4715  1.6727
  688MOL0     H92854  12.035   7.974   3.679 -0.6971  1.1761 -0.8449
  688MOL0     H92855  11.983   8.143   3.677  0.0263 -0.2567  1.0642
  688MOL0     H92856  12.117   8.055   3.471 -2.3447  0.1214  0.5721
  688MOL0     H92857  12.257   8.047   3.580 -0.7230 -0.9208 -1.8696
  688MOL0     H92858  12.263   8.281   3.614  0.5785 -0.7917  0.5432
  688MOL0     H92859  12.284   8.216   3.450 -0.9484 -2.2025 -0.5969
  688MOL0     H92860  11.839   7.631   4.296 -0.8046  2.3021  0.7141
  688MOL0     H92861  11.705   7.434   4.349 -2.5409  2.8058  0.1473
  688MOL0     H92862  11.579   7.088   4.364  3.1279  1.9212 -3.0179
  688MOL0     H92863  11.570   6.862   4.451 -1.7137  1.7601  0.6082
  688MOL0     H92864  10.178   5.646   5.139 -0.3835  0.4301  0.0803
  688MOL0     H92865   9.981   5.505   5.118 -0.2256  4.6325  5.2862
  688MOL0     H92866   9.860   5.069   5.021  0.1823  1.6398  1.0343
  688MOL0     H92867   9.676   4.925   4.949 -2.2504 -1.0745 -0.4790
  688MOL0     H92868   9.496   4.742   4.949 -3.5959 -1.6601 -0.2620
  688MOL0     H92869   9.484   4.922   4.924 -1.2101  2.0254  2.2914
  688MOL0     H92870   9.294   4.785   4.864 -2.7426  1.9624  0.6628
  688MOL0     H92871   9.242   4.880   5.005 -3.3112 -2.7283  0.4212
  688MOL0     H92872   9.274   4.661   5.137  0.0663 -1.7427  0.3250
  688MOL0     H92873   9.308   4.588   4.980 -0.7377 -0.8997  1.2680
  688MOL0     H92874   9.102   4.686   4.895  0.7723 -0.4186 -0.1307
  688MOL0     H92875   9.077   4.554   5.006 -0.6200  0.6436  1.3612
  688MOL0     H92876   8.864   4.800   5.242 -2.6619 -1.3388 -1.4589
  688MOL0     H92877   9.499   4.980   5.340 -2.5477  3.5532 -1.8286
  688MOL0     H92878   9.643   5.243   5.447  2.1334  0.7116 -3.1388
  688MOL0     H92879   9.572   5.081   5.489 -0.1624 -0.2251 -1.4083
  688MOL0     H92880   9.749   5.116   5.507  0.0152 -0.8756 -1.4543
  689MOL0     O92881   0.241   2.465   5.758 -0.0437  0.4506 -0.5505
  689MOL0     C92882   0.149   2.399   5.801  0.3700 -0.2080 -0.6058
  689MOL0     O92883   0.114   2.401   5.932 -0.3045  0.0312 -0.0484
  689MOL0     C92884   0.204   2.424   6.037 -0.1223  1.4830  0.6077
  689MOL0     C92885   0.341   2.397   6.021  0.4674 -0.4700 -0.0270
  689MOL0     C92886   0.421   2.423   6.129 -0.2737 -1.0488  0.1064
  689MOL0     C92887   0.383   2.469   6.254  0.1384  0.0136  1.5872
  689MOL0     O92888   0.466   2.509   6.351 -0.7829  0.7142  1.0215
  689MOL0     C92889   0.510   2.645   6.345 -0.5294  0.1196 -0.5815
  689MOL0     C92890   0.620   2.692   6.251 -1.8028  0.4357 -0.3096
  689MOL0     C92891   0.752   2.610   6.268  0.2787 -0.7880 -0.6070
  689MOL0     C92892   0.874   2.682   6.218  1.2292  0.1879  0.3314
  689MOL0     C92893   0.856   2.722   6.068 -0.7521 -0.2490  0.6005
  689MOL0     C92894   0.823   2.607   5.968  0.0438 -0.0120 -1.6608
  689MOL0     C92895   0.921   2.493   5.974  1.1448  0.6497 -0.0149
  689MOL0     C92896   0.847   2.356   5.926  0.2930 -0.1149 -0.2235
  689MOL0     N92897   0.926   2.241   5.940 -0.0140 -0.2868 -0.5750
  689MOL0     C92898   1.058   2.224   5.897 -0.2455 -0.6493  0.2682
  689MOL0     C92899   1.090   2.097   5.938  0.1357  0.4068  0.5123
  689MOL0     C92900   1.219   2.025   5.915  0.0243  1.0611  0.4021
  689MOL0     C92901   1.319   2.046   6.023  0.0954 -0.3314 -1.3080
  689MOL0     C92902   1.403   1.921   6.067  0.9885 -0.4835  0.2689
  689MOL0     C92903   1.496   1.951   6.184 -0.0362 -0.3481  0.2129
  689MOL0     O92904   1.576   2.063   6.136 -0.1675  0.2620  0.5544
  689MOL0     C92905   1.669   2.114   6.221  0.5981  0.9296 -0.2365
  689MOL0     C92906   1.726   2.038   6.318  0.2443  0.1541  0.7737
  689MOL0     C92907   1.833   2.084   6.394  0.0508  0.4566 -0.4285
  689MOL0     C92908   1.877   2.216   6.374  0.5372  0.2242 -0.4353
  689MOL0     C92909   1.986   2.274   6.454 -0.4923  0.5788 -0.7606
  689MOL0     O92910   2.064   2.373   6.404 -0.1279 -0.0276 -0.4246
  689MOL0     C92911   2.175   2.419   6.478  0.7789 -0.2605 -1.0210
  689MOL0     C92912   2.283   2.329   6.497 -0.0296 -0.1369  0.3413
  689MOL0     C92913   2.391   2.374   6.568 -0.0787  1.0846  0.0247
  689MOL0     C92914   2.402   2.504   6.613 -0.8351  0.0687 -0.4709
  689MOL0     O92915   2.509   2.548   6.690 -0.7125 -0.0457  1.1211
  689MOL0     C92916   2.600   2.454   6.740  0.1939  0.3916  0.4489
  689MOL0     C92917   2.723   2.518   6.807 -0.1351  0.1053 -0.7769
  689MOL0     C92918   2.801   2.605   6.695 -0.2493 -0.1242 -0.1583
  689MOL0     C92919   2.824   2.536   6.571 -0.2388  0.2125 -0.6938
  689MOL0     C92920   2.908   2.613   6.463  0.4964  0.4312 -0.0648
  689MOL0     C92921   3.057   2.651   6.490  0.4712  0.2230 -0.5811
  689MOL0     C92922   3.130   2.700   6.364 -0.3908  0.1396  0.2430
  689MOL0     C92923   3.186   2.593   6.283  0.3045 -0.5838 -0.3604
  689MOL0    Cl92924   3.307   2.493   6.379  0.4882 -0.1165  0.1686
  689MOL0     C92925   2.297   2.595   6.595  0.6676  0.0868 -0.1501
  689MOL0     C92926   2.191   2.556   6.517 -0.1494 -0.4863 -0.0776
  689MOL0     O92927   2.012   2.211   6.556 -0.5492  0.3687 -0.9180
  689MOL0     C92928   1.809   2.300   6.276 -0.4191  0.3496 -0.0142
  689MOL0     C92929   1.712   2.239   6.196 -0.0574  0.8228  0.6552
  689MOL0     N92930   0.986   2.043   6.015  0.0482 -0.2552  0.7476
  689MOL0     N92931   0.892   2.135   6.024 -0.0290 -0.4454 -1.1000
  689MOL0     C92932   0.247   2.498   6.262  0.7093 -0.0690 -0.1635
  689MOL0     C92933   0.156   2.471   6.158 -0.1941 -0.4388 -0.8641
  689MOL0     C92934   0.064   2.316   5.713  0.0645 -0.1768  0.2191
  689MOL0     C92935  -0.015   2.219   5.766 -0.6898 -0.2913 -2.2553
  689MOL0     C92936  -0.082   2.127   5.693 -0.3424  0.2075  0.7492
  689MOL0     C92937  -0.096   2.138   5.554 -0.4389  1.6728 -0.4020
  689MOL0     O92938  -0.163   2.048   5.480  0.0847  0.9763  0.4456
  689MOL0     C92939  -0.300   2.084   5.459  0.3150 -0.1520  0.1024
  689MOL0     C92940  -0.396   2.026   5.564 -0.1521 -0.7672  0.0431
  689MOL0     C92941  -0.386   1.870   5.575 -0.2594  0.4069  1.0849
  689MOL0     C92942  -0.473   1.805   5.687 -1.2689 -0.3877 -0.1536
  689MOL0     C92943  -0.420   1.849   5.821 -0.8468 -0.3379  1.0976
  689MOL0     C92944  -0.381   1.890   5.929  0.1117  0.4054 -0.5972
  689MOL0     C92945  -0.030   2.242   5.501  1.0449 -0.2406 -0.0088
  689MOL0     C92946   0.056   2.323   5.569 -0.3142 -0.9028 -0.4698
  689MOL0     C92947   0.147   2.420   5.491 -0.7205 -0.9253 -0.2405
  689MOL0     H92948   0.394   2.370   5.930  1.5018  2.5097 -0.4415
  689MOL0     H92949   0.529   2.408   6.125 -0.0902  0.3632 -0.6821
  689MOL0     H92950   0.429   2.718   6.334 -0.0832  0.8234  0.5649
  689MOL0     H92951   0.548   2.656   6.448  1.3161 -3.1428 -0.7633
  689MOL0     H92952   0.640   2.796   6.278  1.4042 -0.0949 -0.2250
  689MOL0     H92953   0.594   2.694   6.145  0.6877  0.1121 -0.9931
  689MOL0     H92954   0.732   2.509   6.229  2.0822 -2.7505  2.9792
  689MOL0     H92955   0.776   2.604   6.375  2.8857 -0.5931 -1.1303
  689MOL0     H92956   0.883   2.776   6.274 -1.8997  0.6987  0.2036
  689MOL0     H92957   0.963   2.620   6.226  0.7414 -0.3463  2.0528
  689MOL0     H92958   0.774   2.794   6.055 -0.7578 -0.3192  0.2371
  689MOL0     H92959   0.951   2.768   6.039  0.7135 -1.9971  2.3042
  689MOL0     H92960   0.729   2.557   5.995  0.4065 -0.0394 -0.3859
  689MOL0     H92961   0.807   2.665   5.877 -0.8597  3.5415  0.5987
  689MOL0     H92962   0.967   2.466   6.069 -1.6071  1.2173  1.5812
  689MOL0     H92963   0.993   2.526   5.899 -1.6440  1.2820 -2.6498
  689MOL0     H92964   0.754   2.339   5.982 -1.3758  0.9389 -2.5382
  689MOL0     H92965   0.840   2.374   5.819  0.9005  2.5220  0.1188
  689MOL0     H92966   1.122   2.297   5.848 -0.9922  0.9970  1.6433
  689MOL0     H92967   1.195   1.919   5.902  1.7190  1.0080 -4.2019
  689MOL0     H92968   1.262   2.056   5.819  1.6557  1.6412  1.2728
  689MOL0     H92969   1.384   2.133   6.011 -2.1845  1.7052  0.2191
  689MOL0     H92970   1.262   2.086   6.108  2.8740  2.8352 -0.7312
  689MOL0     H92971   1.464   1.886   5.983  1.5330 -0.3632  0.6115
  689MOL0     H92972   1.348   1.831   6.095 -1.0467  0.6241  0.0089
  689MOL0     H92973   1.551   1.862   6.216 -0.6618 -1.1692 -0.9579
  689MOL0     H92974   1.441   1.981   6.274  1.8428 -0.4739  1.4585
  689MOL0     H92975   1.694   1.939   6.347 -1.2684  0.2559 -0.4154
  689MOL0     H92976   1.888   2.018   6.459  0.8944 -1.0563 -2.5417
  689MOL0     H92977   2.269   2.225   6.470  1.0356  0.4248 -2.7812
  689MOL0     H92978   2.472   2.303   6.584 -1.0789  0.1530  1.2325
  689MOL0     H92979   2.546   2.399   6.817  1.3954 -1.4960  0.0067
  689MOL0     H92980   2.641   2.379   6.672  3.2004 -0.2789  2.7283
  689MOL0     H92981   2.685   2.591   6.878  2.9477  1.3890 -0.3124
  689MOL0     H92982   2.779   2.445   6.866 -3.3407 -0.5005  1.7940
  689MOL0     H92983   2.736   2.692   6.682 -1.0498 -0.6099  0.4170
  689MOL0     H92984   2.886   2.649   6.748 -1.0477  1.6663 -0.2730
  689MOL0     H92985   2.730   2.513   6.520 -1.5521 -3.4666  2.8069
  689MOL0     H92986   2.872   2.445   6.606  1.6472  2.2384  2.5723
  689MOL0     H92987   2.857   2.705   6.434 -1.1487  0.6932  3.2250
  689MOL0     H92988   2.910   2.551   6.373 -1.0270 -0.5601  0.5455
  689MOL0     H92989   3.061   2.734   6.562  2.2639  1.4239 -1.9643
  689MOL0     H92990   3.104   2.562   6.532 -2.5446 -1.1598  0.1124
  689MOL0     H92991   3.225   2.741   6.402 -0.4217  1.0763 -0.6534
  689MOL0     H92992   3.074   2.769   6.300  1.5572 -1.0681 -3.0483
  689MOL0     H92993   3.100   2.540   6.242  1.2146  0.6647 -4.3619
  689MOL0     H92994   3.232   2.621   6.187 -3.1043 -3.0558 -2.9921
  689MOL0     H92995   2.309   2.694   6.638 -2.1014  0.0795  0.8922
  689MOL0     H92996   2.118   2.632   6.490 -3.5366 -3.6762 -0.6933
  689MOL0     H92997   1.848   2.400   6.260  6.4167 -1.6956  0.6910
  689MOL0     H92998   1.666   2.307   6.125  3.4291  0.8075 -1.8093
  689MOL0     H92999   0.212   2.541   6.355 -0.5567  0.3183 -0.7950
  689MOL0     H93000   0.050   2.488   6.171 -0.3645 -1.6693 -0.4466
  689MOL0     H93001  -0.013   2.203   5.873 -0.0185  1.9588 -1.8806
  689MOL0     H93002  -0.141   2.057   5.750 -0.1168  1.6712  2.8917
  689MOL0     H93003  -0.346   2.039   5.371  0.9591 -1.6506  0.5179
  689MOL0     H93004  -0.303   2.193   5.445  0.7615  0.1731  2.2116
  689MOL0     H93005  -0.498   2.059   5.546  0.2761  0.5329 -0.1366
  689MOL0     H93006  -0.369   2.070   5.661 -1.1036 -0.6250  0.2520
  689MOL0     H93007  -0.285   1.834   5.598 -2.0190 -2.8795  4.8432
  689MOL0     H93008  -0.421   1.822   5.483  0.0164  1.9470  0.1359
  689MOL0     H93009  -0.582   1.818   5.685 -1.1496  0.9603  0.7592
  689MOL0     H93010  -0.456   1.697   5.693  1.3433 -0.0654 -0.5300
  689MOL0     H93011  -0.331   1.895   6.023  0.1805  0.8464 -0.6571
  689MOL0     H93012  -0.049   2.270   5.398 -1.0624  2.1131  0.9158
  689MOL0     H93013   0.250   2.385   5.480 -0.3940 -0.5841  1.5108
  689MOL0     H93014   0.116   2.426   5.386  1.4053  0.7952 -0.8434
  689MOL0     H93015   0.144   2.523   5.526  0.4369 -0.5746 -1.1047
  690MOL0     O93016  11.390   0.223   7.278 -0.6522  0.5626  0.3799
  690MOL0     C93017  11.513   0.229   7.264 -0.1165 -0.1366 -0.5921
  690MOL0     O93018  11.598   0.139   7.315 -0.8991  0.8527 -1.0263
  690MOL0     C93019  11.563   0.033   7.396  0.2478  0.8473 -0.2445
  690MOL0     C93020  11.474   0.047   7.507 -0.5159  0.4766  0.1677
  690MOL0     C93021  11.441  -0.065   7.586  0.4739  0.4617 -0.2488
  690MOL0     C93022  11.501  -0.189   7.564 -0.4479  0.1117  0.1490
  690MOL0     O93023  11.485  -0.299   7.640 -0.3065  0.4386 -0.0706
  690MOL0     C93024  11.403  -0.293   7.763 -0.9514  0.4956  0.7646
  690MOL0     C93025  11.372  -0.421   7.839  0.1029 -0.5127 -0.0827
  690MOL0     C93026  11.474  -0.434   7.960 -1.1104  0.3162  0.8806
  690MOL0     C93027  11.550  -0.571   7.948  0.8169  0.6679  1.2989
  690MOL0     C93028  11.478  -0.699   8.004 -0.1419 -0.0029 -0.5216
  690MOL0     C93029  11.338  -0.737   7.947  0.2612  0.1791  0.6107
  690MOL0     C93030  11.320  -0.878   7.999  0.2847 -0.5664  0.7964
  690MOL0     C93031  11.183  -0.931   7.933 -0.5226 -0.1279  0.6027
  690MOL0     N93032  11.195  -1.072   7.899  0.2997  1.4458 -0.2588
  690MOL0     C93033  11.182  -1.187   7.984 -0.0774  0.1422 -0.6992
  690MOL0     C93034  11.158  -1.289   7.897  0.5721 -0.2492 -0.4757
  690MOL0     C93035  11.132  -1.434   7.934 -0.6209  0.3658  0.1187
  690MOL0     C93036  10.984  -1.465   7.952  1.1179  1.0321  0.0155
  690MOL0     C93037  10.908  -1.489   7.820  0.2505 -0.4515 -0.4400
  690MOL0     C93038  10.931  -1.628   7.754  0.5970 -0.4255  0.8837
  690MOL0     O93039  10.828  -1.664   7.659 -0.4260 -0.4832  0.2350
  690MOL0     C93040  10.829  -1.794   7.618  1.4286  0.1654 -0.4142
  690MOL0     C93041  10.707  -1.848   7.567 -0.6203 -0.8473  0.7606
  690MOL0     C93042  10.701  -1.982   7.503 -0.1756 -0.9461  0.1190
  690MOL0     C93043  10.820  -2.056   7.502  0.8618  0.0309  0.6109
  690MOL0     C93044  10.801  -2.199   7.460  0.1504  0.5086 -0.0893
  690MOL0     O93045  10.909  -2.270   7.443  0.2929  0.2673  0.0271
  690MOL0     C93046  10.919  -2.404   7.426 -0.1581  0.0846 -0.6155
  690MOL0     C93047  10.813  -2.499   7.421  0.3271 -0.7803  0.8445
  690MOL0     C93048  10.837  -2.630   7.406  0.1545  0.9477  0.0212
  690MOL0     C93049  10.966  -2.674   7.400  0.7492  0.3282  0.0131
  690MOL0     O93050  10.981  -2.810   7.380  0.0935  0.2347  0.4239
  690MOL0     C93051  11.090  -2.872   7.451  0.1676  0.1682 -0.4604
  690MOL0     C93052  11.108  -3.009   7.402  0.0634 -0.0432  0.6300
  690MOL0     C93053  11.185  -3.091   7.508  0.2953 -0.5475  0.4500
  690MOL0     C93054  11.228  -3.228   7.456 -0.0986  0.0451  0.0880
  690MOL0     C93055  11.297  -3.320   7.568  1.2481 -0.0585 -0.0996
  690MOL0     C93056  11.184  -3.375   7.662 -0.8833  0.2411 -0.6531
  690MOL0     C93057  11.244  -3.389   7.806 -0.3806  0.0846  0.7345
  690MOL0     C93058  11.141  -3.448   7.899  0.2097 -0.9068  0.6117
  690MOL0    Cl93059  11.098  -3.604   7.834 -0.4045  0.0703 -0.3493
  690MOL0     C93060  11.072  -2.585   7.403 -0.4272 -0.2383 -0.5437
  690MOL0     C93061  11.052  -2.452   7.421  0.8685 -0.4045  0.2770
  690MOL0     O93062  10.690  -2.226   7.417  0.0430  0.2991  0.0033
  690MOL0     C93063  10.935  -2.004   7.554  0.1365  0.4229  0.4734
  690MOL0     C93064  10.938  -1.875   7.599 -0.6024  0.4966 -0.6190
  690MOL0     N93065  11.161  -1.238   7.765  0.0676  0.3118  0.3325
  690MOL0     N93066  11.187  -1.120   7.765 -0.0828 -0.6768  0.3319
  690MOL0     C93067  11.600  -0.201   7.460  0.0866 -1.4344 -0.2183
  690MOL0     C93068  11.622  -0.091   7.372 -0.0453 -0.0173  1.0180
  690MOL0     C93069  11.574   0.334   7.175  0.0358 -0.1695 -0.3261
  690MOL0     C93070  11.684   0.308   7.104 -0.7100  0.4533  0.2331
  690MOL0     C93071  11.742   0.402   7.016 -0.9111  0.9236  0.4532
  690MOL0     C93072  11.683   0.520   6.983 -0.1091  0.9769 -0.8064
  690MOL0     O93073  11.752   0.598   6.888 -0.2424  0.0279  0.4952
  690MOL0     C93074  11.699   0.728   6.864  0.5288  0.2013  0.9392
  690MOL0     C93075  11.745   0.835   6.967 -0.2773  0.2106  0.0745
  690MOL0     C93076  11.889   0.871   6.949 -1.1714  0.7454 -0.7287
  690MOL0     C93077  11.965   0.899   7.078 -0.0985 -0.0592  0.1401
  690MOL0     C93078  12.005   0.770   7.144  0.1613  0.1595 -0.2796
  690MOL0     C93079  12.053   0.678   7.195  0.1745  0.8876 -1.0198
  690MOL0     C93080  11.567   0.554   7.057  0.1409 -0.4096 -0.9829
  690MOL0     C93081  11.510   0.461   7.154  0.2994  0.0807 -0.0366
  690MOL0     C93082  11.410   0.515   7.244  0.7629  0.0724 -0.5004
  690MOL0     H93083  11.426   0.143   7.521  0.6586  0.9763  0.9533
  690MOL0     H93084  11.374  -0.055   7.671  1.8686 -1.7826  1.2141
  690MOL0     H93085  11.448  -0.215   7.826 -0.7122  1.5824 -0.7035
  690MOL0     H93086  11.307  -0.262   7.722 -0.5267 -0.6426 -1.2103
  690MOL0     H93087  11.363  -0.502   7.765 -0.3898 -1.9739  1.5233
  690MOL0     H93088  11.272  -0.412   7.881  0.0894 -1.6806  0.1642
  690MOL0     H93089  11.419  -0.425   8.054 -3.5965  0.7629 -0.5250
  690MOL0     H93090  11.529  -0.339   7.963 -3.1471  1.5162  1.9927
  690MOL0     H93091  11.590  -0.582   7.847 -2.2282  2.0994 -0.2045
  690MOL0     H93092  11.637  -0.563   8.013  0.5982 -0.7155  1.8017
  690MOL0     H93093  11.544  -0.786   8.006 -2.5079 -1.9465  2.2326
  690MOL0     H93094  11.457  -0.678   8.110  1.2991  1.6306 -0.5229
  690MOL0     H93095  11.256  -0.670   7.975 -0.5130 -0.0350 -1.0099
  690MOL0     H93096  11.340  -0.736   7.837  3.6502  0.0363  0.5798
  690MOL0     H93097  11.314  -0.869   8.108  0.0730 -1.1632  0.8380
  690MOL0     H93098  11.400  -0.946   7.970 -0.0366 -0.0523 -1.5068
  690MOL0     H93099  11.110  -0.911   8.012  1.5364  5.8740  1.5149
  690MOL0     H93100  11.147  -0.874   7.847 -0.1794  0.0964  0.6016
  690MOL0     H93101  11.178  -1.193   8.092 -0.1326  1.6614 -0.5927
  690MOL0     H93102  11.175  -1.488   7.848  1.1846 -0.0016  1.2044
  690MOL0     H93103  11.188  -1.451   8.026 -2.3160  1.1588  1.3378
  690MOL0     H93104  10.980  -1.557   8.010  3.4619  1.7796  1.5230
  690MOL0     H93105  10.932  -1.383   8.002  1.9410  0.7873  1.3170
  690MOL0     H93106  10.941  -1.410   7.752  3.4521  0.1694  1.6120
  690MOL0     H93107  10.801  -1.492   7.841  0.7887 -3.2299  2.7321
  690MOL0     H93108  10.927  -1.700   7.836  0.9816  0.9930  2.1757
  690MOL0     H93109  11.029  -1.642   7.707 -0.7303 -1.2895 -1.8949
  690MOL0     H93110  10.615  -1.791   7.575 -0.7808 -0.8108 -0.9518
  690MOL0     H93111  10.602  -2.025   7.494  1.1709 -3.8882 -1.9798
  690MOL0     H93112  10.708  -2.473   7.433  0.2922  0.3091 -1.2849
  690MOL0     H93113  10.747  -2.691   7.398  0.2255  0.8455 -0.0026
  690MOL0     H93114  11.188  -2.824   7.438 -0.8643  1.9375 -2.3781
  690MOL0     H93115  11.091  -2.859   7.559  0.7661  0.2496 -0.4674
  690MOL0     H93116  11.013  -3.059   7.383  0.2141 -1.2983  2.7429
  690MOL0     H93117  11.165  -3.003   7.309 -1.8835  1.1857 -0.5420
  690MOL0     H93118  11.275  -3.043   7.546 -0.8752  0.0264  2.6866
  690MOL0     H93119  11.122  -3.092   7.597 -2.4630 -0.1536 -1.3487
  690MOL0     H93120  11.295  -3.197   7.375  0.2825  0.6320  0.6207
  690MOL0     H93121  11.143  -3.273   7.403  1.7450  0.1073 -3.2246
  690MOL0     H93122  11.353  -3.248   7.629  1.6933 -0.8421  0.4198
  690MOL0     H93123  11.360  -3.396   7.522 -0.9047 -0.4758 -2.6487
  690MOL0     H93124  11.093  -3.315   7.665 -1.1523 -0.0665 -2.0804
  690MOL0     H93125  11.151  -3.467   7.613  1.8410 -1.2573  0.1079
  690MOL0     H93126  11.252  -3.290   7.854 -0.8422 -0.7307  2.5890
  690MOL0     H93127  11.328  -3.457   7.825 -1.2371 -0.2014  4.2827
  690MOL0     H93128  11.176  -3.459   8.002 -1.7973  3.7674  2.0196
  690MOL0     H93129  11.054  -3.384   7.913  0.3179 -1.1662  2.7333
  690MOL0     H93130  11.178  -2.609   7.412  0.6681  2.1781 -4.4758
  690MOL0     H93131  11.137  -2.387   7.442 -0.2927  1.6940 -1.1083
  690MOL0     H93132  11.020  -2.070   7.553 -0.8796 -0.9788  1.7330
  690MOL0     H93133  11.030  -1.834   7.640 -0.3542 -0.2685 -0.3999
  690MOL0     H93134  11.653  -0.295   7.446  0.8822 -1.7085  3.6396
  690MOL0     H93135  11.682  -0.081   7.282  1.2497  2.6430  2.0479
  690MOL0     H93136  11.729   0.209   7.099 -4.5214 -1.4439 -0.3840
  690MOL0     H93137  11.821   0.369   6.950 -0.5824  1.0141  0.8016
  690MOL0     H93138  11.590   0.740   6.868  0.6429  1.6433  0.3277
  690MOL0     H93139  11.735   0.758   6.765 -0.5440  3.0257  1.2954
  690MOL0     H93140  11.733   0.783   7.063 -0.2665 -0.2610 -0.1777
  690MOL0     H93141  11.688   0.928   6.957  0.6312  0.6709 -1.1120
  690MOL0     H93142  11.890   0.955   6.880  0.2278  0.7617 -0.7118
  690MOL0     H93143  11.922   0.781   6.896 -0.6407  1.4226 -1.5703
  690MOL0     H93144  12.062   0.939   7.047 -0.6445 -0.4206 -2.2986
  690MOL0     H93145  11.907   0.970   7.137  2.7810  4.1909 -1.6648
  690MOL0     H93146  12.088   0.588   7.242 -3.4477 -0.8012 -1.2101
  690MOL0     H93147  11.537   0.658   7.063  0.6179 -0.3494  1.6841
  690MOL0     H93148  11.328   0.456   7.287 -1.6791  2.6696 -1.2423
  690MOL0     H93149  11.460   0.557   7.331  0.7815  4.2204 -2.2721
  690MOL0     H93150  11.369   0.601   7.188  1.3242  1.4404  1.1122
  691MOL0     O93151   3.516   7.165   4.848  0.0994 -0.1661 -0.0128
  691MOL0     C93152   3.577   7.117   4.941 -0.4997  0.4711  0.1205
  691MOL0     O93153   3.627   7.189   5.043  0.4297  0.0054 -0.0419
  691MOL0     C93154   3.632   7.324   5.064 -0.3134 -0.3900  0.1354
  691MOL0     C93155   3.653   7.370   5.192 -0.5994  0.0163 -0.0667
  691MOL0     C93156   3.654   7.509   5.221 -0.6659  0.5841 -0.2317
  691MOL0     C93157   3.649   7.603   5.110 -0.2268 -0.0748 -0.8624
  691MOL0     O93158   3.669   7.738   5.117  0.1441 -0.0177 -0.0026
  691MOL0     C93159   3.665   7.802   5.244  0.1555 -0.4627  0.1736
  691MOL0     C93160   3.532   7.833   5.310 -0.9529  0.7775  0.6002
  691MOL0     C93161   3.414   7.823   5.215  0.2467  1.4728  0.1613
  691MOL0     C93162   3.275   7.835   5.290  0.6532 -0.2665  0.5638
  691MOL0     C93163   3.154   7.797   5.203 -0.0872  0.8557 -0.6751
  691MOL0     C93164   3.132   7.891   5.087 -0.5629  0.9713 -0.5836
  691MOL0     C93165   3.051   7.828   4.980  0.8674 -0.5488  0.2556
  691MOL0     C93166   2.999   7.943   4.884  0.9163 -0.1082  0.5294
  691MOL0     N93167   2.897   7.898   4.786  0.7044 -0.3362 -0.2867
  691MOL0     C93168   2.887   7.785   4.711  0.2100 -0.4552 -0.1192
  691MOL0     C93169   2.790   7.804   4.617 -0.3908 -0.3676 -1.0346
  691MOL0     C93170   2.744   7.704   4.509 -0.0077  0.3845  0.5302
  691MOL0     C93171   2.815   7.716   4.374  1.2104 -0.9867 -0.2451
  691MOL0     C93172   2.965   7.710   4.391 -0.4474  0.1093 -0.6861
  691MOL0     C93173   3.044   7.694   4.265  0.8051 -0.3466 -0.0852
  691MOL0     O93174   3.184   7.721   4.275 -0.3178 -0.0680  1.0605
  691MOL0     C93175   3.253   7.753   4.161  0.1922 -1.0237  0.2981
  691MOL0     C93176   3.385   7.792   4.160  0.3427 -0.5184 -0.9149
  691MOL0     C93177   3.473   7.806   4.054  0.0097  0.0883  0.8542
  691MOL0     C93178   3.419   7.780   3.926  0.4448  0.2963  1.1106
  691MOL0     C93179   3.506   7.793   3.806  0.9408  0.0617  0.0557
  691MOL0     O93180   3.634   7.818   3.828 -0.2497 -0.4690  0.1619
  691MOL0     C93181   3.727   7.834   3.734  0.1722 -0.0007  0.2015
  691MOL0     C93182   3.701   7.904   3.616  0.1534 -0.3881 -1.2057
  691MOL0     C93183   3.800   7.915   3.513  0.4427 -0.0587  1.0204
  691MOL0     C93184   3.924   7.864   3.531  0.6211  0.5038 -0.9343
  691MOL0     O93185   4.028   7.856   3.438  0.2842  0.3115 -0.3226
  691MOL0     C93186   4.005   7.882   3.296 -0.0777  0.1106  0.3448
  691MOL0     C93187   4.129   7.846   3.211  0.8479 -0.5532  0.1492
  691MOL0     C93188   4.163   7.698   3.194 -0.1473 -0.0514  0.5939
  691MOL0     C93189   4.047   7.603   3.138 -0.1884 -0.4749 -0.4881
  691MOL0     C93190   3.986   7.655   3.005  0.1175 -0.6365  0.2004
  691MOL0     C93191   4.092   7.693   2.901  0.1763 -0.1252  0.4034
  691MOL0     C93192   4.025   7.686   2.764 -1.0716 -0.4600  0.4519
  691MOL0     C93193   4.106   7.781   2.668 -0.1627  0.9624  0.1059
  691MOL0    Cl93194   4.276   7.744   2.687 -0.5452  0.1297  0.0919
  691MOL0     C93195   3.955   7.818   3.661 -0.7879 -0.0218  0.5127
  691MOL0     C93196   3.861   7.796   3.762  0.5676  0.2887  0.7410
  691MOL0     O93197   3.451   7.780   3.695  0.6003  0.0173 -0.3250
  691MOL0     C93198   3.282   7.729   3.923  0.1201 -0.7630  0.3647
  691MOL0     C93199   3.210   7.720   4.038 -0.0415 -0.1894  0.0527
  691MOL0     N93200   2.729   7.926   4.648  0.7969 -0.6552  0.2202
  691MOL0     N93201   2.796   7.976   4.745 -0.5514 -0.6121  0.5746
  691MOL0     C93202   3.635   7.558   4.971 -0.5256  0.9154 -0.9426
  691MOL0     C93203   3.624   7.417   4.955  0.9238  0.9364  0.5997
  691MOL0     C93204   3.596   6.964   4.943 -0.2437 -0.3178 -0.2752
  691MOL0     C93205   3.508   6.897   4.864 -0.3216  0.2459 -0.2265
  691MOL0     C93206   3.522   6.761   4.847  0.0890  1.3629 -0.2440
  691MOL0     C93207   3.629   6.694   4.912 -0.7047  1.1651  1.1108
  691MOL0     O93208   3.642   6.562   4.868  0.1643  0.0679 -0.0947
  691MOL0     C93209   3.756   6.488   4.913 -0.2133  0.1563  0.8293
  691MOL0     C93210   3.884   6.505   4.824 -0.3356  0.0765  0.4469
  691MOL0     C93211   3.875   6.497   4.673 -0.3539 -0.0785 -0.1170
  691MOL0     C93212   3.782   6.602   4.597  0.6057 -0.5925  0.7656
  691MOL0     C93213   3.839   6.608   4.464 -0.0358 -1.0057  0.5299
  691MOL0     C93214   3.890   6.606   4.348  1.2981  0.8271  0.1257
  691MOL0     C93215   3.710   6.763   4.997  0.1427  0.1233  0.2273
  691MOL0     C93216   3.699   6.903   5.013  1.1027 -0.4971  1.0711
  691MOL0     C93217   3.808   6.971   5.092 -0.7248  0.7707 -0.5303
  691MOL0     H93218   3.668   7.295   5.270  3.3749 -0.2894 -0.9520
  691MOL0     H93219   3.670   7.528   5.326  0.0074 -1.6634  0.1287
  691MOL0     H93220   3.721   7.753   5.324 -3.2314 -2.1692  1.7225
  691MOL0     H93221   3.722   7.893   5.225  3.0336 -1.6671  2.3153
  691MOL0     H93222   3.534   7.925   5.368  1.8158  2.0798 -1.3081
  691MOL0     H93223   3.512   7.751   5.380 -1.9904 -1.3972 -2.0321
  691MOL0     H93224   3.401   7.724   5.171  3.0602  0.3629  1.6138
  691MOL0     H93225   3.410   7.884   5.125  0.2058 -0.3177 -1.1100
  691MOL0     H93226   3.275   7.766   5.375 -1.0453 -2.5009 -1.1067
  691MOL0     H93227   3.260   7.938   5.322 -3.0205 -0.7284  0.7576
  691MOL0     H93228   3.165   7.697   5.159  0.5022 -0.4682  2.2598
  691MOL0     H93229   3.060   7.800   5.258 -1.0557  1.1058 -2.2863
  691MOL0     H93230   3.081   7.981   5.123  0.5595  1.0572  0.9107
  691MOL0     H93231   3.227   7.915   5.038  0.1513 -0.9082 -0.2354
  691MOL0     H93232   2.961   7.789   5.028  0.1940 -0.2244 -0.7207
  691MOL0     H93233   3.099   7.754   4.915  1.3164  1.0774 -1.3639
  691MOL0     H93234   2.949   8.024   4.939  0.1153  0.3159 -0.7931
  691MOL0     H93235   3.086   7.990   4.836 -0.3880  2.8320  0.8096
  691MOL0     H93236   2.952   7.698   4.720  2.0138  0.6393 -1.8883
  691MOL0     H93237   2.763   7.603   4.546 -1.3459 -1.2252 -2.8191
  691MOL0     H93238   2.635   7.697   4.514  0.0875 -0.4044  2.4522
  691MOL0     H93239   2.784   7.640   4.302  0.1288 -1.2780  0.5114
  691MOL0     H93240   2.799   7.818   4.339  0.0603 -0.3607  1.9018
  691MOL0     H93241   2.989   7.630   4.462  0.3486  1.8573  1.1371
  691MOL0     H93242   2.997   7.804   4.436 -1.5566 -0.9849  2.7374
  691MOL0     H93243   2.999   7.756   4.187  0.2536 -2.0867 -1.1917
  691MOL0     H93244   3.026   7.589   4.242  0.0831 -0.9465  2.8115
  691MOL0     H93245   3.421   7.830   4.255 -0.2032 -0.6639 -0.6467
  691MOL0     H93246   3.576   7.836   4.075  0.4867 -1.1169  0.2977
  691MOL0     H93247   3.602   7.935   3.587 -0.6358 -0.9811  0.7191
  691MOL0     H93248   3.762   7.956   3.420  1.4608  0.0353  0.6381
  691MOL0     H93249   3.920   7.817   3.272 -0.5331  1.0563 -0.7008
  691MOL0     H93250   3.966   7.983   3.281 -1.8579 -0.5005  0.5955
  691MOL0     H93251   4.105   7.886   3.112  2.0499  1.4788  0.6303
  691MOL0     H93252   4.213   7.905   3.247  0.6998 -0.4474  0.3205
  691MOL0     H93253   4.244   7.695   3.121 -1.2225 -1.4868 -0.6104
  691MOL0     H93254   4.187   7.658   3.293  1.0129 -1.8965 -0.3794
  691MOL0     H93255   3.972   7.594   3.218  1.1740  1.3671  1.1024
  691MOL0     H93256   4.086   7.507   3.104 -0.7713 -1.2946  1.0612
  691MOL0     H93257   3.941   7.750   3.034  0.3620  0.7596 -3.4748
  691MOL0     H93258   3.901   7.595   2.971 -1.2120  1.7437 -0.9180
  691MOL0     H93259   4.141   7.789   2.918  1.8126 -1.3766  3.7556
  691MOL0     H93260   4.176   7.622   2.902  0.0547 -0.2723  1.0597
  691MOL0     H93261   3.922   7.722   2.760 -1.0936 -0.5613  0.1145
  691MOL0     H93262   4.032   7.589   2.714  0.6290 -0.3923  0.4951
  691MOL0     H93263   4.073   7.759   2.566 -1.8870 -2.7684  1.2696
  691MOL0     H93264   4.081   7.879   2.710 -1.2087 -0.0622  2.0385
  691MOL0     H93265   4.055   7.788   3.689 -1.5345 -2.1068  1.0963
  691MOL0     H93266   3.890   7.735   3.847 -2.9199 -0.5216  1.5004
  691MOL0     H93267   3.238   7.708   3.826  2.3279  2.5246 -1.5674
  691MOL0     H93268   3.106   7.688   4.032 -0.2902  0.7878 -1.7259
  691MOL0     H93269   3.627   7.622   4.884 -0.0138  1.2856 -0.7224
  691MOL0     H93270   3.616   7.408   4.847  0.3453 -0.6583  0.7450
  691MOL0     H93271   3.425   6.939   4.808  0.7608  0.4506 -1.7406
  691MOL0     H93272   3.452   6.719   4.775 -0.0584 -1.0416  1.2263
  691MOL0     H93273   3.736   6.381   4.907  4.1846 -0.8653  1.5255
  691MOL0     H93274   3.787   6.517   5.014 -0.8980  2.0675  0.5361
  691MOL0     H93275   3.966   6.444   4.861  0.0503  1.5735  2.2486
  691MOL0     H93276   3.929   6.603   4.847 -0.6160  0.6137 -1.1866
  691MOL0     H93277   3.850   6.394   4.648 -1.1767  0.2621 -0.7004
  691MOL0     H93278   3.976   6.510   4.633  0.0317  1.4122  1.2372
  691MOL0     H93279   3.675   6.577   4.603  1.0997 -2.8794  1.0250
  691MOL0     H93280   3.783   6.699   4.647 -1.5894  0.0002 -0.2013
  691MOL0     H93281   3.930   6.595   4.250  0.7705  2.7301 -0.3543
  691MOL0     H93282   3.781   6.716   5.064  0.4308 -0.6919 -0.6166
  691MOL0     H93283   3.771   7.034   5.172 -2.0233 -0.0666 -0.4473
  691MOL0     H93284   3.882   6.909   5.144  0.1437  3.2616  1.4061
  691MOL0     H93285   3.861   7.030   5.016  0.4170 -2.4006 -2.4052
  692MOL0     O93286   2.091   9.788   7.258  0.0996  0.3132  1.4580
  692MOL0     C93287   2.035   9.872   7.324 -0.4901  0.2957  0.5389
  692MOL0     O93288   2.030  10.002   7.294  0.1684 -0.4770 -0.3877
  692MOL0     C93289   2.089  10.057   7.184 -0.8814  0.5221 -1.4753
  692MOL0     C93290   2.012  10.086   7.073 -0.1609 -0.0674 -1.0210
  692MOL0     C93291   2.072  10.151   6.969 -0.4373 -0.8345 -0.6649
  692MOL0     C93292   2.203  10.185   6.970 -0.1588 -0.5910  0.2527
  692MOL0     O93293   2.258  10.270   6.868 -0.4630  0.1466 -0.7481
  692MOL0     C93294   2.342  10.199   6.782  0.0932 -0.9722 -0.5114
  692MOL0     C93295   2.442  10.299   6.725 -0.3858 -0.8178 -0.2451
  692MOL0     C93296   2.367  10.402   6.633  0.1432 -0.0202  0.1787
  692MOL0     C93297   2.466  10.495   6.567 -0.7451  0.5783  0.5323
  692MOL0     C93298   2.411  10.593   6.450 -0.5880  0.8402  1.0512
  692MOL0     C93299   2.325  10.708   6.514 -0.0080 -0.2455  0.3412
  692MOL0     C93300   2.293  10.819   6.402 -0.0405  0.4409 -0.0190
  692MOL0     C93301   2.171  10.901   6.433 -0.9674  0.2354 -0.6838
  692MOL0     N93302   2.063  10.870   6.335 -0.6874 -0.8276  0.7946
  692MOL0     C93303   2.060  10.921   6.206  0.9216 -0.3046  0.3630
  692MOL0     C93304   1.947  10.864   6.155  0.2335  1.3399  0.2900
  692MOL0     C93305   1.871  10.885   6.029 -0.3953 -0.2823  0.1960
  692MOL0     C93306   1.881  10.753   5.935 -0.2900 -1.2012 -0.6225
  692MOL0     C93307   2.018  10.692   5.916 -2.0210  0.0246  0.1707
  692MOL0     C93308   2.013  10.587   5.809 -0.0276  0.6739  0.5590
  692MOL0     O93309   2.137  10.509   5.803 -0.8913 -0.9628  0.2947
  692MOL0     C93310   2.161  10.430   5.693  0.5923  0.3511 -0.0028
  692MOL0     C93311   2.098  10.420   5.573 -0.0122 -1.0589  0.6282
  692MOL0     C93312   2.141  10.341   5.465 -0.1923  0.1442  0.8043
  692MOL0     C93313   2.251  10.256   5.483 -0.1128 -0.4010 -0.2950
  692MOL0     C93314   2.307  10.166   5.379  0.9071 -0.0003 -0.2389
  692MOL0     O93315   2.214  10.130   5.279  0.0193 -0.4329  0.2058
  692MOL0     C93316   2.233  10.042   5.183  0.4560 -0.7120 -0.6386
  692MOL0     C93317   2.325   9.936   5.185  0.3419  0.0226 -0.0474
  692MOL0     C93318   2.331   9.837   5.084 -0.2431 -1.0254  2.0742
  692MOL0     C93319   2.243   9.848   4.980 -0.2704 -0.3821  0.4740
  692MOL0     O93320   2.238   9.759   4.871  0.3825  0.0030  0.2053
  692MOL0     C93321   2.244   9.617   4.895 -0.9778 -0.5779  0.6127
  692MOL0     C93322   2.120   9.540   4.934  0.6080  0.5541 -0.8795
  692MOL0     C93323   2.045   9.501   4.802 -0.1661 -0.0137 -0.3923
  692MOL0     C93324   2.079   9.363   4.745 -0.1269  0.3498 -0.1380
  692MOL0     C93325   1.966   9.297   4.668  0.1164  0.0154  0.2412
  692MOL0     C93326   1.895   9.384   4.567  0.6340 -0.9633  0.2539
  692MOL0     C93327   1.792   9.317   4.477 -1.5903 -0.4680  0.8484
  692MOL0     C93328   1.824   9.325   4.324 -0.1264  0.7778 -0.1020
  692MOL0    Cl93329   1.996   9.291   4.285  0.1426  0.2662  0.0663
  692MOL0     C93330   2.142   9.942   4.984  0.0315  0.8432  0.2146
  692MOL0     C93331   2.125  10.034   5.086 -0.0324  0.2281 -0.2865
  692MOL0     O93332   2.423  10.132   5.385  0.6097 -0.3718  0.5716
  692MOL0     C93333   2.313  10.255   5.610 -0.8876 -0.3105  0.2195
  692MOL0     C93334   2.263  10.334   5.714 -1.0212 -0.6786  0.1403
  692MOL0     N93335   1.903  10.769   6.251 -0.1131  0.6435  0.0001
  692MOL0     N93336   1.974  10.773   6.349 -0.8986 -0.2373 -0.4074
  692MOL0     C93337   2.281  10.160   7.085  0.2771 -0.3876 -0.3154
  692MOL0     C93338   2.218  10.095   7.195 -0.3985 -0.8335  0.4768
  692MOL0     C93339   1.946   9.821   7.432 -0.0195 -0.8785  0.1022
  692MOL0     C93340   1.816   9.872   7.445  0.2013 -0.3844  0.4780
  692MOL0     C93341   1.719   9.820   7.537 -0.3015 -0.2198  0.6109
  692MOL0     C93342   1.755   9.718   7.621 -0.8833 -0.4995  0.0653
  692MOL0     O93343   1.651   9.653   7.691 -0.2343 -0.1072 -0.5965
  692MOL0     C93344   1.681   9.584   7.807 -0.2453 -0.1180  0.1811
  692MOL0     C93345   1.724   9.678   7.912  0.8671  0.3237 -0.4473
  692MOL0     C93346   1.601   9.784   7.951 -0.4624 -0.2108 -0.3764
  692MOL0     C93347   1.644   9.897   8.044  0.5769  0.4669 -0.1753
  692MOL0     C93348   1.735   9.855   8.154  0.7766  0.1140  0.6869
  692MOL0     C93349   1.782   9.826   8.260  0.7166  0.0190  0.1864
  692MOL0     C93350   1.889   9.676   7.624 -0.3757  0.2405 -0.2638
  692MOL0     C93351   1.981   9.728   7.533 -0.1365  0.4116  0.8231
  692MOL0     C93352   2.120   9.686   7.555  0.1884 -0.0730 -0.3543
  692MOL0     H93353   1.906  10.065   7.070  0.0932 -1.3926 -4.4888
  692MOL0     H93354   1.998  10.193   6.901  1.3926  5.0300  0.4477
  692MOL0     H93355   2.399  10.129   6.843 -1.8427 -0.6706  1.8218
  692MOL0     H93356   2.277  10.159   6.704  1.2380 -2.3482 -0.7810
  692MOL0     H93357   2.524  10.239   6.684  1.5920 -1.8306  4.5044
  692MOL0     H93358   2.480  10.345   6.817  0.2606 -1.4455 -0.1905
  692MOL0     H93359   2.288  10.453   6.689 -0.2065  1.7102 -1.7921
  692MOL0     H93360   2.324  10.359   6.542 -1.7221  0.9768  0.5425
  692MOL0     H93361   2.513  10.554   6.646 -0.7839  1.4631 -0.0938
  692MOL0     H93362   2.545  10.433   6.522 -0.0118  1.4543  0.5723
  692MOL0     H93363   2.498  10.640   6.403 -2.5382  0.7656 -3.0667
  692MOL0     H93364   2.350  10.539   6.376  2.6826 -0.2975 -1.0375
  692MOL0     H93365   2.234  10.657   6.547  1.4753 -2.9111  0.5450
  692MOL0     H93366   2.385  10.744   6.598  2.7641 -0.0941 -1.5538
  692MOL0     H93367   2.274  10.767   6.307 -1.2801  0.7776  0.0326
  692MOL0     H93368   2.379  10.885   6.391  0.1129  0.3089  0.3786
  692MOL0     H93369   2.149  10.903   6.540  0.9211 -4.3011  0.0066
  692MOL0     H93370   2.201  11.002   6.402 -2.1260 -0.0211 -2.7999
  692MOL0     H93371   2.103  11.010   6.162  0.4981 -1.2395 -2.0842
  692MOL0     H93372   1.775  10.918   6.070 -0.6528  0.4604 -0.9795
  692MOL0     H93373   1.915  10.971   5.978  2.6962 -1.8819 -0.0689
  692MOL0     H93374   1.820  10.679   5.987 -2.5389  0.6459 -0.4480
  692MOL0     H93375   1.837  10.778   5.838 -1.1209  2.6161  0.5360
  692MOL0     H93376   2.062  10.645   6.004 -1.0777 -1.2468 -0.9401
  692MOL0     H93377   2.096  10.758   5.876 -1.2132 -0.8154  0.3281
  692MOL0     H93378   1.983  10.616   5.708  2.2755 -3.1456 -1.4578
  692MOL0     H93379   1.941  10.508   5.830  0.1395  0.6646  1.1118
  692MOL0     H93380   2.016  10.488   5.550  0.7693 -0.3553 -0.1461
  692MOL0     H93381   2.101  10.332   5.365 -0.8197  0.1650  1.0522
  692MOL0     H93382   2.393   9.919   5.268  0.7892 -0.3972 -0.4949
  692MOL0     H93383   2.407   9.760   5.084  0.6504 -0.2602 -0.2976
  692MOL0     H93384   2.298   9.580   4.807 -1.6667  1.4325 -0.7116
  692MOL0     H93385   2.304   9.589   4.982 -1.3188 -2.0870  0.4067
  692MOL0     H93386   2.142   9.447   4.987 -0.6793  2.3042  3.0937
  692MOL0     H93387   2.058   9.599   5.002  0.0925 -1.9923  1.0136
  692MOL0     H93388   1.940   9.509   4.834  0.2732  1.7577  0.7232
  692MOL0     H93389   2.065   9.576   4.725 -1.7823  1.5915  0.6772
  692MOL0     H93390   2.103   9.293   4.827 -3.3296  1.4887  1.9632
  692MOL0     H93391   2.170   9.382   4.688  1.2565 -0.8330  1.5321
  692MOL0     H93392   1.891   9.256   4.735  1.1871 -0.6042  1.0969
  692MOL0     H93393   2.003   9.207   4.619  0.1250  0.0722  0.1428
  692MOL0     H93394   1.843   9.470   4.609  0.2529 -1.2243  0.3276
  692MOL0     H93395   1.974   9.421   4.502  0.6250 -0.8025  0.3352
  692MOL0     H93396   1.695   9.369   4.481 -0.1464  2.6602 -0.8018
  692MOL0     H93397   1.771   9.219   4.518 -3.0971 -1.4234 -1.9091
  692MOL0     H93398   1.766   9.255   4.263  1.4621 -1.0837  0.4115
  692MOL0     H93399   1.795   9.423   4.284 -0.1852  1.0459  0.5789
  692MOL0     H93400   2.067   9.952   4.906  1.3705  3.8013 -0.8188
  692MOL0     H93401   2.041  10.102   5.092 -0.7234 -0.4992 -1.4404
  692MOL0     H93402   2.398  10.190   5.627 -0.6962 -0.8952 -2.5897
  692MOL0     H93403   2.310  10.325   5.812 -0.2513 -0.8585 -0.2376
  692MOL0     H93404   2.387  10.184   7.083 -0.0100  1.5172  2.5299
  692MOL0     H93405   2.269  10.074   7.288  0.5332  1.9980  0.6789
  692MOL0     H93406   1.776   9.938   7.369 -1.3902 -2.8873 -0.9943
  692MOL0     H93407   1.615   9.853   7.537 -0.2497 -0.0551  0.8444
  692MOL0     H93408   1.759   9.508   7.798 -0.3107 -0.3376  1.3329
  692MOL0     H93409   1.589   9.531   7.832 -2.4668  2.4461 -1.9458
  692MOL0     H93410   1.819   9.727   7.888  1.6301  0.6298  2.7418
  692MOL0     H93411   1.750   9.624   8.004 -0.1855  0.8935  0.2132
  692MOL0     H93412   1.511   9.737   7.992 -0.9653 -0.4865 -1.7223
  692MOL0     H93413   1.562   9.819   7.855 -2.8128 -2.3683 -0.3256
  692MOL0     H93414   1.680   9.970   7.970 -0.2185  0.3921 -0.6491
  692MOL0     H93415   1.553   9.944   8.083  0.3790 -0.2913  0.2887
  692MOL0     H93416   1.807   9.805   8.362 -3.0026 -0.4861  1.1651
  692MOL0     H93417   1.920   9.592   7.686 -0.1252 -2.1827 -3.4126
  692MOL0     H93418   2.136   9.619   7.639 -1.4998 -0.1718 -0.0745
  692MOL0     H93419   2.162   9.641   7.464  0.1136 -1.7596  0.4213
  692MOL0     H93420   2.177   9.777   7.574  1.5430 -0.2463 -3.0179
  693MOL0     O93421   5.797   2.608   6.220 -0.6762  0.1966  0.0940
  693MOL0     C93422   5.761   2.502   6.160  0.7697 -0.3587 -0.3061
  693MOL0     O93423   5.815   2.379   6.190  0.8546 -0.4324 -0.2012
  693MOL0     C93424   5.887   2.373   6.312 -0.0070 -0.5151 -1.4329
  693MOL0     C93425   6.031   2.385   6.328 -1.3939  0.1505  0.8156
  693MOL0     C93426   6.087   2.365   6.454  0.0656 -1.2179 -0.8167
  693MOL0     C93427   6.013   2.335   6.568 -0.0623  0.1179  0.0781
  693MOL0     O93428   6.093   2.326   6.679  0.1736 -0.6603 -1.5104
  693MOL0     C93429   6.060   2.235   6.781 -1.2014  0.1387 -0.0952
  693MOL0     C93430   6.176   2.226   6.886  0.8015 -0.1063 -0.2889
  693MOL0     C93431   6.155   2.099   6.968 -0.9653  0.5148 -1.0593
  693MOL0     C93432   6.278   2.087   7.065 -0.1299 -0.5313 -0.6451
  693MOL0     C93433   6.274   1.959   7.155  0.0865 -0.2537  0.2102
  693MOL0     C93434   6.404   1.969   7.230  0.2752 -0.3464  0.1932
  693MOL0     C93435   6.433   1.844   7.309 -0.1788  0.4128 -0.5578
  693MOL0     C93436   6.590   1.836   7.318 -0.4337  0.6036 -0.0437
  693MOL0     N93437   6.652   1.701   7.341  0.2860  0.2465  1.0081
  693MOL0     C93438   6.709   1.632   7.237 -0.6422  0.0372 -0.9183
  693MOL0     C93439   6.735   1.511   7.288  0.0381  0.0592 -0.4739
  693MOL0     C93440   6.792   1.385   7.222 -0.4144 -0.6167 -0.1103
  693MOL0     C93441   6.906   1.322   7.310 -0.2886  0.3189 -0.4833
  693MOL0     C93442   7.005   1.436   7.350  0.5983  1.0267  0.2117
  693MOL0     C93443   7.134   1.390   7.411 -1.0459 -0.4138 -0.0917
  693MOL0     O93444   7.220   1.498   7.435  0.2477 -0.0729 -0.4689
  693MOL0     C93445   7.313   1.494   7.523 -0.6892 -0.2987 -0.5785
  693MOL0     C93446   7.361   1.613   7.564  0.2825 -0.4760 -1.0734
  693MOL0     C93447   7.464   1.634   7.657 -0.7680  0.0677 -0.2127
  693MOL0     C93448   7.540   1.524   7.701 -0.0388 -0.3384  0.3174
  693MOL0     C93449   7.667   1.544   7.766 -0.3318  0.1723 -0.7117
  693MOL0     O93450   7.709   1.439   7.844  1.1133 -0.4208 -0.3545
  693MOL0     C93451   7.812   1.462   7.928  0.0766  0.2400 -0.5676
  693MOL0     C93452   7.791   1.520   8.055  0.0598 -0.0333  0.0288
  693MOL0     C93453   7.899   1.555   8.146 -0.2319 -0.0850 -0.8329
  693MOL0     C93454   8.026   1.522   8.106  0.5858 -0.4423  0.2067
  693MOL0     O93455   8.133   1.554   8.190 -0.1605 -0.8029 -1.1528
  693MOL0     C93456   8.239   1.465   8.209  0.1037 -0.5062  0.0957
  693MOL0     C93457   8.193   1.349   8.288  0.3600 -0.2766  0.1179
  693MOL0     C93458   8.291   1.225   8.289  0.4965  0.4407  0.5390
  693MOL0     C93459   8.408   1.243   8.380  0.0522 -0.0814  0.4467
  693MOL0     C93460   8.512   1.130   8.376 -0.5876  0.3442  0.4200
  693MOL0     C93461   8.616   1.149   8.479 -0.2456 -0.1161 -0.4848
  693MOL0     C93462   8.722   1.258   8.440 -0.0685 -0.1100 -0.2018
  693MOL0     C93463   8.847   1.246   8.524 -0.1187  0.5482  0.4016
  693MOL0    Cl93464   8.804   1.237   8.704  0.2533  0.0249  0.2697
  693MOL0     C93465   8.042   1.448   7.987 -0.8310  0.6352  0.3186
  693MOL0     C93466   7.940   1.427   7.898 -0.6553 -0.4793  0.0202
  693MOL0     O93467   7.724   1.652   7.743 -1.0551 -0.2466  0.2068
  693MOL0     C93468   7.501   1.398   7.653  0.2528  0.0771  0.1851
  693MOL0     C93469   7.382   1.382   7.575  0.0401 -0.2373 -0.0603
  693MOL0     N93470   6.683   1.507   7.426 -0.4177 -0.1960 -0.4266
  693MOL0     N93471   6.627   1.622   7.446  0.6050 -0.3558  0.4641
  693MOL0     C93472   5.872   2.328   6.560 -0.6710 -0.0779 -1.6151
  693MOL0     C93473   5.807   2.354   6.429  0.2270 -0.1252 -0.1476
  693MOL0     C93474   5.687   2.512   6.029  0.4035  0.4669  1.3290
  693MOL0     C93475   5.711   2.413   5.927 -0.9480 -0.9590 -0.3649
  693MOL0     C93476   5.653   2.417   5.805  0.0881  0.4609  0.2216
  693MOL0     C93477   5.558   2.515   5.779 -0.7878  0.7137  0.3974
  693MOL0     O93478   5.502   2.506   5.653  0.4398  0.2031 -0.0483
  693MOL0     C93479   5.378   2.573   5.624  0.7617 -1.2488 -0.8516
  693MOL0     C93480   5.298   2.509   5.507  0.4804  0.4232  0.0685
  693MOL0     C93481   5.267   2.366   5.540 -0.3410  0.1751 -0.3923
  693MOL0     C93482   5.189   2.289   5.428 -0.0017 -0.2449 -0.1625
  693MOL0     C93483   5.269   2.253   5.314 -0.0052 -0.0258  0.3398
  693MOL0     C93484   5.356   2.235   5.228 -0.9593  0.3340 -0.6408
  693MOL0     C93485   5.533   2.608   5.871 -0.2469  0.6719 -0.4454
  693MOL0     C93486   5.599   2.613   5.996  1.4379 -0.1845 -0.1318
  693MOL0     C93487   5.552   2.716   6.101 -0.0656  0.6407  0.4255
  693MOL0     H93488   6.090   2.381   6.237 -2.4855 -1.7653  0.1214
  693MOL0     H93489   6.194   2.374   6.466 -0.1115 -1.9699  2.2408
  693MOL0     H93490   5.961   2.244   6.826 -1.8003 -0.2120 -1.3136
  693MOL0     H93491   6.051   2.134   6.739 -0.9840  0.8342 -1.8616
  693MOL0     H93492   6.158   2.316   6.945 -0.6133 -1.2723  1.1370
  693MOL0     H93493   6.279   2.227   6.850  1.2143  3.6648  0.5876
  693MOL0     H93494   6.152   2.005   6.913  2.6419  0.6955 -1.8118
  693MOL0     H93495   6.077   2.116   7.043 -1.1444  0.8876 -1.3266
  693MOL0     H93496   6.379   2.093   7.023  0.4475  1.1011  0.8486
  693MOL0     H93497   6.278   2.168   7.138  0.3869 -0.2767 -0.9248
  693MOL0     H93498   6.181   1.955   7.212 -1.6131  0.2186 -2.3300
  693MOL0     H93499   6.273   1.868   7.094 -0.1847 -1.1446  1.5050
  693MOL0     H93500   6.480   1.996   7.156  0.5184  1.7613  1.1462
  693MOL0     H93501   6.415   2.056   7.295  1.3272 -2.6791  3.3759
  693MOL0     H93502   6.402   1.747   7.269  3.4353 -0.5628 -1.3199
  693MOL0     H93503   6.398   1.861   7.411  0.5704  1.5727 -0.4782
  693MOL0     H93504   6.622   1.860   7.216  0.8462  0.9704  0.4254
  693MOL0     H93505   6.623   1.903   7.398  1.8132  3.0112 -2.7538
  693MOL0     H93506   6.716   1.659   7.132 -4.9332 -2.5799 -2.1514
  693MOL0     H93507   6.702   1.324   7.221 -1.7031  0.9987  3.0150
  693MOL0     H93508   6.825   1.399   7.118  1.0243 -1.0804  0.2506
  693MOL0     H93509   6.851   1.281   7.395 -2.0928  2.6607 -0.4296
  693MOL0     H93510   6.957   1.239   7.259  1.4901 -0.1411  1.8816
  693MOL0     H93511   6.962   1.503   7.425  0.0935 -2.0036  2.8243
  693MOL0     H93512   7.014   1.493   7.257  0.9398 -0.8795 -0.9900
  693MOL0     H93513   7.192   1.321   7.350  0.4646 -1.5936  2.5062
  693MOL0     H93514   7.112   1.332   7.501 -0.5127 -2.0753 -0.9905
  693MOL0     H93515   7.311   1.698   7.518  0.5937  0.2668 -0.0732
  693MOL0     H93516   7.492   1.736   7.683  0.3367 -0.1437 -0.5261
  693MOL0     H93517   7.688   1.544   8.077  0.2867  2.9079 -1.5976
  693MOL0     H93518   7.881   1.618   8.232  2.9081  0.7427 -0.6422
  693MOL0     H93519   8.282   1.430   8.114 -0.7768  0.5669 -0.7329
  693MOL0     H93520   8.320   1.519   8.259 -0.1150 -1.1608  1.1595
  693MOL0     H93521   8.166   1.382   8.389 -3.7914  3.6892 -1.9357
  693MOL0     H93522   8.098   1.314   8.246  0.1407 -0.3976  0.7068
  693MOL0     H93523   8.239   1.135   8.323 -0.3844  0.5466 -0.4487
  693MOL0     H93524   8.317   1.206   8.184 -2.3547  0.6463 -0.3155
  693MOL0     H93525   8.353   1.243   8.475 -1.9541 -0.3574 -0.6595
  693MOL0     H93526   8.459   1.337   8.356 -2.4879  0.7689 -2.3316
  693MOL0     H93527   8.567   1.112   8.283  1.3235 -0.8412  1.7099
  693MOL0     H93528   8.459   1.038   8.402  0.0735 -0.9744 -2.4385
  693MOL0     H93529   8.567   1.159   8.576  0.0697 -2.4310 -0.0287
  693MOL0     H93530   8.682   1.062   8.481 -0.4975 -0.3171  1.3583
  693MOL0     H93531   8.667   1.352   8.455 -2.1472 -1.4231  1.0557
  693MOL0     H93532   8.751   1.247   8.336  0.4304  3.4936 -0.5796
  693MOL0     H93533   8.907   1.162   8.488 -0.8107  0.8507 -1.6425
  693MOL0     H93534   8.913   1.332   8.513 -3.1196  2.8840 -1.0267
  693MOL0     H93535   8.138   1.407   7.958 -1.9798 -1.7338 -0.4148
  693MOL0     H93536   7.954   1.369   7.807 -1.1511 -3.1419  1.5159
  693MOL0     H93537   7.568   1.318   7.681 -0.8930 -0.5909  1.0969
  693MOL0     H93538   7.338   1.283   7.566  2.7585 -1.6872  1.4959
  693MOL0     H93539   5.826   2.300   6.654  1.1813  1.3246 -0.2159
  693MOL0     H93540   5.698   2.353   6.425  0.0972  1.6564  1.4956
  693MOL0     H93541   5.778   2.330   5.947  0.8803 -0.3164 -3.2223
  693MOL0     H93542   5.655   2.340   5.729 -0.5497 -0.8904  1.5125
  693MOL0     H93543   5.395   2.681   5.615 -2.1183 -0.3603  2.2421
  693MOL0     H93544   5.301   2.567   5.702 -0.5074 -0.4552 -1.9936
  693MOL0     H93545   5.362   2.519   5.418  0.4017  2.9037  0.2344
  693MOL0     H93546   5.208   2.568   5.487 -2.4943 -4.3923 -2.7935
  693MOL0     H93547   5.218   2.371   5.638  0.0494 -1.5797 -0.0760
  693MOL0     H93548   5.365   2.321   5.558  2.4390  4.8019 -2.0622
  693MOL0     H93549   5.138   2.205   5.476  0.3497  0.3928  1.4232
  693MOL0     H93550   5.114   2.358   5.390  0.3517 -0.5450 -1.4440
  693MOL0     H93551   5.418   2.228   5.141 -4.9153 -0.2310 -3.7501
  693MOL0     H93552   5.468   2.694   5.857 -3.3346 -1.1461  1.5178
  693MOL0     H93553   5.475   2.779   6.057  0.5816  2.5181  1.8447
  693MOL0     H93554   5.514   2.661   6.188  1.4542 -0.8817  0.1769
  693MOL0     H93555   5.638   2.774   6.135  0.9122 -0.6123  0.1902
  694MOL0     O93556   2.416  11.242   7.717  1.4792  0.2040 -0.1920
  694MOL0     C93557   2.331  11.173   7.668 -0.2402 -0.3197 -0.3908
  694MOL0     O93558   2.360  11.059   7.583  0.1420  0.0118 -0.3890
  694MOL0     C93559   2.483  11.052   7.522  0.1769 -0.9179 -0.0059
  694MOL0     C93560   2.525  11.142   7.422  0.0123  0.0266  0.1112
  694MOL0     C93561   2.644  11.125   7.355 -0.4748  0.2997  0.0209
  694MOL0     C93562   2.725  11.005   7.380  0.5199 -0.1245  0.2681
  694MOL0     O93563   2.834  10.965   7.316 -0.3727  1.1348  0.3689
  694MOL0     C93564   2.860  10.989   7.183  0.0633  0.1650 -0.2475
  694MOL0     C93565   2.930  10.876   7.127 -0.2757 -0.2679  0.9571
  694MOL0     C93566   2.841  10.745   7.123 -0.6651  0.9189  0.5211
  694MOL0     C93567   2.932  10.623   7.163  0.0715  0.7841  0.7750
  694MOL0     C93568   3.057  10.615   7.078  0.5822  0.3077  0.0857
  694MOL0     C93569   3.133  10.486   7.114 -0.6512 -0.4207 -0.5944
  694MOL0     C93570   3.267  10.480   7.039 -0.1525  0.8773 -1.1491
  694MOL0     C93571   3.331  10.334   7.059  0.6491  0.0098  0.4767
  694MOL0     N93572   3.476  10.323   7.008  0.7930 -0.6943  0.2415
  694MOL0     C93573   3.585  10.373   7.078  0.0185  0.1107 -1.2295
  694MOL0     C93574   3.694  10.337   6.997  0.9129 -1.1244  0.3603
  694MOL0     C93575   3.843  10.372   7.016 -0.0072 -0.1587  0.9044
  694MOL0     C93576   3.882  10.438   7.150  0.5120 -0.0981  0.0542
  694MOL0     C93577   4.034  10.447   7.171  0.5132 -0.5579 -0.5973
  694MOL0     C93578   4.087  10.542   7.068 -0.1273 -0.5946  0.0682
  694MOL0     O93579   4.222  10.585   7.110 -0.8077  0.2306  0.5390
  694MOL0     C93580   4.298  10.634   7.008 -0.1582  0.4147  1.2948
  694MOL0     C93581   4.255  10.674   6.881  0.8507 -0.8716  0.2231
  694MOL0     C93582   4.343  10.744   6.799 -0.5022  0.2517  1.4682
  694MOL0     C93583   4.481  10.757   6.827  1.2814  1.1826  0.0101
  694MOL0     C93584   4.563  10.857   6.754 -0.7729  0.7248 -0.1760
  694MOL0     O93585   4.690  10.874   6.784 -0.4819 -0.1281  0.1417
  694MOL0     C93586   4.770  10.939   6.692  0.1195  0.4631 -0.3114
  694MOL0     C93587   4.807  10.876   6.578  0.6605 -0.1772 -0.0285
  694MOL0     C93588   4.912  10.938   6.502  0.5576 -0.1975  0.0459
  694MOL0     C93589   4.988  11.047   6.544  0.2785  0.4355 -0.0493
  694MOL0     O93590   5.109  11.085   6.485 -0.7039 -0.1138 -0.2448
  694MOL0     C93591   5.162  11.217   6.505  0.1238 -0.3117  0.7398
  694MOL0     C93592   5.282  11.212   6.598 -0.3019  0.4143 -0.6744
  694MOL0     C93593   5.337  11.351   6.612 -1.3750 -0.7230  0.2934
  694MOL0     C93594   5.266  11.440   6.701  0.3773 -0.1194 -0.6555
  694MOL0     C93595   5.326  11.584   6.685 -0.4648 -1.1579 -1.4144
  694MOL0     C93596   5.318  11.664   6.821 -0.0525  0.2585  0.1501
  694MOL0     C93597   5.346  11.813   6.799  0.4971  0.1076 -0.0714
  694MOL0     C93598   5.482  11.843   6.750  1.0216 -0.3834 -0.3096
  694MOL0    Cl93599   5.461  11.985   6.640 -0.2433  0.4020 -0.1695
  694MOL0     C93600   4.945  11.112   6.662  0.4954  0.3435 -0.1339
  694MOL0     C93601   4.848  11.047   6.738  0.1795 -0.7544 -0.3749
  694MOL0     O93602   4.509  10.907   6.662  0.0949 -0.4659  0.2731
  694MOL0     C93603   4.528  10.696   6.943 -0.2044 -0.3159 -0.9067
  694MOL0     C93604   4.437  10.634   7.036  0.5565  0.0073  0.5314
  694MOL0     N93605   3.652  10.269   6.881  0.3410 -0.3076 -0.9673
  694MOL0     N93606   3.524  10.256   6.899  0.5931  0.0938 -0.0117
  694MOL0     C93607   2.681  10.914   7.475  0.8845 -0.1092 -0.1127
  694MOL0     C93608   2.553  10.939   7.542 -0.4655 -0.2140 -0.7018
  694MOL0     C93609   2.199  11.195   7.711  1.3196  0.6547 -0.0264
  694MOL0     C93610   2.152  11.133   7.829 -0.2248 -0.8820 -0.6179
  694MOL0     C93611   2.017  11.138   7.858  0.5234  0.5889  0.0923
  694MOL0     C93612   1.924  11.176   7.762 -0.6453 -0.0811 -0.2051
  694MOL0     O93613   1.787  11.176   7.778  0.1533  0.0642 -0.4937
  694MOL0     C93614   1.733  11.192   7.911  0.3359  0.9655  1.4008
  694MOL0     C93615   1.755  11.331   7.974 -0.9589  0.0401  0.3980
  694MOL0     C93616   1.694  11.337   8.108  0.1531  0.0917  0.2699
  694MOL0     C93617   1.785  11.330   8.232 -0.2485  0.1815  0.5590
  694MOL0     C93618   1.881  11.218   8.233 -0.0425 -0.1180  0.1337
  694MOL0     C93619   1.957  11.131   8.216  0.4756  0.4177  0.1229
  694MOL0     C93620   1.974  11.218   7.641  0.3227  0.3676  0.8302
  694MOL0     C93621   2.108  11.233   7.613 -0.1327  0.4552  0.0254
  694MOL0     C93622   2.155  11.274   7.471 -0.2236  0.3507  0.4436
  694MOL0     H93623   2.446  11.214   7.400 -1.6288 -2.5559 -3.6390
  694MOL0     H93624   2.667  11.190   7.271 -2.1381 -0.4141 -1.0316
  694MOL0     H93625   2.763  11.014   7.138 -0.5235  0.8666  1.3214
  694MOL0     H93626   2.920  11.080   7.169 -1.8311  1.4267 -0.5995
  694MOL0     H93627   3.012  10.847   7.194 -0.0166 -0.8195  0.4140
  694MOL0     H93628   2.969  10.892   7.026 -1.3747  0.6608  0.6628
  694MOL0     H93629   2.788  10.726   7.029  0.6263 -2.1021  0.2997
  694MOL0     H93630   2.756  10.747   7.191  0.4609 -3.1682  2.3278
  694MOL0     H93631   2.943  10.628   7.272  1.8262  2.4163  0.5925
  694MOL0     H93632   2.874  10.534   7.140  0.2542  1.1113 -1.0642
  694MOL0     H93633   3.034  10.632   6.973 -1.0950  4.9059  0.9564
  694MOL0     H93634   3.119  10.704   7.094 -0.7180  1.1892  0.4253
  694MOL0     H93635   3.157  10.488   7.221  1.5598 -0.3879 -1.0420
  694MOL0     H93636   3.071  10.401   7.085 -0.6943  0.3870 -3.1062
  694MOL0     H93637   3.337  10.554   7.080 -0.8982  2.3474 -2.4187
  694MOL0     H93638   3.248  10.502   6.933 -1.6576 -0.1786 -1.1179
  694MOL0     H93639   3.331  10.306   7.164 -2.5274 -1.8376  0.1147
  694MOL0     H93640   3.257  10.261   7.024  2.3381 -0.5582 -2.2337
  694MOL0     H93641   3.579  10.414   7.178 -0.0422  2.2280 -2.0453
  694MOL0     H93642   3.901  10.279   7.008 -0.4750 -0.5050  1.4863
  694MOL0     H93643   3.881  10.430   6.931  2.8505 -1.0540  1.4635
  694MOL0     H93644   3.840  10.539   7.155 -1.2990 -0.7352 -1.2856
  694MOL0     H93645   3.834  10.383   7.232 -0.6033  0.3528 -0.2811
  694MOL0     H93646   4.083  10.350   7.156  1.0761 -0.4068  0.1921
  694MOL0     H93647   4.071  10.467   7.272  2.8985 -5.0028 -0.2998
  694MOL0     H93648   4.019  10.627   7.060 -0.2634 -0.8718 -3.5907
  694MOL0     H93649   4.084  10.500   6.967 -3.7086 -0.0702 -0.1530
  694MOL0     H93650   4.149  10.675   6.858  0.7578  0.1544  0.6351
  694MOL0     H93651   4.301  10.794   6.712  2.1941 -0.0399 -0.0899
  694MOL0     H93652   4.760  10.786   6.540  1.7808 -0.4577 -0.7879
  694MOL0     H93653   4.954  10.894   6.412  2.0219 -0.0115  0.6011
  694MOL0     H93654   5.205  11.241   6.407 -1.2522 -3.0190 -0.6302
  694MOL0     H93655   5.089  11.290   6.540 -3.2176 -1.3571 -3.2642
  694MOL0     H93656   5.247  11.177   6.696  0.3115  1.7151  0.0427
  694MOL0     H93657   5.345  11.137   6.550  0.7008  1.0448 -0.3857
  694MOL0     H93658   5.438  11.351   6.652 -1.9632  2.6305  2.0768
  694MOL0     H93659   5.353  11.394   6.513  0.2252  2.0255  1.6500
  694MOL0     H93660   5.289  11.420   6.806 -1.0430  0.3989 -0.2142
  694MOL0     H93661   5.157  11.451   6.693  0.5321  1.6796 -0.7586
  694MOL0     H93662   5.276  11.633   6.601 -1.3302  0.5541  0.0275
  694MOL0     H93663   5.434  11.574   6.679  0.2693  2.2229  1.9284
  694MOL0     H93664   5.217  11.648   6.860 -1.3712 -0.3126 -3.2338
  694MOL0     H93665   5.393  11.628   6.893  1.1606  0.7332 -0.8348
  694MOL0     H93666   5.354  11.860   6.898  2.4618 -3.3121  1.5805
  694MOL0     H93667   5.263  11.861   6.746  0.3041 -0.8568 -0.6641
  694MOL0     H93668   5.550  11.864   6.833  3.1825 -0.6758 -1.9109
  694MOL0     H93669   5.513  11.764   6.680  2.1246 -0.4921  0.2865
  694MOL0     H93670   4.999  11.196   6.706 -1.0290  1.0193  0.5142
  694MOL0     H93671   4.817  11.059   6.841 -3.5741 -0.7938 -1.3618
  694MOL0     H93672   4.630  10.692   6.979 -0.6990  2.8963  1.2664
  694MOL0     H93673   4.485  10.605   7.129 -0.2750 -0.3953  0.8409
  694MOL0     H93674   2.744  10.828   7.496  1.4687 -0.0983 -1.6634
  694MOL0     H93675   2.517  10.857   7.604 -0.6387 -0.0540 -0.5884
  694MOL0     H93676   2.223  11.080   7.890  3.7772 -1.0734 -4.8958
  694MOL0     H93677   1.973  11.094   7.947 -2.2086  1.6127 -0.6301
  694MOL0     H93678   1.787  11.122   7.975  1.0358 -0.8680 -1.0136
  694MOL0     H93679   1.627  11.166   7.909  0.4878  0.1992 -1.1143
  694MOL0     H93680   1.700  11.403   7.912 -2.9688 -1.9863 -0.3236
  694MOL0     H93681   1.864  11.346   7.977 -0.0908 -4.6901  1.0665
  694MOL0     H93682   1.624  11.253   8.116  0.6094 -0.2401  0.9109
  694MOL0     H93683   1.632  11.427   8.113 -0.7830 -0.4923 -0.4369
  694MOL0     H93684   1.865  11.401   8.257  1.1837 -1.4254  0.7399
  694MOL0     H93685   1.726  11.312   8.322  0.4692 -0.8753  0.8362
  694MOL0     H93686   2.028  11.050   8.211  0.6404  0.3360  2.4024
  694MOL0     H93687   1.909  11.224   7.554  1.6421 -2.7445 -0.5420
  694MOL0     H93688   2.227  11.356   7.461  2.2465 -1.9823 -4.0423
  694MOL0     H93689   2.192  11.196   7.404 -3.0460 -0.0803 -0.7473
  694MOL0     H93690   2.067  11.309   7.416 -0.7697 -0.1198  1.0090
  695MOL0     O93691   8.560   8.550   4.019 -0.2455 -0.4095  0.2144
  695MOL0     C93692   8.592   8.450   3.958 -0.2909  1.0317  1.1316
  695MOL0     O93693   8.534   8.322   3.981 -0.0289 -0.6311  0.1527
  695MOL0     C93694   8.433   8.326   4.070  1.3121  0.0863  0.1853
  695MOL0     C93695   8.445   8.307   4.209  0.9444  0.9144  0.4090
  695MOL0     C93696   8.323   8.289   4.281  0.2838  0.1567 -0.3102
  695MOL0     C93697   8.194   8.308   4.222 -0.6459  0.1781 -0.6244
  695MOL0     O93698   8.084   8.299   4.305 -0.1086 -0.5969  0.6468
  695MOL0     C93699   7.952   8.310   4.245 -0.4942  0.6411 -0.5903
  695MOL0     C93700   7.852   8.322   4.351  0.6192  0.3063 -0.8934
  695MOL0     C93701   7.887   8.443   4.448  0.3279  0.1527 -0.3904
  695MOL0     C93702   7.780   8.465   4.558  0.3814  0.4739  0.6195
  695MOL0     C93703   7.816   8.578   4.654  0.1119 -0.1396 -0.4838
  695MOL0     C93704   7.859   8.700   4.573 -0.6809 -0.9838  0.4029
  695MOL0     C93705   7.851   8.827   4.666  0.1454  0.5859 -0.5081
  695MOL0     C93706   7.905   8.963   4.614  0.2585  0.9658 -0.2006
  695MOL0     N93707   7.811   9.031   4.528 -0.6844 -0.0934 -0.2467
  695MOL0     C93708   7.693   9.086   4.567 -0.3468 -0.3181 -0.9397
  695MOL0     C93709   7.633   9.126   4.452 -1.2697 -0.5354  0.4394
  695MOL0     C93710   7.513   9.212   4.443 -0.8749  0.3236 -0.1864
  695MOL0     C93711   7.397   9.115   4.452 -0.0846  1.0362  0.5310
  695MOL0     C93712   7.367   9.063   4.309  0.3081 -0.9283  0.4357
  695MOL0     C93713   7.270   8.948   4.318  0.6076 -0.4769 -0.6369
  695MOL0     O93714   7.190   8.929   4.196 -0.1059  0.2596 -0.0210
  695MOL0     C93715   7.097   9.035   4.169 -0.3426  0.0780 -0.3508
  695MOL0     C93716   7.031   9.053   4.047  0.0038  0.1038  0.6449
  695MOL0     C93717   6.941   9.157   4.018  0.4746 -0.3678 -0.4432
  695MOL0     C93718   6.918   9.257   4.110 -0.2054 -0.9110  0.0868
  695MOL0     C93719   6.831   9.375   4.084  0.8883 -0.4105  0.1698
  695MOL0     O93720   6.775   9.434   4.196 -0.1991 -0.8975 -0.5493
  695MOL0     C93721   6.694   9.552   4.182  0.2594 -0.4400 -0.4537
  695MOL0     C93722   6.574   9.561   4.254  0.2223 -0.9598 -1.6002
  695MOL0     C93723   6.497   9.676   4.258  0.0427 -0.1441  0.4116
  695MOL0     C93724   6.534   9.779   4.176 -1.3625  0.5580 -0.2813
  695MOL0     O93725   6.449   9.884   4.202 -1.5332 -0.1249 -0.3426
  695MOL0     C93726   6.517  10.008   4.208 -0.2025 -0.5703  0.1623
  695MOL0     C93727   6.423  10.131   4.234  0.3678  0.6589  0.3810
  695MOL0     C93728   6.377  10.115   4.375 -0.0635 -0.1945 -0.7621
  695MOL0     C93729   6.337  10.252   4.438 -0.3952  1.1814 -0.1657
  695MOL0     C93730   6.454  10.310   4.515  0.3663 -0.0974  0.1337
  695MOL0     C93731   6.418  10.382   4.656  0.5865 -0.0793  0.3550
  695MOL0     C93732   6.318  10.508   4.630  0.4396 -0.9651  0.4198
  695MOL0     C93733   6.222  10.534   4.746 -1.0097 -0.4496 -0.4218
  695MOL0    Cl93734   6.105  10.407   4.778  0.4118 -0.0810 -0.5643
  695MOL0     C93735   6.653   9.773   4.103  0.3661 -0.2355  0.3182
  695MOL0     C93736   6.723   9.657   4.090 -0.2844 -0.5821 -0.1071
  695MOL0     O93737   6.805   9.401   3.971 -0.1775 -0.3470  0.7512
  695MOL0     C93738   6.979   9.240   4.232 -1.0545 -0.7699  0.1062
  695MOL0     C93739   7.067   9.135   4.256  0.2999 -0.0161  0.5084
  695MOL0     N93740   7.710   9.084   4.345  0.0453 -0.4007 -0.5487
  695MOL0     N93741   7.818   9.030   4.392  1.2406 -0.7718 -0.7370
  695MOL0     C93742   8.195   8.335   4.088 -0.8478 -0.7465 -0.2357
  695MOL0     C93743   8.310   8.351   4.011 -0.1390  0.4586  0.1078
  695MOL0     C93744   8.718   8.461   3.887  0.4167 -0.6740  0.5964
  695MOL0     C93745   8.804   8.355   3.887 -0.6754 -0.3793  0.4779
  695MOL0     C93746   8.930   8.359   3.830  0.0838 -0.1603  0.4963
  695MOL0     C93747   8.974   8.461   3.749  0.5172 -0.6039 -0.0565
  695MOL0     O93748   9.094   8.476   3.676  0.4374  0.4421 -0.1114
  695MOL0     C93749   9.179   8.362   3.676  0.0050 -0.5436  0.5585
  695MOL0     C93750   9.301   8.396   3.580 -0.5387  0.4059 -0.3419
  695MOL0     C93751   9.273   8.400   3.427  0.1139 -0.0921  0.7087
  695MOL0     C93752   9.265   8.270   3.347 -0.1945  0.8130 -0.2908
  695MOL0     C93753   9.237   8.310   3.207 -0.1974 -0.2011  0.6809
  695MOL0     C93754   9.210   8.343   3.093  0.9358 -0.0525 -0.6412
  695MOL0     C93755   8.884   8.570   3.747  0.0838  0.8265  0.4055
  695MOL0     C93756   8.761   8.566   3.805  0.0784  0.4201 -0.0102
  695MOL0     C93757   8.679   8.684   3.785 -0.0680  0.0024 -1.0532
  695MOL0     H93758   8.541   8.299   4.259 -1.6222  2.2128  6.3942
  695MOL0     H93759   8.323   8.273   4.389  0.9162  0.1812 -0.3014
  695MOL0     H93760   7.954   8.391   4.171  1.6783  0.2248 -1.0735
  695MOL0     H93761   7.933   8.218   4.190  2.1041 -2.2857  2.8466
  695MOL0     H93762   7.832   8.230   4.405 -0.1837  0.5284 -0.8063
  695MOL0     H93763   7.759   8.347   4.299 -2.0957 -4.0400  1.3255
  695MOL0     H93764   7.894   8.538   4.394  0.3813  0.4023  0.0501
  695MOL0     H93765   7.981   8.424   4.499 -0.0012  0.1269  0.2189
  695MOL0     H93766   7.686   8.483   4.506  1.7978 -1.8199 -3.1573
  695MOL0     H93767   7.765   8.386   4.633 -3.7076 -0.4869 -0.9716
  695MOL0     H93768   7.736   8.611   4.722  0.7195  0.6565 -0.1316
  695MOL0     H93769   7.898   8.547   4.720  0.2116  2.9594  1.0897
  695MOL0     H93770   7.965   8.687   4.549  0.8557  7.3582 -0.0652
  695MOL0     H93771   7.809   8.726   4.480  1.7693  2.1494 -0.2190
  695MOL0     H93772   7.910   8.805   4.755 -0.8125 -0.9199 -0.2144
  695MOL0     H93773   7.749   8.836   4.704 -0.0956  1.4583 -1.3113
  695MOL0     H93774   7.928   9.026   4.701 -2.6672 -1.6004  2.7160
  695MOL0     H93775   7.992   8.936   4.553 -0.4979  0.8706 -1.2535
  695MOL0     H93776   7.657   9.096   4.668  0.1008 -0.7634 -0.7329
  695MOL0     H93777   7.493   9.282   4.525 -2.4568 -1.7928  1.3666
  695MOL0     H93778   7.506   9.275   4.354 -0.9769 -0.8326 -1.0282
  695MOL0     H93779   7.424   9.025   4.508  1.5036  1.3256  0.2686
  695MOL0     H93780   7.306   9.157   4.496 -1.2431 -0.0029 -0.7803
  695MOL0     H93781   7.461   9.035   4.260  0.4437 -0.3618  0.3568
  695MOL0     H93782   7.334   9.145   4.244  0.3018 -0.7135  0.7066
  695MOL0     H93783   7.194   8.954   4.396  1.4800  1.7683  0.0917
  695MOL0     H93784   7.320   8.851   4.332  0.8986  0.1371  4.1747
  695MOL0     H93785   7.042   8.959   3.993  0.9071  0.4732  0.1564
  695MOL0     H93786   6.890   9.164   3.923 -2.2421 -2.3348  0.7402
  695MOL0     H93787   6.533   9.482   4.316 -0.6383  2.6210  2.8942
  695MOL0     H93788   6.400   9.681   4.306 -1.5265  0.0928 -2.5212
  695MOL0     H93789   6.592   9.993   4.285  3.1251  0.2916 -2.6559
  695MOL0     H93790   6.575  10.025   4.117  1.8395 -1.0740  1.3199
  695MOL0     H93791   6.472  10.223   4.203  2.9318  0.1061  2.4206
  695MOL0     H93792   6.335  10.133   4.169  0.5866  0.7021  0.0889
  695MOL0     H93793   6.301  10.036   4.373  0.2185 -0.4788 -0.4879
  695MOL0     H93794   6.454  10.063   4.433  1.4008 -0.0782 -2.5003
  695MOL0     H93795   6.261  10.246   4.516 -1.1039  1.1696 -0.8462
  695MOL0     H93796   6.294  10.321   4.364  0.0079  1.6047 -0.0126
  695MOL0     H93797   6.493  10.388   4.449  0.4858 -0.9800 -0.8705
  695MOL0     H93798   6.541  10.244   4.531 -1.5137 -1.9419  4.6012
  695MOL0     H93799   6.375  10.300   4.714 -0.0216 -1.9628 -2.5080
  695MOL0     H93800   6.509  10.425   4.698  0.0636  2.0531 -0.5581
  695MOL0     H93801   6.256  10.494   4.541  0.6208  2.8437 -0.4413
  695MOL0     H93802   6.369  10.601   4.607 -2.1680  0.7038  0.9782
  695MOL0     H93803   6.274  10.561   4.838 -4.6585 -0.2751  1.7701
  695MOL0     H93804   6.169  10.625   4.718  0.5033  1.1677  1.7182
  695MOL0     H93805   6.684   9.854   4.037 -3.6995  1.3317  0.0459
  695MOL0     H93806   6.809   9.662   4.023  0.3387  3.0903  0.7865
  695MOL0     H93807   6.978   9.321   4.304 -0.8928 -1.5025  0.9635
  695MOL0     H93808   7.127   9.141   4.347  1.9062 -1.2297 -0.4276
  695MOL0     H93809   8.109   8.335   4.022 -0.0114 -2.6148 -1.4421
  695MOL0     H93810   8.317   8.401   3.915  2.1849 -2.5198 -1.4386
  695MOL0     H93811   8.780   8.260   3.934 -0.0430 -0.7144  0.1478
  695MOL0     H93812   8.986   8.267   3.843  1.2233  0.0785 -2.1276
  695MOL0     H93813   9.124   8.278   3.635 -0.8422 -0.0315  0.6310
  695MOL0     H93814   9.221   8.333   3.773  2.7963 -1.8698 -0.9316
  695MOL0     H93815   9.388   8.331   3.594 -1.1616 -0.4299 -0.3171
  695MOL0     H93816   9.345   8.494   3.603 -0.4905  0.4378 -0.5738
  695MOL0     H93817   9.353   8.462   3.386 -0.8267  0.6609 -0.0088
  695MOL0     H93818   9.171   8.439   3.419 -0.1010 -0.3871  1.8142
  695MOL0     H93819   9.363   8.222   3.349  0.8437  2.7761  2.0555
  695MOL0     H93820   9.183   8.206   3.381 -1.5863  1.6898 -1.8901
  695MOL0     H93821   9.160   8.371   3.002  2.8607  0.9402 -1.4545
  695MOL0     H93822   8.923   8.650   3.685  2.9104  0.5111  1.6146
  695MOL0     H93823   8.573   8.667   3.762 -1.0484  0.5236  2.4698
  695MOL0     H93824   8.681   8.737   3.880  3.9079 -3.1411  0.9366
  695MOL0     H93825   8.734   8.749   3.716  4.2924  0.5080  2.4596
  696MOL0     O93826  11.481   3.016   8.994  0.5204 -1.2248 -0.5931
  696MOL0     C93827  11.531   3.016   9.105 -0.4812  0.2437 -0.5397
  696MOL0     O93828  11.489   3.078   9.219  0.3087 -0.9417 -0.1201
  696MOL0     C93829  11.368   3.149   9.224  0.8174  0.2438  0.6680
  696MOL0     C93830  11.372   3.277   9.167 -0.0745 -0.4029  0.1675
  696MOL0     C93831  11.258   3.361   9.175  0.3706 -0.4646  0.4023
  696MOL0     C93832  11.137   3.317   9.242 -0.3845 -0.0215  0.6989
  696MOL0     O93833  11.017   3.399   9.269  0.7355  0.6863 -0.0402
  696MOL0     C93834  11.005   3.527   9.210 -0.2825 -0.2067 -0.2119
  696MOL0     C93835  10.862   3.578   9.236  0.2258 -0.7728  0.1001
  696MOL0     C93836  10.845   3.640   9.381  0.4327  0.4672  0.1148
  696MOL0     C93837  10.837   3.545   9.495  0.5331 -0.6586 -1.1685
  696MOL0     C93838  10.823   3.619   9.631  0.4557 -0.4557 -0.1381
  696MOL0     C93839  10.678   3.657   9.670  0.9346 -0.0636 -0.6083
  696MOL0     C93840  10.656   3.695   9.820  0.2073  0.0065  0.7169
  696MOL0     C93841  10.503   3.690   9.853  0.4046 -0.0016  0.1343
  696MOL0     N93842  10.477   3.765   9.968  0.3178 -0.4315 -0.6061
  696MOL0     C93843  10.425   3.895   9.969  0.7669  1.0754 -0.2509
  696MOL0     C93844  10.389   3.922  10.094  0.3741 -2.1338 -0.2808
  696MOL0     C93845  10.324   4.043  10.143  0.7393  0.2811 -0.3928
  696MOL0     C93846  10.181   4.021  10.170  0.1762  0.0822 -0.6643
  696MOL0     C93847  10.099   4.133  10.225 -0.0501  0.1509  0.3514
  696MOL0     C93848   9.957   4.129  10.175  0.4279 -0.8276  0.2888
  696MOL0     O93849   9.887   4.017  10.225  0.8125  0.7222  0.0728
  696MOL0     C93850   9.766   4.001  10.163 -0.6348  0.8871  0.9796
  696MOL0     C93851   9.756   3.950  10.041 -0.2399  0.0444  0.0522
  696MOL0     C93852   9.623   3.950   9.987  0.6427  0.8168  0.1852
  696MOL0     C93853   9.512   3.999  10.048  0.9725 -0.1036 -0.2191
  696MOL0     C93854   9.373   4.006   9.981  1.1975 -0.4150  0.2504
  696MOL0     O93855   9.303   4.125   9.973 -0.4103  0.3564 -0.2084
  696MOL0     C93856   9.180   4.137   9.921  0.8009 -0.2978  1.1297
  696MOL0     C93857   9.089   4.042   9.873  0.5780 -0.4823 -0.5635
  696MOL0     C93858   8.974   4.082   9.810 -1.1836  0.4202 -0.2006
  696MOL0     C93859   8.934   4.212   9.789 -0.4732  0.6853  0.3382
  696MOL0     O93860   8.825   4.245   9.709 -0.4683 -0.9772  0.4158
  696MOL0     C93861   8.768   4.145   9.616  0.4767  0.1061  0.4771
  696MOL0     C93862   8.680   4.212   9.511  0.3226 -0.3856  0.0433
  696MOL0     C93863   8.649   4.130   9.386  0.2716 -0.2703 -0.2985
  696MOL0     C93864   8.768   4.130   9.286  0.5574  0.5804 -0.1103
  696MOL0     C93865   8.739   4.025   9.183  0.9919 -0.4552 -0.1010
  696MOL0     C93866   8.840   4.023   9.072  0.6432  0.3008  0.0293
  696MOL0     C93867   8.990   3.990   9.104 -0.4326 -0.0568  0.4138
  696MOL0     C93868   9.079   3.915   9.004 -0.0178 -0.4801 -0.0460
  696MOL0    Cl93869   9.154   4.025   8.888 -0.0444 -0.3256  0.5343
  696MOL0     C93870   9.016   4.312   9.847 -0.4123  0.9849  0.3245
  696MOL0     C93871   9.135   4.274   9.909  0.3450 -0.1439  0.2083
  696MOL0     O93872   9.358   3.913   9.899 -0.3392 -0.4553 -0.1237
  696MOL0     C93873   9.534   4.063  10.171  0.1299 -0.2880 -0.1068
  696MOL0     C93874   9.663   4.062  10.230 -0.6528  0.2972 -0.2095
  696MOL0     N93875  10.427   3.817  10.169  1.0851  0.7048  0.0636
  696MOL0     N93876  10.481   3.724  10.096 -0.2348 -0.0270  0.5144
  696MOL0     C93877  11.139   3.185   9.286  0.1377 -0.1934 -0.2197
  696MOL0     C93878  11.249   3.102   9.280  0.4595  0.4399  0.4512
  696MOL0     C93879  11.635   2.911   9.131 -0.4530 -0.0397 -0.0448
  696MOL0     C93880  11.625   2.784   9.076 -0.0328 -0.0101  0.2253
  696MOL0     C93881  11.714   2.680   9.120 -0.1251 -0.1906  0.6210
  696MOL0     C93882  11.816   2.709   9.215  0.1480  0.3769  0.2393
  696MOL0     O93883  11.892   2.604   9.256  0.3837  0.6098  0.1375
  696MOL0     C93884  11.954   2.601   9.385 -0.6905  0.2770  0.4618
  696MOL0     C93885  11.849   2.615   9.500  0.7866  0.2480 -0.4773
  696MOL0     C93886  11.741   2.508   9.488 -0.7435  0.9676 -0.2552
  696MOL0     C93887  11.611   2.564   9.546 -0.9375  0.1597  0.2618
  696MOL0     C93888  11.533   2.465   9.614 -0.2114  0.8743 -0.0202
  696MOL0     C93889  11.473   2.379   9.670 -1.0132 -0.4663 -0.5582
  696MOL0     C93890  11.835   2.846   9.246  0.0292  0.1279  0.2574
  696MOL0     C93891  11.754   2.949   9.195  0.1964  0.3096 -1.3124
  696MOL0     C93892  11.789   3.085   9.234 -0.8839 -0.1359 -0.3852
  696MOL0     H93893  11.462   3.296   9.109  0.9478 -3.7556  0.3942
  696MOL0     H93894  11.260   3.458   9.126 -2.2160  0.2963  1.5923
  696MOL0     H93895  11.073   3.594   9.263 -0.4515 -0.7861  0.7671
  696MOL0     H93896  11.020   3.520   9.102 -4.2689 -1.9141 -0.8520
  696MOL0     H93897  10.782   3.506   9.222 -1.1410  0.6068  0.5686
  696MOL0     H93898  10.840   3.657   9.164 -0.8663  0.5046  1.7605
  696MOL0     H93899  10.762   3.711   9.374  0.4648  0.3672 -1.8338
  696MOL0     H93900  10.939   3.694   9.395  1.1522  1.0428 -5.0102
  696MOL0     H93901  10.765   3.463   9.488  1.4746 -1.4051 -3.1630
  696MOL0     H93902  10.933   3.493   9.491  1.9445  1.5510  1.3022
  696MOL0     H93903  10.860   3.555   9.711 -1.9367 -2.1191 -0.2421
  696MOL0     H93904  10.882   3.710   9.636 -1.0498  0.4909  2.3285
  696MOL0     H93905  10.624   3.736   9.618 -1.0909 -1.1609 -0.2680
  696MOL0     H93906  10.612   3.571   9.658 -0.3529  0.0257  3.9606
  696MOL0     H93907  10.700   3.792   9.844 -0.6176  0.7328 -0.6060
  696MOL0     H93908  10.711   3.625   9.883 -0.7525  1.1941  2.9925
  696MOL0     H93909  10.440   3.739   9.778 -2.9686 -2.8378  0.8127
  696MOL0     H93910  10.456   3.591   9.848 -0.5211  0.4031  0.5165
  696MOL0     H93911  10.411   3.944   9.873  2.2237 -0.7655 -1.4598
  696MOL0     H93912  10.367   4.099  10.227  3.1473  0.8494 -1.9358
  696MOL0     H93913  10.338   4.103  10.053 -2.6740  0.2012 -1.1185
  696MOL0     H93914  10.143   3.992  10.071  0.4992  2.2581 -1.4842
  696MOL0     H93915  10.183   3.943  10.247 -0.9918  1.5352  0.8926
  696MOL0     H93916  10.132   4.228  10.180  0.1744 -0.3650 -0.6058
  696MOL0     H93917  10.108   4.144  10.333  0.2384  2.1921  0.1693
  696MOL0     H93918   9.948   4.146  10.067 -0.8012 -0.1972  0.4728
  696MOL0     H93919   9.911   4.220  10.214 -0.0862 -1.4908  1.2483
  696MOL0     H93920   9.839   3.901   9.991  1.5217  1.3480  1.5695
  696MOL0     H93921   9.612   3.889   9.897 -0.3228 -1.2246  1.5955
  696MOL0     H93922   9.100   3.934   9.883 -1.1889 -0.4404  4.0060
  696MOL0     H93923   8.930   3.993   9.768  1.4474 -2.0465  1.8530
  696MOL0     H93924   8.855   4.099   9.570  0.4556 -0.7549  1.2846
  696MOL0     H93925   8.709   4.063   9.657  1.9435 -1.3235 -0.2110
  696MOL0     H93926   8.579   4.214   9.552  1.0926  0.4463  2.0102
  696MOL0     H93927   8.726   4.310   9.498  1.5872 -0.6026  2.3943
  696MOL0     H93928   8.615   4.029   9.412  0.8767 -0.3811  0.0760
  696MOL0     H93929   8.561   4.173   9.337 -0.0709  2.2254  2.2046
  696MOL0     H93930   8.864   4.108   9.332 -0.7099 -2.2899  1.4931
  696MOL0     H93931   8.762   4.227   9.237 -0.5468  2.6595  3.7907
  696MOL0     H93932   8.641   4.047   9.141  1.2790  1.7131  0.2423
  696MOL0     H93933   8.742   3.923   9.225 -1.6516 -0.6508 -0.2164
  696MOL0     H93934   8.800   3.949   9.002  3.1294 -1.1424  0.0052
  696MOL0     H93935   8.829   4.118   9.019 -1.2183 -0.8709 -1.8382
  696MOL0     H93936   8.985   3.921   9.189  1.5735 -2.4298 -1.2611
  696MOL0     H93937   9.042   4.083   9.132  1.8490 -0.3428 -2.3882
  696MOL0     H93938   9.150   3.850   9.055 -0.4999 -1.4178 -0.5337
  696MOL0     H93939   9.020   3.846   8.941 -0.5597  1.4993 -1.8173
  696MOL0     H93940   8.988   4.417   9.843 -0.9319  0.8659 -4.3930
  696MOL0     H93941   9.189   4.362   9.942  2.0424 -0.9640 -0.2483
  696MOL0     H93942   9.451   4.120  10.212  1.1630 -0.2767  2.1267
  696MOL0     H93943   9.688   4.111  10.324  1.4901 -0.3995 -0.3782
  696MOL0     H93944  11.058   3.140   9.342 -0.8236  2.5278  0.7523
  696MOL0     H93945  11.259   2.996   9.304 -1.6015 -0.0799 -0.7431
  696MOL0     H93946  11.536   2.762   9.018  0.3173  2.9008 -1.6241
  696MOL0     H93947  11.693   2.578   9.087 -1.8710 -0.0868  1.2791
  696MOL0     H93948  12.017   2.690   9.389  0.2805 -0.4291  2.1957
  696MOL0     H93949  12.016   2.512   9.397 -0.8973  0.0448 -0.1859
  696MOL0     H93950  11.799   2.712   9.485 -0.1297 -0.2100 -0.4462
  696MOL0     H93951  11.890   2.613   9.601 -0.6333  0.2788  0.1202
  696MOL0     H93952  11.768   2.421   9.547 -0.8724  1.0560 -0.0661
  696MOL0     H93953  11.713   2.481   9.385 -0.2307 -1.9438  0.2933
  696MOL0     H93954  11.634   2.633   9.628 -1.9075 -2.1357  2.6280
  696MOL0     H93955  11.545   2.620   9.478 -1.3013  0.3825  0.7886
  696MOL0     H93956  11.447   2.283   9.709  0.8013 -0.4219  0.9278
  696MOL0     H93957  11.919   2.872   9.310  0.8644  1.1840 -1.2047
  696MOL0     H93958  11.896   3.098   9.255 -0.3579 -1.8253 -1.7161
  696MOL0     H93959  11.769   3.157   9.154 -0.5673  0.0766 -0.2764
  696MOL0     H93960  11.725   3.116   9.317 -1.1385 -0.7168 -0.3618
  697MOL0     O93961   3.937   1.911   5.951 -0.4161  0.0949  0.3737
  697MOL0     C93962   3.880   1.804   5.946  0.5395 -0.0313 -0.8460
  697MOL0     O93963   3.750   1.782   5.894 -0.2136 -0.3449  0.2898
  697MOL0     C93964   3.691   1.888   5.832 -0.2687 -0.8304  0.9659
  697MOL0     C93965   3.546   1.886   5.844  0.0872  0.8244  0.0088
  697MOL0     C93966   3.478   2.001   5.810 -0.5509  0.0271  0.8478
  697MOL0     C93967   3.540   2.100   5.726  0.4537  0.2674  0.1737
  697MOL0     O93968   3.478   2.204   5.669 -0.4234 -0.2050 -0.3206
  697MOL0     C93969   3.336   2.214   5.653 -0.4544  0.6278 -1.1683
  697MOL0     C93970   3.316   2.294   5.533 -0.0044 -0.0259  0.1669
  697MOL0     C93971   3.176   2.265   5.473 -0.7549  0.2019  0.7196
  697MOL0     C93972   3.148   2.381   5.381  0.6845 -0.2155  0.3754
  697MOL0     C93973   3.022   2.382   5.296 -0.5771 -0.1344  0.1902
  697MOL0     C93974   3.000   2.501   5.202 -0.3758 -0.5733 -0.4496
  697MOL0     C93975   2.971   2.625   5.292  0.1066  0.1647 -0.0913
  697MOL0     C93976   2.852   2.622   5.389 -0.0304  0.3244 -0.3457
  697MOL0     N93977   2.722   2.554   5.359 -1.0437  0.0957  0.8856
  697MOL0     C93978   2.689   2.493   5.237  0.6527 -0.5766  0.8906
  697MOL0     C93979   2.568   2.427   5.273 -0.1249 -0.9607  0.1478
  697MOL0     C93980   2.488   2.346   5.173  0.6224  0.3523  0.0925
  697MOL0     C93981   2.468   2.422   5.043  0.1180 -0.4890 -0.1890
  697MOL0     C93982   2.410   2.334   4.931  0.2713 -0.1252 -0.5419
  697MOL0     C93983   2.250   2.319   4.936  0.1848 -0.4043 -0.4390
  697MOL0     O93984   2.196   2.198   4.878 -0.1792 -0.4441 -0.6604
  697MOL0     C93985   2.130   2.111   4.961 -0.2358  0.6752 -0.3222
  697MOL0     C93986   2.146   2.112   5.109 -0.0894 -0.1796  0.1745
  697MOL0     C93987   2.087   2.015   5.186 -0.2806 -0.3325 -0.2626
  697MOL0     C93988   2.006   1.928   5.124  0.0421  1.4736 -0.0340
  697MOL0     C93989   1.938   1.815   5.203 -0.4858 -0.5524 -0.2759
  697MOL0     O93990   2.016   1.769   5.314 -0.2740  0.4273 -0.2500
  697MOL0     C93991   1.965   1.653   5.373  0.4348 -0.1166 -0.5471
  697MOL0     C93992   2.031   1.534   5.359  0.1260  0.0611  0.1031
  697MOL0     C93993   2.000   1.423   5.433 -0.7499  1.0523  0.3203
  697MOL0     C93994   1.882   1.422   5.504 -0.5354  0.2289 -0.0995
  697MOL0     O93995   1.824   1.316   5.573  0.1933  0.9321 -0.2262
  697MOL0     C93996   1.887   1.192   5.567 -0.4834 -0.1318 -0.9056
  697MOL0     C93997   1.860   1.101   5.439 -0.1697  0.4596 -0.1605
  697MOL0     C93998   1.709   1.081   5.419  0.1979 -0.3539 -0.5931
  697MOL0     C93999   1.653   0.958   5.501 -0.3048 -0.4966 -0.4170
  697MOL0     C94000   1.543   0.884   5.413 -0.4614  0.8392 -1.0626
  697MOL0     C94001   1.413   0.956   5.411  0.5410 -0.0811 -0.5113
  697MOL0     C94002   1.301   0.901   5.311  0.7790  0.2375 -0.1716
  697MOL0     C94003   1.305   0.745   5.287 -0.3431 -1.1555  0.1264
  697MOL0    Cl94004   1.279   0.636   5.439  0.1335  0.3482 -0.7127
  697MOL0     C94005   1.807   1.533   5.507 -0.0094 -0.8342  0.2835
  697MOL0     C94006   1.849   1.649   5.454  0.1925 -0.6776 -0.3192
  697MOL0     O94007   1.824   1.781   5.170 -0.2013 -0.1022  0.4065
  697MOL0     C94008   1.989   1.925   4.987  0.3272  0.5813 -0.0876
  697MOL0     C94009   2.052   2.013   4.907 -0.3942  0.2749 -0.5757
  697MOL0     N94010   2.541   2.447   5.404 -1.3525 -0.4793 -0.8413
  697MOL0     N94011   2.632   2.525   5.452  0.4713 -0.5162 -0.6235
  697MOL0     C94012   3.669   2.072   5.681 -0.5880  0.0992 -1.1261
  697MOL0     C94013   3.747   1.967   5.735 -0.1368 -0.3163 -1.9563
  697MOL0     C94014   3.940   1.679   6.006  0.2998 -0.2467  0.3460
  697MOL0     C94015   3.910   1.549   5.950 -0.3237  0.0693  0.2427
  697MOL0     C94016   3.970   1.431   6.000  0.7248 -0.1237  0.2822
  697MOL0     C94017   4.073   1.440   6.091  0.4041  0.7898 -0.3922
  697MOL0     O94018   4.151   1.346   6.134 -0.4002 -0.6396 -0.3874
  697MOL0     C94019   4.150   1.214   6.079 -0.6604  0.0450  0.4871
  697MOL0     C94020   4.036   1.119   6.101  0.0987 -1.0951 -0.0169
  697MOL0     C94021   4.038   0.974   6.057  0.0056  0.1508 -0.0457
  697MOL0     C94022   4.126   0.885   6.142  0.3704  0.9099 -0.3425
  697MOL0     C94023   4.138   0.928   6.281 -0.0049 -0.5059  0.2627
  697MOL0     C94024   4.142   0.938   6.397 -0.2102  0.1534 -0.4258
  697MOL0     C94025   4.107   1.565   6.140 -0.6048  0.0895 -0.3177
  697MOL0     C94026   4.050   1.688   6.103  0.5274  0.3040 -1.5640
  697MOL0     C94027   4.083   1.804   6.186 -0.4158 -0.5911  0.3726
  697MOL0     H94028   3.494   1.804   5.893  3.6236  0.5710  3.9683
  697MOL0     H94029   3.373   2.010   5.836 -0.6823 -4.6515  2.7411
  697MOL0     H94030   3.295   2.114   5.636  2.1241 -0.1457 -3.4633
  697MOL0     H94031   3.287   2.266   5.736 -2.4241 -0.4755 -1.5707
  697MOL0     H94032   3.392   2.281   5.455 -1.3107  0.0285 -1.1488
  697MOL0     H94033   3.327   2.397   5.569  1.8593 -0.0862 -0.1370
  697MOL0     H94034   3.094   2.261   5.545 -1.7882  0.7919 -0.3898
  697MOL0     H94035   3.170   2.169   5.422 -1.7932 -0.9607  2.9348
  697MOL0     H94036   3.144   2.472   5.441  0.7669 -0.4732  0.7770
  697MOL0     H94037   3.228   2.389   5.307 -1.8999  2.2214 -2.4293
  697MOL0     H94038   3.036   2.286   5.247  1.5023  1.4111 -2.5300
  697MOL0     H94039   2.935   2.358   5.358 -1.6145  0.3436 -1.0168
  697MOL0     H94040   3.091   2.533   5.150 -0.4897  1.2528  0.3917
  697MOL0     H94041   2.930   2.470   5.124 -0.9600 -0.8280  0.1687
  697MOL0     H94042   2.953   2.711   5.225  1.3677  0.2769 -0.3060
  697MOL0     H94043   3.060   2.651   5.350  0.2568  0.9206 -0.6416
  697MOL0     H94044   2.891   2.582   5.482 -0.6871 -0.6186 -0.4598
  697MOL0     H94045   2.820   2.721   5.423 -0.8333 -1.4143  4.8019
  697MOL0     H94046   2.739   2.503   5.142  1.0820 -0.3944  1.1359
  697MOL0     H94047   2.531   2.247   5.153 -1.6951 -1.5588  3.4785
  697MOL0     H94048   2.386   2.346   5.214 -0.6748  3.2638 -2.7352
  697MOL0     H94049   2.421   2.521   5.045 -0.5905 -0.7364 -2.1859
  697MOL0     H94050   2.572   2.446   5.016 -0.0624  0.3944 -0.1328
  697MOL0     H94051   2.456   2.235   4.926 -3.1040 -1.8314 -0.5687
  697MOL0     H94052   2.427   2.381   4.833 -2.0063 -1.4174 -1.6458
  697MOL0     H94053   2.200   2.395   4.873 -3.6437 -1.1408  1.4242
  697MOL0     H94054   2.200   2.340   5.031 -0.7986 -3.4420 -0.1893
  697MOL0     H94055   2.198   2.196   5.152  1.9636 -1.4255  0.2576
  697MOL0     H94056   2.113   2.001   5.291  1.1229 -2.3368 -0.8342
  697MOL0     H94057   2.116   1.528   5.291 -1.1523 -0.9426 -1.4833
  697MOL0     H94058   2.064   1.335   5.428 -0.8649  0.9709  0.2909
  697MOL0     H94059   1.994   1.193   5.591 -0.1203 -3.6700 -1.8632
  697MOL0     H94060   1.846   1.135   5.651 -2.5076  1.7807 -0.4815
  697MOL0     H94061   1.881   1.145   5.341 -1.1271 -2.2794 -1.6852
  697MOL0     H94062   1.918   1.011   5.463 -0.4587  0.4980  0.7434
  697MOL0     H94063   1.657   1.172   5.449 -1.7326 -2.1421  1.9576
  697MOL0     H94064   1.684   1.068   5.313 -1.4438 -1.6020 -0.0924
  697MOL0     H94065   1.629   0.984   5.605  2.9138 -1.1460  0.6090
  697MOL0     H94066   1.734   0.885   5.509 -0.6912 -0.7824  1.3105
  697MOL0     H94067   1.532   0.790   5.469 -1.4496  2.8331  2.4122
  697MOL0     H94068   1.580   0.859   5.313  1.1361 -0.7137 -0.1536
  697MOL0     H94069   1.378   0.968   5.513 -0.5544  2.2916 -1.0926
  697MOL0     H94070   1.431   1.064   5.406 -2.3294  0.6863  2.4875
  697MOL0     H94071   1.326   0.945   5.215  1.8188  2.0951  0.8867
  697MOL0     H94072   1.205   0.940   5.345  0.5617 -1.6365  1.6104
  697MOL0     H94073   1.227   0.723   5.213 -0.6328  0.5995 -0.1236
  697MOL0     H94074   1.399   0.717   5.239  0.0465  0.3222 -0.0156
  697MOL0     H94075   1.718   1.536   5.570 -0.4064 -0.6235 -0.2782
  697MOL0     H94076   1.798   1.743   5.473  3.1640  0.6477  1.9260
  697MOL0     H94077   1.939   1.847   4.931 -0.1382  0.2912  0.7153
  697MOL0     H94078   2.030   2.014   4.801 -4.5324  0.6669  0.0905
  697MOL0     H94079   3.713   2.151   5.620  2.9002 -0.5303  0.3213
  697MOL0     H94080   3.851   1.951   5.708  1.9281  3.0593  2.6629
  697MOL0     H94081   3.824   1.551   5.884 -1.2340  3.9581  1.2887
  697MOL0     H94082   3.946   1.331   5.965 -0.9442 -0.0162  1.0410
  697MOL0     H94083   4.231   1.149   6.111 -1.1633 -2.7589 -3.2388
  697MOL0     H94084   4.174   1.218   5.972  0.2445 -1.9454  0.5801
  697MOL0     H94085   3.964   1.158   6.029  0.1059  2.4567  1.6947
  697MOL0     H94086   3.984   1.139   6.195  1.1067  0.5859  0.2253
  697MOL0     H94087   4.079   0.968   5.956 -1.1285  0.6103 -0.5441
  697MOL0     H94088   3.946   0.915   6.062  2.1607 -3.6053 -0.8539
  697MOL0     H94089   4.090   0.782   6.152  0.7836  0.7114 -0.8631
  697MOL0     H94090   4.225   0.867   6.101 -0.2392 -2.4419 -0.6810
  697MOL0     H94091   4.146   0.938   6.504  1.8035  0.5177 -0.4775
  697MOL0     H94092   4.189   1.562   6.212  0.7429 -1.9243 -1.8378
  697MOL0     H94093   3.993   1.851   6.227 -0.5579  0.5635 -1.1725
  697MOL0     H94094   4.161   1.798   6.262  0.5664 -0.8727 -0.6282
  697MOL0     H94095   4.123   1.873   6.110  3.4062 -0.3984  2.2935
  698MOL0     O94096   1.783   5.310   2.703  0.2579  0.1699  0.1227
  698MOL0     C94097   1.906   5.318   2.738 -0.6746 -0.9294 -1.2535
  698MOL0     O94098   2.002   5.222   2.725  0.5652  0.4845  0.1665
  698MOL0     C94099   1.988   5.091   2.692  0.0789  0.4999  0.1005
  698MOL0     C94100   2.094   5.005   2.708 -0.2113 -0.4033 -0.9696
  698MOL0     C94101   2.089   4.863   2.681  0.7735 -0.5777  0.1955
  698MOL0     C94102   1.971   4.815   2.623 -0.5970  0.5202  0.5987
  698MOL0     O94103   1.962   4.679   2.583  0.7191 -0.6619 -0.6118
  698MOL0     C94104   1.845   4.614   2.620  0.7221 -0.1145 -0.2633
  698MOL0     C94105   1.862   4.456   2.628 -0.3286 -0.1810  0.0640
  698MOL0     C94106   1.732   4.386   2.674  1.2211  0.2890  0.5443
  698MOL0     C94107   1.735   4.242   2.619  0.5664 -0.4632 -1.2389
  698MOL0     C94108   1.602   4.171   2.672 -0.2309 -0.2532  0.0374
  698MOL0     C94109   1.490   4.187   2.570  0.6113  0.7388  0.0034
  698MOL0     C94110   1.365   4.104   2.605 -0.2324 -0.4847 -0.0013
  698MOL0     C94111   1.388   3.956   2.612 -0.6377 -0.4155  0.2465
  698MOL0     N94112   1.261   3.893   2.650  0.8494 -0.0540 -0.4258
  698MOL0     C94113   1.179   3.929   2.761 -0.8829 -0.2617 -1.0826
  698MOL0     C94114   1.109   3.815   2.782  0.0875  1.0334 -0.1601
  698MOL0     C94115   1.016   3.798   2.900 -0.2073 -0.5542 -0.0582
  698MOL0     C94116   0.870   3.827   2.847  0.5674  0.4644  0.1131
  698MOL0     C94117   0.836   3.974   2.820 -0.1525  0.2902  0.7128
  698MOL0     C94118   0.697   3.966   2.750 -0.6373 -1.1482  0.5500
  698MOL0     O94119   0.589   3.941   2.847 -0.0087  0.0972  0.3495
  698MOL0     C94120   0.464   3.945   2.787 -0.7535  0.2885  0.4845
  698MOL0     C94121   0.390   4.060   2.790 -0.0831 -0.4617  0.5079
  698MOL0     C94122   0.273   4.069   2.723  0.4295  0.7369  0.8741
  698MOL0     C94123   0.233   3.958   2.639  0.4103  0.8455 -0.1951
  698MOL0     C94124   0.110   3.967   2.556  1.0667 -0.8742  0.0877
  698MOL0     O94125   0.013   4.045   2.609  0.3763 -0.7889  0.1194
  698MOL0     C94126  -0.112   4.045   2.545 -0.8891 -0.3829 -0.7810
  698MOL0     C94127  -0.214   3.943   2.560 -0.1685 -0.7258  1.0919
  698MOL0     C94128  -0.340   3.963   2.486  0.6309 -0.4446 -0.6607
  698MOL0     C94129  -0.357   4.058   2.389  0.0164 -0.1821 -0.4643
  698MOL0     O94130  -0.472   4.054   2.315  0.1287  0.6466 -1.7054
  698MOL0     C94131  -0.479   4.132   2.204 -0.2195  0.1756  0.6003
  698MOL0     C94132  -0.602   4.069   2.126  0.6348 -1.1040  0.0239
  698MOL0     C94133  -0.657   4.179   2.031 -0.2837  0.1934 -1.0456
  698MOL0     C94134  -0.747   4.113   1.934  0.2135  0.9654  0.0410
  698MOL0     C94135  -0.667   4.071   1.806 -0.2780 -0.1092 -0.7494
  698MOL0     C94136  -0.755   4.034   1.685  0.5751  0.1414  0.5694
  698MOL0     C94137  -0.662   3.956   1.579  0.0871 -0.2614 -0.2142
  698MOL0     C94138  -0.729   3.963   1.440  1.1055  0.6986 -0.1795
  698MOL0    Cl94139  -0.888   3.899   1.439  0.0015 -0.1343 -0.0182
  698MOL0     C94140  -0.255   4.149   2.371 -0.7208  0.0420 -0.4158
  698MOL0     C94141  -0.137   4.143   2.442 -0.2298  0.0657  0.5713
  698MOL0     O94142   0.105   3.914   2.448 -0.6554  0.0749  0.2646
  698MOL0     C94143   0.302   3.847   2.636 -0.5642  0.3486 -0.0339
  698MOL0     C94144   0.419   3.828   2.717  0.1649 -0.8026  0.0968
  698MOL0     N94145   1.135   3.716   2.684  0.0401  0.1321  0.3654
  698MOL0     N94146   1.218   3.769   2.604  0.4317 -0.0368  0.0868
  698MOL0     C94147   1.862   4.901   2.594  0.2770 -0.1368  1.3771
  698MOL0     C94148   1.878   5.038   2.625  0.1070  0.5868  0.6117
  698MOL0     C94149   1.958   5.449   2.775  0.0031  0.6674 -0.9398
  698MOL0     C94150   1.922   5.500   2.903  0.2508 -1.1130  0.3073
  698MOL0     C94151   1.961   5.629   2.936  0.1268 -0.2965 -0.2055
  698MOL0     C94152   2.032   5.701   2.843  1.1084  0.5544  0.2090
  698MOL0     O94153   2.075   5.827   2.853 -0.0159 -0.1220 -0.6063
  698MOL0     C94154   2.045   5.901   2.971 -0.0345 -0.9815  0.1170
  698MOL0     C94155   2.090   6.051   2.934  0.1103  0.1712 -0.4443
  698MOL0     C94156   2.242   6.079   2.917  0.1489  1.4430 -0.7813
  698MOL0     C94157   2.306   6.016   2.787 -0.0886  0.2138  0.0548
  698MOL0     C94158   2.448   6.046   2.798  0.7196 -0.4416  0.7341
  698MOL0     C94159   2.565   6.078   2.794  0.7656  0.0259  0.5039
  698MOL0     C94160   2.065   5.657   2.722 -0.5231  0.5045  0.2079
  698MOL0     C94161   2.029   5.531   2.683 -0.1006  0.6046  0.0564
  698MOL0     C94162   2.067   5.484   2.545  0.0729 -0.1114 -0.5653
  698MOL0     H94163   2.187   5.043   2.748 -0.9679 -0.0765  0.5403
  698MOL0     H94164   2.175   4.804   2.710 -0.4734 -3.0842 -0.9248
  698MOL0     H94165   1.813   4.628   2.723 -0.0273 -4.2670  0.2624
  698MOL0     H94166   1.770   4.638   2.544 -0.0261  1.4094  0.9130
  698MOL0     H94167   1.952   4.441   2.688 -0.1644  3.6457  1.0707
  698MOL0     H94168   1.897   4.423   2.530  2.3567 -3.8364  2.0448
  698MOL0     H94169   1.649   4.441   2.628  0.1780 -0.5790  1.3175
  698MOL0     H94170   1.722   4.375   2.782 -1.3516 -0.9729  0.2656
  698MOL0     H94171   1.736   4.231   2.510 -2.3641  0.6098 -1.4606
  698MOL0     H94172   1.821   4.189   2.660 -1.3580 -0.5856  3.1668
  698MOL0     H94173   1.625   4.064   2.684 -0.4326 -0.1234  1.9274
  698MOL0     H94174   1.576   4.199   2.775  0.0876 -2.5192  0.8072
  698MOL0     H94175   1.462   4.293   2.579 -1.1318  0.3965 -1.0015
  698MOL0     H94176   1.524   4.147   2.475 -0.7046  0.6025 -0.4286
  698MOL0     H94177   1.289   4.120   2.528  1.6149 -2.3712 -2.3975
  698MOL0     H94178   1.337   4.145   2.703  0.1839  0.0100 -0.0819
  698MOL0     H94179   1.427   3.917   2.517 -3.0093 -2.0419 -0.1642
  698MOL0     H94180   1.460   3.947   2.694  0.4170 -0.4510 -0.6626
  698MOL0     H94181   1.172   4.014   2.827 -0.2621 -0.5986 -0.5671
  698MOL0     H94182   1.012   3.705   2.958  0.9963  0.1804  1.2733
  698MOL0     H94183   1.048   3.866   2.980 -2.6054  0.5760  0.0298
  698MOL0     H94184   0.872   3.765   2.756 -0.5607  3.6693 -2.2944
  698MOL0     H94185   0.789   3.786   2.908 -0.9876  3.0789 -0.0315
  698MOL0     H94186   0.898   4.019   2.742 -1.9583  0.7321 -0.5293
  698MOL0     H94187   0.832   4.026   2.916 -1.6732  1.4938  0.0370
  698MOL0     H94188   0.712   3.894   2.668  1.0906 -0.8780  0.5948
  698MOL0     H94189   0.687   4.062   2.699  3.2249 -0.5050  0.7290
  698MOL0     H94190   0.419   4.143   2.854 -0.9191  0.5030 -0.3212
  698MOL0     H94191   0.210   4.158   2.724  0.6794  0.9578 -0.6494
  698MOL0     H94192  -0.201   3.853   2.620  1.1059 -2.1561 -1.2025
  698MOL0     H94193  -0.420   3.891   2.501 -0.2067  0.2975 -1.3942
  698MOL0     H94194  -0.502   4.236   2.232  1.4603  0.7425 -0.0166
  698MOL0     H94195  -0.394   4.131   2.135 -1.9479  2.8657 -1.8227
  698MOL0     H94196  -0.558   3.982   2.076  0.9198 -0.6916 -0.4560
  698MOL0     H94197  -0.675   4.034   2.199  0.5340 -0.5458  0.1984
  698MOL0     H94198  -0.716   4.243   2.097  1.3056 -1.5991  2.3555
  698MOL0     H94199  -0.580   4.236   1.977 -2.6535  2.9874 -1.7506
  698MOL0     H94200  -0.826   4.185   1.913  0.5499  1.0947 -0.8440
  698MOL0     H94201  -0.799   4.027   1.977 -1.4207  0.7790 -2.1022
  698MOL0     H94202  -0.621   3.979   1.846  1.0642  2.3664  4.1440
  698MOL0     H94203  -0.578   4.132   1.784 -1.4156  1.1673 -1.9961
  698MOL0     H94204  -0.843   3.977   1.717 -0.1762 -1.1051 -3.2083
  698MOL0     H94205  -0.795   4.120   1.629  0.1101  0.1477  0.9079
  698MOL0     H94206  -0.648   3.852   1.610  0.5018 -0.2604 -0.4029
  698MOL0     H94207  -0.563   3.998   1.561  1.6338 -3.4970 -0.0997
  698MOL0     H94208  -0.746   4.067   1.409 -0.1692 -0.0569 -2.2570
  698MOL0     H94209  -0.667   3.901   1.376  2.0385 -1.6813  2.8125
  698MOL0     H94210  -0.278   4.234   2.308 -0.5321  0.2489 -0.2064
  698MOL0     H94211  -0.065   4.223   2.427  0.2211 -0.2142  1.1918
  698MOL0     H94212   0.275   3.756   2.585 -2.7695  0.5828  0.6010
  698MOL0     H94213   0.474   3.734   2.718  0.2579 -0.7485  0.0471
  698MOL0     H94214   1.767   4.860   2.562  1.5058 -2.9681  1.0259
  698MOL0     H94215   1.792   5.100   2.606  0.2959  1.0988  1.3642
  698MOL0     H94216   1.882   5.437   2.982 -1.5867  0.4205  0.6694
  698MOL0     H94217   1.932   5.666   3.034 -1.5287  1.0498 -1.1504
  698MOL0     H94218   2.096   5.859   3.058 -0.7290 -1.8649  0.1178
  698MOL0     H94219   1.937   5.909   2.989 -0.4668 -2.3673 -1.6097
  698MOL0     H94220   2.053   6.128   3.003  3.2423  3.5794 -2.1597
  698MOL0     H94221   2.034   6.083   2.846 -5.3350 -4.5703  0.6650
  698MOL0     H94222   2.288   6.026   3.001  1.3386 -0.3914 -2.4827
  698MOL0     H94223   2.258   6.186   2.929  1.5403  0.9344  3.5385
  698MOL0     H94224   2.286   5.908   2.777 -2.8302  0.3298  2.6438
  698MOL0     H94225   2.256   6.060   2.700  0.8199 -0.1723 -0.6690
  698MOL0     H94226   2.670   6.096   2.787  0.4679  1.6683 -0.3299
  698MOL0     H94227   2.123   5.729   2.665  0.8330 -0.0276  0.8549
  698MOL0     H94228   1.984   5.429   2.499 -2.7915  1.9759  1.7504
  698MOL0     H94229   2.086   5.564   2.474  1.0806  0.2734  0.1136
  698MOL0     H94230   2.157   5.423   2.559  0.6824  0.8113 -0.3392
  699MOL0     O94231   6.159   3.044   1.753 -0.6898  0.2247  0.9481
  699MOL0     C94232   6.154   3.035   1.626 -0.2339 -0.3360 -0.2131
  699MOL0     O94233   6.071   3.108   1.551  0.7616  0.0641 -1.0874
  699MOL0     C94234   5.945   3.154   1.598  0.0668 -0.1690 -0.7043
  699MOL0     C94235   5.874   3.196   1.496 -0.3793 -0.2614  0.8155
  699MOL0     C94236   5.745   3.254   1.518 -0.1068  0.3340 -0.6815
  699MOL0     C94237   5.695   3.274   1.652  0.5793  0.4842 -0.2292
  699MOL0     O94238   5.582   3.347   1.681 -0.0350 -0.0825 -0.9538
  699MOL0     C94239   5.532   3.445   1.588 -0.1543 -0.2506  0.2683
  699MOL0     C94240   5.431   3.522   1.650  0.1070 -0.0874 -0.3695
  699MOL0     C94241   5.479   3.596   1.779  0.0481 -0.7524 -0.6235
  699MOL0     C94242   5.356   3.682   1.839  0.3651 -0.8135 -0.4663
  699MOL0     C94243   5.328   3.816   1.777  0.5703 -0.0432 -0.4943
  699MOL0     C94244   5.189   3.874   1.814  0.4248  0.7025  0.5099
  699MOL0     C94245   5.182   4.012   1.768 -0.1065 -0.4806 -0.0533
  699MOL0     C94246   5.049   4.084   1.805 -0.5405 -0.2946  0.6483
  699MOL0     N94247   4.998   4.069   1.939  1.8911 -0.6205 -0.0426
  699MOL0     C94248   4.904   3.971   1.976 -0.0199 -0.6958  0.5414
  699MOL0     C94249   4.898   3.977   2.106 -0.5944  0.5142 -0.2901
  699MOL0     C94250   4.803   3.892   2.195  0.3665  1.7710  0.7615
  699MOL0     C94251   4.773   3.954   2.341  0.1108 -0.2651  0.0620
  699MOL0     C94252   4.687   4.087   2.330 -0.0915 -0.2692  0.2789
  699MOL0     C94253   4.639   4.129   2.472 -0.6024 -0.1667 -0.9912
  699MOL0     O94254   4.593   4.257   2.473  0.9237 -0.2684  0.2632
  699MOL0     C94255   4.681   4.365   2.483  0.0757  0.1778  0.6802
  699MOL0     C94256   4.823   4.344   2.473  0.0666 -0.1995 -0.3010
  699MOL0     C94257   4.900   4.453   2.476  0.2705  0.1876  0.4830
  699MOL0     C94258   4.853   4.587   2.494  0.0297 -1.1284  0.2500
  699MOL0     C94259   4.950   4.700   2.502  0.6824  0.4733 -0.3171
  699MOL0     O94260   4.891   4.824   2.479 -0.4701  0.3768 -0.4536
  699MOL0     C94261   4.963   4.942   2.465 -0.1303  0.9704 -0.3660
  699MOL0     C94262   5.105   4.959   2.495 -0.5004  0.2089  0.0058
  699MOL0     C94263   5.158   5.083   2.490  0.1505  0.4351 -0.4753
  699MOL0     C94264   5.078   5.197   2.476  0.5406 -0.0945 -1.2072
  699MOL0     O94265   5.132   5.324   2.487 -0.4557 -0.0688  0.6748
  699MOL0     C94266   5.058   5.425   2.408 -0.4065  0.3309  0.2421
  699MOL0     C94267   5.126   5.556   2.408 -0.0395  0.4767 -0.7319
  699MOL0     C94268   5.259   5.552   2.326 -0.3917 -0.8676 -0.4518
  699MOL0     C94269   5.371   5.481   2.395 -1.3336  0.1353 -0.2414
  699MOL0     C94270   5.508   5.561   2.396  0.5465 -0.2050  0.2208
  699MOL0     C94271   5.496   5.683   2.483  0.1255  0.6650  0.0878
  699MOL0     C94272   5.647   5.736   2.523  0.3167 -0.0351  0.4987
  699MOL0     C94273   5.719   5.652   2.630 -0.0618 -0.3276  0.3894
  699MOL0    Cl94274   5.897   5.701   2.660  0.2121  0.3017 -0.0719
  699MOL0     C94275   4.941   5.177   2.457  0.9745 -0.9330 -0.2435
  699MOL0     C94276   4.886   5.056   2.451 -0.5104  0.2335  0.7386
  699MOL0     O94277   5.058   4.676   2.549  0.0638  0.7984 -0.5005
  699MOL0     C94278   4.713   4.606   2.508 -0.1099  0.3538 -0.3582
  699MOL0     C94279   4.636   4.489   2.509 -0.3678 -0.3754  0.1524
  699MOL0     N94280   5.004   4.061   2.144  1.2001  0.4151 -0.4716
  699MOL0     N94281   5.055   4.127   2.049 -0.3966  0.2363  0.6120
  699MOL0     C94282   5.779   3.223   1.758  0.3141 -0.1063  0.0054
  699MOL0     C94283   5.904   3.165   1.738 -0.5178 -0.7767  0.1000
  699MOL0     C94284   6.251   2.947   1.538 -0.9937 -0.4591 -0.6118
  699MOL0     C94285   6.211   2.928   1.399  0.2165 -0.5720 -0.5581
  699MOL0     C94286   6.292   2.852   1.320  0.7768 -0.0451  1.3348
  699MOL0     C94287   6.394   2.771   1.377  0.1109 -0.5149 -0.2441
  699MOL0     O94288   6.483   2.700   1.311 -0.6395  0.4523  0.0226
  699MOL0     C94289   6.422   2.627   1.200  0.7146 -0.2791 -0.0027
  699MOL0     C94290   6.512   2.517   1.139 -0.1294 -0.4143 -0.2975
  699MOL0     C94291   6.492   2.494   0.989  0.3434  1.0533  0.6689
  699MOL0     C94292   6.549   2.357   0.943  0.7963 -0.4559  0.8064
  699MOL0     C94293   6.511   2.234   1.020 -0.6007  0.8422 -0.4066
  699MOL0     C94294   6.476   2.133   1.079 -0.1612 -1.6041 -1.5069
  699MOL0     C94295   6.414   2.771   1.512  0.0156  0.0603 -0.4202
  699MOL0     C94296   6.344   2.862   1.598  0.4732  0.4422  0.5792
  699MOL0     C94297   6.396   2.884   1.739  0.0134  0.8283  0.6003
  699MOL0     H94298   5.903   3.180   1.393 -0.6199  1.2402  0.5020
  699MOL0     H94299   5.680   3.282   1.436 -2.3694  2.1810  1.5552
  699MOL0     H94300   5.607   3.515   1.551 -1.9521  0.5437 -2.1483
  699MOL0     H94301   5.487   3.403   1.498 -0.9468  2.9151 -0.9599
  699MOL0     H94302   5.347   3.455   1.672  0.5793 -0.3583  0.6551
  699MOL0     H94303   5.402   3.602   1.580 -0.2756  2.2306  2.2727
  699MOL0     H94304   5.555   3.673   1.767  0.1662 -0.5599  1.0738
  699MOL0     H94305   5.510   3.526   1.857 -1.9355  0.6980  1.6356
  699MOL0     H94306   5.262   3.627   1.834 -0.9458  0.8824  2.8290
  699MOL0     H94307   5.378   3.692   1.946 -2.3381  0.0272  0.0966
  699MOL0     H94308   5.410   3.885   1.798 -1.9347  2.2330  2.7940
  699MOL0     H94309   5.335   3.795   1.670  0.8998  0.7216 -0.6247
  699MOL0     H94310   5.116   3.808   1.766 -1.9716  2.2196  1.8870
  699MOL0     H94311   5.175   3.871   1.922 -2.2108  5.1258  0.5176
  699MOL0     H94312   5.188   4.013   1.659  0.8518 -3.0545 -0.0740
  699MOL0     H94313   5.259   4.074   1.813 -1.6305  1.8837 -0.5151
  699MOL0     H94314   5.066   4.191   1.791  0.6111 -0.4253  0.9926
  699MOL0     H94315   4.974   4.054   1.731  0.5868  0.0547 -0.6603
  699MOL0     H94316   4.837   3.918   1.910 -0.5534 -0.6237  1.0200
  699MOL0     H94317   4.713   3.883   2.134  1.8288 -2.5396 -1.1418
  699MOL0     H94318   4.843   3.792   2.214  0.7311  1.1721 -2.5887
  699MOL0     H94319   4.715   3.883   2.401 -1.1088  0.4236 -0.2686
  699MOL0     H94320   4.872   3.973   2.382  0.5631 -1.1759 -0.5605
  699MOL0     H94321   4.605   4.059   2.264 -1.3169 -0.4061  1.7879
  699MOL0     H94322   4.746   4.160   2.275  3.9925 -2.8186  0.8226
  699MOL0     H94323   4.707   4.119   2.557 -0.2376 -1.0135 -1.3703
  699MOL0     H94324   4.561   4.059   2.505  3.5477 -4.6315  0.5137
  699MOL0     H94325   4.881   4.253   2.467 -1.7427 -1.3543 -1.1465
  699MOL0     H94326   5.007   4.439   2.465  0.5181  2.3154 -0.4177
  699MOL0     H94327   5.172   4.878   2.522 -0.2597  0.6401  0.7594
  699MOL0     H94328   5.266   5.087   2.483  0.2191 -1.1957 -0.9288
  699MOL0     H94329   5.028   5.378   2.314 -0.7762  0.1037  0.4665
  699MOL0     H94330   4.963   5.442   2.460 -0.7118 -0.3794 -0.0727
  699MOL0     H94331   5.062   5.630   2.360  0.4904  0.7345 -1.0446
  699MOL0     H94332   5.152   5.588   2.509 -1.0813 -0.1821 -0.2434
  699MOL0     H94333   5.246   5.520   2.222  0.7113  2.3507 -1.7318
  699MOL0     H94334   5.291   5.656   2.309  0.0096 -1.3235 -2.7852
  699MOL0     H94335   5.389   5.382   2.353 -1.3703 -1.1456  2.5166
  699MOL0     H94336   5.354   5.466   2.502  2.9587  0.8923  0.7311
  699MOL0     H94337   5.539   5.588   2.295  3.3579 -0.0869  1.0207
  699MOL0     H94338   5.586   5.494   2.433  0.7930 -0.6874 -1.1297
  699MOL0     H94339   5.441   5.759   2.427  1.3253  0.9916 -0.6918
  699MOL0     H94340   5.444   5.649   2.573 -0.0341 -0.4527 -0.4076
  699MOL0     H94341   5.658   5.836   2.566  2.0040 -0.3375  0.8138
  699MOL0     H94342   5.702   5.727   2.429 -2.6391 -0.1434 -1.3465
  699MOL0     H94343   5.661   5.663   2.722  0.7993 -4.1711  1.5527
  699MOL0     H94344   5.719   5.546   2.603 -2.2831 -0.2787 -0.0119
  699MOL0     H94345   4.866   5.253   2.437 -0.0124 -1.9166 -0.3768
  699MOL0     H94346   4.779   5.052   2.437 -0.2633  0.4526 -1.6486
  699MOL0     H94347   4.658   4.697   2.528 -1.1119 -0.7830  2.7451
  699MOL0     H94348   4.530   4.512   2.514 -0.0347  1.1365  0.6935
  699MOL0     H94349   5.746   3.245   1.859  0.0329  1.1820 -0.3489
  699MOL0     H94350   5.952   3.114   1.820  2.3156 -2.0385 -2.1896
  699MOL0     H94351   6.135   2.996   1.363 -1.5012  1.1025  5.1991
  699MOL0     H94352   6.281   2.846   1.213  1.9845 -0.5794  1.2225
  699MOL0     H94353   6.402   2.707   1.129 -1.1464 -1.0995 -0.4655
  699MOL0     H94354   6.333   2.575   1.234  1.7123 -0.3795  2.6954
  699MOL0     H94355   6.480   2.433   1.201 -0.5470  1.7671  2.6029
  699MOL0     H94356   6.618   2.540   1.150  0.0898 -0.9330 -1.1717
  699MOL0     H94357   6.527   2.574   0.923 -0.1346  0.7912  0.0885
  699MOL0     H94358   6.384   2.490   0.974  0.2378  2.3227  0.9621
  699MOL0     H94359   6.523   2.339   0.838  1.8366 -1.4658  0.6911
  699MOL0     H94360   6.658   2.359   0.953  0.7724  1.1409  0.9142
  699MOL0     H94361   6.460   2.035   1.118 -4.4041 -0.3851  0.4021
  699MOL0     H94362   6.495   2.705   1.543 -1.0501 -1.0395  0.1454
  699MOL0     H94363   6.322   2.840   1.807  1.5042 -1.2362  0.9843
  699MOL0     H94364   6.493   2.834   1.746 -0.6387 -0.9474 -1.8906
  699MOL0     H94365   6.411   2.991   1.752  0.4329  1.0073 -1.1153
  700MOL0     O94366   2.413   0.725   2.025 -0.1867 -0.0336 -0.1461
  700MOL0     C94367   2.362   0.615   2.021  0.4669 -0.3113 -0.3087
  700MOL0     O94368   2.252   0.583   1.943  0.4973 -0.2155 -0.7388
  700MOL0     C94369   2.227   0.661   1.835 -0.1352 -0.2563 -0.1793
  700MOL0     C94370   2.307   0.722   1.744  0.0980 -1.3317 -1.1981
  700MOL0     C94371   2.263   0.780   1.628 -0.4419  0.7148 -0.0993
  700MOL0     C94372   2.126   0.799   1.610  0.1302  0.2114  0.1550
  700MOL0     O94373   2.082   0.874   1.492 -0.2640 -0.5067  0.7981
  700MOL0     C94374   1.937   0.899   1.472 -0.0370 -0.3816  0.2847
  700MOL0     C94375   1.914   1.001   1.361  0.1791 -0.0684 -0.3982
  700MOL0     C94376   1.871   0.947   1.232  1.2149 -0.1870  0.9443
  700MOL0     C94377   1.938   0.838   1.152  0.0503 -0.0695  0.6678
  700MOL0     C94378   1.897   0.844   1.000 -0.2755  0.1292  0.6343
  700MOL0     C94379   1.985   0.732   0.927  0.1082  0.4045 -0.9483
  700MOL0     C94380   1.988   0.756   0.781 -0.2335 -0.3112 -0.1997
  700MOL0     C94381   2.063   0.641   0.712 -1.3719 -0.2997  0.1160
  700MOL0     N94382   2.205   0.618   0.763  0.1094 -0.0256  0.2587
  700MOL0     C94383   2.312   0.705   0.752  0.3599  0.1417 -0.1671
  700MOL0     C94384   2.416   0.642   0.805 -0.0737  0.3398  0.4841
  700MOL0     C94385   2.543   0.719   0.832 -0.3608  0.1444  0.3257
  700MOL0     C94386   2.678   0.661   0.772  0.4652 -0.3984 -0.4598
  700MOL0     C94387   2.710   0.511   0.778  0.6633 -0.1183 -0.8773
  700MOL0     C94388   2.830   0.460   0.693 -0.1755 -0.6528  0.6237
  700MOL0     O94389   2.812   0.500   0.557 -0.1044  0.7738  0.3865
  700MOL0     C94390   2.740   0.418   0.479  0.2355 -0.2801  0.5717
  700MOL0     C94391   2.650   0.486   0.404  0.4305  0.2401  0.3089
  700MOL0     C94392   2.574   0.424   0.303 -0.4999  0.1673 -0.5044
  700MOL0     C94393   2.605   0.293   0.263 -0.0537  0.0189 -0.1550
  700MOL0     C94394   2.530   0.224   0.150 -0.2420  0.0596  0.3596
  700MOL0     O94395   2.572   0.099   0.122 -0.2868  0.1128 -0.3572
  700MOL0     C94396   2.561   0.069  -0.011  1.3131 -0.1432 -0.0743
  700MOL0     C94397   2.455  -0.015  -0.058 -0.1182  0.0491  0.1576
  700MOL0     C94398   2.455  -0.055  -0.194 -1.3121 -0.8423 -0.1261
  700MOL0     C94399   2.553  -0.007  -0.285 -0.2911 -0.3847 -0.1644
  700MOL0     O94400   2.546  -0.036  -0.417 -0.6854  1.5360 -0.1950
  700MOL0     C94401   2.556  -0.179  -0.450  0.5836  0.0606  0.0095
  700MOL0     C94402   2.582  -0.208  -0.598  0.2669  0.1567 -0.3237
  700MOL0     C94403   2.688  -0.111  -0.659  0.1470  0.4682  0.2381
  700MOL0     C94404   2.740  -0.151  -0.800  0.1364  0.3405 -0.4905
  700MOL0     C94405   2.625  -0.162  -0.912  0.4984 -0.5495  0.0335
  700MOL0     C94406   2.685  -0.140  -1.057  0.0910 -0.8113  0.4773
  700MOL0     C94407   2.820  -0.214  -1.085  0.0193 -0.0824  0.5798
  700MOL0     C94408   2.849  -0.237  -1.237 -0.1975 -0.2137 -1.0600
  700MOL0    Cl94409   2.732  -0.310  -1.334 -0.1164 -0.2798 -0.4356
  700MOL0     C94410   2.658   0.074  -0.239 -0.3049 -0.8837  2.0150
  700MOL0     C94411   2.664   0.112  -0.104  1.6239  0.4498  0.3427
  700MOL0     O94412   2.436   0.283   0.092  0.3011 -0.4133 -0.1395
  700MOL0     C94413   2.705   0.225   0.333 -0.2217  0.3128 -1.0125
  700MOL0     C94414   2.781   0.292   0.435 -0.1770 -0.0157 -0.1105
  700MOL0     N94415   2.381   0.508   0.845 -1.3911  0.8215  1.0217
  700MOL0     N94416   2.252   0.493   0.817  0.6088 -0.5646  0.2246
  700MOL0     C94417   2.042   0.755   1.719  0.1360 -0.7491  0.3038
  700MOL0     C94418   2.092   0.693   1.824  0.1790  0.0309 -0.3309
  700MOL0     C94419   2.423   0.506   2.102  0.3057  0.5078  0.2284
  700MOL0     C94420   2.398   0.372   2.054  0.9658  0.4340 -0.8014
  700MOL0     C94421   2.439   0.262   2.133  1.1453 -0.1480 -0.4885
  700MOL0     C94422   2.489   0.283   2.261 -0.5989 -0.4611 -1.2703
  700MOL0     O94423   2.532   0.183   2.345  0.4624  0.6254 -0.0258
  700MOL0     C94424   2.430   0.081   2.359  0.4358  0.1414  0.5436
  700MOL0     C94425   2.450  -0.007   2.487  0.1565  0.6414 -0.7974
  700MOL0     C94426   2.595  -0.062   2.482 -1.2880 -0.9551  0.9661
  700MOL0     C94427   2.633  -0.179   2.577  0.4657 -0.3382  0.1371
  700MOL0     C94428   2.561  -0.307   2.550  0.5530 -0.5810 -0.3979
  700MOL0     C94429   2.500  -0.409   2.531 -1.1152 -0.2241  0.4471
  700MOL0     C94430   2.532   0.414   2.302 -0.2610  0.4745  0.2668
  700MOL0     C94431   2.500   0.527   2.221 -1.6607 -0.7375 -1.2038
  700MOL0     C94432   2.554   0.663   2.267  0.0982 -0.7458  0.7513
  700MOL0     H94433   2.415   0.704   1.741  0.3914  0.2704 -0.9320
  700MOL0     H94434   2.346   0.806   1.563  3.8779 -0.9326  4.1733
  700MOL0     H94435   1.878   0.807   1.461  1.8935 -2.2948  4.0772
  700MOL0     H94436   1.899   0.948   1.563 -1.6049 -2.3517  0.7564
  700MOL0     H94437   2.007   1.059   1.357  0.2951 -0.0887  1.2223
  700MOL0     H94438   1.838   1.076   1.383 -2.5565 -2.7272 -0.0989
  700MOL0     H94439   1.851   1.027   1.160 -0.1934 -1.9890 -0.7895
  700MOL0     H94440   1.767   0.915   1.247  1.6639 -2.6007 -0.4032
  700MOL0     H94441   2.045   0.857   1.168 -0.1969  0.8061  1.3236
  700MOL0     H94442   1.919   0.740   1.196 -0.3297  0.5354  1.8974
  700MOL0     H94443   1.789   0.826   0.987 -0.5198  2.4682 -1.1898
  700MOL0     H94444   1.917   0.940   0.952  3.1757 -0.4513  0.6957
  700MOL0     H94445   2.086   0.738   0.968 -0.6089  0.6349  0.8527
  700MOL0     H94446   1.945   0.635   0.956  0.4657  1.2696  3.0440
  700MOL0     H94447   2.037   0.852   0.762 -0.3335 -0.3360 -0.5950
  700MOL0     H94448   1.888   0.765   0.737 -0.1011  2.4633 -0.0768
  700MOL0     H94449   2.014   0.546   0.735  0.4428 -1.4717 -0.6342
  700MOL0     H94450   2.068   0.659   0.604 -0.3355  0.5772  0.2966
  700MOL0     H94451   2.304   0.807   0.715  4.3034  0.5123 -0.4216
  700MOL0     H94452   2.527   0.820   0.793 -4.0723 -0.9025 -1.3061
  700MOL0     H94453   2.559   0.718   0.940  0.1212 -1.5014  0.2633
  700MOL0     H94454   2.700   0.683   0.667  0.3002 -1.6752 -0.7770
  700MOL0     H94455   2.755   0.713   0.829 -1.6582 -0.4941  2.8083
  700MOL0     H94456   2.616   0.466   0.743 -1.0335  3.6557 -1.6901
  700MOL0     H94457   2.735   0.483   0.881 -2.7417 -0.8140 -0.0953
  700MOL0     H94458   2.829   0.351   0.692  0.3659 -0.7533 -3.0494
  700MOL0     H94459   2.923   0.494   0.740 -0.5422 -2.0260  2.4290
  700MOL0     H94460   2.617   0.585   0.436  1.7923  0.7109  0.3373
  700MOL0     H94461   2.503   0.487   0.252 -2.9446 -0.4495  1.9319
  700MOL0     H94462   2.374  -0.048   0.005  0.8540  1.0275  1.9962
  700MOL0     H94463   2.377  -0.119  -0.234  0.3125  0.7137 -7.0432
  700MOL0     H94464   2.639  -0.221  -0.391 -1.0532 -2.7220  0.4776
  700MOL0     H94465   2.465  -0.228  -0.417  0.5104  1.3934  1.9237
  700MOL0     H94466   2.604  -0.315  -0.601  1.2598  0.3771 -2.1434
  700MOL0     H94467   2.487  -0.196  -0.652 -0.7760  2.2439  1.7585
  700MOL0     H94468   2.657  -0.007  -0.671  2.7683  1.1236 -1.8890
  700MOL0     H94469   2.769  -0.113  -0.585 -1.4102 -0.3594  2.0145
  700MOL0     H94470   2.784  -0.251  -0.798 -2.9930 -1.1272  1.4117
  700MOL0     H94471   2.819  -0.082  -0.833  0.6878  0.6926  1.4609
  700MOL0     H94472   2.548  -0.087  -0.894 -0.0456 -1.5494  2.1343
  700MOL0     H94473   2.566  -0.253  -0.899  2.8429 -2.1820 -0.1211
  700MOL0     H94474   2.597  -0.171  -1.115  0.5825  1.5622 -1.7303
  700MOL0     H94475   2.703  -0.036  -1.085  1.6038 -1.7133 -2.1944
  700MOL0     H94476   2.818  -0.311  -1.035  1.6410 -0.1199  0.6251
  700MOL0     H94477   2.909  -0.164  -1.044  1.5360 -0.1184 -2.3643
  700MOL0     H94478   2.872  -0.137  -1.276  0.3145  0.0375 -0.1611
  700MOL0     H94479   2.935  -0.304  -1.244 -0.2277 -0.2473 -1.1057
  700MOL0     H94480   2.734   0.104  -0.310 -1.7665  0.5376  0.9625
  700MOL0     H94481   2.748   0.176  -0.077  1.3856  0.3812  1.2809
  700MOL0     H94482   2.742   0.127   0.304 -0.0411 -0.2689  1.0038
  700MOL0     H94483   2.877   0.256   0.471 -0.6773  0.8191  2.2316
  700MOL0     H94484   1.935   0.766   1.720 -0.0352 -2.1831  1.9395
  700MOL0     H94485   2.025   0.666   1.904 -0.0192 -0.8869 -0.7933
  700MOL0     H94486   2.349   0.348   1.960  0.9000 -1.8914 -0.2246
  700MOL0     H94487   2.398   0.165   2.103  1.5701 -0.6246  0.4279
  700MOL0     H94488   2.430   0.022   2.267  0.4804  5.0822 -3.0288
  700MOL0     H94489   2.333   0.131   2.357  0.3157 -0.0998  0.4783
  700MOL0     H94490   2.385  -0.095   2.476  0.9934 -0.6436  2.9525
  700MOL0     H94491   2.416   0.040   2.580 -2.9344 -1.9154 -0.4654
  700MOL0     H94492   2.665   0.005   2.532 -1.2707 -0.4311  0.2511
  700MOL0     H94493   2.619  -0.076   2.376 -3.4844 -2.7920  0.6273
  700MOL0     H94494   2.738  -0.209   2.575  0.9709  1.2243  1.2686
  700MOL0     H94495   2.615  -0.147   2.680  1.0202  0.1099  0.1009
  700MOL0     H94496   2.449  -0.502   2.521 -1.3223 -0.0720  0.0277
  700MOL0     H94497   2.584   0.420   2.397  0.7041  0.1494 -0.2156
  700MOL0     H94498   2.598   0.661   2.368  0.6345 -1.1876  0.5158
  700MOL0     H94499   2.629   0.677   2.188 -1.0143  1.8438  0.0615
  700MOL0     H94500   2.484   0.746   2.255 -2.3448 -2.6155  1.2587
  701MOL0     O94501   5.870  10.560   0.262  0.0487  0.1569 -0.6457
  701MOL0     C94502   5.932  10.459   0.274 -0.6458  0.3783  0.6276
  701MOL0     O94503   6.062  10.439   0.248  0.2508 -0.0304 -0.4212
  701MOL0     C94504   6.133  10.543   0.192  0.7316  0.8980  0.1806
  701MOL0     C94505   6.188  10.630   0.279 -0.5182  0.3301 -0.5651
  701MOL0     C94506   6.271  10.726   0.225  0.2719 -0.8286  0.3858
  701MOL0     C94507   6.280  10.750   0.088 -0.1418 -1.0272 -0.5126
  701MOL0     O94508   6.354  10.860   0.037 -0.3548  0.8843  0.2251
  701MOL0     C94509   6.456  10.915   0.123  0.7498 -0.2778  0.5121
  701MOL0     C94510   6.589  10.840   0.095  0.2309  0.3532  0.2128
  701MOL0     C94511   6.591  10.711   0.161  0.0958  0.3957  0.6652
  701MOL0     C94512   6.708  10.614   0.141  0.1848  0.2725 -0.4728
  701MOL0     C94513   6.667  10.475   0.151 -0.1529  0.0128 -0.4247
  701MOL0     C94514   6.782  10.383   0.153 -0.0385  0.3404 -0.8132
  701MOL0     C94515   6.747  10.238   0.195  0.3226 -0.6078 -0.0481
  701MOL0     C94516   6.861  10.143   0.182 -0.2998  0.1550  1.0001
  701MOL0     N94517   6.928  10.155   0.048 -0.1740  0.3093  0.6387
  701MOL0     C94518   6.868  10.096  -0.064  0.5021 -0.7472 -0.2918
  701MOL0     C94519   6.964  10.113  -0.164 -0.0312  0.4772 -0.2720
  701MOL0     C94520   6.943  10.055  -0.311 -0.6786  0.2159 -1.1008
  701MOL0     C94521   7.049   9.950  -0.335 -0.1062  0.4104 -0.1612
  701MOL0     C94522   7.010   9.824  -0.265 -0.0114 -0.0330  0.2269
  701MOL0     C94523   7.117   9.707  -0.262  0.3339  0.5657 -0.5008
  701MOL0     O94524   7.175   9.689  -0.397  0.6749  0.2642 -0.1653
  701MOL0     C94525   7.221   9.566  -0.418 -0.8773  0.6093 -0.6023
  701MOL0     C94526   7.160   9.486  -0.516 -0.3573 -0.5736  0.1138
  701MOL0     C94527   7.209   9.361  -0.538  0.7124  0.3357  0.3267
  701MOL0     C94528   7.333   9.323  -0.486  0.0753  0.5799  0.4731
  701MOL0     C94529   7.388   9.188  -0.521  0.6948  0.5844  0.0477
  701MOL0     O94530   7.295   9.094  -0.555 -0.2978 -0.3265 -1.4045
  701MOL0     C94531   7.328   8.962  -0.588 -0.0963 -0.5385 -0.4316
  701MOL0     C94532   7.454   8.917  -0.627  0.1618 -0.2492  0.8350
  701MOL0     C94533   7.477   8.788  -0.662 -0.2912 -0.5334  1.1642
  701MOL0     C94534   7.380   8.693  -0.657 -0.0637 -0.1034  0.8510
  701MOL0     O94535   7.400   8.564  -0.694  0.4823 -0.8827 -0.3217
  701MOL0     C94536   7.293   8.488  -0.750 -0.4354  0.4530 -0.3488
  701MOL0     C94537   7.342   8.349  -0.759  0.2425  0.5450 -1.0973
  701MOL0     C94538   7.242   8.253  -0.821  0.8841 -0.7815  0.7381
  701MOL0     C94539   7.274   8.106  -0.828 -0.2606  0.4559 -0.1722
  701MOL0     C94540   7.170   8.035  -0.912 -0.3599 -0.3219  0.6331
  701MOL0     C94541   7.029   8.017  -0.849 -0.7821 -0.5654 -0.1920
  701MOL0     C94542   7.011   7.956  -0.712 -0.7791 -0.1177  0.1553
  701MOL0     C94543   6.875   7.894  -0.687  1.1508  0.3588 -0.9895
  701MOL0    Cl94544   6.854   7.749  -0.804 -0.0149 -0.0620 -0.2791
  701MOL0     C94545   7.253   8.733  -0.619 -0.3456  0.3322 -0.4114
  701MOL0     C94546   7.229   8.865  -0.587  0.7872 -0.6057 -0.3673
  701MOL0     O94547   7.505   9.165  -0.499 -0.8927 -0.1898 -0.1777
  701MOL0     C94548   7.397   9.395  -0.384  0.3856  0.0205  0.8977
  701MOL0     C94549   7.336   9.524  -0.354 -0.5760  0.2216 -0.7255
  701MOL0     N94550   7.079  10.179  -0.108  0.2644  0.0190  0.5163
  701MOL0     N94551   7.055  10.195   0.022  0.0340  0.4740  0.3283
  701MOL0     C94552   6.223  10.659   0.000  0.0623  0.2327 -0.4708
  701MOL0     C94553   6.148  10.556   0.051  0.0343  0.8226  0.0737
  701MOL0     C94554   5.843  10.338   0.299 -0.1883  0.2089 -0.1174
  701MOL0     C94555   5.731  10.354   0.380  0.2383  1.3424 -0.5414
  701MOL0     C94556   5.648  10.243   0.403 -0.8273  0.3414 -0.5945
  701MOL0     C94557   5.663  10.112   0.360  0.1889 -0.2730 -0.3352
  701MOL0     O94558   5.571  10.015   0.385 -0.1959  0.3028 -1.4002
  701MOL0     C94559   5.516   9.934   0.282 -0.2992 -0.1483 -0.5806
  701MOL0     C94560   5.414  10.012   0.204  0.3398  0.5139  0.2056
  701MOL0     C94561   5.339   9.925   0.085 -0.2464 -0.7715  0.1062
  701MOL0     C94562   5.239   9.829   0.135 -1.2359 -0.3748 -0.7598
  701MOL0     C94563   5.192   9.736   0.037  0.4122  0.8111  0.7835
  701MOL0     C94564   5.155   9.649  -0.041  0.1104 -0.6940 -0.0833
  701MOL0     C94565   5.778  10.099   0.276  1.4435  0.1592  0.4026
  701MOL0     C94566   5.860  10.196   0.240 -0.8853 -0.4174 -0.5885
  701MOL0     C94567   5.968  10.161   0.136  0.5227  0.3086  1.0274
  701MOL0     H94568   6.185  10.619   0.387  0.5477 -1.0215 -0.6376
  701MOL0     H94569   6.307  10.792   0.304 -0.2065 -0.5318  0.3597
  701MOL0     H94570   6.470  11.015   0.080 -0.5889 -1.0183 -1.8414
  701MOL0     H94571   6.422  10.923   0.227 -1.2457 -0.9232 -0.0519
  701MOL0     H94572   6.667  10.912   0.118  1.1150  0.8033 -3.6078
  701MOL0     H94573   6.592  10.818  -0.012  1.0889  3.5432 -0.5104
  701MOL0     H94574   6.501  10.663   0.121  0.8676  2.0764 -3.6529
  701MOL0     H94575   6.575  10.710   0.269  2.8927  1.0474  1.1697
  701MOL0     H94576   6.756  10.633   0.044  0.6129 -1.1458 -0.5562
  701MOL0     H94577   6.780  10.642   0.218 -1.4649  0.6291  1.0041
  701MOL0     H94578   6.605  10.459   0.240 -0.5011 -0.8631 -0.8116
  701MOL0     H94579   6.604  10.447   0.067 -2.4668  0.4200  1.0804
  701MOL0     H94580   6.818  10.383   0.050 -2.3409 -0.5396 -1.6994
  701MOL0     H94581   6.856  10.420   0.225 -0.6231 -0.0497  0.0080
  701MOL0     H94582   6.664  10.210   0.130 -2.3359  2.2515  1.8444
  701MOL0     H94583   6.711  10.225   0.297 -0.8943  0.7579 -0.2792
  701MOL0     H94584   6.922  10.176   0.267 -2.9070 -3.5726  4.7452
  701MOL0     H94585   6.834  10.038   0.197 -2.0743  0.5712  0.9930
  701MOL0     H94586   6.771  10.047  -0.066 -0.0615  0.3612 -1.8797
  701MOL0     H94587   6.841  10.019  -0.329 -1.8613  3.1416 -0.7466
  701MOL0     H94588   6.946  10.133  -0.388  0.5809 -2.0074 -3.4563
  701MOL0     H94589   7.068   9.921  -0.439  0.1325 -1.2281  0.3021
  701MOL0     H94590   7.143   9.986  -0.293  1.4037 -1.7386 -1.4841
  701MOL0     H94591   6.931   9.789  -0.332  0.0531  1.4335 -0.6529
  701MOL0     H94592   6.968   9.851  -0.168  2.6405  4.8277  0.3524
  701MOL0     H94593   7.067   9.615  -0.229 -0.0513 -0.3291 -3.2800
  701MOL0     H94594   7.202   9.731  -0.197  3.0164  2.1759 -4.2411
  701MOL0     H94595   7.074   9.528  -0.568 -0.7850  0.4166  1.5534
  701MOL0     H94596   7.148   9.294  -0.597 -2.1618  1.6473  1.5971
  701MOL0     H94597   7.541   8.977  -0.647 -0.1231 -0.2157 -0.3351
  701MOL0     H94598   7.577   8.765  -0.697  1.4501  0.2970  4.9955
  701MOL0     H94599   7.221   8.478  -0.669  1.5838 -1.1165  1.3820
  701MOL0     H94600   7.247   8.528  -0.841 -2.4275  1.7198  1.1466
  701MOL0     H94601   7.435   8.348  -0.817  1.2134  0.5533  0.4266
  701MOL0     H94602   7.356   8.306  -0.659  2.1393  3.3798 -0.0273
  701MOL0     H94603   7.150   8.268  -0.763  0.3676  0.5541 -0.3671
  701MOL0     H94604   7.229   8.290  -0.924  4.4273 -1.2160  0.0140
  701MOL0     H94605   7.262   8.069  -0.726 -1.7530 -1.2469 -0.9090
  701MOL0     H94606   7.372   8.078  -0.869 -0.9979 -1.5148 -0.6988
  701MOL0     H94607   7.204   7.934  -0.939  2.3876  0.8824 -0.8294
  701MOL0     H94608   7.145   8.089  -1.004  0.9789  2.9342  2.0464
  701MOL0     H94609   6.987   8.117  -0.847  1.7365  0.7730 -3.5800
  701MOL0     H94610   6.972   7.963  -0.925 -0.8167  1.2778 -1.5510
  701MOL0     H94611   7.052   8.014  -0.628 -1.0406  0.9507 -0.4496
  701MOL0     H94612   7.080   7.871  -0.718 -2.0916 -1.1997 -0.1640
  701MOL0     H94613   6.886   7.863  -0.583 -0.8540 -1.9524 -1.3988
  701MOL0     H94614   6.786   7.958  -0.686  2.3846  2.1636 -1.2645
  701MOL0     H94615   7.170   8.664  -0.608 -1.2457  1.1877 -1.6515
  701MOL0     H94616   7.141   8.913  -0.545  0.0452 -2.3390  0.1309
  701MOL0     H94617   7.485   9.367  -0.327 -0.3551  1.5399  2.9062
  701MOL0     H94618   7.378   9.575  -0.268 -3.1595 -1.3896  1.6966
  701MOL0     H94619   6.239  10.673  -0.106  2.2072 -0.0853 -0.2237
  701MOL0     H94620   6.101  10.484  -0.015  0.1885 -2.4088  3.1747
  701MOL0     H94621   5.705  10.452   0.420  0.4188  1.1988 -0.0579
  701MOL0     H94622   5.568  10.273   0.469 -0.1026  2.1114 -0.4685
  701MOL0     H94623   5.456   9.864   0.340  1.8888 -1.2719  0.4343
  701MOL0     H94624   5.583   9.875   0.220 -0.2273 -0.1311 -0.5187
  701MOL0     H94625   5.468  10.098   0.163 -1.1289  1.7586  0.7845
  701MOL0     H94626   5.337  10.053   0.270  1.2368 -1.2602  2.5008
  701MOL0     H94627   5.421   9.880   0.028 -0.8894 -0.1621 -1.3647
  701MOL0     H94628   5.292  10.003   0.025 -1.7278 -1.6621  0.0434
  701MOL0     H94629   5.269   9.761   0.215  0.5397  0.9440 -0.2445
  701MOL0     H94630   5.152   9.883   0.174 -1.7556 -1.2977 -0.6304
  701MOL0     H94631   5.102   9.578  -0.101 -0.4684 -0.7756  0.5046
  701MOL0     H94632   5.807   9.999   0.243  0.8342 -0.0034  0.3475
  701MOL0     H94633   6.070  10.141   0.170  0.3356  0.5414  1.7508
  701MOL0     H94634   5.935  10.074   0.079 -1.0264  3.3264 -3.2341
  701MOL0     H94635   5.977  10.234   0.054  0.8364  1.8796  2.4011
  702MOL0     O94636   6.757   7.279  11.476  0.1814  0.3294  0.2804
  702MOL0     C94637   6.806   7.174  11.519 -0.1113 -0.2310 -0.5052
  702MOL0     O94638   6.902   7.169  11.615  0.3469 -0.0905 -0.4893
  702MOL0     C94639   6.960   7.281  11.674  0.1049 -0.9250 -0.4948
  702MOL0     C94640   6.881   7.386  11.710  0.5294 -0.4162  0.1089
  702MOL0     C94641   6.946   7.498  11.779 -0.2780 -0.2080 -0.8182
  702MOL0     C94642   7.082   7.501  11.815  1.3374  1.1950  0.2010
  702MOL0     O94643   7.120   7.607  11.884  0.4449 -0.4548 -0.2284
  702MOL0     C94644   7.234   7.595  11.962 -0.5084 -0.3211 -0.2532
  702MOL0     C94645   7.245   7.695  12.079 -0.1738  0.4652  0.6954
  702MOL0     C94646   7.199   7.834  12.044  0.4689  0.3185  0.8180
  702MOL0     C94647   7.044   7.853  12.072 -0.1128  0.5365 -0.0826
  702MOL0     C94648   6.995   7.988  12.025 -0.1655 -0.7105 -0.1383
  702MOL0     C94649   6.851   8.021  12.081  0.2060 -0.8613 -0.3231
  702MOL0     C94650   6.795   8.155  12.037  0.2584  0.1702  1.1347
  702MOL0     C94651   6.721   8.221  12.142  0.1916  1.0515 -1.4188
  702MOL0     N94652   6.685   8.358  12.107 -0.5358  0.4034 -0.1455
  702MOL0     C94653   6.554   8.408  12.097 -0.0331  0.1868  0.0574
  702MOL0     C94654   6.570   8.544  12.079 -0.3377  0.1700  0.3200
  702MOL0     C94655   6.456   8.629  12.056 -0.6428  0.3333  0.2032
  702MOL0     C94656   6.393   8.688  12.183  0.3676 -0.7996  0.1244
  702MOL0     C94657   6.243   8.736  12.170  0.6841  0.8113  0.5824
  702MOL0     C94658   6.232   8.865  12.085 -0.7789 -0.6544 -0.2213
  702MOL0     O94659   6.232   8.857  11.944 -0.0838 -0.1997 -0.9287
  702MOL0     C94660   6.116   8.826  11.883 -0.8228  0.1061  0.1769
  702MOL0     C94661   6.144   8.778  11.756  0.2389 -0.6173  0.0990
  702MOL0     C94662   6.048   8.756  11.664  0.3037 -0.2861  0.1304
  702MOL0     C94663   5.914   8.783  11.697 -0.8108 -0.4389 -0.5595
  702MOL0     C94664   5.805   8.770  11.600  0.1086 -0.2475  0.2290
  702MOL0     O94665   5.680   8.780  11.655 -0.5032 -0.1568  1.2480
  702MOL0     C94666   5.577   8.738  11.574  0.3472  0.8838 -0.3270
  702MOL0     C94667   5.519   8.825  11.485 -0.0440  0.3632  0.4205
  702MOL0     C94668   5.405   8.794  11.404 -0.8002  0.8441  0.1270
  702MOL0     C94669   5.350   8.666  11.423 -0.5099 -0.6022  0.8945
  702MOL0     O94670   5.256   8.618  11.338  1.1136 -0.2932  0.6364
  702MOL0     C94671   5.279   8.602  11.191 -0.0844 -0.4512  0.6781
  702MOL0     C94672   5.146   8.627  11.107 -0.5689 -0.4001 -0.4662
  702MOL0     C94673   5.043   8.519  11.098 -0.0148 -0.0208 -0.6470
  702MOL0     C94674   4.978   8.492  11.229 -0.5049  0.5262  0.1260
  702MOL0     C94675   4.867   8.391  11.222 -0.4418  0.1856  0.4500
  702MOL0     C94676   4.912   8.248  11.174  0.1504 -0.1010  0.9729
  702MOL0     C94677   4.909   8.144  11.281  0.3927 -0.1973 -0.3401
  702MOL0     C94678   5.035   8.051  11.278  0.0692 -1.0503 -0.2170
  702MOL0    Cl94679   5.195   8.129  11.304  0.2859 -0.9600 -0.3083
  702MOL0     C94680   5.408   8.569  11.508  0.0408  0.2056 -0.6886
  702MOL0     C94681   5.530   8.605  11.582  0.5967 -0.0226  0.3898
  702MOL0     O94682   5.835   8.750  11.480 -0.2331  0.1259  0.2364
  702MOL0     C94683   5.878   8.829  11.830 -0.4860  0.2150 -0.4437
  702MOL0     C94684   5.984   8.857  11.927 -0.0001  0.1455  0.6618
  702MOL0     N94685   6.708   8.574  12.100 -0.4300 -0.9213  0.1237
  702MOL0     N94686   6.769   8.462  12.115  0.6225 -0.5352 -0.6762
  702MOL0     C94687   7.158   7.389  11.770 -0.0267 -0.5146 -0.0181
  702MOL0     C94688   7.101   7.285  11.700  0.4827 -0.1624 -0.3557
  702MOL0     C94689   6.767   7.042  11.460 -0.3422 -0.6963 -0.7556
  702MOL0     C94690   6.852   6.930  11.490  0.1647  1.0132  0.3523
  702MOL0     C94691   6.835   6.805  11.429  0.1362  0.2460 -0.2660
  702MOL0     C94692   6.728   6.779  11.347  0.1487  0.9439 -0.5713
  702MOL0     O94693   6.719   6.651  11.295  0.0678 -0.3424 -0.0918
  702MOL0     C94694   6.588   6.584  11.306 -0.0564 -0.7705  0.7735
  702MOL0     C94695   6.601   6.429  11.325 -0.0341 -0.1779  0.3049
  702MOL0     C94696   6.724   6.397  11.417  0.4074  0.1664  0.6054
  702MOL0     C94697   6.711   6.272  11.496  0.2950 -0.2741 -0.3957
  702MOL0     C94698   6.716   6.153  11.409  1.9722 -0.2731  0.3142
  702MOL0     C94699   6.707   6.048  11.342 -0.4076  0.4946 -0.4381
  702MOL0     C94700   6.634   6.879  11.333 -0.0576 -0.4102  0.1406
  702MOL0     C94701   6.653   7.012  11.372 -0.7996 -0.1578 -0.2109
  702MOL0     C94702   6.535   7.105  11.340  0.3604  0.1725 -0.0752
  702MOL0     H94703   6.776   7.398  11.685  0.4742  1.2106  0.9723
  702MOL0     H94704   6.885   7.584  11.806  2.1636  1.1656  0.6254
  702MOL0     H94705   7.242   7.488  11.985 -1.6498 -0.1527  1.0315
  702MOL0     H94706   7.325   7.609  11.902 -0.4277  2.1417  0.3265
  702MOL0     H94707   7.347   7.694  12.117 -0.3747 -0.0270  1.2391
  702MOL0     H94708   7.180   7.678  12.165  0.0096  2.4402  1.2747
  702MOL0     H94709   7.218   7.843  11.937 -3.7847 -0.1305 -0.1691
  702MOL0     H94710   7.263   7.909  12.091  1.2554  0.5008 -0.5177
  702MOL0     H94711   6.983   7.786  12.010  0.4426  1.6531 -1.9052
  702MOL0     H94712   7.040   7.844  12.181  1.4093 -0.3710 -0.0804
  702MOL0     H94713   7.063   8.069  12.053  0.0052 -1.2009  0.8955
  702MOL0     H94714   6.991   7.979  11.916  2.6974  1.7959 -0.5737
  702MOL0     H94715   6.779   7.942  12.059  0.5076 -0.9964 -0.8549
  702MOL0     H94716   6.870   8.026  12.189 -1.4856 -1.5255  0.0373
  702MOL0     H94717   6.735   8.135  11.948  4.2359 -2.4572 -1.2581
  702MOL0     H94718   6.883   8.218  12.022 -0.8176  1.1221 -1.9039
  702MOL0     H94719   6.640   8.156  12.174  2.0130  0.1638  1.7681
  702MOL0     H94720   6.783   8.230  12.232 -2.1670  0.4816  0.3520
  702MOL0     H94721   6.460   8.356  12.082  0.1797  0.3906 -2.4287
  702MOL0     H94722   6.484   8.720  12.002 -2.1931 -0.8430 -2.7943
  702MOL0     H94723   6.382   8.572  12.000  1.1530 -1.7226 -0.2003
  702MOL0     H94724   6.386   8.624  12.271 -5.4424 -0.6253  0.1628
  702MOL0     H94725   6.455   8.775  12.209 -2.7161  1.9525 -1.0213
  702MOL0     H94726   6.195   8.741  12.267  0.4625  3.2311  0.4026
  702MOL0     H94727   6.185   8.676  12.099 -2.7308  3.1499  1.2089
  702MOL0     H94728   6.328   8.915  12.100 -0.1883 -1.4995 -1.0355
  702MOL0     H94729   6.156   8.934  12.124 -0.2337  0.4235 -0.9977
  702MOL0     H94730   6.247   8.752  11.734  0.6712  0.7209  0.4468
  702MOL0     H94731   6.071   8.712  11.567 -1.0473 -0.1799 -0.2653
  702MOL0     H94732   5.565   8.922  11.471  4.3410 -1.8415 -2.8119
  702MOL0     H94733   5.371   8.862  11.326 -1.1192  2.8593  1.9244
  702MOL0     H94734   5.359   8.671  11.162 -1.0382  1.4068  2.2533
  702MOL0     H94735   5.310   8.500  11.162  2.7841  0.1579  1.2764
  702MOL0     H94736   5.123   8.731  11.133  0.3060  0.3646 -2.4988
  702MOL0     H94737   5.178   8.647  11.004 -0.7168  0.8962 -0.2753
  702MOL0     H94738   4.956   8.546  11.038 -1.0120  0.1933  0.8319
  702MOL0     H94739   5.089   8.432  11.051  1.4327  0.0502  0.5347
  702MOL0     H94740   4.937   8.590  11.254  0.7885  3.0645 -6.0207
  702MOL0     H94741   5.052   8.459  11.302 -0.2013  1.0039  0.0410
  702MOL0     H94742   4.782   8.423  11.161 -2.6357  0.7054  3.5049
  702MOL0     H94743   4.823   8.388  11.323  0.4965  1.1152  0.9074
  702MOL0     H94744   4.846   8.216  11.093  0.6115  3.8442 -1.1785
  702MOL0     H94745   5.009   8.247  11.123 -0.9466 -2.9358 -1.3664
  702MOL0     H94746   4.826   8.075  11.262 -0.1902  0.1319  0.9382
  702MOL0     H94747   4.887   8.174  11.384 -0.7427 -5.4336  1.2259
  702MOL0     H94748   5.030   7.966  11.346 -2.6171 -1.1951 -0.4783
  702MOL0     H94749   5.052   8.004  11.181 -3.1623 -2.5170 -0.2202
  702MOL0     H94750   5.373   8.466  11.511 -2.0224  0.8691  0.6503
  702MOL0     H94751   5.585   8.551  11.658 -1.4078  1.0254  2.7246
  702MOL0     H94752   5.773   8.841  11.855 -0.2059  0.0809  0.8503
  702MOL0     H94753   5.975   8.907  12.023  0.8952 -0.3721  1.0272
  702MOL0     H94754   7.265   7.401  11.785 -0.4628  0.5133  3.1670
  702MOL0     H94755   7.163   7.203  11.665 -0.2951 -0.6313 -0.6699
  702MOL0     H94756   6.949   6.942  11.537  0.1203 -1.1035  1.0942
  702MOL0     H94757   6.913   6.732  11.448  1.1160  0.7003 -2.1982
  702MOL0     H94758   6.535   6.602  11.212  0.7796 -1.4511  0.1627
  702MOL0     H94759   6.532   6.622  11.393 -0.0677  0.6389  0.1662
  702MOL0     H94760   6.622   6.382  11.228  1.2909 -0.7799  0.8620
  702MOL0     H94761   6.514   6.382  11.371 -1.9455  1.6317 -1.2450
  702MOL0     H94762   6.754   6.478  11.484  0.0228  2.0887 -1.4068
  702MOL0     H94763   6.815   6.374  11.361 -1.3707 -1.8188 -1.7354
  702MOL0     H94764   6.803   6.272  11.555  2.5946 -1.1280 -3.6924
  702MOL0     H94765   6.616   6.279  11.549  0.8837 -0.0606  0.6611
  702MOL0     H94766   6.684   5.952  11.300  2.2665 -1.6630  2.5007
  702MOL0     H94767   6.547   6.837  11.283  2.0122 -1.1397 -3.1175
  702MOL0     H94768   6.529   7.145  11.238  2.9263 -1.3735 -0.9218
  702MOL0     H94769   6.440   7.057  11.366 -3.1643  4.2250 -3.7814
  702MOL0     H94770   6.543   7.186  11.413  0.7493 -1.7619  2.1468
  703MOL0     O94771  11.402   3.424  11.353  0.1179  0.0551 -0.1568
  703MOL0     C94772  11.349   3.438  11.246 -0.3955  0.3739 -0.0839
  703MOL0     O94773  11.218   3.459  11.232  1.0356  0.1816  0.4680
  703MOL0     C94774  11.129   3.400  11.328  0.0720  0.3534  0.1612
  703MOL0     C94775  11.006   3.468  11.351 -0.1334  0.2116 -0.3273
  703MOL0     C94776  10.901   3.412  11.429 -0.4792 -0.2200 -0.2594
  703MOL0     C94777  10.930   3.296  11.503 -0.4320 -0.5117  0.5963
  703MOL0     O94778  10.855   3.224  11.594 -0.4449  0.2251 -0.5707
  703MOL0     C94779  10.757   3.308  11.650  0.1119  0.1640  0.2133
  703MOL0     C94780  10.671   3.231  11.750 -1.0570 -0.5169  1.3092
  703MOL0     C94781  10.741   3.178  11.879  0.5601  0.6512  0.2100
  703MOL0     C94782  10.648   3.120  11.979  0.3457 -0.3275 -0.5716
  703MOL0     C94783  10.702   2.996  12.048  0.5563  0.7488 -0.4829
  703MOL0     C94784  10.616   2.970  12.178  0.2970 -0.2608  1.0326
  703MOL0     C94785  10.466   2.927  12.152 -0.2265  0.8074  0.3706
  703MOL0     C94786  10.461   2.770  12.132 -0.0900 -0.6418  0.2753
  703MOL0     N94787  10.447   2.689  12.260  0.0816  0.2247  1.0495
  703MOL0     C94788  10.335   2.634  12.321  0.0544 -0.3867  0.0049
  703MOL0     C94789  10.385   2.555  12.420  0.3228 -0.9935 -0.8104
  703MOL0     C94790  10.290   2.493  12.515 -0.4109 -0.5364  0.6630
  703MOL0     C94791  10.213   2.593  12.599  0.3860  0.1968  0.1199
  703MOL0     C94792  10.299   2.641  12.725 -0.1901 -0.6163  0.1174
  703MOL0     C94793  10.354   2.784  12.704  0.4678  0.3708 -0.2798
  703MOL0     O94794  10.469   2.815  12.778  0.2854 -0.8956  0.2663
  703MOL0     C94795  10.548   2.901  12.713  1.2463  0.1266  0.6643
  703MOL0     C94796  10.557   3.034  12.753  0.4808 -0.2359 -0.9307
  703MOL0     C94797  10.648   3.125  12.685  0.8383  1.4941  0.5855
  703MOL0     C94798  10.722   3.088  12.575  0.3054  0.1536 -0.0388
  703MOL0     C94799  10.796   3.193  12.484 -0.8097 -0.1414 -0.0588
  703MOL0     O94800  10.831   3.147  12.359 -0.7170  0.5496  0.2957
  703MOL0     C94801  10.904   3.213  12.271 -1.3540 -0.0398 -1.5267
  703MOL0     C94802  10.991   3.126  12.206  0.1475 -0.0480 -0.6387
  703MOL0     C94803  11.081   3.178  12.113  0.4027 -0.3991  0.8606
  703MOL0     C94804  11.078   3.320  12.090 -0.1021 -0.0706 -0.5432
  703MOL0     O94805  11.175   3.376  12.013  0.4782 -0.5665  0.9442
  703MOL0     C94806  11.143   3.360  11.875  0.3575 -0.2373  0.0976
  703MOL0     C94807  11.249   3.285  11.804 -0.7572 -0.1760  0.2895
  703MOL0     C94808  11.392   3.351  11.820 -0.3085  0.4035 -0.5245
  703MOL0     C94809  11.481   3.332  11.706 -0.1853  0.5007 -0.1673
  703MOL0     C94810  11.609   3.404  11.727  0.0167 -0.3883 -0.9958
  703MOL0     C94811  11.717   3.363  11.624  0.0821  0.2827 -0.2887
  703MOL0     C94812  11.855   3.411  11.667  0.9338 -0.7136  0.2779
  703MOL0     C94813  11.920   3.322  11.770 -0.2588 -0.3853  0.4584
  703MOL0    Cl94814  11.965   3.151  11.712 -0.0367  0.0005  0.1636
  703MOL0     C94815  10.978   3.397  12.155 -0.3179  0.2923  0.2914
  703MOL0     C94816  10.896   3.341  12.250  0.8546  0.1598  0.5338
  703MOL0     O94817  10.830   3.301  12.535 -1.1761 -0.4750  0.3558
  703MOL0     C94818  10.710   2.951  12.545 -0.0657 -0.0834 -0.1382
  703MOL0     C94819  10.627   2.855  12.608  0.0191  0.3111  1.1871
  703MOL0     N94820  10.521   2.553  12.414 -0.3003 -0.6947  0.6817
  703MOL0     N94821  10.558   2.628  12.315  1.2080 -0.0197  0.4243
  703MOL0     C94822  11.055   3.235  11.490 -0.4501 -0.2032  0.0665
  703MOL0     C94823  11.151   3.288  11.409  0.1526  0.8311  0.2660
  703MOL0     C94824  11.436   3.443  11.125 -0.4441 -0.3017 -0.7922
  703MOL0     C94825  11.483   3.569  11.064 -0.0057  0.6219 -0.4014
  703MOL0     C94826  11.573   3.566  10.954 -0.2158 -0.4084 -1.9890
  703MOL0     C94827  11.604   3.443  10.889 -0.7391 -0.1672 -0.6646
  703MOL0     O94828  11.687   3.448  10.771  0.7507 -0.0583 -0.1424
  703MOL0     C94829  11.779   3.339  10.750  0.7578 -0.2742 -0.0740
  703MOL0     C94830  11.855   3.373  10.624  0.6181  1.0289 -0.2133
  703MOL0     C94831  11.936   3.252  10.607  0.5074  0.1573 -0.7384
  703MOL0     C94832  12.018   3.266  10.475  0.4370  0.0686 -0.6024
  703MOL0     C94833  12.111   3.375  10.471  0.3230  0.6945  0.7885
  703MOL0     C94834  12.190   3.469  10.479 -0.7687 -0.0606 -0.8724
  703MOL0     C94835  11.573   3.322  10.950 -0.4721  0.0538 -1.1066
  703MOL0     C94836  11.482   3.317  11.062  0.6156 -0.4859  0.4365
  703MOL0     C94837  11.450   3.178  11.132  0.2324 -0.2570  0.0867
  703MOL0     H94838  10.994   3.562  11.297  0.0536 -1.4179 -3.3916
  703MOL0     H94839  10.808   3.462  11.454 -1.2971 -1.9596  0.3445
  703MOL0     H94840  10.794   3.397  11.703  1.0878 -0.6074  0.8530
  703MOL0     H94841  10.684   3.337  11.573  0.8992 -2.2529 -1.5701
  703MOL0     H94842  10.644   3.138  11.698 -0.0426 -0.2338  0.2324
  703MOL0     H94843  10.576   3.280  11.774  0.3002  3.4522 -0.5256
  703MOL0     H94844  10.799   3.255  11.932  0.5323  1.5974 -1.0991
  703MOL0     H94845  10.804   3.096  11.846 -1.3052 -0.2931 -1.1598
  703MOL0     H94846  10.611   3.184  12.059 -1.8182 -0.8757 -1.0620
  703MOL0     H94847  10.558   3.084  11.927 -1.5242  0.6648  1.7951
  703MOL0     H94848  10.695   2.905  11.989  0.0016 -0.1338  0.8964
  703MOL0     H94849  10.805   2.999  12.086  0.6451 -0.3300 -0.6157
  703MOL0     H94850  10.666   2.898  12.245 -0.9900 -0.3679  1.9071
  703MOL0     H94851  10.611   3.064  12.234  0.1284  1.5137 -1.8023
  703MOL0     H94852  10.411   2.968  12.067 -0.3197 -1.5475 -0.7828
  703MOL0     H94853  10.399   2.958  12.232  0.5800 -1.9159  2.2458
  703MOL0     H94854  10.372   2.755  12.070  0.0653  0.0970 -0.1444
  703MOL0     H94855  10.546   2.734  12.072  0.8798  2.6242 -0.5554
  703MOL0     H94856  10.234   2.666  12.295  0.6625  1.7894  0.0961
  703MOL0     H94857  10.222   2.424  12.464  0.2473 -1.2290  0.7017
  703MOL0     H94858  10.341   2.425  12.584 -0.4945 -0.6260  0.6354
  703MOL0     H94859  10.195   2.675  12.530 -1.3279 -1.5160 -1.5953
  703MOL0     H94860  10.118   2.549  12.631  0.1523 -1.3336 -2.3822
  703MOL0     H94861  10.391   2.582  12.736 -1.4900 -2.8981 -0.4747
  703MOL0     H94862  10.239   2.630  12.815 -1.6542  1.4646 -0.5314
  703MOL0     H94863  10.276   2.850  12.743 -3.3724 -1.6988 -3.6883
  703MOL0     H94864  10.368   2.797  12.597  1.7740 -2.4724 -0.5452
  703MOL0     H94865  10.506   3.077  12.839  2.6624  3.7969 -1.3554
  703MOL0     H94866  10.645   3.232  12.702  0.2919  1.7941 -1.1681
  703MOL0     H94867  11.014   3.026  12.241  1.7176 -0.2594 -2.1334
  703MOL0     H94868  11.154   3.121  12.056 -3.1033 -0.5969 -4.0714
  703MOL0     H94869  11.044   3.312  11.873  0.4550 -0.7303  2.8988
  703MOL0     H94870  11.125   3.452  11.820 -1.8592 -1.2328 -0.9748
  703MOL0     H94871  11.247   3.187  11.851 -0.1612 -1.4803 -2.2538
  703MOL0     H94872  11.214   3.280  11.701 -2.7400  0.0102  0.9129
  703MOL0     H94873  11.386   3.459  11.834  2.2281  0.4669  0.5715
  703MOL0     H94874  11.433   3.310  11.913  1.1049  2.2287 -0.3106
  703MOL0     H94875  11.429   3.365  11.616  1.0707 -1.5876 -1.7831
  703MOL0     H94876  11.512   3.227  11.694 -2.0612 -0.1492  0.3395
  703MOL0     H94877  11.644   3.380  11.828 -2.3133 -0.9115 -0.2679
  703MOL0     H94878  11.599   3.513  11.727  1.0871 -0.2648 -2.1966
  703MOL0     H94879  11.733   3.255  11.624  1.2834  0.3324  3.3782
  703MOL0     H94880  11.695   3.401  11.523 -2.5012  1.7392  0.7292
  703MOL0     H94881  11.853   3.509  11.717  0.7812 -2.3331  3.7730
  703MOL0     H94882  11.914   3.428  11.576  1.4974  0.0830  0.7724
  703MOL0     H94883  12.017   3.363  11.802  0.3668 -2.1259  0.9099
  703MOL0     H94884  11.856   3.309  11.857 -1.0982  0.5642 -0.0010
  703MOL0     H94885  10.975   3.501  12.124  0.5486  0.2511  0.0420
  703MOL0     H94886  10.827   3.409  12.299  0.7059  1.3224 -1.2044
  703MOL0     H94887  10.758   2.913  12.456 -0.8386 -0.9348 -0.2096
  703MOL0     H94888  10.619   2.750  12.583 -0.2499 -0.1768  3.1978
  703MOL0     H94889  11.088   3.152  11.552 -1.8405  0.4490  1.7662
  703MOL0     H94890  11.244   3.232  11.403 -0.9595 -1.0963  0.0564
  703MOL0     H94891  11.449   3.662  11.107  0.7250  0.0967  1.3811
  703MOL0     H94892  11.625   3.651  10.913  2.9868 -2.3201 -2.2137
  703MOL0     H94893  11.726   3.248  10.725 -2.3153  1.6487 -1.0766
  703MOL0     H94894  11.841   3.338  10.841  0.5544 -1.1898  0.0588
  703MOL0     H94895  11.914   3.465  10.628  0.4839  1.0872  2.5183
  703MOL0     H94896  11.782   3.388  10.544  0.6795 -2.1671 -0.9883
  703MOL0     H94897  11.876   3.161  10.600  1.8709 -0.9205  0.9410
  703MOL0     H94898  12.014   3.243  10.683 -1.5948  0.3871  1.5676
  703MOL0     H94899  12.083   3.179  10.489  1.0307  0.7089  0.7860
  703MOL0     H94900  11.955   3.259  10.385  0.5105  1.7347 -0.8021
  703MOL0     H94901  12.265   3.545  10.486 -1.6657  0.7649  0.3326
  703MOL0     H94902  11.608   3.223  10.922  1.4121 -0.4165  2.3263
  703MOL0     H94903  11.498   3.090  11.090  1.6710 -0.0526  1.2349
  703MOL0     H94904  11.471   3.191  11.238  0.4011  0.8425 -0.0777
  703MOL0     H94905  11.343   3.155  11.126 -0.2093  1.4983  0.5922
  704MOL0     O94906   0.041  10.579   4.973  0.4452  0.4472 -0.2312
  704MOL0     C94907   0.004  10.618   4.867  0.5185  0.1159  0.7034
  704MOL0     O94908   0.076  10.665   4.764 -0.0436  0.0289 -0.7389
  704MOL0     C94909   0.208  10.617   4.756  0.3126 -0.5979 -1.1286
  704MOL0     C94910   0.256  10.567   4.636 -1.2759 -0.2106  0.9740
  704MOL0     C94911   0.396  10.565   4.608  0.1407 -0.6088  0.1833
  704MOL0     C94912   0.481  10.606   4.716  0.9129 -0.2923  1.3720
  704MOL0     O94913   0.617  10.594   4.684  0.2149  0.2098 -0.3842
  704MOL0     C94914   0.674  10.717   4.624  0.2752  0.0591  0.0102
  704MOL0     C94915   0.621  10.750   4.482 -0.6318 -0.5385  0.0858
  704MOL0     C94916   0.679  10.885   4.420 -0.2897  0.3473 -0.3011
  704MOL0     C94917   0.614  10.926   4.290 -0.1908 -0.8104 -0.0466
  704MOL0     C94918   0.681  11.047   4.222 -0.0062  1.0102 -0.1939
  704MOL0     C94919   0.575  11.114   4.131 -1.1446  0.7382 -0.1790
  704MOL0     C94920   0.630  11.242   4.076  0.1408  0.5488  0.6867
  704MOL0     C94921   0.546  11.286   3.943 -0.0295  1.0329 -0.0755
  704MOL0     N94922   0.407  11.313   3.983 -0.1091 -0.1958 -0.6902
  704MOL0     C94923   0.296  11.245   3.946  0.2079  0.0940  0.0120
  704MOL0     C94924   0.191  11.318   3.993 -0.2560  0.3753  0.7544
  704MOL0     C94925   0.048  11.281   3.952  0.0197  0.8035  0.1783
  704MOL0     C94926  -0.037  11.214   4.061  0.5353 -0.3100  0.1848
  704MOL0     C94927  -0.128  11.106   3.998 -1.0507 -0.3575  0.1662
  704MOL0     C94928  -0.225  11.024   4.090 -0.0584  0.7579  0.3936
  704MOL0     O94929  -0.291  10.922   4.016  0.5574 -0.0396  0.7737
  704MOL0     C94930  -0.328  10.794   4.063 -0.2004 -0.8009 -0.2761
  704MOL0     C94931  -0.338  10.757   4.202  0.0879 -0.1761  0.2046
  704MOL0     C94932  -0.385  10.628   4.238 -0.6210 -0.1488  1.4324
  704MOL0     C94933  -0.432  10.542   4.138  0.4698  0.6339 -0.4418
  704MOL0     C94934  -0.488  10.408   4.171  0.4297  0.6537  0.0412
  704MOL0     O94935  -0.540  10.380   4.300 -0.9313  0.0678  1.2568
  704MOL0     C94936  -0.598  10.261   4.314 -0.2038  0.0576  1.1922
  704MOL0     C94937  -0.539  10.163   4.391  0.1394 -0.6766 -0.6644
  704MOL0     C94938  -0.593  10.034   4.410  0.7412 -0.3976 -0.3831
  704MOL0     C94939  -0.716  10.004   4.334 -0.3059  1.5661 -0.3067
  704MOL0     O94940  -0.777   9.882   4.349 -0.5207  0.1032  0.2122
  704MOL0     C94941  -0.751   9.820   4.476 -0.0953  0.4396  0.2348
  704MOL0     C94942  -0.873   9.736   4.508  0.4860  0.6044 -0.2835
  704MOL0     C94943  -1.009   9.815   4.516  0.4752 -1.0440 -0.0672
  704MOL0     C94944  -1.123   9.708   4.485 -0.0973  0.3965 -0.8576
  704MOL0     C94945  -1.138   9.704   4.333  0.5562 -1.2539 -0.2486
  704MOL0     C94946  -1.215   9.819   4.275 -0.4854  0.0094  0.6031
  704MOL0     C94947  -1.354   9.855   4.333  0.2838 -0.6010 -0.1097
  704MOL0     C94948  -1.345   9.989   4.416  0.6677  1.5588 -0.0641
  704MOL0    Cl94949  -1.357  10.129   4.292 -0.0249  0.0719  0.2996
  704MOL0     C94950  -0.766  10.088   4.235  0.1965 -0.0486 -0.1754
  704MOL0     C94951  -0.712  10.219   4.234 -0.6834 -0.1205  0.8130
  704MOL0     O94952  -0.491  10.329   4.084  0.3555 -0.0545  0.8856
  704MOL0     C94953  -0.442  10.592   4.005  0.7470  1.2460 -0.6447
  704MOL0     C94954  -0.392  10.716   3.972 -0.0819  0.3234 -0.1338
  704MOL0     N94955   0.241  11.430   4.054 -0.3783 -1.3636 -0.3927
  704MOL0     N94956   0.368  11.435   4.029 -0.0369 -0.0594  0.7613
  704MOL0     C94957   0.433  10.643   4.844  1.0234 -1.0986 -0.3973
  704MOL0     C94958   0.290  10.658   4.868 -0.9575 -0.0002  0.0616
  704MOL0     C94959  -0.135  10.604   4.823  0.6663 -0.4903 -0.1689
  704MOL0     C94960  -0.183  10.473   4.791 -0.3777 -0.2809 -0.2055
  704MOL0     C94961  -0.306  10.458   4.734  0.1933  0.6119 -0.0861
  704MOL0     C94962  -0.396  10.566   4.719 -0.3353  0.1812 -0.1320
  704MOL0     O94963  -0.520  10.556   4.665  0.3359  1.0805  0.3831
  704MOL0     C94964  -0.582  10.425   4.663 -1.0192  0.1804 -0.1704
  704MOL0     C94965  -0.596  10.347   4.792  0.3307 -0.5442 -0.0710
  704MOL0     C94966  -0.615  10.433   4.922  0.0872  0.0134  0.4325
  704MOL0     C94967  -0.743  10.393   4.992 -0.3273 -0.1939  1.2851
  704MOL0     C94968  -0.771  10.479   5.113  0.2943  0.3679  0.6150
  704MOL0     C94969  -0.758  10.564   5.188  0.0615 -0.7780 -0.4282
  704MOL0     C94970  -0.354  10.695   4.756  0.4998  0.1449  0.8358
  704MOL0     C94971  -0.226  10.714   4.804  0.5397  0.5559 -0.7281
  704MOL0     C94972  -0.176  10.847   4.850 -0.6013  0.1749  0.3115
  704MOL0     H94973   0.200  10.529   4.551 -3.0876  0.8704  1.6382
  704MOL0     H94974   0.429  10.551   4.506 -2.8058 -2.9304 -0.5918
  704MOL0     H94975   0.671  10.796   4.700  0.1378 -0.0534  0.1212
  704MOL0     H94976   0.779  10.693   4.605 -0.3383 -1.2511 -2.0759
  704MOL0     H94977   0.515  10.766   4.500 -0.6858 -0.8320  0.0320
  704MOL0     H94978   0.621  10.675   4.402 -3.3467  0.6387 -1.1361
  704MOL0     H94979   0.786  10.877   4.401  0.0968  3.8962 -0.4074
  704MOL0     H94980   0.654  10.967   4.488 -0.9929  1.0721 -1.3967
  704MOL0     H94981   0.607  10.833   4.232  0.3641 -2.0840  1.8179
  704MOL0     H94982   0.509  10.943   4.316 -0.9394 -1.4100 -2.4427
  704MOL0     H94983   0.715  11.124   4.291  2.5823  1.4063 -1.7603
  704MOL0     H94984   0.773  11.017   4.171 -0.6989 -1.7705  0.0336
  704MOL0     H94985   0.557  11.059   4.039  2.3163  2.2113 -1.9200
  704MOL0     H94986   0.483  11.139   4.186 -0.4641 -0.4793  1.6059
  704MOL0     H94987   0.731  11.229   4.035 -0.5721 -1.1248 -0.6362
  704MOL0     H94988   0.614  11.325   4.145 -0.7037  0.5983  0.4442
  704MOL0     H94989   0.585  11.378   3.901  0.5383 -0.6921 -3.6956
  704MOL0     H94990   0.561  11.211   3.865  0.4333  1.2228 -0.1686
  704MOL0     H94991   0.293  11.155   3.886  0.3817  1.0861 -1.5451
  704MOL0     H94992   0.007  11.377   3.918 -2.4844  0.4680  2.0235
  704MOL0     H94993   0.048  11.213   3.866  1.0548 -2.6612  2.7000
  704MOL0     H94994   0.037  11.157   4.118  1.2696  0.2546 -0.1894
  704MOL0     H94995  -0.090  11.288   4.122  0.8414  0.5948 -0.6360
  704MOL0     H94996  -0.067  11.040   3.936  1.0793  1.5482  0.1265
  704MOL0     H94997  -0.189  11.164   3.929  0.8937  0.9700 -0.5226
  704MOL0     H94998  -0.293  11.085   4.150  1.3429 -0.9643  3.9870
  704MOL0     H94999  -0.165  10.971   4.164 -1.7562  2.0334  2.8103
  704MOL0     H95000  -0.298  10.817   4.283  4.2218  1.0510 -2.4231
  704MOL0     H95001  -0.368  10.607   4.344  1.0916  0.3941  1.3062
  704MOL0     H95002  -0.454  10.195   4.451 -2.4758 -0.0451  3.0760
  704MOL0     H95003  -0.530   9.973   4.474  1.5619  0.6588 -0.1509
  704MOL0     H95004  -0.665   9.751   4.474 -2.2745 -2.6082  2.3527
  704MOL0     H95005  -0.735   9.892   4.556  0.3504  1.6786 -0.9326
  704MOL0     H95006  -0.878   9.668   4.423 -0.0949 -1.7928  1.5654
  704MOL0     H95007  -0.850   9.681   4.599 -1.6587  2.1315  1.2812
  704MOL0     H95008  -1.023   9.852   4.618 -0.8257 -2.0632  0.1550
  704MOL0     H95009  -1.004   9.900   4.447 -1.4549  1.0063  2.1075
  704MOL0     H95010  -1.214   9.744   4.534  0.0336 -0.0758 -0.2558
  704MOL0     H95011  -1.100   9.611   4.530  1.4390  2.0878  2.3789
  704MOL0     H95012  -1.181   9.607   4.308  1.6343 -1.3353 -1.9764
  704MOL0     H95013  -1.043   9.703   4.278  0.7771  0.0930  0.0687
  704MOL0     H95014  -1.171   9.918   4.256 -2.3387  0.9048  0.6880
  704MOL0     H95015  -1.238   9.773   4.178  4.3741 -4.5068  1.1600
  704MOL0     H95016  -1.385   9.769   4.393  2.3755 -0.8692  0.6612
  704MOL0     H95017  -1.429   9.877   4.256  1.4098  2.9776 -0.3650
  704MOL0     H95018  -1.431   9.993   4.484  2.3966 -4.1023  3.1069
  704MOL0     H95019  -1.263   9.987   4.488 -0.8749 -0.7217  1.7892
  704MOL0     H95020  -0.851  10.048   4.180 -0.0720 -2.1616  1.6491
  704MOL0     H95021  -0.752  10.290   4.162  3.6081 -0.6142 -2.5060
  704MOL0     H95022  -0.494  10.538   3.927 -0.4949  1.9696 -0.3332
  704MOL0     H95023  -0.378  10.737   3.867 -1.7601 -3.7948 -1.3810
  704MOL0     H95024   0.496  10.683   4.922  0.2538  0.1169 -0.3732
  704MOL0     H95025   0.248  10.721   4.946 -3.9162 -3.7310  1.7744
  704MOL0     H95026  -0.111  10.393   4.799 -0.0110  0.0235 -0.4310
  704MOL0     H95027  -0.336  10.357   4.707 -1.6237  0.5138  1.9709
  704MOL0     H95028  -0.527  10.367   4.589  0.9180 -2.1649  2.8494
  704MOL0     H95029  -0.678  10.436   4.612 -0.2594  1.9237 -1.3002
  704MOL0     H95030  -0.516  10.277   4.817  0.3042  0.2411  2.5254
  704MOL0     H95031  -0.688  10.288   4.785 -0.6921  1.0354 -0.4869
  704MOL0     H95032  -0.628  10.537   4.891  1.4261 -0.1500 -0.7464
  704MOL0     H95033  -0.524  10.411   4.979  0.8734  0.7508 -0.5117
  704MOL0     H95034  -0.827  10.404   4.922 -0.4824  0.1435  1.5243
  704MOL0     H95035  -0.720  10.287   5.005  3.6401 -0.3279 -3.9214
  704MOL0     H95036  -0.733  10.635   5.264  3.1050 -1.2775 -0.8158
  704MOL0     H95037  -0.442  10.759   4.749  1.8497  1.9025 -1.1299
  704MOL0     H95038  -0.118  10.892   4.769 -1.8552 -0.0490 -0.7384
  704MOL0     H95039  -0.257  10.917   4.873  1.0187  3.0095 -1.9675
  704MOL0     H95040  -0.110  10.836   4.936  2.1796  2.2524 -1.3652
  705MOL0     O95041   7.525  10.196   5.128 -0.6188  0.5674  0.3983
  705MOL0     C95042   7.535  10.292   5.052  1.1736 -0.0610  0.0802
  705MOL0     O95043   7.463  10.408   5.068 -0.1973 -0.3519 -0.3855
  705MOL0     C95044   7.382  10.440   5.186 -0.4327  0.6910 -0.5088
  705MOL0     C95045   7.295  10.357   5.251  0.0597  0.3153  0.1994
  705MOL0     C95046   7.213  10.406   5.352 -0.4831 -0.0084  0.1365
  705MOL0     C95047   7.207  10.546   5.389 -0.0205 -0.2558  0.6612
  705MOL0     O95048   7.120  10.603   5.472  0.3241 -0.2146 -0.2557
  705MOL0     C95049   7.079  10.537   5.592  0.0090  0.1054 -0.6500
  705MOL0     C95050   7.090  10.640   5.704 -0.0280 -0.6438 -0.2092
  705MOL0     C95051   7.006  10.621   5.824  0.8832  0.8636 -0.1290
  705MOL0     C95052   6.862  10.611   5.794 -0.6757  0.4596 -0.7101
  705MOL0     C95053   6.774  10.620   5.918  0.6290 -0.3373 -0.4948
  705MOL0     C95054   6.747  10.490   6.002  0.1577  0.1405  0.3659
  705MOL0     C95055   6.788  10.505   6.151  0.2573  0.1141 -0.3884
  705MOL0     C95056   6.689  10.579   6.233  0.3500 -0.7128  0.2080
  705MOL0     N95057   6.719  10.561   6.373 -0.0615 -0.1510 -0.8989
  705MOL0     C95058   6.690  10.449   6.445 -1.1419  0.5561  0.7250
  705MOL0     C95059   6.693  10.488   6.566  0.2106  0.7194 -0.8569
  705MOL0     C95060   6.672  10.402   6.691 -0.0459 -0.1985 -0.1981
  705MOL0     C95061   6.755  10.438   6.813 -0.8321  0.8581  0.8034
  705MOL0     C95062   6.751  10.328   6.902  0.6622 -1.0017 -0.7158
  705MOL0     C95063   6.831  10.362   7.028 -1.2318 -0.3793 -0.0973
  705MOL0     O95064   6.977  10.369   7.022 -0.5388  0.7804  0.3531
  705MOL0     C95065   7.047  10.256   6.992  0.7890  0.6689 -0.1628
  705MOL0     C95066   6.992  10.125   6.995  0.1415 -0.1163 -0.6066
  705MOL0     C95067   7.063  10.009   6.963  0.2134  0.0803  0.4010
  705MOL0     C95068   7.195  10.010   6.916  0.4775  0.1475 -0.0327
  705MOL0     C95069   7.272   9.887   6.894  0.2377 -0.2203 -0.0564
  705MOL0     O95070   7.208   9.771   6.900  0.5137  0.0778 -0.7099
  705MOL0     C95071   7.274   9.649   6.905  0.2588 -0.6222 -0.2749
  705MOL0     C95072   7.192   9.556   6.970  0.8695 -0.4338  0.2733
  705MOL0     C95073   7.229   9.425   6.967 -0.1441 -0.4630  0.1844
  705MOL0     C95074   7.344   9.375   6.911  1.4190 -0.5442 -0.2794
  705MOL0     O95075   7.379   9.249   6.934  0.2629  0.2234 -0.7273
  705MOL0     C95076   7.514   9.227   6.976  0.9013  0.2358 -0.1976
  705MOL0     C95077   7.519   9.074   7.003  0.1579  0.6729 -0.8831
  705MOL0     C95078   7.451   9.038   7.138 -0.6145  0.2392 -0.5247
  705MOL0     C95079   7.448   8.889   7.159  0.2398 -0.4308 -0.4060
  705MOL0     C95080   7.367   8.804   7.062  0.5937  0.4672  0.2209
  705MOL0     C95081   7.351   8.665   7.116 -0.0628 -0.1378  0.2705
  705MOL0     C95082   7.478   8.599   7.146  0.9856  0.1115 -0.5760
  705MOL0     C95083   7.458   8.442   7.166  0.2084 -0.1260 -0.4519
  705MOL0    Cl95084   7.627   8.383   7.211  0.0200 -0.3999  0.6284
  705MOL0     C95085   7.432   9.474   6.855 -0.6504 -0.5243  0.1371
  705MOL0     C95086   7.397   9.604   6.855 -0.0384  0.4374 -0.5450
  705MOL0     O95087   7.389   9.908   6.864  0.8234 -0.3449  0.0349
  705MOL0     C95088   7.250  10.140   6.911  0.1416 -0.2553  0.5007
  705MOL0     C95089   7.187  10.253   6.951 -0.2230  0.6959 -0.4668
  705MOL0     N95090   6.743  10.616   6.578 -0.2354 -0.1769  0.2428
  705MOL0     N95091   6.764  10.661   6.456 -0.5309  0.4563  0.5392
  705MOL0     C95092   7.295  10.631   5.330 -0.5793  0.3985 -0.6446
  705MOL0     C95093   7.388  10.573   5.229 -0.4047  0.3029 -0.9801
  705MOL0     C95094   7.632  10.276   4.941 -0.4442  0.5399  1.0379
  705MOL0     C95095   7.725  10.168   4.938 -0.3804 -1.2179  0.2440
  705MOL0     C95096   7.817  10.147   4.832  0.3929  0.0053  0.3824
  705MOL0     C95097   7.807  10.233   4.715 -0.5037 -0.5982  0.5413
  705MOL0     O95098   7.901  10.235   4.609  0.0053 -0.6034 -0.1214
  705MOL0     C95099   8.020  10.157   4.630  0.0143  0.1077  0.4951
  705MOL0     C95100   8.098  10.160   4.503 -1.3730  0.5786  0.6715
  705MOL0     C95101   8.046  10.077   4.384 -0.0987 -1.0606  0.0241
  705MOL0     C95102   8.157  10.072   4.283  0.1467 -0.3892 -0.8008
  705MOL0     C95103   8.160  10.197   4.211  0.4556  0.5747 -0.1380
  705MOL0     C95104   8.164  10.293   4.153 -0.2170  0.0070  1.5685
  705MOL0     C95105   7.701  10.319   4.704 -0.4325  0.2999  0.8324
  705MOL0     C95106   7.626  10.359   4.818  0.0627  1.2160 -0.0776
  705MOL0     C95107   7.531  10.475   4.805 -1.0646 -0.9777  0.0337
  705MOL0     H95108   7.286  10.253   5.223 -0.7209  0.6907 -1.0427
  705MOL0     H95109   7.136  10.339   5.388  0.5714 -2.5416 -2.0333
  705MOL0     H95110   6.992  10.472   5.575  1.6580 -2.0998 -1.2296
  705MOL0     H95111   7.165  10.474   5.617  0.8251  1.0124 -1.1071
  705MOL0     H95112   7.056  10.731   5.652  2.5140 -1.2635 -3.2753
  705MOL0     H95113   7.196  10.642   5.733 -0.7873 -0.4401  2.9078
  705MOL0     H95114   7.012  10.709   5.889 -3.0793  0.4776  1.0275
  705MOL0     H95115   7.037  10.536   5.884 -3.2379  0.7260  2.1954
  705MOL0     H95116   6.841  10.696   5.729  0.7811  1.3698 -0.0382
  705MOL0     H95117   6.840  10.515   5.744 -0.1745 -0.8542  1.4674
  705MOL0     H95118   6.801  10.706   5.979  0.3076  0.6230 -1.6683
  705MOL0     H95119   6.679  10.651   5.874 -0.0985  0.5780  1.5897
  705MOL0     H95120   6.640  10.468   5.996  0.5709 -3.0642  2.2868
  705MOL0     H95121   6.798  10.409   5.949  0.3962  0.5104  0.0276
  705MOL0     H95122   6.885  10.555   6.150  2.6054 -3.6473  3.4648
  705MOL0     H95123   6.794  10.399   6.177 -0.5810  0.5833  2.0309
  705MOL0     H95124   6.684  10.686   6.214  0.3733 -0.4964  1.3479
  705MOL0     H95125   6.589  10.536   6.225  0.1059 -0.3120  1.0074
  705MOL0     H95126   6.655  10.351   6.414  0.5615 -1.1945  3.8157
  705MOL0     H95127   6.566  10.418   6.714 -0.1987 -3.5079  2.1223
  705MOL0     H95128   6.685  10.298   6.660 -2.3928  0.4734 -4.2830
  705MOL0     H95129   6.860  10.454   6.788 -0.8821  0.8034  0.5520
  705MOL0     H95130   6.717  10.532   6.853  1.4616  1.2226  2.2672
  705MOL0     H95131   6.787  10.232   6.863 -1.3674 -1.2802 -2.1023
  705MOL0     H95132   6.644  10.319   6.924  0.7655  2.7871  2.4868
  705MOL0     H95133   6.819  10.284   7.104  1.7664 -0.0815  0.8043
  705MOL0     H95134   6.797  10.454   7.075 -1.4167 -0.3060 -0.3704
  705MOL0     H95135   6.890  10.102   7.025  1.1357 -3.5261  0.5894
  705MOL0     H95136   7.009   9.917   6.986 -1.6762  0.5929 -1.7066
  705MOL0     H95137   7.101   9.594   7.016  0.6232 -0.8615  0.1478
  705MOL0     H95138   7.170   9.347   7.015  1.1558 -0.3612  2.0193
  705MOL0     H95139   7.588   9.250   6.898  1.1517 -2.1152 -0.7407
  705MOL0     H95140   7.542   9.279   7.068 -2.3559  2.3954 -0.2803
  705MOL0     H95141   7.459   9.023   6.926 -4.6573  1.2177  2.0960
  705MOL0     H95142   7.622   9.041   7.018 -0.0486  1.3815  3.2892
  705MOL0     H95143   7.522   9.070   7.215  0.2081  4.4191 -2.7057
  705MOL0     H95144   7.353   9.083   7.155 -1.6076 -1.2949 -1.8616
  705MOL0     H95145   7.410   8.865   7.259 -1.3936 -0.0400 -0.8997
  705MOL0     H95146   7.551   8.854   7.163  0.1743 -0.5287  1.1006
  705MOL0     H95147   7.417   8.790   6.965  2.7730  0.8993  1.2135
  705MOL0     H95148   7.265   8.836   7.041 -0.0076 -1.2607  0.3963
  705MOL0     H95149   7.288   8.668   7.205 -1.8150  2.0797 -0.9686
  705MOL0     H95150   7.310   8.601   7.037 -4.3099 -1.6115  3.2972
  705MOL0     H95151   7.513   8.640   7.242  1.4751 -0.6899 -0.4010
  705MOL0     H95152   7.541   8.628   7.061 -0.0773  0.2489 -1.3292
  705MOL0     H95153   7.387   8.424   7.247 -0.2412  0.7417 -0.6333
  705MOL0     H95154   7.405   8.393   7.084 -4.5983  2.2787  0.8308
  705MOL0     H95155   7.527   9.452   6.808 -0.6466  0.6136 -0.4194
  705MOL0     H95156   7.457   9.676   6.799 -0.0412 -0.6086 -1.9511
  705MOL0     H95157   7.351  10.152   6.874  0.2701 -1.6986  0.3060
  705MOL0     H95158   7.245  10.344   6.948  2.0183 -0.6784 -1.8587
  705MOL0     H95159   7.300  10.736   5.355  5.9875 -0.0632  2.1174
  705MOL0     H95160   7.468  10.641   5.204 -0.1517  1.0498  1.5938
  705MOL0     H95161   7.734  10.093   5.016  2.7144 -1.4903 -0.2379
  705MOL0     H95162   7.895  10.073   4.844 -0.0548 -0.4343  0.6108
  705MOL0     H95163   8.001  10.054   4.662 -0.0030 -0.6655 -1.8299
  705MOL0     H95164   8.084  10.200   4.708  0.2758  0.0772  0.2957
  705MOL0     H95165   8.193  10.123   4.544 -1.5168  0.3333  0.7886
  705MOL0     H95166   8.117  10.263   4.474  2.1602  0.5965  2.3761
  705MOL0     H95167   7.956  10.126   4.347 -2.3795 -2.2039  3.5812
  705MOL0     H95168   8.020   9.972   4.399  0.0821 -1.5230 -2.4925
  705MOL0     H95169   8.250  10.031   4.325  1.5376 -1.1089 -4.2393
  705MOL0     H95170   8.134   9.985   4.222 -0.5795 -1.3671  0.8183
  705MOL0     H95171   8.156  10.380   4.092 -2.6150 -1.2426 -0.0794
  705MOL0     H95172   7.690  10.370   4.609  0.8862  0.0378  0.5138
  705MOL0     H95173   7.550  10.520   4.707  0.1632 -2.0451 -0.2330
  705MOL0     H95174   7.424  10.451   4.815 -1.4464 -0.4100 -2.1642
  705MOL0     H95175   7.557  10.546   4.883 -0.1838 -0.4498 -0.7240
  706MOL0     O95176   1.868   0.457   3.967  0.6367 -0.2571 -0.2351
  706MOL0     C95177   1.831   0.519   3.863 -0.4376 -0.2786  0.1648
  706MOL0     O95178   1.706   0.541   3.827 -0.3302  0.0791  0.0236
  706MOL0     C95179   1.601   0.471   3.890  0.3623  0.0156  0.5105
  706MOL0     C95180   1.572   0.479   4.028 -0.8010  0.0415  0.3050
  706MOL0     C95181   1.474   0.397   4.092  0.2091 -1.4850  0.1486
  706MOL0     C95182   1.407   0.308   4.018  0.2774 -1.2154  0.2457
  706MOL0     O95183   1.317   0.213   4.065 -0.4146 -0.4738 -0.5040
  706MOL0     C95184   1.335   0.157   4.196  0.7312 -0.3603 -0.4301
  706MOL0     C95185   1.220   0.059   4.218  0.4394  0.1024  1.1045
  706MOL0     C95186   1.246  -0.051   4.318  0.5864  0.2802 -0.1304
  706MOL0     C95187   1.150  -0.173   4.321  0.6709  0.7820 -0.4656
  706MOL0     C95188   1.021  -0.134   4.400  0.1682 -0.3117  0.3313
  706MOL0     C95189   0.898  -0.229   4.386  0.1576 -0.0331 -0.0436
  706MOL0     C95190   0.776  -0.170   4.445 -0.8600  0.4296  0.5002
  706MOL0     C95191   0.790  -0.116   4.589 -0.3570  0.1701 -0.0319
  706MOL0     N95192   0.658  -0.072   4.633 -0.0078 -0.1365  0.7442
  706MOL0     C95193   0.603  -0.098   4.753  0.2613 -0.0305 -0.6510
  706MOL0     C95194   0.516  -0.002   4.782 -0.0155  0.0716 -0.1955
  706MOL0     C95195   0.437   0.020   4.914 -0.5101  0.3037 -1.0393
  706MOL0     C95196   0.310  -0.057   4.942 -0.1717 -0.2020  0.8423
  706MOL0     C95197   0.193  -0.022   4.846 -0.2129 -0.5256  0.4208
  706MOL0     C95198   0.065  -0.076   4.897 -0.6235 -0.3047  0.4917
  706MOL0     O95199   0.071  -0.219   4.911  0.7104  0.0610  0.1857
  706MOL0     C95200   0.028  -0.274   5.035 -0.3087  0.3424 -0.0271
  706MOL0     C95201  -0.001  -0.404   5.027 -0.0751  0.2663 -0.1997
  706MOL0     C95202  -0.045  -0.477   5.131 -0.0556  0.7446  0.6312
  706MOL0     C95203  -0.055  -0.421   5.264  0.2597 -0.0568 -0.1295
  706MOL0     C95204  -0.097  -0.501   5.371 -0.4859 -1.1125 -1.0722
  706MOL0     O95205  -0.103  -0.430   5.488  0.2845 -0.4714  0.5234
  706MOL0     C95206  -0.154  -0.500   5.597 -0.5814  0.2271 -1.3583
  706MOL0     C95207  -0.291  -0.526   5.613 -0.4757 -0.4669  0.3448
  706MOL0     C95208  -0.345  -0.572   5.738 -0.5590 -0.3694 -0.4765
  706MOL0     C95209  -0.262  -0.592   5.851 -0.6579 -0.0380  0.8652
  706MOL0     O95210  -0.305  -0.631   5.971  0.6707  0.0952 -0.2925
  706MOL0     C95211  -0.437  -0.694   5.982  0.8229  0.6914 -0.9686
  706MOL0     C95212  -0.458  -0.742   6.116 -0.5010 -0.3297 -0.5283
  706MOL0     C95213  -0.581  -0.816   6.131  0.4921  0.0113 -0.3708
  706MOL0     C95214  -0.706  -0.728   6.134 -0.0784 -0.5178  0.1800
  706MOL0     C95215  -0.837  -0.801   6.188  0.1064  0.7095  0.1441
  706MOL0     C95216  -0.959  -0.713   6.202  1.2049 -0.8944  0.0583
  706MOL0     C95217  -0.945  -0.609   6.315  0.0066  1.3179 -0.2755
  706MOL0     C95218  -0.945  -0.660   6.454  0.1724  0.5999 -1.0213
  706MOL0    Cl95219  -0.954  -0.525   6.572  0.6246 -0.2111  0.3061
  706MOL0     C95220  -0.123  -0.559   5.835  0.1654 -0.0472  0.0569
  706MOL0     C95221  -0.070  -0.519   5.706  0.0084 -0.1432 -0.8510
  706MOL0     O95222  -0.110  -0.619   5.364 -0.9807  0.3780 -0.3428
  706MOL0     C95223  -0.019  -0.287   5.273  0.5821 -0.2842 -0.3532
  706MOL0     C95224   0.017  -0.213   5.164  0.8068  0.1792 -0.2050
  706MOL0     N95225   0.499   0.079   4.665  0.4852 -0.0729  0.1258
  706MOL0     N95226   0.588   0.032   4.578 -0.4954  0.1185 -0.2927
  706MOL0     C95227   1.431   0.301   3.880  0.0305 -0.9163 -1.0688
  706MOL0     C95228   1.529   0.371   3.814 -0.3573 -0.0835  0.5692
  706MOL0     C95229   1.931   0.602   3.787  0.3191 -0.4687 -0.6541
  706MOL0     C95230   1.886   0.723   3.726 -0.5715  0.2312 -0.4846
  706MOL0     C95231   1.968   0.797   3.644  0.6300  0.1183 -0.2952
  706MOL0     C95232   2.100   0.755   3.619 -0.3775  1.4936 -0.0341
  706MOL0     O95233   2.187   0.817   3.531  0.3656  0.2005  0.3969
  706MOL0     C95234   2.175   0.770   3.396  0.0219  0.3373  0.3990
  706MOL0     C95235   2.264   0.859   3.311  0.0079  0.6150 -0.4702
  706MOL0     C95236   2.410   0.861   3.364 -0.0074 -0.0327  0.9044
  706MOL0     C95237   2.503   0.947   3.274  0.6354  0.2823 -0.2980
  706MOL0     C95238   2.527   0.889   3.138 -0.8001 -1.0636  0.2776
  706MOL0     C95239   2.541   0.864   3.025 -1.0718  0.6712 -0.2525
  706MOL0     C95240   2.142   0.632   3.671  0.2313 -0.2264  0.0915
  706MOL0     C95241   2.067   0.560   3.768 -0.2051 -0.5057  0.6293
  706MOL0     C95242   2.132   0.439   3.836  1.0177  0.2552  0.5909
  706MOL0     H95243   1.638   0.554   4.072 -3.0286  2.7304 -0.6550
  706MOL0     H95244   1.470   0.401   4.201 -1.5291 -0.8446  0.0936
  706MOL0     H95245   1.434   0.112   4.204 -0.2193 -2.6133 -0.5131
  706MOL0     H95246   1.320   0.233   4.273 -2.1788  3.9315 -4.6325
  706MOL0     H95247   1.177   0.015   4.127 -2.3015  3.1287  0.7740
  706MOL0     H95248   1.144   0.120   4.266  1.8967  0.1017  3.5563
  706MOL0     H95249   1.259  -0.001   4.414 -4.4684 -1.5600  1.8550
  706MOL0     H95250   1.340  -0.096   4.284 -0.5869 -1.5275 -1.1469
  706MOL0     H95251   1.113  -0.206   4.223  0.7264 -0.5952 -0.0400
  706MOL0     H95252   1.201  -0.258   4.367  3.4033  0.3818 -3.8055
  706MOL0     H95253   1.056  -0.136   4.504 -1.8924  0.5209  1.1028
  706MOL0     H95254   0.992  -0.029   4.383 -0.1941 -0.4840 -0.1298
  706MOL0     H95255   0.876  -0.247   4.281  1.5410  0.9632 -0.5298
  706MOL0     H95256   0.915  -0.321   4.444 -0.2044  2.0697  3.7517
  706MOL0     H95257   0.692  -0.241   4.449 -1.4473  1.1270  0.7861
  706MOL0     H95258   0.734  -0.095   4.377  0.8512  0.0831 -1.0037
  706MOL0     H95259   0.814  -0.207   4.645 -2.3233 -1.4277 -1.6115
  706MOL0     H95260   0.865  -0.036   4.585  3.1491 -2.8442 -3.2062
  706MOL0     H95261   0.620  -0.186   4.814  0.3990  0.7032  0.3938
  706MOL0     H95262   0.513  -0.013   4.985 -2.2671 -0.7477  0.4306
  706MOL0     H95263   0.420   0.128   4.925  0.5412  0.6178 -2.2525
  706MOL0     H95264   0.337  -0.163   4.935  3.2116  0.6437 -1.7826
  706MOL0     H95265   0.285  -0.043   5.047  3.2522 -0.2959  1.7744
  706MOL0     H95266   0.210  -0.062   4.746 -0.6974 -0.9131  0.4866
  706MOL0     H95267   0.168   0.084   4.842 -2.0057 -0.9542 -1.3195
  706MOL0     H95268  -0.017  -0.048   4.832  0.9987 -2.4979 -2.7487
  706MOL0     H95269   0.041  -0.027   4.992 -1.8571  2.7899 -1.2717
  706MOL0     H95270  -0.000  -0.464   4.937  2.3764 -4.0628  2.3528
  706MOL0     H95271  -0.064  -0.582   5.115 -2.3711  0.9927  1.3468
  706MOL0     H95272  -0.360  -0.513   5.530 -0.8169 -0.5736  0.6092
  706MOL0     H95273  -0.452  -0.592   5.740 -0.3315 -2.0769  3.2053
  706MOL0     H95274  -0.515  -0.623   5.953  0.1181  0.2606 -0.1619
  706MOL0     H95275  -0.464  -0.777   5.916 -3.5762  1.1763 -0.1042
  706MOL0     H95276  -0.375  -0.812   6.128 -0.2162 -0.3611 -2.3548
  706MOL0     H95277  -0.446  -0.661   6.188  1.4139  1.0890 -2.3042
  706MOL0     H95278  -0.596  -0.881   6.043 -0.0026  0.8838 -0.9449
  706MOL0     H95279  -0.585  -0.880   6.219 -1.0688 -1.1190 -1.1992
  706MOL0     H95280  -0.733  -0.691   6.034 -1.1818 -0.2256  0.5663
  706MOL0     H95281  -0.693  -0.635   6.190 -2.0090 -0.9014  1.3697
  706MOL0     H95282  -0.819  -0.837   6.289 -2.6056 -0.8996  0.1797
  706MOL0     H95283  -0.863  -0.888   6.126  0.0621  2.1812 -2.0155
  706MOL0     H95284  -0.999  -0.676   6.107 -2.5119 -1.9060  1.0385
  706MOL0     H95285  -1.034  -0.783   6.242  1.8921 -2.1627 -0.8059
  706MOL0     H95286  -1.034  -0.544   6.307 -0.2619  1.4505  2.8497
  706MOL0     H95287  -0.860  -0.544   6.292  3.5212 -2.2971  1.2696
  706MOL0     H95288  -1.022  -0.737   6.463 -0.3478  1.0623 -1.4176
  706MOL0     H95289  -0.859  -0.727   6.459 -2.9275 -4.0406 -3.0633
  706MOL0     H95290  -0.054  -0.574   5.918  0.4207 -1.2872 -0.3524
  706MOL0     H95291   0.034  -0.489   5.697 -0.3876  1.3871 -0.4513
  706MOL0     H95292  -0.010  -0.237   5.369 -1.1766  0.4023 -0.5120
  706MOL0     H95293   0.049  -0.110   5.175 -1.0191  1.0039 -1.9417
  706MOL0     H95294   1.376   0.222   3.830 -1.5946  0.4434 -1.5209
  706MOL0     H95295   1.552   0.348   3.711 -1.0526 -1.8881  0.7756
  706MOL0     H95296   1.784   0.759   3.736 -1.8444 -3.2505  0.2714
  706MOL0     H95297   1.925   0.879   3.587 -0.0565  0.7219  1.0274
  706MOL0     H95298   2.070   0.772   3.366 -0.4699  0.4224  2.0343
  706MOL0     H95299   2.215   0.668   3.388  1.6146  0.8839  0.9186
  706MOL0     H95300   2.224   0.959   3.294  0.0903  0.2371 -3.4282
  706MOL0     H95301   2.258   0.820   3.209  0.3299  0.6288 -0.4950
  706MOL0     H95302   2.449   0.759   3.372 -1.8317 -0.6729  2.3784
  706MOL0     H95303   2.409   0.898   3.467 -1.5634 -0.3211  1.0114
  706MOL0     H95304   2.466   1.049   3.261 -0.1172  0.4186  2.2851
  706MOL0     H95305   2.601   0.954   3.322  0.4667  2.6431 -0.2148
  706MOL0     H95306   2.562   0.856   2.920  0.7160 -1.4623  0.1783
  706MOL0     H95307   2.230   0.588   3.625  0.6049  2.1790 -1.6847
  706MOL0     H95308   2.214   0.413   3.768 -0.6130  3.4208 -2.9776
  706MOL0     H95309   2.164   0.471   3.936  2.6285 -2.4391  1.0355
  706MOL0     H95310   2.067   0.351   3.832 -2.2391  2.5238 -0.0918
  707MOL0     O95311   7.138   1.293  11.061 -0.4008 -0.3916 -0.9218
  707MOL0     C95312   7.196   1.378  10.998 -0.7152 -0.3617  0.6139
  707MOL0     O95313   7.278   1.479  11.057  0.1433 -0.6276  0.2670
  707MOL0     C95314   7.271   1.496  11.198  0.4856 -0.2967  0.2886
  707MOL0     C95315   7.319   1.406  11.292 -0.5773  0.3168  0.9275
  707MOL0     C95316   7.318   1.420  11.431  0.3628  0.4657  0.6805
  707MOL0     C95317   7.247   1.525  11.481  0.5091 -0.6784 -0.1557
  707MOL0     O95318   7.254   1.533  11.620 -0.7817 -0.7669 -0.0500
  707MOL0     C95319   7.142   1.589  11.693  0.2812  0.6805  0.1041
  707MOL0     C95320   7.011   1.518  11.659  0.2693  0.2038  1.6382
  707MOL0     C95321   6.883   1.581  11.733 -1.0643  0.2562  1.4030
  707MOL0     C95322   6.796   1.491  11.821 -0.8878  0.4903  0.2206
  707MOL0     C95323   6.704   1.397  11.751  0.6661 -0.3326 -1.2124
  707MOL0     C95324   6.594   1.462  11.670  0.1120 -0.7857  0.1281
  707MOL0     C95325   6.490   1.530  11.762  0.1826  1.4575  0.3621
  707MOL0     C95326   6.359   1.583  11.699 -0.2629 -0.6164  0.2700
  707MOL0     N95327   6.277   1.487  11.629  0.6685  0.3908  1.2105
  707MOL0     C95328   6.209   1.384  11.695 -0.5702  0.4464 -0.6558
  707MOL0     C95329   6.091   1.362  11.625 -0.1373 -1.4081 -0.2171
  707MOL0     C95330   5.970   1.277  11.658 -0.5805 -1.5495 -0.2615
  707MOL0     C95331   5.896   1.325  11.788  0.4937  0.3969 -0.2163
  707MOL0     C95332   5.775   1.229  11.819  0.7284 -0.4553 -0.0369
  707MOL0     C95333   5.756   1.219  11.972 -0.5014  0.0779  0.2064
  707MOL0     O95334   5.872   1.148  12.028 -0.0362  0.1322  0.6300
  707MOL0     C95335   5.894   1.164  12.159 -0.0076 -0.7118 -0.3309
  707MOL0     C95336   5.824   1.256  12.238  0.1731  0.1145  0.6556
  707MOL0     C95337   5.879   1.291  12.366  0.0530  0.3469  0.2763
  707MOL0     C95338   5.972   1.206  12.423  0.8020 -0.7628  0.5115
  707MOL0     C95339   6.008   1.228  12.569 -0.3526 -0.1776 -0.9298
  707MOL0     O95340   5.943   1.334  12.641 -0.0308  0.2296  0.0359
  707MOL0     C95341   5.955   1.353  12.780  0.4433  0.5567  0.7354
  707MOL0     C95342   6.076   1.338  12.849 -0.6933  0.1253 -0.0279
  707MOL0     C95343   6.079   1.351  12.988  0.0526 -0.6603  0.3064
  707MOL0     C95344   5.974   1.404  13.063 -0.0521 -0.2108  0.0495
  707MOL0     O95345   5.991   1.430  13.200 -0.1024 -0.1506 -0.2801
  707MOL0     C95346   5.894   1.508  13.264  0.1501  0.1276  0.4679
  707MOL0     C95347   5.969   1.604  13.360  0.1342  0.5437 -0.1594
  707MOL0     C95348   6.090   1.686  13.302 -0.4958  0.1077  0.3086
  707MOL0     C95349   6.027   1.790  13.204  0.6289 -0.0221 -0.5030
  707MOL0     C95350   6.130   1.882  13.130  0.1732 -0.0469 -0.6126
  707MOL0     C95351   6.051   1.954  13.018  0.4212  0.5769  0.7172
  707MOL0     C95352   6.127   2.043  12.922 -0.2489 -0.3292  0.0731
  707MOL0     C95353   6.127   2.174  12.967  1.1763 -0.6485 -0.0814
  707MOL0    Cl95354   6.222   2.280  12.857 -0.1132 -0.3687 -0.2725
  707MOL0     C95355   5.849   1.422  12.990 -0.6054 -1.1465 -0.1383
  707MOL0     C95356   5.842   1.391  12.849 -0.0089 -1.3501  0.8786
  707MOL0     O95357   6.079   1.148  12.615 -0.0837  0.8926 -0.0228
  707MOL0     C95358   6.033   1.111  12.350  0.4141  0.6281  0.1582
  707MOL0     C95359   5.998   1.097  12.214 -0.0368  0.6214  0.2600
  707MOL0     N95360   6.092   1.443  11.506  0.4113 -0.7859 -0.2872
  707MOL0     N95361   6.205   1.516  11.515  0.1036 -0.2344  0.0949
  707MOL0     C95362   7.184   1.619  11.395 -1.1383  0.7806 -0.7425
  707MOL0     C95363   7.201   1.606  11.256 -0.1299  0.1316 -0.5286
  707MOL0     C95364   7.188   1.371  10.847 -0.1169 -0.7369  0.3473
  707MOL0     C95365   7.243   1.476  10.769  0.5045 -0.3288  0.7701
  707MOL0     C95366   7.247   1.475  10.632 -0.6548 -0.1610  0.1342
  707MOL0     C95367   7.172   1.380  10.569 -0.0067  1.0353 -1.2472
  707MOL0     O95368   7.148   1.387  10.436 -0.2427 -1.1256  0.4978
  707MOL0     C95369   7.256   1.377  10.347 -0.9220 -0.9686 -0.9548
  707MOL0     C95370   7.342   1.253  10.354 -0.3241 -0.2131  0.3023
  707MOL0     C95371   7.268   1.125  10.304 -0.3427  0.2468 -0.7016
  707MOL0     C95372   7.381   1.009  10.302  0.4514  0.9271  0.4593
  707MOL0     C95373   7.318   0.891  10.242  0.5113  0.2445  0.5915
  707MOL0     C95374   7.264   0.792  10.188  0.0509 -0.5481 -0.3550
  707MOL0     C95375   7.098   1.284  10.634  0.0731 -0.0024 -0.7359
  707MOL0     C95376   7.114   1.270  10.775 -0.2938  0.8115 -1.2702
  707MOL0     C95377   7.012   1.168  10.842 -0.4834  0.4150  0.7721
  707MOL0     H95378   7.365   1.318  11.248 -1.1909 -0.4978  1.8544
  707MOL0     H95379   7.372   1.359  11.503  0.2491  2.5331  2.6104
  707MOL0     H95380   7.160   1.577  11.801 -2.4926  0.8980  0.6608
  707MOL0     H95381   7.138   1.696  11.675 -1.8940  0.5666 -0.3434
  707MOL0     H95382   7.017   1.409  11.668 -5.0133 -0.7488 -1.8791
  707MOL0     H95383   6.988   1.520  11.552 -2.9653  2.7688  2.2194
  707MOL0     H95384   6.813   1.623  11.660 -1.9025 -3.9606 -0.4815
  707MOL0     H95385   6.921   1.666  11.791  3.6680 -0.7736  0.1838
  707MOL0     H95386   6.867   1.440  11.887 -0.7133  1.8777  1.1408
  707MOL0     H95387   6.725   1.552  11.878 -3.1577 -0.5250 -1.3662
  707MOL0     H95388   6.759   1.323  11.691  1.1406 -2.3025  1.4920
  707MOL0     H95389   6.667   1.338  11.835  4.2555  0.0634  0.8585
  707MOL0     H95390   6.628   1.539  11.600 -0.3819  0.4923  1.2427
  707MOL0     H95391   6.537   1.394  11.606 -5.4676  2.5164  0.8960
  707MOL0     H95392   6.545   1.609  11.815  1.5445  0.3143  0.7153
  707MOL0     H95393   6.456   1.458  11.837  0.6746  1.3532  0.4929
  707MOL0     H95394   6.305   1.622  11.786  0.7399 -5.8996  3.7594
  707MOL0     H95395   6.385   1.666  11.632 -2.5419 -0.6387 -0.7256
  707MOL0     H95396   6.249   1.340  11.786  1.0934  4.4623  0.7643
  707MOL0     H95397   5.894   1.279  11.579 -1.5843  0.8524  0.6820
  707MOL0     H95398   6.014   1.177  11.666 -0.8622 -1.6328  0.2638
  707MOL0     H95399   5.959   1.317  11.877  0.3517 -1.5012 -0.2335
  707MOL0     H95400   5.857   1.426  11.775 -1.6161 -0.6692 -3.3034
  707MOL0     H95401   5.793   1.133  11.771  1.7156 -2.4007  3.8391
  707MOL0     H95402   5.689   1.266  11.761 -1.1095 -3.7875  0.3463
  707MOL0     H95403   5.660   1.169  11.988 -1.1738  0.2355 -2.8149
  707MOL0     H95404   5.749   1.319  12.014 -3.1119 -0.2827  0.8173
  707MOL0     H95405   5.732   1.310  12.216 -1.3765 -2.5683  0.1620
  707MOL0     H95406   5.834   1.366  12.431  1.2630  3.1321 -1.9079
  707MOL0     H95407   6.173   1.297  12.822  0.7447 -0.0469  4.6082
  707MOL0     H95408   6.164   1.323  13.048 -0.1705 -0.5985  0.6547
  707MOL0     H95409   5.834   1.571  13.198 -1.8746  2.7707  4.4123
  707MOL0     H95410   5.823   1.449  13.323  2.3628  0.3354  3.5630
  707MOL0     H95411   5.889   1.668  13.399 -3.3464 -2.0587 -2.4023
  707MOL0     H95412   6.020   1.544  13.436  1.1706  0.9293 -0.5432
  707MOL0     H95413   6.144   1.738  13.381 -1.9547  2.5558 -0.2050
  707MOL0     H95414   6.158   1.617  13.251 -0.5380 -0.1327  0.5803
  707MOL0     H95415   5.942   1.848  13.241  0.3408 -0.4594 -0.4764
  707MOL0     H95416   5.980   1.721  13.133  1.2548 -2.3569  1.2271
  707MOL0     H95417   6.211   1.816  13.096 -0.4928 -0.7868 -0.8073
  707MOL0     H95418   6.171   1.947  13.207  0.4251 -2.0583  1.0343
  707MOL0     H95419   6.001   1.869  12.971  1.0057 -0.5641  2.0814
  707MOL0     H95420   5.951   1.982  13.055 -1.4970 -5.7293  1.4294
  707MOL0     H95421   6.071   2.041  12.828 -0.1743  2.0920 -0.0938
  707MOL0     H95422   6.227   2.005  12.899 -1.4122 -2.5098 -1.7607
  707MOL0     H95423   6.026   2.216  12.964  0.6797 -1.8165 -3.7564
  707MOL0     H95424   6.148   2.186  13.074 -2.4021  1.9172  0.5169
  707MOL0     H95425   5.760   1.456  13.041 -0.5001 -1.7218  0.4501
  707MOL0     H95426   5.745   1.401  12.801  0.2539  2.2935  0.8271
  707MOL0     H95427   6.112   1.053  12.396  0.6284  0.5670 -0.2791
  707MOL0     H95428   6.063   1.042  12.146  1.3620  0.4464  1.6717
  707MOL0     H95429   7.113   1.695  11.426 -0.5416  1.0352  0.0215
  707MOL0     H95430   7.170   1.680  11.183  1.3326 -0.1215 -1.4382
  707MOL0     H95431   7.301   1.543  10.832  0.2968 -1.1723  1.8983
  707MOL0     H95432   7.283   1.567  10.587  0.7957 -0.6050  0.3287
  707MOL0     H95433   7.324   1.462  10.363 -1.1295 -1.1122  0.9107
  707MOL0     H95434   7.224   1.371  10.243  3.6980 -0.1223 -2.6668
  707MOL0     H95435   7.369   1.238  10.458  2.3131 -1.5869 -0.5100
  707MOL0     H95436   7.426   1.274  10.287 -0.3118 -2.0516 -0.3204
  707MOL0     H95437   7.235   1.154  10.204  0.7483  2.0636 -0.5832
  707MOL0     H95438   7.183   1.103  10.369  0.9179 -1.7989  0.3380
  707MOL0     H95439   7.469   1.036  10.244 -0.5059 -0.2316 -1.6816
  707MOL0     H95440   7.410   0.973  10.401  0.7332 -1.9636 -0.5836
  707MOL0     H95441   7.220   0.700  10.155  0.3841 -1.2919  1.1807
  707MOL0     H95442   7.033   1.221  10.575  1.4118 -0.8884 -1.2988
  707MOL0     H95443   6.954   1.110  10.770  0.3710  1.0590 -0.4592
  707MOL0     H95444   7.064   1.092  10.901  3.5237  2.4795  0.2052
  707MOL0     H95445   6.931   1.210  10.903  0.2589 -0.7650  2.6665
  708MOL0     O95446   2.213   7.298   4.019  0.9718 -0.8409 -0.4121
  708MOL0     C95447   2.116   7.337   4.087 -0.4332 -0.2773  0.7445
  708MOL0     O95448   2.037   7.260   4.165  0.6391  0.0708 -0.6744
  708MOL0     C95449   2.054   7.127   4.191  0.5100  0.4543 -0.4378
  708MOL0     C95450   2.090   7.039   4.089  0.3250 -0.0655  0.8167
  708MOL0     C95451   2.107   6.906   4.118  0.0691  0.6151  0.5440
  708MOL0     C95452   2.085   6.853   4.245  1.3149  0.3750 -0.8715
  708MOL0     O95453   2.107   6.728   4.287 -0.1621  0.1755 -0.2949
  708MOL0     C95454   2.072   6.616   4.205  0.4941  0.2052 -0.2790
  708MOL0     C95455   2.049   6.480   4.288 -0.3590 -0.0660  0.7914
  708MOL0     C95456   1.917   6.485   4.373  0.0977 -0.1563 -0.1473
  708MOL0     C95457   1.912   6.377   4.481  0.8636  0.4022 -0.6898
  708MOL0     C95458   1.843   6.256   4.414  0.2651 -0.8004  0.6238
  708MOL0     C95459   1.861   6.123   4.490  0.7368 -1.6948 -0.4199
  708MOL0     C95460   1.990   6.053   4.447 -0.6539 -1.0223  0.2992
  708MOL0     C95461   2.014   5.915   4.509  0.5819 -0.4753 -1.1137
  708MOL0     N95462   1.980   5.898   4.648  0.6485 -0.5357 -0.6253
  708MOL0     C95463   1.900   5.802   4.703 -0.5924  0.0840  1.2339
  708MOL0     C95464   1.938   5.794   4.832  0.0237  0.6626 -0.2402
  708MOL0     C95465   1.880   5.698   4.936 -0.1865 -0.3772 -0.4609
  708MOL0     C95466   1.743   5.730   4.991  0.1029 -1.1430 -0.1231
  708MOL0     C95467   1.737   5.879   5.053  0.9412 -0.3301  0.4603
  708MOL0     C95468   1.848   5.878   5.163  0.2400 -0.6683  0.5611
  708MOL0     O95469   1.831   5.766   5.242 -0.3884  0.6463 -0.8883
  708MOL0     C95470   1.939   5.713   5.306 -0.6537 -0.4766  0.1133
  708MOL0     C95471   1.930   5.581   5.356 -0.1145 -0.8168 -0.2848
  708MOL0     C95472   2.042   5.517   5.419  0.2484  0.8331  0.3269
  708MOL0     C95473   2.166   5.577   5.437  0.4407  0.3818 -0.0338
  708MOL0     C95474   2.277   5.521   5.506 -0.0025  0.4466  0.3775
  708MOL0     O95475   2.387   5.600   5.506 -0.2181  0.0323 -0.1365
  708MOL0     C95476   2.475   5.604   5.618 -0.4148 -1.0158  0.4387
  708MOL0     C95477   2.487   5.515   5.725 -0.0909 -0.3181 -0.9559
  708MOL0     C95478   2.592   5.518   5.806  0.4367  0.3278 -0.2829
  708MOL0     C95479   2.687   5.624   5.805  0.8389 -0.0501 -0.2169
  708MOL0     O95480   2.788   5.641   5.897 -0.3701  0.2346  0.5255
  708MOL0     C95481   2.756   5.577   6.017 -0.3120  0.4108  0.1203
  708MOL0     C95482   2.850   5.631   6.118 -1.2368  0.4094 -0.5114
  708MOL0     C95483   2.810   5.600   6.264  0.3110  1.3008  0.1413
  708MOL0     C95484   2.873   5.479   6.309  0.6554  0.2085  0.0502
  708MOL0     C95485   2.852   5.464   6.461 -0.3818  1.0201  0.1508
  708MOL0     C95486   2.929   5.345   6.528 -0.4620  0.4244 -0.3238
  708MOL0     C95487   2.880   5.323   6.671  0.0129  0.5123 -0.5349
  708MOL0     C95488   2.962   5.233   6.752 -0.9359 -0.9022  0.0992
  708MOL0    Cl95489   2.980   5.066   6.683 -0.2041  0.5958  0.4681
  708MOL0     C95490   2.674   5.720   5.703  0.9231  1.3067 -0.5133
  708MOL0     C95491   2.574   5.704   5.606  0.0500  0.5084  0.4842
  708MOL0     O95492   2.262   5.414   5.566  0.1634  0.1582  0.0365
  708MOL0     C95493   2.176   5.704   5.376  0.1901 -0.7668  0.3118
  708MOL0     C95494   2.071   5.775   5.316  0.3146 -0.4978 -0.8418
  708MOL0     N95495   2.031   5.891   4.858  0.5054  0.0394 -1.0067
  708MOL0     N95496   2.061   5.934   4.750  0.2381  0.5488  0.2626
  708MOL0     C95497   2.036   6.938   4.339 -0.7838  0.5402 -0.0591
  708MOL0     C95498   2.019   7.074   4.314 -0.6735  0.3929  0.0852
  708MOL0     C95499   2.083   7.488   4.089 -0.1945  0.6830  1.3376
  708MOL0     C95500   2.113   7.557   3.966  0.6018 -0.7555  0.6292
  708MOL0     C95501   2.101   7.692   3.957 -0.0589 -0.3842 -0.1711
  708MOL0     C95502   2.065   7.769   4.074  0.0780  0.1621  0.5324
  708MOL0     O95503   2.067   7.906   4.061 -0.3649  0.7331 -1.2028
  708MOL0     C95504   2.065   7.983   3.932 -0.7767  0.3678  0.1436
  708MOL0     C95505   1.919   7.976   3.885 -0.6076  0.4958 -0.3627
  708MOL0     C95506   1.830   8.040   3.990 -0.2126  0.0417  0.7357
  708MOL0     C95507   1.690   8.019   3.945  0.4160 -0.6360  0.2285
  708MOL0     C95508   1.640   8.109   3.840 -0.0511  0.5260 -0.0270
  708MOL0     C95509   1.590   8.166   3.754 -0.9169 -0.1210  0.3623
  708MOL0     C95510   2.035   7.708   4.189 -0.0400  0.6252  0.8245
  708MOL0     C95511   2.044   7.564   4.200  0.6792 -0.8595 -0.7014
  708MOL0     C95512   2.014   7.508   4.344  0.3030  0.4643 -0.6561
  708MOL0     H95513   2.118   7.073   3.990 -0.5605 -0.9600  0.2544
  708MOL0     H95514   2.137   6.839   4.039 -0.0919  2.3758 -1.0977
  708MOL0     H95515   1.976   6.646   4.164  0.8044 -0.1400 -1.2919
  708MOL0     H95516   2.149   6.602   4.129  0.6663 -0.0509 -0.0593
  708MOL0     H95517   2.142   6.448   4.336  1.1513 -0.8954 -2.4224
  708MOL0     H95518   2.039   6.394   4.221  1.1402 -0.8012  1.4489
  708MOL0     H95519   1.841   6.473   4.296 -3.1700  1.5497  2.5484
  708MOL0     H95520   1.896   6.583   4.416 -1.5205  0.6775 -2.6452
  708MOL0     H95521   2.013   6.351   4.512  0.2932 -0.9275  0.1539
  708MOL0     H95522   1.849   6.421   4.558  1.0339  0.7721 -0.7601
  708MOL0     H95523   1.736   6.278   4.427  0.8586  3.3099  0.0458
  708MOL0     H95524   1.859   6.243   4.306  0.5598  0.2650  0.5239
  708MOL0     H95525   1.851   6.147   4.596 -2.5228 -0.5270 -0.8809
  708MOL0     H95526   1.782   6.059   4.450 -0.3845  0.1816 -1.3847
  708MOL0     H95527   2.079   6.115   4.460 -0.7070 -0.6128 -1.1032
  708MOL0     H95528   1.992   6.037   4.339 -0.5516  1.7270 -0.1943
  708MOL0     H95529   1.950   5.851   4.447 -0.5821 -0.4321 -0.0026
  708MOL0     H95530   2.120   5.888   4.504  1.3754  1.9465  0.7081
  708MOL0     H95531   1.834   5.727   4.660  1.3891 -0.6595 -0.6959
  708MOL0     H95532   1.853   5.606   4.882 -1.9783 -0.1881  0.0319
  708MOL0     H95533   1.955   5.666   5.009  0.0631  3.5764  1.2622
  708MOL0     H95534   1.668   5.719   4.912 -0.1742 -0.1880 -0.0030
  708MOL0     H95535   1.718   5.649   5.061 -0.5636 -1.2420 -0.4763
  708MOL0     H95536   1.643   5.901   5.103 -1.1322 -0.8011 -2.9572
  708MOL0     H95537   1.761   5.957   4.981  0.9696 -0.1886  0.6226
  708MOL0     H95538   1.840   5.971   5.220 -4.4767 -0.8010  0.5319
  708MOL0     H95539   1.933   5.885   5.095 -0.9234  3.0495 -0.7847
  708MOL0     H95540   1.841   5.528   5.324  2.1371 -4.0277 -1.7328
  708MOL0     H95541   2.024   5.420   5.464 -0.0562 -0.4973 -2.4517
  708MOL0     H95542   2.423   5.430   5.748 -0.6471  0.5413  0.8224
  708MOL0     H95543   2.599   5.444   5.886 -1.4940  2.5026  2.0492
  708MOL0     H95544   2.650   5.591   6.041 -0.8152 -2.9971  0.2863
  708MOL0     H95545   2.779   5.471   6.015  0.3932  0.5641 -1.5009
  708MOL0     H95546   2.954   5.605   6.094 -0.7319  2.0934 -0.3241
  708MOL0     H95547   2.851   5.741   6.119  0.8162  0.4250 -0.0135
  708MOL0     H95548   2.833   5.687   6.326 -2.0770  2.2243 -0.1491
  708MOL0     H95549   2.701   5.585   6.271  0.4752 -4.3239 -3.1064
  708MOL0     H95550   2.980   5.487   6.284  0.2223  1.2353 -1.6139
  708MOL0     H95551   2.825   5.392   6.265 -1.1310  1.0410  0.2837
  708MOL0     H95552   2.747   5.448   6.489 -0.2868 -1.4854 -0.6705
  708MOL0     H95553   2.892   5.555   6.505 -1.7641  2.4267 -1.3622
  708MOL0     H95554   2.893   5.255   6.476 -0.1684  1.9454 -3.3750
  708MOL0     H95555   3.039   5.350   6.529 -0.4458  0.0548  0.2704
  708MOL0     H95556   2.781   5.275   6.678 -0.4759  1.6648  1.0656
  708MOL0     H95557   2.865   5.423   6.713  2.4510  0.4490  0.6351
  708MOL0     H95558   3.057   5.286   6.751 -1.7681  0.6766 -0.9611
  708MOL0     H95559   2.923   5.242   6.854 -0.4487  2.2415  0.1133
  708MOL0     H95560   2.740   5.805   5.689  0.3659  2.1905  1.8976
  708MOL0     H95561   2.588   5.771   5.521  1.2886 -0.4439 -0.0930
  708MOL0     H95562   2.273   5.746   5.400 -0.2071  0.1856  0.2832
  708MOL0     H95563   2.091   5.876   5.282  0.3488 -0.7198 -1.5010
  708MOL0     H95564   2.023   6.902   4.440 -0.0328 -0.8565 -0.4413
  708MOL0     H95565   1.973   7.132   4.393 -1.5741  1.2968 -1.0612
  708MOL0     H95566   2.138   7.499   3.878  2.1679  0.5625  0.1716
  708MOL0     H95567   2.107   7.727   3.854 -0.9537 -0.4568 -0.2617
  708MOL0     H95568   2.139   7.931   3.870  1.3987 -0.5256  3.1970
  708MOL0     H95569   2.092   8.089   3.930 -2.1158  0.7380 -2.9953
  708MOL0     H95570   1.900   7.873   3.854 -1.0485  0.2705  0.6325
  708MOL0     H95571   1.909   8.031   3.790 -3.6687  2.5353  0.9819
  708MOL0     H95572   1.842   8.148   3.997  0.9893 -0.1773  2.4046
  708MOL0     H95573   1.846   7.993   4.087  1.6622  1.1699  1.0164
  708MOL0     H95574   1.681   7.917   3.905 -1.9403  0.5375 -2.6606
  708MOL0     H95575   1.617   8.021   4.027 -0.4898 -0.5015 -0.5663
  708MOL0     H95576   1.555   8.232   3.676  1.6015  1.3695  0.3942
  708MOL0     H95577   1.992   7.775   4.263 -0.4472  1.8031 -0.4357
  708MOL0     H95578   1.945   7.423   4.343 -1.3482  1.7467 -0.0960
  708MOL0     H95579   2.107   7.472   4.390  1.2842  2.6411 -0.7865
  708MOL0     H95580   1.974   7.588   4.407 -0.2720  0.6977 -1.3010
  709MOL0     O95581  10.738   7.585   4.969 -0.7569 -0.3967  0.4736
  709MOL0     C95582  10.810   7.486   4.957  0.5350 -0.4356  0.4504
  709MOL0     O95583  10.767   7.359   4.964 -0.0925 -1.0877 -0.7550
  709MOL0     C95584  10.644   7.326   5.023 -0.1405 -0.1503  0.4759
  709MOL0     C95585  10.525   7.381   4.969 -0.0349 -0.3832 -1.3755
  709MOL0     C95586  10.411   7.390   5.047  0.3568  0.1590 -0.7950
  709MOL0     C95587  10.410   7.324   5.178 -0.9172  0.8338 -0.5018
  709MOL0     O95588  10.331   7.330   5.280  0.1670 -0.0665 -0.0099
  709MOL0     C95589  10.213   7.413   5.266  0.3980 -0.6340 -0.2609
  709MOL0     C95590  10.137   7.415   5.400 -0.5069  0.5663 -0.2646
  709MOL0     C95591  10.097   7.273   5.432  0.3650 -0.3821  0.9058
  709MOL0     C95592  10.006   7.274   5.549  0.0545  0.0374 -0.5309
  709MOL0     C95593   9.888   7.169   5.560  0.3616  0.1459 -0.5288
  709MOL0     C95594   9.810   7.189   5.683  0.0728  0.7092 -0.0430
  709MOL0     C95595   9.701   7.081   5.702  0.8262  0.7151  0.0776
  709MOL0     C95596   9.667   7.065   5.846 -0.7583  0.3991 -0.3844
  709MOL0     N95597   9.583   7.173   5.889 -0.1336 -0.1370 -0.1141
  709MOL0     C95598   9.464   7.212   5.845 -0.1011 -0.5076 -0.0939
  709MOL0     C95599   9.419   7.316   5.918  0.7499 -0.0525 -0.6032
  709MOL0     C95600   9.305   7.408   5.912  0.0114 -0.0481  0.1807
  709MOL0     C95601   9.196   7.346   6.004 -0.1711 -0.1753  0.8094
  709MOL0     C95602   9.206   7.405   6.152  0.1573  0.8254 -0.0545
  709MOL0     C95603   9.181   7.558   6.160  0.9346  0.2393  0.7517
  709MOL0     O95604   9.256   7.611   6.268  0.2077  0.7108  0.1554
  709MOL0     C95605   9.214   7.606   6.404  0.2211 -0.1281  1.0897
  709MOL0     C95606   9.309   7.599   6.512  0.3899 -0.9505  0.0627
  709MOL0     C95607   9.270   7.600   6.643  0.6337 -0.1171  1.0912
  709MOL0     C95608   9.130   7.588   6.679  1.2207 -1.1984 -0.1884
  709MOL0     C95609   9.082   7.567   6.819  0.5729 -0.1853  0.4100
  709MOL0     O95610   9.177   7.537   6.916 -0.2385 -0.3984  0.8223
  709MOL0     C95611   9.159   7.542   7.049  1.0264  0.3176 -0.1532
  709MOL0     C95612   9.043   7.566   7.125  0.1363  0.3717 -0.1168
  709MOL0     C95613   9.032   7.550   7.262 -0.1883 -0.1241  0.2274
  709MOL0     C95614   9.160   7.556   7.334 -0.5542  1.0927 -0.1405
  709MOL0     O95615   9.176   7.578   7.466 -0.8103  0.3574 -0.0074
  709MOL0     C95616   9.058   7.566   7.551 -0.5513  0.8092  0.3490
  709MOL0     C95617   8.996   7.707   7.551 -0.5932  0.1455 -0.6441
  709MOL0     C95618   9.098   7.813   7.619 -1.0912 -0.0871  0.1110
  709MOL0     C95619   9.024   7.940   7.652  0.4828 -0.1476  0.0428
  709MOL0     C95620   9.092   8.025   7.755  0.0175 -0.1368 -0.6055
  709MOL0     C95621   9.217   8.089   7.705  0.2595 -0.1653  0.8742
  709MOL0     C95622   9.266   8.191   7.812  0.4327  1.3070  0.1454
  709MOL0     C95623   9.374   8.282   7.758 -0.8668 -0.1380  0.5494
  709MOL0    Cl95624   9.415   8.406   7.889 -0.0404  0.2192  0.7266
  709MOL0     C95625   9.272   7.519   7.261  0.2245  0.5377  0.0161
  709MOL0     C95626   9.274   7.503   7.125  0.3280 -0.6137 -0.5995
  709MOL0     O95627   8.962   7.573   6.835 -0.4632  0.0531  0.5406
  709MOL0     C95628   9.040   7.599   6.569 -0.2241  1.1602 -0.5264
  709MOL0     C95629   9.083   7.601   6.445  0.2071 -0.8704  0.3234
  709MOL0     N95630   9.525   7.332   6.015 -0.2304 -0.6155  0.0990
  709MOL0     N95631   9.616   7.244   5.992 -0.1199  0.2577 -0.3389
  709MOL0     C95632  10.529   7.246   5.210  0.3790  1.2947  1.3131
  709MOL0     C95633  10.646   7.264   5.137  0.1769 -0.4097  0.2766
  709MOL0     C95634  10.955   7.515   4.934 -0.2342  0.0538 -0.0050
  709MOL0     C95635  11.000   7.651   4.947  0.3978  0.4645  0.0318
  709MOL0     C95636  11.136   7.689   4.956 -0.4524 -0.5400  0.6800
  709MOL0     C95637  11.229   7.591   4.944  0.4595  0.1838 -0.4169
  709MOL0     O95638  11.364   7.622   4.951 -0.5678  0.2075  0.1568
  709MOL0     C95639  11.446   7.599   4.829 -0.0379  0.8268 -0.1312
  709MOL0     C95640  11.384   7.654   4.704  0.9515  0.0560 -0.0413
  709MOL0     C95641  11.474   7.708   4.590  0.3037  0.3969  1.1632
  709MOL0     C95642  11.386   7.741   4.466  0.0895 -0.4835  0.6043
  709MOL0     C95643  11.273   7.832   4.488  0.9605 -0.7238 -0.7253
  709MOL0     C95644  11.175   7.907   4.497  0.1192  0.1270  0.1817
  709MOL0     C95645  11.190   7.459   4.915 -1.3218 -0.2839  0.9765
  709MOL0     C95646  11.063   7.415   4.911  1.1083  0.5419  0.4184
  709MOL0     C95647  11.050   7.266   4.878 -0.6680  0.1951  0.1924
  709MOL0     H95648  10.528   7.436   4.876  2.6489 -1.0714 -1.8034
  709MOL0     H95649  10.325   7.450   5.019  1.1686  1.3144 -0.8939
  709MOL0     H95650  10.257   7.511   5.248  2.4950 -1.3199  0.7652
  709MOL0     H95651  10.141   7.386   5.189 -1.0887  1.7285  0.1984
  709MOL0     H95652  10.052   7.483   5.396 -1.7936 -0.5157  3.7300
  709MOL0     H95653  10.197   7.453   5.484  0.0820 -1.9199  0.5293
  709MOL0     H95654  10.187   7.221   5.464 -1.0320 -1.7438  2.8862
  709MOL0     H95655  10.046   7.221   5.350  1.3223  0.4371 -0.2306
  709MOL0     H95656  10.070   7.264   5.637  0.7136  0.0923 -0.9983
  709MOL0     H95657   9.962   7.374   5.551  0.7913  0.4357 -2.0364
  709MOL0     H95658   9.831   7.193   5.470 -1.0951  0.0494  0.3416
  709MOL0     H95659   9.930   7.069   5.546 -0.3910 -0.3196  0.4188
  709MOL0     H95660   9.878   7.174   5.768  0.2293  1.1000 -0.0977
  709MOL0     H95661   9.756   7.284   5.687 -0.1534  0.5619  2.2475
  709MOL0     H95662   9.744   6.985   5.670  2.2664  1.2473  0.3422
  709MOL0     H95663   9.603   7.102   5.659 -0.1659  1.6818  2.6146
  709MOL0     H95664   9.600   6.979   5.842 -2.1199  1.3347  1.1540
  709MOL0     H95665   9.747   7.026   5.909 -1.0280 -0.2325 -0.4271
  709MOL0     H95666   9.435   7.191   5.742  0.0352  2.1671 -0.7725
  709MOL0     H95667   9.343   7.509   5.931 -1.8422  0.7301  0.0090
  709MOL0     H95668   9.292   7.401   5.803  1.9202 -0.8151 -0.0278
  709MOL0     H95669   9.097   7.371   5.965  0.4412 -0.2270 -0.8391
  709MOL0     H95670   9.206   7.237   6.008  1.6846 -0.0021  2.7514
  709MOL0     H95671   9.306   7.384   6.192  1.1720  0.7264 -2.4967
  709MOL0     H95672   9.119   7.368   6.206 -0.9635  3.0660 -0.1891
  709MOL0     H95673   9.076   7.586   6.170  1.2622  0.9302  2.5927
  709MOL0     H95674   9.219   7.610   6.071 -0.4950 -1.1239 -0.7185
  709MOL0     H95675   9.416   7.585   6.504  0.7105 -0.7153  2.9545
  709MOL0     H95676   9.351   7.597   6.716  0.2735  0.0286  1.5045
  709MOL0     H95677   8.949   7.594   7.079 -0.9890 -1.3621  0.9972
  709MOL0     H95678   8.935   7.578   7.303  0.3194  0.2845  1.1807
  709MOL0     H95679   8.989   7.490   7.513  0.1343 -1.1534  2.7810
  709MOL0     H95680   9.078   7.537   7.654  3.2245  4.1233  0.7932
  709MOL0     H95681   8.967   7.738   7.450  0.6063  1.6338 -0.5611
  709MOL0     H95682   8.906   7.714   7.612  0.1274  3.6186  0.2396
  709MOL0     H95683   9.142   7.769   7.709 -3.3290  4.8748  4.1606
  709MOL0     H95684   9.182   7.837   7.554  0.8712 -1.3840  2.0567
  709MOL0     H95685   8.925   7.907   7.684  0.3360 -2.2733 -2.2803
  709MOL0     H95686   8.999   7.997   7.562 -0.7742  1.2544  1.2336
  709MOL0     H95687   9.119   7.957   7.837 -1.4805 -0.5547 -0.4377
  709MOL0     H95688   9.023   8.098   7.798 -0.6329 -1.0419 -0.0899
  709MOL0     H95689   9.295   8.018   7.673  2.0357  3.9795 -6.1697
  709MOL0     H95690   9.191   8.142   7.613 -1.0859 -0.4972  1.0344
  709MOL0     H95691   9.295   8.131   7.897  3.5721 -1.9140 -2.8820
  709MOL0     H95692   9.190   8.265   7.842  0.8215  1.9246 -0.3566
  709MOL0     H95693   9.463   8.220   7.743 -0.4088  0.1795  1.7944
  709MOL0     H95694   9.353   8.328   7.661  2.3902  3.7336  1.3853
  709MOL0     H95695   9.366   7.514   7.316 -1.2507 -0.4142  2.6350
  709MOL0     H95696   9.365   7.465   7.080 -0.6220 -3.6714 -0.1747
  709MOL0     H95697   8.935   7.603   6.594 -0.0547  0.7922  0.2776
  709MOL0     H95698   9.001   7.592   6.375 -0.0810 -1.2378  0.7024
  709MOL0     H95699  10.547   7.179   5.294  3.2530 -1.1920 -1.0545
  709MOL0     H95700  10.736   7.213   5.170 -0.7233 -1.4808  1.1539
  709MOL0     H95701  10.930   7.734   4.946 -2.0599 -1.4883 -0.1494
  709MOL0     H95702  11.158   7.795   4.969 -0.5394 -0.6465  1.7759
  709MOL0     H95703  11.468   7.492   4.829  3.6313  1.3946  2.8180
  709MOL0     H95704  11.537   7.655   4.851  0.3461  1.5443 -3.0622
  709MOL0     H95705  11.315   7.732   4.736  1.4897 -0.0851  1.5705
  709MOL0     H95706  11.327   7.575   4.654  1.3959 -0.7316  0.6635
  709MOL0     H95707  11.549   7.634   4.559 -1.2678  0.3360 -3.0317
  709MOL0     H95708  11.521   7.798   4.634 -1.8474  1.3588  1.6154
  709MOL0     H95709  11.452   7.795   4.397 -0.3390  1.6307  1.7729
  709MOL0     H95710  11.337   7.655   4.419  0.7394 -1.6532  1.9938
  709MOL0     H95711  11.088   7.968   4.488 -0.3573 -0.8269 -2.4066
  709MOL0     H95712  11.268   7.387   4.892 -1.4260 -0.2976  0.6577
  709MOL0     H95713  11.011   7.267   4.776  0.5380  0.4334 -0.2841
  709MOL0     H95714  11.147   7.217   4.867 -1.0170 -1.0066  2.0517
  709MOL0     H95715  10.991   7.208   4.949 -0.8412 -0.4730 -0.4768
  710MOL0     O95716   7.525   9.075   6.256 -0.8828 -0.6302  0.0945
  710MOL0     C95717   7.570   9.188   6.268  0.6383  0.6880  0.4266
  710MOL0     O95718   7.691   9.231   6.218 -0.2628 -0.3251  0.6524
  710MOL0     C95719   7.767   9.137   6.154  0.4756  0.4585 -0.7469
  710MOL0     C95720   7.900   9.132   6.198  0.1923  0.1800 -0.2741
  710MOL0     C95721   7.980   9.031   6.133  0.4877  0.8928 -0.3684
  710MOL0     C95722   7.922   8.944   6.038  0.1261  0.6990  0.1661
  710MOL0     O95723   7.995   8.838   5.979  0.9031  0.1066 -0.3428
  710MOL0     C95724   7.952   8.701   5.993 -0.2357 -0.0252  0.1642
  710MOL0     C95725   8.014   8.626   5.880 -0.5212  0.0864 -0.4194
  710MOL0     C95726   7.952   8.661   5.742  0.7709  0.1474 -0.5722
  710MOL0     C95727   7.831   8.578   5.697  0.0475 -0.3065  0.5809
  710MOL0     C95728   7.785   8.591   5.552 -0.3340  0.2815  0.0145
  710MOL0     C95729   7.750   8.728   5.503 -0.2605 -0.2814  0.1303
  710MOL0     C95730   7.702   8.710   5.357  0.2967 -0.3080 -0.1322
  710MOL0     C95731   7.605   8.817   5.307  0.3994 -0.3297  0.8428
  710MOL0     N95732   7.582   8.814   5.159  0.4508  0.8785  0.0272
  710MOL0     C95733   7.472   8.882   5.093  0.1759  1.1015 -0.4650
  710MOL0     C95734   7.504   8.880   4.962 -0.0519 -1.0168 -0.2910
  710MOL0     C95735   7.403   8.886   4.838  0.0982 -0.7419  0.2755
  710MOL0     C95736   7.428   8.765   4.743 -0.4625  0.3929  0.7932
  710MOL0     C95737   7.301   8.740   4.669  0.1846  1.0816  0.5146
  710MOL0     C95738   7.307   8.600   4.604  0.8404 -0.0520  0.5516
  710MOL0     O95739   7.170   8.557   4.550 -0.5125 -0.7193 -0.3415
  710MOL0     C95740   7.077   8.559   4.650 -0.3652 -0.2676  0.1701
  710MOL0     C95741   6.953   8.620   4.618 -1.1905  0.6632 -0.4140
  710MOL0     C95742   6.852   8.634   4.709  0.6129  0.6433 -0.0833
  710MOL0     C95743   6.877   8.605   4.846  0.9595  0.3648 -0.2706
  710MOL0     C95744   6.767   8.611   4.951  0.6692  1.0006 -0.2213
  710MOL0     O95745   6.645   8.666   4.921 -0.5986 -0.2220  0.3875
  710MOL0     C95746   6.535   8.645   5.000  0.3533 -0.1403 -0.4966
  710MOL0     C95747   6.420   8.730   4.964 -0.1102  0.3857 -0.5031
  710MOL0     C95748   6.297   8.721   5.036  0.0052  0.0821  0.3766
  710MOL0     C95749   6.295   8.639   5.147  1.1704  0.0631 -0.5270
  710MOL0     O95750   6.189   8.634   5.238 -0.6355  0.2090  0.0757
  710MOL0     C95751   6.118   8.757   5.249  0.1119 -0.5556 -0.0749
  710MOL0     C95752   6.011   8.744   5.360 -0.2035 -0.3800  0.8276
  710MOL0     C95753   5.891   8.835   5.312 -0.2053 -0.4549 -1.0732
  710MOL0     C95754   5.810   8.874   5.435 -0.5174 -0.0391 -0.6220
  710MOL0     C95755   5.673   8.918   5.407 -0.2170  0.3169 -0.0519
  710MOL0     C95756   5.598   8.967   5.535  0.1177 -0.1779 -0.0752
  710MOL0     C95757   5.476   9.056   5.500 -0.0722  0.5387 -0.0746
  710MOL0     C95758   5.377   9.055   5.613  0.0318  0.0814  0.3312
  710MOL0    Cl95759   5.235   9.151   5.581 -0.2101 -0.0123  0.4770
  710MOL0     C95760   6.402   8.558   5.183  0.8776 -0.3945  0.1984
  710MOL0     C95761   6.523   8.559   5.114  0.4525  0.6799  0.5178
  710MOL0     O95762   6.796   8.565   5.066  0.7260 -0.1017  0.5747
  710MOL0     C95763   6.995   8.535   4.878  0.4361 -0.1391  0.8098
  710MOL0     C95764   7.090   8.511   4.780 -0.5497  0.6613  0.0949
  710MOL0     N95765   7.645   8.855   4.957  0.4621  1.2482 -0.0765
  710MOL0     N95766   7.682   8.798   5.068  0.1146 -0.9305 -0.9144
  710MOL0     C95767   7.797   8.957   5.997  0.2532  0.8804  0.4858
  710MOL0     C95768   7.716   9.052   6.049 -0.3464  0.0698  0.0192
  710MOL0     C95769   7.480   9.298   6.296  0.1125 -0.9677 -0.8233
  710MOL0     C95770   7.527   9.438   6.320  0.3441  0.3579 -0.3246
  710MOL0     C95771   7.439   9.547   6.337 -0.9074 -0.0601  0.0324
  710MOL0     C95772   7.307   9.537   6.332 -0.0384  0.5133 -0.8159
  710MOL0     O95773   7.211   9.632   6.348 -0.4650  0.4319  0.5472
  710MOL0     C95774   7.250   9.769   6.355  0.6741  0.3726  0.4547
  710MOL0     C95775   7.135   9.858   6.411 -1.1438 -1.4724 -0.0989
  710MOL0     C95776   7.184   9.976   6.497  0.8944 -0.5544 -0.0867
  710MOL0     C95777   7.066  10.051   6.574 -0.7391  0.6025 -0.2626
  710MOL0     C95778   6.981  10.138   6.495 -0.3402 -0.0051  0.4356
  710MOL0     C95779   6.906  10.208   6.435  1.0177  0.0963  0.7271
  710MOL0     C95780   7.253   9.406   6.315 -0.1982 -0.8416 -0.5841
  710MOL0     C95781   7.336   9.288   6.306  0.7085 -0.7006 -1.1504
  710MOL0     C95782   7.248   9.161   6.293  0.3776 -0.1815 -0.2259
  710MOL0     H95783   7.937   9.217   6.255 -1.1905  2.3387 -2.3873
  710MOL0     H95784   8.081   9.021   6.170  1.2377  3.6332 -1.4923
  710MOL0     H95785   7.975   8.668   6.094  0.2510 -0.4845 -0.0931
  710MOL0     H95786   7.844   8.709   5.974 -0.1276 -0.8248 -0.9019
  710MOL0     H95787   7.991   8.521   5.902  0.2400  0.2377  1.2539
  710MOL0     H95788   8.122   8.644   5.875 -0.3552 -0.5048  0.6665
  710MOL0     H95789   8.029   8.641   5.667 -1.4912 -0.8182 -2.7812
  710MOL0     H95790   7.928   8.768   5.734 -1.4629 -0.1456  1.1837
  710MOL0     H95791   7.862   8.473   5.703  0.2394 -0.2020  1.4913
  710MOL0     H95792   7.753   8.607   5.767 -0.2594  0.0903  0.0808
  710MOL0     H95793   7.871   8.557   5.493  0.3230  1.0037  0.5344
  710MOL0     H95794   7.704   8.518   5.544 -0.7568  0.8627 -1.3251
  710MOL0     H95795   7.680   8.779   5.570  0.6192  2.1622 -0.6939
  710MOL0     H95796   7.839   8.790   5.511  0.4868 -1.5126  1.8176
  710MOL0     H95797   7.642   8.621   5.340  1.5016 -0.8376 -1.8677
  710MOL0     H95798   7.785   8.709   5.287  1.0938  0.8723  0.7596
  710MOL0     H95799   7.505   8.813   5.352  0.3452  1.2185  0.9193
  710MOL0     H95800   7.652   8.914   5.325 -0.4455  0.0932  0.8270
  710MOL0     H95801   7.380   8.926   5.128 -0.7309 -1.3237  0.3509
  710MOL0     H95802   7.298   8.887   4.869 -0.6502  2.3659 -1.9635
  710MOL0     H95803   7.417   8.976   4.778  0.9331 -1.8826 -1.3082
  710MOL0     H95804   7.515   8.786   4.680 -1.8246  3.3466 -0.3274
  710MOL0     H95805   7.456   8.681   4.807  3.7873 -0.2117 -1.5218
  710MOL0     H95806   7.285   8.808   4.584  1.8529 -0.0168 -0.7444
  710MOL0     H95807   7.214   8.747   4.735 -0.0653 -4.0017  1.1254
  710MOL0     H95808   7.347   8.524   4.671  3.7020 -0.3495 -1.3063
  710MOL0     H95809   7.373   8.607   4.516 -0.4897 -1.6340 -0.6402
  710MOL0     H95810   6.932   8.647   4.516  3.7000  1.4204 -1.4887
  710MOL0     H95811   6.760   8.678   4.671 -0.8739 -1.9259  0.3059
  710MOL0     H95812   6.430   8.790   4.874 -0.6696 -0.8017 -1.3835
  710MOL0     H95813   6.207   8.771   5.002  1.5523  1.9271 -1.2290
  710MOL0     H95814   6.203   8.822   5.271  2.4655 -3.6219  0.6422
  710MOL0     H95815   6.070   8.781   5.154  1.7853  3.4780 -0.1099
  710MOL0     H95816   5.983   8.641   5.383 -0.6484 -0.2420  0.9147
  710MOL0     H95817   6.062   8.782   5.449  0.6550 -2.6608  1.3810
  710MOL0     H95818   5.929   8.929   5.271  0.6166  1.1017  2.8327
  710MOL0     H95819   5.825   8.777   5.247 -2.5760 -0.1817  0.9288
  710MOL0     H95820   5.871   8.943   5.495  0.7705 -0.7799 -1.0376
  710MOL0     H95821   5.806   8.790   5.505 -0.7948  1.3016  1.0277
  710MOL0     H95822   5.608   8.842   5.363 -0.6326  0.7621 -0.2134
  710MOL0     H95823   5.684   8.995   5.330 -0.1029 -0.3114 -0.6743
  710MOL0     H95824   5.564   8.881   5.594  0.5268 -2.1524 -2.5463
  710MOL0     H95825   5.669   9.021   5.598  2.5864 -3.1937 -0.0394
  710MOL0     H95826   5.417   9.032   5.412 -2.2160  2.0561  0.8599
  710MOL0     H95827   5.503   9.159   5.477 -0.5593  1.2496  2.2884
  710MOL0     H95828   5.351   8.951   5.635 -0.6848 -0.3508 -2.2710
  710MOL0     H95829   5.426   9.085   5.707  1.5098 -1.5268  0.1165
  710MOL0     H95830   6.398   8.489   5.267 -1.7481  2.8689  2.9873
  710MOL0     H95831   6.596   8.485   5.145  1.7608  2.3436  1.6434
  710MOL0     H95832   7.012   8.477   4.968 -0.9452  1.8881  2.4807
  710MOL0     H95833   7.179   8.463   4.819  0.0605  2.0933  0.5307
  710MOL0     H95834   7.774   8.894   5.912  3.3247  1.0911 -0.6229
  710MOL0     H95835   7.616   9.079   6.019  0.1796  2.5544  0.3304
  710MOL0     H95836   7.629   9.468   6.338 -0.3535  1.5825  2.0003
  710MOL0     H95837   7.485   9.644   6.354 -0.3892 -0.7180  3.0620
  710MOL0     H95838   7.272   9.825   6.264 -0.5956  3.0192  1.6705
  710MOL0     H95839   7.332   9.769   6.427 -0.9098 -2.8749  2.4971
  710MOL0     H95840   7.062   9.794   6.460 -1.5099 -0.9723  0.0229
  710MOL0     H95841   7.084   9.909   6.328  2.0641 -1.4357 -2.2020
  710MOL0     H95842   7.235  10.052   6.437  1.6578  1.3780  2.8218
  710MOL0     H95843   7.255   9.936   6.570  2.4835 -0.8687 -1.7301
  710MOL0     H95844   7.008   9.971   6.620  1.6578 -0.3183  1.3982
  710MOL0     H95845   7.104  10.111   6.657  2.4362 -1.4632 -0.0451
  710MOL0     H95846   6.842  10.257   6.364 -0.7175 -0.3440  1.9160
  710MOL0     H95847   7.145   9.404   6.310 -0.4529 -1.5720  2.8680
  710MOL0     H95848   7.144   9.172   6.325 -0.2839 -0.1064 -2.2734
  710MOL0     H95849   7.253   9.143   6.185  0.7109 -2.6307  0.1270
  710MOL0     H95850   7.291   9.079   6.353  2.0703  0.8591  0.0365
  711MOL0     O95851   9.117   5.241   7.967 -0.2336 -0.1271  0.7805
  711MOL0     C95852   9.191   5.257   8.070 -0.2066  0.4101 -0.2811
  711MOL0     O95853   9.275   5.369   8.086  0.7337  0.3014  0.3455
  711MOL0     C95854   9.298   5.438   7.974 -0.1572  0.3628  0.0401
  711MOL0     C95855   9.384   5.390   7.882 -0.0336  1.0115 -0.1383
  711MOL0     C95856   9.413   5.461   7.761 -0.2148 -0.1768 -0.0290
  711MOL0     C95857   9.358   5.590   7.741 -0.0198  0.2312  0.2729
  711MOL0     O95858   9.390   5.658   7.625  0.2459 -0.0878 -0.0916
  711MOL0     C95859   9.328   5.782   7.585  0.2986  1.2430  0.0565
  711MOL0     C95860   9.381   5.818   7.446  0.1611 -0.6657  0.6749
  711MOL0     C95861   9.494   5.914   7.468 -1.1299 -0.3673 -1.4926
  711MOL0     C95862   9.454   6.064   7.480  0.1799  0.2893 -1.2477
  711MOL0     C95863   9.527   6.146   7.587  0.5946  0.8391 -0.3265
  711MOL0     C95864   9.666   6.173   7.530  0.0719  0.2133  1.0732
  711MOL0     C95865   9.749   6.279   7.601  0.2818 -0.1863  0.0003
  711MOL0     C95866   9.893   6.291   7.563 -0.1505 -0.0890  0.4897
  711MOL0     N95867   9.925   6.270   7.420  0.7342 -0.6469 -0.3617
  711MOL0     C95868   9.888   6.359   7.317  0.1578  0.8193  0.3753
  711MOL0     C95869   9.964   6.312   7.214  0.2002 -0.2579  0.3275
  711MOL0     C95870   9.996   6.384   7.080 -0.1562  0.2349 -0.3528
  711MOL0     C95871  10.092   6.314   6.981  0.1104 -0.2964 -0.3670
  711MOL0     C95872  10.162   6.407   6.874  0.8815 -0.0117  0.1709
  711MOL0     C95873  10.096   6.526   6.825  1.0981  0.9328  0.7473
  711MOL0     O95874   9.974   6.486   6.758 -0.7673 -0.0965 -0.4540
  711MOL0     C95875   9.888   6.587   6.738 -0.1994  0.2750  0.3575
  711MOL0     C95876   9.794   6.626   6.836  0.6474 -0.5536 -0.2945
  711MOL0     C95877   9.705   6.737   6.807 -0.5530 -0.3066 -1.0648
  711MOL0     C95878   9.716   6.798   6.682 -0.0430 -1.2179 -0.3268
  711MOL0     C95879   9.624   6.908   6.654  1.4741 -0.0225  0.1118
  711MOL0     O95880   9.496   6.878   6.687 -0.7104  0.8413 -0.1915
  711MOL0     C95881   9.391   6.952   6.644  0.3900  0.5297 -1.1902
  711MOL0     C95882   9.369   7.091   6.654  1.5404  0.2906 -1.0318
  711MOL0     C95883   9.249   7.145   6.604 -0.1670 -0.0307 -0.2055
  711MOL0     C95884   9.151   7.074   6.532 -0.7473 -0.0656 -0.1760
  711MOL0     O95885   9.036   7.115   6.485  0.5482  0.3806  0.2463
  711MOL0     C95886   8.983   7.247   6.530 -0.1858 -0.6776 -0.0952
  711MOL0     C95887   8.891   7.236   6.646 -0.0577 -0.3441 -0.8797
  711MOL0     C95888   8.788   7.132   6.623 -0.0242  0.9204  0.7605
  711MOL0     C95889   8.679   7.079   6.728  1.1396  0.3124  0.4865
  711MOL0     C95890   8.600   6.957   6.671 -0.6028  0.6008 -0.4334
  711MOL0     C95891   8.687   6.836   6.658  0.1163  0.3935 -0.9509
  711MOL0     C95892   8.597   6.752   6.567  0.2887  0.3039 -0.0227
  711MOL0     C95893   8.674   6.631   6.503  0.1680 -0.4876 -0.1050
  711MOL0    Cl95894   8.829   6.679   6.428 -0.1281 -0.2818 -0.1620
  711MOL0     C95895   9.184   6.939   6.513  0.3465  0.8285 -1.2006
  711MOL0     C95896   9.297   6.881   6.575  0.2635  0.1108 -0.3027
  711MOL0     O95897   9.657   7.011   6.599 -0.5169 -0.3236 -0.2585
  711MOL0     C95898   9.821   6.760   6.591  0.4803  0.2398  0.1840
  711MOL0     C95899   9.902   6.650   6.618 -0.3505 -0.9562  0.5609
  711MOL0     N95900  10.026   6.191   7.255  1.2359  0.1456 -0.6858
  711MOL0     N95901  10.002   6.173   7.378  0.4253  0.1100  0.8667
  711MOL0     C95902   9.262   5.636   7.830 -1.0827  1.0423 -0.5289
  711MOL0     C95903   9.251   5.569   7.957  0.6250 -0.3979 -0.4494
  711MOL0     C95904   9.180   5.165   8.183 -0.4839 -0.1634 -0.1121
  711MOL0     C95905   9.297   5.098   8.219  0.5814 -0.8712 -0.5124
  711MOL0     C95906   9.291   5.004   8.322 -0.3202  0.5453 -0.4688
  711MOL0     C95907   9.173   4.973   8.399 -0.2680  0.0809 -0.2738
  711MOL0     O95908   9.193   4.891   8.502 -0.2848 -0.1115  0.1234
  711MOL0     C95909   9.074   4.818   8.560 -0.7958 -0.1056 -0.1474
  711MOL0     C95910   9.140   4.695   8.631  0.4288 -0.2035 -0.1397
  711MOL0     C95911   9.061   4.632   8.745  0.1529  1.3597 -0.2860
  711MOL0     C95912   8.921   4.586   8.712 -0.3997  0.0189 -0.0366
  711MOL0     C95913   8.910   4.471   8.622  0.6053 -0.0831 -0.5480
  711MOL0     C95914   8.900   4.364   8.553 -0.5202 -0.7547 -0.8265
  711MOL0     C95915   9.057   5.042   8.370 -0.0480 -1.0399  0.3428
  711MOL0     C95916   9.058   5.139   8.255 -0.3037 -0.5255 -0.0499
  711MOL0     C95917   8.936   5.201   8.206 -0.2137  1.3518 -0.5654
  711MOL0     H95918   9.408   5.285   7.893  0.5858  0.9936 -1.4799
  711MOL0     H95919   9.470   5.417   7.680 -0.1321 -0.9274  0.4196
  711MOL0     H95920   9.222   5.760   7.569  0.0569  3.7588 -2.4333
  711MOL0     H95921   9.347   5.862   7.658  1.9038 -0.2401  1.3599
  711MOL0     H95922   9.315   5.865   7.372  0.9618  2.0886  1.5501
  711MOL0     H95923   9.409   5.724   7.399 -2.4917 -1.1757 -0.0256
  711MOL0     H95924   9.571   5.900   7.391  0.2529  1.2369 -0.4953
  711MOL0     H95925   9.546   5.902   7.563 -2.5055 -0.7138 -0.7643
  711MOL0     H95926   9.454   6.112   7.382 -5.0461  1.3247 -1.0205
  711MOL0     H95927   9.350   6.069   7.513  1.2389 -1.6884  3.0917
  711MOL0     H95928   9.470   6.237   7.609  1.8456  1.3794  0.9125
  711MOL0     H95929   9.536   6.094   7.683 -4.5847 -0.0348 -0.0070
  711MOL0     H95930   9.719   6.078   7.519 -1.7589 -0.6957 -0.7156
  711MOL0     H95931   9.647   6.198   7.425 -5.0024  1.7168  2.1024
  711MOL0     H95932   9.749   6.288   7.710  3.2320 -0.7825  0.1274
  711MOL0     H95933   9.700   6.365   7.553 -1.4420 -1.5841 -0.8519
  711MOL0     H95934   9.928   6.390   7.593  0.4708 -0.6613  1.6867
  711MOL0     H95935   9.955   6.232   7.631 -1.1224 -0.1994  1.3048
  711MOL0     H95936   9.838   6.453   7.338 -0.3145  0.3141  1.5936
  711MOL0     H95937   9.896   6.407   7.041 -1.3147  1.3282  2.8963
  711MOL0     H95938  10.040   6.482   7.104 -3.0666  1.4764  0.3520
  711MOL0     H95939  10.169   6.261   7.040  0.7831  4.1983  3.3710
  711MOL0     H95940  10.034   6.235   6.933  0.7538  0.0267 -1.6996
  711MOL0     H95941  10.180   6.350   6.783  2.6708 -0.3850  0.7176
  711MOL0     H95942  10.263   6.437   6.903  0.4139  1.1000  0.7543
  711MOL0     H95943  10.166   6.579   6.759  1.0314 -1.5134 -1.4796
  711MOL0     H95944  10.068   6.589   6.909 -5.1646 -1.4642  0.9355
  711MOL0     H95945   9.783   6.578   6.933  3.5768 -1.0248 -0.1165
  711MOL0     H95946   9.630   6.758   6.882  1.2364  0.8174  0.5164
  711MOL0     H95947   9.431   7.144   6.725 -0.7995  0.6621  0.8564
  711MOL0     H95948   9.235   7.245   6.644  1.9910 -0.8639  3.1041
  711MOL0     H95949   9.052   7.332   6.537 -1.2286  0.0564  1.8237
  711MOL0     H95950   8.920   7.292   6.452 -1.1107  0.1574  1.1051
  711MOL0     H95951   8.955   7.207   6.730  0.4828  0.5809 -0.9651
  711MOL0     H95952   8.844   7.333   6.667  1.6141 -0.2671  3.4247
  711MOL0     H95953   8.733   7.168   6.535  0.8429 -1.8261 -1.0563
  711MOL0     H95954   8.829   7.040   6.581 -1.3958  0.2218  0.8922
  711MOL0     H95955   8.621   7.169   6.746  2.9936  2.0864 -1.7662
  711MOL0     H95956   8.729   7.045   6.819  3.2004  1.7416 -0.0422
  711MOL0     H95957   8.546   6.992   6.582 -2.1012 -0.1622  0.1383
  711MOL0     H95958   8.516   6.938   6.738  0.3831  1.3529  1.0675
  711MOL0     H95959   8.788   6.857   6.623  0.6226 -2.0727 -1.1454
  711MOL0     H95960   8.695   6.781   6.752 -2.7734  0.4604 -0.5592
  711MOL0     H95961   8.552   6.797   6.477  1.9269 -0.0365 -1.0521
  711MOL0     H95962   8.507   6.723   6.622  1.9684  1.6474  3.7971
  711MOL0     H95963   8.703   6.560   6.581 -1.2432  0.8047  1.6876
  711MOL0     H95964   8.609   6.580   6.432  0.5935 -2.1928  0.6744
  711MOL0     H95965   9.125   6.877   6.447 -0.8989  0.5383  0.1368
  711MOL0     H95966   9.329   6.780   6.552 -1.5352 -0.2667 -1.3539
  711MOL0     H95967   9.826   6.818   6.499 -2.1372 -0.7351 -0.6703
  711MOL0     H95968   9.980   6.618   6.550  0.4399  1.6057  0.1420
  711MOL0     H95969   9.229   5.739   7.819  0.2957  1.4580 -1.0591
  711MOL0     H95970   9.184   5.616   8.028  0.2989 -0.1091 -0.9338
  711MOL0     H95971   9.390   5.120   8.167 -0.5958  0.5619 -2.1390
  711MOL0     H95972   9.390   4.971   8.353 -0.0740 -0.3229 -2.1059
  711MOL0     H95973   9.005   4.799   8.477 -0.2480  0.9188 -0.8699
  711MOL0     H95974   9.019   4.873   8.637 -0.3355  1.0580 -0.6230
  711MOL0     H95975   9.219   4.726   8.700 -0.4257  1.7762  0.0174
  711MOL0     H95976   9.179   4.629   8.553  1.7525 -0.7088  0.9045
  711MOL0     H95977   9.047   4.702   8.828 -3.9097 -0.9844  1.2802
  711MOL0     H95978   9.119   4.542   8.772 -0.9729  0.5277 -0.5755
  711MOL0     H95979   8.869   4.575   8.807 -2.7013  0.0222 -1.2244
  711MOL0     H95980   8.869   4.666   8.657  1.6120  0.6222 -1.1684
  711MOL0     H95981   8.889   4.277   8.492 -0.9081 -0.9607 -0.4624
  711MOL0     H95982   8.960   5.030   8.419 -3.3632  0.7503 -4.9486
  711MOL0     H95983   8.858   5.154   8.267 -3.4253  0.0001 -5.1870
  711MOL0     H95984   8.931   5.310   8.212  1.3978  1.3777  1.7762
  711MOL0     H95985   8.906   5.168   8.107 -1.5242 -0.2876  0.3247
  712MOL0     O95986  10.810  11.202   7.873 -0.2620  0.4600 -0.9624
  712MOL0     C95987  10.923  11.162   7.848 -0.9776  0.4295 -1.1316
  712MOL0     O95988  10.976  11.051   7.911 -0.4718 -0.4074  0.5321
  712MOL0     C95989  10.918  11.019   8.029 -1.0468 -0.2967 -0.4349
  712MOL0     C95990  10.918  10.876   8.060  0.2708  0.1402 -0.3943
  712MOL0     C95991  10.879  10.836   8.190 -0.7515  0.5425 -0.4622
  712MOL0     C95992  10.844  10.932   8.287  1.1207  0.4718  0.3113
  712MOL0     O95993  10.786  10.908   8.411  0.4824 -0.0832  0.7010
  712MOL0     C95994  10.849  10.807   8.488 -0.0282 -0.0481  0.2578
  712MOL0     C95995  10.949  10.862   8.595  0.3879 -0.0330 -0.1336
  712MOL0     C95996  10.905  10.824   8.738  0.8855  0.2087 -0.1449
  712MOL0     C95997  10.914  10.670   8.762  0.4337  0.2774  0.5531
  712MOL0     C95998  10.902  10.636   8.910 -0.5770  0.6656  0.3522
  712MOL0     C95999  10.773  10.680   8.968 -0.5880  0.0884  0.4510
  712MOL0     C96000  10.778  10.664   9.120  0.0657 -0.5944 -0.2850
  712MOL0     C96001  10.858  10.774   9.192  0.9550 -0.9551 -0.2108
  712MOL0     N96002  10.885  10.724   9.330  0.9797  0.3771  1.5386
  712MOL0     C96003  10.777  10.671   9.406 -0.6658 -0.5579 -0.3051
  712MOL0     C96004  10.840  10.594   9.498  0.3331  0.0803 -0.3911
  712MOL0     C96005  10.782  10.500   9.589 -0.1250  0.1043 -0.1665
  712MOL0     C96006  10.772  10.348   9.531 -0.8261 -0.6855 -0.2492
  712MOL0     C96007  10.679  10.343   9.406 -0.4431  0.8238 -1.4247
  712MOL0     C96008  10.642  10.200   9.361  0.4963  0.7661  0.9641
  712MOL0     O96009  10.738  10.125   9.277 -0.0909 -0.0249 -0.3959
  712MOL0     C96010  10.779  10.152   9.147  0.1564 -0.2957  0.2140
  712MOL0     C96011  10.722  10.254   9.075 -0.3043 -0.7641  0.3601
  712MOL0     C96012  10.764  10.278   8.950 -0.4793 -0.2633  0.6189
  712MOL0     C96013  10.877  10.212   8.902 -0.6325 -0.6649  1.3878
  712MOL0     C96014  10.934  10.255   8.765  0.3079 -1.0803  0.2959
  712MOL0     O96015  10.849  10.334   8.692  0.0636 -0.1442 -0.5334
  712MOL0     C96016  10.863  10.340   8.554 -0.5361  0.2700 -0.3339
  712MOL0     C96017  10.981  10.377   8.481  0.5385  0.4205 -0.8970
  712MOL0     C96018  10.976  10.389   8.342  0.5805  0.7902 -0.1155
  712MOL0     C96019  10.857  10.381   8.266 -0.2606  0.1302 -0.7527
  712MOL0     O96020  10.862  10.398   8.128  0.6653  0.1178  0.6463
  712MOL0     C96021  10.736  10.425   8.068 -0.6095 -0.3312  1.4574
  712MOL0     C96022  10.735  10.509   7.935 -0.6996 -1.0140 -0.9573
  712MOL0     C96023  10.772  10.438   7.808  0.2426  0.6408 -0.0037
  712MOL0     C96024  10.753  10.508   7.671 -0.0971 -1.4468  0.1243
  712MOL0     C96025  10.827  10.427   7.576 -0.0036 -0.0631 -0.2678
  712MOL0     C96026  10.822  10.486   7.443  0.3466  0.2966 -0.3939
  712MOL0     C96027  10.938  10.444   7.356  0.9326  1.3244 -0.1228
  712MOL0     C96028  10.933  10.522   7.229  0.3047 -0.2457  0.8679
  712MOL0    Cl96029  11.083  10.507   7.137 -0.2035  0.2386  0.5809
  712MOL0     C96030  10.744  10.346   8.340  0.1156 -0.7197  0.2363
  712MOL0     C96031  10.750  10.325   8.478 -0.2018  0.0598 -1.0984
  712MOL0     O96032  11.037  10.204   8.730 -0.1416 -0.2560  0.6268
  712MOL0     C96033  10.931  10.109   8.965  0.3943 -0.4669 -0.7638
  712MOL0     C96034  10.879  10.070   9.084 -0.1681  0.0935 -0.8533
  712MOL0     N96035  10.976  10.605   9.483  0.4190 -0.1307  1.0942
  712MOL0     N96036  10.999  10.671   9.375 -0.9046  0.2118  0.3770
  712MOL0     C96037  10.858  11.071   8.253  0.4533  0.3110 -0.7694
  712MOL0     C96038  10.900  11.116   8.130  0.8628 -0.0630  0.2807
  712MOL0     C96039  10.997  11.225   7.739  0.1086 -0.2680  0.3017
  712MOL0     C96040  10.978  11.362   7.725  0.2320 -0.2848 -0.4540
  712MOL0     C96041  11.042  11.435   7.630  0.8565 -0.8399  0.4008
  712MOL0     C96042  11.113  11.375   7.526  0.6138  0.1736  0.2374
  712MOL0     O96043  11.161  11.463   7.429  0.0504 -0.5260 -0.1848
  712MOL0     C96044  11.212  11.397   7.311  0.4022  0.1350  1.2684
  712MOL0     C96045  11.256  11.498   7.197  0.0023  0.0709 -0.4687
  712MOL0     C96046  11.206  11.455   7.057 -0.2762 -0.0906  0.3628
  712MOL0     C96047  11.286  11.341   6.976  0.6048  0.2321  0.3043
  712MOL0     C96048  11.191  11.261   6.914 -0.1252 -0.4872 -0.0622
  712MOL0     C96049  11.108  11.204   6.844 -0.0773  0.9883  0.6608
  712MOL0     C96050  11.128  11.233   7.533 -0.0449  0.5144  0.5370
  712MOL0     C96051  11.077  11.161   7.643 -0.4145 -0.5520 -0.1169
  712MOL0     C96052  11.093  11.015   7.644 -0.0147  0.2318 -1.1015
  712MOL0     H96053  10.946  10.802   7.986 -1.2892 -0.9956  0.0899
  712MOL0     H96054  10.871  10.734   8.225  2.7244  1.2730  3.2408
  712MOL0     H96055  10.764  10.762   8.540  0.1890  0.2944  0.9212
  712MOL0     H96056  10.900  10.724   8.439  3.9134  0.9832  2.2156
  712MOL0     H96057  10.957  10.971   8.608  1.2544 -0.1224  0.2003
  712MOL0     H96058  11.054  10.837   8.577  1.0853  1.3982  1.5950
  712MOL0     H96059  10.801  10.859   8.746  0.3912 -1.4031  1.1998
  712MOL0     H96060  10.970  10.886   8.801 -2.3204  1.1424  2.6009
  712MOL0     H96061  10.827  10.613   8.727  1.1878 -0.3065 -0.4400
  712MOL0     H96062  11.005  10.628   8.719  2.4524  1.5951  3.2341
  712MOL0     H96063  10.903  10.527   8.919 -2.1341  0.4360 -1.5717
  712MOL0     H96064  10.987  10.679   8.964  0.6143 -0.3942 -0.6176
  712MOL0     H96065  10.737  10.782   8.948 -0.4319  1.1502  4.6567
  712MOL0     H96066  10.694  10.612   8.936 -1.5182  0.4019  1.9561
  712MOL0     H96067  10.824  10.568   9.143  2.1519  0.0149 -1.6177
  712MOL0     H96068  10.675  10.671   9.156 -0.7570 -2.1725 -2.1229
  712MOL0     H96069  10.949  10.788   9.134 -1.5855 -0.8472 -4.5952
  712MOL0     H96070  10.800  10.866   9.180  2.6380  0.1796 -0.0059
  712MOL0     H96071  10.671  10.679   9.387 -0.8067  0.6200  0.8601
  712MOL0     H96072  10.838  10.494   9.683 -0.0196 -0.7143 -0.2707
  712MOL0     H96073  10.681  10.534   9.616  0.2134  1.9573 -1.0792
  712MOL0     H96074  10.875  10.311   9.531  1.4796  4.4472  3.6872
  712MOL0     H96075  10.728  10.280   9.605 -0.0961 -1.8498 -0.8533
  712MOL0     H96076  10.723  10.399   9.323  2.1832  0.8877 -0.1040
  712MOL0     H96077  10.587  10.397   9.430 -0.6829  0.1576 -0.8313
  712MOL0     H96078  10.548  10.219   9.307  0.7399  0.5410  0.4470
  712MOL0     H96079  10.618  10.134   9.445  3.2340 -0.9179  0.5343
  712MOL0     H96080  10.631  10.308   9.100 -0.2175  0.4597 -1.7483
  712MOL0     H96081  10.718  10.354   8.888 -1.2147 -1.5416 -0.4576
  712MOL0     H96082  11.072  10.390   8.538 -1.2105  0.2402  2.1834
  712MOL0     H96083  11.066  10.426   8.292 -0.0872  2.3180 -0.2452
  712MOL0     H96084  10.686  10.331   8.042 -0.3476 -0.1011  0.0193
  712MOL0     H96085  10.678  10.477   8.145  0.1375  0.9412  1.1811
  712MOL0     H96086  10.636  10.556   7.927  0.1895  1.3268  0.5762
  712MOL0     H96087  10.797  10.598   7.949 -2.3353  0.0182  0.0766
  712MOL0     H96088  10.877  10.416   7.827 -0.0522 -0.8717 -0.0421
  712MOL0     H96089  10.724  10.341   7.796  1.9751  0.0744 -4.1930
  712MOL0     H96090  10.798  10.608   7.668 -1.8622 -0.6153 -1.7919
  712MOL0     H96091  10.645  10.516   7.653  0.1311  0.3875 -0.6610
  712MOL0     H96092  10.793  10.323   7.571  0.9908 -0.3781 -0.6676
  712MOL0     H96093  10.932  10.421   7.604  0.9362 -2.9882 -3.6009
  712MOL0     H96094  10.728  10.457   7.395  0.4452 -2.3288  0.8231
  712MOL0     H96095  10.824  10.595   7.454  1.7568  0.2870 -0.4539
  712MOL0     H96096  10.931  10.337   7.334 -0.8362  0.6386  3.2946
  712MOL0     H96097  11.030  10.449   7.415  2.3328  0.1865 -2.0326
  712MOL0     H96098  10.862  10.475   7.160  0.5469  0.2896  0.2482
  712MOL0     H96099  10.904  10.626   7.247  5.4046  1.5541  0.1994
  712MOL0     H96100  10.644  10.340   8.299 -0.8757 -0.4647  2.4290
  712MOL0     H96101  10.653  10.307   8.524  0.6311 -1.7120  0.0498
  712MOL0     H96102  11.016  10.060   8.917  0.8240 -0.4501 -0.0353
  712MOL0     H96103  10.921   9.981   9.129  0.6158  1.0738  0.4483
  712MOL0     H96104  10.836  11.145   8.329 -0.5809  1.0488 -1.7471
  712MOL0     H96105  10.914  11.222   8.108  0.1174 -0.4335 -2.4404
  712MOL0     H96106  10.923  11.419   7.799 -1.2696 -2.6454  0.3592
  712MOL0     H96107  11.035  11.541   7.650  1.8008 -1.0133  1.8024
  712MOL0     H96108  11.141  11.328   7.265  1.2360  1.1189 -1.7537
  712MOL0     H96109  11.303  11.343   7.339  0.8625  0.1420 -0.1511
  712MOL0     H96110  11.364  11.502   7.214 -0.0681  1.5560 -0.2206
  712MOL0     H96111  11.208  11.595   7.216 -0.6491 -0.7103  2.5067
  712MOL0     H96112  11.205  11.550   7.002  0.6158  3.4931  5.7486
  712MOL0     H96113  11.104  11.416   7.067 -0.3443 -0.4826 -1.5505
  712MOL0     H96114  11.356  11.388   6.906 -1.4305  0.1291 -1.9583
  712MOL0     H96115  11.343  11.275   7.042  1.8498  2.1094  1.2008
  712MOL0     H96116  11.037  11.151   6.784  0.7908 -4.2543  3.6144
  712MOL0     H96117  11.178  11.186   7.449  2.3832 -3.5009  3.8616
  712MOL0     H96118  11.001  10.957   7.634  0.2292 -0.8358  1.9903
  712MOL0     H96119  11.158  10.987   7.560  1.4410  0.3024 -0.0285
  712MOL0     H96120  11.148  10.992   7.735 -0.1332  2.3918 -0.4255
  713MOL0     O96121   4.214   8.669   1.553 -0.2497 -0.3629 -0.2965
  713MOL0     C96122   4.245   8.686   1.669 -0.7180 -1.1541  0.3159
  713MOL0     O96123   4.335   8.781   1.706  0.9082  0.4080 -0.7119
  713MOL0     C96124   4.350   8.894   1.632  0.7338 -0.0199  0.2953
  713MOL0     C96125   4.291   9.013   1.693 -0.2515  0.6986  0.1868
  713MOL0     C96126   4.295   9.136   1.614 -0.1386 -0.1781  1.3076
  713MOL0     C96127   4.368   9.140   1.488  0.6826 -0.2678  0.3211
  713MOL0     O96128   4.368   9.253   1.406 -0.5522  0.0964 -0.3177
  713MOL0     C96129   4.234   9.304   1.379  0.0265  0.3567  0.3659
  713MOL0     C96130   4.224   9.390   1.251 -0.0113 -0.3699  1.0658
  713MOL0     C96131   4.157   9.532   1.269  0.6907  0.2981 -0.3633
  713MOL0     C96132   4.156   9.610   1.134 -0.6696  0.1713 -0.1367
  713MOL0     C96133   4.195   9.754   1.142  0.2660 -0.6481  0.2070
  713MOL0     C96134   4.342   9.785   1.179  0.7987 -0.2999  0.2441
  713MOL0     C96135   4.356   9.936   1.194  0.0538  0.1031  1.1941
  713MOL0     C96136   4.506   9.973   1.215  0.2567  0.1122  0.2084
  713MOL0     N96137   4.515  10.122   1.231  0.5756  0.2911  0.7711
  713MOL0     C96138   4.466  10.198   1.137 -0.0431 -0.5442 -0.1946
  713MOL0     C96139   4.501  10.322   1.162 -0.3248  0.7642 -0.5705
  713MOL0     C96140   4.499  10.449   1.080  0.2590 -0.1511  0.2640
  713MOL0     C96141   4.351  10.492   1.025  0.6463  0.3354 -0.6904
  713MOL0     C96142   4.255  10.553   1.129  0.1239 -0.2778 -0.1745
  713MOL0     C96143   4.108  10.533   1.100  0.7259 -0.0674  1.4425
  713MOL0     O96144   4.074  10.592   0.972  0.2465  0.0718 -0.0200
  713MOL0     C96145   3.940  10.600   0.942  0.9965 -0.7164  0.0017
  713MOL0     C96146   3.900  10.670   0.826 -0.3174 -0.0503  0.1730
  713MOL0     C96147   3.770  10.688   0.795 -0.0864  0.4494  1.0889
  713MOL0     C96148   3.667  10.649   0.875 -0.5577  1.1375  0.3010
  713MOL0     C96149   3.531  10.657   0.818 -0.4469  0.2397  0.1134
  713MOL0     O96150   3.523  10.696   0.685  0.3902 -1.1172  0.2413
  713MOL0     C96151   3.401  10.724   0.636  0.5204 -0.1935 -0.3055
  713MOL0     C96152   3.401  10.687   0.501  0.5245 -0.9430  0.2309
  713MOL0     C96153   3.289  10.700   0.425  0.2275 -0.2959  0.2478
  713MOL0     C96154   3.173  10.758   0.480  0.4609  0.2309 -0.5796
  713MOL0     O96155   3.049  10.768   0.410 -0.0830  1.1137  1.1534
  713MOL0     C96156   3.033  10.716   0.282  0.6230  0.2995  0.3292
  713MOL0     C96157   2.891  10.665   0.236 -0.4922 -0.0772 -0.3338
  713MOL0     C96158   2.799  10.604   0.346  0.7831  0.2546  0.1777
  713MOL0     C96159   2.670  10.570   0.262 -0.8195 -0.1436 -0.8237
  713MOL0     C96160   2.551  10.516   0.346 -0.6611  0.9304 -0.7786
  713MOL0     C96161   2.457  10.414   0.269  0.0600 -1.0114  0.1082
  713MOL0     C96162   2.398  10.470   0.149  1.1534  0.7470 -0.0428
  713MOL0     C96163   2.432  10.402   0.022 -0.7463  0.2426 -0.5521
  713MOL0    Cl96164   2.312  10.441  -0.107  0.2371 -0.7375  0.7040
  713MOL0     C96165   3.179  10.811   0.610 -0.0646  0.7974  1.1591
  713MOL0     C96166   3.291  10.788   0.695  0.2595 -0.5752  0.0524
  713MOL0     O96167   3.440  10.610   0.889 -0.3210 -0.6626  0.4189
  713MOL0     C96168   3.703  10.580   0.994 -0.7346 -0.5199 -0.4394
  713MOL0     C96169   3.841  10.564   1.030 -0.0395  0.3789 -0.8682
  713MOL0     N96170   4.581  10.310   1.277 -0.5965 -0.3489 -0.3512
  713MOL0     N96171   4.582  10.194   1.324  0.1789 -0.4261  0.9895
  713MOL0     C96172   4.431   9.019   1.441  0.7455  0.2506  0.5922
  713MOL0     C96173   4.417   8.899   1.514 -0.1625  0.3321  0.6214
  713MOL0     C96174   4.187   8.595   1.765  0.5716 -0.1427 -0.0052
  713MOL0     C96175   4.250   8.593   1.890 -0.6250  0.5703  0.4428
  713MOL0     C96176   4.203   8.511   1.994  0.3111  0.3552 -0.2801
  713MOL0     C96177   4.071   8.446   1.976  0.0671  0.1521 -0.1758
  713MOL0     O96178   3.997   8.383   2.070  0.9310  0.2747  0.4777
  713MOL0     C96179   4.017   8.241   2.070  0.2388 -0.2269 -0.9680
  713MOL0     C96180   3.901   8.166   2.129 -0.5847  0.1836  0.2461
  713MOL0     C96181   3.884   8.194   2.279  0.2699 -0.3239 -0.0675
  713MOL0     C96182   3.952   8.104   2.371 -0.8106 -0.0722  0.7251
  713MOL0     C96183   3.913   8.128   2.508  0.8484  0.5692  0.1994
  713MOL0     C96184   3.869   8.156   2.613  0.2955  0.8895 -0.3417
  713MOL0     C96185   4.012   8.449   1.852 -0.4414 -0.6522  0.3966
  713MOL0     C96186   4.066   8.519   1.745 -0.1567  0.3310 -1.9510
  713MOL0     C96187   3.987   8.527   1.625  0.1431  0.3634  1.8340
  713MOL0     H96188   4.231   9.007   1.782 -2.0090  0.0430 -0.9880
  713MOL0     H96189   4.260   9.235   1.642 -0.2369 -0.2670  1.5044
  713MOL0     H96190   4.164   9.221   1.369  1.8790 -1.6670  2.8720
  713MOL0     H96191   4.204   9.350   1.473  1.6460 -0.1182  1.1493
  713MOL0     H96192   4.170   9.349   1.165  1.4008 -0.2056  0.0730
  713MOL0     H96193   4.325   9.406   1.212 -0.3985 -2.0708 -0.8056
  713MOL0     H96194   4.201   9.600   1.342 -2.4116  1.8600  0.2408
  713MOL0     H96195   4.058   9.508   1.308  1.5604 -3.6103 -0.1159
  713MOL0     H96196   4.230   9.557   1.073  2.4372  1.0018  2.6306
  713MOL0     H96197   4.061   9.600   1.080  0.5149 -0.2741 -2.2863
  713MOL0     H96198   4.186   9.809   1.048  1.7004  1.7632  1.3727
  713MOL0     H96199   4.130   9.806   1.214 -1.2686  0.3821 -1.8136
  713MOL0     H96200   4.363   9.734   1.274 -2.9900 -0.4127  1.1818
  713MOL0     H96201   4.409   9.751   1.099  1.2692  3.3454 -1.1397
  713MOL0     H96202   4.298   9.956   1.285  1.6528 -0.6612  2.4193
  713MOL0     H96203   4.302   9.994   1.118  0.0195  2.6260  3.0109
  713MOL0     H96204   4.543   9.936   1.310  1.3423 -3.9328 -1.5784
  713MOL0     H96205   4.574   9.925   1.144 -0.9736 -4.7729  1.9965
  713MOL0     H96206   4.415  10.169   1.046  2.1188 -0.7864 -1.3912
  713MOL0     H96207   4.531  10.527   1.151  0.8254  0.3071 -0.4817
  713MOL0     H96208   4.575  10.458   1.002  0.7875  0.0001  0.7910
  713MOL0     H96209   4.377  10.563   0.946  3.5654 -1.8923 -1.9110
  713MOL0     H96210   4.302  10.406   0.979  1.8536 -0.5884 -0.2828
  713MOL0     H96211   4.274  10.658   1.151 -0.5649 -0.7146  2.9651
  713MOL0     H96212   4.269  10.489   1.217 -2.3888  1.8483  1.9331
  713MOL0     H96213   4.042  10.563   1.182 -0.5483 -0.1768  0.4686
  713MOL0     H96214   4.095  10.425   1.088  1.1830 -0.2528  2.4444
  713MOL0     H96215   3.980  10.690   0.755  0.4823 -3.1001  0.0962
  713MOL0     H96216   3.751  10.725   0.694 -2.1626  1.1016  1.6708
  713MOL0     H96217   3.482  10.633   0.452 -0.0790 -4.8859  3.0668
  713MOL0     H96218   3.297  10.659   0.325  3.8892  2.8057 -0.9956
  713MOL0     H96219   3.078  10.778   0.204  2.3631  1.6887  2.3546
  713MOL0     H96220   3.096  10.627   0.287 -0.9159 -0.8530  0.1837
  713MOL0     H96221   2.842  10.740   0.174  0.8193  0.3974 -0.8386
  713MOL0     H96222   2.909  10.592   0.156 -2.7730 -0.7008 -0.3469
  713MOL0     H96223   2.842  10.520   0.403 -2.4542 -1.3553  0.4652
  713MOL0     H96224   2.772  10.680   0.420  0.7947 -0.6242  1.1100
  713MOL0     H96225   2.696  10.488   0.195 -1.7657 -0.4324 -0.8417
  713MOL0     H96226   2.633  10.654   0.202  2.5569  2.3828  0.2763
  713MOL0     H96227   2.493  10.601   0.382  0.8185  0.3721  3.5332
  713MOL0     H96228   2.587  10.462   0.434  1.2377  0.1571 -1.9488
  713MOL0     H96229   2.504  10.316   0.254 -1.5588 -1.7222 -0.5466
  713MOL0     H96230   2.374  10.401   0.338 -1.4699 -1.1429 -1.6805
  713MOL0     H96231   2.420  10.577   0.144 -3.8177  2.1030  1.8586
  713MOL0     H96232   2.289  10.464   0.154  1.2542 -2.2639  0.7797
  713MOL0     H96233   2.532  10.421  -0.018  0.2584 -0.5884  1.4159
  713MOL0     H96234   2.444  10.295   0.040 -3.3807 -0.3546 -1.7687
  713MOL0     H96235   3.085  10.847   0.649 -3.1625  0.1418 -4.5403
  713MOL0     H96236   3.283  10.819   0.798  3.2319  0.4840  0.0345
  713MOL0     H96237   3.624  10.559   1.066  1.4927  0.0370  2.3640
  713MOL0     H96238   3.854  10.497   1.115 -0.7285  0.0123 -1.0384
  713MOL0     H96239   4.494   9.021   1.353 -0.6732 -3.1967 -0.6487
  713MOL0     H96240   4.473   8.819   1.465 -0.6013  1.0056 -1.0561
  713MOL0     H96241   4.350   8.635   1.891 -0.8858  1.6432 -3.2927
  713MOL0     H96242   4.254   8.503   2.090 -1.8519  0.5271  0.9518
  713MOL0     H96243   4.102   8.222   2.137  0.8193  1.0101 -1.3334
  713MOL0     H96244   4.028   8.198   1.970 -1.2066 -1.2930 -0.7078
  713MOL0     H96245   3.921   8.060   2.110 -0.1024 -0.1768  2.4717
  713MOL0     H96246   3.814   8.192   2.069  1.2912  0.7202 -2.4536
  713MOL0     H96247   3.776   8.189   2.298  0.1145 -1.1245 -1.0817
  713MOL0     H96248   3.913   8.300   2.288  0.9953 -0.2980 -2.1850
  713MOL0     H96249   3.929   7.999   2.351  0.1956 -0.6478  2.4183
  713MOL0     H96250   4.059   8.121   2.355 -0.8873  0.3991  0.6785
  713MOL0     H96251   3.837   8.187   2.710  1.1669  3.2162 -0.7388
  713MOL0     H96252   3.925   8.390   1.828  1.9945 -4.0846 -0.8685
  713MOL0     H96253   4.055   8.488   1.549  1.1037  0.9201  2.3775
  713MOL0     H96254   3.905   8.456   1.622  0.0831  0.4187  2.1197
  713MOL0     H96255   3.963   8.627   1.589  2.0339  0.0529 -0.5629
  714MOL0     O96256   0.583   5.091   3.078 -0.3677 -0.3853  0.2695
  714MOL0     C96257   0.659   5.139   2.986  0.5471  0.8562  0.6046
  714MOL0     O96258   0.635   5.258   2.911 -0.0737  1.3031  0.8930
  714MOL0     C96259   0.537   5.335   2.957 -0.3756  0.4068  0.3506
  714MOL0     C96260   0.415   5.331   2.897  0.8434  0.0870 -0.0625
  714MOL0     C96261   0.305   5.414   2.933  0.3349 -0.3634 -0.3490
  714MOL0     C96262   0.309   5.486   3.056  0.0710 -0.2320 -0.0456
  714MOL0     O96263   0.209   5.572   3.096  0.4474  0.7538  0.2978
  714MOL0     C96264   0.235   5.692   3.174 -0.1384  0.9971 -0.0178
  714MOL0     C96265   0.140   5.796   3.116 -0.1733  1.0045 -0.5229
  714MOL0     C96266   0.150   5.940   3.176 -0.1591  0.5642  0.4416
  714MOL0     C96267   0.289   6.001   3.129 -0.4939 -0.3359  0.2751
  714MOL0     C96268   0.337   6.115   3.219 -0.0261  0.2655  0.4173
  714MOL0     C96269   0.466   6.165   3.146  0.1203 -0.2955  0.1460
  714MOL0     C96270   0.545   6.277   3.205 -0.3412  0.4975 -0.0246
  714MOL0     C96271   0.615   6.257   3.337 -0.3009  1.0566  0.0365
  714MOL0     N96272   0.718   6.151   3.332 -0.4740  0.0436 -0.9116
  714MOL0     C96273   0.727   6.039   3.414  0.4395 -0.3994  0.3380
  714MOL0     C96274   0.852   5.997   3.390  0.4956 -0.1611 -0.7318
  714MOL0     C96275   0.932   5.883   3.456  0.5299  0.1081 -0.2709
  714MOL0     C96276   0.854   5.754   3.489  0.6708 -0.5782  1.0119
  714MOL0     C96277   0.940   5.662   3.578 -0.0901  0.6199  0.2644
  714MOL0     C96278   0.848   5.534   3.616 -0.2394 -0.0608  0.5485
  714MOL0     O96279   0.849   5.450   3.491  0.4163 -0.7793 -0.4880
  714MOL0     C96280   0.943   5.352   3.473 -0.9893 -0.2196 -0.6019
  714MOL0     C96281   0.999   5.340   3.347  0.0083 -1.0112  0.0862
  714MOL0     C96282   1.105   5.258   3.322  0.2714  0.5115 -0.0189
  714MOL0     C96283   1.162   5.178   3.428  0.1820  0.0324 -1.0820
  714MOL0     C96284   1.263   5.075   3.406  0.2642  0.0887  0.3732
  714MOL0     O96285   1.284   4.979   3.503  0.1541 -1.1559  0.6685
  714MOL0     C96286   1.399   4.895   3.492  0.2372 -0.5632  0.8826
  714MOL0     C96287   1.511   4.940   3.430  0.9512  0.3231  0.7629
  714MOL0     C96288   1.629   4.859   3.417 -0.0897 -0.4175 -0.7085
  714MOL0     C96289   1.624   4.731   3.484 -0.3597  0.1974  1.2014
  714MOL0     O96290   1.734   4.656   3.464  0.7743  0.9117 -0.1483
  714MOL0     C96291   1.752   4.547   3.560 -1.0571  0.2020 -0.1303
  714MOL0     C96292   1.705   4.410   3.506 -0.8295  0.8374  0.1681
  714MOL0     C96293   1.731   4.388   3.350  0.2419 -0.4792 -0.5566
  714MOL0     C96294   1.675   4.258   3.301 -1.2176 -0.1637 -0.3575
  714MOL0     C96295   1.716   4.213   3.156 -0.4984 -0.0845 -0.3055
  714MOL0     C96296   1.860   4.170   3.128  0.0347  0.1954  0.2152
  714MOL0     C96297   1.885   4.156   2.982 -0.3398  0.1703 -0.8113
  714MOL0     C96298   2.024   4.205   2.939  0.1884 -0.3820  0.6448
  714MOL0    Cl96299   2.026   4.383   2.946  0.1261  0.0844 -0.6045
  714MOL0     C96300   1.502   4.694   3.547  0.4406  0.0732  0.6491
  714MOL0     C96301   1.397   4.780   3.550 -0.5953 -0.4492 -0.3039
  714MOL0     O96302   1.309   5.085   3.287 -0.3311  0.2699 -0.7445
  714MOL0     C96303   1.104   5.185   3.556  1.3622 -0.2375 -0.2434
  714MOL0     C96304   0.995   5.267   3.570  0.3868 -0.0920 -0.2644
  714MOL0     N96305   0.913   6.075   3.299 -0.1663 -0.4598  0.9989
  714MOL0     N96306   0.836   6.174   3.267 -0.4075  0.5644 -0.4786
  714MOL0     C96307   0.429   5.480   3.126  0.7253 -0.9071  0.1470
  714MOL0     C96308   0.540   5.410   3.074  0.0388 -0.6219 -1.3957
  714MOL0     C96309   0.779   5.051   2.957  0.1732 -0.6133  0.1838
  714MOL0     C96310   0.770   4.909   2.963  0.0620 -1.0386  0.4432
  714MOL0     C96311   0.889   4.836   2.956 -1.1180 -0.2552  0.0811
  714MOL0     C96312   1.012   4.899   2.958 -0.4589  0.3840 -0.2766
  714MOL0     O96313   1.120   4.814   2.968  0.5228  0.0441  0.2525
  714MOL0     C96314   1.251   4.870   2.974  0.3926  0.7366  0.6177
  714MOL0     C96315   1.327   4.751   3.031 -1.3366 -0.0284  0.3657
  714MOL0     C96316   1.294   4.611   2.976  0.0115  0.1577  0.1613
  714MOL0     C96317   1.389   4.499   3.011 -0.6917  0.0048  0.3694
  714MOL0     C96318   1.375   4.470   3.156 -0.2785  0.8392 -0.1168
  714MOL0     C96319   1.373   4.438   3.272  0.4522  0.4241  0.0828
  714MOL0     C96320   1.017   5.037   2.939 -0.4119  0.5537 -0.8139
  714MOL0     C96321   0.903   5.118   2.944  0.1622  0.0873  0.3859
  714MOL0     C96322   0.922   5.273   2.951  0.4538 -0.4966  0.2879
  714MOL0     H96323   0.391   5.265   2.815  2.5815 -2.3508  1.2607
  714MOL0     H96324   0.220   5.425   2.866  0.9516  2.4303 -0.7990
  714MOL0     H96325   0.208   5.679   3.279  0.6432  2.7109  0.4444
  714MOL0     H96326   0.330   5.745   3.160  0.0415  1.0787  1.3685
  714MOL0     H96327   0.041   5.753   3.129  1.0354 -1.6042  0.7504
  714MOL0     H96328   0.162   5.801   3.009  1.1188 -1.8920 -0.4767
  714MOL0     H96329   0.152   5.923   3.284 -0.1149 -6.2527 -0.1625
  714MOL0     H96330   0.064   5.991   3.131 -1.5506 -2.0178 -0.0453
  714MOL0     H96331   0.374   5.932   3.135  1.1149  1.3195 -1.9324
  714MOL0     H96332   0.294   6.042   3.028 -0.5522 -3.0753 -0.9452
  714MOL0     H96333   0.268   6.200   3.229  0.0379  0.2957  0.6046
  714MOL0     H96334   0.365   6.085   3.321 -0.0793  2.2734  1.0828
  714MOL0     H96335   0.543   6.091   3.125  2.2769  1.6548  0.8179
  714MOL0     H96336   0.439   6.221   3.056  0.9549 -2.4654 -1.5509
  714MOL0     H96337   0.472   6.359   3.203  1.8661  2.5572 -1.4299
  714MOL0     H96338   0.619   6.299   3.128  0.9988 -0.9508  0.8045
  714MOL0     H96339   0.641   6.357   3.371  2.0382  1.0049 -1.3682
  714MOL0     H96340   0.534   6.217   3.400  0.0921  0.7817  0.3764
  714MOL0     H96341   0.646   6.001   3.476 -1.1573 -0.5081 -1.6905
  714MOL0     H96342   1.012   5.851   3.388  2.8370 -0.0407  2.3039
  714MOL0     H96343   0.976   5.922   3.549 -2.8587 -0.5425  1.7476
  714MOL0     H96344   0.771   5.793   3.548  1.2061  1.8738  0.2626
  714MOL0     H96345   0.816   5.704   3.400  0.4968  1.2902 -0.0177
  714MOL0     H96346   0.976   5.712   3.668 -1.2615  1.0261  0.5364
  714MOL0     H96347   1.023   5.622   3.520 -0.6362 -1.0508  0.5803
  714MOL0     H96348   0.748   5.551   3.656 -0.4956  5.6068 -1.6433
  714MOL0     H96349   0.915   5.503   3.697 -1.3411  2.5048  2.5580
  714MOL0     H96350   0.958   5.397   3.265  0.2385  0.8545  1.2050
  714MOL0     H96351   1.139   5.247   3.219 -0.5791  2.0035 -0.4883
  714MOL0     H96352   1.514   5.043   3.396  1.9407  0.3030  0.7625
  714MOL0     H96353   1.711   4.883   3.350 -0.9838  0.3224 -1.5786
  714MOL0     H96354   1.859   4.530   3.577 -0.6044  4.6476  3.5018
  714MOL0     H96355   1.714   4.567   3.660 -0.6827 -0.9419  0.2565
  714MOL0     H96356   1.746   4.317   3.546  2.5150  1.7194 -0.8482
  714MOL0     H96357   1.597   4.398   3.517 -0.7095 -3.8988 -1.4638
  714MOL0     H96358   1.671   4.472   3.314 -2.3153 -1.1617  1.7562
  714MOL0     H96359   1.836   4.402   3.323 -0.3460 -0.1245 -2.8891
  714MOL0     H96360   1.566   4.268   3.309 -1.2822 -1.4279  0.6193
  714MOL0     H96361   1.709   4.175   3.363 -2.9617 -2.8681 -2.7552
  714MOL0     H96362   1.693   4.303   3.097 -0.6866  1.3510  1.8522
  714MOL0     H96363   1.643   4.141   3.119 -0.7029 -0.6665  1.1797
  714MOL0     H96364   1.931   4.245   3.164  2.5899 -2.3045  0.7801
  714MOL0     H96365   1.871   4.075   3.181  0.3716  1.2950  2.2156
  714MOL0     H96366   1.805   4.204   2.925  3.0023  0.8446 -5.4715
  714MOL0     H96367   1.879   4.051   2.952 -1.4917  0.5299 -1.9178
  714MOL0     H96368   2.113   4.156   2.980 -0.1324 -1.7093 -0.1758
  714MOL0     H96369   2.023   4.180   2.832  0.8140 -2.1468  1.0161
  714MOL0     H96370   1.500   4.594   3.590 -1.5780  0.8845  2.6953
  714MOL0     H96371   1.301   4.741   3.580 -1.4958 -0.0408 -2.5357
  714MOL0     H96372   1.137   5.114   3.630 -0.5302 -1.5421 -0.5878
  714MOL0     H96373   0.951   5.284   3.668 -2.4246  2.7450 -1.8052
  714MOL0     H96374   0.449   5.539   3.215  2.3546 -2.5844  0.9557
  714MOL0     H96375   0.639   5.428   3.114 -0.7486 -1.1847  0.9334
  714MOL0     H96376   0.670   4.873   2.988 -1.8920  2.4532 -1.5259
  714MOL0     H96377   0.896   4.729   2.968  2.5906 -0.0546  0.9774
  714MOL0     H96378   1.249   4.954   3.044  0.8937 -0.1895  1.7784
  714MOL0     H96379   1.295   4.894   2.877  3.4001 -0.7466  1.4649
  714MOL0     H96380   1.314   4.737   3.138  1.6170 -1.2273  0.6751
  714MOL0     H96381   1.434   4.769   3.021 -0.8055 -0.8453  3.6659
  714MOL0     H96382   1.283   4.614   2.867 -1.6862  0.4488  0.3173
  714MOL0     H96383   1.195   4.578   3.006 -0.1955  0.0119 -0.6434
  714MOL0     H96384   1.349   4.415   2.953 -3.7019 -1.7516  4.4406
  714MOL0     H96385   1.487   4.524   2.971 -2.1475  1.3170 -2.6900
  714MOL0     H96386   1.372   4.420   3.377 -3.7380 -1.5969 -0.1183
  714MOL0     H96387   1.109   5.093   2.931  0.2079 -0.0250  1.4738
  714MOL0     H96388   1.028   5.298   2.952  0.7464 -1.6504 -0.4571
  714MOL0     H96389   0.870   5.324   2.869  0.8183  1.2222  1.0641
  714MOL0     H96390   0.863   5.304   3.038 -1.5081  2.1565 -1.7866
  715MOL0     O96391   0.528  11.161   7.343 -0.4467  0.3997 -0.3741
  715MOL0     C96392   0.496  11.041   7.317 -0.7265 -0.6347 -0.6490
  715MOL0     O96393   0.535  10.975   7.202 -0.2066 -0.1903 -0.7391
  715MOL0     C96394   0.571  11.048   7.093 -0.0970 -0.4074  0.8651
  715MOL0     C96395   0.698  11.106   7.080  0.4789 -0.8910 -0.4154
  715MOL0     C96396   0.729  11.207   6.984  0.0515 -0.0184  0.0276
  715MOL0     C96397   0.623  11.237   6.895  0.1555 -0.1502  0.2565
  715MOL0     O96398   0.639  11.340   6.805 -0.3071 -0.1321 -0.9518
  715MOL0     C96399   0.765  11.408   6.777  0.2878  0.8167  0.4881
  715MOL0     C96400   0.736  11.523   6.676  0.3277 -0.0846  0.2442
  715MOL0     C96401   0.644  11.641   6.723  0.2834  0.3519 -0.1696
  715MOL0     C96402   0.732  11.744   6.802 -0.8251  0.6436  0.0987
  715MOL0     C96403   0.660  11.866   6.856  0.2299  0.4154 -0.1475
  715MOL0     C96404   0.612  11.957   6.742  1.1801 -1.0967  0.7244
  715MOL0     C96405   0.564  12.093   6.783  0.0209 -0.4609  0.4113
  715MOL0     C96406   0.670  12.173   6.844 -1.1210  0.3224 -0.8110
  715MOL0     N96407   0.783  12.201   6.761 -0.2669  0.3058  0.4209
  715MOL0     C96408   0.793  12.296   6.670 -0.0940 -0.2888  0.5981
  715MOL0     C96409   0.920  12.292   6.611 -0.5429 -1.3966 -0.4686
  715MOL0     C96410   0.961  12.394   6.501 -0.6702 -0.0824 -0.4121
  715MOL0     C96411   0.893  12.353   6.367  0.4002  0.0852 -0.6040
  715MOL0     C96412   0.947  12.442   6.257 -0.1220 -0.3495 -0.2062
  715MOL0     C96413   0.841  12.455   6.149  0.5558 -0.1801  0.0212
  715MOL0     O96414   0.730  12.533   6.190  0.7968  0.2976 -0.2573
  715MOL0     C96415   0.615  12.534   6.108  0.6744  0.9674  0.1674
  715MOL0     C96416   0.603  12.501   5.969 -0.1815  0.2686  0.0462
  715MOL0     C96417   0.480  12.514   5.892 -0.4309  0.1249 -0.1230
  715MOL0     C96418   0.364  12.548   5.954 -0.2042 -0.4583 -1.4975
  715MOL0     C96419   0.241  12.574   5.885  0.0091  0.1267 -0.1912
  715MOL0     O96420   0.124  12.573   5.956 -0.9272 -0.6586  0.2981
  715MOL0     C96421   0.012  12.611   5.893 -0.7072  0.3201  1.4937
  715MOL0     C96422   0.006  12.729   5.807 -0.2843 -0.3549 -0.0301
  715MOL0     C96423  -0.113  12.767   5.749  0.6263  0.2278 -0.3623
  715MOL0     C96424  -0.224  12.685   5.761  0.2043 -1.2333 -0.6540
  715MOL0     O96425  -0.343  12.714   5.697  0.2724 -0.2049 -0.0529
  715MOL0     C96426  -0.375  12.838   5.635  0.7724  0.0650 -0.0969
  715MOL0     C96427  -0.353  12.967   5.725 -0.5917  1.5784  1.1714
  715MOL0     C96428  -0.472  12.969   5.821 -1.1601 -0.1780 -0.7491
  715MOL0     C96429  -0.422  13.016   5.954 -0.4509  0.0581  0.3965
  715MOL0     C96430  -0.538  13.060   6.051 -0.2213 -0.2319  0.0249
  715MOL0     C96431  -0.493  13.098   6.189  0.2291  0.2989  0.3616
  715MOL0     C96432  -0.610  13.109   6.292 -0.0887 -1.0002  0.4384
  715MOL0     C96433  -0.667  13.258   6.285  0.3566  0.4200 -0.2780
  715MOL0    Cl96434  -0.549  13.373   6.354 -0.0802  0.4834  0.0089
  715MOL0     C96435  -0.220  12.567   5.831  0.0309  0.5516 -0.4843
  715MOL0     C96436  -0.104  12.528   5.909 -0.4855 -0.1467  0.2484
  715MOL0     O96437   0.250  12.590   5.766 -0.5826 -0.2035  0.3410
  715MOL0     C96438   0.375  12.575   6.096  0.6767  0.0169 -0.1967
  715MOL0     C96439   0.493  12.574   6.167  0.4490 -0.5591  0.1987
  715MOL0     N96440   0.992  12.193   6.680 -0.2678  0.5090 -0.5818
  715MOL0     N96441   0.913  12.140   6.771 -0.2181 -0.0905  0.5785
  715MOL0     C96442   0.499  11.179   6.911 -0.2703 -0.3308 -0.5341
  715MOL0     C96443   0.467  11.078   7.000  0.1055 -0.2954  0.0182
  715MOL0     C96444   0.424  10.960   7.421  0.0327 -0.2629 -0.6120
  715MOL0     C96445   0.439  10.817   7.414  0.4222  0.5688 -0.6347
  715MOL0     C96446   0.379  10.724   7.501  0.0778 -1.1029  0.3659
  715MOL0     C96447   0.316  10.779   7.610  0.9380  0.4352 -0.2012
  715MOL0     O96448   0.258  10.699   7.705 -1.0881 -0.2458  0.3866
  715MOL0     C96449   0.152  10.622   7.650 -0.0252  0.0122 -0.4715
  715MOL0     C96450   0.153  10.503   7.758  0.9745 -0.0518 -0.7120
  715MOL0     C96451   0.025  10.424   7.746 -0.2175  0.5655  0.4346
  715MOL0     C96452   0.032  10.299   7.839  0.4004  0.3948 -0.8093
  715MOL0     C96453   0.143  10.210   7.816 -0.6071 -0.4387  0.1208
  715MOL0     C96454   0.241  10.149   7.802 -0.1951  0.6795  0.5751
  715MOL0     C96455   0.304  10.917   7.626 -0.2650  0.5418 -0.3945
  715MOL0     C96456   0.352  11.008   7.535 -0.2220  0.7409  0.0109
  715MOL0     C96457   0.317  11.149   7.569 -0.5669  0.1577 -0.3488
  715MOL0     H96458   0.764  11.083   7.163 -0.9397  0.2103  1.0918
  715MOL0     H96459   0.828  11.249   6.996  2.7563 -5.5160  0.1588
  715MOL0     H96460   0.809  11.447   6.869  0.4535  1.1954  0.2514
  715MOL0     H96461   0.834  11.342   6.723 -0.9070  0.3346 -0.5159
  715MOL0     H96462   0.691  11.480   6.585 -0.9624  0.1586  0.7502
  715MOL0     H96463   0.834  11.563   6.647  2.0003 -0.7976  4.2260
  715MOL0     H96464   0.568  11.610   6.796  1.4250  0.4562  1.1093
  715MOL0     H96465   0.594  11.680   6.634  0.3848  1.4228  0.2329
  715MOL0     H96466   0.777  11.683   6.881 -0.0855 -0.0011 -0.8012
  715MOL0     H96467   0.818  11.770   6.740 -2.4677  0.6301 -2.3658
  715MOL0     H96468   0.575  11.833   6.916  0.3898  2.9900  1.6478
  715MOL0     H96469   0.724  11.923   6.923 -0.4164  0.8400  0.1216
  715MOL0     H96470   0.688  11.972   6.665 -1.8957  0.4842 -2.2559
  715MOL0     H96471   0.529  11.904   6.696  1.0468 -2.2673  2.2109
  715MOL0     H96472   0.481  12.075   6.851  0.2410 -0.6943  0.6218
  715MOL0     H96473   0.527  12.147   6.695  2.6394  0.3831 -0.2670
  715MOL0     H96474   0.618  12.264   6.873 -1.1083 -0.1583  0.7835
  715MOL0     H96475   0.709  12.128   6.936 -1.6762  2.5748  0.6065
  715MOL0     H96476   0.708  12.363   6.656 -1.9404 -2.5114  0.6424
  715MOL0     H96477   0.911  12.487   6.530 -2.9559 -1.1245 -0.8091
  715MOL0     H96478   1.067  12.418   6.502 -0.6896  0.6491  4.1564
  715MOL0     H96479   0.912  12.248   6.343 -0.9569 -0.2023 -0.5409
  715MOL0     H96480   0.788  12.367   6.394  1.0202 -0.3205  2.3974
  715MOL0     H96481   1.031  12.384   6.218  1.9573  1.7567  0.8841
  715MOL0     H96482   0.980  12.538   6.298 -2.2475 -0.8937  3.2107
  715MOL0     H96483   0.811  12.357   6.110  1.8205  0.3833 -2.6353
  715MOL0     H96484   0.891  12.513   6.070  1.0269 -1.1978 -0.4500
  715MOL0     H96485   0.679  12.456   5.906 -0.8603 -0.4103 -0.3021
  715MOL0     H96486   0.473  12.507   5.784  0.4366  3.7230 -0.5548
  715MOL0     H96487   0.098  12.783   5.786  0.0602 -0.5526  0.9193
  715MOL0     H96488  -0.116  12.855   5.685 -1.0428 -0.9077 -1.9505
  715MOL0     H96489  -0.309  12.866   5.553  1.9998  2.4575  1.5794
  715MOL0     H96490  -0.480  12.833   5.605  0.4593  3.4037  0.0974
  715MOL0     H96491  -0.263  12.989   5.782 -2.0501  2.7001  3.1806
  715MOL0     H96492  -0.366  13.047   5.651 -0.8452  2.1859  1.8588
  715MOL0     H96493  -0.549  13.034   5.778  1.0666  1.4489 -2.5875
  715MOL0     H96494  -0.511  12.868   5.834  0.9910 -1.1038 -1.1423
  715MOL0     H96495  -0.359  13.105   5.955  0.0027 -0.2624  1.2981
  715MOL0     H96496  -0.365  12.936   6.003 -0.0849  0.3314  0.4212
  715MOL0     H96497  -0.595  12.967   6.058  1.0688 -1.0176  0.4898
  715MOL0     H96498  -0.601  13.133   6.001  1.2231  1.2952  0.3392
  715MOL0     H96499  -0.433  13.013   6.221 -2.1738 -1.1242  1.4147
  715MOL0     H96500  -0.430  13.187   6.184 -0.7275  0.9965 -4.5193
  715MOL0     H96501  -0.579  13.106   6.397  0.6581  0.1070  0.2613
  715MOL0     H96502  -0.690  13.034   6.283 -0.1548 -0.6721 -2.7753
  715MOL0     H96503  -0.707  13.299   6.192 -2.8580 -0.0078  0.7755
  715MOL0     H96504  -0.748  13.263   6.359  2.0669  1.8206  1.6413
  715MOL0     H96505  -0.308  12.503   5.831  1.2805 -1.4028 -3.5603
  715MOL0     H96506  -0.091  12.439   5.970  0.2093  0.5526  1.1682
  715MOL0     H96507   0.283  12.606   6.145  1.7281  3.7013 -0.2273
  715MOL0     H96508   0.465  12.599   6.269 -4.0974 -3.4489 -0.0280
  715MOL0     H96509   0.418  11.217   6.850 -1.8702 -1.7992  0.5584
  715MOL0     H96510   0.369  11.032   7.006  0.2282 -0.3710  2.1814
  715MOL0     H96511   0.507  10.782   7.338  0.5654 -0.0758 -0.2178
  715MOL0     H96512   0.380  10.618   7.479  0.0434 -1.0843  0.2772
  715MOL0     H96513   0.172  10.575   7.553  1.1675  1.1952 -0.8229
  715MOL0     H96514   0.054  10.672   7.653 -1.1304 -2.0008 -0.7225
  715MOL0     H96515   0.147  10.548   7.858  1.3916  1.2998 -1.2862
  715MOL0     H96516   0.245  10.444   7.754  0.3594 -1.5003  2.5903
  715MOL0     H96517   0.010  10.386   7.645  3.4519 -0.6254  0.1742
  715MOL0     H96518  -0.067  10.475   7.775 -0.9520 -1.4603  1.8924
  715MOL0     H96519   0.042  10.338   7.940  2.2327 -0.6078 -0.5716
  715MOL0     H96520  -0.054  10.231   7.832  1.6677 -1.2699 -0.6970
  715MOL0     H96521   0.336  10.102   7.784 -1.0607 -1.8079  1.9405
  715MOL0     H96522   0.223  10.940   7.695  1.2282 -3.4321  3.2159
  715MOL0     H96523   0.362  11.191   7.659  1.4160 -2.8536  0.2196
  715MOL0     H96524   0.335  11.204   7.476  1.9726  2.0726  1.1602
  715MOL0     H96525   0.207  11.147   7.577 -0.6175  1.4534 -0.5335
  716MOL0     O96526   3.023   2.539   9.350  0.5615  0.3003 -0.3282
  716MOL0     C96527   3.050   2.535   9.472  0.6325  0.6692  0.1287
  716MOL0     O96528   3.103   2.639   9.541  0.5736 -0.5997 -0.6367
  716MOL0     C96529   3.143   2.769   9.490  0.3815  0.4370 -0.0647
  716MOL0     C96530   3.099   2.826   9.368 -0.4148  0.0143 -0.6542
  716MOL0     C96531   3.147   2.950   9.320 -0.6138  0.9266  0.2449
  716MOL0     C96532   3.242   3.019   9.397  0.6698 -0.9477 -0.6291
  716MOL0     O96533   3.300   3.139   9.358  0.2178  1.0711 -0.0606
  716MOL0     C96534   3.426   3.130   9.291  0.6618  0.4752  0.1034
  716MOL0     C96535   3.461   3.255   9.211  0.8527  0.0252 -0.2946
  716MOL0     C96536   3.413   3.256   9.068  0.9855  0.2321 -0.4153
  716MOL0     C96537   3.428   3.404   9.022  0.1746  1.1943 -0.3257
  716MOL0     C96538   3.333   3.448   8.911 -0.4746  0.0001  0.0560
  716MOL0     C96539   3.341   3.601   8.892 -0.5768  0.0848  0.6339
  716MOL0     C96540   3.446   3.624   8.790  0.2266 -0.2268  0.1758
  716MOL0     C96541   3.467   3.771   8.748  0.5520  0.2939  1.2381
  716MOL0     N96542   3.355   3.831   8.677  0.2209  0.0549  0.6288
  716MOL0     C96543   3.246   3.911   8.726  0.0980  0.6140  0.3305
  716MOL0     C96544   3.172   3.918   8.615  1.0002  0.1077  0.2670
  716MOL0     C96545   3.043   3.991   8.614 -0.4077  0.7550 -0.1355
  716MOL0     C96546   2.941   3.925   8.696 -0.4915  0.4253 -0.4447
  716MOL0     C96547   2.804   3.984   8.705 -0.1949  0.2424  0.7681
  716MOL0     C96548   2.797   4.077   8.832  0.2893  0.4109  0.9743
  716MOL0     O96549   2.822   4.004   8.950  0.4723 -0.6734 -0.2683
  716MOL0     C96550   2.740   4.029   9.057  1.0121 -0.0774 -0.7656
  716MOL0     C96551   2.712   4.162   9.091  0.2258  0.2851 -0.1968
  716MOL0     C96552   2.632   4.191   9.209  0.1602 -0.2544  0.2062
  716MOL0     C96553   2.586   4.090   9.286 -0.3180 -0.2853 -0.5693
  716MOL0     C96554   2.521   4.116   9.414 -0.8419  1.0566  0.0953
  716MOL0     O96555   2.468   4.004   9.474  0.2899 -0.1297  0.4250
  716MOL0     C96556   2.396   4.029   9.585 -0.4552  1.0045 -0.0821
  716MOL0     C96557   2.252   4.031   9.567  0.1692 -0.9139  0.2841
  716MOL0     C96558   2.164   4.071   9.669 -0.6584 -0.0084 -0.7385
  716MOL0     C96559   2.211   4.092   9.794 -0.5028 -0.3861 -0.2369
  716MOL0     O96560   2.123   4.132   9.891 -0.5027 -0.1798  0.7483
  716MOL0     C96561   2.148   4.093  10.029  0.3381  0.4500  0.8590
  716MOL0     C96562   2.005   4.088  10.090 -0.2400 -0.0460  0.8491
  716MOL0     C96563   2.010   4.047  10.237 -0.4029 -0.7012  0.3868
  716MOL0     C96564   1.977   3.897  10.266  0.0445  0.8690 -0.1438
  716MOL0     C96565   2.063   3.803  10.189 -0.7932  0.7395 -0.2557
  716MOL0     C96566   2.023   3.655  10.213 -0.7207 -0.6135  0.3044
  716MOL0     C96567   2.112   3.557  10.136 -0.8036 -0.1053 -0.2921
  716MOL0     C96568   2.102   3.568   9.984 -0.2117  0.0042  0.4337
  716MOL0    Cl96569   1.944   3.533   9.915  0.0146 -0.0277  0.0781
  716MOL0     C96570   2.350   4.074   9.814 -0.4929 -0.0414  0.5757
  716MOL0     C96571   2.439   4.038   9.713  0.8418  0.3367  0.1436
  716MOL0     O96572   2.513   4.228   9.453 -0.3629  0.2071 -0.6523
  716MOL0     C96573   2.605   3.956   9.247  0.7410 -0.2835 -0.1323
  716MOL0     C96574   2.684   3.925   9.130  0.0270 -0.2341 -0.3833
  716MOL0     N96575   3.226   3.839   8.510  0.0367 -0.0240  0.2177
  716MOL0     N96576   3.335   3.788   8.545  0.2070  0.2601  0.0046
  716MOL0     C96577   3.280   2.961   9.520  0.0766 -0.5690  0.2939
  716MOL0     C96578   3.223   2.841   9.567  0.1762  0.3629 -0.2702
  716MOL0     C96579   2.996   2.426   9.548  0.0727 -0.5206  0.7526
  716MOL0     C96580   3.078   2.357   9.636  0.8547  0.4551  1.0548
  716MOL0     C96581   3.024   2.257   9.706  0.4998  0.5915 -0.0543
  716MOL0     C96582   2.893   2.217   9.698  0.2240 -0.0145 -0.3486
  716MOL0     O96583   2.864   2.099   9.772 -0.4665  0.1955 -0.2782
  716MOL0     C96584   2.747   2.022   9.725 -0.2067 -0.8582  0.0792
  716MOL0     C96585   2.737   1.902   9.819 -0.9303 -0.5996 -0.8089
  716MOL0     C96586   2.672   1.781   9.756 -0.1934 -0.0934 -0.2007
  716MOL0     C96587   2.698   1.646   9.838 -0.1006 -0.0997  0.5703
  716MOL0     C96588   2.824   1.566   9.805  0.1826  0.7756 -0.1873
  716MOL0     C96589   2.913   1.488   9.773  0.0337  0.3655 -0.5615
  716MOL0     C96590   2.818   2.280   9.606  0.9413  0.2504  0.1917
  716MOL0     C96591   2.864   2.388   9.530 -0.3362 -0.0920  0.3649
  716MOL0     C96592   2.773   2.446   9.434 -0.7127  0.8342  0.7844
  716MOL0     H96593   3.009   2.782   9.325 -0.6555 -2.1762  1.7810
  716MOL0     H96594   3.110   2.978   9.222  2.4974  1.2545 -0.9467
  716MOL0     H96595   3.500   3.122   9.371 -1.1285 -1.6645  1.6674
  716MOL0     H96596   3.430   3.035   9.239 -1.1238  0.3724  0.0795
  716MOL0     H96597   3.570   3.269   9.211  1.1816 -1.6139  2.8305
  716MOL0     H96598   3.422   3.340   9.266  3.8181  0.8842  0.7065
  716MOL0     H96599   3.313   3.213   9.069  2.3323 -3.2725  1.6835
  716MOL0     H96600   3.483   3.190   9.015  0.5977 -1.1216  0.6889
  716MOL0     H96601   3.397   3.467   9.106 -0.4799 -0.1889  0.5049
  716MOL0     H96602   3.534   3.419   9.001  0.5794 -0.8858  0.0334
  716MOL0     H96603   3.366   3.397   8.819  0.9211  4.6766 -2.3878
  716MOL0     H96604   3.231   3.423   8.938 -0.0457 -0.5368  1.2448
  716MOL0     H96605   3.242   3.640   8.867 -0.8662  2.5356  4.6250
  716MOL0     H96606   3.376   3.660   8.978 -1.6756  0.5962  0.7530
  716MOL0     H96607   3.426   3.564   8.701  0.5965 -0.7920  0.4622
  716MOL0     H96608   3.544   3.595   8.829  1.3647  1.4923 -1.2614
  716MOL0     H96609   3.478   3.822   8.845 -1.0023  2.9175  0.1188
  716MOL0     H96610   3.559   3.796   8.694  0.2743 -0.0481  0.6068
  716MOL0     H96611   3.219   3.956   8.820  0.6385  1.5390  0.0501
  716MOL0     H96612   3.070   4.092   8.649  0.7944  0.4961 -0.2795
  716MOL0     H96613   3.007   3.999   8.511 -1.2225 -3.1906 -0.3070
  716MOL0     H96614   2.920   3.831   8.645 -0.4389 -0.1712  0.6013
  716MOL0     H96615   2.987   3.899   8.792 -0.9161  1.2081 -0.0250
  716MOL0     H96616   2.724   3.911   8.693  1.2788 -1.6639  2.0158
  716MOL0     H96617   2.789   4.058   8.625 -1.3390  0.8887  1.5453
  716MOL0     H96618   2.695   4.116   8.833 -0.3847 -1.2393  2.2435
  716MOL0     H96619   2.861   4.164   8.819 -1.8840  1.6237 -3.7928
  716MOL0     H96620   2.757   4.237   9.027  1.4968 -2.1725 -2.3826
  716MOL0     H96621   2.618   4.295   9.235  0.0362  0.5755 -2.7982
  716MOL0     H96622   2.221   4.001   9.467  1.5106 -1.3499 -0.0290
  716MOL0     H96623   2.057   4.081   9.663 -0.5629  0.0971 -2.9360
  716MOL0     H96624   2.196   3.995  10.034  2.7754  1.3885 -1.6365
  716MOL0     H96625   2.215   4.161  10.082  0.8135  0.7934 -0.1569
  716MOL0     H96626   1.977   4.194  10.080 -0.1643 -0.2224 -3.3092
  716MOL0     H96627   1.949   4.028  10.017  2.8260  1.8635 -3.5699
  716MOL0     H96628   2.110   4.048  10.282 -0.2413 -0.7127  0.0275
  716MOL0     H96629   1.942   4.111  10.294 -1.6461  1.1113 -2.8304
  716MOL0     H96630   1.872   3.875  10.248 -0.3929  1.3905  1.6284
  716MOL0     H96631   1.988   3.881  10.373  0.7381 -2.7578 -0.6291
  716MOL0     H96632   2.167   3.815  10.222 -0.4523 -1.7845 -0.2504
  716MOL0     H96633   2.052   3.839  10.087 -1.1395 -0.0784 -0.5123
  716MOL0     H96634   2.026   3.637  10.321 -0.3584 -0.3977  0.3322
  716MOL0     H96635   1.917   3.636  10.191 -0.8732  2.5830 -2.5984
  716MOL0     H96636   2.089   3.459  10.179  0.5463 -0.0592  0.5905
  716MOL0     H96637   2.211   3.579  10.177 -2.2402  2.1990  2.3362
  716MOL0     H96638   2.131   3.669   9.953 -1.5607 -0.1021 -1.3733
  716MOL0     H96639   2.163   3.496   9.929  1.3599  1.2546  0.4625
  716MOL0     H96640   2.397   4.077   9.912  0.7860  2.3128 -0.0394
  716MOL0     H96641   2.546   4.022   9.724  1.0811  2.4403  1.5192
  716MOL0     H96642   2.560   3.881   9.311  1.6604 -0.4171  0.3888
  716MOL0     H96643   2.701   3.824   9.094  0.4885 -0.5102  0.5773
  716MOL0     H96644   3.354   3.010   9.582  1.8543 -3.4280  0.6300
  716MOL0     H96645   3.249   2.805   9.666  3.4533 -2.8756 -2.0940
  716MOL0     H96646   3.183   2.386   9.639  0.8728  0.3355  1.5875
  716MOL0     H96647   3.088   2.203   9.776  1.4444  0.3165 -1.1073
  716MOL0     H96648   2.749   1.991   9.620 -3.3408  1.3639 -0.7848
  716MOL0     H96649   2.659   2.087   9.734  0.5146  0.1298  0.0987
  716MOL0     H96650   2.674   1.925   9.906 -2.2131 -4.3016 -0.5915
  716MOL0     H96651   2.839   1.883   9.853 -0.3149  1.3323 -1.4494
  716MOL0     H96652   2.702   1.767   9.652  0.3945  1.2789 -0.2292
  716MOL0     H96653   2.563   1.782   9.761 -0.2763 -1.9483 -0.7096
  716MOL0     H96654   2.705   1.676   9.943  1.2352 -2.1713  1.1452
  716MOL0     H96655   2.604   1.591   9.828  1.3549 -2.2911 -4.4464
  716MOL0     H96656   3.002   1.431   9.756 -0.3496 -0.4222  0.0041
  716MOL0     H96657   2.723   2.231   9.588 -0.2874  2.0131  1.5924
  716MOL0     H96658   2.671   2.410   9.446  0.3544 -2.5684  0.8669
  716MOL0     H96659   2.783   2.555   9.438 -0.1927  0.9487 -1.8594
  716MOL0     H96660   2.798   2.416   9.332 -3.0476 -3.3777  1.2580
  717MOL0     O96661   5.027   6.313   2.796  0.4090  0.0874 -0.7690
  717MOL0     C96662   4.971   6.397   2.870 -0.3409  0.1717 -0.6346
  717MOL0     O96663   4.862   6.374   2.951  0.1101 -0.0319  1.3465
  717MOL0     C96664   4.799   6.256   2.957 -1.1211 -0.6000  0.0963
  717MOL0     C96665   4.752   6.219   3.084  0.2956  0.1156 -1.0363
  717MOL0     C96666   4.673   6.107   3.098  0.0229  0.0853 -1.1372
  717MOL0     C96667   4.647   6.019   2.996  0.1208  0.8585  0.5857
  717MOL0     O96668   4.593   5.887   2.997 -0.3072 -0.4436 -0.4885
  717MOL0     C96669   4.511   5.842   3.110 -0.5688  0.4422 -0.3008
  717MOL0     C96670   4.609   5.795   3.212  0.0700  0.9431 -0.1087
  717MOL0     C96671   4.656   5.653   3.198 -0.1545  0.1155  0.2089
  717MOL0     C96672   4.552   5.543   3.166  0.5377 -0.8636 -0.8307
  717MOL0     C96673   4.607   5.400   3.205  0.1559  0.4637  0.0936
  717MOL0     C96674   4.497   5.295   3.163 -0.7855 -0.3749 -0.0561
  717MOL0     C96675   4.444   5.219   3.286  1.4475  0.6850 -0.1635
  717MOL0     C96676   4.536   5.108   3.331  1.1954 -0.2119 -0.4773
  717MOL0     N96677   4.489   5.034   3.452 -0.2567  0.2276  0.1345
  717MOL0     C96678   4.519   5.048   3.580 -0.1098  0.0923 -0.1942
  717MOL0     C96679   4.467   4.948   3.653 -0.0453 -0.4375  0.0064
  717MOL0     C96680   4.480   4.922   3.804 -1.0331  0.9511  0.0624
  717MOL0     C96681   4.633   4.953   3.849  0.2926  0.4347 -0.0251
  717MOL0     C96682   4.654   5.076   3.939  0.8605  0.6044  0.5095
  717MOL0     C96683   4.560   5.103   4.047  0.0654  0.4243  0.2997
  717MOL0     O96684   4.600   5.197   4.144  0.3707 -0.1063 -0.2446
  717MOL0     C96685   4.515   5.253   4.237  0.5084 -0.5091  0.7200
  717MOL0     C96686   4.391   5.207   4.274 -0.0719  0.6279 -0.1390
  717MOL0     C96687   4.320   5.263   4.375 -0.1046  0.8368  0.2221
  717MOL0     C96688   4.357   5.389   4.423 -0.1626  0.2611 -0.4516
  717MOL0     C96689   4.275   5.462   4.523 -0.4714  0.4506 -0.5303
  717MOL0     O96690   4.337   5.527   4.630  0.0110  0.7845 -0.0870
  717MOL0     C96691   4.258   5.573   4.736 -0.2537  0.4628 -0.4650
  717MOL0     C96692   4.182   5.492   4.829  0.1960  0.8449 -0.5860
  717MOL0     C96693   4.132   5.538   4.946 -0.8777  0.4967 -0.2974
  717MOL0     C96694   4.160   5.673   4.976  0.1760  0.6650 -0.8383
  717MOL0     O96695   4.099   5.716   5.093 -0.1957  0.2677 -0.0052
  717MOL0     C96696   3.955   5.753   5.085  0.6701 -0.2030  0.6510
  717MOL0     C96697   3.848   5.642   5.103 -0.6085 -0.5202  0.0149
  717MOL0     C96698   3.880   5.557   5.233 -0.9539 -0.7633 -0.1869
  717MOL0     C96699   3.777   5.445   5.258  0.3229 -0.1184 -0.3592
  717MOL0     C96700   3.807   5.341   5.370 -0.0705  0.2383 -0.4932
  717MOL0     C96701   3.698   5.228   5.378 -0.1261 -0.3551  0.5889
  717MOL0     C96702   3.765   5.104   5.440  0.1734 -1.4164 -0.3303
  717MOL0     C96703   3.666   4.988   5.420 -0.6886  0.1442  1.0108
  717MOL0    Cl96704   3.753   4.829   5.456 -0.7622  0.3748 -0.2424
  717MOL0     C96705   4.240   5.748   4.906 -0.2417 -0.3723 -0.6033
  717MOL0     C96706   4.298   5.700   4.791 -0.2471  0.3656  0.2891
  717MOL0     O96707   4.151   5.442   4.517 -0.2629  0.0119  0.9350
  717MOL0     C96708   4.484   5.448   4.385  0.8400  0.3545 -0.9009
  717MOL0     C96709   4.560   5.378   4.292  1.3117  0.1676 -0.1981
  717MOL0     N96710   4.402   4.871   3.559  0.0320  0.1479 -0.9002
  717MOL0     N96711   4.415   4.925   3.446  0.0976  0.5222  0.7234
  717MOL0     C96712   4.689   6.062   2.865  0.0967 -0.4718 -0.5785
  717MOL0     C96713   4.758   6.177   2.851  0.1457 -0.3510  0.4255
  717MOL0     C96714   5.046   6.523   2.877 -0.0490  0.0739  1.4620
  717MOL0     C96715   5.156   6.536   2.783  0.5359  0.4073 -0.6640
  717MOL0     C96716   5.202   6.670   2.742  0.4046  0.9660  0.6804
  717MOL0     C96717   5.173   6.784   2.811  0.1133 -0.7984 -0.6405
  717MOL0     O96718   5.235   6.905   2.775 -0.2304  0.1278  0.1463
  717MOL0     C96719   5.258   6.995   2.890  0.3492 -0.1279  0.1110
  717MOL0     C96720   5.386   7.088   2.868  0.6030  0.0003 -0.6645
  717MOL0     C96721   5.509   7.021   2.924  0.0705  0.1661 -0.2281
  717MOL0     C96722   5.539   7.078   3.069 -0.3428 -0.2665 -0.9404
  717MOL0     C96723   5.446   7.041   3.174  0.2568 -0.1630  0.5780
  717MOL0     C96724   5.360   7.035   3.253  0.5899  0.7688 -1.5030
  717MOL0     C96725   5.070   6.767   2.907  0.5412 -0.2548 -0.1740
  717MOL0     C96726   5.008   6.637   2.942  0.9218 -0.8430  0.0497
  717MOL0     C96727   4.920   6.637   3.064 -0.4176 -0.4444 -0.9937
  717MOL0     H96728   4.793   6.282   3.162  1.4331  0.3403 -1.7946
  717MOL0     H96729   4.638   6.083   3.198 -0.2062 -1.8494 -1.6372
  717MOL0     H96730   4.445   5.920   3.148 -1.5819 -0.6736  0.2976
  717MOL0     H96731   4.444   5.758   3.091 -2.8424  2.4248 -1.5946
  717MOL0     H96732   4.560   5.812   3.308 -1.9656 -0.1500 -0.9036
  717MOL0     H96733   4.704   5.850   3.216  1.0150 -0.6885  2.8346
  717MOL0     H96734   4.709   5.630   3.291 -0.0321 -2.3308 -0.3826
  717MOL0     H96735   4.728   5.644   3.116 -0.3764 -0.8355  0.1048
  717MOL0     H96736   4.461   5.568   3.222  0.9510 -0.7513 -0.2131
  717MOL0     H96737   4.534   5.549   3.058  2.4724 -1.0859 -1.1968
  717MOL0     H96738   4.697   5.389   3.143 -1.4131  0.0336 -2.2611
  717MOL0     H96739   4.628   5.406   3.312  2.4647  3.3240 -0.4014
  717MOL0     H96740   4.405   5.339   3.124  0.0339  1.0729 -0.4391
  717MOL0     H96741   4.528   5.225   3.086 -2.4219 -0.3763 -0.7488
  717MOL0     H96742   4.350   5.166   3.273  2.1343 -0.5475 -0.2461
  717MOL0     H96743   4.417   5.279   3.374 -2.2262 -0.0792 -0.6335
  717MOL0     H96744   4.540   5.042   3.244  0.4609 -1.8298  0.6537
  717MOL0     H96745   4.633   5.154   3.354  0.6957  2.0507 -2.5136
  717MOL0     H96746   4.581   5.122   3.630 -0.4840 -0.6051  1.3334
  717MOL0     H96747   4.404   4.981   3.856 -4.5294  1.4911 -4.9180
  717MOL0     H96748   4.469   4.814   3.819 -1.7776  0.7160 -1.8765
  717MOL0     H96749   4.674   4.877   3.917 -3.2198 -0.9453  0.7635
  717MOL0     H96750   4.687   4.955   3.754 -2.7174  1.9504 -1.8616
  717MOL0     H96751   4.675   5.157   3.868 -1.6385  2.1786  1.4299
  717MOL0     H96752   4.752   5.063   3.986  1.1679 -0.1890 -0.3299
  717MOL0     H96753   4.531   5.007   4.092 -3.4769 -0.3738 -3.0637
  717MOL0     H96754   4.462   5.139   4.012 -1.1627 -1.3425  1.6931
  717MOL0     H96755   4.355   5.112   4.235 -2.0093  0.4524  1.8675
  717MOL0     H96756   4.222   5.221   4.394  0.7991 -1.8124 -0.6263
  717MOL0     H96757   4.163   5.387   4.808 -0.7232  0.4752  1.8341
  717MOL0     H96758   4.067   5.475   5.006 -1.2635 -0.7933 -2.0114
  717MOL0     H96759   3.934   5.827   5.164 -0.1704  0.6840 -0.3722
  717MOL0     H96760   3.924   5.800   4.991 -1.2862  0.1992  1.4354
  717MOL0     H96761   3.745   5.679   5.110 -1.2210 -2.2573  0.5371
  717MOL0     H96762   3.853   5.575   5.017  2.1029  0.4110 -0.6760
  717MOL0     H96763   3.981   5.515   5.231  0.1324  1.5527  1.3124
  717MOL0     H96764   3.883   5.608   5.329 -3.4848  1.4869 -1.1969
  717MOL0     H96765   3.756   5.384   5.170  3.4191  1.5754 -2.4207
  717MOL0     H96766   3.674   5.478   5.276 -1.3708 -5.1658  0.8293
  717MOL0     H96767   3.811   5.394   5.466 -0.9796 -1.4587  0.5278
  717MOL0     H96768   3.910   5.306   5.368 -0.4290 -1.1326  1.7286
  717MOL0     H96769   3.608   5.265   5.428 -0.3174 -0.5173  0.3708
  717MOL0     H96770   3.679   5.197   5.275  0.6572 -4.9170  1.6087
  717MOL0     H96771   3.781   5.116   5.547 -1.0605  2.0293 -0.4077
  717MOL0     H96772   3.855   5.082   5.383 -0.3807  1.1627 -2.4209
  717MOL0     H96773   3.580   5.000   5.487 -1.6016 -0.9297  0.0869
  717MOL0     H96774   3.622   4.987   5.320 -0.1365  2.9130  0.6626
  717MOL0     H96775   4.269   5.846   4.942  1.2045 -2.2115  3.9658
  717MOL0     H96776   4.378   5.762   4.752 -0.1020  2.0063  2.8896
  717MOL0     H96777   4.520   5.541   4.428 -1.8234 -0.8234  4.8804
  717MOL0     H96778   4.655   5.426   4.271  1.2452 -0.0526 -1.0136
  717MOL0     H96779   4.673   5.994   2.782  0.4310  0.6038 -1.5532
  717MOL0     H96780   4.786   6.200   2.749 -0.0501 -0.5764  0.3188
  717MOL0     H96781   5.199   6.453   2.727 -1.7024  0.0708 -2.0336
  717MOL0     H96782   5.256   6.666   2.648 -0.0928 -0.0080  0.4174
  717MOL0     H96783   5.270   6.941   2.985 -0.5791 -2.1650 -0.8727
  717MOL0     H96784   5.170   7.060   2.894  1.1620  1.0269 -0.5209
  717MOL0     H96785   5.365   7.188   2.905 -0.7327 -0.2976 -0.5554
  717MOL0     H96786   5.398   7.094   2.759  1.1061  0.5586 -0.5844
  717MOL0     H96787   5.594   7.050   2.861  0.7690  0.8573  0.9921
  717MOL0     H96788   5.494   6.913   2.922 -0.1566  0.1854  0.2765
  717MOL0     H96789   5.637   7.042   3.101 -0.1225  1.1296  0.0384
  717MOL0     H96790   5.534   7.188   3.067 -1.4537 -0.2025  1.4318
  717MOL0     H96791   5.291   6.999   3.328 -0.0727 -2.7099 -3.5370
  717MOL0     H96792   5.043   6.848   2.974 -0.8408 -1.2346  0.5049
  717MOL0     H96793   4.909   6.534   3.099  0.4472 -0.4174 -0.6285
  717MOL0     H96794   4.970   6.699   3.140 -1.2490 -2.5631  1.4233
  717MOL0     H96795   4.819   6.665   3.031 -0.9216 -3.2029 -2.0176
  718MOL0     O96796   3.025   6.179   6.552  0.1399 -0.0703 -0.2916
  718MOL0     C96797   3.044   6.246   6.654 -0.5261 -0.2306  1.4561
  718MOL0     O96798   3.027   6.388   6.653  0.0624 -0.1374 -0.8734
  718MOL0     C96799   3.028   6.459   6.538  0.0640 -0.6666  1.0385
  718MOL0     C96800   2.955   6.577   6.536  0.1710 -0.0547  0.8617
  718MOL0     C96801   2.964   6.664   6.428  0.0413  0.5009  0.3420
  718MOL0     C96802   3.042   6.630   6.321  0.1540 -0.0342  0.2650
  718MOL0     O96803   3.078   6.703   6.211 -0.0423 -0.2360 -1.0055
  718MOL0     C96804   2.985   6.794   6.161 -0.5427  0.4223 -0.1035
  718MOL0     C96805   3.055   6.850   6.027  0.2789 -0.9181  0.3086
  718MOL0     C96806   3.078   6.998   6.037  0.6013  0.7940 -0.7760
  718MOL0     C96807   2.947   7.081   6.058  0.0076  0.1317 -0.1898
  718MOL0     C96808   2.970   7.224   5.999 -0.4323  1.1328 -0.1203
  718MOL0     C96809   2.841   7.305   5.992 -0.3820 -0.4568  0.6497
  718MOL0     C96810   2.876   7.431   5.921 -0.6403 -0.6870 -0.1622
  718MOL0     C96811   2.754   7.515   5.911 -0.2921 -0.2883 -0.0929
  718MOL0     N96812   2.690   7.539   6.037  0.3246 -0.5081 -0.2533
  718MOL0     C96813   2.743   7.622   6.127 -0.6772  1.7685 -0.2501
  718MOL0     C96814   2.632   7.661   6.192 -1.5700 -0.6130  0.0630
  718MOL0     C96815   2.632   7.765   6.303  1.2709  0.0053 -1.0394
  718MOL0     C96816   2.561   7.901   6.264  0.3001  0.2051  0.1079
  718MOL0     C96817   2.528   7.983   6.388  0.5794  0.1383 -0.8759
  718MOL0     C96818   2.649   8.034   6.462 -0.0639 -1.0012  0.8688
  718MOL0     O96819   2.606   8.133   6.551 -0.4784  0.3866  0.0060
  718MOL0     C96820   2.703   8.223   6.586 -0.3400  0.5009 -0.5832
  718MOL0     C96821   2.825   8.179   6.631  0.3056 -0.0078 -0.7823
  718MOL0     C96822   2.908   8.263   6.697  0.1640  0.7031  0.8996
  718MOL0     C96823   2.879   8.395   6.705  0.3767 -0.6385  0.9487
  718MOL0     C96824   2.977   8.489   6.779  0.0968 -0.0067  0.1057
  718MOL0     O96825   2.937   8.619   6.805  0.3888 -0.8571 -0.0002
  718MOL0     C96826   3.036   8.687   6.865  0.3914 -0.5033  0.3349
  718MOL0     C96827   3.131   8.744   6.777  1.2500 -0.3901 -0.0774
  718MOL0     C96828   3.234   8.823   6.835  0.2276  0.4801  0.8358
  718MOL0     C96829   3.229   8.860   6.968  1.0004  0.1660 -0.4616
  718MOL0     O96830   3.318   8.957   7.018  0.8214 -0.6730 -0.0209
  718MOL0     C96831   3.450   8.939   6.962  0.0150  0.2342 -0.6091
  718MOL0     C96832   3.555   9.007   7.048 -0.7092 -0.0347  1.0108
  718MOL0     C96833   3.696   8.995   6.991 -0.3843  0.6062  0.2120
  718MOL0     C96834   3.787   9.095   7.061  0.4861 -0.0419 -0.1347
  718MOL0     C96835   3.939   9.079   7.052 -0.3165 -1.3391 -0.0089
  718MOL0     C96836   4.017   9.169   7.156  0.6196 -0.5917  0.1483
  718MOL0     C96837   4.161   9.149   7.158  0.3924 -0.1919 -0.5501
  718MOL0     C96838   4.233   9.210   7.280  0.9881  0.3969  0.4640
  718MOL0    Cl96839   4.398   9.176   7.272  0.4138  0.3255  0.0252
  718MOL0     C96840   3.134   8.806   7.054  0.0402  0.3368  0.9113
  718MOL0     C96841   3.040   8.716   7.005  0.2296 -0.1047  0.3621
  718MOL0     O96842   3.089   8.436   6.796 -0.1629 -0.8776  0.0819
  718MOL0     C96843   2.754   8.446   6.648 -0.3484 -0.1373  0.3063
  718MOL0     C96844   2.667   8.356   6.596 -0.5003  0.4184  1.2145
  718MOL0     N96845   2.514   7.599   6.146  0.2769 -0.5350 -0.0667
  718MOL0     N96846   2.544   7.521   6.049 -0.2270 -0.4800  0.4996
  718MOL0     C96847   3.105   6.509   6.326 -0.2940  0.3585 -0.7966
  718MOL0     C96848   3.104   6.429   6.434 -1.3389 -0.5648  0.2766
  718MOL0     C96849   3.086   6.192   6.769 -0.5909 -0.5574 -1.2668
  718MOL0     C96850   3.047   6.260   6.886  0.5715  0.1792 -0.6465
  718MOL0     C96851   3.091   6.223   7.016 -0.0198 -0.5002 -0.4469
  718MOL0     C96852   3.166   6.115   7.032 -0.5022 -0.5518 -0.5719
  718MOL0     O96853   3.211   6.066   7.154  0.9687  0.1317 -0.7095
  718MOL0     C96854   3.159   6.133   7.269  0.0380  0.7272 -0.5724
  718MOL0     C96855   3.215   6.063   7.394  0.3128 -0.4003  0.5938
  718MOL0     C96856   3.146   5.928   7.408  1.1767  0.0998  0.4590
  718MOL0     C96857   3.147   5.881   7.556  0.3193 -0.1988 -0.0163
  718MOL0     C96858   3.077   5.752   7.570  0.1751 -0.8422 -0.2643
  718MOL0     C96859   3.048   5.634   7.571 -0.3779 -0.6373  0.1029
  718MOL0     C96860   3.205   6.041   6.917 -0.2456  0.4318 -0.7795
  718MOL0     C96861   3.161   6.074   6.788  0.5698  0.2403  0.8009
  718MOL0     C96862   3.220   5.979   6.681  0.7938  0.3773  0.5182
  718MOL0     H96863   2.884   6.604   6.614 -1.7946  0.0499 -0.8697
  718MOL0     H96864   2.908   6.756   6.428  0.9815  1.1757  3.3802
  718MOL0     H96865   2.892   6.743   6.136  1.2826 -3.3329  0.1026
  718MOL0     H96866   2.952   6.862   6.240  0.0018 -0.3035  0.7667
  718MOL0     H96867   2.989   6.845   5.940 -0.5458  1.5890  0.6954
  718MOL0     H96868   3.144   6.793   5.999  1.2934  2.0757 -3.3164
  718MOL0     H96869   3.142   7.027   5.953  1.0618  0.6840 -0.4740
  718MOL0     H96870   3.141   7.008   6.127  0.8757  1.3073 -1.0187
  718MOL0     H96871   2.865   7.047   5.993  1.0133  1.5371 -2.3329
  718MOL0     H96872   2.917   7.078   6.163  2.3993 -1.3518  0.5507
  718MOL0     H96873   3.047   7.270   6.061 -2.6242  1.1260  2.8812
  718MOL0     H96874   3.011   7.201   5.901 -1.6100  0.4556 -0.4829
  718MOL0     H96875   2.757   7.256   5.940  0.9018 -2.4597  0.3691
  718MOL0     H96876   2.816   7.330   6.095 -0.6606 -1.2674  0.7905
  718MOL0     H96877   2.923   7.414   5.824 -0.5981  1.0204 -0.4705
  718MOL0     H96878   2.952   7.479   5.984 -1.1673 -1.1143  0.8215
  718MOL0     H96879   2.784   7.610   5.864 -3.1664  0.6088 -0.2608
  718MOL0     H96880   2.680   7.467   5.846 -1.6409  0.7679  0.6167
  718MOL0     H96881   2.848   7.648   6.138 -0.0100 -0.5088 -0.6483
  718MOL0     H96882   2.585   7.721   6.391  1.3684 -0.1351 -1.0573
  718MOL0     H96883   2.730   7.795   6.340 -0.0050  0.3683  2.4037
  718MOL0     H96884   2.631   7.953   6.199  0.1471 -1.7227 -1.6646
  718MOL0     H96885   2.467   7.876   6.216  1.7742 -1.4821 -2.0486
  718MOL0     H96886   2.470   7.919   6.455 -0.4955  0.3109 -1.6320
  718MOL0     H96887   2.468   8.070   6.361  4.2774  3.2715  0.0472
  718MOL0     H96888   2.727   8.075   6.398  1.0167 -1.4783  1.8501
  718MOL0     H96889   2.684   7.959   6.533 -0.1843  1.6521  3.9411
  718MOL0     H96890   2.855   8.075   6.636 -0.8830 -0.2993  1.1419
  718MOL0     H96891   3.004   8.224   6.729 -0.0170 -1.7537 -1.2317
  718MOL0     H96892   3.118   8.711   6.675  0.1551 -1.9393  0.5207
  718MOL0     H96893   3.298   8.864   6.758  0.0121 -1.4771 -0.4662
  718MOL0     H96894   3.467   8.831   6.963  0.2592  0.2073 -2.7161
  718MOL0     H96895   3.461   8.989   6.865  3.4634 -1.4766 -1.2511
  718MOL0     H96896   3.534   9.112   7.067  0.8443  0.2317  1.3800
  718MOL0     H96897   3.556   8.960   7.147  0.0158  1.3693  1.6991
  718MOL0     H96898   3.736   8.895   7.009 -0.0158  0.8031  0.4952
  718MOL0     H96899   3.687   8.996   6.882  0.1947 -3.3962 -0.0236
  718MOL0     H96900   3.754   9.079   7.164  3.9033 -2.4530  0.7706
  718MOL0     H96901   3.752   9.189   7.017  1.5666 -0.5070 -2.1479
  718MOL0     H96902   3.973   9.110   6.953  1.4616 -3.0209  0.0167
  718MOL0     H96903   3.967   8.973   7.062  3.0083 -0.5120  0.5595
  718MOL0     H96904   4.013   9.272   7.120 -3.9476 -1.3139 -2.1287
  718MOL0     H96905   3.966   9.158   7.252 -1.1186  0.6842 -0.5761
  718MOL0     H96906   4.205   9.199   7.071 -1.1998  1.1594 -0.6325
  718MOL0     H96907   4.175   9.042   7.142 -0.7599 -0.7685  1.8188
  718MOL0     H96908   4.209   9.316   7.289  0.0489  0.2598 -0.2624
  718MOL0     H96909   4.187   9.165   7.369 -1.5995  5.4470  2.0350
  718MOL0     H96910   3.147   8.845   7.154 -1.4552  0.4103  1.0945
  718MOL0     H96911   2.968   8.680   7.077  0.5855  1.1401  1.3914
  718MOL0     H96912   2.724   8.550   6.655 -2.3113 -0.7843  3.5734
  718MOL0     H96913   2.574   8.385   6.548 -0.5252 -1.7909 -0.2163
  718MOL0     H96914   3.157   6.476   6.237 -2.9836 -3.4030 -1.2401
  718MOL0     H96915   3.162   6.337   6.441  0.7563  0.7899  3.5233
  718MOL0     H96916   2.978   6.344   6.893 -1.9400 -1.7997 -0.1893
  718MOL0     H96917   3.056   6.294   7.090  2.3215 -0.8998  1.1529
  718MOL0     H96918   3.050   6.126   7.271  0.1331 -1.3933 -0.3199
  718MOL0     H96919   3.191   6.238   7.268 -2.0348  1.3920 -1.2841
  718MOL0     H96920   3.207   6.134   7.476  2.9660  3.5357 -2.2200
  718MOL0     H96921   3.323   6.046   7.391 -0.0463 -3.1201  0.3342
  718MOL0     H96922   3.199   5.856   7.344 -1.4665 -1.4499 -0.1485
  718MOL0     H96923   3.051   5.925   7.354  3.3537 -0.1307 -3.7395
  718MOL0     H96924   3.248   5.870   7.597  0.1625  0.3730  0.5297
  718MOL0     H96925   3.095   5.951   7.622  2.3711 -1.1471  2.8109
  718MOL0     H96926   3.010   5.534   7.585 -0.7742 -0.1588  3.2689
  718MOL0     H96927   3.259   5.950   6.941 -3.6473 -2.0339 -1.7092
  718MOL0     H96928   3.148   5.912   6.633  0.0198  0.8516  0.9812
  718MOL0     H96929   3.273   6.046   6.612  0.3969  2.3193  2.0028
  718MOL0     H96930   3.292   5.916   6.733 -3.2450 -2.3785  3.3363
  719MOL0     O96931   3.250   4.347   8.858 -0.1988 -0.4229  0.5376
  719MOL0     C96932   3.335   4.281   8.911  0.5975 -0.5047 -0.0010
  719MOL0     O96933   3.465   4.310   8.912  0.3326  0.3638  0.7457
  719MOL0     C96934   3.503   4.439   8.914  0.9786  0.6335 -0.3663
  719MOL0     C96935   3.617   4.472   8.852  0.5528 -0.4685  1.0233
  719MOL0     C96936   3.654   4.616   8.841 -0.4008  0.2665 -0.3833
  719MOL0     C96937   3.588   4.727   8.910  0.8392 -0.4016  0.1757
  719MOL0     O96938   3.633   4.859   8.898  0.4656  0.0998 -0.0680
  719MOL0     C96939   3.577   4.961   8.973 -0.3063 -0.0250 -0.9646
  719MOL0     C96940   3.466   5.033   8.894 -0.1117 -0.3569  0.0073
  719MOL0     C96941   3.534   5.092   8.763  0.2577 -0.2586  0.1228
  719MOL0     C96942   3.438   5.197   8.703  0.0252 -0.0031 -0.3398
  719MOL0     C96943   3.500   5.251   8.580  0.2721 -1.2234 -0.5506
  719MOL0     C96944   3.403   5.343   8.508  0.2227  0.0252 -0.8590
  719MOL0     C96945   3.449   5.389   8.366  0.3179 -0.1701  0.5277
  719MOL0     C96946   3.352   5.488   8.310 -0.6720 -0.2000 -1.2819
  719MOL0     N96947   3.241   5.416   8.246  0.2723  0.5224  0.2185
  719MOL0     C96948   3.194   5.440   8.114 -0.4826 -0.4214  1.2757
  719MOL0     C96949   3.078   5.368   8.092  1.1987 -0.1337  0.1590
  719MOL0     C96950   2.994   5.355   7.966 -0.8692  0.7852  0.0577
  719MOL0     C96951   2.932   5.217   7.960 -1.1098 -0.1615 -0.9111
  719MOL0     C96952   2.837   5.186   7.849  0.5877  0.3959  0.0094
  719MOL0     C96953   2.692   5.256   7.866 -0.3476 -0.5616 -0.2416
  719MOL0     O96954   2.598   5.187   7.772 -0.2502  0.4115 -0.0630
  719MOL0     C96955   2.601   5.225   7.645 -0.2954 -0.4440 -0.5296
  719MOL0     C96956   2.637   5.351   7.594 -0.3846  0.8174  0.0694
  719MOL0     C96957   2.631   5.375   7.453 -0.0704 -0.4624 -0.0957
  719MOL0     C96958   2.575   5.282   7.368  0.1988  0.4604  0.0758
  719MOL0     C96959   2.554   5.321   7.228 -0.6845  1.1596 -0.1546
  719MOL0     O96960   2.579   5.448   7.178 -0.2087 -0.1629 -0.1766
  719MOL0     C96961   2.513   5.482   7.058 -0.4142 -0.7150 -0.3496
  719MOL0     C96962   2.387   5.528   7.070  0.9708  0.3400 -0.2519
  719MOL0     C96963   2.325   5.576   6.956 -0.4255  0.5301 -0.0729
  719MOL0     C96964   2.387   5.560   6.832  0.0122 -0.3263  0.3578
  719MOL0     O96965   2.316   5.620   6.729 -0.1750 -0.3164 -0.1733
  719MOL0     C96966   2.395   5.681   6.634  0.4451 -0.3691  0.0543
  719MOL0     C96967   2.302   5.740   6.527 -0.6954 -0.2113  0.4783
  719MOL0     C96968   2.362   5.793   6.401 -0.0561 -0.4874 -0.0077
  719MOL0     C96969   2.462   5.910   6.419 -0.3757  0.5342 -0.6947
  719MOL0     C96970   2.540   5.926   6.285  0.3433  0.4629  0.1094
  719MOL0     C96971   2.446   5.988   6.186 -0.4140 -1.1079 -0.2876
  719MOL0     C96972   2.510   6.024   6.051 -0.2735  1.2041 -0.2165
  719MOL0     C96973   2.497   5.903   5.960 -0.1198 -0.7674  0.8689
  719MOL0    Cl96974   2.330   5.895   5.872 -0.3394 -0.2761 -0.0694
  719MOL0     C96975   2.514   5.508   6.818 -0.2627  1.3216  0.2006
  719MOL0     C96976   2.583   5.470   6.937  0.2299 -0.0345  0.4878
  719MOL0     O96977   2.485   5.232   7.170  0.4315 -0.1331 -0.7004
  719MOL0     C96978   2.535   5.164   7.424  0.4807  0.5444 -0.2867
  719MOL0     C96979   2.551   5.130   7.558 -0.6163  0.0496 -0.4813
  719MOL0     N96980   3.058   5.303   8.219 -0.4633  1.0302 -1.1936
  719MOL0     N96981   3.156   5.328   8.305  0.9015 -0.2898 -0.4721
  719MOL0     C96982   3.464   4.683   8.971  0.1860 -0.4761  0.1840
  719MOL0     C96983   3.425   4.542   8.978  0.3359 -0.2210  1.3278
  719MOL0     C96984   3.284   4.156   8.977 -0.1621 -2.1067 -0.6397
  719MOL0     C96985   3.377   4.062   9.006  0.1367  0.1408  0.3194
  719MOL0     C96986   3.346   3.948   9.067 -0.6252 -0.8256  0.4911
  719MOL0     C96987   3.219   3.927   9.130 -0.3749 -0.5142 -0.7821
  719MOL0     O96988   3.207   3.809   9.202  0.1551 -0.1981  0.6801
  719MOL0     C96989   3.086   3.788   9.271  0.5874 -0.6486 -1.1919
  719MOL0     C96990   3.076   3.646   9.329  0.2277  0.6603  0.1152
  719MOL0     C96991   3.158   3.633   9.461 -0.1686 -0.4584 -0.7826
  719MOL0     C96992   3.312   3.617   9.448 -0.6922 -0.2597  0.7039
  719MOL0     C96993   3.374   3.580   9.578 -0.0095  0.6477  0.0628
  719MOL0     C96994   3.419   3.539   9.680 -0.9206  0.2746  1.3718
  719MOL0     C96995   3.127   4.027   9.115 -0.1549  0.2539  1.1514
  719MOL0     C96996   3.162   4.140   9.038 -0.1649  0.3005 -0.2292
  719MOL0     C96997   3.060   4.253   9.032 -0.8096  0.1319 -0.0410
  719MOL0     H96998   3.682   4.394   8.814  0.1931 -0.4196  0.2770
  719MOL0     H96999   3.746   4.638   8.787  2.8206 -1.1467  3.9155
  719MOL0     H97000   3.540   4.914   9.065  0.0059 -0.8079 -1.2366
  719MOL0     H97001   3.654   5.037   8.991  1.1055 -0.0413 -5.6200
  719MOL0     H97002   3.414   5.107   8.954  0.3826  1.5327 -1.7636
  719MOL0     H97003   3.388   4.962   8.864 -0.7762  0.8864 -1.2989
  719MOL0     H97004   3.562   5.019   8.686 -0.7946  0.6532 -1.1726
  719MOL0     H97005   3.629   5.141   8.788 -0.4077  0.9609  0.3344
  719MOL0     H97006   3.347   5.153   8.664  1.8943 -2.2382 -2.4989
  719MOL0     H97007   3.415   5.280   8.772  2.2805  0.5537 -0.1661
  719MOL0     H97008   3.586   5.315   8.607 -0.5675  0.9127 -2.6499
  719MOL0     H97009   3.536   5.171   8.515 -1.6673 -1.5372 -1.2887
  719MOL0     H97010   3.311   5.288   8.485 -1.2319  2.0717 -0.2185
  719MOL0     H97011   3.379   5.417   8.585  0.9773  0.9008 -1.4356
  719MOL0     H97012   3.443   5.296   8.307 -1.0684  1.4969 -2.1799
  719MOL0     H97013   3.549   5.431   8.375  0.9786 -1.5419 -0.1068
  719MOL0     H97014   3.308   5.542   8.395  0.3818  0.4091 -1.1042
  719MOL0     H97015   3.401   5.547   8.232  0.5445 -2.0068 -1.9378
  719MOL0     H97016   3.231   5.518   8.048 -2.7065 -0.0039  0.4377
  719MOL0     H97017   2.915   5.430   7.970 -0.1503  1.5544  0.0892
  719MOL0     H97018   3.062   5.371   7.882  1.0625 -1.9415  0.9252
  719MOL0     H97019   3.013   5.143   7.968  1.6517  2.7363  0.1857
  719MOL0     H97020   2.875   5.210   8.053 -2.9967  2.6401 -1.7434
  719MOL0     H97021   2.836   5.076   7.848 -1.3676  0.3762 -1.7250
  719MOL0     H97022   2.879   5.233   7.759  0.2168 -0.5599 -0.6846
  719MOL0     H97023   2.693   5.364   7.849  0.7864 -0.8923 -2.6386
  719MOL0     H97024   2.652   5.238   7.966 -0.1454  0.6196  0.0674
  719MOL0     H97025   2.670   5.427   7.665 -1.8079  3.0297 -1.5386
  719MOL0     H97026   2.657   5.476   7.423 -1.3165 -0.1985 -0.3601
  719MOL0     H97027   2.337   5.526   7.166 -1.4375 -0.0542 -1.4331
  719MOL0     H97028   2.222   5.609   6.964 -1.5292 -2.8863  2.1006
  719MOL0     H97029   2.459   5.759   6.674  1.0766 -0.9486  0.1988
  719MOL0     H97030   2.449   5.597   6.588 -0.1781 -0.4831 -0.4843
  719MOL0     H97031   2.251   5.655   6.482 -1.1008 -0.0271  0.5831
  719MOL0     H97032   2.233   5.808   6.578 -1.1721  0.7640 -1.3947
  719MOL0     H97033   2.418   5.713   6.352 -0.0610 -1.4146  1.4228
  719MOL0     H97034   2.286   5.830   6.333  2.9820  0.0793 -3.3715
  719MOL0     H97035   2.527   5.890   6.504  0.6342  3.9680 -0.5396
  719MOL0     H97036   2.411   6.000   6.453 -2.9358 -1.1682  0.2924
  719MOL0     H97037   2.582   5.831   6.251  0.0321  1.1966 -2.6028
  719MOL0     H97038   2.614   6.003   6.310 -0.7208  2.2102 -1.7874
  719MOL0     H97039   2.351   5.937   6.168 -1.4675  1.4263 -2.5671
  719MOL0     H97040   2.415   6.085   6.225 -1.9209 -1.8141  0.3524
  719MOL0     H97041   2.615   6.050   6.064  0.0014  0.3897 -0.7835
  719MOL0     H97042   2.468   6.115   6.006  1.5767  2.0150 -0.3623
  719MOL0     H97043   2.572   5.933   5.887 -2.1976  1.0282 -0.6703
  719MOL0     H97044   2.531   5.813   6.012  1.0257  0.3205  2.0521
  719MOL0     H97045   2.550   5.480   6.719  1.9929 -1.8304  1.7194
  719MOL0     H97046   2.679   5.420   6.934 -0.0361 -0.5149 -0.3310
  719MOL0     H97047   2.489   5.090   7.358 -1.9576  1.0925  0.6660
  719MOL0     H97048   2.510   5.041   7.604 -0.5224 -0.2767 -1.0200
  719MOL0     H97049   3.388   4.751   9.009 -0.4903 -1.3956  0.5323
  719MOL0     H97050   3.329   4.516   9.021 -0.6093  1.9242  0.6878
  719MOL0     H97051   3.486   4.068   9.002  0.2944 -1.3100  1.6970
  719MOL0     H97052   3.423   3.875   9.088 -2.2504 -2.9306 -0.5017
  719MOL0     H97053   3.002   3.803   9.201 -1.1644  1.5137  1.1611
  719MOL0     H97054   3.066   3.860   9.351  3.7052  0.3932 -1.2332
  719MOL0     H97055   3.112   3.579   9.250 -0.3666  2.8221 -2.1013
  719MOL0     H97056   2.973   3.614   9.348  0.9534 -3.6882 -1.9931
  719MOL0     H97057   3.101   3.556   9.513  0.5561  0.6811  1.8401
  719MOL0     H97058   3.139   3.710   9.536  3.3225  0.4501 -0.6415
  719MOL0     H97059   3.346   3.544   9.374 -1.2750  0.6947 -0.5305
  719MOL0     H97060   3.352   3.714   9.418  0.0221 -1.0418 -1.0219
  719MOL0     H97061   3.470   3.506   9.767  0.2323 -1.5793  0.0697
  719MOL0     H97062   3.033   4.013   9.168  0.0117 -0.3523  1.2945
  719MOL0     H97063   3.020   4.268   8.931 -0.0622  4.0753  0.0772
  719MOL0     H97064   2.969   4.229   9.089 -1.3939  1.2658 -0.4528
  719MOL0     H97065   3.099   4.352   9.057 -0.6513  0.0937 -0.1384
  720MOL0     O97066   4.483   3.248  10.121 -0.2040  0.3095  0.4562
  720MOL0     C97067   4.456   3.149  10.048  0.5169 -0.7190 -0.1818
  720MOL0     O97068   4.327   3.118   9.999 -0.9415  0.0396  0.2210
  720MOL0     C97069   4.238   3.220   9.993  0.6403 -0.2274 -0.7309
  720MOL0     C97070   4.116   3.198  10.047  0.0846 -0.0181  0.5096
  720MOL0     C97071   4.011   3.290  10.046 -0.5311  0.3052  0.6271
  720MOL0     C97072   4.035   3.413   9.968  0.0405 -0.1989 -0.4294
  720MOL0     O97073   3.942   3.514   9.975 -0.2532 -0.1186  0.1597
  720MOL0     C97074   3.866   3.525   9.855 -0.9147 -0.7049 -0.1221
  720MOL0     C97075   3.871   3.670   9.826 -1.2090 -0.0011  0.2496
  720MOL0     C97076   3.805   3.771   9.917 -0.1774  0.5191  0.0217
  720MOL0     C97077   3.649   3.745   9.916 -0.1722 -0.1067 -0.5349
  720MOL0     C97078   3.587   3.846   9.815 -0.1130 -0.9271  0.0780
  720MOL0     C97079   3.443   3.871   9.862 -0.1930  0.1335  0.2348
  720MOL0     C97080   3.373   3.968   9.763  0.4397 -0.4568 -0.2028
  720MOL0     C97081   3.402   4.117   9.789 -1.2947  0.2558  1.4143
  720MOL0     N97082   3.337   4.206   9.696 -0.6732 -0.1411 -0.1833
  720MOL0     C97083   3.305   4.191   9.566  0.4230  0.6930  0.0792
  720MOL0     C97084   3.214   4.282   9.540  0.4958  0.8877  0.4620
  720MOL0     C97085   3.138   4.283   9.402 -0.2740 -0.3591 -0.9625
  720MOL0     C97086   2.991   4.248   9.434  0.7101  0.7528 -0.0486
  720MOL0     C97087   2.970   4.095   9.453 -0.9065 -0.0518 -0.6637
  720MOL0     C97088   2.851   4.083   9.552 -0.6414 -1.1456 -0.0833
  720MOL0     O97089   2.821   3.943   9.573 -0.1263 -0.5412  0.3907
  720MOL0     C97090   2.904   3.857   9.646 -0.9454  0.6112 -0.4265
  720MOL0     C97091   2.874   3.725   9.633 -0.0725  0.0303 -0.1214
  720MOL0     C97092   2.939   3.633   9.713 -0.5824 -0.5039 -0.2190
  720MOL0     C97093   3.036   3.661   9.798 -1.5176 -0.3309  0.1543
  720MOL0     C97094   3.106   3.565   9.885 -0.1631 -0.4118 -0.4901
  720MOL0     O97095   3.230   3.582   9.934 -0.5757  0.0349 -1.0543
  720MOL0     C97096   3.286   3.495  10.019  0.4028  0.3948 -1.6996
  720MOL0     C97097   3.288   3.356  10.002 -0.2683  0.3401  0.2433
  720MOL0     C97098   3.339   3.285  10.111 -0.1919 -0.9823 -0.0190
  720MOL0     C97099   3.391   3.345  10.221  0.4356  0.9719 -0.5099
  720MOL0     O97100   3.453   3.258  10.307 -0.3980  0.1138 -0.1468
  720MOL0     C97101   3.502   3.299  10.439  0.1509  1.2732 -0.3795
  720MOL0     C97102   3.605   3.200  10.489  0.9912  1.2081 -0.3179
  720MOL0     C97103   3.722   3.195  10.399 -0.8438 -0.2868 -0.2759
  720MOL0     C97104   3.836   3.175  10.484  0.1206  0.4815 -0.9666
  720MOL0     C97105   3.952   3.127  10.387 -0.8918  0.2810 -0.5343
  720MOL0     C97106   4.089   3.125  10.457 -1.3034  0.4846 -0.0670
  720MOL0     C97107   4.149   3.262  10.485 -0.9146 -0.0533  0.6674
  720MOL0     C97108   4.131   3.298  10.636  0.0905 -0.2172 -0.6676
  720MOL0    Cl97109   4.250   3.215  10.739 -0.0128 -0.3352  0.1659
  720MOL0     C97110   3.386   3.480  10.239  0.3669 -0.6111 -0.2155
  720MOL0     C97111   3.342   3.554  10.136  0.3394 -0.3730 -0.2190
  720MOL0     O97112   3.035   3.468   9.907 -0.4270  0.4347 -0.4273
  720MOL0     C97113   3.069   3.800   9.811 -0.1479 -0.9320 -0.2131
  720MOL0     C97114   3.005   3.899   9.737  0.9902  0.5429 -0.2261
  720MOL0     N97115   3.181   4.361   9.648  0.3151  0.1932 -0.7966
  720MOL0     N97116   3.266   4.316   9.738  0.3112 -0.9969  0.6322
  720MOL0     C97117   4.161   3.430   9.902  0.4501 -0.2501 -0.2629
  720MOL0     C97118   4.265   3.332   9.918  0.0771  0.2915 -0.7736
  720MOL0     C97119   4.567   3.057  10.030  0.1061  0.8113  0.0607
  720MOL0     C97120   4.702   3.103  10.047 -0.6704 -0.7877 -0.8415
  720MOL0     C97121   4.822   3.028  10.030  0.4998  1.1918  0.7605
  720MOL0     C97122   4.795   2.900   9.977 -0.4987  0.4403  0.2643
  720MOL0     O97123   4.900   2.817   9.939 -0.2496  0.1820  0.8169
  720MOL0     C97124   5.036   2.862   9.929 -0.1849  0.0363 -0.3518
  720MOL0     C97125   5.124   2.752   9.872 -0.2468 -0.6905 -0.1231
  720MOL0     C97126   5.190   2.682   9.987 -0.1317  0.2526  0.0108
  720MOL0     C97127   5.303   2.580   9.944  0.4591  0.0040  0.0424
  720MOL0     C97128   5.247   2.478   9.857  0.0321 -1.6462 -0.7542
  720MOL0     C97129   5.179   2.404   9.789  0.7980 -0.2087 -0.3910
  720MOL0     C97130   4.669   2.848   9.979  0.1459 -0.3400  0.9850
  720MOL0     C97131   4.557   2.920  10.007 -0.2391 -0.4485  1.2992
  720MOL0     C97132   4.424   2.846   9.985  1.5613  0.7503 -0.5522
  720MOL0     H97133   4.082   3.108  10.097 -3.8134  1.4720  0.9147
  720MOL0     H97134   3.915   3.254  10.083 -0.6508  0.2333  0.2512
  720MOL0     H97135   3.921   3.482   9.771  1.3120  0.3612  0.6951
  720MOL0     H97136   3.768   3.477   9.851 -2.1566  1.5818  0.8400
  720MOL0     H97137   3.826   3.689   9.729 -0.7155  0.9387  0.1858
  720MOL0     H97138   3.977   3.698   9.815 -0.0047 -3.5134  1.4565
  720MOL0     H97139   3.828   3.867   9.869 -1.6021 -0.8399 -3.7389
  720MOL0     H97140   3.840   3.764  10.021  1.5083  0.4189 -0.5232
  720MOL0     H97141   3.624   3.642   9.888 -1.7605  0.6068 -1.8622
  720MOL0     H97142   3.623   3.758  10.022  1.1895 -1.8387  0.0681
  720MOL0     H97143   3.637   3.943   9.815 -1.9524  0.0615  0.2549
  720MOL0     H97144   3.593   3.800   9.716  2.9748  0.3503 -0.4526
  720MOL0     H97145   3.387   3.778   9.875  2.1067 -1.5539 -1.2963
  720MOL0     H97146   3.447   3.932   9.953 -1.5908 -0.7989  0.9569
  720MOL0     H97147   3.264   3.967   9.769  0.4893  0.9056  2.1103
  720MOL0     H97148   3.399   3.933   9.663 -1.1619  1.1994 -1.2824
  720MOL0     H97149   3.379   4.146   9.892  0.1648  0.5870  1.6823
  720MOL0     H97150   3.508   4.136   9.766 -1.4912 -0.2221  0.0606
  720MOL0     H97151   3.350   4.115   9.503  1.5242  0.6623  0.8769
  720MOL0     H97152   3.144   4.385   9.362 -1.2405  1.2454  2.5473
  720MOL0     H97153   3.188   4.211   9.337  0.3354 -0.1256 -0.7692
  720MOL0     H97154   2.958   4.307   9.520 -1.7464  1.5118 -1.4286
  720MOL0     H97155   2.919   4.274   9.356 -1.9742 -0.0533  1.9854
  720MOL0     H97156   3.060   4.045   9.490 -0.6388  0.6139 -0.3963
  720MOL0     H97157   2.941   4.048   9.359  2.5340 -1.8202 -0.9777
  720MOL0     H97158   2.764   4.132   9.507  1.6650  2.9581 -0.5695
  720MOL0     H97159   2.890   4.129   9.644  1.1983 -0.2647 -1.2430
  720MOL0     H97160   2.792   3.704   9.566  0.7602 -0.6844 -0.9356
  720MOL0     H97161   2.920   3.527   9.695 -1.6009 -0.2821 -0.4965
  720MOL0     H97162   3.250   3.310   9.911 -4.1674  2.0039  0.8017
  720MOL0     H97163   3.347   3.177  10.103  1.4193 -0.7863 -1.6243
  720MOL0     H97164   3.551   3.396  10.431  2.1163  0.4780  1.2571
  720MOL0     H97165   3.421   3.295  10.512  0.7822  0.1956  0.2881
  720MOL0     H97166   3.635   3.226  10.591  2.2954  0.1102 -0.3913
  720MOL0     H97167   3.565   3.098  10.490  0.1107  1.5492  0.0895
  720MOL0     H97168   3.709   3.126  10.315 -0.7567  1.1741 -1.5471
  720MOL0     H97169   3.730   3.293  10.350 -2.1904 -0.3406 -0.6533
  720MOL0     H97170   3.829   3.106  10.568  2.1828  1.9506  0.5106
  720MOL0     H97171   3.867   3.264  10.538  0.4759 -1.1199  1.6362
  720MOL0     H97172   3.960   3.201  10.306  0.0660  2.0673  1.1235
  720MOL0     H97173   3.927   3.024  10.359 -2.5317  0.2224  0.9460
  720MOL0     H97174   4.077   3.070  10.551  2.1241 -0.5943 -0.1126
  720MOL0     H97175   4.160   3.068  10.397 -1.1606  0.9358 -0.3382
  720MOL0     H97176   4.106   3.339  10.421 -0.0913 -1.8961 -2.2560
  720MOL0     H97177   4.258   3.257  10.471 -0.7658  1.4085  1.0958
  720MOL0     H97178   4.144   3.404  10.658 -0.5761 -1.0881  5.3908
  720MOL0     H97179   4.034   3.270  10.677  0.6877 -2.7610 -0.8125
  720MOL0     H97180   3.420   3.532  10.328 -0.9290  1.8120 -1.0369
  720MOL0     H97181   3.339   3.662  10.147 -2.8056 -0.5732  2.0711
  720MOL0     H97182   3.137   3.839   9.886 -0.7276  2.6228 -1.3149
  720MOL0     H97183   3.024   4.006   9.744 -1.8172  1.2565 -1.9705
  720MOL0     H97184   4.177   3.532   9.868 -1.5731 -0.1536 -1.0308
  720MOL0     H97185   4.365   3.359   9.887  0.7604 -2.1702 -0.9286
  720MOL0     H97186   4.711   3.203  10.087 -1.2466 -1.6785  1.6823
  720MOL0     H97187   4.925   3.062  10.045  1.3322  0.4906 -2.6419
  720MOL0     H97188   5.067   2.897  10.028 -2.5922  0.8618  0.1934
  720MOL0     H97189   5.033   2.954   9.870  3.5067  1.2152  1.0389
  720MOL0     H97190   5.191   2.790   9.795  0.5705  1.1660  1.3951
  720MOL0     H97191   5.053   2.683   9.826 -2.7565  1.8559 -0.4011
  720MOL0     H97192   5.120   2.640  10.059  0.9929  1.2744  1.7537
  720MOL0     H97193   5.227   2.769  10.042  0.6904 -0.6088  0.8582
  720MOL0     H97194   5.372   2.643   9.887 -0.7428 -0.7928 -2.4467
  720MOL0     H97195   5.356   2.527  10.024  1.2028  0.7800  0.0765
  720MOL0     H97196   5.122   2.335   9.730  0.4759  1.6030 -2.3231
  720MOL0     H97197   4.665   2.741   9.963  2.5790 -0.2451 -0.7437
  720MOL0     H97198   4.389   2.884   9.889  1.8102  2.3205 -0.0597
  720MOL0     H97199   4.446   2.742   9.961 -0.1444  1.0047 -3.8275
  720MOL0     H97200   4.350   2.856  10.066  1.6764 -3.4482  0.2903
  721MOL0     O97201   2.553   3.241   8.322 -0.2049 -0.9614  0.2036
  721MOL0     C97202   2.502   3.129   8.316 -0.5688  0.2785  0.5969
  721MOL0     O97203   2.566   3.010   8.335 -0.0177 -0.0072  0.0885
  721MOL0     C97204   2.698   3.002   8.355  0.0590  0.4130 -0.6417
  721MOL0     C97205   2.748   2.953   8.479 -0.3790  0.4278  0.2394
  721MOL0     C97206   2.884   2.959   8.506  0.2026  0.0926  0.3381
  721MOL0     C97207   2.980   3.019   8.413  0.5675  0.3726 -0.1715
  721MOL0     O97208   3.108   3.027   8.432 -0.7818  0.6828  0.4053
  721MOL0     C97209   3.157   2.974   8.553 -0.2188  0.0527 -0.3962
  721MOL0     C97210   3.308   3.001   8.567 -0.3228  0.4705  0.5315
  721MOL0     C97211   3.370   2.928   8.684  0.0852  0.6355  0.4040
  721MOL0     C97212   3.385   2.773   8.659  1.1325 -1.0553  0.5831
  721MOL0     C97213   3.529   2.730   8.683  0.7918 -0.4088  0.1564
  721MOL0     C97214   3.626   2.798   8.589 -0.0598  0.9607 -0.6163
  721MOL0     C97215   3.752   2.705   8.597 -0.4696  0.2734  0.1778
  721MOL0     C97216   3.871   2.750   8.520 -0.1752 -0.4666  0.2297
  721MOL0     N97217   3.979   2.808   8.598  0.4377  0.8313  0.5583
  721MOL0     C97218   3.977   2.935   8.662 -0.1694  0.7059  1.6687
  721MOL0     C97219   4.103   2.947   8.710 -0.0971 -1.1748 -0.3937
  721MOL0     C97220   4.153   3.061   8.802 -0.6870 -0.2203  0.3061
  721MOL0     C97221   4.305   3.052   8.803 -0.9107 -0.0801 -0.0529
  721MOL0     C97222   4.367   3.160   8.886 -0.8947  0.8489  0.9506
  721MOL0     C97223   4.334   3.163   9.040  1.1935  0.8874 -0.1155
  721MOL0     O97224   4.378   3.290   9.080  0.7172 -0.6167 -0.1808
  721MOL0     C97225   4.321   3.411   9.051  0.4616 -0.6340  0.4067
  721MOL0     C97226   4.381   3.528   9.089 -0.1271 -0.4826 -0.0118
  721MOL0     C97227   4.327   3.648   9.046 -0.4835 -0.0111 -0.2341
  721MOL0     C97228   4.211   3.657   8.970 -0.6277 -0.0745 -0.5899
  721MOL0     C97229   4.160   3.791   8.926  0.4252  0.9398 -0.1096
  721MOL0     O97230   4.262   3.872   8.897 -0.1604  0.0477  0.6700
  721MOL0     C97231   4.231   4.006   8.873  0.5194  0.3517  1.0420
  721MOL0     C97232   4.223   4.095   8.974  0.9156  0.1882 -0.1293
  721MOL0     C97233   4.197   4.234   8.951  0.0576  0.0649 -0.1748
  721MOL0     C97234   4.141   4.274   8.827 -0.4980 -0.1518 -0.9990
  721MOL0     O97235   4.074   4.388   8.838 -0.7132  0.1180 -0.1650
  721MOL0     C97236   4.073   4.467   8.717  0.0309  0.3131 -0.8393
  721MOL0     C97237   4.059   4.611   8.775 -1.3028 -0.6697  0.0487
  721MOL0     C97238   4.198   4.687   8.783 -1.0348  0.5882  0.1362
  721MOL0     C97239   4.291   4.617   8.876 -0.2971  0.4312 -0.4025
  721MOL0     C97240   4.414   4.705   8.908  0.6813 -0.2846  0.6418
  721MOL0     C97241   4.499   4.739   8.776  0.5886  0.3418 -0.4425
  721MOL0     C97242   4.627   4.819   8.805 -1.0014  0.3744 -0.6503
  721MOL0     C97243   4.728   4.797   8.692  0.4099  0.0142 -0.2819
  721MOL0    Cl97244   4.807   4.630   8.699  0.6300 -0.1411 -0.2567
  721MOL0     C97245   4.133   4.181   8.724  0.8094  0.4195 -0.5290
  721MOL0     C97246   4.188   4.046   8.744  0.3890 -0.3516  1.3435
  721MOL0     O97247   4.038   3.812   8.917  0.3048  0.5969  0.8274
  721MOL0     C97248   4.147   3.532   8.942 -0.6455 -0.9853 -0.1293
  721MOL0     C97249   4.200   3.410   8.983 -0.4016 -0.9105  0.0469
  721MOL0     N97250   4.171   2.835   8.685 -1.1602  0.6259  0.3805
  721MOL0     N97251   4.100   2.752   8.619  0.0032  0.6437 -0.4153
  721MOL0     C97252   2.933   3.060   8.291 -0.0218  0.8733  0.2353
  721MOL0     C97253   2.793   3.055   8.261 -0.3694  0.5130  0.3230
  721MOL0     C97254   2.358   3.125   8.301 -0.1255 -0.4038 -0.2389
  721MOL0     C97255   2.306   3.042   8.203  0.9947  0.4446  0.5090
  721MOL0     C97256   2.163   3.022   8.168  0.2939  0.0486 -1.0045
  721MOL0     C97257   2.075   3.100   8.229 -0.0460 -0.1099 -0.1228
  721MOL0     O97258   1.942   3.086   8.199 -0.2848 -0.0563  0.7360
  721MOL0     C97259   1.860   3.207   8.166 -0.1116  0.2584  0.1508
  721MOL0     C97260   1.832   3.201   8.019 -0.1295 -0.6071 -0.7678
  721MOL0     C97261   1.962   3.214   7.928  0.8298  0.0821  0.1349
  721MOL0     C97262   1.918   3.202   7.784 -0.3788  0.4446  0.0356
  721MOL0     C97263   2.034   3.219   7.704 -0.0468 -0.0940 -0.4068
  721MOL0     C97264   2.142   3.232   7.652  0.2579 -0.5765  0.6436
  721MOL0     C97265   2.128   3.192   8.327  0.5823  0.0073  0.1008
  721MOL0     C97266   2.258   3.204   8.365 -0.2288  0.0601  0.2907
  721MOL0     C97267   2.282   3.329   8.457 -0.1628  0.0283 -0.8038
  721MOL0     H97268   2.681   2.908   8.551  3.1715 -0.5089  3.2504
  721MOL0     H97269   2.896   2.927   8.609 -0.5769  2.8867  1.3774
  721MOL0     H97270   3.096   3.015   8.634  0.4726  1.6445 -0.6590
  721MOL0     H97271   3.146   2.865   8.565  0.3052  0.1321  0.9999
  721MOL0     H97272   3.325   3.107   8.546  0.6271 -0.2651 -3.1043
  721MOL0     H97273   3.358   2.963   8.477 -3.7871  0.2058 -1.4639
  721MOL0     H97274   3.333   2.945   8.786  0.8259  1.4549  0.5444
  721MOL0     H97275   3.467   2.979   8.689  0.4127  0.4208 -2.3774
  721MOL0     H97276   3.319   2.719   8.729 -2.3943 -1.1900 -2.5342
  721MOL0     H97277   3.363   2.738   8.558  2.0314  0.2625 -0.0868
  721MOL0     H97278   3.552   2.753   8.788 -2.8136 -0.3370  1.0586
  721MOL0     H97279   3.530   2.622   8.664  0.1070 -0.5751  0.9991
  721MOL0     H97280   3.600   2.802   8.483  0.4115 -2.0701 -0.9297
  721MOL0     H97281   3.651   2.899   8.623  2.2494 -0.4105  2.1994
  721MOL0     H97282   3.722   2.612   8.548 -3.4424  1.7700 -1.1283
  721MOL0     H97283   3.774   2.667   8.697  2.1895 -2.6283 -1.3287
  721MOL0     H97284   3.911   2.658   8.477  0.7199  0.2825 -0.6001
  721MOL0     H97285   3.842   2.809   8.432  1.2587 -1.3272 -0.8766
  721MOL0     H97286   3.902   3.012   8.647  1.8340  2.5418  0.5116
  721MOL0     H97287   4.127   3.160   8.764 -0.1317 -0.0377  0.3964
  721MOL0     H97288   4.110   3.043   8.901  1.3480 -4.1969  0.6741
  721MOL0     H97289   4.334   2.955   8.845  0.7132  0.7852  0.8879
  721MOL0     H97290   4.338   3.055   8.699 -2.1099 -0.3689 -0.4647
  721MOL0     H97291   4.335   3.256   8.845 -1.4954 -0.4000 -1.7113
  721MOL0     H97292   4.476   3.164   8.875 -0.6193  0.4074  3.0844
  721MOL0     H97293   4.391   3.077   9.075  1.9824  0.4892 -2.2338
  721MOL0     H97294   4.230   3.158   9.074  1.6341  1.6273  1.4740
  721MOL0     H97295   4.469   3.517   9.151 -0.7956 -0.3746  0.9887
  721MOL0     H97296   4.395   3.728   9.075  2.4313 -2.3102 -0.2350
  721MOL0     H97297   4.251   4.058   9.072 -1.8998 -1.7861  0.0668
  721MOL0     H97298   4.190   4.300   9.037  2.1987  1.5706 -1.0740
  721MOL0     H97299   4.162   4.438   8.661 -0.4164 -1.8394 -0.5345
  721MOL0     H97300   3.986   4.447   8.653 -0.0736 -2.1638 -0.0351
  721MOL0     H97301   4.007   4.674   8.702  0.2780  3.2115  2.0030
  721MOL0     H97302   4.011   4.609   8.873  0.1872 -1.4252  0.7921
  721MOL0     H97303   4.241   4.687   8.682 -3.9631  1.6987 -1.2392
  721MOL0     H97304   4.181   4.792   8.809  2.3649  1.2589  0.0533
  721MOL0     H97305   4.329   4.524   8.834  0.9901  1.6962 -2.1955
  721MOL0     H97306   4.232   4.595   8.965  1.1916 -2.6598 -0.0607
  721MOL0     H97307   4.483   4.664   8.983 -0.4166  0.5200  2.1542
  721MOL0     H97308   4.389   4.807   8.938  4.1968  0.8152  0.3505
  721MOL0     H97309   4.516   4.647   8.720  1.2013 -0.0096  0.2975
  721MOL0     H97310   4.436   4.796   8.707 -0.2874  2.5100  2.0152
  721MOL0     H97311   4.683   4.797   8.896 -2.2855 -0.2382  0.0229
  721MOL0     H97312   4.600   4.924   8.812 -0.8347  0.4889 -1.5283
  721MOL0     H97313   4.681   4.809   8.594 -0.5442  1.1209  0.2870
  721MOL0     H97314   4.801   4.878   8.698  0.4930 -0.1194  0.5230
  721MOL0     H97315   4.082   4.201   8.631  0.1003 -2.7627 -0.9671
  721MOL0     H97316   4.200   3.974   8.663  1.9977  3.4469 -2.1463
  721MOL0     H97317   4.049   3.541   8.896 -2.5880  0.8689  3.8808
  721MOL0     H97318   4.137   3.325   8.958 -3.1450  1.2349 -0.8294
  721MOL0     H97319   3.010   3.101   8.227  3.7563 -3.4005  1.5073
  721MOL0     H97320   2.757   3.080   8.162 -3.0661 -0.9565  0.8309
  721MOL0     H97321   2.374   2.988   8.138  0.0371 -1.4805  1.0163
  721MOL0     H97322   2.140   2.942   8.098  1.4158 -1.5329  0.3750
  721MOL0     H97323   1.923   3.294   8.185 -0.5639  0.0978  2.7700
  721MOL0     H97324   1.775   3.224   8.233  1.7667  1.4738  2.3597
  721MOL0     H97325   1.768   3.287   7.998  1.9288  1.3769  0.5828
  721MOL0     H97326   1.793   3.102   7.992 -0.5031 -0.2126 -1.7250
  721MOL0     H97327   2.024   3.131   7.963  3.5701  2.7408  2.0654
  721MOL0     H97328   2.005   3.312   7.952  0.4654 -0.1054  1.6956
  721MOL0     H97329   1.859   3.114   7.756 -0.2678  0.9593 -1.9425
  721MOL0     H97330   1.859   3.292   7.765 -2.6413 -1.5492 -3.8076
  721MOL0     H97331   2.238   3.253   7.609 -1.4166 -1.8078 -4.4222
  721MOL0     H97332   2.045   3.241   8.377  0.4252  0.2733 -0.4129
  721MOL0     H97333   2.215   3.412   8.431 -0.3034  0.1793  0.0120
  721MOL0     H97334   2.276   3.310   8.565  0.5024  3.2639 -0.0842
  721MOL0     H97335   2.379   3.374   8.435  0.4784  0.3803  2.3100
  722MOL0     O97336   2.792   3.044   8.931 -0.2938  0.0781 -0.0237
  722MOL0     C97337   2.805   2.928   8.968 -0.1720  1.6618  0.0235
  722MOL0     O97338   2.705   2.838   8.979  0.5066  0.2292  0.5698
  722MOL0     C97339   2.585   2.849   8.917 -0.1343 -0.8298 -0.4965
  722MOL0     C97340   2.555   2.938   8.809 -0.6376 -0.3778  0.4072
  722MOL0     C97341   2.437   2.922   8.742  0.6337  0.1857  0.9803
  722MOL0     C97342   2.342   2.820   8.757  0.0684  0.0044  0.3984
  722MOL0     O97343   2.233   2.802   8.678 -0.1003  0.2930 -0.6586
  722MOL0     C97344   2.199   2.904   8.593  0.4600 -0.9223 -0.1374
  722MOL0     C97345   2.047   2.895   8.555  0.7929  0.0299 -0.6159
  722MOL0     C97346   2.007   2.749   8.511 -0.5387 -0.0200 -0.3256
  722MOL0     C97347   2.014   2.736   8.357  0.5834  0.0261  0.5029
  722MOL0     C97348   1.893   2.769   8.266 -0.5153  0.1561 -0.5290
  722MOL0     C97349   1.914   2.756   8.117  0.1540 -0.0998 -0.0388
  722MOL0     C97350   1.773   2.774   8.046 -0.8814  0.3593  0.3745
  722MOL0     C97351   1.781   2.792   7.890 -0.5676 -0.6498 -0.2973
  722MOL0     N97352   1.649   2.824   7.829  0.5556 -0.1894 -0.6301
  722MOL0     C97353   1.613   2.785   7.713  0.3667 -0.3094  0.0545
  722MOL0     C97354   1.515   2.867   7.673  0.3911 -0.2311 -0.2880
  722MOL0     C97355   1.428   2.860   7.551  0.5372  0.7516 -0.6563
  722MOL0     C97356   1.277   2.900   7.587 -0.0666  0.5965  0.0244
  722MOL0     C97357   1.203   2.943   7.463  0.4759 -0.3294  0.7144
  722MOL0     C97358   1.056   2.949   7.488 -0.0055  0.8669  0.0582
  722MOL0     O97359   0.971   2.950   7.373  0.4513 -0.6735 -0.3540
  722MOL0     C97360   0.849   3.013   7.392  0.0598  0.0405 -0.5784
  722MOL0     C97361   0.795   3.050   7.521 -0.1784 -0.6279 -0.5587
  722MOL0     C97362   0.666   3.099   7.530 -0.4238 -0.4757  0.2944
  722MOL0     C97363   0.580   3.098   7.426 -0.1375 -0.4912 -0.4207
  722MOL0     C97364   0.432   3.121   7.442  0.3926  0.3040 -0.2539
  722MOL0     O97365   0.356   3.099   7.330  0.5072 -0.3570 -0.5739
  722MOL0     C97366   0.217   3.135   7.317  1.4132 -0.3073 -0.2716
  722MOL0     C97367   0.158   3.255   7.360  0.6518 -0.4700 -0.7193
  722MOL0     C97368   0.025   3.286   7.322  0.0132 -0.5017 -0.0990
  722MOL0     C97369  -0.045   3.209   7.225  0.0986  0.1867  0.3100
  722MOL0     O97370  -0.166   3.247   7.179 -0.5938 -0.1482 -0.1348
  722MOL0     C97371  -0.227   3.366   7.230 -0.8151  0.6227  0.0090
  722MOL0     C97372  -0.355   3.394   7.161 -0.1258  0.5367 -0.0056
  722MOL0     C97373  -0.407   3.540   7.168 -0.3965  0.1512 -1.4071
  722MOL0     C97374  -0.487   3.563   7.304 -0.4088 -0.9712  0.6503
  722MOL0     C97375  -0.625   3.503   7.311  0.4030 -0.6003  0.1337
  722MOL0     C97376  -0.736   3.587   7.236 -0.2488  0.5805 -0.0423
  722MOL0     C97377  -0.842   3.480   7.195  0.1390 -0.1100  0.7384
  722MOL0     C97378  -0.819   3.423   7.057 -0.0789 -0.8393  0.6096
  722MOL0    Cl97379  -0.876   3.550   6.926  0.0980  0.0108  0.0040
  722MOL0     C97380   0.016   3.097   7.179 -0.0403  0.1361  0.7429
  722MOL0     C97381   0.154   3.065   7.210 -0.1007  0.2737  0.3055
  722MOL0     O97382   0.383   3.164   7.550  1.2784 -0.8060  0.3110
  722MOL0     C97383   0.631   3.056   7.301 -0.4034 -0.2315 -0.1539
  722MOL0     C97384   0.763   3.024   7.286  1.0985  0.1255  0.1082
  722MOL0     N97385   1.493   2.962   7.774 -0.5585 -0.1488  0.1399
  722MOL0     N97386   1.577   2.934   7.867  0.4926  0.7701 -0.0468
  722MOL0     C97387   2.378   2.720   8.856  0.1366 -0.7545  0.5024
  722MOL0     C97388   2.493   2.737   8.932 -0.5989 -0.1732 -0.0744
  722MOL0     C97389   2.944   2.868   8.987  0.2119 -1.5006  0.0609
  722MOL0     C97390   2.955   2.734   9.025  0.1402 -0.0869 -0.4999
  722MOL0     C97391   3.071   2.671   9.040 -0.5389 -0.2843  0.1735
  722MOL0     C97392   3.186   2.733   9.037 -0.9725  1.4117 -0.7565
  722MOL0     O97393   3.302   2.662   9.034 -0.3673 -0.0759  0.1624
  722MOL0     C97394   3.349   2.630   9.164  1.3731  0.0597  0.2886
  722MOL0     C97395   3.461   2.532   9.146 -0.2903 -0.5418  0.5395
  722MOL0     C97396   3.575   2.583   9.062  0.2175 -0.0425  0.1280
  722MOL0     C97397   3.723   2.530   9.083  0.1576  0.4014  0.0456
  722MOL0     C97398   3.818   2.603   9.006 -0.2831  0.4960 -0.0208
  722MOL0     C97399   3.905   2.662   8.946 -0.3006  0.2243 -0.6200
  722MOL0     C97400   3.189   2.877   9.005 -0.5884 -0.0405 -0.3740
  722MOL0     C97401   3.065   2.943   8.973 -0.0909 -0.6589 -0.6485
  722MOL0     C97402   3.078   3.084   8.917  0.2613 -0.4132  0.6036
  722MOL0     H97403   2.616   3.024   8.783  2.5174 -1.9453  1.9428
  722MOL0     H97404   2.436   3.006   8.674  2.5868  0.8845  1.7518
  722MOL0     H97405   2.224   3.007   8.622 -3.2284  1.1227 -3.2300
  722MOL0     H97406   2.256   2.894   8.500  1.0764 -1.8435  0.3339
  722MOL0     H97407   2.031   2.958   8.467 -0.9910 -1.6265 -1.5793
  722MOL0     H97408   1.980   2.933   8.632  1.8998  1.3347 -0.2676
  722MOL0     H97409   1.904   2.731   8.544 -0.2449  0.4583  0.8843
  722MOL0     H97410   2.069   2.670   8.554 -0.0644  0.8632  0.6346
  722MOL0     H97411   2.110   2.767   8.314  1.3886 -3.4666 -0.6174
  722MOL0     H97412   2.019   2.628   8.339  1.5515  0.2724 -0.9165
  722MOL0     H97413   1.797   2.725   8.297  0.3310 -4.2568 -3.3733
  722MOL0     H97414   1.876   2.874   8.290 -0.9036 -0.0366  0.0585
  722MOL0     H97415   1.994   2.825   8.088  3.1271 -2.2713  2.3548
  722MOL0     H97416   1.948   2.657   8.082 -3.4792 -1.1569 -1.0269
  722MOL0     H97417   1.720   2.860   8.088  0.3397  0.8452  1.0039
  722MOL0     H97418   1.721   2.681   8.072 -3.5208  1.1029 -1.8559
  722MOL0     H97419   1.854   2.871   7.874  0.5003 -1.5150  0.1515
  722MOL0     H97420   1.824   2.707   7.835 -1.6315 -0.9710 -0.6714
  722MOL0     H97421   1.655   2.706   7.651 -0.1239 -0.0063 -0.6704
  722MOL0     H97422   1.456   2.933   7.475  0.6137  0.5023 -0.8681
  722MOL0     H97423   1.433   2.770   7.488 -3.5486  1.3990 -2.1901
  722MOL0     H97424   1.225   2.815   7.632  1.4166  0.3256  1.2925
  722MOL0     H97425   1.273   2.990   7.649  0.2119  3.4858 -3.7683
  722MOL0     H97426   1.216   2.865   7.388 -0.1042 -0.2487  0.5229
  722MOL0     H97427   1.237   3.042   7.429  2.6778 -1.5957 -1.0175
  722MOL0     H97428   1.043   3.037   7.552  3.1215  0.5402  1.3247
  722MOL0     H97429   1.032   2.855   7.537 -1.0317 -0.3490 -2.5920
  722MOL0     H97430   0.837   3.027   7.618  0.2945 -1.6595 -0.9860
  722MOL0     H97431   0.623   3.119   7.628  1.7430  0.7400  1.0756
  722MOL0     H97432   0.223   3.317   7.420  3.2147 -2.3185 -1.3818
  722MOL0     H97433  -0.016   3.380   7.357 -0.2019 -0.5371 -0.2535
  722MOL0     H97434  -0.238   3.340   7.335 -0.1065 -3.2599 -0.7297
  722MOL0     H97435  -0.158   3.451   7.222 -0.7100  0.5120 -0.2693
  722MOL0     H97436  -0.337   3.379   7.054  3.5750  1.8035  0.3001
  722MOL0     H97437  -0.430   3.320   7.189 -2.6132  3.1101  0.6460
  722MOL0     H97438  -0.322   3.610   7.168  0.4035 -0.4849  3.1215
  722MOL0     H97439  -0.477   3.554   7.086 -0.0867  0.9408 -1.5462
  722MOL0     H97440  -0.491   3.672   7.309 -2.2356 -0.9146 -0.9877
  722MOL0     H97441  -0.428   3.514   7.382  1.1860 -1.8591 -1.0126
  722MOL0     H97442  -0.652   3.508   7.417  1.3337  0.0957  0.3544
  722MOL0     H97443  -0.626   3.403   7.268 -0.7317 -1.6151  2.3842
  722MOL0     H97444  -0.783   3.655   7.308  1.4663  2.1887 -0.3738
  722MOL0     H97445  -0.699   3.646   7.152 -1.9482  0.1630 -1.1269
  722MOL0     H97446  -0.941   3.526   7.203 -0.5998 -1.2406 -1.0983
  722MOL0     H97447  -0.839   3.387   7.254  3.0981 -0.3731  0.2938
  722MOL0     H97448  -0.715   3.392   7.041 -0.9003 -3.4274 -0.1926
  722MOL0     H97449  -0.875   3.329   7.060  1.5869 -1.9370 -0.7230
  722MOL0     H97450  -0.031   3.042   7.099  1.7529  0.6694 -0.7504
  722MOL0     H97451   0.211   2.989   7.157 -3.2229 -1.0241 -1.4547
  722MOL0     H97452   0.565   3.039   7.216  1.9834  1.2990 -2.4565
  722MOL0     H97453   0.807   3.002   7.190 -2.1719 -0.1410 -1.4613
  722MOL0     H97454   2.323   2.627   8.863  0.5996 -0.9966  1.1174
  722MOL0     H97455   2.524   2.659   9.000 -0.0278  2.2969  2.6773
  722MOL0     H97456   2.875   2.661   9.026 -0.5615  0.4937 -3.6172
  722MOL0     H97457   3.073   2.567   9.069 -1.4402 -1.3312 -3.0983
  722MOL0     H97458   3.268   2.593   9.228 -0.7874  1.0199 -1.7140
  722MOL0     H97459   3.371   2.726   9.213  0.0064  1.6373 -1.9574
  722MOL0     H97460   3.418   2.450   9.089  0.9326  1.9559 -4.5586
  722MOL0     H97461   3.493   2.495   9.244  2.3601 -2.3680 -0.9268
  722MOL0     H97462   3.594   2.690   9.077 -0.0483  0.1607 -0.8600
  722MOL0     H97463   3.542   2.558   8.960 -2.8756 -1.3182  1.3035
  722MOL0     H97464   3.760   2.518   9.186 -0.3835  2.1917  0.4907
  722MOL0     H97465   3.719   2.430   9.040 -0.4494  0.1788  0.6118
  722MOL0     H97466   3.979   2.712   8.886 -0.8805  0.0962 -1.4761
  722MOL0     H97467   3.285   2.925   8.987 -0.0229  0.4375  3.1896
  722MOL0     H97468   3.011   3.101   8.833  0.7035 -0.7980  0.1715
  722MOL0     H97469   3.060   3.164   8.990  2.2654  1.3965 -0.7548
  722MOL0     H97470   3.179   3.090   8.876 -0.2183 -4.3624 -1.5982
  723MOL0     O97471   9.231   5.480   0.676  0.0215  0.8028 -0.4565
  723MOL0     C97472   9.327   5.426   0.614 -0.4212  0.4565 -0.0878
  723MOL0     O97473   9.380   5.300   0.645 -0.9637  0.8143  0.8022
  723MOL0     C97474   9.319   5.229   0.739  0.1439  0.0573  0.8116
  723MOL0     C97475   9.187   5.176   0.726  0.1020 -1.0456 -0.5266
  723MOL0     C97476   9.126   5.085   0.809  0.0808 -0.7005 -0.2579
  723MOL0     C97477   9.196   5.049   0.931  1.2017  0.3845  1.1037
  723MOL0     O97478   9.144   4.959   1.014 -0.1158  1.0393  0.1443
  723MOL0     C97479   9.036   5.007   1.085  0.5781 -0.8253 -0.3830
  723MOL0     C97480   8.975   4.889   1.168  0.3422 -0.0154  0.6839
  723MOL0     C97481   8.844   4.918   1.244  0.0901  0.6023 -0.2316
  723MOL0     C97482   8.852   5.000   1.365 -0.2470  0.1729  0.3867
  723MOL0     C97483   8.819   5.150   1.334  0.5005 -0.0692  0.2815
  723MOL0     C97484   8.890   5.248   1.425  0.4466 -0.4986 -0.3082
  723MOL0     C97485   8.872   5.239   1.584  0.3668 -0.1305  0.3203
  723MOL0     C97486   8.732   5.296   1.628  0.1501  0.4444  0.2979
  723MOL0     N97487   8.709   5.444   1.641 -0.2973 -0.0515 -0.8537
  723MOL0     C97488   8.673   5.512   1.757 -0.4425 -0.3556 -0.1400
  723MOL0     C97489   8.657   5.643   1.715 -0.5468  0.1258 -0.5677
  723MOL0     C97490   8.593   5.751   1.807 -0.8236 -0.6813  0.0417
  723MOL0     C97491   8.674   5.883   1.822  0.3958  0.1680  0.6950
  723MOL0     C97492   8.652   5.959   1.695 -0.1379 -0.9915  0.1514
  723MOL0     C97493   8.721   6.095   1.709  0.2970 -0.2723 -0.4255
  723MOL0     O97494   8.661   6.184   1.809 -0.3420  0.7811 -0.2805
  723MOL0     C97495   8.686   6.320   1.798  0.2905  0.7050  0.2372
  723MOL0     C97496   8.604   6.401   1.874  0.1348  1.3564  0.3603
  723MOL0     C97497   8.623   6.541   1.879  0.4387  1.1863  0.0576
  723MOL0     C97498   8.737   6.595   1.821 -0.3387 -0.5830 -1.4467
  723MOL0     C97499   8.771   6.745   1.818 -1.0634  0.1093 -0.6031
  723MOL0     O97500   8.719   6.815   1.916 -0.6268 -0.0245 -0.4072
  723MOL0     C97501   8.709   6.944   1.896  0.6640 -1.0466  0.4571
  723MOL0     C97502   8.594   6.987   1.825  0.6154 -0.0605 -0.0103
  723MOL0     C97503   8.567   7.122   1.800 -1.0823  0.0781 -0.4011
  723MOL0     C97504   8.656   7.219   1.849 -0.1250  0.8111  0.1811
  723MOL0     O97505   8.622   7.346   1.834 -0.3144 -0.1884  0.3866
  723MOL0     C97506   8.693   7.445   1.924 -0.0374  0.6517  0.5821
  723MOL0     C97507   8.621   7.588   1.932 -1.4666  0.0296 -0.9324
  723MOL0     C97508   8.474   7.593   1.958  0.7032  0.4137 -0.4407
  723MOL0     C97509   8.438   7.555   2.109 -0.2185  0.5876  0.9341
  723MOL0     C97510   8.288   7.592   2.128 -0.2142  0.3163 -0.8845
  723MOL0     C97511   8.249   7.562   2.277  0.6813 -0.1378  0.1855
  723MOL0     C97512   8.101   7.574   2.281  0.0713  0.7151  0.5915
  723MOL0     C97513   8.045   7.588   2.429 -0.5839  0.0734 -0.6292
  723MOL0    Cl97514   8.003   7.431   2.503  0.0522  0.1726  0.0950
  723MOL0     C97515   8.767   7.173   1.921 -0.7883  0.6317 -0.3588
  723MOL0     C97516   8.793   7.040   1.946  0.4584 -0.5589 -0.7169
  723MOL0     O97517   8.821   6.786   1.713  0.3788 -0.0996 -0.0137
  723MOL0     C97518   8.822   6.510   1.751 -0.3257 -0.1877 -0.1672
  723MOL0     C97519   8.800   6.375   1.729  0.1918  1.6729 -0.2978
  723MOL0     N97520   8.672   5.652   1.573  0.1876 -0.2682 -1.3024
  723MOL0     N97521   8.702   5.535   1.534 -0.5720 -0.5688 -0.0063
  723MOL0     C97522   9.320   5.111   0.954  0.4806  0.7180  0.1258
  723MOL0     C97523   9.377   5.199   0.862  0.5959  0.2981 -0.3647
  723MOL0     C97524   9.401   5.493   0.505  0.0923 -0.0817  0.4766
  723MOL0     C97525   9.514   5.425   0.458  0.3304 -0.7379  0.8356
  723MOL0     C97526   9.602   5.492   0.376  1.4251  0.7587  0.0318
  723MOL0     C97527   9.571   5.615   0.313  0.0175 -0.8113  0.2944
  723MOL0     O97528   9.659   5.659   0.216  0.5316  0.3978 -0.7750
  723MOL0     C97529   9.636   5.794   0.177  0.8090 -0.5904  0.3804
  723MOL0     C97530   9.739   5.866   0.099  0.0561  0.0744  0.4107
  723MOL0     C97531   9.864   5.881   0.186  1.1155  0.1016  0.0179
  723MOL0     C97532   9.964   5.978   0.137 -0.1973 -1.0533 -0.2625
  723MOL0     C97533  10.094   5.973   0.199 -0.6492 -1.1142 -0.2321
  723MOL0     C97534  10.198   5.985   0.263  1.1775 -0.1700  0.8142
  723MOL0     C97535   9.453   5.683   0.349 -0.4597  0.3558  1.1577
  723MOL0     C97536   9.366   5.632   0.453  0.4342  0.5669 -0.7472
  723MOL0     C97537   9.258   5.726   0.506 -0.1796 -0.3921  0.5462
  723MOL0     H97538   9.139   5.214   0.636  1.0783 -2.2684 -1.6077
  723MOL0     H97539   9.020   5.073   0.793  0.2904 -1.2613 -1.3262
  723MOL0     H97540   9.076   5.080   1.156 -2.3977  1.3221 -0.7186
  723MOL0     H97541   8.959   5.047   1.019  0.9889 -1.4314 -1.2560
  723MOL0     H97542   9.050   4.853   1.239 -2.6349 -4.1892  2.0473
  723MOL0     H97543   8.953   4.806   1.101  4.7369  1.7789 -3.6603
  723MOL0     H97544   8.797   4.820   1.256  0.5723  0.2490 -1.0800
  723MOL0     H97545   8.771   4.967   1.180 -1.8174 -1.1663  0.4711
  723MOL0     H97546   8.788   4.960   1.444  1.4105 -3.9255 -0.1274
  723MOL0     H97547   8.955   4.992   1.403 -0.0453 -2.0484 -0.5109
  723MOL0     H97548   8.844   5.185   1.233 -1.3759  1.4963  0.2942
  723MOL0     H97549   8.710   5.149   1.327  0.5217 -2.2027 -0.4992
  723MOL0     H97550   8.998   5.235   1.410  0.5966 -2.8038  1.9809
  723MOL0     H97551   8.866   5.352   1.401 -0.2916 -1.0640 -2.2089
  723MOL0     H97552   8.935   5.302   1.646 -2.6646  0.4824  3.0439
  723MOL0     H97553   8.878   5.133   1.612  1.7290  0.3076  1.7828
  723MOL0     H97554   8.656   5.277   1.552 -0.0917  0.5470  0.5118
  723MOL0     H97555   8.705   5.248   1.722 -0.9837  3.6466  1.7574
  723MOL0     H97556   8.639   5.476   1.853 -2.5171 -0.2388 -0.7666
  723MOL0     H97557   8.493   5.779   1.773 -0.2561  0.4361 -0.7438
  723MOL0     H97558   8.588   5.708   1.908  2.8410 -1.1796  0.1552
  723MOL0     H97559   8.640   5.947   1.904  3.3915  0.6662  1.6688
  723MOL0     H97560   8.779   5.867   1.848 -0.1793 -0.5976  2.7087
  723MOL0     H97561   8.548   5.971   1.663 -0.4895 -1.5775  1.0621
  723MOL0     H97562   8.714   5.911   1.619  1.0530  0.9107 -0.1569
  723MOL0     H97563   8.716   6.146   1.613  0.6881  0.0223 -0.2889
  723MOL0     H97564   8.824   6.080   1.743 -0.1989 -0.2284  1.1564
  723MOL0     H97565   8.523   6.351   1.926 -1.6559  0.7131 -2.7346
  723MOL0     H97566   8.556   6.599   1.941 -0.5056 -0.5898  0.7580
  723MOL0     H97567   8.528   6.910   1.787 -0.3788  1.4453 -1.5171
  723MOL0     H97568   8.475   7.137   1.744 -1.1937 -2.2663 -0.9543
  723MOL0     H97569   8.707   7.413   2.028 -1.4558  1.0103  0.9076
  723MOL0     H97570   8.793   7.455   1.881 -0.8528 -1.5947 -2.0813
  723MOL0     H97571   8.682   7.643   2.004 -0.6484 -1.1062 -0.7358
  723MOL0     H97572   8.643   7.646   1.841  3.1053  0.0163 -0.0703
  723MOL0     H97573   8.428   7.683   1.917  0.3802  0.2769 -0.3876
  723MOL0     H97574   8.428   7.516   1.895  2.9334 -0.5386 -1.0096
  723MOL0     H97575   8.503   7.618   2.170  2.5004  1.4471 -2.4985
  723MOL0     H97576   8.459   7.450   2.133 -0.1697 -0.0288 -1.5176
  723MOL0     H97577   8.228   7.519   2.073  0.0578 -1.7599  1.4322
  723MOL0     H97578   8.269   7.695   2.095 -1.6741  0.3836  0.0878
  723MOL0     H97579   8.279   7.462   2.311 -0.5995 -0.4377  0.4948
  723MOL0     H97580   8.305   7.635   2.336 -1.2333  0.0521  1.8679
  723MOL0     H97581   8.058   7.487   2.231  1.2314  1.6079 -2.1882
  723MOL0     H97582   8.064   7.663   2.228  1.2717  0.6234 -0.4539
  723MOL0     H97583   8.131   7.615   2.492 -0.6894  0.9938 -0.8688
  723MOL0     H97584   7.962   7.658   2.429 -1.5572 -1.0581 -0.6392
  723MOL0     H97585   8.839   7.241   1.964 -2.1763  2.7338 -1.1615
  723MOL0     H97586   8.880   7.006   2.000  1.6236  0.8389 -1.6100
  723MOL0     H97587   8.905   6.552   1.694  2.5096 -3.7473  1.0041
  723MOL0     H97588   8.868   6.309   1.676  1.9369  0.2241  3.3895
  723MOL0     H97589   9.380   5.093   1.043  1.0907  1.0323 -0.2145
  723MOL0     H97590   9.473   5.241   0.891 -1.2640  4.2131  0.7911
  723MOL0     H97591   9.545   5.327   0.494 -0.7823 -0.9039  1.3706
  723MOL0     H97592   9.687   5.435   0.339 -0.7284 -1.1091 -2.4007
  723MOL0     H97593   9.628   5.856   0.267  5.3981  1.5213 -0.3558
  723MOL0     H97594   9.539   5.810   0.127  2.1310  2.1014 -1.5994
  723MOL0     H97595   9.701   5.959   0.055  0.5824 -0.6118 -1.5752
  723MOL0     H97596   9.775   5.809   0.013  2.1663  0.5513  0.9155
  723MOL0     H97597   9.910   5.783   0.201  2.6506  0.3407 -2.5383
  723MOL0     H97598   9.831   5.933   0.277  0.1774  0.9279 -0.7705
  723MOL0     H97599   9.963   5.963   0.028 -0.4185 -0.2730 -0.3756
  723MOL0     H97600   9.930   6.081   0.153 -3.4850 -1.7987 -1.6654
  723MOL0     H97601  10.284   6.012   0.321  1.0884 -2.5755  2.1929
  723MOL0     H97602   9.423   5.779   0.306 -0.6221 -0.2295 -0.0720
  723MOL0     H97603   9.170   5.713   0.443  1.0862  0.9576 -1.6600
  723MOL0     H97604   9.227   5.705   0.608 -0.8642 -4.5923 -0.3425
  723MOL0     H97605   9.303   5.826   0.504  1.1649 -0.9490  1.5382
  724MOL0     O97606   3.692   9.306   2.322 -0.0569  0.6155  0.1322
  724MOL0     C97607   3.755   9.398   2.296  0.0143  0.3602  0.6547
  724MOL0     O97608   3.729   9.527   2.339  0.2356  0.0336  0.3943
  724MOL0     C97609   3.671   9.544   2.464 -0.2829 -0.0732 -0.1204
  724MOL0     C97610   3.736   9.506   2.578 -0.2020 -0.1688 -1.6324
  724MOL0     C97611   3.686   9.539   2.705  0.2147 -0.0170 -0.0631
  724MOL0     C97612   3.565   9.613   2.711  0.2054 -0.3739 -0.5364
  724MOL0     O97613   3.504   9.634   2.829 -0.4771  0.9457 -1.3439
  724MOL0     C97614   3.586   9.709   2.920  0.5721 -0.7255  1.0188
  724MOL0     C97615   3.610   9.654   3.057 -0.6984 -0.4880 -0.0194
  724MOL0     C97616   3.483   9.629   3.130  0.3113 -0.2955 -0.5038
  724MOL0     C97617   3.436   9.756   3.209 -0.1704  0.2664  0.1429
  724MOL0     C97618   3.317   9.728   3.301  0.3316 -0.3967 -0.2997
  724MOL0     C97619   3.182   9.749   3.228 -1.0337  0.2627 -0.4208
  724MOL0     C97620   3.067   9.732   3.333  0.0199 -0.2176 -0.4068
  724MOL0     C97621   2.922   9.775   3.293 -0.0505  1.3988 -0.5577
  724MOL0     N97622   2.832   9.737   3.406 -0.6207  0.6226  0.1471
  724MOL0     C97623   2.760   9.623   3.425  0.4932 -0.1639 -1.2696
  724MOL0     C97624   2.709   9.629   3.559 -0.3036 -0.8140 -0.0554
  724MOL0     C97625   2.630   9.508   3.618  0.4222 -0.0443  1.2004
  724MOL0     C97626   2.583   9.525   3.758  0.4444 -0.3725  0.0466
  724MOL0     C97627   2.675   9.472   3.860 -0.5229 -0.8230  0.3406
  724MOL0     C97628   2.616   9.428   3.995 -0.3826  0.3937  0.1358
  724MOL0     O97629   2.552   9.295   3.992 -0.0067  0.0701  0.6107
  724MOL0     C97630   2.598   9.189   3.929 -0.6025 -0.0556 -0.4003
  724MOL0     C97631   2.521   9.109   3.848  0.2439 -0.3555 -0.1099
  724MOL0     C97632   2.568   8.996   3.778  0.7239 -0.8051 -1.0321
  724MOL0     C97633   2.703   8.956   3.788 -0.5630  0.0711 -0.3260
  724MOL0     C97634   2.761   8.834   3.720  1.5745 -0.5484  0.1922
  724MOL0     O97635   2.899   8.829   3.700 -0.1842 -0.7928 -0.5263
  724MOL0     C97636   2.959   8.715   3.641  0.5827 -1.0062 -0.5127
  724MOL0     C97637   3.071   8.737   3.571  0.1816 -0.0259  0.0033
  724MOL0     C97638   3.141   8.636   3.504 -0.3055  0.0438 -0.9825
  724MOL0     C97639   3.103   8.501   3.528 -0.6573 -0.0467 -0.1574
  724MOL0     O97640   3.179   8.405   3.471  0.0148  0.7315 -0.2371
  724MOL0     C97641   3.308   8.383   3.518 -0.1021 -0.4045  0.0273
  724MOL0     C97642   3.373   8.253   3.472  0.2772 -1.2436 -0.5519
  724MOL0     C97643   3.389   8.270   3.322 -0.1248 -0.6376 -0.7729
  724MOL0     C97644   3.473   8.156   3.258 -0.7164  0.5149 -0.4034
  724MOL0     C97645   3.436   8.135   3.114 -0.2270 -0.3330 -0.1698
  724MOL0     C97646   3.474   7.999   3.055  0.2842  0.3601  0.9632
  724MOL0     C97647   3.617   7.998   3.030  0.5290  0.8927 -0.5319
  724MOL0     C97648   3.683   7.855   3.045  0.9893 -0.2192 -0.0068
  724MOL0    Cl97649   3.670   7.805   3.204  0.2297  0.1060  0.4218
  724MOL0     C97650   2.981   8.481   3.597 -0.6746  0.1330  0.9255
  724MOL0     C97651   2.907   8.580   3.657 -0.8732  0.8237 -0.8128
  724MOL0     O97652   2.682   8.747   3.681 -0.3782  0.0941 -0.2680
  724MOL0     C97653   2.785   9.036   3.875  0.4386  0.4866 -0.1266
  724MOL0     C97654   2.732   9.146   3.945 -0.4433  0.1069 -0.6248
  724MOL0     N97655   2.770   9.736   3.625  0.2522  0.5156 -0.6587
  724MOL0     N97656   2.836   9.798   3.532  0.3105 -1.0750 -0.8471
  724MOL0     C97657   3.502   9.649   2.597 -0.6555  0.3970 -0.2135
  724MOL0     C97658   3.552   9.616   2.473 -0.9062  0.7816 -0.0224
  724MOL0     C97659   3.850   9.384   2.179 -0.5031 -0.4899 -0.2990
  724MOL0     C97660   3.968   9.476   2.184  0.6320  0.4658 -0.4555
  724MOL0     C97661   4.076   9.462   2.089  0.0106  0.4493  0.1972
  724MOL0     C97662   4.063   9.356   1.989 -0.6459 -0.1140 -0.3388
  724MOL0     O97663   4.154   9.330   1.899 -0.0736  0.2315 -0.1798
  724MOL0     C97664   4.295   9.315   1.955  0.4147  0.3827  0.4614
  724MOL0     C97665   4.388   9.417   1.888  0.7665  0.2936  0.3668
  724MOL0     C97666   4.529   9.415   1.946 -0.5659 -0.3561  0.4018
  724MOL0     C97667   4.621   9.522   1.892  0.4142  0.4062 -0.2090
  724MOL0     C97668   4.746   9.520   1.968 -0.2114 -0.1907  0.5155
  724MOL0     C97669   4.840   9.506   2.040  0.2286  0.3886 -0.3916
  724MOL0     C97670   3.946   9.281   1.983 -1.4315  0.5138 -0.6412
  724MOL0     C97671   3.842   9.293   2.071 -0.0430  0.6947 -0.3583
  724MOL0     C97672   3.727   9.213   2.039  0.5842  0.3342 -0.2329
  724MOL0     H97673   3.830   9.455   2.564 -0.5978 -1.5499  0.3191
  724MOL0     H97674   3.736   9.511   2.797  2.8826  1.8554 -0.8182
  724MOL0     H97675   3.682   9.722   2.869 -0.2775 -0.1454 -0.5201
  724MOL0     H97676   3.553   9.813   2.934 -0.0169 -0.4309 -1.9277
  724MOL0     H97677   3.690   9.714   3.100 -0.0060 -1.0918 -0.4230
  724MOL0     H97678   3.655   9.556   3.034 -1.5094 -0.5390 -1.5533
  724MOL0     H97679   3.511   9.559   3.210  0.9626  1.3645  0.7800
  724MOL0     H97680   3.408   9.587   3.063  1.6015 -1.1462 -1.4798
  724MOL0     H97681   3.523   9.788   3.266 -0.4137 -1.4770  1.5584
  724MOL0     H97682   3.406   9.839   3.143 -1.9632  0.3083  0.9482
  724MOL0     H97683   3.328   9.627   3.341  0.4548 -0.2007  0.1824
  724MOL0     H97684   3.305   9.797   3.385  1.3971 -1.2539  0.5915
  724MOL0     H97685   3.184   9.845   3.176  1.7392  0.1769 -0.5991
  724MOL0     H97686   3.165   9.667   3.158  1.2347 -1.1459  0.5648
  724MOL0     H97687   3.092   9.792   3.421  0.8993  0.9215 -1.3966
  724MOL0     H97688   3.064   9.628   3.366  1.1505  0.2542  1.2692
  724MOL0     H97689   2.918   9.882   3.274  1.0033  1.7242  0.9091
  724MOL0     H97690   2.901   9.717   3.202  1.6172  0.8711 -0.6443
  724MOL0     H97691   2.735   9.549   3.349 -0.0436 -2.9614  1.4109
  724MOL0     H97692   2.550   9.491   3.546  1.4280  0.0549  0.0274
  724MOL0     H97693   2.675   9.411   3.595 -1.3533 -0.7911  0.6849
  724MOL0     H97694   2.553   9.628   3.779  1.7584 -0.4034  2.4250
  724MOL0     H97695   2.488   9.471   3.765  1.0035 -1.2180  1.9544
  724MOL0     H97696   2.749   9.548   3.887 -1.0018 -0.6076  1.0843
  724MOL0     H97697   2.733   9.390   3.816 -1.0195 -0.8804 -0.2265
  724MOL0     H97698   2.539   9.499   4.028 -0.4324  0.2298  0.3679
  724MOL0     H97699   2.701   9.423   4.064 -1.6738  1.9935  1.9653
  724MOL0     H97700   2.417   9.139   3.843 -0.6510 -3.3358 -2.1377
  724MOL0     H97701   2.495   8.962   3.706 -0.4607 -0.4261 -0.0408
  724MOL0     H97702   3.110   8.834   3.541 -2.9722  0.9672 -1.2364
  724MOL0     H97703   3.210   8.662   3.424 -1.5453 -0.5752 -2.2970
  724MOL0     H97704   3.370   8.465   3.480 -2.1619  0.1170 -2.4235
  724MOL0     H97705   3.299   8.379   3.627 -0.5619  0.9902  0.0673
  724MOL0     H97706   3.464   8.232   3.528  1.2454 -0.8647 -1.9273
  724MOL0     H97707   3.306   8.167   3.482  0.0541 -1.1573 -1.2360
  724MOL0     H97708   3.292   8.281   3.272 -0.8549 -0.3808  0.6672
  724MOL0     H97709   3.445   8.363   3.303 -2.0472  1.0859  1.3809
  724MOL0     H97710   3.471   8.063   3.315  1.7523 -0.2327 -1.3934
  724MOL0     H97711   3.581   8.167   3.272 -0.8906  1.7430  0.1649
  724MOL0     H97712   3.478   8.212   3.050  2.9451 -1.2761  0.5917
  724MOL0     H97713   3.330   8.151   3.094 -0.5116 -3.1981 -1.4084
  724MOL0     H97714   3.438   7.919   3.120  3.5548 -0.9981  1.3063
  724MOL0     H97715   3.407   7.982   2.969  0.5826 -1.1533  0.9894
  724MOL0     H97716   3.663   8.078   3.089  0.6710 -0.1668  0.8382
  724MOL0     H97717   3.638   8.016   2.924 -0.9864 -2.4192 -1.5072
  724MOL0     H97718   3.638   7.796   2.965 -0.6732  3.9010 -2.4406
  724MOL0     H97719   3.787   7.880   3.021  1.8438 -4.1717 -1.0524
  724MOL0     H97720   2.956   8.386   3.643 -0.7751  1.2450  3.3117
  724MOL0     H97721   2.814   8.554   3.706 -0.2017 -2.1566 -0.9750
  724MOL0     H97722   2.889   9.007   3.891 -0.3284 -1.8245  1.1298
  724MOL0     H97723   2.805   9.193   4.011  1.1998 -0.2169 -2.1262
  724MOL0     H97724   3.408   9.702   2.606 -1.4253 -1.0054  0.4466
  724MOL0     H97725   3.499   9.647   2.384  0.8432  0.7568 -1.1272
  724MOL0     H97726   3.977   9.556   2.255 -0.9102  2.1172 -1.9999
  724MOL0     H97727   4.158   9.531   2.080 -1.9227  2.7723 -0.8433
  724MOL0     H97728   4.330   9.212   1.947  0.4467  0.4450 -0.3042
  724MOL0     H97729   4.291   9.331   2.063  1.9025 -0.5817  0.6896
  724MOL0     H97730   4.345   9.515   1.908  0.6203  0.1289  0.8650
  724MOL0     H97731   4.383   9.401   1.780 -1.8449  0.8714  0.3500
  724MOL0     H97732   4.573   9.319   1.919  3.3504  1.6409 -0.9729
  724MOL0     H97733   4.518   9.432   2.054 -1.2685 -2.9568  0.8005
  724MOL0     H97734   4.652   9.500   1.789  2.7060 -1.4143  0.7802
  724MOL0     H97735   4.560   9.613   1.897  2.0676  1.5689 -0.4197
  724MOL0     H97736   4.926   9.490   2.102 -1.0594 -1.2124  1.0353
  724MOL0     H97737   3.935   9.201   1.911 -3.2920 -0.5057  0.6897
  724MOL0     H97738   3.643   9.231   2.106 -0.0093 -2.3584 -0.1519
  724MOL0     H97739   3.689   9.244   1.941 -4.3150 -1.7356  0.7279
  724MOL0     H97740   3.742   9.105   2.027 -0.7273  0.0656  0.4603
  725MOL0     O97741   2.658   1.995   6.227 -0.3167 -0.6413 -0.5575
  725MOL0     C97742   2.765   2.010   6.297  0.2715 -0.1347  0.5963
  725MOL0     O97743   2.805   2.128   6.359  0.1210 -0.3259 -0.1032
  725MOL0     C97744   2.775   2.233   6.282 -0.7327 -0.1874 -0.2175
  725MOL0     C97745   2.666   2.309   6.309  0.3912  1.0881  1.0311
  725MOL0     C97746   2.644   2.431   6.236 -0.6831 -0.2735  0.6448
  725MOL0     C97747   2.742   2.469   6.138  0.0530 -0.8786 -0.1215
  725MOL0     O97748   2.721   2.577   6.054  0.2398 -0.0106  0.0912
  725MOL0     C97749   2.614   2.669   6.070  0.0621  0.0867  0.4833
  725MOL0     C97750   2.652   2.804   6.008 -0.5044 -0.2572 -0.7950
  725MOL0     C97751   2.543   2.904   5.997 -0.7065  0.1727  0.0663
  725MOL0     C97752   2.569   3.025   5.914  0.2714 -0.2003 -0.0122
  725MOL0     C97753   2.451   3.126   5.915  0.3132 -0.7021  0.6203
  725MOL0     C97754   2.475   3.253   5.832  0.3253  0.9339  0.0974
  725MOL0     C97755   2.329   3.309   5.807  0.6255 -1.2179  0.2123
  725MOL0     C97756   2.318   3.431   5.699 -0.5417  0.4890 -0.7582
  725MOL0     N97757   2.236   3.539   5.750 -0.5520  0.1928  0.3544
  725MOL0     C97758   2.287   3.662   5.801  0.8487 -0.0333  0.0748
  725MOL0     C97759   2.178   3.738   5.840  0.0677 -0.4355 -0.8812
  725MOL0     C97760   2.146   3.875   5.891 -0.5041  0.4835  1.1636
  725MOL0     C97761   2.263   3.964   5.851 -0.4427  0.6154  0.2756
  725MOL0     C97762   2.242   4.098   5.930  0.8935 -0.1429  0.0855
  725MOL0     C97763   2.315   4.200   5.843  0.5360  0.4549 -0.2260
  725MOL0     O97764   2.322   4.324   5.918 -0.2567  0.3177 -0.4424
  725MOL0     C97765   2.440   4.390   5.905  0.1622  0.4135 -0.3509
  725MOL0     C97766   2.556   4.328   5.948 -0.4941  0.7117 -0.8020
  725MOL0     C97767   2.681   4.397   5.934  0.2652 -0.0983 -0.0864
  725MOL0     C97768   2.680   4.537   5.906  0.7886  0.1425  0.7092
  725MOL0     C97769   2.815   4.604   5.903 -0.4446 -0.1864 -0.5316
  725MOL0     O97770   2.934   4.529   5.918  0.0364 -0.2048 -0.2557
  725MOL0     C97771   3.052   4.593   5.919 -0.9903 -0.2575  0.4118
  725MOL0     C97772   3.098   4.665   6.030 -0.1912 -0.2277  0.2756
  725MOL0     C97773   3.229   4.716   6.037  0.6921  1.2141 -0.3906
  725MOL0     C97774   3.314   4.720   5.930  0.8737  0.4938 -0.4884
  725MOL0     O97775   3.423   4.792   5.934 -0.2509 -0.0759  0.0108
  725MOL0     C97776   3.544   4.737   5.864  0.3456  0.3873  0.7085
  725MOL0     C97777   3.597   4.849   5.772  0.1222 -0.5432 -0.0206
  725MOL0     C97778   3.649   4.982   5.833 -1.3026  0.2391  0.3068
  725MOL0     C97779   3.783   4.975   5.921  0.9146  1.6345  0.0351
  725MOL0     C97780   3.843   5.111   5.924 -0.7125  0.0052  0.8501
  725MOL0     C97781   3.966   5.106   6.021  0.0410 -0.5954 -0.1825
  725MOL0     C97782   4.088   5.171   5.968  0.1862  0.3180  0.6251
  725MOL0     C97783   4.145   5.137   5.828 -0.2910  0.8641  0.7901
  725MOL0    Cl97784   4.218   4.973   5.829 -0.0039 -0.0541 -0.1226
  725MOL0     C97785   3.268   4.644   5.814  0.1154  0.0521 -0.4535
  725MOL0     C97786   3.139   4.584   5.808  0.3260 -1.1254 -0.3086
  725MOL0     O97787   2.813   4.730   5.896 -0.3493  0.9831 -0.0781
  725MOL0     C97788   2.560   4.595   5.863 -0.0112  0.4829  1.0071
  725MOL0     C97789   2.440   4.529   5.870  0.5947 -0.4469  0.1412
  725MOL0     N97790   2.069   3.656   5.815 -0.2060  0.2656  1.4152
  725MOL0     N97791   2.098   3.537   5.762  0.5028  0.7068 -0.1644
  725MOL0     C97792   2.862   2.399   6.129  0.0460  0.4726  0.1306
  725MOL0     C97793   2.873   2.288   6.207  0.0353 -0.0158 -0.7455
  725MOL0     C97794   2.839   1.890   6.335 -0.5135  0.7697  0.0779
  725MOL0     C97795   2.937   1.892   6.438 -1.0465 -1.1784  0.1518
  725MOL0     C97796   3.023   1.790   6.467  0.0695  0.6046  0.5281
  725MOL0     C97797   3.019   1.670   6.393 -1.2121 -0.1109 -0.2755
  725MOL0     O97798   3.092   1.556   6.440  1.0434 -0.0957 -0.3111
  725MOL0     C97799   3.065   1.432   6.383  0.2066 -0.1658  0.3831
  725MOL0     C97800   3.154   1.333   6.457 -0.3117 -0.4110 -0.0883
  725MOL0     C97801   3.116   1.186   6.453  0.6248  0.5989  0.0344
  725MOL0     C97802   3.182   1.115   6.332  0.3463  0.1269 -0.1044
  725MOL0     C97803   3.130   0.982   6.313 -0.0951  0.3671  0.3127
  725MOL0     C97804   3.072   0.874   6.303  0.4559  0.2938  0.9848
  725MOL0     C97805   2.924   1.655   6.291 -0.4438 -0.5958 -0.8133
  725MOL0     C97806   2.836   1.767   6.263  0.1088 -0.6390  0.4432
  725MOL0     C97807   2.726   1.730   6.167 -0.0152  0.3648 -0.2944
  725MOL0     H97808   2.595   2.261   6.375 -0.2882 -1.8209 -1.5582
  725MOL0     H97809   2.552   2.489   6.237 -0.9704 -0.7184  2.1139
  725MOL0     H97810   2.539   2.629   6.001  1.3860  2.3049 -2.4591
  725MOL0     H97811   2.588   2.682   6.175  2.5946  1.2669  1.0433
  725MOL0     H97812   2.676   2.789   5.902  0.5564 -4.5855 -0.1334
  725MOL0     H97813   2.742   2.847   6.053 -1.2462  1.1751 -0.5920
  725MOL0     H97814   2.516   2.943   6.095 -1.1935 -0.7861  0.3254
  725MOL0     H97815   2.466   2.842   5.950  1.6181 -3.0180  0.1460
  725MOL0     H97816   2.637   3.083   5.978  0.4704  1.1911 -1.4264
  725MOL0     H97817   2.612   3.008   5.815 -4.9794 -1.2429 -2.4511
  725MOL0     H97818   2.365   3.070   5.877  0.5275  1.0994 -3.0425
  725MOL0     H97819   2.431   3.153   6.019 -3.7853 -1.8710  0.2697
  725MOL0     H97820   2.538   3.325   5.884 -2.7902  2.2156  2.3958
  725MOL0     H97821   2.527   3.226   5.739  0.9640  0.5392  0.5619
  725MOL0     H97822   2.279   3.335   5.901  1.2380 -0.5939  0.3767
  725MOL0     H97823   2.276   3.221   5.770  0.7432 -0.7378 -1.1391
  725MOL0     H97824   2.410   3.471   5.657 -0.2369 -0.8016 -1.3698
  725MOL0     H97825   2.274   3.379   5.614  2.5757 -0.8029 -1.7458
  725MOL0     H97826   2.393   3.687   5.801  1.0341 -0.7985  0.1549
  725MOL0     H97827   2.048   3.913   5.858 -0.3381  1.1096  1.3717
  725MOL0     H97828   2.118   3.872   5.997 -1.4566 -1.9113  0.9032
  725MOL0     H97829   2.348   3.904   5.885 -2.9985 -0.7997  5.1242
  725MOL0     H97830   2.267   3.975   5.742  2.7904 -3.5367 -0.2598
  725MOL0     H97831   2.282   4.084   6.030  0.9548  0.5468  0.1629
  725MOL0     H97832   2.134   4.119   5.929  0.7202 -0.9557 -1.1185
  725MOL0     H97833   2.263   4.216   5.748  3.2242  1.3076 -1.6509
  725MOL0     H97834   2.415   4.165   5.814 -0.6007 -1.3700 -2.1990
  725MOL0     H97835   2.548   4.229   5.992  0.2603  2.2671  3.2910
  725MOL0     H97836   2.766   4.349   5.981 -0.1974 -0.1043  0.7723
  725MOL0     H97837   3.025   4.668   6.111 -2.2970  3.4414 -1.4722
  725MOL0     H97838   3.249   4.774   6.126  0.6209 -4.3514  3.7903
  725MOL0     H97839   3.626   4.711   5.931 -1.1393 -2.6672  1.5263
  725MOL0     H97840   3.528   4.655   5.793  1.0550 -0.2908  1.3075
  725MOL0     H97841   3.674   4.803   5.710 -1.7224 -0.5644 -2.4423
  725MOL0     H97842   3.516   4.870   5.701 -0.6730  0.3726  1.0983
  725MOL0     H97843   3.671   5.046   5.747  1.4717  0.9843  1.4519
  725MOL0     H97844   3.574   5.041   5.887 -1.7475 -0.5526  0.5753
  725MOL0     H97845   3.846   4.893   5.884 -0.2825  0.8174 -0.2601
  725MOL0     H97846   3.759   4.939   6.022  0.9689  2.3719  0.3192
  725MOL0     H97847   3.770   5.187   5.951 -0.0449  0.3980  1.5722
  725MOL0     H97848   3.884   5.146   5.829  1.2513  0.5424  1.8581
  725MOL0     H97849   3.933   5.173   6.102 -3.4637  0.5642 -2.3672
  725MOL0     H97850   3.997   5.008   6.058  1.9380  1.0197  2.9461
  725MOL0     H97851   4.178   5.162   6.029  0.7478  0.9715 -0.0790
  725MOL0     H97852   4.078   5.279   5.982  0.0858  0.6118 -1.3725
  725MOL0     H97853   4.083   5.142   5.738  2.9340 -3.1075 -2.0258
  725MOL0     H97854   4.227   5.206   5.805 -0.7811  0.3919 -2.9257
  725MOL0     H97855   3.321   4.635   5.719  2.4994  0.8497  0.7074
  725MOL0     H97856   3.114   4.530   5.717  0.9510 -0.6072 -0.7905
  725MOL0     H97857   2.559   4.694   5.818 -2.6435 -0.1694 -0.6054
  725MOL0     H97858   2.350   4.569   5.824  0.9137  2.6202  1.9201
  725MOL0     H97859   2.943   2.430   6.064  0.8034 -2.4816 -0.4505
  725MOL0     H97860   2.965   2.230   6.209  0.2413  0.2504  1.8205
  725MOL0     H97861   2.947   1.988   6.489 -1.2623  1.4828 -4.3372
  725MOL0     H97862   3.097   1.788   6.546  2.1562 -0.8333 -1.3365
  725MOL0     H97863   3.088   1.430   6.276  3.4350 -2.1553  0.9665
  725MOL0     H97864   2.959   1.411   6.398  0.1697 -0.1706  0.1239
  725MOL0     H97865   3.152   1.358   6.563 -0.4715  0.9620 -0.3947
  725MOL0     H97866   3.257   1.340   6.421  0.1598 -3.3369  0.4242
  725MOL0     H97867   3.008   1.176   6.438  0.8494 -1.0679 -0.7791
  725MOL0     H97868   3.153   1.136   6.543 -0.7652  0.2335  0.4189
  725MOL0     H97869   3.171   1.175   6.241  0.5421  1.2735  0.6087
  725MOL0     H97870   3.282   1.087   6.365 -0.1633 -1.2038  0.3761
  725MOL0     H97871   3.031   0.776   6.291 -1.8776  1.4233 -1.4162
  725MOL0     H97872   2.914   1.562   6.234 -0.7499 -0.4130 -1.0603
  725MOL0     H97873   2.700   1.625   6.158 -0.0690  0.2537  1.0462
  725MOL0     H97874   2.628   1.774   6.188  0.1996 -0.8573  4.2546
  725MOL0     H97875   2.754   1.768   6.067 -2.2882  1.0831 -0.7146
  726MOL0     O97876   2.911   2.085   3.992  0.1697 -0.2118 -0.0846
  726MOL0     C97877   3.015   2.031   4.044  0.2049  0.4530 -0.7034
  726MOL0     O97878   3.127   1.986   3.977 -0.1586  0.1652  0.1536
  726MOL0     C97879   3.131   2.000   3.842  0.2064  0.4012  0.0883
  726MOL0     C97880   3.089   1.891   3.764  0.6585  0.7460 -0.2747
  726MOL0     C97881   3.074   1.904   3.633 -0.2158  1.0635  0.4081
  726MOL0     C97882   3.092   2.028   3.570  0.9463  0.8577  0.6727
  726MOL0     O97883   3.067   2.023   3.434 -0.4481 -0.3075 -0.2997
  726MOL0     C97884   3.088   2.143   3.354 -1.0256  0.7214 -0.3448
  726MOL0     C97885   3.047   2.108   3.217 -0.3187  1.7528 -0.3124
  726MOL0     C97886   3.081   2.227   3.116 -0.9156  0.1357 -0.8905
  726MOL0     C97887   2.996   2.202   2.984  0.2551 -0.2557 -0.3236
  726MOL0     C97888   2.973   2.331   2.896 -0.3700 -0.0137 -0.7490
  726MOL0     C97889   2.903   2.313   2.765 -0.2911 -0.3062  0.8529
  726MOL0     C97890   2.990   2.220   2.674  0.4533  0.0203  0.5828
  726MOL0     C97891   2.970   2.246   2.523 -0.9518 -0.9056 -0.5941
  726MOL0     N97892   3.036   2.371   2.459  0.2917 -0.8002 -0.9014
  726MOL0     C97893   3.127   2.373   2.349  0.8999  0.3750  0.2355
  726MOL0     C97894   3.165   2.496   2.333  1.0605  0.1526  0.2616
  726MOL0     C97895   3.262   2.556   2.231 -0.3912  0.2156  0.6071
  726MOL0     C97896   3.414   2.560   2.272  0.2225 -0.0694 -0.5682
  726MOL0     C97897   3.483   2.626   2.147 -0.1789 -0.6748  0.5142
  726MOL0     C97898   3.629   2.607   2.163 -0.2642 -0.6939  0.5415
  726MOL0     O97899   3.688   2.725   2.224 -0.2493  0.4114 -0.3756
  726MOL0     C97900   3.829   2.739   2.222 -0.8162 -0.4047 -0.8301
  726MOL0     C97901   3.892   2.857   2.252  0.1495  0.5563  0.0149
  726MOL0     C97902   4.028   2.883   2.230  1.0686 -0.3247 -0.8583
  726MOL0     C97903   4.113   2.778   2.184  0.0979  0.7024 -0.8268
  726MOL0     C97904   4.264   2.785   2.180  0.1641 -0.6168  0.8010
  726MOL0     O97905   4.327   2.848   2.282 -0.2440 -0.3740 -0.7864
  726MOL0     C97906   4.454   2.898   2.262 -0.5176  0.2410  0.4681
  726MOL0     C97907   4.536   2.870   2.371 -0.1142 -0.3922  0.2873
  726MOL0     C97908   4.671   2.912   2.375 -0.9627 -0.5043  0.2564
  726MOL0     C97909   4.712   3.013   2.282  0.2180 -0.2235  0.9768
  726MOL0     O97910   4.840   3.065   2.289 -0.5023  0.1263 -0.0419
  726MOL0     C97911   4.876   3.177   2.204 -0.8488 -0.1426 -0.2656
  726MOL0     C97912   5.025   3.214   2.229  0.0095  0.0770  0.1228
  726MOL0     C97913   5.036   3.371   2.256  0.1779  0.9379  1.2400
  726MOL0     C97914   5.181   3.415   2.274  0.6907  0.4399 -0.2670
  726MOL0     C97915   5.196   3.563   2.293  0.2418 -1.3306  0.5424
  726MOL0     C97916   5.346   3.626   2.305  0.9606 -0.4779  0.3810
  726MOL0     C97917   5.358   3.757   2.228 -0.6928 -0.8169 -0.4638
  726MOL0     C97918   5.506   3.783   2.205  0.4581  0.6950 -0.3617
  726MOL0    Cl97919   5.525   3.942   2.121  0.0261 -0.4805 -0.1633
  726MOL0     C97920   4.620   3.050   2.174 -0.3726  0.1321  0.5626
  726MOL0     C97921   4.494   2.992   2.160 -0.5196  0.2706  0.7756
  726MOL0     O97922   4.324   2.742   2.079  0.0350 -0.6163 -0.0057
  726MOL0     C97923   4.050   2.659   2.154 -0.2700  0.1338 -0.0627
  726MOL0     C97924   3.911   2.634   2.173 -1.4289  0.0521 -0.1997
  726MOL0     N97925   3.089   2.569   2.426  0.2794  0.0981 -0.5984
  726MOL0     N97926   3.014   2.497   2.501  0.3197  0.3063  0.0219
  726MOL0     C97927   3.131   2.141   3.646 -0.4278  0.6393 -0.1046
  726MOL0     C97928   3.146   2.127   3.785  0.6762  0.0708 -0.3249
  726MOL0     C97929   3.002   2.003   4.189 -0.1815 -0.0685  0.0015
  726MOL0     C97930   3.117   1.944   4.255  0.2097  0.7958  0.3323
  726MOL0     C97931   3.123   1.901   4.387 -0.1382 -0.5553  0.7472
  726MOL0     C97932   3.007   1.915   4.464  0.5408 -0.4188 -0.5596
  726MOL0     O97933   3.030   1.896   4.601 -0.0136  0.4050 -0.2873
  726MOL0     C97934   2.938   1.805   4.667  0.2386 -0.6000  0.1373
  726MOL0     C97935   3.001   1.748   4.799  0.0305 -0.0719  0.1706
  726MOL0     C97936   3.128   1.680   4.763 -0.4369  0.1561 -1.5717
  726MOL0     C97937   3.100   1.562   4.664 -0.0052 -0.3081 -0.4395
  726MOL0     C97938   3.190   1.450   4.689  0.9755 -0.8615  0.3958
  726MOL0     C97939   3.259   1.349   4.703 -0.0920 -0.9152 -0.0322
  726MOL0     C97940   2.895   1.974   4.404  0.4418  0.3587  0.3675
  726MOL0     C97941   2.887   2.006   4.271 -0.4214 -0.0261 -0.0362
  726MOL0     C97942   2.739   2.037   4.243 -0.9806 -0.2914  0.0312
  726MOL0     H97943   3.088   1.797   3.818 -0.2708  2.5848  3.2140
  726MOL0     H97944   3.034   1.816   3.582  3.1294 -0.9214  0.8951
  726MOL0     H97945   3.035   2.231   3.392 -1.5004 -0.6801  2.5079
  726MOL0     H97946   3.193   2.171   3.367  0.5497 -3.3318 -2.6419
  726MOL0     H97947   2.940   2.089   3.203  0.1963 -0.0853 -2.4514
  726MOL0     H97948   3.092   2.019   3.171 -3.0648 -0.1197  0.3158
  726MOL0     H97949   3.186   2.225   3.086 -0.4121  1.0607  0.6895
  726MOL0     H97950   3.044   2.318   3.164 -1.0211 -1.6852  2.8701
  726MOL0     H97951   3.046   2.122   2.928  1.2401  0.5910 -0.6844
  726MOL0     H97952   2.896   2.170   3.014  0.1052 -0.6149 -1.1876
  726MOL0     H97953   2.926   2.407   2.959 -1.5550 -0.0075 -1.5970
  726MOL0     H97954   3.074   2.370   2.878  0.6581 -1.6526  1.1743
  726MOL0     H97955   2.814   2.249   2.776  1.7889 -3.2158  2.1921
  726MOL0     H97956   2.885   2.410   2.718  2.3069  0.3337  1.0106
  726MOL0     H97957   2.973   2.112   2.676 -1.5751  0.2110 -1.8800
  726MOL0     H97958   3.098   2.237   2.679  0.5293  0.7748 -2.0955
  726MOL0     H97959   3.013   2.161   2.469 -1.3296 -2.3119  1.2260
  726MOL0     H97960   2.862   2.236   2.510 -0.9141 -2.1465 -0.1278
  726MOL0     H97961   3.143   2.288   2.284 -1.2982  1.2414 -1.5812
  726MOL0     H97962   3.250   2.477   2.156 -0.7125 -1.3120  2.1995
  726MOL0     H97963   3.232   2.648   2.180  0.2610 -0.3947 -0.9020
  726MOL0     H97964   3.425   2.616   2.366  0.8603  2.5320 -2.0888
  726MOL0     H97965   3.441   2.455   2.287  1.6727  0.1086 -1.6844
  726MOL0     H97966   3.466   2.734   2.143  3.5020  0.0434  0.4079
  726MOL0     H97967   3.446   2.566   2.063  2.4787  0.6868 -1.8168
  726MOL0     H97968   3.670   2.585   2.064 -0.6933 -2.2963  0.6941
  726MOL0     H97969   3.644   2.510   2.210  0.4766 -0.6869  0.3267
  726MOL0     H97970   3.830   2.924   2.311 -0.8022 -1.9787  2.0597
  726MOL0     H97971   4.081   2.970   2.268 -0.3079  1.1539 -2.1828
  726MOL0     H97972   4.504   2.791   2.439  0.9992  0.0681  1.3880
  726MOL0     H97973   4.739   2.875   2.451  1.0478 -2.1289 -2.1683
  726MOL0     H97974   4.872   3.152   2.097  1.3342  0.7323 -0.6188
  726MOL0     H97975   4.805   3.259   2.215  0.7522  1.6097 -2.2841
  726MOL0     H97976   5.066   3.154   2.310 -1.7770  0.9558  1.7511
  726MOL0     H97977   5.071   3.182   2.134 -3.2874 -2.8476 -0.6794
  726MOL0     H97978   4.987   3.422   2.173 -2.6630  0.4959  2.5332
  726MOL0     H97979   4.988   3.405   2.348 -0.7096  2.9881  0.0920
  726MOL0     H97980   5.232   3.385   2.182 -1.2046 -4.1162 -0.1014
  726MOL0     H97981   5.228   3.359   2.355 -1.3748  1.1639  1.5164
  726MOL0     H97982   5.137   3.603   2.377  2.1388  0.1603  1.2509
  726MOL0     H97983   5.150   3.615   2.208 -1.1384  3.7562  3.8899
  726MOL0     H97984   5.365   3.651   2.410 -0.9844  0.1691  0.6136
  726MOL0     H97985   5.410   3.550   2.258  1.4340 -0.0983  0.4006
  726MOL0     H97986   5.326   3.833   2.299  1.5341 -1.1451  1.0179
  726MOL0     H97987   5.296   3.765   2.139  0.8248  0.5267 -1.4567
  726MOL0     H97988   5.553   3.795   2.304 -4.4962  0.8420  2.3092
  726MOL0     H97989   5.549   3.706   2.142 -0.3082 -0.5317  0.5670
  726MOL0     H97990   4.658   3.101   2.087 -3.5016  0.8279 -0.5109
  726MOL0     H97991   4.435   3.020   2.074  2.2887  1.5754 -0.8525
  726MOL0     H97992   4.116   2.582   2.116 -1.9430  0.2889 -3.6016
  726MOL0     H97993   3.873   2.533   2.158 -2.2782  0.4307 -0.6561
  726MOL0     H97994   3.134   2.245   3.616  1.9815  0.4390 -0.7324
  726MOL0     H97995   3.163   2.216   3.844 -0.0085  1.0378 -1.5275
  726MOL0     H97996   3.212   1.936   4.204  0.6341  2.0916  0.8655
  726MOL0     H97997   3.210   1.848   4.422  3.2815  1.3944 -3.8341
  726MOL0     H97998   2.894   1.728   4.602 -0.8074  0.6124 -0.6451
  726MOL0     H97999   2.857   1.868   4.704  1.0890 -0.0906  1.2052
  726MOL0     H98000   2.932   1.674   4.840  0.1787 -0.1417  0.2942
  726MOL0     H98001   3.013   1.823   4.877  1.3998  2.1452 -2.0235
  726MOL0     H98002   3.172   1.648   4.857 -2.7102  1.5962  0.0971
  726MOL0     H98003   3.202   1.742   4.711 -0.8111  0.2386 -2.0227
  726MOL0     H98004   2.999   1.527   4.685  0.0682  1.2005  3.1856
  726MOL0     H98005   3.128   1.589   4.561  3.4820 -1.1799  0.1393
  726MOL0     H98006   3.297   1.249   4.700  0.5090 -0.7283  1.0523
  726MOL0     H98007   2.812   1.976   4.474  2.5526  2.9680  3.0786
  726MOL0     H98008   2.670   1.952   4.245 -0.1705 -0.9428  1.4555
  726MOL0     H98009   2.696   2.109   4.314 -1.5537 -0.3592 -0.2379
  726MOL0     H98010   2.736   2.082   4.143  0.0270  3.1125  1.3855
  727MOL0     O98011   5.595  11.321   8.535 -0.6197  0.3971 -0.5755
  727MOL0     C98012   5.637  11.223   8.601 -0.1772 -0.2949 -0.4231
  727MOL0     O98013   5.658  11.226   8.738 -0.0248 -0.5230 -0.6084
  727MOL0     C98014   5.640  11.342   8.805 -0.3181  0.5134 -0.0416
  727MOL0     C98015   5.739  11.439   8.804  1.1027 -0.1587 -1.3261
  727MOL0     C98016   5.710  11.564   8.865 -0.0534  0.3649  1.0325
  727MOL0     C98017   5.582  11.589   8.922 -0.5926  0.7825 -0.1075
  727MOL0     O98018   5.547  11.707   8.979 -0.4949 -0.6527 -0.1208
  727MOL0     C98019   5.631  11.754   9.089  0.6494  0.8396 -0.9523
  727MOL0     C98020   5.649  11.900   9.088  0.5676  0.5258  0.5247
  727MOL0     C98021   5.710  11.948   8.955  0.2536  0.2288 -1.8446
  727MOL0     C98022   5.777  12.082   8.976  0.7008 -1.5433 -0.4169
  727MOL0     C98023   5.833  12.140   8.843  0.7798 -0.3740  0.1200
  727MOL0     C98024   5.893  12.284   8.839 -0.6672  0.3673  0.1434
  727MOL0     C98025   5.967  12.315   8.718 -0.8530  0.0085  0.1008
  727MOL0     C98026   5.979  12.467   8.696 -0.0412  0.1697  0.4984
  727MOL0     N98027   6.022  12.487   8.552  0.8828 -0.0492 -0.3317
  727MOL0     C98028   5.939  12.449   8.442 -0.2812 -0.2311  0.3465
  727MOL0     C98029   5.994  12.517   8.334  0.1880 -0.7182  0.8410
  727MOL0     C98030   5.948  12.510   8.191  0.8213 -0.5254  0.1558
  727MOL0     C98031   6.042  12.424   8.113  0.3067 -0.5732 -0.6546
  727MOL0     C98032   6.033  12.437   7.963 -0.6128  0.0567 -0.2799
  727MOL0     C98033   6.087  12.314   7.884  0.5536 -0.0347  0.1630
  727MOL0     O98034   6.228  12.297   7.907 -1.5292 -0.1601 -0.3061
  727MOL0     C98035   6.296  12.215   7.820 -0.7800 -0.1229 -0.2510
  727MOL0     C98036   6.247  12.130   7.736  0.3548  0.7132 -0.0273
  727MOL0     C98037   6.320  12.044   7.664 -0.1147 -0.9765  1.4710
  727MOL0     C98038   6.460  12.037   7.672  0.5219 -1.1925  0.1016
  727MOL0     C98039   6.523  11.939   7.586  0.1540  0.7587 -0.3707
  727MOL0     O98040   6.654  11.916   7.618  0.3872  0.5259 -0.0678
  727MOL0     C98041   6.713  11.793   7.584  0.0277 -0.9690  0.1511
  727MOL0     C98042   6.811  11.784   7.482 -0.5748  0.4807 -0.1869
  727MOL0     C98043   6.878  11.662   7.462  0.7738 -0.2367 -0.5232
  727MOL0     C98044   6.846  11.548   7.543  0.1762 -0.7385 -0.8908
  727MOL0     O98045   6.910  11.428   7.538 -0.3690 -0.4686 -0.3520
  727MOL0     C98046   6.956  11.396   7.411 -0.2966 -0.6900 -0.8331
  727MOL0     C98047   6.991  11.248   7.407  0.2058 -0.0004  1.1499
  727MOL0     C98048   6.858  11.155   7.393 -0.0886  0.4492 -0.2263
  727MOL0     C98049   6.902  11.021   7.444  0.0345  0.0557  0.2732
  727MOL0     C98050   6.978  10.942   7.333  0.3441 -0.0024 -1.1483
  727MOL0     C98051   7.026  10.798   7.373  1.4010  0.9605  0.0516
  727MOL0     C98052   6.915  10.696   7.411 -1.7179 -0.8691 -0.0251
  727MOL0     C98053   6.971  10.555   7.416  0.6225  0.0851  1.0627
  727MOL0    Cl98054   6.849  10.432   7.447  0.1275  0.1921 -0.2320
  727MOL0     C98055   6.737  11.559   7.636 -1.0634 -0.2139  0.3794
  727MOL0     C98056   6.670  11.683   7.651 -1.0928 -0.5670  0.1397
  727MOL0     O98057   6.453  11.856   7.520 -0.4887 -0.5747  0.2562
  727MOL0     C98058   6.523  12.116   7.767  0.5982  0.9189  0.1968
  727MOL0     C98059   6.437  12.211   7.837  0.1827 -0.0555  0.1877
  727MOL0     N98060   6.103  12.586   8.379 -0.1618  0.0989  0.2678
  727MOL0     N98061   6.119  12.579   8.510 -0.1623  0.2179  0.2327
  727MOL0     C98062   5.480  11.485   8.922  0.6580 -0.5773  0.1548
  727MOL0     C98063   5.511  11.365   8.859 -0.1653  1.1046  0.1947
  727MOL0     C98064   5.659  11.091   8.536  0.2944 -0.8461  0.6403
  727MOL0     C98065   5.743  11.003   8.600 -0.3248  0.8378 -0.3111
  727MOL0     C98066   5.768  10.882   8.541 -0.1373 -0.6495  0.5882
  727MOL0     C98067   5.721  10.841   8.424 -0.0900 -0.4040  0.8027
  727MOL0     O98068   5.751  10.705   8.382 -1.3156  0.6688  0.0651
  727MOL0     C98069   5.678  10.654   8.269  0.5256  0.6335 -0.8798
  727MOL0     C98070   5.702  10.500   8.259 -0.3635  0.7316 -0.3810
  727MOL0     C98071   5.844  10.474   8.229  0.7684 -0.0776  0.4780
  727MOL0     C98072   5.885  10.327   8.238 -0.3873 -0.4084  0.1758
  727MOL0     C98073   5.999  10.307   8.146  0.1796 -0.0949  0.7288
  727MOL0     C98074   6.088  10.268   8.067  0.4555  0.4277 -0.4679
  727MOL0     C98075   5.632  10.928   8.362 -1.4916  0.6409  0.5225
  727MOL0     C98076   5.602  11.052   8.411 -0.5354 -0.3565 -0.3644
  727MOL0     C98077   5.507  11.132   8.324 -0.2017  0.6525  0.1824
  727MOL0     H98078   5.839  11.410   8.774  1.5018  0.2416 -0.4207
  727MOL0     H98079   5.787  11.641   8.872 -1.7947  2.2831  0.2001
  727MOL0     H98080   5.583  11.723   9.182  0.0926 -0.3579 -1.6030
  727MOL0     H98081   5.724  11.699   9.104 -0.3414  0.2110  5.4707
  727MOL0     H98082   5.701  11.922   9.181 -0.1604 -1.0989  1.3665
  727MOL0     H98083   5.554  11.954   9.094  0.6013  0.5806  0.5701
  727MOL0     H98084   5.633  11.951   8.877 -0.7625 -1.7274 -0.9727
  727MOL0     H98085   5.775  11.865   8.926 -0.7058 -1.5159  0.6710
  727MOL0     H98086   5.697  12.153   9.000  3.2138  0.7732  1.9252
  727MOL0     H98087   5.848  12.073   9.059 -1.2174 -0.4204  1.4395
  727MOL0     H98088   5.910  12.069   8.810 -0.1325 -1.4289  0.1937
  727MOL0     H98089   5.758  12.140   8.763  0.5193 -0.6736  0.3628
  727MOL0     H98090   5.802  12.343   8.852 -2.6641 -2.3513 -0.4625
  727MOL0     H98091   5.956  12.282   8.928  0.2622  2.0408 -0.4436
  727MOL0     H98092   5.902  12.271   8.641 -1.8042  0.1565  0.7965
  727MOL0     H98093   6.067  12.273   8.712  0.2917  2.7153 -1.9137
  727MOL0     H98094   5.882  12.515   8.712 -1.2887 -1.9712 -0.2604
  727MOL0     H98095   6.046  12.490   8.779 -1.0015 -0.9507  1.6339
  727MOL0     H98096   5.847  12.392   8.450  0.1571 -0.6788  2.6906
  727MOL0     H98097   5.854  12.454   8.181  1.3268 -1.3432 -0.0783
  727MOL0     H98098   5.935  12.610   8.149  0.5028  0.0862  1.6189
  727MOL0     H98099   6.146  12.450   8.133 -0.1709  0.0376  1.2812
  727MOL0     H98100   6.012  12.322   8.140 -1.1560 -0.0129 -0.0281
  727MOL0     H98101   6.085  12.529   7.933  1.3800 -0.9939 -0.2640
  727MOL0     H98102   5.925  12.441   7.946 -0.3505  2.1672 -1.8292
  727MOL0     H98103   6.054  12.317   7.780 -1.7666  1.1920  0.8679
  727MOL0     H98104   6.038  12.224   7.920  1.3887 -1.3253 -1.7659
  727MOL0     H98105   6.139  12.125   7.731  0.3208  2.1172 -2.5312
  727MOL0     H98106   6.275  11.980   7.589 -0.0237 -0.5008  1.0033
  727MOL0     H98107   6.829  11.870   7.418 -1.1047 -0.1998 -1.2723
  727MOL0     H98108   6.945  11.654   7.377  1.1350  2.3040 -0.5609
  727MOL0     H98109   6.886  11.425   7.332  0.8160  0.6862 -1.3635
  727MOL0     H98110   7.042  11.457   7.382  0.1643 -0.2263  1.3354
  727MOL0     H98111   7.047  11.228   7.315  1.1963 -2.8279  2.2646
  727MOL0     H98112   7.050  11.227   7.497 -0.3310 -1.2707  1.2141
  727MOL0     H98113   6.785  11.189   7.467  0.0935  2.5498 -0.9608
  727MOL0     H98114   6.802  11.151   7.299 -0.0518  2.2629 -0.3478
  727MOL0     H98115   6.820  10.952   7.466 -2.1626  1.8866 -1.6806
  727MOL0     H98116   6.970  11.026   7.530 -1.8505 -0.2169  1.8467
  727MOL0     H98117   7.064  10.996   7.292  0.8171  0.7952  0.7940
  727MOL0     H98118   6.902  10.928   7.255 -0.7136  2.6083 -0.7064
  727MOL0     H98119   7.080  10.762   7.285  1.0193  0.1180  0.1617
  727MOL0     H98120   7.087  10.799   7.463  0.9028  0.4674  0.3956
  727MOL0     H98121   6.827  10.705   7.346 -0.8051 -1.2526 -1.3510
  727MOL0     H98122   6.892  10.718   7.516  0.0532 -0.7990  0.3731
  727MOL0     H98123   7.002  10.542   7.312 -3.2309 -1.5550 -0.0762
  727MOL0     H98124   7.058  10.567   7.480  2.2900 -1.7993 -0.7345
  727MOL0     H98125   6.709  11.471   7.694  1.3159  0.3446  2.5638
  727MOL0     H98126   6.600  11.701   7.732 -0.8788  2.7260 -0.2724
  727MOL0     H98127   6.629  12.117   7.789  0.6593  2.0292 -0.0644
  727MOL0     H98128   6.475  12.274   7.917 -3.3947  0.1696  1.9294
  727MOL0     H98129   5.381  11.504   8.963 -0.2873  1.2766 -2.6239
  727MOL0     H98130   5.446  11.279   8.847  2.7115 -0.8243 -4.1367
  727MOL0     H98131   5.798  11.049   8.682 -3.0087  0.8196  1.6500
  727MOL0     H98132   5.847  10.823   8.586  1.1888  0.5866 -0.0436
  727MOL0     H98133   5.714  10.705   8.179 -0.1806 -0.1255 -1.6098
  727MOL0     H98134   5.570  10.665   8.283 -0.0447 -0.1092 -4.0307
  727MOL0     H98135   5.636  10.471   8.177 -3.7088  2.1110  1.6113
  727MOL0     H98136   5.666  10.455   8.352 -3.7822  4.6710  0.5117
  727MOL0     H98137   5.906  10.527   8.301 -1.7363  2.7216  0.7616
  727MOL0     H98138   5.861  10.517   8.130 -0.3190 -0.0686  0.2856
  727MOL0     H98139   5.912  10.296   8.340  1.5642  2.4935  0.6790
  727MOL0     H98140   5.802  10.264   8.205 -1.2619  1.0791 -0.5561
  727MOL0     H98141   6.152  10.226   7.992  4.2754  4.1291  0.3861
  727MOL0     H98142   5.588  10.895   8.269 -0.8792  1.7622 -0.1936
  727MOL0     H98143   5.453  11.062   8.260  0.6718  0.3980 -0.3040
  727MOL0     H98144   5.432  11.186   8.382 -1.4252 -2.2763  1.5013
  727MOL0     H98145   5.570  11.196   8.261  0.1804 -0.3945 -0.5287
  728MOL0     O98146   8.070   9.110   5.555 -0.5925 -0.0870 -0.0764
  728MOL0     C98147   8.054   9.139   5.680 -0.5286 -0.2119  0.6189
  728MOL0     O98148   8.143   9.094   5.780 -0.0917 -0.4717 -0.4852
  728MOL0     C98149   8.215   8.973   5.760 -0.5760 -0.2405 -0.3353
  728MOL0     C98150   8.193   8.872   5.665 -0.1385 -0.8488 -0.6106
  728MOL0     C98151   8.264   8.746   5.671 -0.8937 -0.5219  0.0766
  728MOL0     C98152   8.376   8.731   5.753 -0.1464 -0.1907 -0.3336
  728MOL0     O98153   8.452   8.612   5.751  1.0494  1.0749 -0.4667
  728MOL0     C98154   8.494   8.557   5.624 -0.0157  0.8734 -0.0242
  728MOL0     C98155   8.647   8.578   5.606 -0.4262  0.2411 -0.9908
  728MOL0     C98156   8.694   8.721   5.548  0.5197 -0.2029  0.2043
  728MOL0     C98157   8.651   8.723   5.401  0.4832 -1.3591 -0.9392
  728MOL0     C98158   8.690   8.853   5.333  0.2486  0.3455 -0.4732
  728MOL0     C98159   8.582   8.963   5.332  0.5293  0.2856 -0.4080
  728MOL0     C98160   8.580   9.065   5.448 -0.0550  0.6170  0.9622
  728MOL0     C98161   8.525   9.205   5.404 -0.3454 -0.4795  0.1582
  728MOL0     N98162   8.515   9.311   5.499  0.3091  0.2368  0.6604
  728MOL0     C98163   8.405   9.322   5.581  0.8917  0.2215  0.2795
  728MOL0     C98164   8.450   9.403   5.683 -0.4201  0.0395  0.9617
  728MOL0     C98165   8.390   9.458   5.812 -0.4960 -0.9305 -0.2597
  728MOL0     C98166   8.321   9.594   5.777 -0.6900 -0.7785 -0.5358
  728MOL0     C98167   8.165   9.594   5.740  0.1411  0.7007  0.0839
  728MOL0     C98168   8.149   9.547   5.589  0.8510  0.1557  1.0530
  728MOL0     O98169   8.112   9.665   5.510 -0.2581 -0.1845  0.4960
  728MOL0     C98170   7.974   9.693   5.499 -0.2566 -0.5024 -0.1739
  728MOL0     C98171   7.928   9.816   5.437  0.4899  0.7060 -0.0814
  728MOL0     C98172   7.793   9.846   5.440  0.4075  0.8365  1.0468
  728MOL0     C98173   7.703   9.772   5.516 -0.1384 -0.6608  0.3239
  728MOL0     C98174   7.561   9.816   5.522 -0.1991  0.5481 -0.8215
  728MOL0     O98175   7.529   9.939   5.477 -1.0249  0.8240  0.3696
  728MOL0     C98176   7.406   9.968   5.461  0.1784 -1.0454 -0.3075
  728MOL0     C98177   7.343  10.045   5.560 -0.1836 -0.6791  0.3547
  728MOL0     C98178   7.209  10.084   5.546  0.5921  0.4844 -0.0448
  728MOL0     C98179   7.128  10.055   5.435  1.1920  0.7053  0.2643
  728MOL0     O98180   7.002  10.097   5.423 -0.5476 -0.1613 -0.5921
  728MOL0     C98181   6.950  10.146   5.301 -0.0315  0.2541  0.5148
  728MOL0     C98182   6.837  10.071   5.225 -0.3866 -1.1744 -0.2010
  728MOL0     C98183   6.708  10.054   5.305 -0.3192 -0.2292 -0.4015
  728MOL0     C98184   6.670  10.193   5.364 -0.6713  0.0850 -0.5569
  728MOL0     C98185   6.517  10.228   5.395  0.3203  0.6982 -0.3365
  728MOL0     C98186   6.476  10.370   5.421 -0.3994  0.5285  0.5993
  728MOL0     C98187   6.356  10.380   5.502  0.1556 -0.5286 -1.0503
  728MOL0     C98188   6.389  10.361   5.648  0.1584 -0.5530 -1.1522
  728MOL0    Cl98189   6.487  10.495   5.727  0.2668  0.1340 -0.0680
  728MOL0     C98190   7.185   9.969   5.344 -0.6120  0.4396  0.6533
  728MOL0     C98191   7.320   9.930   5.355 -0.1179 -0.4129  0.9346
  728MOL0     O98192   7.481   9.737   5.573  0.0105  0.4079  0.2781
  728MOL0     C98193   7.746   9.666   5.594  0.4638  0.5859 -0.2503
  728MOL0     C98194   7.876   9.621   5.577  0.3469  0.0816  0.9806
  728MOL0     N98195   8.580   9.451   5.646  0.3468 -0.7166 -0.9492
  728MOL0     N98196   8.615   9.400   5.533 -0.0656 -0.0041  0.4405
  728MOL0     C98197   8.408   8.836   5.836  0.7302  0.3130  0.4337
  728MOL0     C98198   8.332   8.953   5.848 -0.8470  0.0727 -0.1638
  728MOL0     C98199   7.937   9.221   5.732  0.2090  0.5229  0.2735
  728MOL0     C98200   7.939   9.267   5.860  0.1555 -1.0804  0.0555
  728MOL0     C98201   7.836   9.356   5.918 -0.6400  0.8584  0.5736
  728MOL0     C98202   7.719   9.377   5.842  0.1600  1.0324  0.1282
  728MOL0     O98203   7.616   9.449   5.902  0.5839  0.2851  0.7372
  728MOL0     C98204   7.488   9.451   5.845 -0.3674  0.1697  0.3143
  728MOL0     C98205   7.401   9.529   5.934 -0.0352 -0.3354  0.4400
  728MOL0     C98206   7.257   9.525   5.885  0.4494  0.9756 -0.2367
  728MOL0     C98207   7.152   9.618   5.953 -0.5648  0.2665 -0.2382
  728MOL0     C98208   7.010   9.617   5.914 -0.4476  0.6754 -0.0651
  728MOL0     C98209   6.891   9.649   5.901 -0.7323 -0.8019 -0.4989
  728MOL0     C98210   7.715   9.316   5.718  0.2482  0.0838  0.2254
  728MOL0     C98211   7.814   9.246   5.662 -0.0845  0.6810  0.2090
  728MOL0     C98212   7.799   9.197   5.519 -0.7885 -0.3077  0.9737
  728MOL0     H98213   8.107   8.881   5.599  0.2690  1.1122 -0.9255
  728MOL0     H98214   8.233   8.652   5.627  0.8387 -1.3699  0.5542
  728MOL0     H98215   8.466   8.451   5.635  1.5316  0.3137 -1.0331
  728MOL0     H98216   8.437   8.599   5.541 -3.2965 -2.3554  0.3307
  728MOL0     H98217   8.672   8.498   5.535  0.7354 -0.1069 -0.2098
  728MOL0     H98218   8.688   8.549   5.703  1.6570 -1.1850 -2.2106
  728MOL0     H98219   8.802   8.740   5.548  0.2959  1.6672 -2.3202
  728MOL0     H98220   8.647   8.802   5.605  0.5806 -0.5550  0.7607
  728MOL0     H98221   8.686   8.640   5.340 -0.1982 -1.1697 -1.5939
  728MOL0     H98222   8.543   8.732   5.386  0.6773 -0.1936 -1.7834
  728MOL0     H98223   8.784   8.894   5.373 -0.2779  0.2466  0.9328
  728MOL0     H98224   8.692   8.826   5.227  0.4489  1.0985 -0.6706
  728MOL0     H98225   8.610   9.014   5.240 -0.3903 -1.9206 -2.0049
  728MOL0     H98226   8.477   8.937   5.316  0.1334  1.6128 -0.1336
  728MOL0     H98227   8.682   9.077   5.483  1.2849  2.5066 -3.0498
  728MOL0     H98228   8.521   9.028   5.533 -1.2878 -1.6454 -0.7772
  728MOL0     H98229   8.582   9.247   5.320 -0.4280 -1.0856 -0.2066
  728MOL0     H98230   8.431   9.191   5.350 -0.5449  0.0070  0.3759
  728MOL0     H98231   8.311   9.268   5.577 -0.1085  1.9134  0.2303
  728MOL0     H98232   8.322   9.382   5.851 -3.7455  2.0611  0.4572
  728MOL0     H98233   8.471   9.472   5.883 -2.6164  1.3371  1.9196
  728MOL0     H98234   8.314   9.662   5.863  0.1652 -2.0627  0.5815
  728MOL0     H98235   8.379   9.649   5.702 -1.2981 -2.9308 -2.6805
  728MOL0     H98236   8.103   9.684   5.746  0.2535  0.8121 -0.3691
  728MOL0     H98237   8.121   9.524   5.811 -0.4908  0.8120 -0.1945
  728MOL0     H98238   8.084   9.459   5.585  1.7494 -0.4681 -0.4693
  728MOL0     H98239   8.245   9.518   5.547  0.5699  0.3393  0.2632
  728MOL0     H98240   7.990   9.881   5.377  0.4407 -0.5787 -1.5721
  728MOL0     H98241   7.747   9.924   5.380 -0.5818  0.2870  1.0760
  728MOL0     H98242   7.400  10.085   5.643 -0.5705 -1.4148  0.9910
  728MOL0     H98243   7.170  10.147   5.625 -2.3137  0.0364 -0.9845
  728MOL0     H98244   6.912  10.247   5.321  1.3641  0.8721  0.1892
  728MOL0     H98245   7.026  10.175   5.228 -0.3204  0.4516  0.2891
  728MOL0     H98246   6.815  10.138   5.141  0.2233  2.0442  2.0026
  728MOL0     H98247   6.861   9.977   5.175 -0.6541  0.4480 -3.7162
  728MOL0     H98248   6.639  10.010   5.234 -0.1845 -1.1544  0.0245
  728MOL0     H98249   6.733   9.976   5.377 -0.0490  0.8774  0.7569
  728MOL0     H98250   6.703  10.261   5.285 -1.1185  2.1107  0.9105
  728MOL0     H98251   6.731  10.230   5.447  2.2755 -1.6660 -1.8056
  728MOL0     H98252   6.505  10.175   5.490  1.3847  1.7857  0.4334
  728MOL0     H98253   6.441  10.190   5.326  1.4166  1.4607 -2.0581
  728MOL0     H98254   6.557  10.425   5.470 -1.0857  3.0138 -0.8796
  728MOL0     H98255   6.466  10.417   5.323  0.1772 -2.7369 -1.1780
  728MOL0     H98256   6.277  10.310   5.474 -3.5303  2.3030  1.2598
  728MOL0     H98257   6.327  10.485   5.490 -0.0576 -0.1180  2.1098
  728MOL0     H98258   6.289  10.371   5.691  0.5065 -1.9875  0.0675
  728MOL0     H98259   6.438  10.269   5.680 -0.1519  0.1655  1.6945
  728MOL0     H98260   7.143   9.921   5.256  2.0538 -2.1623  0.6192
  728MOL0     H98261   7.359   9.871   5.273 -1.4516  0.8653 -0.6810
  728MOL0     H98262   7.684   9.617   5.669  2.5243  1.7201  2.3410
  728MOL0     H98263   7.890   9.529   5.633  0.2829 -0.2634  0.4473
  728MOL0     H98264   8.499   8.839   5.895  2.5375  0.8983 -2.2013
  728MOL0     H98265   8.354   9.030   5.921 -2.3891 -2.8240  3.6559
  728MOL0     H98266   8.015   9.236   5.931  1.9210  0.2010 -1.2097
  728MOL0     H98267   7.856   9.392   6.019  0.0061  3.3221 -0.3665
  728MOL0     H98268   7.454   9.348   5.828 -1.2398  0.5341 -0.1691
  728MOL0     H98269   7.482   9.500   5.747 -6.0734 -1.4989 -0.5351
  728MOL0     H98270   7.427   9.633   5.953  1.2003 -1.0793  3.5107
  728MOL0     H98271   7.394   9.475   6.029 -4.9366 -1.7120 -0.3971
  728MOL0     H98272   7.217   9.423   5.897  0.3281  0.6535 -2.8042
  728MOL0     H98273   7.254   9.549   5.778 -2.7002 -1.6997 -0.9391
  728MOL0     H98274   7.171   9.616   6.061  2.5801 -0.2081 -0.6796
  728MOL0     H98275   7.195   9.717   5.932  2.1129 -1.3469 -3.3098
  728MOL0     H98276   6.789   9.675   5.882 -0.8728  0.0985  1.3000
  728MOL0     H98277   7.624   9.322   5.659 -0.3611  4.2449  1.2749
  728MOL0     H98278   7.811   9.088   5.516 -1.4706 -0.3753 -1.8734
  728MOL0     H98279   7.706   9.233   5.474 -0.3988 -0.9331 -0.3792
  728MOL0     H98280   7.862   9.245   5.444 -2.2812 -0.9912 -0.7924
  729MOL0     O98281  11.371   3.780   5.888 -0.2881  0.9237 -0.5049
  729MOL0     C98282  11.261   3.828   5.923 -0.2357 -0.0077  0.2015
  729MOL0     O98283  11.240   3.936   6.008 -0.0187  1.3084 -0.3178
  729MOL0     C98284  11.340   4.009   6.072  0.1519 -0.1787  0.2842
  729MOL0     C98285  11.471   3.975   6.106 -1.2764  0.1455  0.4543
  729MOL0     C98286  11.565   4.058   6.166  0.1042 -0.0375 -0.4914
  729MOL0     C98287  11.523   4.187   6.202  0.2550 -0.5166 -1.1753
  729MOL0     O98288  11.601   4.282   6.262  0.3066  1.2506  0.2752
  729MOL0     C98289  11.737   4.254   6.274 -0.3985  0.1575 -0.8353
  729MOL0     C98290  11.804   4.397   6.318  1.0330  1.2416 -0.6015
  729MOL0     C98291  11.797   4.403   6.465  0.7148 -0.1450  0.4435
  729MOL0     C98292  11.831   4.543   6.520 -0.1786 -0.1953 -0.5725
  729MOL0     C98293  11.912   4.528   6.654 -0.4127 -0.1474 -1.1137
  729MOL0     C98294  11.966   4.657   6.715 -0.4761  0.2744 -0.0893
  729MOL0     C98295  12.055   4.742   6.623  0.6211  1.3129 -0.3933
  729MOL0     C98296  12.111   4.875   6.676  0.3457 -0.0007  0.1457
  729MOL0     N98297  12.014   4.986   6.690  0.1010  0.0175 -0.7456
  729MOL0     C98298  11.910   5.014   6.604  0.6525  0.2748  0.0834
  729MOL0     C98299  11.807   5.066   6.669  0.5572  0.1373 -0.1910
  729MOL0     C98300  11.664   5.102   6.616  0.0516 -0.7290 -0.0022
  729MOL0     C98301  11.552   5.022   6.681 -0.0802  1.1189 -0.5043
  729MOL0     C98302  11.424   5.074   6.619  0.7171  0.0943  0.2956
  729MOL0     C98303  11.296   5.033   6.693 -0.4228 -0.4760 -0.0748
  729MOL0     O98304  11.187   5.113   6.670  0.6099 -0.3569 -0.1855
  729MOL0     C98305  11.136   5.126   6.542 -0.8414  0.1493  0.1813
  729MOL0     C98306  11.032   5.212   6.517  1.0054 -0.4719  0.2125
  729MOL0     C98307  10.977   5.229   6.396  0.7874  0.6657  0.4384
  729MOL0     C98308  11.028   5.160   6.288 -0.3689 -0.2519 -0.2284
  729MOL0     C98309  10.977   5.187   6.151  0.2669  0.3480  0.6301
  729MOL0     O98310  11.040   5.125   6.051  0.5588  0.5509 -0.4373
  729MOL0     C98311  11.005   5.159   5.926  0.6350 -0.1503  0.1950
  729MOL0     C98312  10.871   5.142   5.869 -1.3270 -0.1655 -0.5774
  729MOL0     C98313  10.845   5.151   5.733  0.8674  0.1062  0.5605
  729MOL0     C98314  10.945   5.202   5.648 -0.4743 -0.6121 -0.7695
  729MOL0     O98315  10.933   5.240   5.515 -0.3148  1.1884  0.8586
  729MOL0     C98316  10.896   5.119   5.446 -0.7442  0.1605  0.3535
  729MOL0     C98317  10.755   5.102   5.396 -0.2932 -0.7302  0.2596
  729MOL0     C98318  10.709   4.952   5.392 -0.0921 -0.1398 -0.1541
  729MOL0     C98319  10.574   4.940   5.335 -0.9817  0.0172  0.2203
  729MOL0     C98320  10.527   4.798   5.320 -0.2653  0.3973 -0.2048
  729MOL0     C98321  10.450   4.752   5.450 -0.6763  0.5013  0.7010
  729MOL0     C98322  10.378   4.621   5.432  0.8143  0.1799  0.3798
  729MOL0     C98323  10.297   4.578   5.548  0.2132 -0.3074  0.8348
  729MOL0    Cl98324  10.187   4.701   5.593 -0.1732  0.1844  0.2632
  729MOL0     C98325  11.068   5.239   5.703 -0.6422  1.3442 -0.8656
  729MOL0     C98326  11.095   5.221   5.838 -0.1927 -0.2419  0.7378
  729MOL0     O98327  10.887   5.269   6.135 -0.5151 -0.2156  0.2604
  729MOL0     C98328  11.120   5.060   6.300  0.0250 -0.0087 -0.4291
  729MOL0     C98329  11.178   5.043   6.429  0.2272  0.2431  0.2808
  729MOL0     N98330  11.847   5.088   6.798  0.0558  0.1131 -0.0322
  729MOL0     N98331  11.962   5.035   6.808 -0.0263 -0.3025 -0.8256
  729MOL0     C98332  11.389   4.227   6.170  0.0289  0.9202  1.2319
  729MOL0     C98333  11.296   4.135   6.117  0.2847  0.4797  0.8902
  729MOL0     C98334  11.140   3.735   5.894  0.0566  0.4044 -0.5893
  729MOL0     C98335  11.049   3.721   5.997 -0.3559  1.0038 -0.0036
  729MOL0     C98336  10.944   3.629   5.984 -0.4989 -0.5974  0.0217
  729MOL0     C98337  10.932   3.545   5.873 -0.1486  0.5905 -0.8868
  729MOL0     O98338  10.837   3.451   5.863 -0.1936 -0.0718 -0.4186
  729MOL0     C98339  10.743   3.471   5.762  0.0877  0.4284  0.4346
  729MOL0     C98340  10.719   3.352   5.673 -0.2858  0.6267 -0.3524
  729MOL0     C98341  10.601   3.382   5.578 -0.2628 -0.5378 -0.3128
  729MOL0     C98342  10.589   3.270   5.467 -0.3953 -0.2004 -0.0868
  729MOL0     C98343  10.519   3.324   5.346  0.2157 -0.3784 -0.1382
  729MOL0     C98344  10.453   3.354   5.246  0.4312  0.6502 -0.4750
  729MOL0     C98345  11.021   3.561   5.773 -0.4893  0.4694  0.0779
  729MOL0     C98346  11.123   3.654   5.778 -0.7687 -0.5707  0.1610
  729MOL0     C98347  11.214   3.657   5.660 -0.2262 -1.0072  0.1448
  729MOL0     H98348  11.481   3.872   6.072  0.4637  1.7575 -4.8885
  729MOL0     H98349  11.666   4.026   6.190 -0.2021  1.0603  2.6677
  729MOL0     H98350  11.764   4.174   6.344 -1.4429 -0.1849 -0.8129
  729MOL0     H98351  11.784   4.232   6.178 -0.2365 -0.0837 -0.7031
  729MOL0     H98352  11.747   4.479   6.273  0.0319  1.6274  1.2508
  729MOL0     H98353  11.904   4.389   6.275  0.3698 -0.8638 -1.9133
  729MOL0     H98354  11.865   4.327   6.506  1.2870 -0.2391 -0.6353
  729MOL0     H98355  11.699   4.369   6.498  0.7838 -0.8706 -0.0640
  729MOL0     H98356  11.893   4.598   6.449  0.6165  1.5923  1.4065
  729MOL0     H98357  11.744   4.606   6.544  1.2442  0.4159  3.9720
  729MOL0     H98358  11.848   4.479   6.727  1.7467  0.8763  1.6606
  729MOL0     H98359  11.993   4.455   6.645  1.0262  0.5602  3.4219
  729MOL0     H98360  11.871   4.711   6.720 -1.5895 -1.6496  0.8550
  729MOL0     H98361  12.022   4.644   6.808  2.0329 -1.7577 -1.7368
  729MOL0     H98362  11.994   4.760   6.535  0.1603  1.1031 -0.1209
  729MOL0     H98363  12.136   4.679   6.584 -1.9353 -2.3999 -0.1904
  729MOL0     H98364  12.172   4.854   6.764  1.4699  1.6352 -0.1876
  729MOL0     H98365  12.172   4.899   6.588 -0.4648  2.8922  0.2614
  729MOL0     H98366  11.913   4.987   6.499  0.0332 -1.2912  0.4358
  729MOL0     H98367  11.655   5.210   6.631  0.6846 -0.8889  1.7900
  729MOL0     H98368  11.655   5.064   6.514  0.2069 -1.7271  0.3448
  729MOL0     H98369  11.566   4.914   6.674  2.3991  1.1870  1.8621
  729MOL0     H98370  11.545   5.058   6.784 -2.9460  0.3290 -0.3382
  729MOL0     H98371  11.424   5.030   6.519  0.4190 -1.1668  0.8451
  729MOL0     H98372  11.442   5.181   6.603  1.9213 -0.1310  0.0205
  729MOL0     H98373  11.317   5.040   6.800  0.5361  2.0954 -0.3434
  729MOL0     H98374  11.269   4.929   6.675 -0.8065 -0.8938  2.5539
  729MOL0     H98375  10.983   5.263   6.600 -1.8028  0.7483 -2.0173
  729MOL0     H98376  10.902   5.306   6.377  0.0463 -0.7412 -3.0441
  729MOL0     H98377  10.790   5.107   5.932 -1.4190 -2.0916 -1.6627
  729MOL0     H98378  10.744   5.129   5.700  0.6074 -0.7852  1.8446
  729MOL0     H98379  10.957   5.099   5.357  0.4022 -1.0843  1.3876
  729MOL0     H98380  10.919   5.032   5.507 -1.8088 -2.2777 -2.5057
  729MOL0     H98381  10.682   5.166   5.447 -0.5907 -0.7483 -0.1406
  729MOL0     H98382  10.741   5.148   5.298 -3.9380  2.1138  1.8654
  729MOL0     H98383  10.771   4.886   5.330  0.9029 -1.8062  2.4304
  729MOL0     H98384  10.705   4.900   5.488  1.7727  1.5975  0.9164
  729MOL0     H98385  10.599   4.977   5.235  0.6184  2.0441  1.2881
  729MOL0     H98386  10.504   5.009   5.383  0.1349  0.8218  0.7408
  729MOL0     H98387  10.601   4.726   5.284 -0.4473 -1.2587  2.4809
  729MOL0     H98388  10.449   4.793   5.242 -2.1289  0.2969  1.5874
  729MOL0     H98389  10.514   4.752   5.539  1.4944  4.3918 -0.6593
  729MOL0     H98390  10.379   4.832   5.471 -0.0859  1.2590 -0.1373
  729MOL0     H98391  10.451   4.540   5.422  0.2329 -0.6858  2.5385
  729MOL0     H98392  10.321   4.621   5.339 -0.8680  0.5398  1.3743
  729MOL0     H98393  10.235   4.491   5.522 -2.8154  2.3039 -1.4405
  729MOL0     H98394  10.355   4.557   5.639  0.4880 -1.6299  0.3764
  729MOL0     H98395  11.139   5.287   5.636 -1.2139  2.1490 -0.9188
  729MOL0     H98396  11.192   5.255   5.872 -0.1829 -1.2941  1.8358
  729MOL0     H98397  11.149   4.994   6.219  2.8512 -2.4777  2.3094
  729MOL0     H98398  11.252   4.968   6.457 -2.0133 -1.0557  3.2564
  729MOL0     H98399  11.352   4.329   6.181  0.0208  0.7719  2.8003
  729MOL0     H98400  11.197   4.169   6.088  0.0731 -0.8812 -0.1034
  729MOL0     H98401  11.061   3.773   6.092  0.7260  1.9428 -0.6308
  729MOL0     H98402  10.870   3.624   6.063  1.0221 -0.9233  1.4739
  729MOL0     H98403  10.753   3.560   5.699 -3.0941 -0.6348 -1.8287
  729MOL0     H98404  10.645   3.487   5.808 -1.7142 -1.1573 -2.5360
  729MOL0     H98405  10.692   3.264   5.733 -0.3075 -0.4421 -1.8758
  729MOL0     H98406  10.814   3.334   5.621 -0.5749 -1.0583 -0.3811
  729MOL0     H98407  10.625   3.473   5.523  2.5154 -1.6724 -1.1588
  729MOL0     H98408  10.507   3.400   5.632 -0.5883 -0.1026 -1.0162
  729MOL0     H98409  10.686   3.231   5.433 -0.9860 -0.1011 -1.9847
  729MOL0     H98410  10.528   3.192   5.512 -0.9538  0.9870  1.3056
  729MOL0     H98411  10.417   3.361   5.146  1.0875 -1.2431 -0.8772
  729MOL0     H98412  10.992   3.496   5.692 -2.7562  1.3129  0.1312
  729MOL0     H98413  11.171   3.625   5.564 -0.6497 -2.2832  0.7411
  729MOL0     H98414  11.249   3.756   5.631 -3.4806 -0.9232 -4.7103
  729MOL0     H98415  11.299   3.589   5.674 -1.6315 -3.3135 -1.6564
  730MOL0     O98416   1.601   6.571   5.519 -0.2516 -0.1917  0.9785
  730MOL0     C98417   1.491   6.615   5.552 -0.2009  0.5335  0.5142
  730MOL0     O98418   1.416   6.705   5.488  0.8026  0.2117 -0.8811
  730MOL0     C98419   1.479   6.802   5.416 -0.5262  0.1549 -0.0202
  730MOL0     C98420   1.495   6.924   5.480 -0.5076  0.3247  0.0008
  730MOL0     C98421   1.545   7.035   5.405 -0.3092 -0.3584  0.0781
  730MOL0     C98422   1.605   7.022   5.274 -0.0007  0.3114 -0.6686
  730MOL0     O98423   1.650   7.140   5.223  0.0759  0.2839  0.5219
  730MOL0     C98424   1.653   7.155   5.079 -0.6866 -0.1423 -0.1380
  730MOL0     C98425   1.514   7.163   5.023 -1.1267  0.3433  0.3963
  730MOL0     C98426   1.493   7.068   4.894 -0.1117 -0.6834 -0.2476
  730MOL0     C98427   1.348   7.038   4.889  1.1907  0.3842  0.6940
  730MOL0     C98428   1.297   6.994   4.756  0.6741  0.0116  0.1689
  730MOL0     C98429   1.151   6.983   4.745  0.7593 -0.0685 -0.1027
  730MOL0     C98430   1.079   6.855   4.803  0.8047 -0.6177 -0.2070
  730MOL0     C98431   0.936   6.869   4.773  0.5374 -0.5449 -0.4677
  730MOL0     N98432   0.867   6.767   4.841 -0.3828 -0.2424 -0.3069
  730MOL0     C98433   0.809   6.759   4.966  0.1356 -0.6859  0.0365
  730MOL0     C98434   0.747   6.635   4.962 -0.7721 -0.4649 -1.2587
  730MOL0     C98435   0.669   6.577   5.079  0.2114 -0.1652 -0.0236
  730MOL0     C98436   0.523   6.620   5.059  0.0369  0.1276  0.9500
  730MOL0     C98437   0.412   6.548   5.145  0.5353  0.3237  0.8848
  730MOL0     C98438   0.268   6.597   5.107  0.4950 -0.5962 -0.3379
  730MOL0     O98439   0.241   6.726   5.164 -0.5372 -0.2486  0.7537
  730MOL0     C98440   0.126   6.789   5.110  0.5774  0.0876 -0.8114
  730MOL0     C98441   0.136   6.914   5.059 -0.5111  0.6254  0.0306
  730MOL0     C98442   0.039   6.985   4.991  0.6484 -0.3598 -0.2938
  730MOL0     C98443  -0.085   6.923   4.984  0.4456 -0.2868 -0.3289
  730MOL0     C98444  -0.190   6.980   4.898 -0.1082  0.2440  0.2232
  730MOL0     O98445  -0.149   7.064   4.801  0.1552  0.1307  0.2518
  730MOL0     C98446  -0.205   7.116   4.687 -0.3875 -1.1219  0.1854
  730MOL0     C98447  -0.323   7.071   4.630 -0.3346  0.4070  0.1503
  730MOL0     C98448  -0.367   7.129   4.509 -0.1461  0.5316 -0.3675
  730MOL0     C98449  -0.310   7.242   4.453 -0.1773 -0.2159 -0.8272
  730MOL0     O98450  -0.372   7.301   4.343 -0.1725  0.1020 -0.6177
  730MOL0     C98451  -0.306   7.403   4.279  0.3256 -0.5883  0.8141
  730MOL0     C98452  -0.384   7.470   4.169 -0.0513 -0.8498  0.7076
  730MOL0     C98453  -0.361   7.365   4.050  0.5062 -0.3592 -0.3229
  730MOL0     C98454  -0.393   7.419   3.913 -0.4846 -0.9085  0.0912
  730MOL0     C98455  -0.297   7.344   3.806  0.3127 -1.0609 -0.0666
  730MOL0     C98456  -0.320   7.192   3.805  0.2984  0.3142 -0.7349
  730MOL0     C98457  -0.275   7.134   3.680 -1.1281  0.6616  0.0757
  730MOL0     C98458  -0.136   7.158   3.635  0.1994 -1.8385  0.3278
  730MOL0    Cl98459  -0.095   7.066   3.485  0.9000 -0.7543  0.5170
  730MOL0     C98460  -0.188   7.280   4.505 -0.1073  1.3362  1.3812
  730MOL0     C98461  -0.129   7.219   4.614 -0.0665  0.1621 -0.4132
  730MOL0     O98462  -0.303   6.942   4.916  0.8054  0.8258  0.4568
  730MOL0     C98463  -0.101   6.791   5.037  0.6168 -0.4669  0.6872
  730MOL0     C98464   0.002   6.728   5.094  1.3476  1.4654  0.3407
  730MOL0     N98465   0.762   6.573   4.845  0.7023  0.8855 -0.7507
  730MOL0     N98466   0.843   6.653   4.773  0.1118  0.7274 -0.3877
  730MOL0     C98467   1.619   6.891   5.222  0.1143  0.2841  0.2676
  730MOL0     C98468   1.548   6.786   5.298  0.4058  0.2733  1.0615
  730MOL0     C98469   1.427   6.530   5.647 -0.1859  0.4215  0.3175
  730MOL0     C98470   1.290   6.506   5.651  0.2927  0.7517 -0.7295
  730MOL0     C98471   1.220   6.417   5.732  0.4163  0.1095  0.1801
  730MOL0     C98472   1.296   6.343   5.826 -0.2813  0.0039 -0.1562
  730MOL0     O98473   1.225   6.255   5.911  0.4222  0.8398 -0.5817
  730MOL0     C98474   1.286   6.246   6.042  0.3062  0.1585 -0.6345
  730MOL0     C98475   1.190   6.169   6.138  0.0002  0.2910 -0.3220
  730MOL0     C98476   1.067   6.263   6.176 -0.3074  0.2739 -0.3011
  730MOL0     C98477   1.008   6.209   6.315  0.5464  1.5172 -0.6474
  730MOL0     C98478   1.081   6.242   6.444  0.1578 -0.1933  0.0452
  730MOL0     C98479   1.144   6.278   6.541 -0.3405 -0.1220 -0.0915
  730MOL0     C98480   1.442   6.378   5.835  1.1717  0.9107  0.5764
  730MOL0     C98481   1.502   6.465   5.753  0.2537  0.3274 -0.0025
  730MOL0     C98482   1.654   6.485   5.790 -0.9215  1.6614 -0.3565
  730MOL0     H98483   1.445   6.933   5.575  1.8099 -1.0076  1.4576
  730MOL0     H98484   1.524   7.135   5.441  3.0118  0.8155 -0.9168
  730MOL0     H98485   1.711   7.245   5.059  0.3550 -0.7725 -0.0280
  730MOL0     H98486   1.712   7.077   5.031 -0.2057  1.0721 -1.5894
  730MOL0     H98487   1.497   7.266   4.989  0.1858 -0.1284 -1.8539
  730MOL0     H98488   1.451   7.148   5.111 -1.2838  1.9787  0.6063
  730MOL0     H98489   1.548   6.976   4.920  0.6147  0.5154  2.9703
  730MOL0     H98490   1.531   7.118   4.805 -0.0171 -0.3924 -0.0434
  730MOL0     H98491   1.328   6.962   4.965 -0.3742  0.1069  0.0486
  730MOL0     H98492   1.295   7.130   4.914  0.1092  0.4058 -1.4484
  730MOL0     H98493   1.324   7.078   4.691 -0.0277  0.3836  0.3431
  730MOL0     H98494   1.350   6.901   4.734  1.1106 -0.1915  1.8966
  730MOL0     H98495   1.110   7.068   4.801  0.7709 -0.7452  0.9605
  730MOL0     H98496   1.119   6.992   4.641  0.7751  1.1478 -0.0187
  730MOL0     H98497   1.089   6.843   4.911  0.6259 -0.8469 -0.2149
  730MOL0     H98498   1.105   6.754   4.768  0.5918 -0.9355  0.5316
  730MOL0     H98499   0.909   6.969   4.810 -0.1718 -0.8608 -0.1114
  730MOL0     H98500   0.910   6.870   4.666 -2.1193  4.7612 -0.1141
  730MOL0     H98501   0.816   6.829   5.048 -1.0490 -2.2055  1.5116
  730MOL0     H98502   0.687   6.469   5.074 -2.5547 -0.9006  2.8859
  730MOL0     H98503   0.708   6.621   5.171 -0.2433  3.2958 -1.3246
  730MOL0     H98504   0.517   6.728   5.074 -0.3443  0.3925 -0.8867
  730MOL0     H98505   0.485   6.618   4.957  2.1925 -1.5560  0.1040
  730MOL0     H98506   0.427   6.553   5.253  1.8818 -1.8277  0.8583
  730MOL0     H98507   0.420   6.442   5.117 -1.8545  0.0794  0.8794
  730MOL0     H98508   0.190   6.530   5.145 -1.1711 -0.2574 -2.9177
  730MOL0     H98509   0.257   6.604   4.999 -1.6650 -1.1690 -0.2051
  730MOL0     H98510   0.228   6.968   5.076  0.6549 -0.6140 -1.8757
  730MOL0     H98511   0.070   7.083   4.957  2.3029  0.2453  2.6577
  730MOL0     H98512  -0.399   7.007   4.675 -1.4962  1.3833 -0.3759
  730MOL0     H98513  -0.451   7.089   4.452  0.1765  1.4939 -1.5865
  730MOL0     H98514  -0.293   7.480   4.356  0.0977 -0.9960  1.2718
  730MOL0     H98515  -0.207   7.374   4.243  1.1718  1.4015  1.4085
  730MOL0     H98516  -0.490   7.470   4.195 -0.0910  0.5262  0.6052
  730MOL0     H98517  -0.343   7.569   4.149 -0.4287 -0.3136  2.4428
  730MOL0     H98518  -0.258   7.330   4.060 -0.6989 -4.0412  0.8723
  730MOL0     H98519  -0.425   7.276   4.057 -0.1781  0.0645 -1.0263
  730MOL0     H98520  -0.366   7.524   3.902  3.5177 -1.8299 -0.6085
  730MOL0     H98521  -0.500   7.407   3.891 -0.6448  2.9762 -2.0737
  730MOL0     H98522  -0.190   7.350   3.829 -0.1351 -4.4972  4.0890
  730MOL0     H98523  -0.311   7.387   3.706  0.4250 -1.9194 -0.4653
  730MOL0     H98524  -0.272   7.144   3.891  1.3218  0.2432 -1.3307
  730MOL0     H98525  -0.425   7.164   3.819  0.7793 -2.5989 -2.1236
  730MOL0     H98526  -0.337   7.169   3.597 -0.7071  2.4996  0.4887
  730MOL0     H98527  -0.282   7.025   3.689  0.4863  0.3370 -1.9495
  730MOL0     H98528  -0.111   7.264   3.632  1.9932 -2.1755  1.5604
  730MOL0     H98529  -0.063   7.133   3.712  1.7468  1.7902  0.2482
  730MOL0     H98530  -0.138   7.361   4.453  0.8671  0.7277  1.3580
  730MOL0     H98531  -0.028   7.244   4.646  0.1176 -2.3880  1.2326
  730MOL0     H98532  -0.194   6.735   5.033 -1.6555  3.0102  0.3359
  730MOL0     H98533  -0.037   6.637   5.138  0.0375  2.3642  1.1243
  730MOL0     H98534   1.661   6.842   5.135 -0.6097 -0.2975  0.2351
  730MOL0     H98535   1.539   6.687   5.253  0.2421  0.4595  0.6847
  730MOL0     H98536   1.228   6.569   5.588  0.1469  1.8680  0.5060
  730MOL0     H98537   1.114   6.400   5.716  0.7966 -1.7141 -0.6568
  730MOL0     H98538   1.316   6.336   6.095 -0.1816  0.9258 -1.6265
  730MOL0     H98539   1.376   6.184   6.035 -0.2243 -1.0172  1.9111
  730MOL0     H98540   1.250   6.144   6.226 -0.9791 -2.9138 -0.4578
  730MOL0     H98541   1.152   6.074   6.101 -2.6854  0.4294  1.7298
  730MOL0     H98542   0.992   6.229   6.104  0.1548 -0.2196 -0.5577
  730MOL0     H98543   1.083   6.371   6.173 -1.4617  0.6845  3.1156
  730MOL0     H98544   0.911   6.257   6.331 -0.6125 -0.1217 -2.3696
  730MOL0     H98545   0.988   6.102   6.311  0.0970  1.6325 -3.4755
  730MOL0     H98546   1.206   6.327   6.613 -1.7003  1.2966  0.1516
  730MOL0     H98547   1.507   6.330   5.907  1.4567  1.5642  0.7592
  730MOL0     H98548   1.661   6.476   5.899 -3.0297 -1.9493 -0.3764
  730MOL0     H98549   1.718   6.405   5.752  0.1075  2.4555 -0.3485
  730MOL0     H98550   1.701   6.575   5.748 -0.1699  0.0574 -3.2009
  731MOL0     O98551   8.838  11.520   8.411 -0.7048 -0.8767  0.4607
  731MOL0     C98552   8.944  11.511   8.347  0.5225  0.0114  0.1108
  731MOL0     O98553   9.066  11.502   8.401  0.3519 -0.6517 -0.5340
  731MOL0     C98554   9.070  11.487   8.536 -0.6565 -0.6919 -0.1833
  731MOL0     C98555   9.031  11.363   8.601  1.0750 -0.2586 -0.5153
  731MOL0     C98556   9.045  11.348   8.739  0.5428  0.0575  1.2746
  731MOL0     C98557   9.109  11.443   8.816 -0.6793  0.0308 -0.2696
  731MOL0     O98558   9.126  11.404   8.951 -0.5038  0.0617  0.3193
  731MOL0     C98559   9.237  11.465   9.017 -0.2332 -0.4729 -0.6009
  731MOL0     C98560   9.284  11.382   9.135  0.0337 -0.4133 -1.0017
  731MOL0     C98561   9.170  11.377   9.233  0.2480  0.6422 -0.7802
  731MOL0     C98562   9.184  11.243   9.317 -0.8944  0.3385 -0.1385
  731MOL0     C98563   9.092  11.238   9.442  0.5367 -0.6775  1.0887
  731MOL0     C98564   9.131  11.120   9.532 -0.5558  0.2891  0.7351
  731MOL0     C98565   9.027  11.100   9.640  1.1135 -0.4577 -0.1504
  731MOL0     C98566   9.054  10.965   9.707  0.4648 -0.0015 -0.0126
  731MOL0     N98567   8.948  10.936   9.807  0.7562  0.7898  0.3168
  731MOL0     C98568   8.930  10.997   9.926  0.6456  0.7919 -0.9826
  731MOL0     C98569   8.830  10.932  10.002 -0.5428  0.1806 -0.1078
  731MOL0     C98570   8.780  10.986  10.137 -1.5683  0.3937 -0.6203
  731MOL0     C98571   8.630  11.003  10.127  0.5973 -0.2004  0.6007
  731MOL0     C98572   8.565  11.119  10.215 -0.0272  0.1035 -0.0300
  731MOL0     C98573   8.411  11.140  10.203  0.4940 -1.3442 -0.0735
  731MOL0     O98574   8.383  11.277  10.237 -0.3452  0.2244  0.6891
  731MOL0     C98575   8.364  11.357  10.125  0.6100 -0.4059 -0.9050
  731MOL0     C98576   8.237  11.367  10.080  1.0450  0.7244  1.5053
  731MOL0     C98577   8.196  11.442   9.970  0.3913  1.7081  0.2781
  731MOL0     C98578   8.286  11.516   9.900 -0.6057 -0.0790  0.2772
  731MOL0     C98579   8.233  11.616   9.802  0.4178 -0.4046  0.5522
  731MOL0     O98580   8.321  11.663   9.704 -0.3380 -0.7104  0.6430
  731MOL0     C98581   8.297  11.747   9.592 -0.2282  0.4128 -0.5566
  731MOL0     C98582   8.180  11.732   9.524  0.0298  0.7034  0.2923
  731MOL0     C98583   8.165  11.804   9.405 -1.0301  0.2790 -1.1000
  731MOL0     C98584   8.264  11.896   9.357 -0.2857  1.0573 -0.7038
  731MOL0     O98585   8.243  11.988   9.260  0.7530  0.2134 -0.3359
  731MOL0     C98586   8.180  11.953   9.136 -0.6160  0.3007  0.3493
  731MOL0     C98587   8.050  12.040   9.127 -0.6153 -0.3532  0.3049
  731MOL0     C98588   8.060  12.195   9.151  0.5791  0.0488 -0.6327
  731MOL0     C98589   7.922  12.272   9.151 -1.0782  0.5272 -0.4268
  731MOL0     C98590   7.829  12.249   9.030 -0.1942 -0.6811  0.8400
  731MOL0     C98591   7.885  12.298   8.891  0.1140 -0.3328  0.7988
  731MOL0     C98592   7.801  12.234   8.783  0.5001 -0.2047 -0.3231
  731MOL0     C98593   7.821  12.083   8.749  0.4619  0.1281  0.6275
  731MOL0    Cl98594   7.719  12.004   8.634 -0.3814  0.0008 -0.5858
  731MOL0     C98595   8.385  11.901   9.430 -0.6027  1.3440  0.5863
  731MOL0     C98596   8.400  11.829   9.546  0.1360 -0.4388  0.1693
  731MOL0     O98597   8.113  11.645   9.809  0.0403  0.3230  0.6588
  731MOL0     C98598   8.424  11.517   9.943 -0.6557 -0.1261 -0.2586
  731MOL0     C98599   8.454  11.435  10.055 -0.2400 -0.4161  0.1294
  731MOL0     N98600   8.784  10.825   9.921  0.0537 -0.4205 -0.3925
  731MOL0     N98601   8.853  10.829   9.809  0.0897  1.2332 -0.6821
  731MOL0     C98602   9.151  11.561   8.756 -0.2293 -0.5418  0.6537
  731MOL0     C98603   9.124  11.590   8.621  0.6455  0.1611 -0.7235
  731MOL0     C98604   8.920  11.502   8.204 -0.5419 -0.6439  0.7122
  731MOL0     C98605   8.804  11.434   8.152 -0.3943  0.4518  0.2359
  731MOL0     C98606   8.795  11.405   8.013  0.4336  0.0503 -0.3385
  731MOL0     C98607   8.900  11.421   7.929  0.6119 -1.3345  0.8761
  731MOL0     O98608   8.894  11.370   7.801  0.1441 -0.4676  0.4323
  731MOL0     C98609   8.994  11.416   7.711 -0.7302 -1.1438 -0.5761
  731MOL0     C98610   8.959  11.347   7.588  0.1035 -0.2700 -0.0735
  731MOL0     C98611   9.086  11.332   7.501  0.0886 -0.5922 -0.2765
  731MOL0     C98612   9.205  11.255   7.555 -0.0284  0.2082  0.5115
  731MOL0     C98613   9.175  11.107   7.572 -1.2866 -0.8622  0.2985
  731MOL0     C98614   9.143  10.989   7.575  0.8688  0.8393  0.2548
  731MOL0     C98615   9.012  11.491   7.986  0.3794 -1.4482  1.0759
  731MOL0     C98616   9.020  11.537   8.114 -0.1931 -0.7572  0.1771
  731MOL0     C98617   9.141  11.627   8.139 -0.2001 -0.0324  0.3892
  731MOL0     H98618   8.985  11.277   8.554  2.7682 -3.1143  2.6005
  731MOL0     H98619   9.003  11.261   8.789 -2.6609  1.2544  0.8797
  731MOL0     H98620   9.318  11.485   8.946 -1.5389  2.1324 -1.4851
  731MOL0     H98621   9.199  11.563   9.046 -1.2275 -0.2174 -2.5992
  731MOL0     H98622   9.368  11.441   9.173 -1.5990  2.0016 -0.9387
  731MOL0     H98623   9.308  11.285   9.091  0.6113  0.1956 -2.0722
  731MOL0     H98624   9.078  11.396   9.178 -0.0753  2.2345  0.2478
  731MOL0     H98625   9.181  11.456   9.308  1.0848 -1.5699  1.5515
  731MOL0     H98626   9.159  11.155   9.256 -0.8929 -1.2177  1.9932
  731MOL0     H98627   9.290  11.238   9.344 -1.4369  2.2228  2.7655
  731MOL0     H98628   9.103  11.337   9.487 -3.1986  1.3479 -1.8387
  731MOL0     H98629   8.993  11.223   9.400  1.6076 -1.2024 -1.4189
  731MOL0     H98630   9.139  11.031   9.469  1.4340  1.2403 -0.4825
  731MOL0     H98631   9.232  11.139   9.569  1.7044 -2.5454 -3.2721
  731MOL0     H98632   8.927  11.103   9.596  0.8567 -1.7430  0.3020
  731MOL0     H98633   9.034  11.186   9.707 -1.1955 -1.1905  1.1501
  731MOL0     H98634   9.052  10.893   9.625 -1.2979  1.7737 -1.6517
  731MOL0     H98635   9.151  10.951   9.756  0.7368 -2.4593 -1.0903
  731MOL0     H98636   8.993  11.082   9.950  4.0446 -1.5009 -1.1312
  731MOL0     H98637   8.813  10.936  10.229  1.2956  0.7594 -1.3567
  731MOL0     H98638   8.839  11.076  10.157  2.5285 -2.4423  1.5563
  731MOL0     H98639   8.614  11.045  10.027 -0.6066 -0.0812  0.8302
  731MOL0     H98640   8.577  10.908  10.135  0.3022 -0.1863 -0.9070
  731MOL0     H98641   8.616  11.211  10.186  1.0059  0.0266  1.4177
  731MOL0     H98642   8.583  11.106  10.322  1.7893 -0.6557 -0.3983
  731MOL0     H98643   8.364  11.064  10.266  0.9778 -2.5120 -1.0661
  731MOL0     H98644   8.369  11.129  10.103 -0.0251  1.8313 -0.3100
  731MOL0     H98645   8.170  11.292  10.122  1.1373  0.4514  1.1684
  731MOL0     H98646   8.089  11.447   9.955 -0.1831 -3.4769  1.0512
  731MOL0     H98647   8.111  11.655   9.556 -0.9573  1.1033 -0.8203
  731MOL0     H98648   8.067  11.792   9.359 -2.4069 -1.7368  1.9735
  731MOL0     H98649   8.239  11.982   9.048 -0.8903 -2.2001 -0.7431
  731MOL0     H98650   8.147  11.850   9.118 -2.4960  0.7693  0.8697
  731MOL0     H98651   8.011  12.022   9.026  1.7520  0.6166 -0.8691
  731MOL0     H98652   7.976  12.008   9.201  0.8415  2.3496  3.1266
  731MOL0     H98653   8.099  12.216   9.251 -0.1332  5.3182 -1.1913
  731MOL0     H98654   8.128  12.236   9.075  1.2023 -0.4270 -0.3496
  731MOL0     H98655   7.951  12.376   9.170  2.4122 -0.5924  1.3819
  731MOL0     H98656   7.872  12.224   9.236  1.2026 -3.7233 -1.1628
  731MOL0     H98657   7.748  12.319   9.051 -1.0125 -0.7836 -1.6393
  731MOL0     H98658   7.798  12.144   9.024  0.6721 -0.8640 -1.6011
  731MOL0     H98659   7.894  12.401   8.857  2.5614 -1.7797 -3.8234
  731MOL0     H98660   7.988  12.262   8.876  1.1890  2.2176  1.5284
  731MOL0     H98661   7.822  12.297   8.696  6.1981  1.0266  1.5444
  731MOL0     H98662   7.693  12.249   8.793  0.6080  1.1747 -1.0246
  731MOL0     H98663   7.925  12.073   8.717 -0.8511 -0.3219 -4.3030
  731MOL0     H98664   7.803  12.023   8.839 -4.0745  2.1821  1.3769
  731MOL0     H98665   8.461  11.969   9.392  0.7175 -1.1552 -1.5316
  731MOL0     H98666   8.488  11.833   9.609  1.0177 -0.1463 -1.0313
  731MOL0     H98667   8.500  11.587   9.912 -0.3641 -0.2277  0.2259
  731MOL0     H98668   8.558  11.440  10.088  0.6037  1.2909 -2.4773
  731MOL0     H98669   9.184  11.647   8.813 -1.7909 -0.2854  1.2165
  731MOL0     H98670   9.133  11.690   8.580  2.8693 -0.7537 -2.6657
  731MOL0     H98671   8.726  11.402   8.220 -2.4069  3.5146 -0.4748
  731MOL0     H98672   8.712  11.354   7.967  1.5157 -2.1179 -0.0255
  731MOL0     H98673   9.097  11.401   7.745 -0.0393  3.2564 -0.1018
  731MOL0     H98674   8.981  11.524   7.698 -1.0941 -1.2690 -1.3582
  731MOL0     H98675   8.886  11.413   7.540 -0.7539 -0.0803  1.4315
  731MOL0     H98676   8.918  11.246   7.603 -0.3545  0.1021  1.3984
  731MOL0     H98677   9.115  11.431   7.465 -1.5473  0.0765  0.1318
  731MOL0     H98678   9.053  11.276   7.413  1.6168 -3.8745  1.0905
  731MOL0     H98679   9.296  11.263   7.496  2.9841 -1.2618  4.4732
  731MOL0     H98680   9.245  11.297   7.648  0.2733 -2.2936  1.5805
  731MOL0     H98681   9.107  10.889   7.571  2.7092  0.1204  0.3738
  731MOL0     H98682   9.092  11.516   7.917 -1.2498  1.8934  0.2091
  731MOL0     H98683   9.220  11.584   8.078  0.8701  1.2197  0.8627
  731MOL0     H98684   9.120  11.727   8.100  3.5583  0.3635 -0.9469
  731MOL0     H98685   9.174  11.623   8.244 -4.0653 -2.3349  1.7735
  732MOL0     O98686   1.248   7.359   1.057  0.2438  0.8406  0.0965
  732MOL0     C98687   1.337   7.409   0.988  0.3431  0.2838 -1.1289
  732MOL0     O98688   1.397   7.524   1.024 -0.0235 -0.8267 -0.4144
  732MOL0     C98689   1.411   7.564   1.160  1.1985 -0.3025 -0.5571
  732MOL0     C98690   1.423   7.704   1.187  0.4279  0.5201 -0.0925
  732MOL0     C98691   1.422   7.751   1.313 -0.6933  0.3581  0.1860
  732MOL0     C98692   1.417   7.666   1.421 -0.4020  1.4175  0.3437
  732MOL0     O98693   1.416   7.702   1.554 -0.0519  0.1684 -1.2537
  732MOL0     C98694   1.440   7.840   1.591  0.8263 -0.3086  0.5508
  732MOL0     C98695   1.468   7.842   1.737  0.0068 -0.3325  0.6476
  732MOL0     C98696   1.467   7.982   1.799 -0.0701  0.1239  0.1877
  732MOL0     C98697   1.488   7.974   1.955 -0.0995  0.4430  0.8916
  732MOL0     C98698   1.640   7.994   1.994 -0.0936 -0.7585  0.5111
  732MOL0     C98699   1.744   7.886   1.970 -0.1745  1.0355 -0.3678
  732MOL0     C98700   1.709   7.743   2.034  0.7166 -0.0675 -0.1501
  732MOL0     C98701   1.690   7.727   2.182  0.4945  0.1463 -0.2100
  732MOL0     N98702   1.800   7.769   2.259 -0.1056  0.4130 -0.0590
  732MOL0     C98703   1.888   7.673   2.302 -0.5343  0.5662  0.3098
  732MOL0     C98704   1.944   7.721   2.420 -0.5482 -0.3246 -0.2432
  732MOL0     C98705   2.034   7.662   2.532 -0.6883  0.1357  0.3362
  732MOL0     C98706   2.076   7.517   2.499  0.8185 -0.5740 -1.1248
  732MOL0     C98707   2.204   7.507   2.407  0.2731 -0.0155 -0.1087
  732MOL0     C98708   2.247   7.364   2.364 -0.2755 -0.1459  0.1166
  732MOL0     O98709   2.290   7.318   2.490 -0.0441  0.5249  0.1948
  732MOL0     C98710   2.367   7.202   2.480 -0.3356 -0.9684  0.0070
  732MOL0     C98711   2.496   7.187   2.528  0.9388 -0.3173  0.9012
  732MOL0     C98712   2.546   7.057   2.547  0.1512  0.0587 -0.0884
  732MOL0     C98713   2.456   6.944   2.544 -0.1283  0.6205 -0.1800
  732MOL0     C98714   2.517   6.813   2.584  0.5582  0.1832 -0.0114
  732MOL0     O98715   2.658   6.801   2.613  0.5209 -0.7739 -0.3652
  732MOL0     C98716   2.704   6.691   2.671 -0.3424  0.8796  0.7469
  732MOL0     C98717   2.763   6.691   2.800  0.4822  0.6739  0.7893
  732MOL0     C98718   2.825   6.580   2.858  0.7501 -0.9735 -0.4650
  732MOL0     C98719   2.831   6.460   2.777  0.1460 -0.3443  0.1442
  732MOL0     O98720   2.897   6.343   2.813  0.8647  0.2794 -0.1441
  732MOL0     C98721   2.943   6.312   2.954 -0.5282 -0.8425  0.3722
  732MOL0     C98722   3.034   6.188   2.965  0.1814 -0.4703 -0.2281
  732MOL0     C98723   2.974   6.068   2.912  0.3347  0.6309 -0.0454
  732MOL0     C98724   3.050   5.949   2.960  0.8379  0.3289 -0.9666
  732MOL0     C98725   3.012   5.905   3.105 -0.1782 -0.0547 -0.5607
  732MOL0     C98726   2.905   5.802   3.105  0.1007 -1.2357 -0.6000
  732MOL0     C98727   2.771   5.850   3.074  0.6970 -0.6159  0.4349
  732MOL0     C98728   2.665   5.749   3.079 -0.1993  0.5929  0.1882
  732MOL0    Cl98729   2.514   5.843   3.055 -0.6501  0.1564 -0.0871
  732MOL0     C98730   2.782   6.461   2.650  0.5649  0.2076  0.7494
  732MOL0     C98731   2.719   6.574   2.601  0.5672 -0.4018  0.3287
  732MOL0     O98732   2.441   6.721   2.598 -0.2314 -0.1446  0.3284
  732MOL0     C98733   2.329   6.958   2.495  0.4901 -0.7031 -0.1557
  732MOL0     C98734   2.287   7.085   2.462  0.7404 -1.0893 -0.1909
  732MOL0     N98735   1.904   7.856   2.429  0.4947  0.1788 -0.1302
  732MOL0     N98736   1.812   7.873   2.337 -0.4775 -0.3900 -0.1372
  732MOL0     C98737   1.389   7.528   1.404 -0.7980 -0.4121 -0.2612
  732MOL0     C98738   1.393   7.479   1.275 -0.3203  0.6869 -0.6081
  732MOL0     C98739   1.375   7.346   0.855  0.4998 -0.0567  0.3672
  732MOL0     C98740   1.500   7.378   0.800 -0.0946 -0.2807  0.1986
  732MOL0     C98741   1.538   7.326   0.676 -0.0952  0.3445  1.3150
  732MOL0     C98742   1.449   7.241   0.605 -0.1639 -0.0953  0.8076
  732MOL0     O98743   1.475   7.202   0.472  0.4146 -0.4094  0.0574
  732MOL0     C98744   1.604   7.208   0.418  0.0757  0.9954  0.3159
  732MOL0     C98745   1.598   7.184   0.267  0.6453 -0.4390  0.4870
  732MOL0     C98746   1.539   7.039   0.244  0.4742 -0.1255  0.4966
  732MOL0     C98747   1.513   7.015   0.095 -0.9183  0.1666  0.2447
  732MOL0     C98748   1.410   7.104   0.034  0.4849 -0.9451  0.3401
  732MOL0     C98749   1.338   7.189  -0.009  0.1263  0.2185 -0.1599
  732MOL0     C98750   1.319   7.210   0.651 -0.5107  0.5552  0.1204
  732MOL0     C98751   1.279   7.267   0.776  0.5061  0.8726 -0.1590
  732MOL0     C98752   1.137   7.243   0.810 -0.6524  0.3685 -0.3698
  732MOL0     H98753   1.434   7.781   1.111  0.2958  0.6106 -0.0196
  732MOL0     H98754   1.423   7.858   1.333 -4.9397  0.5391  0.2980
  732MOL0     H98755   1.522   7.885   1.534  0.8977 -0.7833  0.2662
  732MOL0     H98756   1.357   7.908   1.572  1.9996  2.1777  3.4584
  732MOL0     H98757   1.569   7.801   1.739  0.8656  1.6291 -0.2546
  732MOL0     H98758   1.404   7.769   1.788  1.2790 -1.5033  0.6448
  732MOL0     H98759   1.377   8.040   1.779  0.9539  2.1769  1.2513
  732MOL0     H98760   1.554   8.030   1.754  1.9764 -0.8333  2.8578
  732MOL0     H98761   1.419   8.052   1.990  2.3288  3.3183 -0.2740
  732MOL0     H98762   1.455   7.880   1.998  0.1245 -0.4722 -0.8479
  732MOL0     H98763   1.672   8.086   1.946 -1.5682 -0.9108 -0.8461
  732MOL0     H98764   1.652   8.011   2.102 -2.6327  0.3084  0.6870
  732MOL0     H98765   1.755   7.879   1.862 -1.2841  3.4509 -0.7145
  732MOL0     H98766   1.846   7.909   2.000  0.9532 -2.6727 -0.8386
  732MOL0     H98767   1.798   7.681   2.020  0.7075  0.1582 -1.3026
  732MOL0     H98768   1.625   7.701   1.979  1.1767  3.3279 -3.9202
  732MOL0     H98769   1.601   7.778   2.221 -0.2717 -0.0021 -1.6868
  732MOL0     H98770   1.664   7.622   2.196 -1.7479  0.3840 -1.9872
  732MOL0     H98771   1.889   7.571   2.265 -0.4301 -0.0606  1.9653
  732MOL0     H98772   2.127   7.718   2.544 -0.1830 -1.0244  2.1407
  732MOL0     H98773   1.982   7.651   2.628  0.4785 -2.3234  0.7509
  732MOL0     H98774   2.099   7.471   2.595 -0.4334 -1.8129 -1.3746
  732MOL0     H98775   1.995   7.463   2.447  1.4763 -1.7918 -0.9224
  732MOL0     H98776   2.289   7.554   2.457 -0.1014  0.4680  0.0752
  732MOL0     H98777   2.180   7.567   2.319  1.6109  1.0270  0.2087
  732MOL0     H98778   2.332   7.363   2.295 -0.8477 -2.2731 -0.6116
  732MOL0     H98779   2.162   7.309   2.322 -0.9886 -0.5983  2.0245
  732MOL0     H98780   2.564   7.271   2.530 -2.6813  2.9879 -0.8066
  732MOL0     H98781   2.644   7.040   2.590 -0.2275 -1.2928  0.2762
  732MOL0     H98782   2.743   6.778   2.863 -0.0431  0.4001  1.0014
  732MOL0     H98783   2.866   6.585   2.958 -2.9564 -1.8315  1.2624
  732MOL0     H98784   2.995   6.394   3.004 -1.4177  0.5792 -0.9478
  732MOL0     H98785   2.855   6.286   3.014 -0.1629 -0.9061  0.8875
  732MOL0     H98786   3.124   6.212   2.907 -1.5832  0.9255 -2.6006
  732MOL0     H98787   3.066   6.168   3.067 -0.8085 -2.7706 -0.3040
  732MOL0     H98788   2.870   6.070   2.947  0.7706 -0.5213  1.3948
  732MOL0     H98789   2.967   6.062   2.803 -0.9878 -0.8270  0.0808
  732MOL0     H98790   3.157   5.973   2.954  0.1548  3.3718 -3.6140
  732MOL0     H98791   3.017   5.865   2.899 -1.0701 -0.3519  0.8626
  732MOL0     H98792   2.986   5.993   3.165 -0.1934 -0.0854 -0.5218
  732MOL0     H98793   3.104   5.858   3.142  1.0164  0.5671 -2.6249
  732MOL0     H98794   2.938   5.726   3.033 -0.8142  0.6282 -3.1512
  732MOL0     H98795   2.898   5.765   3.208  5.0127  2.1533  1.2909
  732MOL0     H98796   2.760   5.878   2.968 -3.0724 -0.9856  0.5850
  732MOL0     H98797   2.740   5.930   3.142 -0.7803 -2.6848  2.3080
  732MOL0     H98798   2.671   5.670   3.003  0.0838 -0.5436  1.3658
  732MOL0     H98799   2.662   5.702   3.178  2.9590  0.3230  0.2487
  732MOL0     H98800   2.795   6.365   2.602  3.7566 -1.1337  3.8966
  732MOL0     H98801   2.678   6.574   2.500  3.3718  0.4810 -0.9246
  732MOL0     H98802   2.263   6.873   2.488  0.2305 -0.7218  1.9696
  732MOL0     H98803   2.187   7.105   2.424  1.2442  0.9758 -0.5463
  732MOL0     H98804   1.369   7.469   1.493 -1.8209  0.7931  0.3438
  732MOL0     H98805   1.388   7.371   1.261 -0.5186  0.6187 -0.0232
  732MOL0     H98806   1.572   7.430   0.862  1.5548 -1.1978 -0.8803
  732MOL0     H98807   1.634   7.355   0.634 -1.1974  1.0466 -0.8722
  732MOL0     H98808   1.660   7.122   0.455  1.7645  0.3603 -3.3013
  732MOL0     H98809   1.663   7.297   0.440  0.7494  0.6124  0.0600
  732MOL0     H98810   1.700   7.193   0.227  0.9545  0.2790  1.4064
  732MOL0     H98811   1.522   7.249   0.225 -1.9166 -2.5762  1.5602
  732MOL0     H98812   1.455   7.025   0.313 -0.7988  1.9991 -0.5496
  732MOL0     H98813   1.622   6.979   0.283 -0.0874 -0.7295  0.7827
  732MOL0     H98814   1.609   7.021   0.041 -1.0670 -2.3163 -0.4187
  732MOL0     H98815   1.481   6.912   0.079 -0.1933 -0.0822  0.3425
  732MOL0     H98816   1.274   7.267  -0.047  0.7022  0.4823 -0.5925
  732MOL0     H98817   1.252   7.157   0.584  1.9436 -3.0750  0.2646
  732MOL0     H98818   1.105   7.346   0.831 -0.5789  0.0894  1.2518
  732MOL0     H98819   1.088   7.199   0.723  0.8882 -1.7934 -0.2313
  732MOL0     H98820   1.132   7.165   0.886  0.5409  0.8259  0.2059
  733MOL0     O98821   0.859   1.445   4.837  0.2828 -0.1496  0.6110
  733MOL0     C98822   0.857   1.362   4.928 -0.0353 -0.6722 -0.0816
  733MOL0     O98823   0.751   1.272   4.951 -0.0391 -0.0782  0.1645
  733MOL0     C98824   0.652   1.274   4.856  0.7346  0.8936 -0.6569
  733MOL0     C98825   0.626   1.185   4.759 -0.2136 -0.1855 -0.3629
  733MOL0     C98826   0.506   1.191   4.686 -0.2665  0.0072 -0.3871
  733MOL0     C98827   0.418   1.298   4.692 -0.5506 -0.8211  0.4446
  733MOL0     O98828   0.305   1.298   4.621  1.0068  0.3701 -0.1150
  733MOL0     C98829   0.253   1.419   4.577  0.1709 -0.2860  0.0364
  733MOL0     C98830   0.125   1.468   4.644 -0.9912  0.4393 -0.3010
  733MOL0     C98831   0.108   1.610   4.591  0.1291 -0.4624  0.3272
  733MOL0     C98832   0.037   1.606   4.452  0.6402  0.1438  1.0332
  733MOL0     C98833   0.109   1.707   4.354  0.0412 -0.4033  0.4310
  733MOL0     C98834   0.073   1.687   4.205  0.7268  0.0599  0.3643
  733MOL0     C98835   0.112   1.810   4.115 -0.2251  0.6975  0.0377
  733MOL0     C98836   0.094   1.777   3.966 -0.8224  0.8420  0.0767
  733MOL0     N98837   0.098   1.899   3.882  0.0887 -0.1555  1.1121
  733MOL0     C98838   0.022   1.912   3.775  0.2132 -0.9432 -0.7400
  733MOL0     C98839   0.079   2.019   3.709  1.0074 -0.0643 -0.0847
  733MOL0     C98840   0.026   2.085   3.584  0.6538 -0.1833 -0.4341
  733MOL0     C98841  -0.125   2.089   3.571 -1.2739  0.1132 -0.7599
  733MOL0     C98842  -0.166   2.215   3.498  1.0563 -0.2819  0.5977
  733MOL0     C98843  -0.313   2.204   3.438  0.3475 -0.0469  0.0191
  733MOL0     O98844  -0.411   2.249   3.540 -0.7695 -0.5158 -0.1148
  733MOL0     C98845  -0.545   2.246   3.497 -0.7085 -0.2822  0.2106
  733MOL0     C98846  -0.588   2.179   3.382  0.4532 -0.3349  0.4317
  733MOL0     C98847  -0.730   2.176   3.344 -0.7697 -0.5102 -0.7163
  733MOL0     C98848  -0.824   2.259   3.411 -0.7315  0.6090 -0.3742
  733MOL0     C98849  -0.956   2.256   3.362 -0.6974  0.6383 -0.6960
  733MOL0     O98850  -0.983   2.202   3.229 -0.3072 -0.5128  0.0848
  733MOL0     C98851  -1.108   2.185   3.166  0.2402 -0.5837 -0.4421
  733MOL0     C98852  -1.115   2.134   3.031 -0.0916 -0.2107 -0.1636
  733MOL0     C98853  -1.238   2.092   2.967 -0.5775 -0.7105  0.2683
  733MOL0     C98854  -1.365   2.122   3.022  0.1322 -1.0062 -0.0765
  733MOL0     O98855  -1.488   2.102   2.959 -0.0634 -0.3431 -0.2526
  733MOL0     C98856  -1.488   2.072   2.814 -0.0799  0.3928 -0.2415
  733MOL0     C98857  -1.632   2.065   2.761  0.0421  0.3063 -0.1280
  733MOL0     C98858  -1.737   1.993   2.840 -0.1993  0.3439 -0.2056
  733MOL0     C98859  -1.711   1.835   2.850 -0.1824 -0.1737 -0.2455
  733MOL0     C98860  -1.819   1.764   2.938  0.5848  0.0954  0.5659
  733MOL0     C98861  -1.806   1.615   2.965  0.2741  0.6573 -0.5021
  733MOL0     C98862  -1.788   1.524   2.840 -0.3323 -0.1411  0.6375
  733MOL0     C98863  -1.785   1.376   2.876 -0.4385  0.7797  0.4849
  733MOL0    Cl98864  -1.947   1.328   2.920 -0.2424  0.5263 -0.6778
  733MOL0     C98865  -1.355   2.187   3.151 -0.0298  0.6432  0.4034
  733MOL0     C98866  -1.232   2.218   3.216 -0.1440 -0.5452 -0.2202
  733MOL0     O98867  -1.039   2.299   3.447  0.5246  0.2086 -0.1628
  733MOL0     C98868  -0.778   2.321   3.534  0.3563  0.0115  0.7262
  733MOL0     C98869  -0.641   2.315   3.574  0.4465  1.6421 -0.2458
  733MOL0     N98870   0.192   2.058   3.775  0.5319 -0.2099  0.8533
  733MOL0     N98871   0.203   1.984   3.873 -0.1010  0.2435 -0.8189
  733MOL0     C98872   0.444   1.388   4.798  0.0032 -0.0428  0.4932
  733MOL0     C98873   0.554   1.371   4.880  0.3490 -1.0973  0.2116
  733MOL0     C98874   0.979   1.336   5.003 -0.7782  0.2950  0.1179
  733MOL0     C98875   1.103   1.361   4.933  0.5133  0.3391 -0.3597
  733MOL0     C98876   1.229   1.337   4.983  0.5313 -0.4317 -1.1957
  733MOL0     C98877   1.245   1.316   5.122  0.1224 -0.1936  0.2174
  733MOL0     O98878   1.378   1.296   5.179 -0.0845  0.3899  0.3454
  733MOL0     C98879   1.470   1.411   5.165 -0.1197  0.2352  0.6678
  733MOL0     C98880   1.430   1.513   5.259  0.6905 -0.4429  0.0217
  733MOL0     C98881   1.531   1.623   5.266  0.1756 -0.5931 -0.9875
  733MOL0     C98882   1.476   1.753   5.332 -0.3366  0.3148  0.2325
  733MOL0     C98883   1.419   1.727   5.464 -0.2268 -1.0797  0.7705
  733MOL0     C98884   1.367   1.721   5.574  0.7486  1.0759  0.1692
  733MOL0     C98885   1.126   1.285   5.192  0.1410 -0.5398  0.6082
  733MOL0     C98886   0.996   1.298   5.141  0.1291  0.4823 -0.1408
  733MOL0     C98887   0.874   1.294   5.232  0.4144 -0.6243 -0.6825
  733MOL0     H98888   0.694   1.102   4.745 -0.0717  0.0851 -1.3771
  733MOL0     H98889   0.481   1.101   4.631 -2.5117  0.0717  0.4205
  733MOL0     H98890   0.336   1.491   4.578  1.9786 -2.2686 -0.1239
  733MOL0     H98891   0.221   1.411   4.473  0.9848 -0.2985 -0.2207
  733MOL0     H98892   0.153   1.469   4.749  2.7922 -2.3146 -1.0718
  733MOL0     H98893   0.028   1.423   4.623 -0.6973  0.7901 -2.7258
  733MOL0     H98894   0.208   1.654   4.586 -0.1826  0.0928 -1.7266
  733MOL0     H98895   0.048   1.675   4.655  1.5761 -0.5067  1.8237
  733MOL0     H98896   0.043   1.507   4.406  0.4497 -0.3793  2.0923
  733MOL0     H98897  -0.069   1.627   4.466  0.5717  3.5044 -2.6120
  733MOL0     H98898   0.090   1.804   4.400  1.1373 -0.4277  0.9812
  733MOL0     H98899   0.218   1.697   4.350  0.3220  2.2801 -0.6379
  733MOL0     H98900   0.130   1.600   4.169  1.1207 -0.9525  3.1800
  733MOL0     H98901  -0.034   1.665   4.196  0.5994  0.4925  0.7375
  733MOL0     H98902   0.216   1.839   4.133  0.6404  0.4357 -3.7453
  733MOL0     H98903   0.045   1.893   4.139 -0.3326  0.6093  0.0435
  733MOL0     H98904   0.172   1.702   3.949 -2.0429 -0.7754  1.3546
  733MOL0     H98905  -0.007   1.739   3.951 -0.3800  0.5912 -3.0763
  733MOL0     H98906  -0.070   1.864   3.742 -0.3041 -0.4607 -0.0292
  733MOL0     H98907   0.071   2.184   3.571  1.0565 -0.1245  1.1936
  733MOL0     H98908   0.063   2.026   3.499 -0.2152  2.3724 -2.7295
  733MOL0     H98909  -0.162   1.999   3.521 -0.4090  0.0519 -1.3077
  733MOL0     H98910  -0.170   2.097   3.670  0.9200  0.3909  0.2690
  733MOL0     H98911  -0.105   2.231   3.409  0.3406  1.3772  0.3740
  733MOL0     H98912  -0.160   2.295   3.571 -0.0731 -1.2730  1.8388
  733MOL0     H98913  -0.331   2.104   3.398 -1.2412 -0.1426  0.8762
  733MOL0     H98914  -0.315   2.280   3.360  1.3624  0.0626  0.0853
  733MOL0     H98915  -0.530   2.121   3.310 -0.6576 -0.2321 -0.5749
  733MOL0     H98916  -0.749   2.116   3.255  0.9455 -1.2085 -0.6637
  733MOL0     H98917  -1.020   2.123   2.981  0.9859 -1.8626  2.0492
  733MOL0     H98918  -1.231   2.068   2.862 -0.6422  1.7075 -0.3373
  733MOL0     H98919  -1.435   2.150   2.759 -1.6102  0.5773 -1.5226
  733MOL0     H98920  -1.426   1.982   2.811 -1.2181 -0.4031 -0.5063
  733MOL0     H98921  -1.672   2.165   2.743 -2.6244 -0.7785 -0.7907
  733MOL0     H98922  -1.618   2.008   2.668  2.2846  2.6094 -1.3166
  733MOL0     H98923  -1.743   2.039   2.940 -0.5385  2.9306 -1.3338
  733MOL0     H98924  -1.837   1.997   2.795 -0.0987 -1.2536 -0.6427
  733MOL0     H98925  -1.612   1.819   2.895 -0.2780 -2.0386 -0.6133
  733MOL0     H98926  -1.697   1.789   2.752  0.6904 -2.9776  1.0723
  733MOL0     H98927  -1.915   1.773   2.887  0.3809 -2.7112  0.2789
  733MOL0     H98928  -1.821   1.809   3.038 -1.0410  0.8535  0.2260
  733MOL0     H98929  -1.710   1.587   3.010  0.5978 -0.3595 -1.7505
  733MOL0     H98930  -1.889   1.578   3.026  2.3435 -3.1251  0.3406
  733MOL0     H98931  -1.689   1.538   2.795 -1.6493  1.7505 -1.9633
  733MOL0     H98932  -1.870   1.545   2.771 -1.0030  0.6233  1.6406
  733MOL0     H98933  -1.755   1.326   2.783  1.1401  1.2822  0.7004
  733MOL0     H98934  -1.710   1.347   2.950 -0.8210  0.1662  0.6342
  733MOL0     H98935  -1.451   2.211   3.196 -0.5946 -0.3649 -0.2382
  733MOL0     H98936  -1.241   2.265   3.314 -0.6427  1.4404 -1.1676
  733MOL0     H98937  -0.848   2.376   3.596  0.0174  0.1581  0.2140
  733MOL0     H98938  -0.602   2.362   3.663 -2.5158  1.5804  1.1930
  733MOL0     H98939   0.369   1.460   4.830  1.3584  0.8047  1.9226
  733MOL0     H98940   0.566   1.438   4.965  0.5899 -1.7225  0.6796
  733MOL0     H98941   1.087   1.396   4.832 -1.0523 -0.2049 -0.3190
  733MOL0     H98942   1.315   1.357   4.920  1.7013 -4.2337 -1.0242
  733MOL0     H98943   1.463   1.443   5.061  1.5036 -2.9794 -0.5660
  733MOL0     H98944   1.572   1.378   5.185 -0.3768 -2.1579 -1.4364
  733MOL0     H98945   1.412   1.472   5.359  0.5547  1.7528  0.9593
  733MOL0     H98946   1.331   1.554   5.239 -0.9767 -1.1298  5.2553
  733MOL0     H98947   1.565   1.642   5.163 -0.1421 -0.8955 -1.1504
  733MOL0     H98948   1.619   1.585   5.318 -0.1027 -2.5108 -1.8165
  733MOL0     H98949   1.555   1.826   5.351  2.7428 -1.9436 -2.7706
  733MOL0     H98950   1.393   1.780   5.266 -1.7428 -4.3116 -0.2763
  733MOL0     H98951   1.327   1.716   5.673 -1.1080 -0.5680 -0.5897
  733MOL0     H98952   1.138   1.260   5.297 -1.0158  1.7192  1.3500
  733MOL0     H98953   0.915   1.302   5.334 -1.6588 -1.7508  0.2889
  733MOL0     H98954   0.810   1.382   5.222 -0.7691 -1.7501 -4.0980
  733MOL0     H98955   0.829   1.196   5.216  3.2469 -2.3935  1.1664
  734MOL0     O98956  11.296   7.094   2.651 -0.0936  0.2969  0.4333
  734MOL0     C98957  11.283   7.050   2.540  0.7934  0.2593 -0.0497
  734MOL0     O98958  11.354   6.949   2.481  0.0558  0.1408 -0.3396
  734MOL0     C98959  11.409   6.848   2.553  0.5842 -0.2524 -0.3160
  734MOL0     C98960  11.546   6.819   2.553 -0.8212  0.4643  0.6356
  734MOL0     C98961  11.598   6.720   2.634 -0.4558  0.2937 -0.5290
  734MOL0     C98962  11.512   6.635   2.712  0.5471 -0.2201  0.4577
  734MOL0     O98963  11.564   6.533   2.783 -0.1827 -0.3596  0.4055
  734MOL0     C98964  11.491   6.419   2.773 -0.2510  0.2877 -0.3041
  734MOL0     C98965  11.557   6.295   2.824  0.0918 -0.3454  0.6494
  734MOL0     C98966  11.455   6.184   2.793  1.0183 -0.4533 -0.0828
  734MOL0     C98967  11.496   6.054   2.857  0.1297  0.5610  0.1972
  734MOL0     C98968  11.401   5.939   2.831 -1.0101 -0.0864 -0.3249
  734MOL0     C98969  11.259   5.971   2.861  0.4254  0.2589 -0.4095
  734MOL0     C98970  11.157   5.847   2.850 -0.0664  0.8230  0.1412
  734MOL0     C98971  11.157   5.795   2.710 -0.0564 -0.4587 -0.1787
  734MOL0     N98972  11.072   5.682   2.706  0.3871 -0.4217  0.2516
  734MOL0     C98973  11.107   5.560   2.750 -0.3102 -0.1903 -0.5584
  734MOL0     C98974  11.002   5.481   2.727 -0.0160  0.2198 -0.0181
  734MOL0     C98975  10.997   5.325   2.735 -1.1490  1.2698 -0.7148
  734MOL0     C98976  10.967   5.248   2.611 -0.6333  0.3375 -0.0010
  734MOL0     C98977  10.918   5.095   2.636  0.8328 -0.0517 -0.0274
  734MOL0     C98978  11.022   5.008   2.706  0.6026 -0.3301 -0.8903
  734MOL0     O98979  11.153   5.011   2.651  0.5718 -0.4862  0.0565
  734MOL0     C98980  11.200   4.900   2.584  0.2469 -0.2425 -0.0727
  734MOL0     C98981  11.243   4.913   2.452  0.2021 -0.3352 -0.5425
  734MOL0     C98982  11.297   4.804   2.386 -0.4498 -0.2902  0.4713
  734MOL0     C98983  11.310   4.682   2.452 -0.2734 -0.0715 -0.5112
  734MOL0     C98984  11.364   4.562   2.382 -0.2210 -0.1966 -0.3898
  734MOL0     O98985  11.344   4.555   2.242 -0.0432 -0.5047 -0.2196
  734MOL0     C98986  11.397   4.453   2.169 -0.3644  0.0861  0.0662
  734MOL0     C98987  11.313   4.402   2.064  0.0958  1.0246 -0.1421
  734MOL0     C98988  11.360   4.296   1.984  1.1552  0.0677 -0.1514
  734MOL0     C98989  11.490   4.252   1.993 -0.4221 -0.3152  0.5144
  734MOL0     O98990  11.540   4.165   1.903  0.1367 -0.5312 -0.1641
  734MOL0     C98991  11.637   4.074   1.953  0.6059  0.5142 -0.7686
  734MOL0     C98992  11.700   3.987   1.849 -0.3770 -0.3985  0.0843
  734MOL0     C98993  11.831   3.932   1.904 -0.5198 -0.6678  0.0755
  734MOL0     C98994  11.938   4.044   1.890 -0.1927 -0.0306 -0.5725
  734MOL0     C98995  12.076   3.990   1.894 -0.1018  0.4550  0.3378
  734MOL0     C98996  12.183   4.105   1.894 -0.4342  0.3346 -0.9335
  734MOL0     C98997  12.323   4.040   1.873  0.5360  0.3059  0.7210
  734MOL0     C98998  12.436   4.156   1.846  0.7797 -0.6442  0.3911
  734MOL0    Cl98999  12.569   4.123   1.741  0.0910  0.3579 -0.0036
  734MOL0     C99000  11.574   4.308   2.089  0.1470 -1.1052 -0.8768
  734MOL0     C99001  11.526   4.396   2.176  0.7716 -0.1149 -0.1876
  734MOL0     O99002  11.412   4.470   2.453  0.1584 -0.2430  0.1805
  734MOL0     C99003  11.258   4.667   2.588 -0.5071 -0.4669  0.2535
  734MOL0     C99004  11.206   4.779   2.648 -0.3574 -0.4054  0.3039
  734MOL0     N99005  10.897   5.568   2.689  0.2389 -0.5472 -0.9320
  734MOL0     N99006  10.939   5.694   2.684  1.0336  0.5891  0.0907
  734MOL0     C99007  11.373   6.660   2.710  0.2466  0.3996  0.1245
  734MOL0     C99008  11.327   6.774   2.641  0.7876 -0.2939  0.4428
  734MOL0     C99009  11.211   7.129   2.441 -0.8607  0.5741 -0.0769
  734MOL0     C99010  11.246   7.263   2.418  0.0122 -0.3135 -0.4423
  734MOL0     C99011  11.178   7.328   2.312  0.2214 -0.1596 -1.3856
  734MOL0     C99012  11.090   7.259   2.223  0.3963  0.5492 -0.6097
  734MOL0     O99013  11.018   7.297   2.105  0.6197 -0.3102 -0.6024
  734MOL0     C99014  10.996   7.434   2.089  0.1487 -1.7175  0.6687
  734MOL0     C99015  10.860   7.467   2.150 -0.5694  0.5976  0.2421
  734MOL0     C99016  10.842   7.612   2.187 -0.1001  0.2711 -0.9263
  734MOL0     C99017  10.831   7.708   2.066  0.0393 -0.2046 -0.7732
  734MOL0     C99018  10.952   7.729   1.995  0.0334  0.1744  0.3047
  734MOL0     C99019  11.056   7.730   1.930  0.7368  0.1784  0.3734
  734MOL0     C99020  11.053   7.124   2.251  0.4235  1.1327 -0.3504
  734MOL0     C99021  11.107   7.060   2.365 -0.7703 -0.4415 -1.6661
  734MOL0     C99022  11.062   6.928   2.408 -0.5123 -0.5228  0.3560
  734MOL0     H99023  11.609   6.886   2.496 -1.8667  1.1971  0.3153
  734MOL0     H99024  11.705   6.711   2.646 -0.4067 -0.0735 -1.1798
  734MOL0     H99025  11.406   6.439   2.839 -0.7536  2.0977 -1.4670
  734MOL0     H99026  11.467   6.396   2.669  3.7055 -2.8703 -0.8043
  734MOL0     H99027  11.580   6.301   2.931 -0.0170 -2.3260  0.8074
  734MOL0     H99028  11.649   6.268   2.772  1.6857  0.3537  2.9577
  734MOL0     H99029  11.436   6.176   2.686 -0.5671 -1.4119  0.2432
  734MOL0     H99030  11.353   6.212   2.823 -1.3057 -4.1986 -3.4570
  734MOL0     H99031  11.592   6.027   2.812  0.4858 -0.6267  1.5827
  734MOL0     H99032  11.510   6.060   2.965  1.9395 -0.2764  0.0661
  734MOL0     H99033  11.414   5.908   2.726 -3.0214 -0.8810 -0.3983
  734MOL0     H99034  11.424   5.856   2.898  3.9940  0.7406 -0.6745
  734MOL0     H99035  11.241   6.011   2.961 -2.7886  0.4200 -0.9248
  734MOL0     H99036  11.233   6.043   2.782 -3.8464 -0.2575  0.2708
  734MOL0     H99037  11.055   5.875   2.877 -0.5467 -0.9520  0.3392
  734MOL0     H99038  11.197   5.769   2.916 -1.5487  0.0485  0.1723
  734MOL0     H99039  11.122   5.886   2.662 -0.7952  0.5521  2.1142
  734MOL0     H99040  11.257   5.765   2.679 -0.0297 -1.2788  0.6279
  734MOL0     H99041  11.207   5.540   2.785 -0.7801  2.0635  2.4399
  734MOL0     H99042  11.097   5.287   2.756 -0.9761  0.3815 -2.9006
  734MOL0     H99043  10.928   5.286   2.811 -0.1586  0.1916 -0.3358
  734MOL0     H99044  10.894   5.300   2.548  0.5859  2.9972  0.6050
  734MOL0     H99045  11.061   5.251   2.555  2.5112  4.4373  4.7099
  734MOL0     H99046  10.884   5.061   2.537 -5.2302  5.0357 -0.3585
  734MOL0     H99047  10.822   5.086   2.689  0.3364 -1.5750 -1.1078
  734MOL0     H99048  10.994   4.903   2.719  4.9445 -1.9140 -2.4089
  734MOL0     H99049  11.032   5.058   2.803 -1.6208  2.7417 -2.0949
  734MOL0     H99050  11.214   5.003   2.398 -0.0301 -0.9609 -1.5015
  734MOL0     H99051  11.321   4.810   2.280  0.4359 -3.9675  0.3125
  734MOL0     H99052  11.224   4.461   2.043 -0.2208 -0.2672 -2.8975
  734MOL0     H99053  11.301   4.240   1.912  2.3909 -1.8538  0.2893
  734MOL0     H99054  11.709   4.127   2.016 -0.4250 -0.1483  1.0718
  734MOL0     H99055  11.582   4.005   2.019 -0.3175  1.7265 -0.2389
  734MOL0     H99056  11.637   3.914   1.798  1.1991  1.1608 -4.5298
  734MOL0     H99057  11.736   4.046   1.764  3.4305 -0.9553  1.0974
  734MOL0     H99058  11.823   3.896   2.007  0.5567  0.6860  0.6816
  734MOL0     H99059  11.856   3.850   1.836 -0.2417 -0.7172  0.2339
  734MOL0     H99060  11.917   4.115   1.971  0.8011  2.6528 -2.4996
  734MOL0     H99061  11.927   4.096   1.794 -1.6462  3.5721  1.3535
  734MOL0     H99062  12.095   3.919   1.813  1.6944  1.0575  0.1874
  734MOL0     H99063  12.082   3.933   1.988 -0.7977  0.9601  0.6960
  734MOL0     H99064  12.148   4.175   1.817 -3.1417  0.8829  0.6467
  734MOL0     H99065  12.172   4.163   1.986 -1.1027  2.2056 -2.1297
  734MOL0     H99066  12.311   3.988   1.778  2.0918 -1.6157  1.5027
  734MOL0     H99067  12.352   3.969   1.951 -0.6096 -1.8564 -0.7138
  734MOL0     H99068  12.376   4.236   1.800 -1.6355 -3.4022 -1.6229
  734MOL0     H99069  12.485   4.177   1.941  2.6072 -2.7013 -0.0224
  734MOL0     H99070  11.680   4.287   2.104 -0.1616 -3.3630 -1.3844
  734MOL0     H99071  11.591   4.438   2.252  0.7266  0.4761 -0.4719
  734MOL0     H99072  11.262   4.570   2.636 -1.5811  0.4366  2.2472
  734MOL0     H99073  11.171   4.768   2.750 -2.0672 -0.4165 -0.2504
  734MOL0     H99074  11.300   6.612   2.776 -0.1315 -0.9490 -1.2267
  734MOL0     H99075  11.221   6.796   2.642  0.3305 -2.3022  1.6958
  734MOL0     H99076  11.320   7.313   2.480 -0.4503  0.7709 -0.7400
  734MOL0     H99077  11.184   7.434   2.290  0.9599 -0.1372 -1.1175
  734MOL0     H99078  10.999   7.452   1.981  0.9849 -0.2347  0.9082
  734MOL0     H99079  11.070   7.498   2.138 -0.5738 -1.3105  1.2475
  734MOL0     H99080  10.847   7.408   2.241 -4.3591 -0.8484 -1.0203
  734MOL0     H99081  10.777   7.443   2.083  0.1931 -0.2703 -0.4258
  734MOL0     H99082  10.924   7.635   2.255 -1.0165  2.8267 -0.5677
  734MOL0     H99083  10.748   7.619   2.243 -0.6584  0.4604 -1.8557
  734MOL0     H99084  10.762   7.683   1.985  0.7011  3.5377 -2.7463
  734MOL0     H99085  10.794   7.806   2.098  0.7675  0.8533 -2.9070
  734MOL0     H99086  11.152   7.743   1.886  1.5672 -0.7060  1.8215
  734MOL0     H99087  10.977   7.078   2.189 -1.5321  1.0096  1.9947
  734MOL0     H99088  10.956   6.923   2.384 -0.8965  1.8901  1.2490
  734MOL0     H99089  11.117   6.846   2.360  2.9932  0.1040  2.8349
  734MOL0     H99090  11.083   6.904   2.513  0.5194  2.3421  0.8851
  735MOL0     O99091  10.500  11.546   4.758 -0.4650  0.1202 -0.2880
  735MOL0     C99092  10.547  11.603   4.854 -0.2339 -0.6505  0.2970
  735MOL0     O99093  10.675  11.636   4.872 -0.3240 -0.4001  0.0826
  735MOL0     C99094  10.759  11.630   4.763  0.6768  0.3327 -0.7760
  735MOL0     C99095  10.740  11.684   4.642 -0.7539 -0.4290 -0.7385
  735MOL0     C99096  10.843  11.693   4.540  0.0585  0.4197 -0.0222
  735MOL0     C99097  10.958  11.611   4.557 -0.0040  0.4198 -0.2864
  735MOL0     O99098  11.058  11.596   4.467 -0.1225 -0.6939  0.5619
  735MOL0     C99099  11.031  11.610   4.326 -0.2435 -0.4715  0.7552
  735MOL0     C99100  11.132  11.516   4.254  0.9165  0.0661 -0.9681
  735MOL0     C99101  11.278  11.543   4.279 -1.3503 -0.1579  0.1348
  735MOL0     C99102  11.326  11.682   4.236 -0.7071 -0.0328 -0.4997
  735MOL0     C99103  11.456  11.708   4.311 -0.1159 -0.2765  0.8536
  735MOL0     C99104  11.578  11.639   4.247 -0.0355 -0.5531 -0.0625
  735MOL0     C99105  11.713  11.681   4.311 -0.6543 -0.0031  0.4564
  735MOL0     C99106  11.740  11.634   4.458  0.8455 -0.0639  0.6282
  735MOL0     N99107  11.756  11.489   4.446 -0.3284  0.5000  0.3891
  735MOL0     C99108  11.875  11.416   4.454  0.7585  0.1623 -0.3636
  735MOL0     C99109  11.843  11.292   4.487  0.3262  0.6283 -0.4753
  735MOL0     C99110  11.935  11.179   4.529 -0.1179  1.1049 -1.0654
  735MOL0     C99111  11.954  11.179   4.688 -0.5207 -0.0741 -0.4504
  735MOL0     C99112  11.909  11.041   4.752  0.1035  0.4291 -0.3738
  735MOL0     C99113  11.871  11.044   4.898  0.1520 -0.6479 -0.0438
  735MOL0     O99114  11.989  11.039   4.987 -0.2096 -0.8240  0.3877
  735MOL0     C99115  11.963  11.074   5.118 -0.2154 -1.0648  0.2173
  735MOL0     C99116  11.940  10.973   5.211 -0.8689 -0.5032  0.3147
  735MOL0     C99117  11.908  11.015   5.340 -0.0957  1.5367 -0.5902
  735MOL0     C99118  11.927  11.145   5.388 -0.3270 -0.4296 -0.9500
  735MOL0     C99119  11.917  11.191   5.525  0.2689  0.1642 -0.5147
  735MOL0     O99120  11.893  11.089   5.607  0.5882 -0.0202  0.9297
  735MOL0     C99121  11.858  11.084   5.739  0.0193  0.2395 -0.0306
  735MOL0     C99122  11.829  11.193   5.819 -0.1967 -0.4079 -0.7029
  735MOL0     C99123  11.809  11.176   5.959 -0.8593  0.9407 -0.4224
  735MOL0     C99124  11.812  11.050   6.017 -1.0234  0.7770 -0.0838
  735MOL0     O99125  11.808  11.032   6.152  0.4240 -0.0387 -0.0288
  735MOL0     C99126  11.776  10.904   6.201 -0.2873  0.2142  0.7137
  735MOL0     C99127  11.732  10.927   6.352  0.6850  0.0400  1.2448
  735MOL0     C99128  11.620  11.035   6.372  0.2196 -0.0729 -0.7452
  735MOL0     C99129  11.481  11.016   6.300 -0.3239  0.2925  0.0449
  735MOL0     C99130  11.376  11.106   6.363 -0.0702  0.0069 -0.3980
  735MOL0     C99131  11.385  11.260   6.327 -0.3722  0.1702  0.6903
  735MOL0     C99132  11.344  11.294   6.177 -0.8271 -0.2692  0.1437
  735MOL0     C99133  11.371  11.444   6.156  0.2007 -0.5788 -0.3536
  735MOL0    Cl99134  11.251  11.548   6.240  0.3465  0.3041  0.0988
  735MOL0     C99135  11.830  10.939   5.934 -1.0004  0.2096 -0.3577
  735MOL0     C99136  11.856  10.954   5.798  0.5913  0.2246  0.0348
  735MOL0     O99137  11.913  11.311   5.555 -0.4945 -0.3550  0.3447
  735MOL0     C99138  11.961  11.236   5.292 -1.1053  0.8372  0.6900
  735MOL0     C99139  11.976  11.207   5.156 -0.3696  0.0172 -0.4455
  735MOL0     N99140  11.710  11.283   4.493  1.0851  0.0730 -0.1248
  735MOL0     N99141  11.648  11.398   4.468 -0.5584  0.1510  0.2874
  735MOL0     C99142  10.971  11.540   4.677  1.0153  0.6425 -0.1082
  735MOL0     C99143  10.873  11.553   4.782 -1.1367  1.0427  0.6907
  735MOL0     C99144  10.441  11.654   4.947 -0.4655 -0.0449  0.7785
  735MOL0     C99145  10.316  11.683   4.895 -0.0570 -1.0153  0.4522
  735MOL0     C99146  10.214  11.752   4.975 -0.1020  0.1608 -1.3846
  735MOL0     C99147  10.256  11.791   5.105  1.0100 -1.8277 -0.4924
  735MOL0     O99148  10.181  11.885   5.175 -0.0821 -0.1116 -0.8367
  735MOL0     C99149  10.044  11.910   5.144 -0.4636 -0.3743 -0.3980
  735MOL0     C99150   9.988  12.008   5.242 -0.1308  0.1828 -0.2663
  735MOL0     C99151   9.837  12.034   5.243  0.9737  0.8225  0.1562
  735MOL0     C99152   9.777  12.118   5.357 -0.1425 -0.7283  0.0968
  735MOL0     C99153   9.751  12.041   5.479  1.5450  1.0356  1.1279
  735MOL0     C99154   9.725  11.984   5.586  0.6447 -0.5401  0.2538
  735MOL0     C99155  10.377  11.748   5.161  0.6286  0.1270  0.5321
  735MOL0     C99156  10.468  11.681   5.081  0.8379  0.2945 -1.1469
  735MOL0     C99157  10.599  11.640   5.161  0.6804  0.1061 -0.0266
  735MOL0     H99158  10.643  11.727   4.616  0.3189  2.0099 -1.0078
  735MOL0     H99159  10.822  11.762   4.459 -0.4127  1.2320  0.7806
  735MOL0     H99160  10.930  11.576   4.299 -0.3690  0.7778 -0.4505
  735MOL0     H99161  11.053  11.713   4.298  0.5021 -1.1460 -1.3539
  735MOL0     H99162  11.104  11.523   4.149 -2.4565  1.5974 -0.1268
  735MOL0     H99163  11.108  11.417   4.294  0.4310  0.9645  1.1416
  735MOL0     H99164  11.334  11.463   4.229  2.2466  0.6432  2.5778
  735MOL0     H99165  11.298  11.520   4.384  2.5229 -1.3608 -0.7103
  735MOL0     H99166  11.343  11.678   4.128 -0.8586 -0.1451 -0.5203
  735MOL0     H99167  11.258  11.767   4.246  1.3016  1.6417 -0.3625
  735MOL0     H99168  11.469  11.814   4.289  2.7742 -0.7634 -0.1573
  735MOL0     H99169  11.430  11.681   4.413 -0.6190 -3.1125  0.0731
  735MOL0     H99170  11.570  11.531   4.259 -5.4161 -0.3980  0.1354
  735MOL0     H99171  11.578  11.666   4.141  0.0953  2.6394  0.6495
  735MOL0     H99172  11.720  11.791   4.305 -1.0122  0.1676  2.5630
  735MOL0     H99173  11.783  11.646   4.235 -0.8797 -0.6792  0.5588
  735MOL0     H99174  11.823  11.687   4.507 -0.3071  1.9278  0.5485
  735MOL0     H99175  11.653  11.655   4.521  2.2498 -1.2505  3.0976
  735MOL0     H99176  11.974  11.459   4.438 -0.2562  4.0946  2.3296
  735MOL0     H99177  11.898  11.085   4.488  2.9501 -0.1590 -1.1782
  735MOL0     H99178  12.022  11.202   4.467 -0.8078 -1.5994 -3.2139
  735MOL0     H99179  12.060  11.193   4.710 -0.3161 -0.3035 -1.2674
  735MOL0     H99180  11.885  11.252   4.733 -0.8611 -1.4678  1.3966
  735MOL0     H99181  11.993  10.970   4.746 -0.6984 -1.1768  3.7628
  735MOL0     H99182  11.827  10.994   4.698  2.7088 -2.0492 -2.5162
  735MOL0     H99183  11.803  10.959   4.912 -0.9157  0.0644 -0.6981
  735MOL0     H99184  11.806  11.130   4.912  0.3568  0.4271 -4.2306
  735MOL0     H99185  11.939  10.869   5.179 -2.1788 -0.2260 -0.5962
  735MOL0     H99186  11.874  10.939   5.410 -0.3724  3.5658  1.5971
  735MOL0     H99187  11.807  11.285   5.764 -5.0528 -2.5013 -2.8064
  735MOL0     H99188  11.771  11.258   6.019  0.9319  2.3548 -1.1416
  735MOL0     H99189  11.705  10.851   6.137  1.7192  0.6860 -2.1025
  735MOL0     H99190  11.860  10.834   6.196 -1.8239 -1.7806  1.4220
  735MOL0     H99191  11.691  10.834   6.394 -0.5052 -1.2571 -2.3893
  735MOL0     H99192  11.825  10.955   6.402  0.6760  1.2600  0.6149
  735MOL0     H99193  11.594  11.029   6.478 -2.3252  1.3202 -1.1921
  735MOL0     H99194  11.658  11.136   6.351 -1.1613  1.0652  1.7450
  735MOL0     H99195  11.452  10.915   6.327 -2.2396  0.8047  0.0053
  735MOL0     H99196  11.502  11.022   6.193 -0.5454 -1.8398 -0.1439
  735MOL0     H99197  11.379  11.093   6.471  1.1626 -1.2963 -0.5540
  735MOL0     H99198  11.281  11.068   6.324 -0.2680  0.1617 -0.0718
  735MOL0     H99199  11.303  11.296   6.389 -0.7936  0.2861  0.0705
  735MOL0     H99200  11.486  11.298   6.345 -0.5830  2.4276 -2.2813
  735MOL0     H99201  11.239  11.274   6.154 -1.6199  2.7101  0.7411
  735MOL0     H99202  11.418  11.239   6.119 -1.5895 -2.6782  1.3120
  735MOL0     H99203  11.472  11.471   6.188 -0.0626  0.1611 -0.1255
  735MOL0     H99204  11.353  11.475   6.052 -1.7673 -0.2564  0.0373
  735MOL0     H99205  11.832  10.837   5.970 -0.5888  0.4122  0.2062
  735MOL0     H99206  11.881  10.870   5.735 -1.1950  0.5936 -1.2638
  735MOL0     H99207  11.972  11.337   5.331 -1.2118  1.0940  0.0589
  735MOL0     H99208  11.995  11.290   5.088 -2.3357 -0.2785 -1.4124
  735MOL0     H99209  11.062  11.484   4.696  0.3392  0.3793  2.8852
  735MOL0     H99210  10.875  11.497   4.875  4.1767 -4.0558 -1.8356
  735MOL0     H99211  10.301  11.679   4.788 -0.0047 -0.4644  0.4214
  735MOL0     H99212  10.119  11.786   4.934 -0.3706  0.3962 -0.5856
  735MOL0     H99213   9.994  11.813   5.158 -0.3118 -0.1819  1.7578
  735MOL0     H99214  10.020  11.948   5.044 -0.6586 -0.2951 -0.3227
  735MOL0     H99215  10.035  12.107   5.233  1.6593 -0.5997  0.0785
  735MOL0     H99216  10.003  11.964   5.341 -2.4031 -0.2270 -0.0558
  735MOL0     H99217   9.782  11.941   5.223 -0.8543  1.8212  0.3273
  735MOL0     H99218   9.807  12.087   5.152 -1.5101 -0.3219  0.2094
  735MOL0     H99219   9.839  12.206   5.375 -2.7268  1.1469  0.4940
  735MOL0     H99220   9.684  12.156   5.314  0.9283  3.6721  1.1651
  735MOL0     H99221   9.691  11.935   5.674 -4.6395 -0.4513 -1.3908
  735MOL0     H99222  10.409  11.790   5.256  2.8186  2.1407 -0.9770
  735MOL0     H99223  10.685  11.692   5.118  1.2538  0.6070  1.6559
  735MOL0     H99224  10.597  11.676   5.264 -1.5643 -3.0576  1.1587
  735MOL0     H99225  10.619  11.533   5.163  1.0789  0.1783  2.2462
  736MOL0     O99226   9.317   3.483   8.650 -0.1771 -0.5211  0.2827
  736MOL0     C99227   9.432   3.488   8.609 -0.6929 -0.8352  0.3405
  736MOL0     O99228   9.508   3.598   8.618 -0.3373  0.6350  0.8483
  736MOL0     C99229   9.480   3.687   8.716  0.4708  1.1863 -0.4536
  736MOL0     C99230   9.421   3.673   8.843  0.8464 -0.0750 -0.5643
  736MOL0     C99231   9.423   3.771   8.947 -0.2826  1.0726 -0.1201
  736MOL0     C99232   9.475   3.893   8.914  0.9222  0.2917 -0.3894
  736MOL0     O99233   9.466   3.991   9.009  0.1376  0.5616  0.3116
  736MOL0     C99234   9.536   4.114   8.981 -0.7778  0.1810  0.0722
  736MOL0     C99235   9.468   4.210   9.088 -0.7253 -0.0355  0.0150
  736MOL0     C99236   9.561   4.327   9.120 -0.3586 -0.6208 -0.7914
  736MOL0     C99237   9.514   4.417   9.240 -0.0402  0.7158  0.5259
  736MOL0     C99238   9.631   4.495   9.291 -0.8155  0.3933  0.4257
  736MOL0     C99239   9.756   4.425   9.362 -0.9831 -0.3261 -0.4480
  736MOL0     C99240   9.881   4.516   9.392  0.8567  0.0663 -0.0332
  736MOL0     C99241   9.977   4.454   9.490 -0.4926  0.1922  1.4347
  736MOL0     N99242  10.066   4.370   9.422  0.1436  0.6963  0.5425
  736MOL0     C99243  10.041   4.245   9.388  0.0714  0.7764 -0.8500
  736MOL0     C99244  10.151   4.189   9.338  0.4826  0.2670 -0.8848
  736MOL0     C99245  10.152   4.053   9.288  0.3756  0.1064  0.2293
  736MOL0     C99246  10.118   4.061   9.138 -0.1649 -0.5318  0.3552
  736MOL0     C99247  10.164   3.940   9.056 -0.6654 -0.5607 -0.4687
  736MOL0     C99248  10.110   3.813   9.093 -0.2401  0.7536 -0.5319
  736MOL0     O99249   9.959   3.808   9.090  0.4156 -0.7033  0.1480
  736MOL0     C99250   9.907   3.711   9.166  0.5110  0.8179 -0.8002
  736MOL0     C99251   9.804   3.744   9.247 -0.2386 -0.2208  0.2191
  736MOL0     C99252   9.739   3.647   9.323  0.2063  0.0957  0.3148
  736MOL0     C99253   9.771   3.507   9.305 -0.2090 -0.0079 -0.0334
  736MOL0     C99254   9.691   3.414   9.374  0.7976  0.0285  0.2542
  736MOL0     O99255   9.708   3.280   9.326 -0.5004 -0.2753 -0.6519
  736MOL0     C99256   9.653   3.165   9.381  0.4822  0.2584 -0.6065
  736MOL0     C99257   9.633   3.056   9.300 -0.2267 -0.9441 -0.4064
  736MOL0     C99258   9.582   2.930   9.350 -0.7704 -0.0097  0.5534
  736MOL0     C99259   9.557   2.916   9.489 -0.6083  0.1620  0.7799
  736MOL0     O99260   9.523   2.802   9.552  0.1319 -0.1818 -0.5840
  736MOL0     C99261   9.399   2.735   9.516  0.4989  0.4701 -0.2425
  736MOL0     C99262   9.314   2.734   9.653  0.1473 -0.7392  0.3648
  736MOL0     C99263   9.206   2.624   9.666  0.0086  1.1004 -0.4597
  736MOL0     C99264   9.060   2.659   9.623 -0.5269 -0.3504 -1.1024
  736MOL0     C99265   8.959   2.539   9.630  0.1130 -0.0055  0.1720
  736MOL0     C99266   8.818   2.587   9.664  0.3750  0.4579 -0.9538
  736MOL0     C99267   8.737   2.638   9.540  0.4603 -0.5715 -0.1580
  736MOL0     C99268   8.599   2.693   9.551  0.5578 -0.1043 -0.4376
  736MOL0    Cl99269   8.540   2.739   9.394 -0.6265 -0.0458  0.1878
  736MOL0     C99270   9.591   3.021   9.566  0.3104  1.1600  0.4517
  736MOL0     C99271   9.635   3.143   9.508  0.1207 -0.5393  0.2870
  736MOL0     O99272   9.626   3.443   9.472  0.5742 -0.0823  0.2314
  736MOL0     C99273   9.880   3.467   9.225  0.4795  0.4607  1.0285
  736MOL0     C99274   9.945   3.573   9.153 -1.1751  0.3338 -0.9972
  736MOL0     N99275  10.246   4.287   9.323 -0.4481  0.4321  0.5777
  736MOL0     N99276  10.189   4.401   9.370  0.8028 -0.0726 -0.2050
  736MOL0     C99277   9.543   3.909   8.789  0.3531 -0.3982 -0.5626
  736MOL0     C99278   9.546   3.806   8.702  0.8640 -0.0043  0.9084
  736MOL0     C99279   9.493   3.365   8.551  1.0083  0.8090  0.7616
  736MOL0     C99280   9.631   3.369   8.516  0.3023 -0.4407  0.2538
  736MOL0     C99281   9.698   3.272   8.446 -0.0907  0.2153 -0.4491
  736MOL0     C99282   9.633   3.154   8.419 -0.7437  1.1500 -0.3676
  736MOL0     O99283   9.700   3.049   8.358 -0.2221  0.0385  0.1007
  736MOL0     C99284   9.626   2.966   8.262 -0.3975  0.4254 -0.0434
  736MOL0     C99285   9.711   2.910   8.148 -1.1144  0.2910  0.1839
  736MOL0     C99286   9.838   2.840   8.195 -0.1858 -0.3839 -0.2908
  736MOL0     C99287   9.952   2.926   8.252 -0.6219  0.4597 -0.3608
  736MOL0     C99288  10.075   2.878   8.197 -0.1066  0.6319 -0.4494
  736MOL0     C99289  10.188   2.837   8.151 -0.0773  0.3901  0.0915
  736MOL0     C99290   9.493   3.152   8.450 -0.6969 -0.1496  0.6542
  736MOL0     C99291   9.424   3.252   8.521 -0.1697 -0.8788  0.2010
  736MOL0     C99292   9.276   3.225   8.538  0.0292 -0.8293 -0.3686
  736MOL0     H99293   9.373   3.579   8.865  1.2206  0.0573  0.8987
  736MOL0     H99294   9.385   3.761   9.048  0.7989  3.1980  0.5525
  736MOL0     H99295   9.642   4.093   8.995 -0.9183 -2.2126 -1.7589
  736MOL0     H99296   9.523   4.154   8.880 -1.1393 -1.8080 -0.7182
  736MOL0     H99297   9.453   4.152   9.179  3.5361  2.7189  2.8579
  736MOL0     H99298   9.374   4.248   9.048 -0.0934  0.7345 -0.8106
  736MOL0     H99299   9.572   4.387   9.029  1.6644  3.4041  1.8083
  736MOL0     H99300   9.656   4.288   9.157 -0.3835  0.2227  0.2095
  736MOL0     H99301   9.453   4.502   9.209  1.3807  1.5008 -0.2108
  736MOL0     H99302   9.462   4.358   9.317 -2.3885  0.3545 -1.2204
  736MOL0     H99303   9.660   4.570   9.217 -0.5536  1.9802  2.0848
  736MOL0     H99304   9.589   4.559   9.368 -1.2484  2.1170 -1.1791
  736MOL0     H99305   9.726   4.396   9.464  2.5347 -2.2336  0.2188
  736MOL0     H99306   9.790   4.332   9.316 -2.0234 -0.1279 -1.6602
  736MOL0     H99307   9.841   4.609   9.434  3.8273  1.4719 -0.0774
  736MOL0     H99308   9.926   4.529   9.293  0.0250  1.9931 -0.2093
  736MOL0     H99309  10.025   4.530   9.552 -3.2238  3.6522 -0.2862
  736MOL0     H99310   9.916   4.401   9.564 -1.0427 -1.6738 -0.2568
  736MOL0     H99311   9.948   4.194   9.413 -1.6744  3.5912 -1.1811
  736MOL0     H99312  10.253   4.012   9.289  0.5938  0.4363 -2.1497
  736MOL0     H99313  10.082   3.991   9.345  0.3366  3.5119  4.4259
  736MOL0     H99314  10.010   4.081   9.132 -0.4749  0.0626  4.6997
  736MOL0     H99315  10.169   4.148   9.096 -1.3042 -0.5220 -1.0938
  736MOL0     H99316  10.266   3.923   9.089 -0.2981  3.6107  1.2173
  736MOL0     H99317  10.153   3.961   8.950 -1.6193 -0.3352 -0.3441
  736MOL0     H99318  10.134   3.800   9.199 -0.6267 -2.5537 -0.7439
  736MOL0     H99319  10.147   3.725   9.040 -1.4848  0.7686 -1.4603
  736MOL0     H99320   9.781   3.850   9.244  0.8351  0.0825 -3.8492
  736MOL0     H99321   9.655   3.674   9.387 -0.2008  0.6814 -0.4489
  736MOL0     H99322   9.655   3.049   9.193 -0.8794 -2.7457 -0.4523
  736MOL0     H99323   9.579   2.843   9.284 -2.0255 -0.1020  0.7102
  736MOL0     H99324   9.347   2.802   9.447  0.8833  0.4642 -0.5442
  736MOL0     H99325   9.412   2.636   9.472  2.1918  0.8818 -0.7621
  736MOL0     H99326   9.386   2.712   9.732 -0.7423 -1.3172  1.0373
  736MOL0     H99327   9.269   2.830   9.679  1.0276 -0.7426  2.0355
  736MOL0     H99328   9.252   2.545   9.605  1.7172  1.3271  0.4694
  736MOL0     H99329   9.206   2.584   9.768 -0.2863  1.4840 -0.3075
  736MOL0     H99330   9.053   2.711   9.528  2.0544 -1.0378 -1.7604
  736MOL0     H99331   9.033   2.737   9.694 -2.1821 -0.4952 -1.5399
  736MOL0     H99332   8.992   2.467   9.706  1.1077  1.0059  0.7323
  736MOL0     H99333   8.958   2.493   9.531 -1.5834  0.0872  0.1278
  736MOL0     H99334   8.759   2.511   9.717  1.1515  1.3414  1.3102
  736MOL0     H99335   8.831   2.673   9.731  3.1095 -1.6101  1.3797
  736MOL0     H99336   8.734   2.555   9.469 -2.1665 -0.4317 -0.3014
  736MOL0     H99337   8.780   2.726   9.490 -0.2665 -0.3746 -0.4506
  736MOL0     H99338   8.527   2.624   9.596 -0.1421  1.4198  0.8397
  736MOL0     H99339   8.603   2.779   9.618 -0.2573 -0.0238 -0.4873
  736MOL0     H99340   9.576   3.019   9.673 -1.3236  1.6878  0.2574
  736MOL0     H99341   9.640   3.223   9.581 -3.6692 -0.5059  0.6951
  736MOL0     H99342   9.910   3.365   9.206 -2.4486 -0.3423  0.1757
  736MOL0     H99343  10.008   3.544   9.070 -0.7005  0.7407 -0.7878
  736MOL0     H99344   9.604   3.993   8.759 -0.7255  0.0959 -1.4003
  736MOL0     H99345   9.614   3.815   8.618 -1.7788  1.4911 -1.2626
  736MOL0     H99346   9.689   3.449   8.560 -0.1055 -0.2281  0.4091
  736MOL0     H99347   9.806   3.273   8.432  0.2508 -0.4177  1.7015
  736MOL0     H99348   9.545   3.031   8.227  0.0180  0.8362 -0.2628
  736MOL0     H99349   9.577   2.884   8.315  0.6723  0.2258  0.6700
  736MOL0     H99350   9.747   2.987   8.078  0.7260 -0.4071  0.3040
  736MOL0     H99351   9.657   2.833   8.091  2.0291 -2.3883  0.5317
  736MOL0     H99352   9.878   2.774   8.117  1.4105 -3.0744  2.5749
  736MOL0     H99353   9.792   2.771   8.266 -0.7026  0.4100  0.1607
  736MOL0     H99354   9.941   3.028   8.214 -0.7721 -0.2012 -2.1913
  736MOL0     H99355   9.939   2.937   8.360  1.2076  0.1168 -0.0621
  736MOL0     H99356  10.278   2.784   8.128  1.9093  2.1099  3.1684
  736MOL0     H99357   9.442   3.058   8.435  1.6728 -1.5409  0.8095
  736MOL0     H99358   9.227   3.292   8.610 -1.6309  0.3715 -2.4851
  736MOL0     H99359   9.227   3.242   8.441  1.0381  0.9142 -0.6286
  736MOL0     H99360   9.245   3.121   8.553 -2.1872 -0.3944 -1.4478
  737MOL0     O99361   6.174   0.584   2.896 -0.2035  0.4127 -0.0236
  737MOL0     C99362   6.203   0.537   3.007 -0.5190  0.9986  0.5159
  737MOL0     O99363   6.332   0.519   3.058  0.4471 -0.4852  0.0950
  737MOL0     C99364   6.431   0.540   2.970 -0.2527 -0.2362  0.3748
  737MOL0     C99365   6.514   0.647   2.989 -0.6754  0.1327  0.4115
  737MOL0     C99366   6.634   0.666   2.902 -0.5469 -0.9404 -1.1508
  737MOL0     C99367   6.652   0.575   2.809 -0.8718 -0.2514 -0.4558
  737MOL0     O99368   6.762   0.567   2.720  0.1473  0.2186  0.2518
  737MOL0     C99369   6.860   0.674   2.728  1.2663 -0.3288 -0.2427
  737MOL0     C99370   6.977   0.643   2.635  0.4877  0.3342 -0.4076
  737MOL0     C99371   6.934   0.641   2.482  0.2694  0.3046 -0.4954
  737MOL0     C99372   7.011   0.533   2.409  1.0988  0.4063 -0.1252
  737MOL0     C99373   7.000   0.546   2.252 -0.1554 -0.1774 -0.0383
  737MOL0     C99374   6.864   0.498   2.203 -0.7055  0.3462  0.6083
  737MOL0     C99375   6.862   0.491   2.048 -0.5115 -0.0758  0.7584
  737MOL0     C99376   6.905   0.624   1.971  0.1935  0.3867 -0.3872
  737MOL0     N99377   6.915   0.605   1.828 -0.0143 -1.0987 -0.2245
  737MOL0     C99378   6.847   0.683   1.741 -0.5800  0.3005  0.6452
  737MOL0     C99379   6.911   0.663   1.623  0.0304 -0.0670  0.7936
  737MOL0     C99380   6.849   0.706   1.487  0.2313 -0.0867  1.0004
  737MOL0     C99381   6.909   0.835   1.427 -0.2620  0.7990 -0.6325
  737MOL0     C99382   6.812   0.902   1.323  0.5371  0.2056 -0.5156
  737MOL0     C99383   6.872   1.006   1.232 -0.3285  0.5513 -0.1497
  737MOL0     O99384   6.989   0.950   1.164 -0.0506  0.1577  0.4316
  737MOL0     C99385   7.041   1.045   1.076  1.0746  0.5519  0.6573
  737MOL0     C99386   7.175   1.037   1.043 -0.1613 -0.6832 -0.8031
  737MOL0     C99387   7.247   1.122   0.949 -0.9299  0.1077 -0.8850
  737MOL0     C99388   7.171   1.218   0.877 -0.2426  0.1316 -0.4623
  737MOL0     C99389   7.232   1.301   0.765 -0.8636  0.1002 -0.9918
  737MOL0     O99390   7.364   1.263   0.726  0.3054  0.1715 -0.5150
  737MOL0     C99391   7.416   1.312   0.605  0.6741  0.6504 -1.0142
  737MOL0     C99392   7.337   1.340   0.492  0.5454 -0.4822  0.0217
  737MOL0     C99393   7.390   1.361   0.363 -0.6305 -0.2160  0.6517
  737MOL0     C99394   7.529   1.360   0.349 -1.7399 -1.0325  0.2998
  737MOL0     O99395   7.568   1.396   0.217  0.2762 -0.7182 -0.8671
  737MOL0     C99396   7.704   1.408   0.182  0.1906 -0.0194 -0.4110
  737MOL0     C99397   7.715   1.450   0.037 -0.4488  0.3490  0.3514
  737MOL0     C99398   7.685   1.352  -0.071  0.2622  0.0635 -0.0077
  737MOL0     C99399   7.687   1.413  -0.210  0.2710 -0.3442  0.6154
  737MOL0     C99400   7.706   1.302  -0.314 -0.3518  0.4626  0.1489
  737MOL0     C99401   7.644   1.362  -0.441 -0.5021  0.0541 -0.1129
  737MOL0     C99402   7.660   1.268  -0.568 -0.1272 -0.0110  0.6089
  737MOL0     C99403   7.568   1.331  -0.685  0.0057 -0.4022  1.0465
  737MOL0    Cl99404   7.580   1.225  -0.842 -0.8624  0.5450 -0.9044
  737MOL0     C99405   7.615   1.332   0.454 -0.7113 -0.0017 -0.4276
  737MOL0     C99406   7.556   1.304   0.585  0.9783  0.0279 -0.1445
  737MOL0     O99407   7.153   1.388   0.726  0.5683  0.0192 -0.5155
  737MOL0     C99408   7.036   1.226   0.913  0.7957  0.1201  0.3445
  737MOL0     C99409   6.966   1.146   1.010 -0.8554  0.4923 -0.0198
  737MOL0     N99410   7.015   0.574   1.643  0.2976 -0.0376 -0.4019
  737MOL0     N99411   7.015   0.548   1.768 -0.5266  0.1920 -0.7617
  737MOL0     C99412   6.556   0.484   2.785 -0.3456  0.2239  0.6574
  737MOL0     C99413   6.447   0.458   2.865 -0.7373 -0.0150 -0.2515
  737MOL0     C99414   6.100   0.495   3.098 -0.2409 -0.5281 -0.1552
  737MOL0     C99415   6.135   0.475   3.236  0.3894 -0.6879  0.6132
  737MOL0     C99416   6.034   0.431   3.327 -0.2077 -0.6273  0.2280
  737MOL0     C99417   5.908   0.418   3.282  0.3611 -0.5003 -0.3579
  737MOL0     O99418   5.813   0.382   3.371  0.4089  0.1155  0.1097
  737MOL0     C99419   5.762   0.249   3.359  0.7410 -0.4463  0.1036
  737MOL0     C99420   5.743   0.164   3.484 -0.5197 -0.7169  0.4991
  737MOL0     C99421   5.662   0.232   3.594 -0.3758  0.4324  1.0373
  737MOL0     C99422   5.693   0.184   3.734 -0.1183 -0.3537 -0.2922
  737MOL0     C99423   5.636   0.050   3.750 -0.0501  1.2470  0.1048
  737MOL0     C99424   5.596  -0.063   3.772 -0.7249  1.1151 -0.6577
  737MOL0     C99425   5.874   0.441   3.148 -0.4009 -0.3594  0.4286
  737MOL0     C99426   5.969   0.484   3.054 -0.0411  0.0808  0.2851
  737MOL0     C99427   5.913   0.508   2.914 -0.6575  0.3975  0.2152
  737MOL0     H99428   6.497   0.718   3.069  2.1869  1.2389  0.1729
  737MOL0     H99429   6.693   0.754   2.922 -3.5923  0.5541  2.6330
  737MOL0     H99430   6.806   0.765   2.700  2.8420  1.4270  2.0359
  737MOL0     H99431   6.889   0.705   2.829 -1.4776 -0.4325  0.6548
  737MOL0     H99432   7.022   0.552   2.677 -2.1200 -0.3369  1.1887
  737MOL0     H99433   7.052   0.717   2.663  0.9615 -0.8752  1.7243
  737MOL0     H99434   6.951   0.743   2.444 -0.3339  0.5167 -0.2123
  737MOL0     H99435   6.827   0.622   2.471  0.2664 -0.6981  0.9857
  737MOL0     H99436   7.115   0.536   2.443  0.5715 -1.3700  1.8211
  737MOL0     H99437   6.965   0.438   2.439  0.6831  0.5531 -0.2879
  737MOL0     H99438   7.029   0.647   2.225  3.4459 -0.7848  1.0325
  737MOL0     H99439   7.070   0.477   2.204 -2.0713 -2.2870  0.0311
  737MOL0     H99440   6.847   0.403   2.255  1.5542 -0.2257  0.4418
  737MOL0     H99441   6.793   0.571   2.242 -1.4959  0.3285 -0.7625
  737MOL0     H99442   6.761   0.460   2.022 -0.9177  0.2199  1.9431
  737MOL0     H99443   6.930   0.408   2.027 -1.5251 -1.4265  2.5181
  737MOL0     H99444   6.845   0.708   2.004  3.9268  2.9578  0.5588
  737MOL0     H99445   7.006   0.651   2.004 -0.4311  0.4256  1.5782
  737MOL0     H99446   6.757   0.735   1.773 -1.5218 -2.5214  3.0843
  737MOL0     H99447   6.873   0.622   1.421 -1.1673  0.2378  0.0469
  737MOL0     H99448   6.742   0.724   1.499 -0.0661 -2.6137  2.8682
  737MOL0     H99449   6.939   0.906   1.504 -1.8547  0.6939  0.1304
  737MOL0     H99450   6.993   0.792   1.372 -3.0202 -1.7276 -3.2976
  737MOL0     H99451   6.730   0.942   1.382  0.0079 -0.1708 -0.9904
  737MOL0     H99452   6.773   0.822   1.260 -3.9209 -0.2423  2.3572
  737MOL0     H99453   6.894   1.090   1.298  0.9958  1.8868 -2.1817
  737MOL0     H99454   6.788   1.024   1.165 -1.8491 -0.3763  1.4352
  737MOL0     H99455   7.236   0.968   1.100  0.1298  0.4051  0.2549
  737MOL0     H99456   7.353   1.111   0.931 -1.1945 -2.6030 -1.0644
  737MOL0     H99457   7.231   1.321   0.501  0.4174  0.5316  0.8050
  737MOL0     H99458   7.342   1.390   0.270  0.8050 -0.7649 -0.3064
  737MOL0     H99459   7.742   1.486   0.250  0.6380 -1.2386  0.7760
  737MOL0     H99460   7.754   1.311   0.184  0.6257  0.1990 -0.6631
  737MOL0     H99461   7.647   1.535   0.022 -1.7488 -0.8238 -0.6890
  737MOL0     H99462   7.813   1.498   0.030 -1.2607  1.8710 -1.5384
  737MOL0     H99463   7.755   1.269  -0.063  1.8771  1.5121  1.8696
  737MOL0     H99464   7.579   1.324  -0.061 -0.6518  2.8438 -0.8212
  737MOL0     H99465   7.775   1.474  -0.227 -0.4854  0.8982  1.0510
  737MOL0     H99466   7.598   1.475  -0.229  0.7736  0.0799 -0.4243
  737MOL0     H99467   7.655   1.206  -0.296 -0.3474  0.7353  1.8113
  737MOL0     H99468   7.811   1.282  -0.338 -0.0430 -0.2931  1.9262
  737MOL0     H99469   7.537   1.386  -0.441 -0.6318 -0.4959 -0.1747
  737MOL0     H99470   7.697   1.457  -0.445 -1.6867  0.7722  0.7232
  737MOL0     H99471   7.629   1.166  -0.546  0.8842 -0.0445  2.0306
  737MOL0     H99472   7.761   1.276  -0.609 -0.0481  2.5549  1.1113
  737MOL0     H99473   7.467   1.334  -0.645 -1.8123 -0.2272 -3.0774
  737MOL0     H99474   7.613   1.430  -0.701 -0.3534 -0.1766  1.4470
  737MOL0     H99475   7.722   1.322   0.442 -0.3013 -2.2345  3.2407
  737MOL0     H99476   7.617   1.276   0.671 -0.1162  2.1970  1.4406
  737MOL0     H99477   6.976   1.286   0.845 -0.6377 -1.2095  0.4058
  737MOL0     H99478   6.859   1.161   1.018 -1.0333 -1.2653  1.3889
  737MOL0     H99479   6.563   0.426   2.693  2.7522  0.8038  0.3968
  737MOL0     H99480   6.378   0.379   2.836  0.3228 -0.1127 -2.7526
  737MOL0     H99481   6.236   0.491   3.273  0.6343 -1.3819  0.2631
  737MOL0     H99482   6.056   0.412   3.431 -0.9214  1.4563  0.8090
  737MOL0     H99483   5.821   0.180   3.298 -0.8191 -0.9607 -0.9005
  737MOL0     H99484   5.665   0.252   3.308  0.7523 -0.9603  0.0432
  737MOL0     H99485   5.844   0.152   3.525 -1.4854  1.8475  4.1633
  737MOL0     H99486   5.708   0.068   3.446 -0.8055  0.1768 -1.6464
  737MOL0     H99487   5.557   0.211   3.573 -0.3537  2.7301 -2.0839
  737MOL0     H99488   5.663   0.341   3.587 -3.0903  0.4040 -3.5455
  737MOL0     H99489   5.800   0.188   3.754 -0.0197  4.1555 -0.7030
  737MOL0     H99490   5.633   0.256   3.790  1.6596  0.7735  0.2406
  737MOL0     H99491   5.561  -0.165   3.778  0.6573  0.5781 -1.2742
  737MOL0     H99492   5.776   0.425   3.104  0.3389 -1.7523 -0.7931
  737MOL0     H99493   5.953   0.599   2.867 -1.1767  0.2814 -0.4764
  737MOL0     H99494   5.933   0.423   2.849 -2.7202 -3.2389  3.8872
  737MOL0     H99495   5.806   0.532   2.914 -0.3870  1.7905 -1.1864
  738MOL0     O99496   8.727   1.975   7.038 -0.2525  0.1407 -0.8462
  738MOL0     C99497   8.628   2.012   7.095  0.4640 -0.3889 -0.5201
  738MOL0     O99498   8.503   1.979   7.055  0.5501 -0.7052  0.5838
  738MOL0     C99499   8.466   1.885   6.964  0.3398  0.5867  0.1904
  738MOL0     C99500   8.334   1.877   6.931 -0.2484 -0.7528 -0.8822
  738MOL0     C99501   8.285   1.764   6.864 -0.2798  0.0891 -1.3698
  738MOL0     C99502   8.376   1.670   6.814 -0.9853 -1.0383 -0.4352
  738MOL0     O99503   8.345   1.564   6.739  0.2815  0.8891  0.4510
  738MOL0     C99504   8.293   1.590   6.605 -0.0332 -0.0425 -0.2529
  738MOL0     C99505   8.398   1.621   6.503 -0.1923  0.0030  0.9105
  738MOL0     C99506   8.511   1.523   6.491 -0.9422  0.4392 -0.0125
  738MOL0     C99507   8.484   1.386   6.406  0.2073 -0.1615 -0.2293
  738MOL0     C99508   8.602   1.306   6.361 -0.2924 -0.5590 -0.0431
  738MOL0     C99509   8.653   1.377   6.233 -0.5203 -0.2577 -0.2498
  738MOL0     C99510   8.554   1.368   6.116 -0.3846  0.1015  0.5948
  738MOL0     C99511   8.633   1.379   5.982  0.7190  0.0492  1.3875
  738MOL0     N99512   8.547   1.352   5.869 -1.1121  0.4712 -0.3834
  738MOL0     C99513   8.504   1.233   5.837 -0.7945  0.3156  0.2585
  738MOL0     C99514   8.397   1.246   5.757 -0.0437 -0.7605 -0.4991
  738MOL0     C99515   8.306   1.149   5.698 -0.6145 -0.4176  0.3233
  738MOL0     C99516   8.337   1.141   5.544  1.0512 -1.1423 -0.2566
  738MOL0     C99517   8.254   1.023   5.483  0.0565  0.7514 -0.2684
  738MOL0     C99518   8.268   1.011   5.335  0.1834 -0.1768  0.7655
  738MOL0     O99519   8.195   0.904   5.268 -0.5621 -0.4818  0.3149
  738MOL0     C99520   8.064   0.907   5.234 -0.1063 -0.9337  0.2374
  738MOL0     C99521   8.007   0.792   5.199  0.8253  0.3113  0.2655
  738MOL0     C99522   7.882   0.785   5.151  0.7166 -0.4415  0.2806
  738MOL0     C99523   7.808   0.905   5.122 -0.9051 -0.4303 -0.6644
  738MOL0     C99524   7.690   0.901   5.039  0.3042  0.7627 -0.7602
  738MOL0     O99525   7.672   0.787   4.968 -0.4122 -0.6699 -0.7835
  738MOL0     C99526   7.559   0.781   4.897  0.6276 -0.6829 -0.1164
  738MOL0     C99527   7.572   0.770   4.759  0.1415 -0.8211 -0.0254
  738MOL0     C99528   7.453   0.750   4.679  0.0543 -0.4027 -0.2718
  738MOL0     C99529   7.327   0.744   4.742 -0.4395  0.1374 -0.2871
  738MOL0     O99530   7.214   0.726   4.668  1.0207  0.0134 -0.6046
  738MOL0     C99531   7.079   0.749   4.709  0.7803  0.8847 -0.5467
  738MOL0     C99532   6.978   0.701   4.599 -0.3898  0.4768 -0.4039
  738MOL0     C99533   6.992   0.774   4.465 -0.8775  0.0929  0.1266
  738MOL0     C99534   6.868   0.753   4.393  1.4002 -0.6277  0.0743
  738MOL0     C99535   6.884   0.810   4.250  0.1701 -0.5748  0.2828
  738MOL0     C99536   6.765   0.780   4.159  0.0790 -0.0833  0.4660
  738MOL0     C99537   6.625   0.830   4.206 -0.4923 -0.3992  0.6986
  738MOL0     C99538   6.611   0.966   4.141 -0.2883 -0.9859 -0.0388
  738MOL0    Cl99539   6.526   0.956   3.992 -0.1196  0.2119  0.0404
  738MOL0     C99540   7.318   0.770   4.881 -0.1944  0.0799 -0.9498
  738MOL0     C99541   7.431   0.789   4.961 -1.4174 -0.7013  0.0325
  738MOL0     O99542   7.627   1.000   5.030  0.3137 -0.4357 -0.5005
  738MOL0     C99543   7.856   1.024   5.174 -0.0763 -0.1676 -0.4020
  738MOL0     C99544   7.989   1.024   5.227  0.7918  0.3788  0.1584
  738MOL0     N99545   8.387   1.378   5.726 -0.3886  0.2068 -1.0807
  738MOL0     N99546   8.482   1.438   5.787 -0.0303  0.2219  0.9100
  738MOL0     C99547   8.510   1.685   6.843  1.0235 -0.2585 -0.0090
  738MOL0     C99548   8.553   1.786   6.921  0.8044 -0.0304  0.7127
  738MOL0     C99549   8.642   2.119   7.195  0.0605  0.3054 -0.9775
  738MOL0     C99550   8.612   2.237   7.140 -0.2731  0.5197 -1.2671
  738MOL0     C99551   8.617   2.356   7.219  0.5510 -0.6603  0.6673
  738MOL0     C99552   8.651   2.350   7.358  0.3859 -0.0929 -0.9305
  738MOL0     O99553   8.630   2.450   7.446 -0.6880  0.5385 -0.0279
  738MOL0     C99554   8.512   2.524   7.424  0.7037  0.9588  0.0165
  738MOL0     C99555   8.436   2.565   7.545  0.4212 -1.3257 -0.0917
  738MOL0     C99556   8.531   2.592   7.670 -0.4758 -0.0724  0.8988
  738MOL0     C99557   8.454   2.607   7.799  0.3501 -0.5538  0.2526
  738MOL0     C99558   8.534   2.633   7.919 -0.2016 -0.5930 -0.1811
  738MOL0     C99559   8.608   2.632   8.018 -0.0705  0.3717 -0.5719
  738MOL0     C99560   8.685   2.223   7.403  0.8167  0.5128 -0.0060
  738MOL0     C99561   8.689   2.105   7.327  0.0224  0.7717 -0.3452
  738MOL0     C99562   8.752   1.989   7.400  1.3132 -0.6905  1.0108
  738MOL0     H99563   8.260   1.942   6.977 -0.3134 -0.7617 -0.9762
  738MOL0     H99564   8.179   1.746   6.849 -1.3450  1.5704  2.7673
  738MOL0     H99565   8.237   1.504   6.569  1.3457  0.3420 -3.7112
  738MOL0     H99566   8.233   1.682   6.606  0.6106  0.4831 -2.6602
  738MOL0     H99567   8.437   1.717   6.536 -2.4897  1.3694 -0.1018
  738MOL0     H99568   8.358   1.645   6.404 -1.8998 -0.7864  1.3567
  738MOL0     H99569   8.550   1.496   6.590  0.4092 -0.3418 -0.7399
  738MOL0     H99570   8.588   1.583   6.442 -1.0358  0.9151  0.4096
  738MOL0     H99571   8.442   1.312   6.475  2.5694  0.1774  1.7191
  738MOL0     H99572   8.414   1.409   6.325 -1.4518 -1.7415  0.6745
  738MOL0     H99573   8.681   1.298   6.435 -1.6559 -1.0560  1.4199
  738MOL0     H99574   8.571   1.207   6.326 -0.0581 -0.3104 -0.9877
  738MOL0     H99575   8.668   1.484   6.250  0.8889 -0.3138 -0.9648
  738MOL0     H99576   8.748   1.335   6.195  0.1431 -0.3040  1.3953
  738MOL0     H99577   8.488   1.455   6.126  0.2628  0.4419  2.1662
  738MOL0     H99578   8.501   1.273   6.122 -1.8475  0.9109  1.0673
  738MOL0     H99579   8.652   1.485   5.969 -1.6637  0.3536 -0.4613
  738MOL0     H99580   8.722   1.316   5.980 -0.2805 -1.4142  0.1362
  738MOL0     H99581   8.533   1.139   5.884 -0.9403 -0.6065 -1.4182
  738MOL0     H99582   8.331   1.052   5.742 -0.7643  0.5520  2.7512
  738MOL0     H99583   8.202   1.176   5.720 -1.2298 -1.0637 -1.6591
  738MOL0     H99584   8.321   1.227   5.478  1.9995 -1.8940 -1.5116
  738MOL0     H99585   8.445   1.122   5.541  1.1306 -0.8151  0.3760
  738MOL0     H99586   8.147   1.022   5.502  0.2392 -2.8142  1.3664
  738MOL0     H99587   8.301   0.935   5.528  3.3099  1.7304 -1.4784
  738MOL0     H99588   8.373   0.997   5.310 -0.6402 -1.0231 -2.8485
  738MOL0     H99589   8.242   1.104   5.284  0.5841  0.1811  1.2110
  738MOL0     H99590   8.081   0.714   5.217  0.5066  0.9370  6.5327
  738MOL0     H99591   7.848   0.687   5.120 -3.6474 -0.1387  3.2360
  738MOL0     H99592   7.661   0.787   4.700  1.7759 -1.1892  2.2055
  738MOL0     H99593   7.465   0.741   4.571  1.2172  0.3063 -0.2293
  738MOL0     H99594   7.046   0.696   4.799  1.9248  0.0586 -0.5916
  738MOL0     H99595   7.058   0.848   4.751 -1.1932  0.3359 -0.1254
  738MOL0     H99596   6.988   0.593   4.585  3.5894  0.7994 -1.3400
  738MOL0     H99597   6.877   0.722   4.635  0.9662  0.3603  3.9932
  738MOL0     H99598   7.003   0.880   4.490 -1.2533  0.2600 -0.3880
  738MOL0     H99599   7.083   0.741   4.414  0.7620  4.0285  0.1113
  738MOL0     H99600   6.787   0.804   4.447 -0.3760 -3.4422  0.2599
  738MOL0     H99601   6.838   0.648   4.386  3.4083 -1.2035 -0.6156
  738MOL0     H99602   6.966   0.757   4.202  1.4575  0.0800  1.6667
  738MOL0     H99603   6.910   0.916   4.240  1.4671 -0.9110 -0.0500
  738MOL0     H99604   6.778   0.822   4.059 -3.2750  1.1512  0.4054
  738MOL0     H99605   6.760   0.672   4.144  3.4800 -0.4188  1.0413
  738MOL0     H99606   6.624   0.835   4.315 -4.6056 -0.7531  0.8333
  738MOL0     H99607   6.542   0.762   4.186 -1.2005 -0.0095  2.1675
  738MOL0     H99608   6.548   1.028   4.205  0.4115 -0.2352 -0.0646
  738MOL0     H99609   6.707   1.014   4.122  1.3106 -4.1003 -0.5756
  738MOL0     H99610   7.221   0.772   4.930  1.0179  1.7073  1.5401
  738MOL0     H99611   7.423   0.803   5.068  0.2221  0.5423  0.0441
  738MOL0     H99612   7.800   1.115   5.158  0.6659  0.3041 -0.3761
  738MOL0     H99613   8.034   1.119   5.254  1.9594 -0.8077  2.7472
  738MOL0     H99614   8.590   1.615   6.822 -0.2618 -1.4737 -1.0600
  738MOL0     H99615   8.656   1.778   6.952  1.3395  3.7423  0.3657
  738MOL0     H99616   8.579   2.237   7.036 -2.5808 -0.8053 -0.6076
  738MOL0     H99617   8.586   2.453   7.181  1.3520 -0.6208  0.0798
  738MOL0     H99618   8.441   2.473   7.358  0.0904  3.6336 -1.5514
  738MOL0     H99619   8.536   2.618   7.374  0.1586  0.5001 -1.1333
  738MOL0     H99620   8.361   2.490   7.568 -2.8250  1.4616 -0.7993
  738MOL0     H99621   8.374   2.655   7.534  0.1550 -1.3132  1.2732
  738MOL0     H99622   8.595   2.681   7.661  0.6213 -0.4671  3.5911
  738MOL0     H99623   8.589   2.500   7.678  1.6205  0.8188 -2.2552
  738MOL0     H99624   8.383   2.690   7.792  1.9448  0.7105 -2.8285
  738MOL0     H99625   8.386   2.522   7.803  0.7293 -0.9814 -1.7156
  738MOL0     H99626   8.683   2.635   8.094 -0.8383 -0.5797  0.2407
  738MOL0     H99627   8.728   2.221   7.503  0.9587  2.0146 -0.0041
  738MOL0     H99628   8.701   1.965   7.494 -0.8332 -0.9755 -0.1820
  738MOL0     H99629   8.732   1.894   7.351 -1.7844 -0.9247  2.4829
  738MOL0     H99630   8.860   1.999   7.417  1.2401  0.2351  1.0187
  739MOL0     O99631   9.286   7.296   1.342  0.0279 -0.1163 -0.1459
  739MOL0     C99632   9.233   7.189   1.380  0.3914 -0.4220 -0.7387
  739MOL0     O99633   9.147   7.115   1.299  0.1770 -0.1504  0.2384
  739MOL0     C99634   9.112   7.155   1.173 -0.1450  0.9839 -0.5125
  739MOL0     C99635   9.050   7.274   1.162  0.4409  0.0310 -0.9074
  739MOL0     C99636   9.011   7.309   1.036 -0.1271 -0.4860  0.6300
  739MOL0     C99637   9.046   7.244   0.918 -0.3692  0.0862 -0.6363
  739MOL0     O99638   9.020   7.284   0.790 -0.1533  0.0385  0.2928
  739MOL0     C99639   9.124   7.330   0.712 -0.3115  1.2111 -0.3639
  739MOL0     C99640   9.176   7.224   0.626  0.0025  0.4348  1.0608
  739MOL0     C99641   9.239   7.285   0.498 -0.2814  0.2305  0.0026
  739MOL0     C99642   9.281   7.177   0.397  0.0176 -0.0859  0.1499
  739MOL0     C99643   9.362   7.239   0.274  0.5352 -0.8425 -0.4899
  739MOL0     C99644   9.302   7.344   0.193  0.0817 -0.2726 -0.2637
  739MOL0     C99645   9.411   7.388   0.083  0.5097  0.1030 -0.2314
  739MOL0     C99646   9.342   7.438  -0.041 -0.0349  0.1886 -1.2280
  739MOL0     N99647   9.435   7.497  -0.131  0.2753  0.2526 -0.0346
  739MOL0     C99648   9.447   7.634  -0.151 -0.2255 -0.0026 -0.1946
  739MOL0     C99649   9.530   7.642  -0.262  1.1335  0.3227  0.7410
  739MOL0     C99650   9.579   7.762  -0.330 -0.0837 -0.1764  0.1395
  739MOL0     C99651   9.481   7.885  -0.310  0.1710  0.3055 -0.2989
  739MOL0     C99652   9.507   7.987  -0.414 -0.0693 -0.3363  0.9216
  739MOL0     C99653   9.417   8.109  -0.402  0.5345  0.3336  0.7771
  739MOL0     O99654   9.433   8.171  -0.271  0.4667  0.9416 -0.2099
  739MOL0     C99655   9.553   8.216  -0.233 -0.4613 -0.8602 -0.0300
  739MOL0     C99656   9.629   8.295  -0.323 -1.4040 -0.6208 -0.7216
  739MOL0     C99657   9.745   8.367  -0.267  1.1604  0.6784  0.9424
  739MOL0     C99658   9.775   8.354  -0.132 -1.0489 -0.5470 -0.8460
  739MOL0     C99659   9.863   8.445  -0.050  0.0769 -0.7884 -0.1715
  739MOL0     O99660   9.883   8.409   0.082  0.1169  0.0725  0.5674
  739MOL0     C99661   9.988   8.470   0.145  0.0028  0.6132 -0.1951
  739MOL0     C99662   9.962   8.590   0.215 -0.3624 -0.0361  0.2258
  739MOL0     C99663  10.061   8.659   0.297 -0.1069  0.7700  0.5596
  739MOL0     C99664  10.185   8.598   0.314 -0.1920  0.3649  0.1870
  739MOL0     O99665  10.281   8.636   0.398 -0.6732  0.3810 -0.6240
  739MOL0     C99666  10.272   8.757   0.466  0.6396 -0.6746  0.5625
  739MOL0     C99667  10.385   8.776   0.564  0.1989  0.1233 -0.1402
  739MOL0     C99668  10.401   8.929   0.599 -0.1009  0.3256  0.4071
  739MOL0     C99669  10.282   8.997   0.671  0.2557 -0.3107 -0.4346
  739MOL0     C99670  10.287   8.973   0.823  0.5311  0.3292 -1.1769
  739MOL0     C99671  10.360   9.083   0.897 -0.1541  0.0364  0.5860
  739MOL0     C99672  10.364   9.057   1.056  0.6523 -0.7037 -0.2233
  739MOL0     C99673  10.400   9.185   1.135  0.7618 -0.0626 -0.3059
  739MOL0    Cl99674  10.404   9.161   1.316 -0.2185 -0.1140  0.5357
  739MOL0     C99675  10.204   8.481   0.247 -0.3961  0.3287  0.7271
  739MOL0     C99676  10.109   8.419   0.167 -0.0923  0.6808 -0.6587
  739MOL0     O99677   9.913   8.548  -0.104 -0.8229  0.4031 -0.0860
  739MOL0     C99678   9.707   8.260  -0.054 -0.4740  0.2350  1.3022
  739MOL0     C99679   9.600   8.192  -0.104  0.4888  0.4103  0.2975
  739MOL0     N99680   9.568   7.514  -0.303  0.0172  0.7265  0.1550
  739MOL0     N99681   9.516   7.430  -0.224  0.5567  0.5178 -0.3289
  739MOL0     C99682   9.126   7.127   0.942  0.3725  1.0783 -0.0533
  739MOL0     C99683   9.155   7.080   1.069 -0.1701  0.0235  0.3802
  739MOL0     C99684   9.236   7.145   1.528  0.5801  0.9349 -0.2225
  739MOL0     C99685   9.172   7.017   1.554 -0.1359  0.0909  0.2961
  739MOL0     C99686   9.177   6.970   1.686 -0.2663 -0.1654 -0.2477
  739MOL0     C99687   9.235   7.046   1.785 -0.2794 -0.2424  0.4591
  739MOL0     O99688   9.242   7.021   1.924  0.2884 -0.6407  0.3302
  739MOL0     C99689   9.256   6.886   1.973 -0.3684 -0.6587 -0.5132
  739MOL0     C99690   9.153   6.823   2.053 -0.1878 -0.1123  1.2827
  739MOL0     C99691   9.190   6.675   2.067 -0.5144  0.5635  0.0071
  739MOL0     C99692   9.097   6.602   2.162  0.3855  0.3652 -0.5588
  739MOL0     C99693   9.095   6.663   2.291  0.1225  0.0748 -0.4211
  739MOL0     C99694   9.088   6.703   2.407  0.4446 -0.5966  0.4984
  739MOL0     C99695   9.280   7.172   1.762 -0.2651  0.0934 -0.7008
  739MOL0     C99696   9.274   7.227   1.640 -0.4684  0.0669 -0.3051
  739MOL0     C99697   9.318   7.363   1.624  0.4922  0.3274 -0.8042
  739MOL0     H99698   9.043   7.347   1.242  1.3273  0.9529 -1.6416
  739MOL0     H99699   8.964   7.406   1.032  1.2924  0.1829 -0.4718
  739MOL0     H99700   9.077   7.406   0.649  1.6778  1.1655 -1.9906
  739MOL0     H99701   9.206   7.369   0.773  1.4375 -2.9872  0.2828
  739MOL0     H99702   9.087   7.164   0.603  1.1921 -1.3518  0.8701
  739MOL0     H99703   9.255   7.161   0.669 -1.0512 -2.0581 -0.4482
  739MOL0     H99704   9.325   7.346   0.527 -1.7279  2.0868  0.5707
  739MOL0     H99705   9.165   7.344   0.443 -0.0866  0.5727  0.1048
  739MOL0     H99706   9.345   7.101   0.443 -0.3525 -1.1996 -1.1286
  739MOL0     H99707   9.193   7.121   0.363 -0.0595  1.7753 -3.1059
  739MOL0     H99708   9.456   7.276   0.316  0.3935 -0.6291 -0.3545
  739MOL0     H99709   9.395   7.168   0.198  3.5994  2.4609 -2.6203
  739MOL0     H99710   9.218   7.302   0.137  2.3035 -3.1601 -1.7529
  739MOL0     H99711   9.281   7.428   0.260  2.9804  0.4919 -0.1587
  739MOL0     H99712   9.483   7.306   0.069 -0.9654 -1.0213 -1.5105
  739MOL0     H99713   9.473   7.471   0.117  0.1730  1.3261 -2.4194
  739MOL0     H99714   9.300   7.353  -0.095 -3.2268  2.3068 -2.4010
  739MOL0     H99715   9.262   7.505  -0.010 -1.2171 -0.4970 -2.6842
  739MOL0     H99716   9.399   7.723  -0.111 -1.3927  0.6449 -2.7985
  739MOL0     H99717   9.683   7.781  -0.301 -0.0775 -1.2053  0.8288
  739MOL0     H99718   9.580   7.733  -0.435  1.5930 -1.8151  0.5424
  739MOL0     H99719   9.376   7.857  -0.322  0.2915  0.2200 -1.2497
  739MOL0     H99720   9.480   7.923  -0.207  0.8309 -0.6111  0.0618
  739MOL0     H99721   9.491   7.939  -0.511 -0.1388 -0.6577  1.0924
  739MOL0     H99722   9.612   8.017  -0.419  0.2410 -1.5758 -2.0878
  739MOL0     H99723   9.320   8.060  -0.407  1.7297 -2.0652 -0.8584
  739MOL0     H99724   9.418   8.181  -0.485 -3.6673 -0.8726 -0.5719
  739MOL0     H99725   9.591   8.314  -0.423  0.4084 -1.4898 -1.6030
  739MOL0     H99726   9.792   8.439  -0.334 -2.3435  1.4477 -0.9215
  739MOL0     H99727   9.865   8.636   0.196  0.1233  1.0061  0.1661
  739MOL0     H99728  10.022   8.750   0.342 -1.0618 -0.0511  1.4469
  739MOL0     H99729  10.271   8.842   0.397  2.5717 -0.3991  0.8224
  739MOL0     H99730  10.175   8.768   0.514  0.7237 -0.2662  0.6484
  739MOL0     H99731  10.367   8.711   0.650  0.2822 -3.4324 -2.6323
  739MOL0     H99732  10.474   8.740   0.513 -0.0186 -0.4019 -0.1512
  739MOL0     H99733  10.489   8.935   0.665 -0.7239  0.9218  1.2007
  739MOL0     H99734  10.417   8.983   0.505 -0.6719 -0.4092 -0.1182
  739MOL0     H99735  10.189   8.964   0.623  0.8141 -0.1318 -1.6993
  739MOL0     H99736  10.296   9.103   0.646 -0.1694 -0.7027 -2.5642
  739MOL0     H99737  10.352   8.889   0.847  3.7231  1.9070 -3.5505
  739MOL0     H99738  10.182   8.956   0.849  1.3709 -3.7915  0.2828
  739MOL0     H99739  10.460   9.083   0.853  0.3118 -0.7686  1.5975
  739MOL0     H99740  10.320   9.182   0.873 -2.3296 -0.5338  1.5567
  739MOL0     H99741  10.432   8.972   1.070  0.5784 -1.1348 -2.1610
  739MOL0     H99742  10.260   9.038   1.086  0.1982  0.3945 -1.0714
  739MOL0     H99743  10.494   9.227   1.096  0.3553 -0.3735 -1.7001
  739MOL0     H99744  10.325   9.264   1.118  3.5609  3.0586  0.7287
  739MOL0     H99745  10.287   8.418   0.277 -2.2517 -1.7311  1.8500
  739MOL0     H99746  10.135   8.322   0.127  0.5259  0.6903 -0.2937
  739MOL0     H99747   9.739   8.236   0.047  1.4100  1.2340  0.9690
  739MOL0     H99748   9.537   8.128  -0.044  2.2099  1.3644  3.3159
  739MOL0     H99749   9.175   7.078   0.859 -1.7639 -2.2198  0.4304
  739MOL0     H99750   9.210   6.987   1.087  1.5579  0.8767 -0.2699
  739MOL0     H99751   9.110   6.958   1.488 -2.1802  3.2956 -0.9189
  739MOL0     H99752   9.142   6.868   1.695  0.5332 -0.5875 -1.5770
  739MOL0     H99753   9.344   6.884   2.038 -1.5001 -1.9728  1.0594
  739MOL0     H99754   9.282   6.819   1.890 -0.7110  2.2769 -3.1397
  739MOL0     H99755   9.060   6.836   1.996 -0.7454  1.5899  2.5031
  739MOL0     H99756   9.143   6.890   2.139 -0.8337  2.0082 -0.3451
  739MOL0     H99757   9.296   6.672   2.093 -0.8208 -1.2063  1.2414
  739MOL0     H99758   9.178   6.622   1.973 -1.1881  1.6648 -0.5503
  739MOL0     H99759   8.995   6.611   2.121  0.7293  0.1945 -1.4787
  739MOL0     H99760   9.123   6.496   2.166  0.6424  0.4319 -0.4798
  739MOL0     H99761   9.072   6.736   2.508 -2.9598 -0.0721 -0.1082
  739MOL0     H99762   9.328   7.230   1.841  2.5383 -0.1107 -2.1243
  739MOL0     H99763   9.423   7.354   1.595  0.3675 -0.3633 -1.0602
  739MOL0     H99764   9.258   7.418   1.551 -2.0418  0.0326  0.9047
  739MOL0     H99765   9.311   7.427   1.713 -1.3682  0.8235 -1.2727
  740MOL0     O99766   2.653   7.764   9.737  0.0680 -0.4332  0.4398
  740MOL0     C99767   2.678   7.876   9.693 -0.6203  0.2792  0.5715
  740MOL0     O99768   2.798   7.922   9.646 -0.7910 -0.4049  0.1052
  740MOL0     C99769   2.914   7.863   9.690  0.2529  0.5843  0.0585
  740MOL0     C99770   2.941   7.724   9.727 -1.0442  0.0858 -0.8594
  740MOL0     C99771   3.065   7.689   9.785 -0.6344 -0.1542 -0.7249
  740MOL0     C99772   3.159   7.791   9.816 -0.1679  1.0361 -0.1324
  740MOL0     O99773   3.267   7.750   9.892  0.2052 -0.2490 -0.6541
  740MOL0     C99774   3.231   7.766  10.030 -0.5060  1.5585 -0.2601
  740MOL0     C99775   3.360   7.739  10.108 -0.8454 -0.4324  0.0247
  740MOL0     C99776   3.344   7.687  10.256  0.4558 -0.7658 -0.6364
  740MOL0     C99777   3.462   7.737  10.342  0.3142 -0.1392 -0.0634
  740MOL0     C99778   3.448   7.695  10.491  0.2262  0.2044  0.0121
  740MOL0     C99779   3.557   7.765  10.570  0.2559  0.3872 -0.6302
  740MOL0     C99780   3.698   7.712  10.525  0.7595  0.0066 -0.4324
  740MOL0     C99781   3.793   7.802  10.620 -0.8971 -0.8050  0.3667
  740MOL0     N99782   3.815   7.937  10.565 -0.4754  0.3540  0.3793
  740MOL0     C99783   3.899   7.988  10.463 -0.1295  0.0657  0.3603
  740MOL0     C99784   3.878   8.121  10.466  0.2351  0.2871  1.5276
  740MOL0     C99785   3.954   8.207  10.376 -0.8776 -0.0833 -0.1612
  740MOL0     C99786   3.876   8.338  10.368  0.5656 -0.0395 -0.0290
  740MOL0     C99787   3.995   8.430  10.346  0.0581  0.1769  0.5130
  740MOL0     C99788   3.948   8.571  10.320 -1.0491 -0.3590 -0.2780
  740MOL0     O99789   3.919   8.606  10.182 -0.1925 -0.0534  0.4396
  740MOL0     C99790   3.881   8.740  10.160  0.7306  0.0134 -0.8216
  740MOL0     C99791   3.849   8.833  10.258 -0.6702  0.8848 -0.8718
  740MOL0     C99792   3.825   8.966  10.222  0.0640 -0.2230 -1.0220
  740MOL0     C99793   3.773   8.999  10.094  0.0737 -0.1658  0.4886
  740MOL0     C99794   3.739   9.135  10.061 -0.6055  0.1115 -0.4563
  740MOL0     O99795   3.739   9.220  10.172  0.2735  0.2662  0.1606
  740MOL0     C99796   3.675   9.333  10.139  0.1123  0.4671 -0.3981
  740MOL0     C99797   3.739   9.453  10.127 -0.3528 -0.2404 -0.6606
  740MOL0     C99798   3.667   9.570  10.094 -0.4971 -0.3747  0.4974
  740MOL0     C99799   3.527   9.563  10.082  0.2785 -0.4951 -0.3618
  740MOL0     O99800   3.455   9.675  10.067  0.4302 -0.8907 -0.2025
  740MOL0     C99801   3.507   9.794  10.007 -0.3875 -0.2759  0.6070
  740MOL0     C99802   3.378   9.868   9.960 -0.1148 -0.1979  0.1225
  740MOL0     C99803   3.382  10.020   9.975  0.1515  1.0377 -0.0902
  740MOL0     C99804   3.268  10.105   9.919  0.2184  1.0063 -0.7949
  740MOL0     C99805   3.323  10.240   9.871 -0.8557  0.1862 -0.6869
  740MOL0     C99806   3.213  10.329   9.833  0.4154 -0.1374  0.8108
  740MOL0     C99807   3.240  10.476   9.837 -0.0100 -0.0700 -0.2098
  740MOL0     C99808   3.101  10.551   9.839  0.0644  0.6778 -0.2759
  740MOL0    Cl99809   3.113  10.725   9.778 -0.4645 -0.1863  0.0312
  740MOL0     C99810   3.464   9.443  10.106  0.7861 -0.1017 -0.5889
  740MOL0     C99811   3.533   9.329  10.141  0.0407  0.0300  0.9238
  740MOL0     O99812   3.708   9.160   9.943 -0.3145 -0.0174 -0.0446
  740MOL0     C99813   3.786   8.898   9.994  1.1667  0.3116  0.0881
  740MOL0     C99814   3.844   8.772  10.029 -1.0817 -0.1841 -0.6135
  740MOL0     N99815   3.797   8.159  10.570 -0.2085 -0.1742 -1.0616
  740MOL0     N99816   3.756   8.051  10.619  0.1009  1.0754 -0.1538
  740MOL0     C99817   3.138   7.922   9.788 -0.3092  0.1924  0.1226
  740MOL0     C99818   3.013   7.961   9.730 -0.5314 -0.8014  0.2766
  740MOL0     C99819   2.564   7.974   9.679 -0.5648  0.0107  0.1884
  740MOL0     C99820   2.531   8.027   9.554 -0.1421 -0.8944  1.0920
  740MOL0     C99821   2.437   8.126   9.540 -0.2662 -0.9480  1.0289
  740MOL0     C99822   2.348   8.148   9.644  0.0387 -0.9044  0.9695
  740MOL0     O99823   2.249   8.246   9.641  0.1661  0.1623  0.3435
  740MOL0     C99824   2.117   8.201   9.641  0.3572  0.7650  0.2774
  740MOL0     C99825   2.032   8.323   9.678  0.3444 -0.2161  0.2502
  740MOL0     C99826   2.074   8.443   9.579 -0.2565 -0.0165 -0.5992
  740MOL0     C99827   1.964   8.545   9.584 -0.5508  0.7361  1.0677
  740MOL0     C99828   1.990   8.642   9.477  0.3237  0.4646  0.0060
  740MOL0     C99829   2.009   8.736   9.401  0.2575 -0.3461 -0.4623
  740MOL0     C99830   2.385   8.088   9.763 -0.8040  0.8538 -0.2579
  740MOL0     C99831   2.488   8.006   9.791 -0.2024 -0.6035  0.2603
  740MOL0     C99832   2.540   7.968   9.933 -0.0649  0.4652  0.2235
  740MOL0     H99833   2.862   7.652   9.708 -0.6679 -0.1357 -1.6468
  740MOL0     H99834   3.082   7.583   9.801  3.6844  0.6359  1.0925
  740MOL0     H99835   3.183   7.860  10.058 -1.7446  1.4841 -1.9427
  740MOL0     H99836   3.162   7.691  10.069  2.0339 -0.1452  1.1479
  740MOL0     H99837   3.404   7.839  10.104 -1.3488 -0.2183 -0.2980
  740MOL0     H99838   3.422   7.664  10.057  0.5928  1.6407 -1.4091
  740MOL0     H99839   3.347   7.578  10.251 -2.5073 -0.9760  0.0439
  740MOL0     H99840   3.245   7.709  10.298  0.8004 -2.1426  1.0376
  740MOL0     H99841   3.557   7.700  10.301  1.7988 -0.8400  3.5966
  740MOL0     H99842   3.446   7.845  10.335 -0.8953 -0.3780 -1.6381
  740MOL0     H99843   3.346   7.714  10.525 -1.5711 -3.4866 -2.5738
  740MOL0     H99844   3.464   7.587  10.499 -0.2340  0.2586  2.3211
  740MOL0     H99845   3.551   7.873  10.550  1.1739  0.4595 -0.5272
  740MOL0     H99846   3.529   7.738  10.673 -3.4718  0.8742 -1.3684
  740MOL0     H99847   3.717   7.737  10.420 -2.5502  4.0906 -0.3198
  740MOL0     H99848   3.700   7.605  10.546  1.3368 -0.2311 -1.6496
  740MOL0     H99849   3.766   7.813  10.725 -0.7432  0.2011  0.3077
  740MOL0     H99850   3.897   7.767  10.619  0.4515  2.6450 -2.5723
  740MOL0     H99851   3.952   7.928  10.391 -1.5065 -2.6042  1.4106
  740MOL0     H99852   4.056   8.208  10.415 -0.6818 -0.3910 -0.6661
  740MOL0     H99853   3.968   8.153  10.282  0.2003  2.1189 -1.3420
  740MOL0     H99854   3.812   8.348  10.280 -1.0794  2.1044  1.3118
  740MOL0     H99855   3.824   8.367  10.459  1.1765 -1.7470  0.9210
  740MOL0     H99856   4.072   8.398  10.275  2.9786  0.9994  3.0690
  740MOL0     H99857   4.055   8.448  10.435  0.4711  1.6336 -0.0154
  740MOL0     H99858   4.035   8.636  10.331  0.8158 -2.7836  0.1090
  740MOL0     H99859   3.873   8.591  10.396 -0.7197 -3.8753  1.1627
  740MOL0     H99860   3.844   8.824  10.366 -0.1585  0.7677 -0.8528
  740MOL0     H99861   3.824   9.039  10.302 -2.7555 -2.6822  1.4285
  740MOL0     H99862   3.844   9.457  10.157 -0.5008  1.5145 -0.2457
  740MOL0     H99863   3.715   9.668  10.090  1.0737 -0.8328  4.0624
  740MOL0     H99864   3.551   9.855  10.087  2.6258 -1.9412  0.3807
  740MOL0     H99865   3.585   9.788   9.930 -1.3118  2.7507 -0.7099
  740MOL0     H99866   3.363   9.852   9.853 -1.9689  3.4884 -0.3244
  740MOL0     H99867   3.292   9.832  10.017 -0.8880  3.5225  1.6452
  740MOL0     H99868   3.398  10.049  10.080 -0.6612  1.0715  0.0308
  740MOL0     H99869   3.482  10.045   9.938  0.3512 -1.7720 -1.7220
  740MOL0     H99870   3.201  10.124  10.004  2.9378  0.2522  1.6739
  740MOL0     H99871   3.221  10.054   9.835  2.3747 -0.9913 -0.8844
  740MOL0     H99872   3.398  10.210   9.797  1.2123 -1.4709  1.8856
  740MOL0     H99873   3.380  10.293   9.947  1.5257 -2.8654 -0.1554
  740MOL0     H99874   3.179  10.288   9.738 -0.7300  2.6934 -0.1111
  740MOL0     H99875   3.120  10.319   9.890 -0.0253  1.6034  0.4434
  740MOL0     H99876   3.305  10.494   9.751  0.6889  0.0193  0.3290
  740MOL0     H99877   3.290  10.518   9.924  1.7819 -1.3542 -0.5627
  740MOL0     H99878   3.024  10.495   9.785 -1.4479 -1.5282  3.7611
  740MOL0     H99879   3.067  10.551   9.943 -0.2559 -3.2281 -0.2562
  740MOL0     H99880   3.356   9.449  10.093  0.6592  1.0206  0.7568
  740MOL0     H99881   3.481   9.235  10.154 -1.5896  0.4005 -2.0299
  740MOL0     H99882   3.766   8.921   9.890 -2.5313  1.1155  0.8088
  740MOL0     H99883   3.876   8.696   9.958 -2.2196 -2.1176  0.8285
  740MOL0     H99884   3.209   7.991   9.833 -0.4143 -0.3899  1.2113
  740MOL0     H99885   2.992   8.068   9.723  0.5690 -0.2271  3.8235
  740MOL0     H99886   2.585   8.011   9.460 -1.3968  2.3205 -0.3317
  740MOL0     H99887   2.432   8.194   9.455 -0.8292 -0.1488  1.6829
  740MOL0     H99888   2.116   8.125   9.719 -1.9455 -1.5205 -1.7804
  740MOL0     H99889   2.074   8.158   9.550 -1.2739 -3.1012  2.6073
  740MOL0     H99890   2.043   8.372   9.775 -1.3702  1.2420 -0.2363
  740MOL0     H99891   1.929   8.293   9.659  0.4857 -0.4829 -0.1150
  740MOL0     H99892   2.094   8.414   9.476 -3.1988  0.1516 -1.2743
  740MOL0     H99893   2.165   8.484   9.625 -0.2905 -2.2373  1.7049
  740MOL0     H99894   1.877   8.493   9.545  0.8542  1.1114 -3.0832
  740MOL0     H99895   1.942   8.597   9.678 -1.0009  0.5520  1.0650
  740MOL0     H99896   2.024   8.818   9.334  0.2966  2.1854  2.3842
  740MOL0     H99897   2.335   8.115   9.856 -0.9461  1.8294 -0.6017
  740MOL0     H99898   2.530   8.049  10.006  6.0222  1.3794  0.5530
  740MOL0     H99899   2.485   7.883   9.974 -1.5819  0.6449 -1.3267
  740MOL0     H99900   2.644   7.934   9.944  0.8382  3.5038  2.3800
  741MOL0     O99901   1.746   6.303   6.958 -0.1220 -0.2700  0.4529
  741MOL0     C99902   1.710   6.195   7.000  0.3831  0.1300  0.4970
  741MOL0     O99903   1.696   6.084   6.908 -0.6523 -0.3243  0.0111
  741MOL0     C99904   1.781   6.079   6.797  0.5385  0.4966  0.1345
  741MOL0     C99905   1.731   6.047   6.679  0.4762 -0.5802  0.2986
  741MOL0     C99906   1.818   6.023   6.573  0.8831 -1.1819 -0.3854
  741MOL0     C99907   1.957   6.024   6.589  0.2460 -0.6486 -0.1604
  741MOL0     O99908   2.043   5.994   6.491 -0.0017 -0.5512  0.9986
  741MOL0     C99909   2.044   6.100   6.386 -0.0101  0.0714 -0.2002
  741MOL0     C99910   2.099   6.038   6.258  0.0480 -0.7146  0.0877
  741MOL0     C99911   2.047   6.096   6.124  0.7965  0.7067  0.3454
  741MOL0     C99912   2.120   6.235   6.097 -0.1315  0.2437 -1.4124
  741MOL0     C99913   2.103   6.301   5.965  0.1273  0.0697  0.1383
  741MOL0     C99914   2.174   6.434   5.953  0.1817  0.1175  0.5631
  741MOL0     C99915   2.130   6.499   5.823  0.2410  0.2458 -0.3290
  741MOL0     C99916   2.217   6.624   5.785  0.3289  0.4953  0.0744
  741MOL0     N99917   2.349   6.589   5.728  0.1946  0.5847 -0.7074
  741MOL0     C99918   2.466   6.522   5.767 -0.5170 -0.2818 -0.3807
  741MOL0     C99919   2.554   6.517   5.654 -0.0862 -0.2261 -0.3665
  741MOL0     C99920   2.680   6.427   5.649 -0.4005 -1.2643 -0.4243
  741MOL0     C99921   2.760   6.457   5.773 -0.1339 -0.2087  0.2132
  741MOL0     C99922   2.896   6.392   5.785 -0.7652 -0.6232 -0.2659
  741MOL0     C99923   2.893   6.246   5.814 -0.3146  0.6564 -0.1808
  741MOL0     O99924   2.856   6.230   5.957  0.7175 -0.3227  1.1143
  741MOL0     C99925   2.915   6.128   6.028 -1.2984 -0.0618 -0.0487
  741MOL0     C99926   2.975   6.011   5.962 -0.0711 -0.0779  0.1462
  741MOL0     C99927   3.050   5.923   6.032 -0.0204  0.0975 -0.8199
  741MOL0     C99928   3.065   5.938   6.177 -1.2749  0.0675 -0.2592
  741MOL0     C99929   3.153   5.845   6.268 -0.1142  0.4346  0.6711
  741MOL0     O99930   3.150   5.705   6.248  0.8414  0.0239 -0.1742
  741MOL0     C99931   3.243   5.629   6.314  0.2301  0.2178  0.1061
  741MOL0     C99932   3.218   5.562   6.435 -0.6130  0.1967  0.1333
  741MOL0     C99933   3.316   5.481   6.492  0.4695  0.9725  0.5533
  741MOL0     C99934   3.443   5.459   6.433  0.2868 -0.9526 -0.8330
  741MOL0     O99935   3.537   5.374   6.488  0.2938 -0.1740 -0.2345
  741MOL0     C99936   3.579   5.415   6.615  0.9537 -0.2144  0.5593
  741MOL0     C99937   3.719   5.391   6.630 -0.7082  0.4814 -0.3897
  741MOL0     C99938   3.793   5.458   6.741 -0.3837 -0.3413  0.0125
  741MOL0     C99939   3.917   5.382   6.774  0.0012 -0.0434  0.2321
  741MOL0     C99940   4.022   5.358   6.662 -0.4532 -0.7959  0.5348
  741MOL0     C99941   4.153   5.301   6.705 -0.1614  0.2670  1.2231
  741MOL0     C99942   4.244   5.415   6.766  0.5921  0.1781 -0.1508
  741MOL0     C99943   4.366   5.344   6.829  0.7896  0.3158  0.5353
  741MOL0    Cl99944   4.434   5.223   6.714 -0.4455 -0.2274 -0.0599
  741MOL0     C99945   3.466   5.526   6.313  0.3712  0.1455  0.2120
  741MOL0     C99946   3.367   5.602   6.252 -0.1454 -0.0691 -0.5866
  741MOL0     O99947   3.219   5.907   6.353  0.1581 -0.1050  0.8732
  741MOL0     C99948   2.989   6.036   6.233  0.7094  0.3302  0.9376
  741MOL0     C99949   2.927   6.139   6.162 -1.1551  0.3053  0.0266
  741MOL0     N99950   2.501   6.586   5.559  0.9338 -0.6359  0.1431
  741MOL0     N99951   2.376   6.617   5.596 -0.1540  0.0917 -0.5319
  741MOL0     C99952   2.006   6.057   6.715  0.2546 -0.4475  0.1195
  741MOL0     C99953   1.923   6.076   6.826  0.2054  0.1509  1.5242
  741MOL0     C99954   1.677   6.181   7.139 -1.0272  0.6881  0.2531
  741MOL0     C99955   1.615   6.059   7.168 -0.5047  1.0852 -0.8485
  741MOL0     C99956   1.596   6.017   7.298  0.0657 -0.1284  0.4241
  741MOL0     C99957   1.626   6.097   7.406 -0.1069 -0.7012 -0.2007
  741MOL0     O99958   1.624   6.048   7.541  1.0673  0.0963  0.7355
  741MOL0     C99959   1.610   6.145   7.649  0.5882 -0.7085 -0.4462
  741MOL0     C99960   1.580   6.062   7.778  0.1331  0.1409  0.1781
  741MOL0     C99961   1.505   6.152   7.866 -1.2975 -0.1362 -0.9669
  741MOL0     C99962   1.468   6.070   7.998  0.0120  0.2904  0.5947
  741MOL0     C99963   1.586   6.081   8.091  0.1777  1.5059 -0.5297
  741MOL0     C99964   1.670   6.069   8.178 -0.5930 -0.6748  0.3768
  741MOL0     C99965   1.672   6.228   7.375 -1.0297  0.1849  0.0794
  741MOL0     C99966   1.701   6.276   7.245  0.7115  0.5252 -0.8294
  741MOL0     C99967   1.754   6.418   7.236  0.0207 -0.5081 -0.1684
  741MOL0     H99968   1.626   6.052   6.652  0.4327  1.2498  0.6696
  741MOL0     H99969   1.783   6.010   6.471  4.3893  1.1888 -2.0910
  741MOL0     H99970   1.947   6.144   6.361 -0.7430 -0.6081  1.2833
  741MOL0     H99971   2.108   6.183   6.417  2.0565 -0.7691 -2.0110
  741MOL0     H99972   2.069   5.933   6.263  0.8334 -1.1037 -2.1598
  741MOL0     H99973   2.208   6.030   6.249 -0.1494 -3.4763 -0.9638
  741MOL0     H99974   1.942   6.118   6.145  0.9330  1.4745  0.2522
  741MOL0     H99975   2.050   6.021   6.044 -2.5118  0.5226  0.2437
  741MOL0     H99976   2.078   6.300   6.174  2.8792  1.3376 -0.5561
  741MOL0     H99977   2.225   6.236   6.128 -0.5074 -1.3482  0.0659
  741MOL0     H99978   2.140   6.242   5.881  0.3831 -0.4805  0.6275
  741MOL0     H99979   1.995   6.313   5.953  0.0013 -1.1126 -0.0168
  741MOL0     H99980   2.155   6.495   6.042  1.0021  1.7139 -0.3259
  741MOL0     H99981   2.281   6.414   5.942 -0.1424 -0.4506 -2.0063
  741MOL0     H99982   2.031   6.543   5.843  1.2735  1.8248  1.7723
  741MOL0     H99983   2.120   6.433   5.737  0.6466  0.7156 -0.7461
  741MOL0     H99984   2.157   6.689   5.722  0.4209  0.2126 -0.3081
  741MOL0     H99985   2.243   6.677   5.877  0.1630 -4.7847  3.6216
  741MOL0     H99986   2.469   6.475   5.864  2.3004 -1.4556 -0.9390
  741MOL0     H99987   2.651   6.322   5.664  1.9867 -1.7939  1.2524
  741MOL0     H99988   2.741   6.443   5.560  2.4207 -3.7222  0.8868
  741MOL0     H99989   2.764   6.566   5.776 -1.3289 -0.1490  0.1441
  741MOL0     H99990   2.698   6.435   5.860 -0.4392 -2.5749 -0.5372
  741MOL0     H99991   2.943   6.440   5.871 -0.1181 -2.5276  0.5043
  741MOL0     H99992   2.957   6.403   5.695 -3.1139 -1.9817 -2.1242
  741MOL0     H99993   2.984   6.191   5.789 -0.8280 -0.3001 -0.0077
  741MOL0     H99994   2.805   6.199   5.769 -0.7956 -1.6830  2.8252
  741MOL0     H99995   2.970   5.999   5.855 -0.3936  4.2126 -0.5272
  741MOL0     H99996   3.098   5.845   5.974 -0.2053  0.3882 -1.3775
  741MOL0     H99997   3.120   5.557   6.481  0.2828  2.5488  2.5517
  741MOL0     H99998   3.290   5.438   6.589  0.3886 -0.6207 -0.1489
  741MOL0     H99999   3.568   5.523   6.630 -1.3381 -0.0195 -1.7433
  741MOL0     H    0   3.520   5.369   6.694 -0.2230 -1.6687 -1.0951
  741MOL0     H    1   3.739   5.284   6.630 -1.7449  0.2674 -1.0243
  741MOL0     H    2   3.768   5.430   6.540 -1.3751  2.0182 -0.1189
  741MOL0     H    3   3.834   5.553   6.703  1.4866 -1.8508 -1.9925
  741MOL0     H    4   3.728   5.469   6.828 -0.7164  4.7090 -0.5715
  741MOL0     H    5   3.894   5.288   6.825  2.0735 -0.4422  0.5068
  741MOL0     H    6   3.965   5.450   6.846 -1.3121  3.4992 -1.9685
  741MOL0     H    7   4.049   5.457   6.623  0.5907 -1.7821 -1.4143
  741MOL0     H    8   3.987   5.306   6.572  0.0615  2.0920 -1.4649
  741MOL0     H    9   4.136   5.217   6.773 -0.9311 -2.2996 -1.8965
  741MOL0     H   10   4.193   5.264   6.610 -1.0997  0.5759  0.6890
  741MOL0     H   11   4.185   5.473   6.838 -0.9795  2.6853 -3.2141
  741MOL0     H   12   4.266   5.492   6.692 -4.5444  3.0721  0.8301
  741MOL0     H   13   4.424   5.435   6.847 -0.7432  1.0622  1.9948
  741MOL0     H   14   4.360   5.319   6.935  3.0438  1.7223  1.0726
  741MOL0     H   15   3.560   5.500   6.265  1.2931  1.6819  1.1096
  741MOL0     H   16   3.387   5.666   6.167  1.7798  0.1756  0.0074
  741MOL0     H   17   2.995   6.055   6.340 -1.4920  1.6860  0.8778
  741MOL0     H   18   2.871   6.214   6.219  1.7377  2.5081  0.2066
  741MOL0     H   19   2.114   6.062   6.716  0.2518 -0.1507  2.0208
  741MOL0     H   20   1.966   6.105   6.921  1.3002 -0.8667  1.3562
  741MOL0     H   21   1.584   5.998   7.083  0.1121  1.5221 -1.4000
  741MOL0     H   22   1.555   5.920   7.325  2.4844 -0.9060  1.6360
  741MOL0     H   23   1.546   6.232   7.632  2.7572  1.3721  1.3281
  741MOL0     H   24   1.708   6.190   7.668  0.5315 -1.3498  1.7298
  741MOL0     H   25   1.670   6.020   7.824  0.0788 -1.5381 -1.1353
  741MOL0     H   26   1.515   5.976   7.760  0.6994 -0.0639 -1.0289
  741MOL0     H   27   1.413   6.195   7.827 -1.1466  1.0082 -0.0906
  741MOL0     H   28   1.577   6.231   7.889  1.6363 -2.0816 -2.6803
  741MOL0     H   29   1.390   6.126   8.051 -2.0561  1.8230 -3.6554
  741MOL0     H   30   1.444   5.969   7.965  2.5510 -0.0590 -0.4273
  741MOL0     H   31   1.746   6.073   8.254  0.8705  1.2470 -1.1072
  741MOL0     H   32   1.685   6.300   7.455 -0.5760 -1.5156  1.5961
  741MOL0     H   33   1.813   6.439   7.147 -1.7423  1.0912 -1.0416
  741MOL0     H   34   1.663   6.479   7.242 -0.5559 -1.2277 -1.3009
  741MOL0     H   35   1.807   6.444   7.328  1.7943 -1.0763 -1.0015
  742MOL0     O   36   8.712   7.644   8.074 -0.1834  0.1014  0.2495
  742MOL0     C   37   8.763   7.567   8.159  0.3156  0.2527  0.4631
  742MOL0     O   38   8.703   7.528   8.275 -0.2514  1.0807  0.0347
  742MOL0     C   39   8.591   7.589   8.318  0.0415 -0.6974 -0.1656
  742MOL0     C   40   8.589   7.700   8.402  0.6299 -0.3370 -0.3749
  742MOL0     C   41   8.472   7.769   8.430  0.8332 -0.0317  0.6787
  742MOL0     C   42   8.353   7.715   8.390  0.0041  0.9519  0.3686
  742MOL0     O   43   8.245   7.771   8.446  0.2301 -0.1559  0.5036
  742MOL0     C   44   8.143   7.815   8.356 -0.4978  0.6067  0.8971
  742MOL0     C   45   8.113   7.965   8.385 -0.4803  1.0685  0.1865
  742MOL0     C   46   8.232   8.055   8.353  0.2554 -0.2875 -0.9575
  742MOL0     C   47   8.192   8.203   8.373 -0.2174 -0.0996 -0.2419
  742MOL0     C   48   8.304   8.295   8.333 -0.2616 -0.5932  0.8620
  742MOL0     C   49   8.260   8.435   8.375 -0.3728  1.1346  0.5183
  742MOL0     C   50   8.355   8.549   8.328  0.4506  0.0062  0.2843
  742MOL0     C   51   8.270   8.681   8.345  0.2761 -0.3469  0.1328
  742MOL0     N   52   8.333   8.783   8.263 -1.0831 -0.0167  0.8536
  742MOL0     C   53   8.287   8.906   8.248 -0.9036  0.5485  0.1926
  742MOL0     C   54   8.388   8.968   8.173  0.2497 -0.2591  0.5731
  742MOL0     C   55   8.374   9.115   8.131 -0.0074  0.3218 -0.9579
  742MOL0     C   56   8.493   9.196   8.167 -0.7651  0.2048  0.7471
  742MOL0     C   57   8.482   9.352   8.140  0.2696 -0.3564 -0.5094
  742MOL0     C   58   8.619   9.410   8.137 -0.4047 -0.4998 -0.1934
  742MOL0     O   59   8.695   9.401   8.257  0.5646  0.9756  0.8276
  742MOL0     C   60   8.663   9.456   8.380  0.7434 -0.6089 -0.1614
  742MOL0     C   61   8.746   9.434   8.487  0.2292 -0.1323  0.9355
  742MOL0     C   62   8.717   9.493   8.608 -0.1163  0.5791 -0.4296
  742MOL0     C   63   8.606   9.574   8.629 -0.4246 -0.9038  0.0012
  742MOL0     C   64   8.593   9.637   8.766  0.7073 -0.0617 -0.6704
  742MOL0     O   65   8.484   9.725   8.767  0.0881  0.7770  0.0374
  742MOL0     C   66   8.460   9.786   8.883 -0.1619  0.5510 -0.0305
  742MOL0     C   67   8.435   9.714   9.009  0.5425  0.2855  0.0719
  742MOL0     C   68   8.394   9.785   9.127 -0.9055  0.4307  0.5531
  742MOL0     C   69   8.393   9.925   9.126  0.9812 -0.0112  0.2696
  742MOL0     O   70   8.344   9.979   9.247 -0.0071  0.2809  0.1949
  742MOL0     C   71   8.334  10.124   9.261  0.1320 -0.5043  0.6370
  742MOL0     C   72   8.219  10.195   9.186  0.2389  0.1395 -0.5292
  742MOL0     C   73   8.201  10.333   9.231  0.7982 -0.0181  0.8256
  742MOL0     C   74   8.077  10.377   9.153 -0.0677  0.4371 -1.3790
  742MOL0     C   75   8.065  10.524   9.170  0.3596 -0.3823 -0.4578
  742MOL0     C   76   7.948  10.596   9.094 -0.3581  0.4462 -0.3883
  742MOL0     C   77   7.925  10.727   9.167  0.1941  0.0343  0.3381
  742MOL0     C   78   7.878  10.838   9.074  0.1856 -1.4511  0.4499
  742MOL0    Cl   79   8.006  10.884   8.939  0.1512  0.4456  0.1579
  742MOL0     C   80   8.409   9.998   9.000 -0.6756 -0.2409  0.1599
  742MOL0     C   81   8.450   9.933   8.877 -0.6090  1.2886 -0.1805
  742MOL0     O   82   8.675   9.634   8.854 -0.0856  0.1117  0.8329
  742MOL0     C   83   8.534   9.612   8.521  0.7140  0.4322  0.1586
  742MOL0     C   84   8.552   9.539   8.397 -0.6952 -0.8757  0.3380
  742MOL0     N   85   8.485   8.882   8.141  0.5667 -0.1273  0.3913
  742MOL0     N   86   8.451   8.770   8.203  0.8678 -0.5332 -0.4519
  742MOL0     C   87   8.348   7.602   8.315  0.5663  0.6217 -0.0720
  742MOL0     C   88   8.467   7.537   8.275  0.2004 -1.1259 -0.1455
  742MOL0     C   89   8.889   7.513   8.099  0.7657 -0.5232 -0.3108
  742MOL0     C   90   8.908   7.375   8.128 -0.1776  0.1490 -0.3697
  742MOL0     C   91   9.005   7.299   8.071 -1.6934  1.0277  0.5741
  742MOL0     C   92   9.082   7.346   7.964  0.1437 -0.1181 -0.1698
  742MOL0     O   93   9.173   7.265   7.899  0.1596 -0.3179 -0.4633
  742MOL0     C   94   9.173   7.264   7.754  0.4999 -0.2808  0.0785
  742MOL0     C   95   9.165   7.130   7.694 -0.1326 -0.7542  1.0619
  742MOL0     C   96   9.045   7.107   7.610  0.5596  0.7289 -0.2363
  742MOL0     C   97   9.028   6.949   7.577 -0.2335 -0.9123  0.2033
  742MOL0     C   98   8.892   6.932   7.529 -0.2401 -1.3851 -0.0708
  742MOL0     C   99   8.784   6.919   7.477  0.3673  0.2154 -0.5334
  742MOL0     C  100   9.071   7.482   7.940  0.1368 -0.3924  0.5972
  742MOL0     C  101   8.973   7.568   7.996  0.0139 -1.1377  0.5138
  742MOL0     C  102   8.981   7.717   7.962 -0.1106  0.3500  0.9838
  742MOL0     H  103   8.687   7.736   8.430  0.9377  0.1380 -1.9698
  742MOL0     H  104   8.473   7.860   8.489 -0.8771 -0.3210  1.2054
  742MOL0     H  105   8.158   7.788   8.251 -2.3473  0.9799  0.5126
  742MOL0     H  106   8.051   7.759   8.372  1.0156 -3.2127 -2.0909
  742MOL0     H  107   8.088   7.964   8.491  1.2006 -3.0699  0.7539
  742MOL0     H  108   8.024   7.992   8.328 -0.9216  0.5008  0.5982
  742MOL0     H  109   8.261   8.041   8.249  5.5670  3.2373 -0.3309
  742MOL0     H  110   8.318   8.023   8.413  0.3526  2.7833  0.7472
  742MOL0     H  111   8.105   8.236   8.316  0.6755  2.5347 -0.1991
  742MOL0     H  112   8.177   8.216   8.481 -0.0054  0.4288 -0.2761
  742MOL0     H  113   8.399   8.272   8.380  1.8405  1.2131 -2.1429
  742MOL0     H  114   8.322   8.287   8.225 -4.6192  0.3090 -0.1602
  742MOL0     H  115   8.156   8.443   8.341 -0.8938 -2.3541  0.8263
  742MOL0     H  116   8.258   8.429   8.485 -0.2402  3.1450  0.6509
  742MOL0     H  117   8.384   8.537   8.223 -1.7669  1.2387 -0.5300
  742MOL0     H  118   8.445   8.554   8.390 -0.0096  2.5155  0.8717
  742MOL0     H  119   8.175   8.659   8.295  1.0795 -0.9728 -1.1578
  742MOL0     H  120   8.242   8.717   8.444  2.1986 -0.7944  0.8837
  742MOL0     H  121   8.193   8.953   8.275 -3.0512 -1.8619 -2.4068
  742MOL0     H  122   8.355   9.126   8.023  1.5480 -0.2940 -1.3188
  742MOL0     H  123   8.295   9.152   8.197 -0.3466  1.9502 -2.1918
  742MOL0     H  124   8.505   9.185   8.276 -0.6012 -3.4960  0.4749
  742MOL0     H  125   8.579   9.144   8.123 -2.6525 -2.0287 -0.5280
  742MOL0     H  126   8.412   9.395   8.212  1.4585 -2.0730  1.8019
  742MOL0     H  127   8.442   9.363   8.039  2.0407 -2.7305 -1.5765
  742MOL0     H  128   8.614   9.509   8.091  3.0508 -0.4941 -0.7852
  742MOL0     H  129   8.674   9.360   8.056  0.4093  1.2262 -0.7391
  742MOL0     H  130   8.833   9.371   8.471 -0.7830 -1.4224  0.3216
  742MOL0     H  131   8.794   9.486   8.684  1.4512  3.3268 -1.6070
  742MOL0     H  132   8.407   9.609   9.014 -1.2309  0.7810  2.3728
  742MOL0     H  133   8.379   9.731   9.219  2.9036 -0.2866  0.9293
  742MOL0     H  134   8.321  10.154   9.366 -3.1743 -1.3400  0.5662
  742MOL0     H  135   8.427  10.171   9.228 -0.0473 -0.9967 -0.6053
  742MOL0     H  136   8.254  10.195   9.082  0.4783  1.6456 -0.4661
  742MOL0     H  137   8.125  10.139   9.190 -0.6517  1.2419 -3.3252
  742MOL0     H  138   8.201  10.362   9.336  2.4198  4.9518 -0.2570
  742MOL0     H  139   8.283  10.392   9.188 -0.0787 -1.7507 -3.8966
  742MOL0     H  140   7.984  10.330   9.187  0.8113 -0.1767  0.2689
  742MOL0     H  141   8.099  10.356   9.048 -1.8350 -4.0747 -1.0598
  742MOL0     H  142   8.158  10.566   9.131  0.6067 -2.5808 -2.4994
  742MOL0     H  143   8.049  10.552   9.274 -3.8825 -1.0219 -0.7762
  742MOL0     H  144   7.980  10.607   8.989  2.8496 -0.4180  0.3706
  742MOL0     H  145   7.856  10.537   9.094  0.2495 -0.5260  0.6204
  742MOL0     H  146   8.017  10.758   9.218  0.9742 -1.6185  0.0102
  742MOL0     H  147   7.849  10.723   9.246  2.0026  5.2111  2.7991
  742MOL0     H  148   7.783  10.805   9.030 -1.7585  2.6733  1.0214
  742MOL0     H  149   7.848  10.926   9.132 -2.7976 -3.0676  1.5937
  742MOL0     H  150   8.426  10.105   9.004  0.7664 -0.4416 -0.1375
  742MOL0     H  151   8.484   9.984   8.788 -0.1490  3.3385  1.0834
  742MOL0     H  152   8.465   9.695   8.515  1.5707  1.1853  0.4804
  742MOL0     H  153   8.489   9.570   8.314 -1.2191  3.2374  2.0286
  742MOL0     H  154   8.248   7.565   8.294  0.4447  0.7696  0.2401
  742MOL0     H  155   8.467   7.448   8.213 -5.3640 -2.0324  0.6958
  742MOL0     H  156   8.851   7.315   8.199 -1.2291  3.2382  1.5906
  742MOL0     H  157   8.999   7.193   8.094 -4.9961 -0.0957 -4.1228
  742MOL0     H  158   9.263   7.313   7.716 -2.1741  4.8572 -0.3992
  742MOL0     H  159   9.091   7.325   7.718 -0.9937 -0.2925  3.1046
  742MOL0     H  160   9.169   7.057   7.776 -2.5073 -0.7942  1.2160
  742MOL0     H  161   9.253   7.115   7.630 -2.3642 -2.5300 -1.8476
  742MOL0     H  162   9.041   7.170   7.520 -1.6458 -0.8379 -1.3496
  742MOL0     H  163   8.956   7.134   7.667 -1.2262 -4.1180 -0.2751
  742MOL0     H  164   9.103   6.916   7.505 -2.0136 -3.2257 -0.7237
  742MOL0     H  165   9.049   6.897   7.671 -2.2825 -1.1576  0.5619
  742MOL0     H  166   8.684   6.903   7.441 -1.5467 -0.7875  4.3371
  742MOL0     H  167   9.155   7.537   7.899  0.3139 -0.7968  0.4108
  742MOL0     H  168   8.914   7.746   7.881 -1.2481 -0.9561  1.3996
  742MOL0     H  169   8.953   7.778   8.049  1.0506 -0.4341  1.9454
  742MOL0     H  170   9.082   7.735   7.925  0.3736 -0.2102  1.9988
  743MOL0     O  171   3.167  11.153   3.445  0.1164 -0.0644  0.4334
  743MOL0     C  172   3.074  11.182   3.518 -1.1079 -0.6993  0.3562
  743MOL0     O  173   3.084  11.153   3.654 -0.6916 -0.6119  0.5505
  743MOL0     C  174   3.200  11.096   3.699 -0.0810 -0.2254 -0.1901
  743MOL0     C  175   3.210  10.966   3.751  0.6678  0.5268 -0.1084
  743MOL0     C  176   3.333  10.920   3.820  0.4169  0.9072  0.0977
  743MOL0     C  177   3.440  11.003   3.817 -1.1628  0.0594  0.3437
  743MOL0     O  178   3.560  10.973   3.879 -0.7904  0.2043  0.3648
  743MOL0     C  179   3.580  10.828   3.895 -0.4927 -1.1270  0.0957
  743MOL0     C  180   3.713  10.803   3.966  0.7067 -0.4912  0.6240
  743MOL0     C  181   3.730  10.882   4.100 -0.0955 -0.0387  1.0867
  743MOL0     C  182   3.759  10.776   4.209 -0.0152  0.2044  0.5511
  743MOL0     C  183   3.901  10.727   4.214 -0.5807  0.2846  1.1390
  743MOL0     C  184   3.918  10.613   4.317 -0.5265  0.2775 -0.1226
  743MOL0     C  185   3.945  10.649   4.467  0.3962 -0.0109  0.8910
  743MOL0     C  186   3.969  10.525   4.557  0.8374 -0.6549 -0.7260
  743MOL0     N  187   4.050  10.412   4.503  0.3823  0.7391  0.9360
  743MOL0     C  188   4.189  10.412   4.487  0.6706  0.2559  0.4377
  743MOL0     C  189   4.203  10.290   4.419 -0.1097  0.6659 -0.1866
  743MOL0     C  190   4.338  10.225   4.387 -0.8224  0.5968  0.7483
  743MOL0     C  191   4.376  10.249   4.234  0.5350 -0.1430  0.3759
  743MOL0     C  192   4.365  10.391   4.201  0.3613  0.6572  0.1181
  743MOL0     C  193   4.458  10.420   4.082  0.1425  0.3644 -0.2977
  743MOL0     O  194   4.429  10.559   4.048 -0.3008 -0.4523  0.3754
  743MOL0     C  195   4.335  10.587   3.952  0.4068  0.2813 -0.3499
  743MOL0     C  196   4.227  10.504   3.931  0.4587  0.0805 -0.0640
  743MOL0     C  197   4.132  10.556   3.853  0.0625 -0.9600 -0.3554
  743MOL0     C  198   4.137  10.684   3.791 -0.1320 -1.0528 -0.1455
  743MOL0     C  199   4.019  10.725   3.708  0.0111  0.2334 -0.7587
  743MOL0     O  200   4.031  10.854   3.668 -0.4070  0.4013  1.0960
  743MOL0     C  201   3.938  10.900   3.574  0.8783  0.6503  0.4310
  743MOL0     C  202   3.809  10.938   3.608 -0.6296  0.0378 -0.7633
  743MOL0     C  203   3.711  10.973   3.516  0.1481 -0.3903 -0.0364
  743MOL0     C  204   3.757  10.981   3.375 -0.7418  0.5281  0.6425
  743MOL0     O  205   3.678  11.024   3.272 -0.6400 -1.3027 -0.0833
  743MOL0     C  206   3.558  11.098   3.305 -0.9128  0.9957  0.0703
  743MOL0     C  207   3.597  11.241   3.331  0.2390  0.0311 -0.4708
  743MOL0     C  208   3.487  11.338   3.353 -0.4678  0.1778  0.7615
  743MOL0     C  209   3.532  11.466   3.413  0.3298 -0.5483  0.9577
  743MOL0     C  210   3.415  11.544   3.468  0.9160  0.8571 -0.8602
  743MOL0     C  211   3.293  11.577   3.370 -0.2034 -0.9327 -0.6001
  743MOL0     C  212   3.336  11.635   3.234  0.1069 -0.8520 -0.0851
  743MOL0     C  213   3.226  11.679   3.152 -0.5179 -0.3513  1.0206
  743MOL0    Cl  214   3.154  11.549   3.081 -0.2839 -0.2295 -0.0896
  743MOL0     C  215   3.890  10.952   3.343  0.2183 -0.7288  0.0175
  743MOL0     C  216   3.979  10.909   3.449 -0.7814 -0.0136 -0.5918
  743MOL0     O  217   3.927  10.649   3.693 -0.7961  0.4153 -0.1023
  743MOL0     C  218   4.240  10.762   3.815  0.3769  0.2432  0.0134
  743MOL0     C  219   4.342  10.718   3.900  1.0431  0.7163  0.0904
  743MOL0     N  220   4.084  10.220   4.406 -0.1255  0.7094 -0.6725
  743MOL0     N  221   3.993  10.294   4.460  0.1645 -0.3323  0.5041
  743MOL0     C  222   3.431  11.129   3.764  0.6062 -0.0961  0.9334
  743MOL0     C  223   3.307  11.177   3.714 -0.1806 -0.0375  1.0088
  743MOL0     C  224   2.961  11.267   3.459 -0.2192  0.5390  0.2293
  743MOL0     C  225   2.872  11.329   3.548 -0.4885 -0.4237 -0.5994
  743MOL0     C  226   2.756  11.394   3.504 -0.6839  0.3786 -0.7332
  743MOL0     C  227   2.731  11.395   3.365  0.5109  0.1168  0.0428
  743MOL0     O  228   2.615  11.449   3.313 -0.3096 -0.3490 -0.3510
  743MOL0     C  229   2.596  11.584   3.354 -0.3998  0.7972 -0.7462
  743MOL0     C  230   2.686  11.672   3.274 -0.0979 -0.5942 -0.0501
  743MOL0     C  231   2.662  11.650   3.120 -0.5412 -0.2966 -0.7382
  743MOL0     C  232   2.766  11.713   3.038 -0.2412  0.6450  0.0807
  743MOL0     C  233   2.807  11.654   2.907 -0.6080 -0.3664 -0.5530
  743MOL0     C  234   2.835  11.617   2.798 -0.8948 -0.9329  0.6143
  743MOL0     C  235   2.824  11.348   3.281 -1.4830 -0.5578 -0.2049
  743MOL0     C  236   2.940  11.277   3.316  0.3038 -1.4029  0.1045
  743MOL0     C  237   3.041  11.240   3.210 -0.5819 -0.2084  0.3497
  743MOL0     H  238   3.119  10.908   3.755  0.7919  0.2780 -0.7474
  743MOL0     H  239   3.330  10.825   3.873 -0.3044  0.2490 -1.0836
  743MOL0     H  240   3.504  10.794   3.966  0.0994 -1.2691  0.6633
  743MOL0     H  241   3.584  10.773   3.801  2.7645  1.2393 -1.3289
  743MOL0     H  242   3.789  10.840   3.897  1.6300 -1.0779  1.2996
  743MOL0     H  243   3.724  10.694   3.970 -1.0795 -0.8280 -1.3776
  743MOL0     H  244   3.647  10.937   4.144  0.9878  1.5034  1.2667
  743MOL0     H  245   3.819  10.947   4.099  1.8281 -2.4412 -1.4549
  743MOL0     H  246   3.718  10.820   4.300  3.4020  2.2671  1.2502
  743MOL0     H  247   3.697  10.690   4.180 -0.5960  0.6724  0.3817
  743MOL0     H  248   3.916  10.704   4.108 -0.3657  1.9196  0.7838
  743MOL0     H  249   3.968  10.806   4.251  0.5383 -1.4022  2.8938
  743MOL0     H  250   3.841  10.538   4.298  1.2005 -1.1400 -1.9923
  743MOL0     H  251   4.011  10.563   4.290  0.4492  0.5735  2.4425
  743MOL0     H  252   3.861  10.708   4.507 -0.3909  1.1841 -2.1855
  743MOL0     H  253   4.036  10.710   4.471  2.5746 -2.7570 -1.8510
  743MOL0     H  254   4.017  10.559   4.649  0.3329 -0.4314 -0.5354
  743MOL0     H  255   3.870  10.494   4.592  0.2308 -0.3468 -2.0942
  743MOL0     H  256   4.262  10.481   4.529  0.7105 -0.1124  0.9813
  743MOL0     H  257   4.410  10.263   4.460  3.8158  1.4018 -3.6519
  743MOL0     H  258   4.344  10.117   4.399  0.1937  0.2976 -1.7757
  743MOL0     H  259   4.479  10.211   4.230  0.3406 -0.5966 -1.9709
  743MOL0     H  260   4.316  10.192   4.163  1.7225  1.1987 -1.8277
  743MOL0     H  261   4.412  10.450   4.280 -0.2069  0.4877  0.5848
  743MOL0     H  262   4.265  10.435   4.206  1.2949  2.8348  1.0030
  743MOL0     H  263   4.431  10.355   3.998 -1.2466 -0.0014  0.3871
  743MOL0     H  264   4.566  10.422   4.097 -0.0643 -2.3187  2.8263
  743MOL0     H  265   4.209  10.411   3.984  2.1359  0.6749  1.6558
  743MOL0     H  266   4.040  10.506   3.825  0.4011  0.4294 -4.6171
  743MOL0     H  267   3.776  10.929   3.711 -4.0025  0.8204 -1.6577
  743MOL0     H  268   3.616  11.004   3.558  1.2043  3.5190 -0.1017
  743MOL0     H  269   3.490  11.087   3.220 -4.3071  0.2511  2.6991
  743MOL0     H  270   3.504  11.055   3.389 -1.3524  0.7117 -0.3489
  743MOL0     H  271   3.658  11.252   3.421 -0.1850 -4.7321  0.6693
  743MOL0     H  272   3.652  11.275   3.243 -2.7544  1.8057 -1.8228
  743MOL0     H  273   3.431  11.355   3.260  0.1820  2.0215  0.6590
  743MOL0     H  274   3.412  11.292   3.418  1.9238  0.6153  4.0427
  743MOL0     H  275   3.583  11.536   3.346  1.3873 -1.8846  0.3024
  743MOL0     H  276   3.608  11.443   3.488  1.9580 -1.9376 -1.0096
  743MOL0     H  277   3.454  11.633   3.519 -2.0421  0.0233  3.3839
  743MOL0     H  278   3.370  11.500   3.558  1.8511  0.8458 -0.3857
  743MOL0     H  279   3.245  11.482   3.345 -1.9584 -0.4165  0.5797
  743MOL0     H  280   3.216  11.634   3.423  1.1127  1.9669 -1.6049
  743MOL0     H  281   3.390  11.553   3.185 -2.9184 -3.0080 -0.1199
  743MOL0     H  282   3.405  11.718   3.249 -0.5357 -0.7456  3.2586
  743MOL0     H  283   3.164  11.750   3.207  1.9262  3.3170 -0.5917
  743MOL0     H  284   3.276  11.731   3.070  0.3638 -2.1521  0.3414
  743MOL0     H  285   3.922  10.958   3.240  0.7385 -0.4563  0.1908
  743MOL0     H  286   4.078  10.868   3.428 -0.3198  1.0371 -0.5378
  743MOL0     H  287   4.250  10.866   3.786 -2.3508 -0.0949 -2.6754
  743MOL0     H  288   4.426  10.782   3.924  1.6953  1.1511 -2.9228
  743MOL0     H  289   3.525  11.182   3.780  0.5431 -0.0282  1.0825
  743MOL0     H  290   3.292  11.278   3.678  1.0039  0.1623  1.0342
  743MOL0     H  291   2.877  11.310   3.655 -0.8142  2.0617 -0.0877
  743MOL0     H  292   2.678  11.438   3.565 -0.5179 -1.3406  0.8178
  743MOL0     H  293   2.611  11.603   3.460  2.1313  0.4576 -0.9838
  743MOL0     H  294   2.490  11.608   3.340 -1.1087 -0.7456  1.4862
  743MOL0     H  295   2.788  11.646   3.303  0.7106  0.3360 -1.8457
  743MOL0     H  296   2.682  11.776   3.309  0.6761  0.4065 -2.6263
  743MOL0     H  297   2.559  11.681   3.103 -0.5505  1.7743  2.2385
  743MOL0     H  298   2.682  11.543   3.111  0.7838 -0.0512 -0.9044
  743MOL0     H  299   2.750  11.818   3.014 -0.1845  0.1370 -2.3678
  743MOL0     H  300   2.858  11.698   3.096  0.9749  1.6199 -1.5409
  743MOL0     H  301   2.854  11.605   2.693 -3.3420  3.1869 -0.5304
  743MOL0     H  302   2.807  11.369   3.176  0.4918  1.5368 -0.2125
  743MOL0     H  303   3.085  11.141   3.225  0.0341  0.2320  1.5958
  743MOL0     H  304   2.997  11.245   3.110 -0.2448 -1.4290  0.1235
  743MOL0     H  305   3.123  11.312   3.210  0.3223 -1.1466 -1.8032
  744MOL0     O  306   3.616   2.425  10.908 -0.3065  0.4949  0.6776
  744MOL0     C  307   3.689   2.370  10.983 -0.0451 -0.0980  0.5585
  744MOL0     O  308   3.722   2.410  11.112  1.0664 -0.1162  0.0899
  744MOL0     C  309   3.653   2.521  11.149  0.3436 -0.5196 -0.1167
  744MOL0     C  310   3.712   2.647  11.154  0.5933 -0.9528  0.3842
  744MOL0     C  311   3.638   2.759  11.195 -0.5616  0.3549  0.1650
  744MOL0     C  312   3.506   2.752  11.249  0.0685  0.9530  0.2229
  744MOL0     O  313   3.419   2.852  11.286  0.0361 -0.5144 -0.1025
  744MOL0     C  314   3.479   2.972  11.322 -0.3359 -0.4431  0.0697
  744MOL0     C  315   3.542   2.967  11.466  0.4182  0.6087 -1.3578
  744MOL0     C  316   3.609   3.106  11.518  0.7970  0.7330  0.0714
  744MOL0     C  317   3.546   3.134  11.662 -0.7507 -0.3064 -0.0610
  744MOL0     C  318   3.555   3.279  11.713  0.8388 -0.2393  0.1672
  744MOL0     C  319   3.473   3.388  11.625  0.0002 -0.4012  0.3132
  744MOL0     C  320   3.511   3.520  11.679  0.6867 -1.1996 -0.1294
  744MOL0     C  321   3.396   3.629  11.648 -0.1749  0.4328  0.7382
  744MOL0     N  322   3.447   3.761  11.649 -0.5519  0.0816 -0.3364
  744MOL0     C  323   3.564   3.819  11.685  0.1303 -0.7592 -0.0315
  744MOL0     C  324   3.559   3.951  11.641 -0.4800 -0.3308  0.2038
  744MOL0     C  325   3.676   4.043  11.673  0.6969 -0.2305  0.7204
  744MOL0     C  326   3.789   4.037  11.574  0.5348  0.8990  0.1469
  744MOL0     C  327   3.886   4.144  11.586  0.3939 -0.7424  0.9296
  744MOL0     C  328   4.004   4.089  11.679  0.3050  0.7354 -0.5271
  744MOL0     O  329   4.090   4.002  11.605  0.2437 -0.1910 -0.6016
  744MOL0     C  330   4.080   3.867  11.620  0.2146  0.5194 -0.0600
  744MOL0     C  331   4.148   3.798  11.518 -0.1052 -0.0937 -0.2959
  744MOL0     C  332   4.152   3.658  11.526 -0.4378  1.1627  0.5631
  744MOL0     C  333   4.079   3.593  11.624 -0.4153 -0.2515 -0.2226
  744MOL0     C  334   4.075   3.441  11.620 -1.0872  0.4531 -0.6943
  744MOL0     O  335   3.977   3.385  11.695  0.5883  0.5875 -0.1405
  744MOL0     C  336   3.955   3.246  11.719  0.4556 -0.9266 -0.5159
  744MOL0     C  337   3.881   3.213  11.836  0.7149 -0.4249  0.3298
  744MOL0     C  338   3.830   3.087  11.853 -0.2815  0.2065 -0.4422
  744MOL0     C  339   3.855   2.979  11.761 -0.1301 -0.3990 -0.9725
  744MOL0     O  340   3.784   2.859  11.789 -0.4552 -0.0461  0.0366
  744MOL0     C  341   3.789   2.753  11.683  0.5379 -0.9318  0.1608
  744MOL0     C  342   3.708   2.637  11.710 -0.1113  0.5293 -0.2522
  744MOL0     C  343   3.684   2.553  11.602  0.6674  0.5687 -1.1556
  744MOL0     C  344   3.599   2.432  11.643  0.2243  0.5795  0.7190
  744MOL0     C  345   3.589   2.347  11.519 -0.7062  0.0017  0.0751
  744MOL0     C  346   3.605   2.194  11.546  0.1843  0.0593  0.1995
  744MOL0     C  347   3.507   2.132  11.642  1.0297 -0.2517 -0.8846
  744MOL0     C  348   3.483   1.982  11.641  0.4414 -0.4857  0.4643
  744MOL0    Cl  349   3.641   1.887  11.672  0.4721  0.2275 -0.3910
  744MOL0     C  350   3.950   3.010  11.664  0.3825  0.4381  0.1125
  744MOL0     C  351   4.002   3.142  11.640  0.3892 -0.8468 -0.4458
  744MOL0     O  352   4.172   3.383  11.573 -0.1834  0.6548  0.5223
  744MOL0     C  353   4.007   3.661  11.721 -0.3725  0.6606 -0.6238
  744MOL0     C  354   4.016   3.799  11.720 -0.3950  0.2422  0.3714
  744MOL0     N  355   3.432   3.973  11.590 -0.3148 -0.1737 -0.8394
  744MOL0     N  356   3.371   3.865  11.590 -0.9609 -0.8194  0.1293
  744MOL0     C  357   3.454   2.621  11.249  0.5554 -0.6024 -0.1246
  744MOL0     C  358   3.522   2.511  11.202 -1.0539 -0.5788 -0.3153
  744MOL0     C  359   3.729   2.229  10.936  0.5361  0.7860 -0.2381
  744MOL0     C  360   3.642   2.153  10.858  0.6073  1.6094  0.2678
  744MOL0     C  361   3.663   2.016  10.831 -0.7095 -0.5263  0.8875
  744MOL0     C  362   3.789   1.961  10.871  0.6402  0.4702  0.1739
  744MOL0     O  363   3.820   1.827  10.843 -0.1994 -0.3161 -0.2764
  744MOL0     C  364   3.763   1.747  10.746  0.4335  0.2194  0.2268
  744MOL0     C  365   3.677   1.627  10.808  0.1529 -0.2789  0.2678
  744MOL0     C  366   3.650   1.512  10.705  0.8152  0.0550  0.1314
  744MOL0     C  367   3.560   1.413  10.774  0.3451  0.4004  0.4814
  744MOL0     C  368   3.542   1.296  10.689  0.1719 -1.0495 -0.0571
  744MOL0     C  369   3.540   1.194  10.614  0.0154  0.5720 -0.2538
  744MOL0     C  370   3.883   2.037  10.942  0.4909  0.0152  0.5541
  744MOL0     C  371   3.847   2.166  10.984 -0.2781  0.3140  0.6613
  744MOL0     C  372   3.954   2.251  11.048 -0.0879 -0.0081  0.5980
  744MOL0     H  373   3.814   2.662  11.121 -0.5129 -0.1157 -3.0294
  744MOL0     H  374   3.695   2.847  11.168  3.2408 -2.6569 -2.9027
  744MOL0     H  375   3.553   3.001  11.248 -0.1219  1.2673  0.9004
  744MOL0     H  376   3.393   3.041  11.322  1.2584  1.6731 -1.5330
  744MOL0     H  377   3.605   2.878  11.480 -0.4986 -0.0572 -1.3842
  744MOL0     H  378   3.457   2.960  11.534  1.8069  4.1840  1.0186
  744MOL0     H  379   3.599   3.188  11.446 -1.8543 -1.6397 -2.5744
  744MOL0     H  380   3.715   3.080  11.527  0.1063 -2.2658  0.8820
  744MOL0     H  381   3.439   3.118  11.676 -0.8283  1.5276  2.0665
  744MOL0     H  382   3.602   3.065  11.726  1.0459  1.6918  0.6532
  744MOL0     H  383   3.523   3.296  11.816  0.4367  2.6879 -0.3463
  744MOL0     H  384   3.661   3.306  11.706  0.5943  0.3015 -3.9459
  744MOL0     H  385   3.499   3.385  11.519 -0.6053  0.3749  0.1374
  744MOL0     H  386   3.365   3.377  11.638 -0.1065  0.3452  0.0868
  744MOL0     H  387   3.603   3.566  11.640 -0.2657  0.3663 -0.6406
  744MOL0     H  388   3.523   3.509  11.787  0.0577 -6.0163 -0.3452
  744MOL0     H  389   3.364   3.610  11.545 -0.2840  1.3830  0.5931
  744MOL0     H  390   3.309   3.618  11.713  0.2457  1.2080  1.4424
  744MOL0     H  391   3.659   3.786  11.726 -0.4846 -3.8997 -0.9059
  744MOL0     H  392   3.618   4.136  11.676 -2.8269 -2.2874  3.1826
  744MOL0     H  393   3.714   4.023  11.773  1.0120 -0.9441  0.4653
  744MOL0     H  394   3.830   3.936  11.581 -1.2394  0.0983 -0.2910
  744MOL0     H  395   3.732   4.049  11.481  0.8224  1.0857 -0.0027
  744MOL0     H  396   3.834   4.229  11.633  0.5280 -0.5994  0.8206
  744MOL0     H  397   3.926   4.185  11.493  2.6738  0.5021  2.3604
  744MOL0     H  398   3.952   4.048  11.766  2.8108 -1.4970  0.0830
  744MOL0     H  399   4.068   4.172  11.710  0.9929 -0.6356  2.1026
  744MOL0     H  400   4.206   3.847  11.440  0.0149  1.8210  0.9300
  744MOL0     H  401   4.200   3.600  11.448  0.1208  1.4815  0.6639
  744MOL0     H  402   3.861   3.297  11.902 -0.9176 -0.4052 -0.1552
  744MOL0     H  403   3.765   3.074  11.938  4.4691 -2.2692  3.3438
  744MOL0     H  404   3.752   2.797  11.590 -1.4932 -3.3845 -0.3166
  744MOL0     H  405   3.883   2.704  11.658 -0.3126 -1.7113 -1.7034
  744MOL0     H  406   3.749   2.582  11.795  1.2450  0.0258 -1.1969
  744MOL0     H  407   3.611   2.672  11.746  0.4908  1.0369  0.9357
  744MOL0     H  408   3.631   2.609  11.524 -4.2923  2.7704  3.1536
  744MOL0     H  409   3.781   2.519  11.566  0.5365 -0.1873 -0.8119
  744MOL0     H  410   3.497   2.462  11.667  0.4512  2.2316 -0.2677
  744MOL0     H  411   3.659   2.386  11.723  2.2045  3.3950  0.9984
  744MOL0     H  412   3.670   2.365  11.448  0.2037 -0.4144  0.9832
  744MOL0     H  413   3.493   2.379  11.479 -1.6299  0.0843  2.2323
  744MOL0     H  414   3.603   2.135  11.454  4.9105 -0.1878 -0.0042
  744MOL0     H  415   3.708   2.180  11.581 -0.2529  0.8865  1.9634
  744MOL0     H  416   3.411   2.185  11.637  1.4518  0.4962 -1.0325
  744MOL0     H  417   3.540   2.155  11.744  1.6960 -0.7454 -0.9839
  744MOL0     H  418   3.402   1.946  11.705 -1.7883  2.8694 -0.2185
  744MOL0     H  419   3.442   1.955  11.543 -1.4955  0.8510  0.8538
  744MOL0     H  420   3.986   2.928  11.602  0.7331  0.4654  0.2741
  744MOL0     H  421   4.083   3.157  11.570  0.0383  1.7118 -0.4041
  744MOL0     H  422   3.929   3.624  11.788 -0.3501  3.2650  0.9624
  744MOL0     H  423   3.959   3.847  11.799  0.3724  1.3847  0.2553
  744MOL0     H  424   3.348   2.606  11.269  0.7033 -0.2505  0.9739
  744MOL0     H  425   3.483   2.410  11.194  0.2407 -1.0535 -0.8644
  744MOL0     H  426   3.545   2.193  10.833 -1.0007 -0.3820  2.8662
  744MOL0     H  427   3.587   1.964  10.773 -0.9024  2.5268 -1.8717
  744MOL0     H  428   3.843   1.707  10.683  0.2427 -2.5201  1.5520
  744MOL0     H  429   3.700   1.801  10.676  1.8914  1.2100 -0.3526
  744MOL0     H  430   3.575   1.665  10.820  0.1960 -0.1773  0.3071
  744MOL0     H  431   3.726   1.585  10.897 -2.2712  3.4492  3.7272
  744MOL0     H  432   3.744   1.469  10.672  0.4903 -1.0070  0.5399
  744MOL0     H  433   3.594   1.550  10.619 -2.8138 -1.4748  1.6223
  744MOL0     H  434   3.603   1.379  10.869  3.2658 -1.1357 -1.2568
  744MOL0     H  435   3.460   1.455  10.788  0.8151  1.5686  0.4541
  744MOL0     H  436   3.527   1.108  10.551  3.4093 -0.9244  0.8585
  744MOL0     H  437   3.984   1.998  10.947  0.4549 -0.0152  1.0423
  744MOL0     H  438   3.962   2.347  10.995 -0.1682 -0.6513 -0.6090
  744MOL0     H  439   3.932   2.259  11.155  0.9406 -1.5698  0.9605
  744MOL0     H  440   4.054   2.206  11.043  0.2147  0.1834  3.5054
  745MOL0     O  441   6.615   1.867  11.496  0.8325  0.2010  0.4177
  745MOL0     C  442   6.616   1.948  11.407  0.3109 -0.5279 -0.1555
  745MOL0     O  443   6.674   1.916  11.288 -0.2222 -0.1052  0.2929
  745MOL0     C  444   6.691   1.780  11.263  0.2238  0.4360  0.6303
  745MOL0     C  445   6.827   1.732  11.269  0.3419 -0.4529 -0.1354
  745MOL0     C  446   6.853   1.598  11.229  0.3568  0.4058 -0.1555
  745MOL0     C  447   6.741   1.520  11.192 -1.0165 -1.4838 -0.3395
  745MOL0     O  448   6.776   1.390  11.157  0.5014 -0.2310 -0.0084
  745MOL0     C  449   6.865   1.319  11.250  0.2676  0.1825 -1.3115
  745MOL0     C  450   6.793   1.240  11.362  0.0147 -0.2689  0.5484
  745MOL0     C  451   6.649   1.206  11.318  0.7762  0.1523 -0.3019
  745MOL0     C  452   6.575   1.114  11.416  0.0014  1.3334  0.8549
  745MOL0     C  453   6.450   1.037  11.367 -0.4699 -0.2468 -0.1860
  745MOL0     C  454   6.327   1.134  11.356  0.4528  0.0498 -0.2037
  745MOL0     C  455   6.333   1.202  11.212 -0.1779  0.1431 -0.5126
  745MOL0     C  456   6.231   1.320  11.208  0.4219  0.0089 -0.8018
  745MOL0     N  457   6.237   1.386  11.082  0.2789  0.0435 -0.5391
  745MOL0     C  458   6.297   1.336  10.961 -0.9110  0.2455 -0.7702
  745MOL0     C  459   6.309   1.441  10.878 -0.3225  0.0562  0.8732
  745MOL0     C  460   6.364   1.434  10.730 -0.7150 -0.5706  0.4018
  745MOL0     C  461   6.254   1.483  10.632 -0.2489 -0.5949 -0.5358
  745MOL0     C  462   6.121   1.407  10.642  0.2507 -0.4570 -0.0156
  745MOL0     C  463   6.130   1.250  10.611 -0.7981  0.3076  0.8418
  745MOL0     O  464   6.202   1.220  10.488 -0.6132  0.6514 -0.3820
  745MOL0     C  465   6.251   1.096  10.470 -0.1263  1.3480  0.0051
  745MOL0     C  466   6.268   0.993  10.573 -0.3115 -0.5639 -0.3049
  745MOL0     C  467   6.328   0.878  10.538 -0.4435  0.3557 -0.4445
  745MOL0     C  468   6.394   0.848  10.420 -0.5801 -0.2892 -0.6135
  745MOL0     C  469   6.461   0.723  10.397  0.1600  0.3997 -0.1391
  745MOL0     O  470   6.505   0.681  10.275 -1.0657 -0.2461  0.4466
  745MOL0     C  471   6.589   0.565  10.254 -0.0374  0.1494  0.0591
  745MOL0     C  472   6.686   0.521  10.347 -0.0532  0.1891  0.7968
  745MOL0     C  473   6.757   0.402  10.334 -0.0584  0.4614 -0.1236
  745MOL0     C  474   6.727   0.311  10.235 -0.6300  0.0935  0.4592
  745MOL0     O  475   6.806   0.199  10.222 -0.5126 -0.1671 -0.2680
  745MOL0     C  476   6.731   0.073  10.239 -0.1744  0.3042  0.0754
  745MOL0     C  477   6.761   0.040  10.378 -0.0988  0.2234  0.5449
  745MOL0     C  478   6.844  -0.096  10.394  0.2362 -0.0140  0.2479
  745MOL0     C  479   6.869  -0.119  10.555  0.5808 -0.4955  0.5866
  745MOL0     C  480   6.762  -0.221  10.608 -0.6809 -0.2524  0.9686
  745MOL0     C  481   6.809  -0.238  10.751  0.5105  0.6719 -0.2479
  745MOL0     C  482   6.720  -0.338  10.821  0.2407  0.5290 -0.5889
  745MOL0     C  483   6.737  -0.362  10.974  0.1708  0.1266  0.4259
  745MOL0    Cl  484   6.910  -0.417  10.989 -0.2965  0.3888  0.1337
  745MOL0     C  485   6.613   0.335  10.153 -0.8012 -0.5649 -0.3104
  745MOL0     C  486   6.544   0.457  10.166 -0.5565 -0.5306 -0.4525
  745MOL0     O  487   6.467   0.648  10.494  1.3581  0.4576 -0.5503
  745MOL0     C  488   6.390   0.955  10.327 -0.1678 -0.3551  0.2034
  745MOL0     C  489   6.314   1.072  10.348 -0.5962 -0.1093 -0.0925
  745MOL0     N  490   6.266   1.554  10.934  0.0630  0.8550 -0.2965
  745MOL0     N  491   6.226   1.526  11.050 -0.1405  0.4369 -0.1280
  745MOL0     C  492   6.609   1.574  11.178  0.7488  1.0876 -0.9327
  745MOL0     C  493   6.578   1.704  11.223  0.5583 -0.7211 -0.0972
  745MOL0     C  494   6.528   2.073  11.432  0.0359 -0.3779 -1.7303
  745MOL0     C  495   6.500   2.160  11.319  0.3833  1.2280 -0.2748
  745MOL0     C  496   6.421   2.277  11.333 -0.0728 -0.6680  0.0672
  745MOL0     C  497   6.358   2.309  11.450 -0.1635 -0.1833 -0.3480
  745MOL0     O  498   6.270   2.419  11.456  0.1597 -0.7156  0.2728
  745MOL0     C  499   6.229   2.478  11.581 -0.5809  0.1609  0.7898
  745MOL0     C  500   6.339   2.554  11.651  0.2720  0.2890  0.1061
  745MOL0     C  501   6.432   2.652  11.566  0.1039 -0.5369  0.2089
  745MOL0     C  502   6.495   2.744  11.677 -0.5684 -0.4481  0.4995
  745MOL0     C  503   6.414   2.830  11.751  0.6199 -0.9681 -0.4782
  745MOL0     C  504   6.361   2.909  11.824  0.5899 -0.5076  0.2566
  745MOL0     C  505   6.385   2.221  11.554 -0.2568 -0.2140 -0.2965
  745MOL0     C  506   6.464   2.107  11.555 -0.5699  0.0593  0.7150
  745MOL0     C  507   6.478   2.027  11.677  0.2077  1.1720 -0.2521
  745MOL0     H  508   6.912   1.794  11.293  2.8293 -4.2147  1.7537
  745MOL0     H  509   6.951   1.562  11.201  0.0950 -0.7174  0.3410
  745MOL0     H  510   6.925   1.247  11.194 -0.2375 -0.0062 -1.6182
  745MOL0     H  511   6.936   1.388  11.296 -0.8679  1.5931 -1.6152
  745MOL0     H  512   6.786   1.307  11.448  1.3620 -1.4857  1.6468
  745MOL0     H  513   6.848   1.151  11.392  1.2335  0.8344  1.7553
  745MOL0     H  514   6.642   1.153  11.222 -0.1899 -2.0341  0.9238
  745MOL0     H  515   6.608   1.307  11.307 -0.5874 -0.5347 -2.1259
  745MOL0     H  516   6.637   1.028  11.442 -0.3698  0.4855 -0.9297
  745MOL0     H  517   6.553   1.162  11.512  0.9144 -1.4376  2.5693
  745MOL0     H  518   6.475   0.993  11.271 -2.9000 -1.1941 -0.4637
  745MOL0     H  519   6.419   0.967  11.445 -0.2174  0.9934  1.0700
  745MOL0     H  520   6.225   1.094  11.363  0.5214 -1.4180 -4.5757
  745MOL0     H  521   6.328   1.212  11.433 -3.3439 -0.1376  0.2633
  745MOL0     H  522   6.304   1.134  11.131  2.1326 -0.7318 -0.6895
  745MOL0     H  523   6.434   1.236  11.186  0.1767  2.7236  3.4388
  745MOL0     H  524   6.126   1.294  11.224 -1.0936  5.5487  0.2800
  745MOL0     H  525   6.252   1.397  11.283 -2.3920 -0.3247  0.4508
  745MOL0     H  526   6.322   1.232  10.942 -0.3763  0.6595 -2.4557
  745MOL0     H  527   6.442   1.510  10.717 -1.6989  0.5189  0.6851
  745MOL0     H  528   6.404   1.334  10.709  1.2864  0.3888 -0.6757
  745MOL0     H  529   6.247   1.589  10.656 -1.2016 -0.2975 -1.9823
  745MOL0     H  530   6.294   1.479  10.530 -0.9024  0.8492 -0.8779
  745MOL0     H  531   6.069   1.464  10.564 -0.6304  1.1667  1.6785
  745MOL0     H  532   6.078   1.422  10.742  1.8583 -1.1667  0.8183
  745MOL0     H  533   6.035   1.210  10.576  0.7573 -1.9751 -1.1012
  745MOL0     H  534   6.185   1.206  10.695  2.7480  0.4698 -1.1609
  745MOL0     H  535   6.221   0.991  10.671  0.3900 -2.1090  0.0365
  745MOL0     H  536   6.321   0.802  10.615 -0.8737  0.9126  0.0714
  745MOL0     H  537   6.699   0.586  10.434 -3.6873 -0.1276  1.7437
  745MOL0     H  538   6.836   0.370  10.401  0.9495  2.2690 -0.3864
  745MOL0     H  539   6.623   0.083  10.223  0.0701  3.8388 -0.1206
  745MOL0     H  540   6.761  -0.010  10.175 -1.9218 -1.2644  1.1605
  745MOL0     H  541   6.806   0.130  10.421 -0.3975  0.3301  0.6384
  745MOL0     H  542   6.664   0.025  10.428  0.0426 -1.3668  0.3853
  745MOL0     H  543   6.790  -0.184  10.360 -0.1159 -1.1540  3.4253
  745MOL0     H  544   6.930  -0.085  10.327 -1.1012  3.6277 -1.1047
  745MOL0     H  545   6.870  -0.023  10.608 -0.6352 -0.1203 -0.0105
  745MOL0     H  546   6.965  -0.170  10.559  0.1448 -1.8166 -2.6829
  745MOL0     H  547   6.775  -0.316  10.555 -1.0221  0.0102  0.3992
  745MOL0     H  548   6.664  -0.179  10.584 -0.4436  0.1996  0.7741
  745MOL0     H  549   6.914  -0.265  10.767 -0.0191 -1.9361 -0.8118
  745MOL0     H  550   6.785  -0.145  10.804  0.9803  0.4118  0.4330
  745MOL0     H  551   6.743  -0.437  10.782 -1.2273 -0.1474  0.1873
  745MOL0     H  552   6.611  -0.330  10.812  0.0300 -1.5084 -0.3146
  745MOL0     H  553   6.730  -0.272  11.036 -1.2546  0.7351 -0.5884
  745MOL0     H  554   6.664  -0.440  10.998  0.5026 -0.4428 -0.3848
  745MOL0     H  555   6.596   0.259  10.078 -1.2907 -0.9670  0.2069
  745MOL0     H  556   6.455   0.471  10.106 -0.6506 -2.1456 -0.7163
  745MOL0     H  557   6.455   0.945  10.242  0.3125  2.8273  0.0744
  745MOL0     H  558   6.309   1.143  10.266  1.9343  0.5687  0.2855
  745MOL0     H  559   6.525   1.511  11.150  2.3092 -1.4208 -0.2288
  745MOL0     H  560   6.477   1.743  11.222  0.2493 -1.4828  0.2525
  745MOL0     H  561   6.546   2.137  11.224  0.6758  1.7679 -0.2699
  745MOL0     H  562   6.395   2.329  11.241 -0.1124 -3.3946 -1.6080
  745MOL0     H  563   6.167   2.411  11.641  0.5790 -0.7447  1.0213
  745MOL0     H  564   6.163   2.559  11.548 -0.3178  0.3347  0.6870
  745MOL0     H  565   6.404   2.479  11.698 -0.3774  0.7491  1.8394
  745MOL0     H  566   6.283   2.593  11.737  0.2085  0.5773 -0.0666
  745MOL0     H  567   6.378   2.720  11.500  1.6965 -0.4668 -1.0670
  745MOL0     H  568   6.504   2.596  11.506  1.3399  2.5136 -1.3378
  745MOL0     H  569   6.567   2.694  11.743  1.7691  2.5563  0.4290
  745MOL0     H  570   6.567   2.796  11.614 -0.8204  0.2241  0.7583
  745MOL0     H  571   6.310   2.980  11.885  1.1899 -0.1311  0.3280
  745MOL0     H  572   6.344   2.245  11.652  1.0368 -1.0947  0.4932
  745MOL0     H  573   6.447   1.923  11.659 -0.5188  1.6274 -1.8655
  745MOL0     H  574   6.581   2.042  11.710  1.1307  1.6740 -3.0378
  745MOL0     H  575   6.418   2.065  11.760 -1.6313 -0.3351 -0.8160
  746MOL0     O  576  10.593   9.351   7.057  0.0465  0.5536 -0.1068
  746MOL0     C  577  10.582   9.409   6.957 -0.3936 -0.3879  0.7696
  746MOL0     O  578  10.466   9.422   6.889  0.9143  0.0042 -0.3662
  746MOL0     C  579  10.331   9.405   6.927 -0.2579 -0.4447 -0.0737
  746MOL0     C  580  10.284   9.416   7.054  0.2872  0.4752 -0.5520
  746MOL0     C  581  10.153   9.380   7.092 -0.4599  0.4916  0.4289
  746MOL0     C  582  10.065   9.326   7.002  0.0288 -1.0867 -0.2426
  746MOL0     O  583   9.942   9.290   7.057 -0.2641 -0.1986  0.1481
  746MOL0     C  584   9.828   9.310   6.975  0.4216  0.2652  0.2144
  746MOL0     C  585   9.701   9.229   7.033 -0.1994 -0.2505  0.1933
  746MOL0     C  586   9.713   9.077   7.038  0.0366 -1.2812  0.4369
  746MOL0     C  587   9.583   9.015   7.102  0.2117 -0.4353 -0.4682
  746MOL0     C  588   9.617   8.865   7.124  0.2837 -0.3121  1.2288
  746MOL0     C  589   9.488   8.792   7.171  0.4395  0.6018 -0.5222
  746MOL0     C  590   9.359   8.769   7.084 -0.3967 -0.0259 -0.4018
  746MOL0     C  591   9.390   8.690   6.963  0.4138  0.4743  0.0019
  746MOL0     N  592   9.446   8.558   6.995 -0.2109 -0.0435  0.1145
  746MOL0     C  593   9.574   8.511   6.981  0.4842 -0.0165  0.6234
  746MOL0     C  594   9.575   8.391   7.043 -0.1626 -0.4742 -0.2385
  746MOL0     C  595   9.697   8.306   7.062 -0.5414  0.5275  0.5332
  746MOL0     C  596   9.752   8.248   6.924 -0.8590  0.3268 -0.3510
  746MOL0     C  597   9.872   8.151   6.954  0.6802 -0.6005 -0.5137
  746MOL0     C  598   9.969   8.141   6.841 -0.1540  0.4460  0.2367
  746MOL0     O  599   9.906   8.101   6.719 -0.4088  0.6444 -0.8036
  746MOL0     C  600   9.977   8.134   6.607  0.6634 -0.3307 -0.4678
  746MOL0     C  601  10.110   8.096   6.589  0.6919 -0.7076 -0.3736
  746MOL0     C  602  10.184   8.133   6.479 -0.6937 -0.3247  0.6849
  746MOL0     C  603  10.118   8.201   6.374 -0.3102 -0.2238  0.2829
  746MOL0     C  604  10.209   8.248   6.263 -0.5673 -0.5491 -0.6253
  746MOL0     O  605  10.163   8.360   6.192 -0.4790  0.4274  0.5470
  746MOL0     C  606  10.229   8.404   6.084  0.3752  0.0538 -0.1270
  746MOL0     C  607  10.362   8.442   6.086  0.0052  0.0932 -0.3808
  746MOL0     C  608  10.423   8.480   5.967 -0.9422 -1.0078  0.6640
  746MOL0     C  609  10.346   8.505   5.851  1.3020  0.8583  0.6425
  746MOL0     O  610  10.401   8.557   5.734 -0.0802  0.3512 -1.1151
  746MOL0     C  611  10.494   8.468   5.669  0.8553  0.6146  0.9104
  746MOL0     C  612  10.417   8.411   5.543 -0.5395  0.0392  0.5722
  746MOL0     C  613  10.511   8.311   5.477 -0.0567 -0.4372  0.4726
  746MOL0     C  614  10.487   8.292   5.325 -0.1772 -0.8365  0.7587
  746MOL0     C  615  10.597   8.196   5.258  0.4218 -0.2228  0.1391
  746MOL0     C  616  10.586   8.047   5.282  0.2821 -0.1792 -0.1419
  746MOL0     C  617  10.719   7.975   5.258 -0.2080 -0.1614  0.0037
  746MOL0     C  618  10.686   7.827   5.298  0.5101  0.0300  0.0976
  746MOL0    Cl  619  10.843   7.737   5.252  0.1980  0.1689 -0.5156
  746MOL0     C  620  10.214   8.498   5.860 -0.9922 -0.4607  0.0988
  746MOL0     C  621  10.157   8.447   5.971  0.7088 -0.8239 -0.3438
  746MOL0     O  622  10.313   8.191   6.259  0.2708  0.3033 -0.1147
  746MOL0     C  623   9.979   8.233   6.381 -0.7372  1.1788  0.2307
  746MOL0     C  624   9.910   8.206   6.501 -0.4326 -1.0091  0.2284
  746MOL0     N  625   9.452   8.361   7.085 -0.6510 -0.6462  0.0178
  746MOL0     N  626   9.376   8.457   7.057  1.0557 -0.1895  0.2682
  746MOL0     C  627  10.112   9.331   6.869  0.3589  0.3274 -0.0706
  746MOL0     C  628  10.240   9.363   6.834  0.6416  0.3690 -0.1268
  746MOL0     C  629  10.700   9.468   6.901  0.1900  0.6989 -0.7143
  746MOL0     C  630  10.679   9.572   6.814 -0.8057 -0.6119 -0.5234
  746MOL0     C  631  10.791   9.629   6.750 -0.2002 -0.0215 -0.8159
  746MOL0     C  632  10.921   9.580   6.781  0.3459  0.2836 -0.0521
  746MOL0     O  633  11.033   9.628   6.728 -0.3079  0.0276  1.0847
  746MOL0     C  634  11.041   9.773   6.702  0.4639  0.0099 -0.4570
  746MOL0     C  635  11.194   9.814   6.679  0.6360 -0.4098 -0.4159
  746MOL0     C  636  11.268   9.742   6.568  1.0973 -0.6126 -0.6739
  746MOL0     C  637  11.336   9.841   6.479  0.3925  0.5842  0.6411
  746MOL0     C  638  11.237   9.888   6.383 -0.6504  1.0707  0.3493
  746MOL0     C  639  11.157   9.934   6.298 -0.6370 -0.3141  0.8342
  746MOL0     C  640  10.936   9.472   6.867 -0.7135 -0.4016  0.7006
  746MOL0     C  641  10.833   9.419   6.932 -0.5464  0.1685  0.7403
  746MOL0     C  642  10.862   9.291   7.015 -0.3290  0.7205 -0.1828
  746MOL0     H  643  10.355   9.440   7.133  1.0655 -0.6024 -0.8955
  746MOL0     H  644  10.118   9.385   7.194  0.3295  1.3116  0.6750
  746MOL0     H  645   9.802   9.417   6.975  0.0116  0.2493  3.2318
  746MOL0     H  646   9.846   9.273   6.874 -1.2604 -3.8529  1.1971
  746MOL0     H  647   9.618   9.261   6.969 -0.2961  0.4113  0.6380
  746MOL0     H  648   9.672   9.264   7.133 -1.7544 -0.4104 -0.1765
  746MOL0     H  649   9.803   9.050   7.094  2.4898  2.3434 -1.4230
  746MOL0     H  650   9.727   9.036   6.938  1.0466 -0.0931  0.0642
  746MOL0     H  651   9.542   9.050   7.198  1.2601  1.1692 -0.5708
  746MOL0     H  652   9.499   9.010   7.031 -0.7705 -5.3264  0.6520
  746MOL0     H  653   9.657   8.811   7.037  0.4148 -0.7580  1.5604
  746MOL0     H  654   9.694   8.863   7.201  1.1359  0.8060  0.4353
  746MOL0     H  655   9.521   8.692   7.203  2.7006 -0.3334 -4.9097
  746MOL0     H  656   9.457   8.843   7.262 -4.8385  0.4249 -1.8939
  746MOL0     H  657   9.309   8.860   7.049 -3.8406 -1.0271  1.5158
  746MOL0     H  658   9.285   8.725   7.151 -3.1823  2.8782 -1.3027
  746MOL0     H  659   9.289   8.681   6.922  0.0623  2.9986  0.1658
  746MOL0     H  660   9.472   8.729   6.903  0.4156  0.6111  0.0942
  746MOL0     H  661   9.656   8.559   6.929 -1.9259  3.3291 -0.4736
  746MOL0     H  662   9.771   8.379   7.095 -2.7855  4.3511 -2.1551
  746MOL0     H  663   9.682   8.229   7.139 -1.0520  2.7015  2.7105
  746MOL0     H  664   9.676   8.195   6.864 -2.6427  1.1015  1.1241
  746MOL0     H  665   9.778   8.326   6.852 -3.8140  0.9389 -0.8884
  746MOL0     H  666   9.828   8.052   6.966 -2.1438  0.7016  0.9619
  746MOL0     H  667   9.917   8.179   7.049  0.4171 -1.3503 -0.1613
  746MOL0     H  668  10.043   8.064   6.864 -0.2653  0.6443  1.3070
  746MOL0     H  669  10.017   8.235   6.811 -1.4700  0.8475 -0.7419
  746MOL0     H  670  10.164   8.032   6.659 -2.8985 -1.7700  1.6540
  746MOL0     H  671  10.288   8.105   6.481 -0.0719  1.7332 -0.0752
  746MOL0     H  672  10.408   8.427   6.183 -0.4635  0.0849 -0.1583
  746MOL0     H  673  10.529   8.488   5.950 -1.1097 -1.3090 -0.6117
  746MOL0     H  674  10.586   8.512   5.631  1.9651 -4.5939 -3.6272
  746MOL0     H  675  10.526   8.389   5.739 -1.7287 -1.7121 -0.3218
  746MOL0     H  676  10.321   8.373   5.577  0.1177 -1.6443  0.6462
  746MOL0     H  677  10.410   8.501   5.482  0.0153  1.4227  2.4575
  746MOL0     H  678  10.618   8.333   5.485  0.6535 -3.6909  1.7155
  746MOL0     H  679  10.501   8.214   5.526  1.7354 -0.5988  0.5937
  746MOL0     H  680  10.503   8.385   5.269  1.9907 -0.6538  1.5790
  746MOL0     H  681  10.386   8.250   5.316 -0.9772  1.3012 -1.2189
  746MOL0     H  682  10.687   8.224   5.314 -0.5014  0.9041  1.0986
  746MOL0     H  683  10.617   8.222   5.153 -0.8198 -0.7065 -0.2299
  746MOL0     H  684  10.544   8.030   5.382  0.9236 -0.7878  0.0298
  746MOL0     H  685  10.510   8.010   5.214  0.3006 -3.0265  1.2602
  746MOL0     H  686  10.800   8.025   5.312  0.0301  2.3358 -2.4306
  746MOL0     H  687  10.745   7.993   5.153  0.7044  0.9743  0.4042
  746MOL0     H  688  10.661   7.834   5.405 -0.3906  1.8063 -0.1879
  746MOL0     H  689  10.597   7.790   5.246  0.7475 -0.1621 -0.1693
  746MOL0     H  690  10.157   8.527   5.772 -1.2844 -0.8270  0.1651
  746MOL0     H  691  10.048   8.449   5.967  0.7384 -0.0766 -1.0619
  746MOL0     H  692   9.922   8.267   6.295  2.8036  3.6217 -1.3691
  746MOL0     H  693   9.811   8.252   6.504  0.3109  0.8692 -1.6987
  746MOL0     H  694  10.047   9.282   6.797  2.2541 -2.0308 -0.3220
  746MOL0     H  695  10.274   9.362   6.731  0.4095  4.5878 -0.4404
  746MOL0     H  696  10.582   9.620   6.804  1.1211  3.7337 -0.6952
  746MOL0     H  697  10.779   9.716   6.686  2.0323  1.1279  0.2264
  746MOL0     H  698  11.002   9.831   6.786 -0.8834  1.9383 -2.3053
  746MOL0     H  699  10.986   9.797   6.611 -1.7182  0.2646  0.8595
  746MOL0     H  700  11.252   9.795   6.770  3.4099 -1.2626 -2.2130
  746MOL0     H  701  11.214   9.922   6.673  1.2486 -0.5559 -1.1624
  746MOL0     H  702  11.191   9.689   6.511 -2.3240  1.2866  1.7491
  746MOL0     H  703  11.335   9.669   6.614  2.7435  0.4654 -1.3077
  746MOL0     H  704  11.390   9.924   6.526  2.7427 -1.0741  1.0673
  746MOL0     H  705  11.412   9.788   6.420  0.5495 -0.0213  1.3743
  746MOL0     H  706  11.090   9.977   6.227  1.0511  0.5870 -0.2911
  746MOL0     H  707  11.040   9.444   6.882  0.8376  2.1117 -3.6468
  746MOL0     H  708  10.832   9.291   7.121  1.3793  2.6367  0.3553
  746MOL0     H  709  10.806   9.201   6.987 -0.6618  0.3593  1.5296
  746MOL0     H  710  10.964   9.254   7.011 -0.1069  1.4229 -3.5642
  747MOL0     O  711   6.996   6.952   4.639  0.2019 -0.6076 -0.1071
  747MOL0     C  712   6.978   6.967   4.761  0.6203 -0.0475 -0.1485
  747MOL0     O  713   6.890   6.892   4.833  0.3471 -0.3975 -0.4781
  747MOL0     C  714   6.834   6.775   4.790  0.3636 -0.0629  0.1286
  747MOL0     C  715   6.908   6.683   4.708 -0.5171 -1.3036 -0.1231
  747MOL0     C  716   6.840   6.560   4.663 -0.0017 -0.6519  0.1735
  747MOL0     C  717   6.712   6.534   4.691  0.4565  0.2732 -0.3588
  747MOL0     O  718   6.651   6.415   4.647  0.1299 -0.5898 -0.6269
  747MOL0     C  719   6.723   6.315   4.569  0.1185 -0.3683  0.1604
  747MOL0     C  720   6.632   6.203   4.535  0.1250  0.0829  0.0279
  747MOL0     C  721   6.489   6.239   4.493 -0.3159  0.1134 -0.3663
  747MOL0     C  722   6.417   6.115   4.464 -0.3236 -0.5091 -0.2893
  747MOL0     C  723   6.322   6.078   4.582 -0.5165 -0.9794 -0.4316
  747MOL0     C  724   6.261   5.930   4.578 -0.1295 -0.4797  0.1572
  747MOL0     C  725   6.367   5.816   4.577 -0.1654 -0.7851 -0.3374
  747MOL0     C  726   6.308   5.679   4.586 -0.1343  1.0031 -0.0656
  747MOL0     N  727   6.210   5.660   4.480  0.0942 -0.1521  0.5593
  747MOL0     C  728   6.223   5.695   4.345 -0.5741  0.7673 -0.1990
  747MOL0     C  729   6.107   5.662   4.290 -0.4228 -0.3108  0.0398
  747MOL0     C  730   6.106   5.656   4.139 -1.0721  0.2490  0.0942
  747MOL0     C  731   5.973   5.681   4.081 -0.5742  0.0319  0.0863
  747MOL0     C  732   5.976   5.631   3.937 -0.3443 -0.5960 -0.0794
  747MOL0     C  733   6.108   5.628   3.861  1.0302  0.7005  0.4102
  747MOL0     O  734   6.086   5.550   3.744 -0.0849  0.3168  0.3003
  747MOL0     C  735   6.105   5.616   3.620  0.4150 -0.3317  0.1332
  747MOL0     C  736   6.192   5.721   3.589 -0.1796  0.1706 -0.2754
  747MOL0     C  737   6.180   5.787   3.460 -0.2400  0.3214  0.5297
  747MOL0     C  738   6.094   5.715   3.357 -0.0574  0.6280  0.6620
  747MOL0     C  739   6.092   5.758   3.211 -0.3025  0.2907  0.3423
  747MOL0     O  740   6.157   5.875   3.186  0.2849 -0.0569 -0.1368
  747MOL0     C  741   6.211   5.918   3.067  0.3941 -0.2886  0.0575
  747MOL0     C  742   6.176   5.867   2.942 -0.3101 -0.2475  1.2549
  747MOL0     C  743   6.217   5.916   2.820 -0.1974 -0.8067 -0.2831
  747MOL0     C  744   6.299   6.037   2.825 -1.0556 -0.0135  0.6307
  747MOL0     O  745   6.346   6.101   2.713  0.9791 -0.4192  0.1066
  747MOL0     C  746   6.247   6.129   2.618  0.2093  0.2345  1.1562
  747MOL0     C  747   6.253   6.276   2.590 -0.2537  0.8190  1.0056
  747MOL0     C  748   6.140   6.320   2.488  0.3917  0.0693 -0.5847
  747MOL0     C  749   6.185   6.446   2.417  0.4952 -0.2076  0.6989
  747MOL0     C  750   6.281   6.408   2.303 -0.0101  0.7359  0.0695
  747MOL0     C  751   6.337   6.530   2.229 -0.3769  0.1300 -0.0641
  747MOL0     C  752   6.473   6.505   2.148  0.0263  0.1215 -0.4877
  747MOL0     C  753   6.536   6.636   2.097  0.7552 -0.7556 -0.2703
  747MOL0    Cl  754   6.604   6.600   1.931  0.0875 -0.1127  0.2659
  747MOL0     C  755   6.343   6.078   2.943  0.2613  0.3020 -0.0087
  747MOL0     C  756   6.295   6.027   3.058 -0.2307  0.3865 -0.8112
  747MOL0     O  757   6.045   5.681   3.128  0.7945  0.3418  0.5094
  747MOL0     C  758   6.021   5.601   3.386 -0.5437  0.1195 -0.5524
  747MOL0     C  759   6.022   5.560   3.519  0.1449  1.0827 -0.0336
  747MOL0     N  760   6.012   5.639   4.385 -0.3198  1.1987 -0.6461
  747MOL0     N  761   6.079   5.641   4.500  0.5790 -1.2657  0.7022
  747MOL0     C  762   6.639   6.631   4.772 -0.0457 -0.5192 -0.0448
  747MOL0     C  763   6.698   6.739   4.822 -0.8441 -0.7593 -0.4711
  747MOL0     C  764   7.047   7.072   4.835 -0.3071 -0.4185 -1.4601
  747MOL0     C  765   7.034   7.080   4.977  0.1886  0.7160  0.1701
  747MOL0     C  766   7.086   7.182   5.054 -0.5454  0.0600 -0.5626
  747MOL0     C  767   7.158   7.285   4.997 -1.1343  0.9592  1.1655
  747MOL0     O  768   7.218   7.390   5.058 -0.6590  0.3873  1.0746
  747MOL0     C  769   7.174   7.428   5.187  0.2657 -0.5212  0.5546
  747MOL0     C  770   7.272   7.523   5.255 -0.2335  0.7040 -0.1118
  747MOL0     C  771   7.206   7.604   5.365  0.0113 -0.5427  1.0542
  747MOL0     C  772   7.169   7.532   5.499  0.3604  0.6252  0.0402
  747MOL0     C  773   7.281   7.480   5.579  0.0189  0.2556 -0.5986
  747MOL0     C  774   7.378   7.442   5.649 -0.0327  0.3554  0.0455
  747MOL0     C  775   7.182   7.278   4.863  0.5009 -0.4026  0.6500
  747MOL0     C  776   7.121   7.172   4.782  0.3821 -0.1526 -0.7192
  747MOL0     C  777   7.151   7.189   4.637 -0.8572 -0.8485 -0.0029
  747MOL0     H  778   7.002   6.725   4.674  0.6143 -2.8076  1.0180
  747MOL0     H  779   6.906   6.490   4.613  0.9403 -1.3451  2.3089
  747MOL0     H  780   6.742   6.356   4.469 -0.4086  1.8038  0.9029
  747MOL0     H  781   6.808   6.282   4.630  1.4133  1.4983 -0.5291
  747MOL0     H  782   6.620   6.138   4.623 -1.3155 -2.6000 -1.9875
  747MOL0     H  783   6.675   6.131   4.464  0.9843 -1.7106  2.2226
  747MOL0     H  784   6.483   6.294   4.398  1.6709  1.6667  0.3280
  747MOL0     H  785   6.437   6.298   4.569 -0.8879  0.4998 -1.0519
  747MOL0     H  786   6.352   6.117   4.376  0.7461  0.9871 -1.0786
  747MOL0     H  787   6.490   6.034   4.454  0.9692 -0.2546  4.6525
  747MOL0     H  788   6.366   6.081   4.682 -2.2021 -3.5561  0.4839
  747MOL0     H  789   6.242   6.152   4.575 -0.1938 -0.6695 -0.9433
  747MOL0     H  790   6.190   5.933   4.661  1.4884  2.2686  1.5802
  747MOL0     H  791   6.208   5.930   4.482 -3.3253  0.9891  1.7942
  747MOL0     H  792   6.434   5.820   4.663  0.6722  1.0357 -1.0170
  747MOL0     H  793   6.438   5.833   4.495  1.1459  0.1771  0.9538
  747MOL0     H  794   6.394   5.614   4.569 -0.3020  1.3132 -2.4065
  747MOL0     H  795   6.257   5.650   4.679  0.8409 -1.9464 -0.3631
  747MOL0     H  796   6.311   5.730   4.291 -0.5215  1.7985  0.5196
  747MOL0     H  797   6.190   5.717   4.102 -1.1692 -0.5197 -1.4729
  747MOL0     H  798   6.135   5.552   4.121  2.0420  0.7335  1.5417
  747MOL0     H  799   5.902   5.618   4.136 -0.7917 -0.8375 -1.1425
  747MOL0     H  800   5.946   5.786   4.088 -0.2198  0.0284  1.7408
  747MOL0     H  801   5.898   5.693   3.892  0.9575  1.8158  0.8173
  747MOL0     H  802   5.943   5.527   3.933  0.9833 -1.0022 -1.4232
  747MOL0     H  803   6.192   5.583   3.914  0.4393  2.4684  2.9992
  747MOL0     H  804   6.136   5.733   3.850  0.0985  0.7469 -2.7101
  747MOL0     H  805   6.257   5.765   3.664  0.8513  0.4600 -1.3166
  747MOL0     H  806   6.242   5.876   3.449  0.5491 -0.2382  0.3590
  747MOL0     H  807   6.110   5.781   2.934 -0.4812 -0.0358  0.1835
  747MOL0     H  808   6.194   5.869   2.725 -0.9446 -2.1557  0.5389
  747MOL0     H  809   6.255   6.059   2.534 -2.7614 -1.0497  1.8264
  747MOL0     H  810   6.151   6.111   2.667 -0.6137  1.8161  0.1783
  747MOL0     H  811   6.239   6.341   2.677  2.9479  3.2547 -0.1301
  747MOL0     H  812   6.350   6.310   2.553  0.8515 -0.7124  2.3280
  747MOL0     H  813   6.118   6.237   2.420  1.9583 -0.8556 -0.0114
  747MOL0     H  814   6.043   6.334   2.536  0.1257  0.8908 -1.3246
  747MOL0     H  815   6.227   6.514   2.492 -1.4929  1.9882 -0.0695
  747MOL0     H  816   6.088   6.483   2.382 -0.1931 -3.3023 -1.0763
  747MOL0     H  817   6.229   6.337   2.239  0.3956 -0.2099  0.7663
  747MOL0     H  818   6.369   6.359   2.346 -3.0747 -4.7654  0.9452
  747MOL0     H  819   6.262   6.581   2.168 -0.8076  0.4799  0.7400
  747MOL0     H  820   6.375   6.595   2.309  1.8352  0.7914 -1.5775
  747MOL0     H  821   6.457   6.434   2.067 -0.4572 -1.1189  0.6485
  747MOL0     H  822   6.543   6.453   2.214 -1.7225 -2.7311 -0.6972
  747MOL0     H  823   6.458   6.711   2.081 -0.7481 -2.3582 -0.8311
  747MOL0     H  824   6.608   6.673   2.171 -0.8988 -0.1211  1.0992
  747MOL0     H  825   6.414   6.159   2.956 -0.1777  0.3906  2.3615
  747MOL0     H  826   6.325   6.057   3.158 -1.9729 -0.6511  0.0813
  747MOL0     H  827   5.965   5.541   3.315 -1.7062 -1.2749  1.4357
  747MOL0     H  828   5.972   5.468   3.547  0.5612  0.6144 -0.7872
  747MOL0     H  829   6.536   6.617   4.801 -1.1172  1.4459 -2.5170
  747MOL0     H  830   6.644   6.809   4.885  4.0800  2.7360  0.4280
  747MOL0     H  831   6.964   7.008   5.018 -1.5281  1.3624 -1.4608
  747MOL0     H  832   7.069   7.178   5.161 -0.4695  0.6411 -0.5267
  747MOL0     H  833   7.157   7.341   5.251  0.4959 -0.7959  0.2455
  747MOL0     H  834   7.079   7.483   5.179  2.2450  3.0122 -0.9778
  747MOL0     H  835   7.315   7.586   5.176 -0.7867  1.1488 -0.0614
  747MOL0     H  836   7.358   7.464   5.289  0.7770 -0.4814 -4.1168
  747MOL0     H  837   7.120   7.659   5.327 -0.1938 -1.3085  0.3737
  747MOL0     H  838   7.268   7.693   5.379 -1.7092  1.0153 -0.6262
  747MOL0     H  839   7.143   7.605   5.576  0.0052  0.3150  0.2189
  747MOL0     H  840   7.091   7.457   5.484  2.3850 -1.0709 -3.1738
  747MOL0     H  841   7.471   7.408   5.691 -0.2526 -1.6178 -0.9531
  747MOL0     H  842   7.236   7.367   4.832  2.5752 -0.3126  3.9819
  747MOL0     H  843   7.191   7.097   4.593  2.1761 -1.2559  3.1575
  747MOL0     H  844   7.069   7.231   4.578 -0.3193  0.9719  0.4911
  747MOL0     H  845   7.233   7.262   4.636 -1.0647 -0.6186 -1.1064
  748MOL0     O  846  11.013   2.782  11.491  0.8325  1.2280 -0.0140
  748MOL0     C  847  11.095   2.855  11.536 -0.6165 -0.6062  0.2723
  748MOL0     O  848  11.200   2.926  11.469  0.0882  0.0155 -0.7737
  748MOL0     C  849  11.176   2.924  11.333 -0.3604  0.0100 -0.6695
  748MOL0     C  850  11.066   2.974  11.267 -0.0233 -0.4045 -0.6254
  748MOL0     C  851  11.048   2.957  11.140 -0.5322 -0.7486 -0.1307
  748MOL0     C  852  11.149   2.913  11.052  0.9787  0.0157  0.3073
  748MOL0     O  853  11.132   2.907  10.923 -0.2164 -0.9288 -0.1786
  748MOL0     C  854  11.053   2.995  10.848  0.1055  0.7507  0.2856
  748MOL0     C  855  11.048   2.965  10.702  0.3313 -0.0483  0.0152
  748MOL0     C  856  11.185   2.971  10.622  0.7711  0.3852 -0.7968
  748MOL0     C  857  11.280   3.081  10.666  0.5880 -0.3360  0.3073
  748MOL0     C  858  11.384   3.137  10.568  0.0527  0.0824 -0.9790
  748MOL0     C  859  11.478   3.027  10.507 -0.0176 -0.3067 -1.2432
  748MOL0     C  860  11.556   2.958  10.620  0.0354 -0.2447  0.2570
  748MOL0     C  861  11.664   2.869  10.567  0.9420 -0.5114  0.8340
  748MOL0     N  862  11.754   2.827  10.676 -0.4913  0.4681 -1.0016
  748MOL0     C  863  11.741   2.718  10.761  0.2139 -0.1232 -0.7058
  748MOL0     C  864  11.844   2.730  10.848 -0.9783 -0.0782 -0.0294
  748MOL0     C  865  11.892   2.613  10.935  0.8242  0.6734 -0.2974
  748MOL0     C  866  11.843   2.593  11.085  0.1307 -0.2011  0.6631
  748MOL0     C  867  11.699   2.639  11.114 -0.3152  0.2833  0.9882
  748MOL0     C  868  11.602   2.544  11.053 -0.5062  0.1280  0.4827
  748MOL0     O  869  11.507   2.618  10.983  0.3426  0.4014  0.0493
  748MOL0     C  870  11.400   2.555  10.931 -0.6138  0.7629 -0.3127
  748MOL0     C  871  11.297   2.631  10.874  0.0379  0.2080  0.2911
  748MOL0     C  872  11.205   2.574  10.786  0.4606 -0.3967 -0.0288
  748MOL0     C  873  11.188   2.435  10.781 -0.2534 -0.4115 -0.1195
  748MOL0     C  874  11.076   2.369  10.706  1.6482 -0.0079  0.4679
  748MOL0     O  875  11.026   2.243  10.727  0.0711  0.3301 -0.3149
  748MOL0     C  876  10.940   2.171  10.643  0.0082 -0.7924 -0.2248
  748MOL0     C  877  10.962   2.036  10.617 -0.1897 -0.4107  0.2680
  748MOL0     C  878  10.866   1.959  10.547 -0.5274 -0.2665 -0.2174
  748MOL0     C  879  10.747   2.006  10.497 -0.0616 -0.6205 -0.7814
  748MOL0     O  880  10.659   1.930  10.424  0.2159 -0.1896  0.2369
  748MOL0     C  881  10.641   1.792  10.449  0.1169  0.1543  0.3841
  748MOL0     C  882  10.510   1.732  10.396  0.2197 -0.2418  0.5893
  748MOL0     C  883  10.499   1.581  10.394 -0.0548 -0.7026  1.1686
  748MOL0     C  884  10.394   1.544  10.287 -0.8318  0.3037  0.2202
  748MOL0     C  885  10.376   1.387  10.257  0.1938  0.2429  0.5578
  748MOL0     C  886  10.307   1.378  10.124  0.1982  0.1526  0.9732
  748MOL0     C  887  10.299   1.241  10.053  0.0944  0.0154  0.8150
  748MOL0     C  888  10.301   1.255   9.900 -1.2626 -0.7639  0.7142
  748MOL0    Cl  889  10.178   1.379   9.837 -0.0561  0.2141  0.0041
  748MOL0     C  890  10.737   2.147  10.499 -0.4293 -0.6117  0.4497
  748MOL0     C  891  10.833   2.230  10.577  0.6360 -1.3557  0.4694
  748MOL0     O  892  11.044   2.437  10.604 -0.0962  0.2827 -0.1904
  748MOL0     C  893  11.280   2.352  10.845  0.2200 -0.0086 -0.0698
  748MOL0     C  894  11.393   2.415  10.910  0.2694 -0.2891  0.3334
  748MOL0     N  895  11.925   2.840  10.810 -0.3230 -0.7593  0.1651
  748MOL0     N  896  11.872   2.890  10.702  0.7737  0.2496 -1.1863
  748MOL0     C  897  11.272   2.873  11.118  0.2845  0.6009 -0.0486
  748MOL0     C  898  11.273   2.869  11.258 -0.8964 -0.1282  0.1250
  748MOL0     C  899  11.099   2.873  11.681 -0.2452  0.4808  0.0454
  748MOL0     C  900  11.220   2.901  11.753 -0.4115  0.2229  0.0127
  748MOL0     C  901  11.229   2.907  11.887  0.1215 -0.8764  0.2258
  748MOL0     C  902  11.114   2.881  11.958 -0.3572 -0.4605 -0.0450
  748MOL0     O  903  11.138   2.876  12.094  0.1760 -0.9477  0.4309
  748MOL0     C  904  11.088   2.757  12.165 -0.3141  0.7712 -0.0642
  748MOL0     C  905  11.199   2.707  12.260  0.3752  0.9873  0.4970
  748MOL0     C  906  11.141   2.606  12.355  0.1781  0.2168  0.0917
  748MOL0     C  907  11.028   2.661  12.453 -0.4761  0.6557  0.7223
  748MOL0     C  908  11.050   2.807  12.497 -0.5005 -0.2997 -0.4415
  748MOL0     C  909  11.087   2.924  12.510  0.8579 -0.1897 -0.5946
  748MOL0     C  910  10.995   2.847  11.894 -0.4142  0.7103 -0.5246
  748MOL0     C  911  10.982   2.851  11.762  0.9380 -0.0290  0.0967
  748MOL0     C  912  10.852   2.801  11.712  0.2514 -0.5644  0.2553
  748MOL0     H  913  10.984   3.015  11.325 -0.8038  0.7423 -2.4752
  748MOL0     H  914  10.953   2.993  11.099  0.0578  1.0226 -0.0420
  748MOL0     H  915  10.951   3.004  10.887 -0.0280  2.9392 -0.4078
  748MOL0     H  916  11.100   3.092  10.867  0.8560  0.3513  0.4715
  748MOL0     H  917  10.975   3.035  10.661 -0.9264 -1.9252 -1.1201
  748MOL0     H  918  11.002   2.867  10.690 -2.1633  0.5436  3.3178
  748MOL0     H  919  11.145   2.993  10.523  0.9225 -0.8831 -1.1568
  748MOL0     H  920  11.235   2.875  10.643  1.2074  1.0648  1.5989
  748MOL0     H  921  11.222   3.161  10.712 -1.4175 -1.9512  0.7382
  748MOL0     H  922  11.331   3.043  10.755 -1.7952 -1.1275  1.3899
  748MOL0     H  923  11.319   3.190  10.498 -0.7284  1.1825  0.5276
  748MOL0     H  924  11.438   3.220  10.614 -0.5311 -0.5468  0.9043
  748MOL0     H  925  11.414   2.959  10.451  2.4362 -2.6402 -1.4412
  748MOL0     H  926  11.551   3.085  10.449 -0.0742  0.9191 -0.1409
  748MOL0     H  927  11.484   2.902  10.680 -1.7276  1.8540  0.2111
  748MOL0     H  928  11.605   3.024  10.692 -1.8508  2.1293 -0.5150
  748MOL0     H  929  11.625   2.786  10.509  1.0128  1.9217 -3.0444
  748MOL0     H  930  11.718   2.931  10.495  0.8126 -1.6394 -0.2637
  748MOL0     H  931  11.662   2.643  10.754  0.0175 -0.0389  0.3093
  748MOL0     H  932  11.871   2.524  10.875  0.9844  0.6205 -0.2756
  748MOL0     H  933  12.001   2.617  10.934  0.8034  1.4416  0.0182
  748MOL0     H  934  11.864   2.490  11.117  1.2119 -0.8355 -1.8195
  748MOL0     H  935  11.906   2.656  11.148  0.7348 -0.3036  0.1773
  748MOL0     H  936  11.674   2.743  11.092 -0.4779 -0.0477 -0.5675
  748MOL0     H  937  11.678   2.635  11.221 -3.7514 -0.2795  0.4148
  748MOL0     H  938  11.563   2.478  11.131 -0.5184  0.1818  0.5227
  748MOL0     H  939  11.657   2.475  10.988 -2.3548 -0.3768 -0.6154
  748MOL0     H  940  11.318   2.737  10.877 -1.9367  0.6566  0.0577
  748MOL0     H  941  11.151   2.650  10.731  2.0798  2.4182  1.9980
  748MOL0     H  942  11.051   1.997  10.664 -0.9288 -2.0987  0.3121
  748MOL0     H  943  10.887   1.853  10.542 -0.4477 -0.2855  0.4541
  748MOL0     H  944  10.727   1.741  10.403 -1.5792 -2.3603 -0.2138
  748MOL0     H  945  10.631   1.799  10.558 -0.3646  5.0957  0.2352
  748MOL0     H  946  10.425   1.770  10.453  0.2662 -0.0059  0.4990
  748MOL0     H  947  10.483   1.768  10.297 -2.0904 -0.8338  0.9510
  748MOL0     H  948  10.594   1.527  10.384 -0.2194 -0.9173  0.7495
  748MOL0     H  949  10.470   1.559  10.497  3.8396 -2.9586  1.9913
  748MOL0     H  950  10.410   1.602  10.196 -1.4338 -2.2230 -1.6084
  748MOL0     H  951  10.295   1.580  10.319 -1.2394 -1.7578  1.4694
  748MOL0     H  952  10.324   1.334  10.337 -2.9733  2.8336  0.4286
  748MOL0     H  953  10.476   1.345  10.242  0.0261 -0.1712  0.6143
  748MOL0     H  954  10.205   1.414  10.140 -0.6952 -0.4407 -2.5047
  748MOL0     H  955  10.336   1.450  10.048  0.7641 -1.1529 -0.0884
  748MOL0     H  956  10.208   1.191  10.087 -0.0316  1.1393  2.2436
  748MOL0     H  957  10.378   1.170  10.080 -0.2297 -0.0058  1.7712
  748MOL0     H  958  10.398   1.283   9.859 -0.8796 -2.3230  0.4775
  748MOL0     H  959  10.276   1.164   9.844 -3.0293 -0.5464  1.0944
  748MOL0     H  960  10.663   2.187  10.430  1.7588  0.5320 -1.3980
  748MOL0     H  961  10.816   2.335  10.598  0.3681 -1.4347  0.6661
  748MOL0     H  962  11.247   2.249  10.845  1.2515 -0.4197 -2.8600
  748MOL0     H  963  11.469   2.350  10.951  0.2394  0.0627  0.9582
  748MOL0     H  964  11.351   2.830  11.057  1.1847  2.5075 -0.2832
  748MOL0     H  965  11.364   2.833  11.306 -0.6444 -0.5562 -0.6621
  748MOL0     H  966  11.311   2.908  11.695 -0.8757 -3.3835 -1.3979
  748MOL0     H  967  11.329   2.935  11.922 -0.0060 -1.7060  1.3018
  748MOL0     H  968  11.058   2.677  12.097  1.1859  1.2971 -1.4182
  748MOL0     H  969  10.996   2.786  12.217 -0.4611 -1.3681  0.9566
  748MOL0     H  970  11.238   2.785  12.326 -0.3444  1.4434  0.3939
  748MOL0     H  971  11.278   2.658  12.203 -0.6188  1.2345 -1.1313
  748MOL0     H  972  11.222   2.576  12.422 -1.4341 -0.5667  1.7719
  748MOL0     H  973  11.100   2.509  12.323 -0.0191 -0.7607  2.9770
  748MOL0     H  974  10.936   2.642  12.398 -0.1358 -1.3964  0.7851
  748MOL0     H  975  11.019   2.597  12.541 -0.7450  1.6327  1.4255
  748MOL0     H  976  11.123   3.024  12.499  0.4040  0.5056  2.8931
  748MOL0     H  977  10.913   2.820  11.959  1.1072 -0.0972  1.1748
  748MOL0     H  978  10.775   2.785  11.789  0.2876 -0.8168  0.2396
  748MOL0     H  979  10.815   2.874  11.639 -0.0386 -1.7881 -0.8571
  748MOL0     H  980  10.867   2.704  11.665  2.0295 -1.1897  1.9590
  749MOL0     O  981   2.174   4.554   8.558  0.0247 -0.4734 -0.0733
  749MOL0     C  982   2.166   4.433   8.589  0.1761  0.2984 -0.2394
  749MOL0     O  983   2.113   4.385   8.701  0.5130 -0.7206 -0.4272
  749MOL0     C  984   2.043   4.462   8.788 -0.2342 -0.8090 -0.3661
  749MOL0     C  985   2.077   4.465   8.925 -0.1127 -0.2965 -0.2710
  749MOL0     C  986   1.996   4.540   9.020  0.4838 -0.0060 -0.0071
  749MOL0     C  987   1.889   4.615   8.988 -0.5450 -0.1686 -1.1265
  749MOL0     O  988   1.811   4.671   9.081 -0.6914  0.1548  0.9371
  749MOL0     C  989   1.853   4.808   9.103  0.8359 -0.0369  0.5492
  749MOL0     C  990   1.799   4.877   9.236  0.7838 -0.6035  0.6438
  749MOL0     C  991   1.845   4.805   9.362  0.4535 -0.0132  0.0698
  749MOL0     C  992   1.806   4.896   9.484 -0.2994  0.5947 -0.2802
  749MOL0     C  993   1.667   4.855   9.526 -0.1821 -0.1696 -0.5050
  749MOL0     C  994   1.633   4.906   9.674 -0.3689 -0.8385 -0.7893
  749MOL0     C  995   1.657   5.060   9.700 -0.4093  0.2960  0.1959
  749MOL0     C  996   1.555   5.145   9.617  0.0996  0.7337 -0.4713
  749MOL0     N  997   1.562   5.289   9.638  0.5642  1.8730 -0.4514
  749MOL0     C  998   1.547   5.347   9.754  0.6487  0.3302 -0.7282
  749MOL0     C  999   1.499   5.471   9.722  0.4716  0.5164  0.8080
  749MOL0     C 1000   1.431   5.562   9.821 -0.5254 -0.9844  0.5075
  749MOL0     C 1001   1.535   5.633   9.902 -0.6579  1.2329 -0.7774
  749MOL0     C 1002   1.667   5.669   9.829 -0.6027  0.1787 -0.0890
  749MOL0     C 1003   1.788   5.576   9.816  0.1694  0.0947 -0.4776
  749MOL0     O 1004   1.914   5.652   9.821 -0.8373 -0.3863  0.8298
  749MOL0     C 1005   1.995   5.648   9.936 -0.2228  1.0520 -0.3121
  749MOL0     C 1006   1.994   5.544  10.024 -1.3182  0.6991 -0.2836
  749MOL0     C 1007   2.072   5.555  10.134 -0.7112 -1.0223  0.7225
  749MOL0     C 1008   2.151   5.669  10.168  0.5266 -0.9311  0.4888
  749MOL0     C 1009   2.208   5.697  10.300  0.4590  0.6607  0.7489
  749MOL0     O 1010   2.247   5.585  10.375 -0.0292  0.3176 -1.0415
  749MOL0     C 1011   2.278   5.614  10.504 -0.3604 -0.0173  1.2114
  749MOL0     C 1012   2.407   5.667  10.528 -0.4321 -0.6741 -0.2823
  749MOL0     C 1013   2.452   5.682  10.665  0.5709 -0.1308  0.3726
  749MOL0     C 1014   2.373   5.651  10.774  0.6153 -0.0948 -0.7682
  749MOL0     O 1015   2.404   5.663  10.904 -0.1635  0.2703  0.6708
  749MOL0     C 1016   2.513   5.752  10.946 -0.6120  0.4406  0.5398
  749MOL0     C 1017   2.653   5.686  10.961 -0.5175  0.5158  0.7182
  749MOL0     C 1018   2.741   5.733  11.072 -0.4020 -0.0338 -0.2331
  749MOL0     C 1019   2.873   5.656  11.060  0.8107  1.0805  0.7267
  749MOL0     C 1020   2.957   5.656  11.183 -0.1824  0.3313 -1.1302
  749MOL0     C 1021   3.012   5.772  11.248  0.0323 -0.2010  0.1773
  749MOL0     C 1022   3.109   5.747  11.357 -0.0414  1.1072  0.0400
  749MOL0     C 1023   3.147   5.869  11.432 -0.8154 -0.0149  0.0975
  749MOL0    Cl 1024   3.180   6.008  11.340 -0.0743 -0.4174 -0.1867
  749MOL0     C 1025   2.243   5.605  10.750  0.0855 -0.2532  0.1067
  749MOL0     C 1026   2.190   5.581  10.614  0.2561 -0.2499 -0.5959
  749MOL0     O 1027   2.239   5.815  10.318  0.6207  0.0514 -0.0102
  749MOL0     C 1028   2.155   5.768  10.065 -0.4138  0.4751  0.4751
  749MOL0     C 1029   2.066   5.758   9.958 -0.0422  0.3898 -0.0768
  749MOL0     N 1030   1.503   5.486   9.585  0.2001  0.2356  0.0141
  749MOL0     N 1031   1.539   5.368   9.538 -0.8833 -0.3705  0.3520
  749MOL0     C 1032   1.862   4.615   8.850  0.3891  1.2643 -0.2187
  749MOL0     C 1033   1.937   4.542   8.751  0.6567 -0.3939 -0.2409
  749MOL0     C 1034   2.235   4.334   8.503  0.3006 -0.3886 -1.0437
  749MOL0     C 1035   2.232   4.356   8.366 -0.3976 -0.1803  0.2483
  749MOL0     C 1036   2.261   4.259   8.273 -0.4589 -0.0679 -1.4850
  749MOL0     C 1037   2.295   4.137   8.315  0.3356  0.1837 -0.4465
  749MOL0     O 1038   2.312   4.022   8.242  0.8598 -0.0704 -0.4957
  749MOL0     C 1039   2.293   4.013   8.100 -0.0408 -0.1079  0.7468
  749MOL0     C 1040   2.349   3.878   8.051 -0.7565 -0.1283  0.9046
  749MOL0     C 1041   2.494   3.893   8.072  0.1576 -0.7519  0.2286
  749MOL0     C 1042   2.572   3.779   8.003  0.0498  0.0425 -0.7255
  749MOL0     C 1043   2.567   3.780   7.859 -0.3748 -0.1012  0.1898
  749MOL0     C 1044   2.542   3.787   7.743  0.3660 -0.8032 -0.0505
  749MOL0     C 1045   2.279   4.109   8.450  0.0226 -0.1450  0.1933
  749MOL0     C 1046   2.259   4.203   8.550 -0.0465 -0.1581 -0.3550
  749MOL0     C 1047   2.268   4.160   8.699 -0.2187 -0.0456 -0.0850
  749MOL0     H 1048   2.153   4.390   8.945  0.6997  0.5566 -0.0858
  749MOL0     H 1049   2.012   4.529   9.127 -2.3859  0.3578  0.5341
  749MOL0     H 1050   1.962   4.812   9.113  0.9699  0.8954 -1.0386
  749MOL0     H 1051   1.816   4.861   9.015  0.3674 -0.8317  0.2511
  749MOL0     H 1052   1.693   4.856   9.224  0.7281  0.6508 -1.5975
  749MOL0     H 1053   1.817   4.984   9.223 -3.5392  0.2699  0.4516
  749MOL0     H 1054   1.954   4.806   9.360  0.7235  6.1526  0.0065
  749MOL0     H 1055   1.819   4.700   9.375 -1.5685  0.5408  0.8812
  749MOL0     H 1056   1.873   4.889   9.569 -2.8022  0.2018  1.8003
  749MOL0     H 1057   1.813   4.999   9.446  3.0327 -0.3420 -2.6780
  749MOL0     H 1058   1.608   4.905   9.448  0.8025  0.8429 -0.6185
  749MOL0     H 1059   1.655   4.746   9.530  1.3347 -0.3269  0.9804
  749MOL0     H 1060   1.529   4.885   9.697 -0.0603  0.5962  2.4528
  749MOL0     H 1061   1.700   4.851   9.741 -0.4830 -1.8570 -1.4792
  749MOL0     H 1062   1.753   5.095   9.663 -1.2541 -1.7675 -4.6380
  749MOL0     H 1063   1.639   5.079   9.807 -1.9036  0.1842 -0.0057
  749MOL0     H 1064   1.560   5.121   9.511 -0.7734  2.2913 -0.9033
  749MOL0     H 1065   1.456   5.114   9.651 -0.0290  1.4098 -0.2000
  749MOL0     H 1066   1.558   5.293   9.847  0.4441  0.2443 -0.7546
  749MOL0     H 1067   1.381   5.644   9.768  0.9877 -1.0243 -1.0467
  749MOL0     H 1068   1.365   5.496   9.878  0.3394 -3.2532 -1.0044
  749MOL0     H 1069   1.479   5.723   9.931 -2.8354 -0.7982  1.8310
  749MOL0     H 1070   1.557   5.592  10.001 -0.2391  1.0878 -0.9303
  749MOL0     H 1071   1.704   5.757   9.883 -1.4159  1.0260 -0.8817
  749MOL0     H 1072   1.637   5.698   9.728 -0.9693  0.5832  0.1335
  749MOL0     H 1073   1.785   5.514   9.726  3.4832 -1.2357  0.1751
  749MOL0     H 1074   1.782   5.498   9.893  3.7072 -1.9380 -1.9965
  749MOL0     H 1075   1.947   5.449  10.001  2.9988 -1.9818  0.7615
  749MOL0     H 1076   2.071   5.469  10.199 -4.5568 -0.1413  2.1012
  749MOL0     H 1077   2.466   5.680  10.438  1.5942  0.8169  1.1784
  749MOL0     H 1078   2.555   5.710  10.683  1.2331  0.8627 -3.8676
  749MOL0     H 1079   2.515   5.840  10.882 -0.2292  0.4275  0.5322
  749MOL0     H 1080   2.495   5.806  11.039  2.2183  3.5666 -0.5433
  749MOL0     H 1081   2.640   5.578  10.977 -2.2106  0.5849  0.0254
  749MOL0     H 1082   2.714   5.697  10.871  0.6773 -2.9552  0.9514
  749MOL0     H 1083   2.767   5.839  11.064  4.4819 -0.8343  1.4450
  749MOL0     H 1084   2.717   5.706  11.175 -0.4393  2.1208  0.3606
  749MOL0     H 1085   2.939   5.691  10.981  2.5183 -1.7233  0.7673
  749MOL0     H 1086   2.849   5.551  11.041  1.4848  1.0532 -0.0037
  749MOL0     H 1087   3.054   5.620  11.149  2.1667  4.1066  0.8570
  749MOL0     H 1088   2.912   5.602  11.266  3.6825 -0.2062  0.8338
  749MOL0     H 1089   3.063   5.832  11.173  1.8828 -1.5832  0.2616
  749MOL0     H 1090   2.927   5.838  11.268  0.9425  1.7447 -1.9165
  749MOL0     H 1091   3.201   5.709  11.312  1.3991  3.5863  0.6987
  749MOL0     H 1092   3.080   5.672  11.432 -2.1780  0.3225 -1.4759
  749MOL0     H 1093   3.068   5.888  11.505  0.5841 -2.0999  2.3124
  749MOL0     H 1094   3.235   5.835  11.487  0.3537  0.7389 -1.2522
  749MOL0     H 1095   2.193   5.580  10.843  1.9471  1.0360  1.5339
  749MOL0     H 1096   2.090   5.539  10.609 -0.2256  0.1042  3.3629
  749MOL0     H 1097   2.223   5.852  10.075  0.1537  0.0012  0.6981
  749MOL0     H 1098   2.065   5.840   9.886 -1.1513  0.9268  0.5146
  749MOL0     H 1099   1.782   4.673   8.806 -0.4573  2.6009  2.7874
  749MOL0     H 1100   1.891   4.534   8.653 -4.1831  0.1837  1.7036
  749MOL0     H 1101   2.205   4.455   8.329  2.1421  0.3552 -0.3240
  749MOL0     H 1102   2.246   4.291   8.170  2.8018  6.0740 -0.5750
  749MOL0     H 1103   2.352   4.094   8.056  1.5173 -0.7939  1.5278
  749MOL0     H 1104   2.184   4.015   8.087 -0.5254 -0.4760  3.9520
  749MOL0     H 1105   2.335   3.855   7.944  3.6933 -0.4924  0.2270
  749MOL0     H 1106   2.298   3.798   8.103  0.5575 -0.4855  1.6818
  749MOL0     H 1107   2.519   3.894   8.178 -0.6965 -1.6819  0.4578
  749MOL0     H 1108   2.524   3.986   8.022  0.6298  0.4842  2.6740
  749MOL0     H 1109   2.678   3.784   8.027  0.6406 -1.5633 -2.6378
  749MOL0     H 1110   2.544   3.683   8.047  3.3374 -0.7478 -0.0685
  749MOL0     H 1111   2.523   3.802   7.638  1.3119  0.6762 -0.0431
  749MOL0     H 1112   2.289   4.004   8.473  2.0465  0.1973  1.1248
  749MOL0     H 1113   2.166   4.146   8.737 -1.2880  3.7265 -1.1624
  749MOL0     H 1114   2.327   4.068   8.713 -0.0952  0.3294  2.1989
  749MOL0     H 1115   2.320   4.236   8.758 -0.9149  0.4430 -0.0911
  750MOL0     O 1116   4.552   9.932   6.285  0.6801 -0.8790  0.2195
  750MOL0     C 1117   4.473  10.024   6.287 -0.2565 -0.2751  0.5743
  750MOL0     O 1118   4.486  10.148   6.347 -0.3262  1.0007 -0.0904
  750MOL0     C 1119   4.603  10.189   6.409 -0.2502 -0.1292  0.3633
  750MOL0     C 1120   4.616  10.336   6.416  0.3390  0.6917 -0.0878
  750MOL0     C 1121   4.709  10.395   6.495 -0.1308  0.1879  0.1593
  750MOL0     C 1122   4.818  10.317   6.548  1.2052 -0.3106  0.6871
  750MOL0     O 1123   4.925  10.379   6.622 -0.0416 -0.2559 -0.7820
  750MOL0     C 1124   5.060  10.335   6.602  0.0214 -0.8237 -0.1316
  750MOL0     C 1125   5.112  10.379   6.463 -0.0301  0.0691 -0.9819
  750MOL0     C 1126   5.102  10.537   6.438 -0.3909  0.6674  0.4382
  750MOL0     C 1127   5.088  10.557   6.288  1.0732 -0.3375  0.4976
  750MOL0     C 1128   5.127  10.694   6.251 -0.4745  0.2275  0.8778
  750MOL0     C 1129   5.276  10.719   6.253  0.4408 -0.0919 -0.6880
  750MOL0     C 1130   5.294  10.859   6.213 -0.3201 -0.4237  0.4176
  750MOL0     C 1131   5.440  10.890   6.188  0.1762 -0.3709 -0.0076
  750MOL0     N 1132   5.449  11.037   6.156 -0.1749  0.4849 -0.5434
  750MOL0     C 1133   5.461  11.133   6.255  0.2348  0.2760 -0.1126
  750MOL0     C 1134   5.490  11.243   6.174  0.6350 -0.6317 -1.0734
  750MOL0     C 1135   5.526  11.380   6.229  0.5348 -1.0057  0.5057
  750MOL0     C 1136   5.676  11.404   6.206  0.5383 -0.2510 -0.6270
  750MOL0     C 1137   5.734  11.456   6.329  0.9479 -0.4975  0.1388
  750MOL0     C 1138   5.702  11.602   6.371  0.6665  0.5044  0.0863
  750MOL0     O 1139   5.747  11.685   6.264 -0.3219  0.5383 -0.3857
  750MOL0     C 1140   5.700  11.811   6.252 -0.2849 -0.0572 -1.2927
  750MOL0     C 1141   5.677  11.866   6.131  0.0012  0.2591 -0.3369
  750MOL0     C 1142   5.626  11.998   6.115  0.4296 -0.4753  0.6877
  750MOL0     C 1143   5.595  12.075   6.228 -0.2734 -0.0631 -0.5852
  750MOL0     C 1144   5.527  12.210   6.211 -1.5621 -1.3281 -0.5884
  750MOL0     O 1145   5.512  12.251   6.085  0.1436 -0.5099  0.3640
  750MOL0     C 1146   5.431  12.365   6.059 -0.9735  0.1415 -0.1964
  750MOL0     C 1147   5.315  12.349   5.981 -0.4519  1.0646 -0.0689
  750MOL0     C 1148   5.233  12.455   5.955  0.2162  0.4792  0.2835
  750MOL0     C 1149   5.256  12.578   6.011 -0.6879 -1.6046  1.3577
  750MOL0     O 1150   5.191  12.695   5.962  0.1614  0.8572 -0.1834
  750MOL0     C 1151   5.048  12.682   5.975 -0.1944  0.9071 -0.2042
  750MOL0     C 1152   4.978  12.819   5.951 -0.2503  0.9515 -0.7757
  750MOL0     C 1153   4.884  12.818   5.832  0.2220  0.9168 -0.0860
  750MOL0     C 1154   4.934  12.790   5.691 -0.6821  0.5777  0.5783
  750MOL0     C 1155   4.849  12.853   5.576 -0.1738 -0.0767 -0.5023
  750MOL0     C 1156   4.695  12.815   5.562 -0.8696  0.1015  0.1364
  750MOL0     C 1157   4.701  12.662   5.519  1.4753  0.6698 -0.0072
  750MOL0     C 1158   4.565  12.602   5.515  0.2953  0.3970 -1.0754
  750MOL0    Cl 1159   4.457  12.684   5.400  0.2126  0.2561  0.1537
  750MOL0     C 1160   5.370  12.595   6.082 -1.2951  0.5830  0.7894
  750MOL0     C 1161   5.457  12.496   6.112  0.4226  0.4801 -0.1554
  750MOL0     O 1162   5.496  12.280   6.311 -0.2508  0.4154  0.6019
  750MOL0     C 1163   5.635  12.029   6.357 -0.0223 -0.1115  1.6512
  750MOL0     C 1164   5.685  11.897   6.362  0.0885 -0.3342  0.6398
  750MOL0     N 1165   5.490  11.207   6.038 -0.0564  0.4352  0.1742
  750MOL0     N 1166   5.486  11.086   6.039  0.2747 -0.4402  0.1445
  750MOL0     C 1167   4.814  10.179   6.532 -0.6580 -0.1038 -0.0601
  750MOL0     C 1168   4.711  10.120   6.462 -0.1242 -0.0272  0.6377
  750MOL0     C 1169   4.342  10.013   6.203  0.2285  0.9364  0.6116
  750MOL0     C 1170   4.322  10.100   6.102 -0.9328 -0.5351 -0.1654
  750MOL0     C 1171   4.219  10.078   6.018 -1.0207  1.0198 -0.0799
  750MOL0     C 1172   4.118   9.986   6.034  0.3638 -0.4756  0.4984
  750MOL0     O 1173   4.015   9.968   5.942  0.2958 -0.2556 -0.3103
  750MOL0     C 1174   3.921  10.082   5.936 -0.0526  0.7070  0.6874
  750MOL0     C 1175   3.801  10.064   6.031  1.0068 -0.2006 -0.7467
  750MOL0     C 1176   3.745   9.926   6.039  1.1772 -0.4896  0.2643
  750MOL0     C 1177   3.635   9.910   6.150 -0.1346  0.3619  0.7297
  750MOL0     C 1178   3.569   9.780   6.145 -0.0596 -0.0594  0.4089
  750MOL0     C 1179   3.506   9.668   6.153 -0.3663  0.4803  0.1137
  750MOL0     C 1180   4.137   9.900   6.141  0.1717 -0.2621 -0.0415
  750MOL0     C 1181   4.252   9.904   6.220 -0.5702 -0.1551  0.6652
  750MOL0     C 1182   4.266   9.790   6.323  0.3971  0.4489 -1.1159
  750MOL0     H 1183   4.539  10.391   6.364 -3.0931  0.4896  4.2622
  750MOL0     H 1184   4.712  10.501   6.516  1.3240  0.1663  0.1386
  750MOL0     H 1185   5.117  10.379   6.684  2.8773 -2.3621 -1.1321
  750MOL0     H 1186   5.059  10.226   6.617 -2.2452 -0.6561  1.4191
  750MOL0     H 1187   5.053  10.319   6.393  2.0427 -0.7153 -2.1328
  750MOL0     H 1188   5.214  10.345   6.447 -0.1564 -1.0654  0.4205
  750MOL0     H 1189   5.182  10.598   6.480 -0.9521  1.5217  0.2844
  750MOL0     H 1190   5.013  10.565   6.496  0.3661 -1.0837  2.5974
  750MOL0     H 1191   5.163  10.493   6.240 -1.6773 -0.7614 -3.7959
  750MOL0     H 1192   4.986  10.533   6.258  0.3040  2.0887  0.9630
  750MOL0     H 1193   5.115  10.718   6.145  1.7161  4.4466  1.3654
  750MOL0     H 1194   5.073  10.770   6.308 -0.0251  2.6217 -1.6938
  750MOL0     H 1195   5.325  10.701   6.349 -1.8478 -1.3910  0.3358
  750MOL0     H 1196   5.322  10.655   6.177 -1.3162 -1.9796 -0.2761
  750MOL0     H 1197   5.247  10.914   6.295 -2.0521 -0.1752 -0.6885
  750MOL0     H 1198   5.243  10.884   6.120  3.3879  0.6592 -1.4856
  750MOL0     H 1199   5.507  10.864   6.270  0.4975  0.4323 -0.0033
  750MOL0     H 1200   5.470  10.832   6.100  0.2851 -0.0180 -0.2022
  750MOL0     H 1201   5.458  11.128   6.363 -0.3677  2.0868 -0.0100
  750MOL0     H 1202   5.470  11.457   6.174 -0.8422  0.3621  3.5707
  750MOL0     H 1203   5.492  11.392   6.332  0.4029 -1.6087  0.5323
  750MOL0     H 1204   5.722  11.305   6.192  3.0070  0.6690  0.3469
  750MOL0     H 1205   5.694  11.476   6.126  2.8735 -0.3764 -0.2846
  750MOL0     H 1206   5.843  11.447   6.329  1.0519 -0.0152  2.7989
  750MOL0     H 1207   5.713  11.387   6.411  1.6118  0.3590  1.0576
  750MOL0     H 1208   5.761  11.633   6.458 -1.2544 -1.5807  2.2743
  750MOL0     H 1209   5.594  11.613   6.379 -0.0270  1.6192 -5.8035
  750MOL0     H 1210   5.696  11.813   6.038 -1.3155  1.2822 -1.2448
  750MOL0     H 1211   5.602  12.040   6.018 -2.6755  2.7946  2.5906
  750MOL0     H 1212   5.325  12.264   5.914  3.5235 -1.0360  2.7234
  750MOL0     H 1213   5.154  12.437   5.882  1.3972 -2.4236 -0.3954
  750MOL0     H 1214   5.005  12.603   5.914 -0.6002  0.4046  0.7089
  750MOL0     H 1215   5.021  12.652   6.077 -2.5284  1.3419 -0.6306
  750MOL0     H 1216   4.926  12.842   6.044 -2.7069  2.5494 -2.4601
  750MOL0     H 1217   5.056  12.894   5.938  4.2527 -1.9595  4.8851
  750MOL0     H 1218   4.811  12.737   5.839  2.2004 -1.0931 -1.5287
  750MOL0     H 1219   4.843  12.919   5.821 -2.6704 -0.4074 -3.2751
  750MOL0     H 1220   4.957  12.684   5.692 -1.7303  0.3471  1.9752
  750MOL0     H 1221   5.032  12.839   5.679 -0.3951  0.0319  0.6892
  750MOL0     H 1222   4.897  12.835   5.480  0.9420 -0.4165  0.1025
  750MOL0     H 1223   4.848  12.961   5.592 -0.0208 -0.1806  0.2523
  750MOL0     H 1224   4.653  12.820   5.662 -0.1636  1.3236  0.3909
  750MOL0     H 1225   4.641  12.879   5.491 -1.4396  1.8967  2.0941
  750MOL0     H 1226   4.773  12.597   5.571  1.0305 -1.0050 -1.4058
  750MOL0     H 1227   4.739  12.655   5.417  1.3957 -4.0962  0.0618
  750MOL0     H 1228   4.576  12.497   5.490 -0.2556 -0.6854  2.6037
  750MOL0     H 1229   4.522  12.597   5.616  2.8283 -1.2656  0.0110
  750MOL0     H 1230   5.404  12.692   6.116 -0.5263  0.0920  1.4604
  750MOL0     H 1231   5.544  12.505   6.176  2.9632  0.5489 -3.3700
  750MOL0     H 1232   5.621  12.086   6.449 -1.2531 -0.5625  1.7601
  750MOL0     H 1233   5.704  11.845   6.456  2.2886  0.1713  0.5296
  750MOL0     H 1234   4.898  10.114   6.557 -0.3001  0.6986  0.9284
  750MOL0     H 1235   4.706  10.013   6.450 -1.6816 -0.0499  1.2051
  750MOL0     H 1236   4.383  10.189   6.086 -0.0660 -0.4594  2.9796
  750MOL0     H 1237   4.216  10.146   5.933  1.8973  1.7913  0.3345
  750MOL0     H 1238   3.879  10.085   5.836 -2.3183  0.4750  1.5723
  750MOL0     H 1239   3.974  10.177   5.951  2.4727 -0.6160  0.7707
  750MOL0     H 1240   3.715  10.123   5.997 -0.9136 -0.9585  2.4403
  750MOL0     H 1241   3.829  10.102   6.129  0.6549  2.0251 -1.4427
  750MOL0     H 1242   3.818   9.846   6.055  0.0439 -2.2013 -2.4885
  750MOL0     H 1243   3.693   9.913   5.944  0.8008 -0.5965  0.4864
  750MOL0     H 1244   3.673   9.940   6.248  0.9483  1.1299  0.1028
  750MOL0     H 1245   3.555   9.979   6.122  1.5314  3.3159  2.6994
  750MOL0     H 1246   3.459   9.573   6.135  0.1109  0.2588 -0.0021
  750MOL0     H 1247   4.069   9.816   6.151 -0.0845 -0.2712 -1.5471
  750MOL0     H 1248   4.352   9.794   6.389 -0.2449  1.0839 -0.2969
  750MOL0     H 1249   4.185   9.790   6.397  2.1835 -2.1966  1.0217
  750MOL0     H 1250   4.248   9.696   6.270 -4.6103  1.1805 -1.2753
  751MOL0     O 1251   4.410   9.682   3.654 -0.3723 -0.0056  0.3082
  751MOL0     C 1252   4.514   9.724   3.700 -0.7557  0.1980  0.7355
  751MOL0     O 1253   4.581   9.843   3.656  1.0145  0.3354  0.7363
  751MOL0     C 1254   4.524   9.920   3.551 -0.6730  0.7483 -0.2665
  751MOL0     C 1255   4.608   9.957   3.445 -0.0660  0.6241 -0.2685
  751MOL0     C 1256   4.566  10.022   3.329  0.0944 -1.1158 -1.3705
  751MOL0     C 1257   4.429  10.065   3.327  0.2874 -0.6406 -0.7831
  751MOL0     O 1258   4.398  10.108   3.209  0.4127  0.1753 -0.0903
  751MOL0     C 1259   4.312  10.227   3.210 -0.2009  1.6204  0.5829
  751MOL0     C 1260   4.263  10.270   3.075  0.1105  0.6597  1.2044
  751MOL0     C 1261   4.335  10.392   3.017  0.5449 -0.4530 -0.6913
  751MOL0     C 1262   4.257  10.434   2.888 -0.1189 -0.3998  0.3970
  751MOL0     C 1263   4.341  10.534   2.814  0.1819 -0.0609  0.5752
  751MOL0     C 1264   4.345  10.667   2.890 -0.2104  0.0087 -0.7552
  751MOL0     C 1265   4.218  10.748   2.884 -0.1160 -0.0337 -0.4500
  751MOL0     C 1266   4.223  10.908   2.870  0.5846  0.3381  0.5944
  751MOL0     N 1267   4.302  10.958   2.988  0.0300 -0.6596  0.1014
  751MOL0     C 1268   4.254  10.981   3.121  0.5372  0.7649 -0.2116
  751MOL0     C 1269   4.368  11.023   3.188  0.7712  0.9198  0.3002
  751MOL0     C 1270   4.365  11.066   3.323  0.5727 -0.2196 -0.9028
  751MOL0     C 1271   4.454  10.992   3.418  0.7568  0.2473 -0.3348
  751MOL0     C 1272   4.459  10.849   3.380  0.5207 -0.5010 -0.8080
  751MOL0     C 1273   4.543  10.774   3.497 -0.9342  0.2462 -0.5019
  751MOL0     O 1274   4.569  10.641   3.449 -0.4345  0.7029  0.6728
  751MOL0     C 1275   4.603  10.543   3.545  0.1851 -1.5065 -0.4080
  751MOL0     C 1276   4.608  10.417   3.496  0.2248  0.5637  0.4500
  751MOL0     C 1277   4.626  10.303   3.583 -0.8007 -0.5719  0.6036
  751MOL0     C 1278   4.666  10.326   3.717 -0.6336 -0.1846 -0.1810
  751MOL0     C 1279   4.702  10.216   3.820  0.2637  0.7075  1.1016
  751MOL0     O 1280   4.723  10.253   3.946 -0.5544 -0.0550  0.1660
  751MOL0     C 1281   4.731  10.154   4.039 -0.3190  0.9025 -0.0304
  751MOL0     C 1282   4.659  10.029   4.039  0.6772  0.3554  0.8795
  751MOL0     C 1283   4.686   9.938   4.144 -0.4971 -0.2669  0.2385
  751MOL0     C 1284   4.776   9.954   4.245  0.2655  0.3989  0.4676
  751MOL0     O 1285   4.775   9.872   4.359  0.4984 -0.0002 -0.2847
  751MOL0     C 1286   4.894   9.875   4.442  0.6391 -0.4099 -0.4027
  751MOL0     C 1287   4.914   9.743   4.520 -0.8941  0.3320  0.2058
  751MOL0     C 1288   4.834   9.727   4.649 -0.2481 -0.0840  0.9526
  751MOL0     C 1289   4.836   9.858   4.735 -0.2416 -0.1824  0.6514
  751MOL0     C 1290   4.810   9.827   4.882  0.5055 -0.1129  0.1394
  751MOL0     C 1291   4.815   9.951   4.963  0.1307 -0.2525  0.2486
  751MOL0     C 1292   4.750   9.926   5.096 -0.3569  0.4774  0.5432
  751MOL0     C 1293   4.843   9.870   5.207 -0.4426 -0.0221 -0.5246
  751MOL0    Cl 1294   5.006   9.938   5.227  0.2375 -0.7090  0.2644
  751MOL0     C 1295   4.868  10.068   4.228  0.2515  0.5288  0.5151
  751MOL0     C 1296   4.842  10.159   4.130  0.5487  0.7389  0.1017
  751MOL0     O 1297   4.719  10.109   3.769  0.1545  0.3108 -0.1726
  751MOL0     C 1298   4.672  10.459   3.759 -0.5238  0.7044 -0.5406
  751MOL0     C 1299   4.624  10.570   3.682  0.0055 -0.0186  0.5622
  751MOL0     N 1300   4.461  11.047   3.095  0.5953  0.4084 -0.5272
  751MOL0     N 1301   4.422  11.007   2.978 -0.3204 -0.5131  0.0105
  751MOL0     C 1302   4.337  10.017   3.421  0.6824 -1.2629  0.0717
  751MOL0     C 1303   4.384   9.948   3.536  0.0476 -0.1780  0.6487
  751MOL0     C 1304   4.575   9.632   3.796 -0.2344  0.1668 -0.1556
  751MOL0     C 1305   4.670   9.689   3.880  0.2104 -0.6120 -0.8247
  751MOL0     C 1306   4.715   9.621   3.983 -0.0984 -0.4012 -0.9269
  751MOL0     C 1307   4.708   9.484   3.995  0.3108 -0.1988  0.4266
  751MOL0     O 1308   4.789   9.404   4.078 -0.4808  0.3709 -0.3628
  751MOL0     C 1309   4.711   9.319   4.170  0.9072 -0.0952  0.1873
  751MOL0     C 1310   4.692   9.385   4.304 -0.7116 -0.6227 -0.9771
  751MOL0     C 1311   4.582   9.489   4.317  0.7424  1.3299 -0.3078
  751MOL0     C 1312   4.548   9.522   4.460 -0.1076 -0.7126 -0.9057
  751MOL0     C 1313   4.465   9.641   4.476  0.3469 -0.4217 -0.7298
  751MOL0     C 1314   4.413   9.757   4.480  0.0681 -0.6714  0.9689
  751MOL0     C 1315   4.617   9.423   3.901  0.7708  0.1227 -0.0218
  751MOL0     C 1316   4.548   9.490   3.808 -0.5432 -0.3694  0.0507
  751MOL0     C 1317   4.462   9.419   3.706 -0.1453  0.3809  0.1227
  751MOL0     H 1318   4.708   9.918   3.459  0.3758  0.3259 -3.4905
  751MOL0     H 1319   4.633  10.037   3.245 -0.0978 -2.2175 -1.7264
  751MOL0     H 1320   4.222  10.193   3.262 -0.6580 -2.2917 -2.3372
  751MOL0     H 1321   4.355  10.309   3.268 -0.3160  0.9931  1.5726
  751MOL0     H 1322   4.162  10.295   3.108  0.1843  0.2256  1.7801
  751MOL0     H 1323   4.266  10.189   3.002 -0.0522  1.6705  0.0313
  751MOL0     H 1324   4.443  10.382   3.007  0.6379 -0.9434  0.5768
  751MOL0     H 1325   4.319  10.476   3.086 -1.0604 -0.5721 -0.8851
  751MOL0     H 1326   4.249  10.351   2.816  1.0963  2.2295 -3.0459
  751MOL0     H 1327   4.158  10.473   2.912 -1.1177 -1.5192 -1.6243
  751MOL0     H 1328   4.442  10.499   2.791  1.2032  1.5022  2.4500
  751MOL0     H 1329   4.297  10.545   2.714  1.4807  2.5866  0.2103
  751MOL0     H 1330   4.371  10.653   2.995 -0.3828 -0.1147 -0.7287
  751MOL0     H 1331   4.428  10.721   2.842 -0.1430  1.9610  1.3632
  751MOL0     H 1332   4.174  10.726   2.982  1.1416 -1.4104 -0.1533
  751MOL0     H 1333   4.151  10.704   2.809 -0.3348 -2.4466  1.0237
  751MOL0     H 1334   4.275  10.944   2.781  0.5136  3.4414  1.6911
  751MOL0     H 1335   4.123  10.951   2.864  0.6925  0.4308 -1.0089
  751MOL0     H 1336   4.154  10.975   3.165  1.1450  0.0807  1.1394
  751MOL0     H 1337   4.391  11.172   3.319 -0.5061  0.2133  1.5507
  751MOL0     H 1338   4.264  11.060   3.366  2.5281 -1.6992  4.2060
  751MOL0     H 1339   4.556  11.030   3.433  0.8694 -0.5697  1.1206
  751MOL0     H 1340   4.403  11.004   3.513 -0.1598  0.9569 -0.9010
  751MOL0     H 1341   4.515  10.811   3.294  0.9339 -3.1322  0.5068
  751MOL0     H 1342   4.361  10.801   3.373 -1.0972  2.3405  0.4751
  751MOL0     H 1343   4.500  10.781   3.597 -1.6506  0.2700 -0.8040
  751MOL0     H 1344   4.641  10.821   3.495 -0.1374 -1.3841 -1.8493
  751MOL0     H 1345   4.601  10.392   3.390  1.1608 -1.0415  0.7267
  751MOL0     H 1346   4.623  10.203   3.541 -0.7332 -0.3909  0.1562
  751MOL0     H 1347   4.585  10.008   3.962 -0.0122  0.4132  1.5143
  751MOL0     H 1348   4.639   9.841   4.145  1.4442 -1.2624  1.8802
  751MOL0     H 1349   4.988   9.886   4.388  1.1015  0.5974  0.5691
  751MOL0     H 1350   4.873   9.964   4.502 -2.5867 -0.0052 -1.9309
  751MOL0     H 1351   4.880   9.676   4.441 -0.7501  0.3065  0.1639
  751MOL0     H 1352   5.022   9.740   4.541 -1.2711  1.4948  2.6334
  751MOL0     H 1353   4.733   9.698   4.620  0.1483 -0.0843 -0.5085
  751MOL0     H 1354   4.871   9.640   4.705 -0.2865 -1.5011 -1.1120
  751MOL0     H 1355   4.762   9.930   4.700 -1.0846 -1.4224 -0.1808
  751MOL0     H 1356   4.935   9.903   4.723  0.9904 -3.1538 -1.7042
  751MOL0     H 1357   4.874   9.743   4.912 -0.9354 -2.2906 -2.5448
  751MOL0     H 1358   4.711   9.783   4.887  0.2423 -0.0484 -2.8618
  751MOL0     H 1359   4.918   9.985   4.975 -0.1874  0.1008  2.2680
  751MOL0     H 1360   4.750  10.028   4.922 -2.0977 -2.2924 -0.2810
  751MOL0     H 1361   4.657   9.870   5.083  1.0880 -1.6659 -1.4533
  751MOL0     H 1362   4.727  10.025   5.136  1.8444  0.8386  1.0507
  751MOL0     H 1363   4.787   9.875   5.301  0.0601  2.8269 -0.2724
  751MOL0     H 1364   4.862   9.764   5.191 -0.6297 -0.4429  1.6912
  751MOL0     H 1365   4.945  10.080   4.304 -0.9452 -1.6760  2.2109
  751MOL0     H 1366   4.903  10.248   4.137  0.2226  0.9769 -0.0419
  751MOL0     H 1367   4.710  10.472   3.859 -1.2534  0.1826 -0.1814
  751MOL0     H 1368   4.623  10.671   3.722  3.7233 -0.6513  2.7738
  751MOL0     H 1369   4.233  10.043   3.405  0.7975 -1.3988 -0.9960
  751MOL0     H 1370   4.313   9.909   3.607  1.9452 -3.0234  1.1563
  751MOL0     H 1371   4.695   9.793   3.866 -0.6325 -0.1454  0.8382
  751MOL0     H 1372   4.783   9.662   4.057 -2.4024  1.3583  0.3442
  751MOL0     H 1373   4.762   9.222   4.169  0.5415 -0.3685 -2.9811
  751MOL0     H 1374   4.616   9.293   4.124  1.6084 -1.5805 -0.5084
  751MOL0     H 1375   4.791   9.424   4.328 -1.0852 -0.6078  0.6165
  751MOL0     H 1376   4.675   9.303   4.374 -3.6932 -1.6199 -2.6734
  751MOL0     H 1377   4.492   9.448   4.272  0.2220  1.6305  0.4425
  751MOL0     H 1378   4.606   9.588   4.277  1.4196  0.6797 -1.5816
  751MOL0     H 1379   4.487   9.442   4.503  0.4849 -0.5439  0.2629
  751MOL0     H 1380   4.629   9.538   4.531  0.3250 -4.2445 -0.4423
  751MOL0     H 1381   4.366   9.853   4.468 -0.1277 -0.3096  3.9281
  751MOL0     H 1382   4.604   9.315   3.905 -0.9850  0.3552  1.4791
  751MOL0     H 1383   4.357   9.450   3.710 -0.6046 -0.8448 -1.5003
  751MOL0     H 1384   4.516   9.451   3.617  0.1159 -0.4330 -0.0217
  751MOL0     H 1385   4.465   9.310   3.702 -2.1783  0.2242  1.4151
  752MOL0     O 1386   4.908   4.351   1.653 -0.3117 -0.0597  0.3621
  752MOL0     C 1387   4.880   4.469   1.662  0.1312 -0.0008 -0.1011
  752MOL0     O 1388   4.972   4.559   1.711  0.1060 -0.0612  0.6219
  752MOL0     C 1389   5.106   4.526   1.726 -0.0628  0.5714 -0.7259
  752MOL0     C 1390   5.203   4.528   1.623 -0.7461  0.4330 -0.2198
  752MOL0     C 1391   5.327   4.460   1.629  0.9496  0.5102 -0.6316
  752MOL0     C 1392   5.358   4.398   1.746  0.5459 -0.0130 -0.0371
  752MOL0     O 1393   5.485   4.342   1.757 -0.3803  0.5846 -0.4192
  752MOL0     C 1394   5.540   4.329   1.889 -1.3731  0.4427  0.0765
  752MOL0     C 1395   5.700   4.317   1.883 -1.0400  0.7467 -0.8113
  752MOL0     C 1396   5.755   4.207   1.989 -0.0244 -0.7783 -0.1526
  752MOL0     C 1397   5.764   4.264   2.137  1.1169  0.2535 -0.0940
  752MOL0     C 1398   5.882   4.370   2.152  0.2625  0.2208 -0.5685
  752MOL0     C 1399   6.016   4.329   2.102 -0.2642  0.3452 -0.1263
  752MOL0     C 1400   6.110   4.443   2.118  0.1421  0.0413 -0.7691
  752MOL0     C 1401   6.251   4.410   2.063 -0.3168  0.9013  0.0184
  752MOL0     N 1402   6.323   4.535   2.038 -0.8157 -0.0798 -0.0358
  752MOL0     C 1403   6.358   4.629   2.131 -0.3529 -0.8263 -0.8274
  752MOL0     C 1404   6.437   4.716   2.059 -0.3395 -0.0931  0.3893
  752MOL0     C 1405   6.504   4.835   2.129 -0.6192 -0.1865 -0.0847
  752MOL0     C 1406   6.420   4.962   2.145 -0.0260  0.5974 -0.2572
  752MOL0     C 1407   6.364   4.988   2.285 -0.0366 -0.4332 -0.2694
  752MOL0     C 1408   6.254   5.104   2.285 -0.3353  0.5612 -0.0393
  752MOL0     O 1409   6.290   5.222   2.212  0.1872 -0.0501  0.3423
  752MOL0     C 1410   6.394   5.304   2.239 -0.1776 -0.1971  0.2276
  752MOL0     C 1411   6.400   5.429   2.169 -0.1089  0.0493 -0.8108
  752MOL0     C 1412   6.497   5.523   2.210  0.2442  0.2123  0.2796
  752MOL0     C 1413   6.615   5.489   2.281  0.4828 -0.2395  0.2129
  752MOL0     C 1414   6.725   5.584   2.293  0.5102  0.6033 -0.0017
  752MOL0     O 1415   6.741   5.675   2.194  0.1482 -0.1141  0.2323
  752MOL0     C 1416   6.860   5.708   2.147  0.0963  0.0229  0.0062
  752MOL0     C 1417   6.956   5.609   2.123 -0.3699  1.1429 -0.0538
  752MOL0     C 1418   7.081   5.640   2.077 -0.6474 -0.5179 -0.3501
  752MOL0     C 1419   7.119   5.771   2.054 -0.4843 -0.0612 -0.7704
  752MOL0     O 1420   7.244   5.796   2.004 -0.0355  0.0769  0.6223
  752MOL0     C 1421   7.294   5.930   1.993  1.4111  1.0237  0.0676
  752MOL0     C 1422   7.432   5.927   1.976 -0.0929  0.2625  0.5953
  752MOL0     C 1423   7.494   6.060   1.966  0.1082 -0.4780 -0.3707
  752MOL0     C 1424   7.642   6.070   1.996 -0.1111 -1.6245 -0.4664
  752MOL0     C 1425   7.670   6.225   2.007 -0.3549  0.6787  1.1224
  752MOL0     C 1426   7.651   6.281   2.153 -0.9519  0.0006 -1.1424
  752MOL0     C 1427   7.675   6.427   2.137  1.3528 -0.3546  0.6598
  752MOL0     C 1428   7.817   6.479   2.177  0.1852 -0.4328 -0.4286
  752MOL0    Cl 1429   7.839   6.650   2.151  0.1330  0.0358  0.6082
  752MOL0     C 1430   7.026   5.879   2.078 -0.1656  0.0996  0.7603
  752MOL0     C 1431   6.896   5.841   2.123  0.0941 -1.0016 -0.2536
  752MOL0     O 1432   6.813   5.550   2.370  0.1696  0.8152 -0.0506
  752MOL0     C 1433   6.606   5.377   2.363  0.0447 -0.8577  0.7097
  752MOL0     C 1434   6.491   5.294   2.347 -0.2944 -0.6822 -0.0011
  752MOL0     N 1435   6.440   4.693   1.932  0.3524  0.3577  0.6700
  752MOL0     N 1436   6.384   4.569   1.918 -0.5753 -0.1086 -0.4050
  752MOL0     C 1437   5.261   4.391   1.848 -0.3397  0.1592  0.1742
  752MOL0     C 1438   5.136   4.446   1.836 -0.2565 -0.8160  0.1830
  752MOL0     C 1439   4.738   4.510   1.642  0.2974  0.0548 -0.5175
  752MOL0     C 1440   4.710   4.645   1.660 -0.6795 -0.4108 -0.1500
  752MOL0     C 1441   4.589   4.697   1.623 -0.3636 -0.2876  0.0654
  752MOL0     C 1442   4.488   4.613   1.573  1.2168 -0.3497 -0.4139
  752MOL0     O 1443   4.359   4.660   1.551 -0.9607 -0.6617 -0.2123
  752MOL0     C 1444   4.304   4.745   1.651 -1.1563  0.4447  0.2463
  752MOL0     C 1445   4.309   4.891   1.621 -0.7341  0.5161  0.6712
  752MOL0     C 1446   4.260   4.932   1.479  1.2595 -0.6791 -0.9073
  752MOL0     C 1447   4.101   4.954   1.460 -0.5061  0.0708 -0.6195
  752MOL0     C 1448   4.069   5.001   1.322 -0.4019  0.0163 -0.5290
  752MOL0     C 1449   4.031   5.049   1.216  0.0683  0.3821  0.7096
  752MOL0     C 1450   4.515   4.481   1.555  0.0620  0.3425 -0.7862
  752MOL0     C 1451   4.636   4.419   1.591  0.4136 -1.3950 -0.5208
  752MOL0     C 1452   4.637   4.270   1.575  0.0306 -0.2404  0.5935
  752MOL0     H 1453   5.183   4.583   1.531  0.8872 -0.6019 -1.2358
  752MOL0     H 1454   5.395   4.467   1.544  0.2004  0.7380 -1.2222
  752MOL0     H 1455   5.511   4.420   1.943 -3.2178 -0.7676  1.2671
  752MOL0     H 1456   5.497   4.252   1.955 -2.8874  3.1877  2.5321
  752MOL0     H 1457   5.747   4.416   1.892  1.9618 -0.2265 -3.7821
  752MOL0     H 1458   5.724   4.279   1.783  0.6587 -0.5676  0.0446
  752MOL0     H 1459   5.846   4.157   1.956  0.7395  0.2780  0.3149
  752MOL0     H 1460   5.672   4.135   1.995 -0.0187 -0.7288  5.2813
  752MOL0     H 1461   5.668   4.307   2.169 -0.3214 -2.5323 -0.3170
  752MOL0     H 1462   5.784   4.178   2.201  0.9148 -0.9885 -1.6277
  752MOL0     H 1463   5.843   4.450   2.089 -1.3032  0.1558  0.2640
  752MOL0     H 1464   5.884   4.412   2.253  1.5307  0.7117 -0.7805
  752MOL0     H 1465   6.048   4.239   2.154 -2.8551 -1.4167 -1.3496
  752MOL0     H 1466   5.999   4.302   1.997 -4.9400 -2.5407  1.0547
  752MOL0     H 1467   6.128   4.474   2.221  1.4640 -1.5537 -0.4787
  752MOL0     H 1468   6.077   4.520   2.047 -2.6635 -2.5270 -2.4963
  752MOL0     H 1469   6.305   4.363   2.146 -0.2772 -0.2009 -0.6061
  752MOL0     H 1470   6.244   4.345   1.975  1.3969 -3.0822  2.5465
  752MOL0     H 1471   6.334   4.634   2.236 -2.1333 -0.3095 -1.2176
  752MOL0     H 1472   6.518   4.799   2.232 -1.7458  1.1926  0.5856
  752MOL0     H 1473   6.600   4.867   2.086  0.5260 -2.1769  0.8091
  752MOL0     H 1474   6.469   5.046   2.096 -1.3951  1.5824  0.0123
  752MOL0     H 1475   6.334   4.942   2.080  1.2466 -1.6181 -1.3918
  752MOL0     H 1476   6.444   5.025   2.350 -1.7210  1.9850  0.5736
  752MOL0     H 1477   6.336   4.897   2.340 -0.8546  1.0559  1.9020
  752MOL0     H 1478   6.241   5.131   2.390 -0.4431 -3.2468  1.0848
  752MOL0     H 1479   6.165   5.066   2.235  0.8391 -1.1516 -0.9281
  752MOL0     H 1480   6.327   5.441   2.090 -1.0991 -0.3756  0.0097
  752MOL0     H 1481   6.480   5.624   2.175 -0.8871  0.0032  0.1949
  752MOL0     H 1482   6.948   5.505   2.153  1.1781  0.3429 -2.2159
  752MOL0     H 1483   7.162   5.570   2.058 -1.6729 -1.1391 -2.8171
  752MOL0     H 1484   7.249   5.997   1.919 -0.1103 -0.2159 -0.1815
  752MOL0     H 1485   7.282   5.968   2.096  2.0222  0.7474  0.2445
  752MOL0     H 1486   7.471   5.857   2.050 -0.0677 -1.4876 -0.9854
  752MOL0     H 1487   7.445   5.881   1.877  0.3097  1.5252  0.0338
  752MOL0     H 1488   7.473   6.124   1.880 -1.9978  0.1275  0.5265
  752MOL0     H 1489   7.433   6.118   2.036 -1.3328 -2.3184 -0.0459
  752MOL0     H 1490   7.720   6.032   1.930  3.1840  3.5767 -0.0878
  752MOL0     H 1491   7.665   6.026   2.093  1.8866  0.5596  0.1553
  752MOL0     H 1492   7.608   6.278   1.933 -3.0856 -2.0980  1.2051
  752MOL0     H 1493   7.778   6.234   1.993 -0.3361  1.2136  1.5623
  752MOL0     H 1494   7.555   6.254   2.197 -0.3506  1.9781  1.6111
  752MOL0     H 1495   7.729   6.247   2.221 -0.8019  0.3691 -1.1285
  752MOL0     H 1496   7.600   6.480   2.196  3.1387  2.0860  0.8630
  752MOL0     H 1497   7.656   6.452   2.032 -0.6248 -0.3248  1.0005
  752MOL0     H 1498   7.839   6.445   2.279 -3.2194 -2.7282 -0.2893
  752MOL0     H 1499   7.887   6.423   2.114 -0.0684  0.4486 -1.5281
  752MOL0     H 1500   7.050   5.980   2.049  2.1322 -0.4469  0.5654
  752MOL0     H 1501   6.822   5.919   2.136  1.1679  0.4647 -2.3134
  752MOL0     H 1502   6.675   5.370   2.447 -0.8962  0.4778  1.6107
  752MOL0     H 1503   6.474   5.218   2.422  1.5856 -0.9607  0.1948
  752MOL0     H 1504   5.270   4.326   1.934 -2.4063  0.4398  0.6426
  752MOL0     H 1505   5.063   4.447   1.916 -1.6085  0.8613 -0.9951
  752MOL0     H 1506   4.788   4.713   1.692 -1.5820 -0.1357  1.6629
  752MOL0     H 1507   4.573   4.802   1.645  0.5493 -0.2955  0.7980
  752MOL0     H 1508   4.353   4.722   1.746  0.2007 -0.8674 -0.7099
  752MOL0     H 1509   4.198   4.718   1.658 -0.6480 -2.7750 -2.0411
  752MOL0     H 1510   4.413   4.923   1.629 -0.3121 -0.5098 -0.4226
  752MOL0     H 1511   4.253   4.943   1.699 -0.8066 -1.4010  1.9467
  752MOL0     H 1512   4.290   4.862   1.401  1.8194 -0.0109 -1.2949
  752MOL0     H 1513   4.301   5.027   1.445  0.7115 -0.6946 -1.6285
  752MOL0     H 1514   4.041   4.863   1.472 -0.2118 -0.5453 -3.2183
  752MOL0     H 1515   4.063   5.028   1.531  3.1145 -0.5367  2.2746
  752MOL0     H 1516   4.000   5.104   1.130  1.0384  1.2643  0.9075
  752MOL0     H 1517   4.429   4.429   1.516 -0.2279 -1.1093  1.5592
  752MOL0     H 1518   4.729   4.230   1.534 -0.3175 -3.0098  2.2685
  752MOL0     H 1519   4.624   4.228   1.676 -0.2291 -2.3279 -0.2646
  752MOL0     H 1520   4.566   4.233   1.501  1.0658 -2.6250  0.6920
  753MOL0     O 1521  10.970  11.273   4.808  0.2990  0.2894  0.5239
  753MOL0     C 1522  10.968  11.155   4.778 -0.3183  0.1003 -0.1443
  753MOL0     O 1523  10.857  11.070   4.786  0.1971  0.9459 -0.1856
  753MOL0     C 1524  10.738  11.106   4.840  0.8177  0.9308 -0.9794
  753MOL0     C 1525  10.670  11.230   4.833 -1.2069 -1.0837  0.7650
  753MOL0     C 1526  10.555  11.245   4.906 -0.9661  0.3417  0.5595
  753MOL0     C 1527  10.499  11.156   4.991 -0.0398  1.9043 -0.2682
  753MOL0     O 1528  10.393  11.174   5.076  0.6537  0.0326 -0.1366
  753MOL0     C 1529  10.295  11.266   5.018  0.8598 -0.6175  0.3181
  753MOL0     C 1530  10.162  11.215   5.075  0.1740 -0.5782  0.0647
  753MOL0     C 1531  10.032  11.303   5.049  0.1959  0.0278 -0.2196
  753MOL0     C 1532   9.949  11.265   4.925  0.2794  0.5447 -0.0378
  753MOL0     C 1533   9.883  11.382   4.870 -0.2850  0.2553  0.4491
  753MOL0     C 1534   9.772  11.456   4.952 -0.4338  0.5323 -0.2968
  753MOL0     C 1535   9.731  11.587   4.893 -0.2762 -1.0302 -0.3032
  753MOL0     C 1536   9.636  11.660   5.001  0.0964  0.2725 -0.7534
  753MOL0     N 1537   9.571  11.783   4.952  0.1419  0.6371  0.0386
  753MOL0     C 1538   9.634  11.895   4.926  0.4255 -0.1833  0.1216
  753MOL0     C 1539   9.528  11.981   4.896 -0.1878 -0.5942  0.9812
  753MOL0     C 1540   9.573  12.112   4.846 -0.1453 -0.8330  0.0638
  753MOL0     C 1541   9.471  12.209   4.898  1.1183  0.0747 -0.4092
  753MOL0     C 1542   9.507  12.354   4.859 -0.3404  0.2976 -0.0980
  753MOL0     C 1543   9.428  12.466   4.925  0.8545  0.3278 -0.2091
  753MOL0     O 1544   9.495  12.589   4.900 -0.0493 -0.5684  0.1272
  753MOL0     C 1545   9.505  12.627   4.765 -0.5998 -0.5729 -0.8892
  753MOL0     C 1546   9.392  12.623   4.695 -0.7898  0.2909  0.0491
  753MOL0     C 1547   9.390  12.662   4.556  0.6045  0.2454 -0.5914
  753MOL0     C 1548   9.506  12.702   4.488 -0.0394 -0.0597  0.2913
  753MOL0     C 1549   9.498  12.734   4.353  0.2405 -0.0310 -0.1457
  753MOL0     O 1550   9.378  12.744   4.296 -0.2724  0.4473  0.0820
  753MOL0     C 1551   9.381  12.814   4.177  0.0199  0.0064  1.3699
  753MOL0     C 1552   9.423  12.752   4.056  0.4733  0.2897 -0.6651
  753MOL0     C 1553   9.443  12.835   3.936  0.4638  0.4842  0.1639
  753MOL0     C 1554   9.402  12.972   3.933  0.5258 -0.0352  0.1450
  753MOL0     O 1555   9.415  13.060   3.831  0.8263  0.4120  0.1257
  753MOL0     C 1556   9.478  13.027   3.711  0.6193 -0.2770  1.2542
  753MOL0     C 1557   9.505  13.169   3.640  0.0678  0.5337  0.3859
  753MOL0     C 1558   9.630  13.244   3.700 -0.7421 -0.0839  0.1873
  753MOL0     C 1559   9.662  13.375   3.629  0.4479 -0.9170 -0.2644
  753MOL0     C 1560   9.610  13.505   3.701 -0.7815  0.2670  0.9502
  753MOL0     C 1561   9.658  13.636   3.644  0.2193  0.8010  0.2068
  753MOL0     C 1562   9.609  13.754   3.734  0.1000 -1.1314  0.4435
  753MOL0     C 1563   9.689  13.877   3.721 -1.1786 -0.8032 -0.4967
  753MOL0    Cl 1564   9.692  13.942   3.555 -0.0284 -0.1988  0.0076
  753MOL0     C 1565   9.359  13.024   4.054  0.1312  0.0118  0.6509
  753MOL0     C 1566   9.354  12.949   4.176  0.8229 -0.6428 -0.2251
  753MOL0     O 1567   9.607  12.759   4.296  0.0316  0.4615 -0.2082
  753MOL0     C 1568   9.628  12.698   4.574  0.5127  0.4702 -0.3304
  753MOL0     C 1569   9.624  12.672   4.710 -0.0085 -0.1103 -0.1208
  753MOL0     N 1570   9.407  11.917   4.913  0.0168  0.0851 -0.7838
  753MOL0     N 1571   9.440  11.801   4.949 -0.0519 -0.5112 -0.6614
  753MOL0     C 1572  10.569  11.034   5.014  0.6938 -0.4020 -0.5397
  753MOL0     C 1573  10.681  11.011   4.936 -0.5738 -0.6341 -1.1051
  753MOL0     C 1574  11.087  11.104   4.697 -1.0418 -0.4374  0.1754
  753MOL0     C 1575  11.061  10.999   4.601  0.3918 -0.0342 -0.1923
  753MOL0     C 1576  11.166  10.961   4.507  1.3683  1.2386  0.7963
  753MOL0     C 1577  11.295  11.018   4.507 -0.6391 -0.3558 -0.0277
  753MOL0     O 1578  11.393  10.980   4.416 -0.5782  0.3093 -0.3623
  753MOL0     C 1579  11.517  11.044   4.416  0.2714 -0.5611  0.7920
  753MOL0     C 1580  11.625  10.975   4.331 -0.0474 -0.0147 -0.7729
  753MOL0     C 1581  11.665  10.839   4.381  0.2151 -0.2887  0.2705
  753MOL0     C 1582  11.733  10.757   4.268 -0.2411  0.4337  0.7001
  753MOL0     C 1583  11.645  10.725   4.155 -0.1809 -0.4227  0.0783
  753MOL0     C 1584  11.576  10.701   4.057 -0.2138  0.2090 -0.2914
  753MOL0     C 1585  11.319  11.116   4.610  0.0193 -0.0587 -0.1799
  753MOL0     C 1586  11.223  11.159   4.705 -0.8819  0.4734  0.7502
  753MOL0     C 1587  11.272  11.272   4.794  0.1673  0.3524 -0.4589
  753MOL0     H 1588  10.704  11.311   4.769 -2.1310 -2.0505 -1.0183
  753MOL0     H 1589  10.514  11.346   4.907 -1.2354  0.2499  2.4661
  753MOL0     H 1590  10.320  11.369   5.045  0.9273 -0.8357  1.1079
  753MOL0     H 1591  10.286  11.256   4.909  1.9502  1.0224  0.0358
  753MOL0     H 1592  10.185  11.186   5.178  1.1812  0.9210  0.2974
  753MOL0     H 1593  10.145  11.121   5.024  1.4991 -0.8715  0.1226
  753MOL0     H 1594  10.077  11.403   5.038  0.5974  0.1126  1.7206
  753MOL0     H 1595   9.972  11.301   5.141  0.0975 -3.7099 -0.2387
  753MOL0     H 1596  10.017  11.219   4.852  0.4822  2.6923 -1.2873
  753MOL0     H 1597   9.863  11.199   4.942 -1.4698  2.0568 -2.4285
  753MOL0     H 1598   9.966  11.450   4.849 -0.5788  0.7700  0.9402
  753MOL0     H 1599   9.844  11.356   4.771  2.4852 -1.6875 -0.2436
  753MOL0     H 1600   9.686  11.389   4.959 -0.7989  1.0553  0.4582
  753MOL0     H 1601   9.816  11.479   5.050  3.2161  0.1267 -1.6712
  753MOL0     H 1602   9.691  11.560   4.795  4.5196 -0.2481 -2.7816
  753MOL0     H 1603   9.811  11.653   4.857 -0.5494 -0.0926  0.7284
  753MOL0     H 1604   9.551  11.595   5.026 -0.9530  2.7131  2.8902
  753MOL0     H 1605   9.697  11.686   5.088  0.1680  0.8671 -0.9789
  753MOL0     H 1606   9.740  11.916   4.917 -0.3040  4.0186 -0.8972
  753MOL0     H 1607   9.674  12.127   4.885 -1.3042  0.4117  2.8308
  753MOL0     H 1608   9.582  12.126   4.738 -0.0609 -0.3534  0.1300
  753MOL0     H 1609   9.371  12.194   4.858  0.5833  1.1555  0.4838
  753MOL0     H 1610   9.462  12.202   5.007 -1.3119 -0.1884 -0.5668
  753MOL0     H 1611   9.485  12.363   4.752  1.7936  3.4904 -0.4200
  753MOL0     H 1612   9.612  12.366   4.887 -0.3130 -1.8898  0.9347
  753MOL0     H 1613   9.422  12.458   5.034 -0.1666  1.9592 -0.1132
  753MOL0     H 1614   9.325  12.467   4.890  0.5376  2.3720  0.6414
  753MOL0     H 1615   9.294  12.600   4.738 -0.9042  1.5844  0.5194
  753MOL0     H 1616   9.297  12.656   4.499 -0.3179 -0.7758  0.9521
  753MOL0     H 1617   9.426  12.643   4.061  0.0826  0.3010 -0.0619
  753MOL0     H 1618   9.454  12.785   3.841 -0.7545  0.7904 -0.1514
  753MOL0     H 1619   9.570  12.968   3.710  2.4241  1.6591 -5.3984
  753MOL0     H 1620   9.402  12.979   3.648  0.9195  0.8559 -0.0430
  753MOL0     H 1621   9.502  13.141   3.534 -4.2790  2.6120 -0.2751
  753MOL0     H 1622   9.415  13.232   3.644 -1.8140 -1.5557 -3.2613
  753MOL0     H 1623   9.600  13.265   3.803 -0.9530  0.5419 -0.0011
  753MOL0     H 1624   9.718  13.179   3.694 -1.9497 -1.6479 -2.8787
  753MOL0     H 1625   9.628  13.363   3.526 -0.8877 -2.3289  0.2959
  753MOL0     H 1626   9.771  13.387   3.630  0.5346 -1.2383 -2.1864
  753MOL0     H 1627   9.635  13.499   3.808  1.3204 -4.6494  0.4299
  753MOL0     H 1628   9.502  13.512   3.689 -0.6653 -0.0248 -0.3675
  753MOL0     H 1629   9.767  13.622   3.643  0.3210  0.3004  3.9176
  753MOL0     H 1630   9.612  13.646   3.546  1.2489 -2.6910 -0.7616
  753MOL0     H 1631   9.601  13.710   3.833  0.2442 -1.4759  0.3018
  753MOL0     H 1632   9.510  13.800   3.717  1.2189  2.2125  2.0882
  753MOL0     H 1633   9.647  13.954   3.786  0.1118 -0.5353  0.0406
  753MOL0     H 1634   9.797  13.870   3.737 -0.9437  0.1057 -1.5301
  753MOL0     H 1635   9.345  13.132   4.055  0.0461  0.0020  0.5318
  753MOL0     H 1636   9.330  12.997   4.270  3.1091  1.4104 -0.5862
  753MOL0     H 1637   9.721  12.728   4.527  0.0433  0.8913 -1.0240
  753MOL0     H 1638   9.717  12.680   4.766  0.8507  0.9153 -1.6130
  753MOL0     H 1639  10.533  10.960   5.085 -1.8994  0.5516 -0.7672
  753MOL0     H 1640  10.729  10.918   4.962  0.3366  0.7943  2.9227
  753MOL0     H 1641  10.967  10.946   4.587  0.5561 -0.2169 -0.6328
  753MOL0     H 1642  11.143  10.882   4.435  0.2597  1.5317  0.8003
  753MOL0     H 1643  11.561  11.050   4.516 -1.5991  2.5026  1.5637
  753MOL0     H 1644  11.499  11.142   4.372 -2.9067 -1.7940 -1.0349
  753MOL0     H 1645  11.713  11.039   4.336 -0.1420  0.0423  1.0931
  753MOL0     H 1646  11.585  10.971   4.229  0.1351 -0.6873 -0.8275
  753MOL0     H 1647  11.573  10.789   4.412  0.1482 -0.1087  0.3668
  753MOL0     H 1648  11.718  10.837   4.476 -0.9944 -0.8196  0.9494
  753MOL0     H 1649  11.813  10.816   4.222 -0.3488  0.7619  0.9346
  753MOL0     H 1650  11.770  10.663   4.310  0.4851 -0.4871 -1.7852
  753MOL0     H 1651  11.515  10.684   3.971  1.2985 -0.7124 -1.2209
  753MOL0     H 1652  11.424  11.144   4.615  0.0951 -0.3107 -0.3649
  753MOL0     H 1653  11.215  11.281   4.886 -0.5611  0.6178 -0.9258
  753MOL0     H 1654  11.374  11.247   4.826 -1.0721  1.1984  5.1315
  753MOL0     H 1655  11.276  11.355   4.723  0.4293  0.6745 -0.0711
  754MOL0     O 1656  11.394   0.143   4.681 -0.2665  0.0320 -0.0944
  754MOL0     C 1657  11.354   0.232   4.752 -0.6742  0.1286  0.0564
  754MOL0     O 1658  11.291   0.345   4.713 -1.1365  0.1892 -0.5723
  754MOL0     C 1659  11.282   0.382   4.586  1.5926 -0.1820 -0.1681
  754MOL0     C 1660  11.386   0.429   4.508  1.5131  0.1280 -0.4930
  754MOL0     C 1661  11.374   0.498   4.386  0.2304 -0.0844 -0.9650
  754MOL0     C 1662  11.251   0.504   4.327  0.5234 -0.3183 -0.1706
  754MOL0     O 1663  11.227   0.568   4.212  0.7283 -0.7298  0.1627
  754MOL0     C 1664  11.281   0.522   4.085  0.7443  0.4284 -0.7776
  754MOL0     C 1665  11.426   0.540   4.064 -0.2126 -0.1577  0.2755
  754MOL0     C 1666  11.471   0.490   3.926 -0.4454 -0.8556  0.0651
  754MOL0     C 1667  11.616   0.487   3.917 -0.3810 -1.5199 -0.1063
  754MOL0     C 1668  11.672   0.343   3.950 -0.3280 -0.3948  0.6394
  754MOL0     C 1669  11.818   0.324   3.902  0.2793 -0.0555  0.0214
  754MOL0     C 1670  11.864   0.193   3.956 -0.3845  0.3379  0.5051
  754MOL0     C 1671  12.011   0.163   3.907  0.2469 -0.4057 -0.2294
  754MOL0     N 1672  12.111   0.224   4.001  0.4645 -0.0689 -0.0944
  754MOL0     C 1673  12.205   0.158   4.070 -0.0656  0.1990 -0.5162
  754MOL0     C 1674  12.281   0.256   4.116 -0.8467  0.4475 -0.7808
  754MOL0     C 1675  12.393   0.226   4.211  1.6217 -0.0863  0.2218
  754MOL0     C 1676  12.361   0.305   4.346 -1.1074  0.5083  0.2519
  754MOL0     C 1677  12.451   0.268   4.466  0.4498  0.2855  1.1862
  754MOL0     C 1678  12.387   0.327   4.599  0.1524 -0.6158 -0.0217
  754MOL0     O 1679  12.475   0.270   4.703  0.0590  0.2072 -0.0596
  754MOL0     C 1680  12.423   0.226   4.826  0.8869  0.0328  0.1360
  754MOL0     C 1681  12.303   0.281   4.877 -0.9498  0.1200  0.0281
  754MOL0     C 1682  12.255   0.247   5.006 -0.7048 -0.3643 -0.3773
  754MOL0     C 1683  12.332   0.145   5.077  0.4885  0.2252  0.4806
  754MOL0     C 1684  12.300   0.116   5.223  0.1254  0.5022  0.0936
  754MOL0     O 1685  12.323  -0.012   5.272 -0.6792 -0.1178 -0.2841
  754MOL0     C 1686  12.321  -0.019   5.416 -0.5318  0.0455 -0.2601
  754MOL0     C 1687  12.199  -0.042   5.465 -0.3998  0.3151  0.3699
  754MOL0     C 1688  12.181  -0.082   5.593  0.1986 -1.0196 -0.1463
  754MOL0     C 1689  12.293  -0.071   5.684  0.4529  0.6934 -1.3062
  754MOL0     O 1690  12.288  -0.088   5.818  0.3850 -0.2802 -1.5958
  754MOL0     C 1691  12.169  -0.165   5.869 -0.0396 -0.1818 -0.1186
  754MOL0     C 1692  12.199  -0.204   6.009  0.6263 -1.3892 -0.7230
  754MOL0     C 1693  12.175  -0.084   6.105 -0.2589  0.6605  0.6475
  754MOL0     C 1694  12.305  -0.064   6.171  0.0750 -1.3422  0.3243
  754MOL0     C 1695  12.308   0.068   6.250  0.0617 -0.8554 -0.8633
  754MOL0     C 1696  12.441   0.098   6.331 -0.1917  1.1261  0.1262
  754MOL0     C 1697  12.456   0.243   6.370  0.2070 -0.6920 -0.6139
  754MOL0     C 1698  12.572   0.272   6.468 -1.0339  0.3278  0.6288
  754MOL0    Cl 1699  12.731   0.268   6.376 -0.3182  0.1898 -0.0847
  754MOL0     C 1700  12.420  -0.042   5.633  0.8133  0.2452 -0.1549
  754MOL0     C 1701  12.438  -0.021   5.490  0.7028  0.5341  0.0876
  754MOL0     O 1702  12.254   0.209   5.292  0.5269  0.0351  0.0445
  754MOL0     C 1703  12.454   0.093   5.021  0.5599 -0.5016  0.1851
  754MOL0     C 1704  12.497   0.130   4.893 -0.8710  1.2793  0.1424
  754MOL0     N 1705  12.218   0.375   4.090 -0.8214  0.1332  1.2001
  754MOL0     N 1706  12.119   0.356   4.013 -0.0698  0.1798  0.8179
  754MOL0     C 1707  11.137   0.475   4.409  0.1563  1.1837  1.4379
  754MOL0     C 1708  11.150   0.401   4.525  0.8855 -0.4346 -0.2127
  754MOL0     C 1709  11.375   0.211   4.899  0.1861 -0.4181  0.5726
  754MOL0     C 1710  11.330   0.094   4.956  0.2163  0.2532  1.1662
  754MOL0     C 1711  11.345   0.060   5.090  0.1890  0.6712 -0.1102
  754MOL0     C 1712  11.416   0.147   5.169 -0.4996 -0.4495 -0.5121
  754MOL0     O 1713  11.451   0.094   5.292  0.8887 -0.7667 -0.9353
  754MOL0     C 1714  11.555   0.156   5.369 -0.0214  0.0080 -0.0277
  754MOL0     C 1715  11.554   0.075   5.494 -0.2852 -1.0051 -0.4119
  754MOL0     C 1716  11.644   0.139   5.604 -0.2113 -0.0996  0.3222
  754MOL0     C 1717  11.701   0.027   5.694 -0.3726 -0.0390 -0.6529
  754MOL0     C 1718  11.802   0.091   5.770  0.3539  0.6066 -0.7079
  754MOL0     C 1719  11.899   0.119   5.832 -0.2681 -0.5291 -0.5829
  754MOL0     C 1720  11.474   0.269   5.118  0.2478 -0.1439  0.1986
  754MOL0     C 1721  11.433   0.305   4.987  0.7057 -0.5810  0.3767
  754MOL0     C 1722  11.460   0.448   4.938  0.9702  0.4328  0.7985
  754MOL0     H 1723  11.483   0.418   4.554  1.7667 -0.4377 -1.1511
  754MOL0     H 1724  11.454   0.542   4.327 -0.4864  4.0882  0.7923
  754MOL0     H 1725  11.254   0.419   4.061  2.2664  0.3338 -2.2904
  754MOL0     H 1726  11.231   0.570   4.001  1.8689 -0.6596 -2.1252
  754MOL0     H 1727  11.478   0.475   4.136  1.2338  0.7227  0.0728
  754MOL0     H 1728  11.450   0.646   4.079 -0.2121 -0.2201  0.7480
  754MOL0     H 1729  11.438   0.559   3.848  5.1451  1.2894 -0.8273
  754MOL0     H 1730  11.441   0.390   3.890  3.3769 -1.2764 -2.5540
  754MOL0     H 1731  11.655   0.515   3.819 -0.3957 -1.0862  0.0123
  754MOL0     H 1732  11.654   0.566   3.982  0.7948 -2.3924  0.3090
  754MOL0     H 1733  11.651   0.322   4.055 -2.3953  1.8350  0.7542
  754MOL0     H 1734  11.616   0.267   3.895  1.3730  0.2533 -2.1795
  754MOL0     H 1735  11.819   0.316   3.793  2.4855 -3.4732  0.1707
  754MOL0     H 1736  11.886   0.406   3.926 -0.3507 -0.0940  2.2051
  754MOL0     H 1737  11.796   0.118   3.914  0.4714 -0.1832  0.0177
  754MOL0     H 1738  11.867   0.184   4.065  1.9308  0.0622  0.4662
  754MOL0     H 1739  12.038   0.056   3.910  2.6313  0.0444  4.3972
  754MOL0     H 1740  12.025   0.196   3.804 -0.4808  1.7871  0.3366
  754MOL0     H 1741  12.204   0.050   4.078 -1.0556  0.2564  0.2939
  754MOL0     H 1742  12.406   0.118   4.221  1.8738 -0.0464  0.3350
  754MOL0     H 1743  12.484   0.266   4.165  3.2926 -2.6550  1.0669
  754MOL0     H 1744  12.394   0.408   4.330 -0.0851  0.2632  0.6372
  754MOL0     H 1745  12.255   0.297   4.372 -1.9869  1.8631 -2.6005
  754MOL0     H 1746  12.548   0.316   4.451  0.2376  0.3815  0.0837
  754MOL0     H 1747  12.464   0.160   4.471 -1.0852 -0.1213 -1.5281
  754MOL0     H 1748  12.282   0.300   4.609 -0.4590  1.0148 -1.5682
  754MOL0     H 1749  12.391   0.436   4.595  0.5671 -0.5956  0.6856
  754MOL0     H 1750  12.260   0.365   4.823  3.9555  3.2299  0.4004
  754MOL0     H 1751  12.176   0.300   5.057  1.0598  2.9344 -0.8264
  754MOL0     H 1752  12.111  -0.036   5.403  0.4578 -0.3641 -0.9549
  754MOL0     H 1753  12.081  -0.098   5.630  0.1331  1.1166  0.7950
  754MOL0     H 1754  12.079  -0.103   5.872 -0.5394 -0.7703 -1.8487
  754MOL0     H 1755  12.157  -0.262   5.820  0.2549 -0.4811  0.3946
  754MOL0     H 1756  12.134  -0.283   6.046  0.0105  1.0059  4.2167
  754MOL0     H 1757  12.301  -0.241   6.018  1.9249  1.8129 -0.6670
  754MOL0     H 1758  12.153  -0.001   6.038 -1.2824 -0.1186 -0.0101
  754MOL0     H 1759  12.091  -0.092   6.175 -2.7813 -0.2320 -2.2807
  754MOL0     H 1760  12.384  -0.047   6.098 -1.4912  1.0006 -0.9496
  754MOL0     H 1761  12.326  -0.153   6.232 -1.0288 -1.2893  0.8097
  754MOL0     H 1762  12.225   0.071   6.321  1.1803  1.8244  0.4745
  754MOL0     H 1763  12.288   0.155   6.186 -1.6897 -2.8669 -3.2461
  754MOL0     H 1764  12.455   0.030   6.415 -1.4453 -1.5377 -1.6748
  754MOL0     H 1765  12.521   0.085   6.257  0.5950  2.0487  0.7917
  754MOL0     H 1766  12.372   0.292   6.421  0.6609 -1.4106  0.8739
  754MOL0     H 1767  12.477   0.296   6.276 -1.9010 -1.1365 -1.4074
  754MOL0     H 1768  12.566   0.369   6.519  2.3386 -0.3731  2.6828
  754MOL0     H 1769  12.575   0.199   6.549 -2.3129 -1.8306 -1.1689
  754MOL0     H 1770  12.498  -0.036   5.708  2.0021 -2.7514 -0.9804
  754MOL0     H 1771  12.533   0.001   5.442  1.3164 -3.5708 -0.9716
  754MOL0     H 1772  12.518   0.019   5.069  1.6472 -1.0408 -1.9657
  754MOL0     H 1773  12.594   0.098   4.855  1.1054  6.0929  0.3819
  754MOL0     H 1774  11.037   0.495   4.372 -0.0039 -4.4811 -2.4477
  754MOL0     H 1775  11.066   0.358   4.578  0.1536 -3.2873 -3.3212
  754MOL0     H 1776  11.274   0.030   4.888  0.6216 -0.5331  1.5563
  754MOL0     H 1777  11.299  -0.030   5.127  2.8030 -1.4587 -1.6961
  754MOL0     H 1778  11.538   0.260   5.396 -0.2952  0.6465 -2.4076
  754MOL0     H 1779  11.658   0.154   5.332  0.5396 -0.7298  1.5013
  754MOL0     H 1780  11.584  -0.029   5.477 -1.7833 -1.2568 -1.7470
  754MOL0     H 1781  11.454   0.080   5.539 -0.4095 -0.7420 -0.7172
  754MOL0     H 1782  11.575   0.199   5.665 -2.0356 -0.2924 -1.4475
  754MOL0     H 1783  11.724   0.198   5.559  0.8738  0.2372  2.5350
  754MOL0     H 1784  11.621  -0.014   5.756 -0.1491  0.3708 -0.0864
  754MOL0     H 1785  11.748  -0.061   5.648  1.9540 -0.0831  1.5988
  754MOL0     H 1786  11.978   0.134   5.904  1.0295 -0.8358 -1.9019
  754MOL0     H 1787  11.531   0.345   5.171 -0.1786 -0.6783  1.4718
  754MOL0     H 1788  11.510   0.504   5.018  0.4966 -0.4569  1.7556
  754MOL0     H 1789  11.526   0.454   4.851  0.3702  1.0060  0.3795
  754MOL0     H 1790  11.367   0.499   4.913  1.8427  2.9554  2.3623
  755MOL0     O 1791   2.412   2.674   4.466 -0.4064 -0.8013 -0.8158
  755MOL0     C 1792   2.386   2.554   4.463 -0.0801 -0.0993 -0.1550
  755MOL0     O 1793   2.268   2.503   4.415 -1.1203 -0.7488 -0.1009
  755MOL0     C 1794   2.218   2.570   4.305 -0.5862  1.2622 -0.4517
  755MOL0     C 1795   2.294   2.609   4.185  0.3201  0.2555 -0.1453
  755MOL0     C 1796   2.232   2.691   4.097 -0.2966  0.2920 -0.0868
  755MOL0     C 1797   2.097   2.729   4.127 -0.0644 -0.0886 -0.2255
  755MOL0     O 1798   2.024   2.832   4.064  0.1268  0.2701  0.5996
  755MOL0     C 1799   2.102   2.914   3.975 -0.6759 -0.2736 -0.2339
  755MOL0     C 1800   2.112   2.848   3.837 -0.5173  0.0035  1.3087
  755MOL0     C 1801   2.237   2.898   3.767  0.1068 -0.2833 -0.1806
  755MOL0     C 1802   2.240   2.866   3.624 -0.4946  0.6477  0.4226
  755MOL0     C 1803   2.378   2.883   3.548  0.5850  0.1515 -0.2912
  755MOL0     C 1804   2.491   2.790   3.595  0.0691  1.1145 -0.6386
  755MOL0     C 1805   2.446   2.642   3.617 -0.1503  0.9772 -0.3795
  755MOL0     C 1806   2.417   2.561   3.485  0.1603 -0.4005  0.5358
  755MOL0     N 1807   2.366   2.430   3.532 -0.5356  0.5292 -0.2233
  755MOL0     C 1808   2.230   2.401   3.566 -0.5951 -0.4611 -1.0990
  755MOL0     C 1809   2.230   2.271   3.601 -1.4148  0.5292  0.3521
  755MOL0     C 1810   2.104   2.205   3.647 -0.1996  0.1566 -0.4566
  755MOL0     C 1811   2.076   2.222   3.794 -0.5451 -0.6948 -0.2992
  755MOL0     C 1812   2.098   2.367   3.854  0.5861 -0.9041  0.2462
  755MOL0     C 1813   2.078   2.370   4.005  0.3240  0.1935  0.0400
  755MOL0     O 1814   1.959   2.294   4.033  0.9120  0.4299 -0.9623
  755MOL0     C 1815   1.942   2.211   4.137  0.2783 -0.0614 -0.0816
  755MOL0     C 1816   1.875   2.091   4.117 -0.9958 -1.1725  0.4051
  755MOL0     C 1817   1.858   2.002   4.226  0.6175 -0.0590 -0.0557
  755MOL0     C 1818   1.914   2.035   4.349 -0.1180 -0.1016  0.8412
  755MOL0     C 1819   1.891   1.945   4.467  0.0589  0.3156  1.0861
  755MOL0     O 1820   1.808   1.845   4.449 -0.1681  0.0650 -0.3846
  755MOL0     C 1821   1.779   1.752   4.546  0.1395  0.3377 -1.2076
  755MOL0     C 1822   1.785   1.617   4.516  0.2689  0.4197 -0.3711
  755MOL0     C 1823   1.759   1.518   4.616  1.1078  0.0760 -0.3792
  755MOL0     C 1824   1.711   1.542   4.747 -1.1818 -1.0904  0.2347
  755MOL0     O 1825   1.708   1.433   4.822 -0.1715 -0.5745 -0.3080
  755MOL0     C 1826   1.743   1.458   4.958 -0.7560 -0.7784 -0.0309
  755MOL0     C 1827   1.834   1.341   4.999 -1.0393  0.4897 -0.9993
  755MOL0     C 1828   1.760   1.207   5.025 -0.4862 -0.7497 -0.0230
  755MOL0     C 1829   1.673   1.151   4.917  0.1671  0.5670  0.0010
  755MOL0     C 1830   1.632   1.003   4.937  0.7918 -0.8122  0.7959
  755MOL0     C 1831   1.544   0.952   4.828  0.7077  0.6753  0.8916
  755MOL0     C 1832   1.399   1.018   4.819 -0.2254 -0.2200  0.7760
  755MOL0     C 1833   1.305   1.007   4.949 -0.2830 -0.3219  0.5619
  755MOL0    Cl 1834   1.269   0.822   4.973  0.1760 -0.0697 -0.2037
  755MOL0     C 1835   1.702   1.683   4.784  0.2315  0.1610  0.0869
  755MOL0     C 1836   1.739   1.785   4.683 -0.3759  0.6535 -0.6250
  755MOL0     O 1837   1.967   1.956   4.559 -0.2327  0.1162 -0.3803
  755MOL0     C 1838   1.989   2.152   4.367 -0.6034  1.4591 -0.2800
  755MOL0     C 1839   2.002   2.242   4.255  0.5130  0.3619 -0.2997
  755MOL0     N 1840   2.353   2.216   3.574 -0.7239  0.5906  0.2094
  755MOL0     N 1841   2.434   2.309   3.537  0.3041 -0.1406 -0.2129
  755MOL0     C 1842   2.026   2.670   4.229 -0.2297 -0.2290  0.4930
  755MOL0     C 1843   2.082   2.591   4.323  1.2050  0.0143 -0.5252
  755MOL0     C 1844   2.484   2.464   4.532 -1.3763  0.5147  0.9740
  755MOL0     C 1845   2.598   2.524   4.594 -1.0664 -0.4993  0.0222
  755MOL0     C 1846   2.693   2.448   4.657  0.4713  0.2476 -0.6903
  755MOL0     C 1847   2.679   2.316   4.665 -0.0347  0.5141  0.8108
  755MOL0     O 1848   2.771   2.237   4.734 -0.4491 -0.1020  0.7710
  755MOL0     C 1849   2.808   2.288   4.860 -0.3062  0.3106  0.3579
  755MOL0     C 1850   2.866   2.182   4.948  0.3076  0.0907  0.0780
  755MOL0     C 1851   3.000   2.149   4.904 -1.3248  0.0392  0.6828
  755MOL0     C 1852   3.110   2.254   4.932  0.8383 -0.2798  0.7751
  755MOL0     C 1853   3.221   2.177   4.980 -1.3414 -0.8202 -1.0931
  755MOL0     C 1854   3.311   2.132   5.050 -0.4378  0.3683  1.1118
  755MOL0     C 1855   2.569   2.250   4.608  1.3977  0.2851  0.3572
  755MOL0     C 1856   2.464   2.319   4.549  0.8435  0.6832  0.4732
  755MOL0     C 1857   2.332   2.248   4.508  0.7576  0.1776  0.2435
  755MOL0     H 1858   2.401   2.588   4.189  0.2536 -0.1075 -0.2415
  755MOL0     H 1859   2.287   2.732   4.013 -0.4089  0.1636 -0.2241
  755MOL0     H 1860   2.062   3.016   3.979 -0.1604 -0.1078  1.8089
  755MOL0     H 1861   2.195   2.931   4.030 -2.5989 -2.7542  4.2756
  755MOL0     H 1862   2.029   2.883   3.774  0.8554 -3.0036 -2.6120
  755MOL0     H 1863   2.106   2.740   3.817 -0.8070  0.2352  0.0088
  755MOL0     H 1864   2.318   2.848   3.822 -0.3208  0.6723  1.3662
  755MOL0     H 1865   2.240   3.007   3.779  1.2693 -0.4589  1.4865
  755MOL0     H 1866   2.216   2.759   3.618  1.1833  0.1129  2.2761
  755MOL0     H 1867   2.154   2.923   3.587  0.1661  1.6784  0.4463
  755MOL0     H 1868   2.362   2.877   3.440 -5.5842  1.2168  0.1662
  755MOL0     H 1869   2.390   2.991   3.559 -0.5390  1.2790 -6.5829
  755MOL0     H 1870   2.578   2.786   3.529 -1.0537 -0.9226 -2.1201
  755MOL0     H 1871   2.523   2.823   3.694  0.7331 -2.9079  0.6661
  755MOL0     H 1872   2.360   2.634   3.684  2.2568  4.2741  3.5144
  755MOL0     H 1873   2.536   2.589   3.652  1.7095  1.6693 -3.6494
  755MOL0     H 1874   2.333   2.618   3.445  0.4612  0.2478  0.8142
  755MOL0     H 1875   2.510   2.568   3.428  0.5257 -0.2034  1.1415
  755MOL0     H 1876   2.153   2.477   3.568 -2.6603 -2.4471 -0.4594
  755MOL0     H 1877   2.020   2.251   3.594 -0.3133  2.6742  1.7136
  755MOL0     H 1878   2.112   2.098   3.624  2.0608  0.5310 -1.6928
  755MOL0     H 1879   1.978   2.178   3.816 -0.2130 -0.6029  1.5820
  755MOL0     H 1880   2.153   2.162   3.843  0.7175  1.6457  0.7368
  755MOL0     H 1881   2.024   2.430   3.804  2.9142  1.2174 -0.7274
  755MOL0     H 1882   2.193   2.412   3.825 -0.2642  3.1030  2.8732
  755MOL0     H 1883   2.062   2.471   4.043  1.2331  0.2848  0.1915
  755MOL0     H 1884   2.161   2.320   4.055  0.4793  0.8569  0.4576
  755MOL0     H 1885   1.834   2.077   4.017 -0.2229  2.1273 -0.4932
  755MOL0     H 1886   1.789   1.919   4.219  0.7298 -0.0854 -0.9190
  755MOL0     H 1887   1.823   1.573   4.424  1.3371 -1.4824  0.8898
  755MOL0     H 1888   1.773   1.414   4.589 -0.7867  0.1274 -1.7237
  755MOL0     H 1889   1.809   1.545   4.973 -1.1457 -0.8212  2.3159
  755MOL0     H 1890   1.657   1.461   5.025 -0.1249  0.7548  0.7809
  755MOL0     H 1891   1.908   1.318   4.922 -1.0917 -0.9568 -0.6555
  755MOL0     H 1892   1.883   1.381   5.088  1.3014  3.4985 -3.4604
  755MOL0     H 1893   1.822   1.126   5.067 -2.6029 -2.0610  0.7253
  755MOL0     H 1894   1.687   1.239   5.100 -0.1822  4.9181 -1.6911
  755MOL0     H 1895   1.727   1.161   4.823 -0.1465 -0.6904 -0.3286
  755MOL0     H 1896   1.583   1.209   4.893  0.8380  1.3017 -0.8068
  755MOL0     H 1897   1.575   0.994   5.031  1.9694  0.6667  1.7089
  755MOL0     H 1898   1.721   0.940   4.937  0.4361 -1.3867 -1.5996
  755MOL0     H 1899   1.585   0.975   4.729 -0.9421 -4.1777 -1.2120
  755MOL0     H 1900   1.529   0.845   4.840 -0.8415  0.8068  0.3160
  755MOL0     H 1901   1.344   0.974   4.735  2.8269 -1.5313 -0.6932
  755MOL0     H 1902   1.405   1.125   4.796  0.2035 -0.2668  0.6600
  755MOL0     H 1903   1.358   1.055   5.031 -1.2075  1.4058  0.2058
  755MOL0     H 1904   1.212   1.060   4.924 -0.8506 -1.6255 -0.2443
  755MOL0     H 1905   1.683   1.703   4.889  1.2347 -3.6145  1.1504
  755MOL0     H 1906   1.731   1.891   4.702  1.5132  0.8593 -0.7797
  755MOL0     H 1907   2.031   2.180   4.463  0.6681  1.4705 -0.8309
  755MOL0     H 1908   2.063   2.328   4.283  0.3214  0.7275 -0.9655
  755MOL0     H 1909   1.919   2.677   4.244 -0.6698 -3.8160  0.0043
  755MOL0     H 1910   2.016   2.565   4.405 -0.5152  0.2061 -1.8110
  755MOL0     H 1911   2.624   2.626   4.570 -0.2457 -0.5381  0.7306
  755MOL0     H 1912   2.778   2.497   4.703  0.4807  0.2024 -0.6606
  755MOL0     H 1913   2.719   2.338   4.898 -0.4770  2.8953 -3.0375
  755MOL0     H 1914   2.877   2.372   4.851  0.4107 -0.0847  1.7709
  755MOL0     H 1915   2.807   2.090   4.951  0.4931 -0.1016 -1.4315
  755MOL0     H 1916   2.876   2.209   5.054  1.7015 -3.4451  1.0038
  755MOL0     H 1917   2.998   2.122   4.798  1.7199  1.6113  0.1160
  755MOL0     H 1918   3.019   2.051   4.950 -2.2881 -1.3125 -1.6596
  755MOL0     H 1919   3.144   2.302   4.840 -0.7060 -2.9946 -1.3646
  755MOL0     H 1920   3.073   2.329   5.002  1.3764  1.6072 -0.8643
  755MOL0     H 1921   3.396   2.104   5.109 -0.0728  1.6000  1.1974
  755MOL0     H 1922   2.561   2.143   4.623  0.4852  0.4462  1.1163
  755MOL0     H 1923   2.327   2.140   4.526 -0.6942  0.1227 -0.3589
  755MOL0     H 1924   2.255   2.303   4.562  1.5234  0.6189  0.9228
  755MOL0     H 1925   2.311   2.263   4.402  0.4112  0.3431  0.3355
  756MOL0     O 1926  11.174   7.288  10.056  0.3200  0.0943 -0.3154
  756MOL0     C 1927  11.080   7.334   9.998  0.5502 -0.2666 -0.1032
  756MOL0     O 1928  11.070   7.463   9.967 -0.3905  0.1459 -0.2030
  756MOL0     C 1929  11.174   7.543  10.003  1.3411 -0.0536  0.1456
  756MOL0     C 1930  11.246   7.581   9.899  0.3772  0.1486  0.3068
  756MOL0     C 1931  11.359   7.650   9.919  0.2958  0.5025  0.0364
  756MOL0     C 1932  11.405   7.685  10.051 -0.0864  0.5638 -0.4738
  756MOL0     O 1933  11.512   7.769  10.055 -1.2401 -0.6552  0.1685
  756MOL0     C 1934  11.552   7.832  10.180  0.0314 -0.5412  0.2497
  756MOL0     C 1935  11.639   7.954  10.134  0.8026 -0.6370  0.7929
  756MOL0     C 1936  11.546   8.077  10.096 -0.0703  0.2116 -0.1750
  756MOL0     C 1937  11.615   8.215  10.072  0.0281 -0.8352 -0.4299
  756MOL0     C 1938  11.526   8.341  10.085  0.0028 -0.3184 -0.6178
  756MOL0     C 1939  11.500   8.389  10.240  0.0694  1.1890 -0.3386
  756MOL0     C 1940  11.595   8.505  10.276  1.3313 -0.1140  0.2632
  756MOL0     C 1941  11.530   8.633  10.214  0.5589 -0.6385  0.6891
  756MOL0     N 1942  11.613   8.746  10.264  0.3068 -1.1637  0.6246
  756MOL0     C 1943  11.740   8.778  10.229 -0.9610  0.3642 -0.0692
  756MOL0     C 1944  11.773   8.871  10.317  0.2006  0.0956 -1.3065
  756MOL0     C 1945  11.895   8.944  10.333 -0.9430 -0.4292 -0.1924
  756MOL0     C 1946  11.934   9.024  10.205 -0.3824  0.5785  0.5957
  756MOL0     C 1947  12.047   9.117  10.223 -0.1231 -0.9877 -0.4906
  756MOL0     C 1948  12.002   9.246  10.295 -0.6777  0.5148  0.5250
  756MOL0     O 1949  12.102   9.337  10.259 -0.2445 -0.1547  0.3494
  756MOL0     C 1950  12.062   9.465  10.259 -0.7086 -0.7193  0.4466
  756MOL0     C 1951  12.090   9.541  10.376 -0.9366 -0.6495  0.1425
  756MOL0     C 1952  12.072   9.674  10.385 -0.9075 -0.8131  0.3933
  756MOL0     C 1953  12.044   9.753  10.274  0.5624  0.3688  0.3296
  756MOL0     C 1954  12.000   9.893  10.282  0.0818 -0.8245 -0.3639
  756MOL0     O 1955  11.987   9.947  10.404  1.1003 -0.0912  0.2509
  756MOL0     C 1956  11.998  10.083  10.417 -0.8989  0.6309  0.6332
  756MOL0     C 1957  12.110  10.161  10.364 -0.1818  0.8088 -0.3907
  756MOL0     C 1958  12.113  10.297  10.389  0.4980  0.8676  0.4799
  756MOL0     C 1959  12.023  10.361  10.474  0.0375 -0.4116  0.8703
  756MOL0     O 1960  12.056  10.495  10.498  0.5569  0.4276  0.9596
  756MOL0     C 1961  11.955  10.573  10.578 -0.4314 -0.0485 -0.2826
  756MOL0     C 1962  11.968  10.716  10.522  0.0305 -0.1903  0.6255
  756MOL0     C 1963  12.109  10.783  10.551 -0.4666 -0.0911 -0.0664
  756MOL0     C 1964  12.108  10.933  10.525 -0.4594 -0.0376 -0.1528
  756MOL0     C 1965  12.236  10.982  10.586 -0.4710  0.4757 -0.9484
  756MOL0     C 1966  12.342  11.025  10.477 -0.3010 -0.4300  0.5181
  756MOL0     C 1967  12.284  11.139  10.399  0.1397  0.0333  0.5240
  756MOL0     C 1968  12.386  11.206  10.303  0.5385  1.1559  0.1620
  756MOL0    Cl 1969  12.446  11.085  10.191  0.1194  0.1695 -0.5132
  756MOL0     C 1970  11.919  10.287  10.528 -0.7547  0.3499 -0.0904
  756MOL0     C 1971  11.908  10.152  10.502  0.5579 -0.4404  0.3688
  756MOL0     O 1972  12.001   9.958  10.180  0.7727 -0.0310  0.5454
  756MOL0     C 1973  12.014   9.680  10.155 -0.3265 -0.2580 -0.1240
  756MOL0     C 1974  12.027   9.540  10.144 -1.0837  0.2937 -0.1098
  756MOL0     N 1975  11.675   8.887  10.413  0.4299  0.1146  0.0626
  756MOL0     N 1976  11.573   8.810  10.379  0.4279  0.3127 -0.2440
  756MOL0     C 1977  11.331   7.631  10.158 -0.5236 -0.2236 -0.4756
  756MOL0     C 1978  11.209   7.568  10.135  0.5492  0.3870 -0.7916
  756MOL0     C 1979  10.983   7.239   9.941  0.2640 -0.2790  0.0284
  756MOL0     C 1980  10.910   7.290   9.833  0.3371 -0.2878  1.0273
  756MOL0     C 1981  10.809   7.213   9.760 -0.6906  1.1521 -0.2641
  756MOL0     C 1982  10.805   7.065   9.768 -0.1703 -0.4825 -0.8006
  756MOL0     O 1983  10.734   6.976   9.694 -0.9091 -0.0445  0.0364
  756MOL0     C 1984  10.594   6.962   9.707  0.2377  0.7158 -0.3362
  756MOL0     C 1985  10.542   6.940   9.571 -0.2026 -0.8126  1.2524
  756MOL0     C 1986  10.576   6.808   9.497 -0.3305  0.5928  1.2413
  756MOL0     C 1987  10.491   6.788   9.361  0.5493 -0.0955  0.2967
  756MOL0     C 1988  10.572   6.838   9.253  0.2602 -0.1588  0.5150
  756MOL0     C 1989  10.662   6.866   9.176 -0.5099  0.2808  0.0325
  756MOL0     C 1990  10.881   7.020   9.879 -0.3127 -0.4597 -0.5604
  756MOL0     C 1991  10.969   7.097   9.956  0.1916 -0.5274  0.2807
  756MOL0     C 1992  11.023   7.026  10.073  1.2188  0.4616 -0.2635
  756MOL0     H 1993  11.203   7.568   9.800 -0.9920  0.4200  0.8461
  756MOL0     H 1994  11.414   7.689   9.834 -1.1103  4.2007  0.6147
  756MOL0     H 1995  11.462   7.857  10.237 -0.4693  0.0858 -0.7908
  756MOL0     H 1996  11.610   7.753  10.229 -0.8536 -0.2240  1.8774
  756MOL0     H 1997  11.700   7.918  10.051  2.1585  0.0332  1.4715
  756MOL0     H 1998  11.705   7.981  10.217  1.2024  0.3147  0.1762
  756MOL0     H 1999  11.472   8.084  10.176 -0.8011 -0.2125 -0.7980
  756MOL0     H 2000  11.493   8.061  10.002  0.0696  1.1178 -0.4160
  756MOL0     H 2001  11.701   8.223  10.139  0.4512 -1.2439 -0.9183
  756MOL0     H 2002  11.663   8.217   9.974 -0.2272  1.5123 -0.5706
  756MOL0     H 2003  11.574   8.421  10.026  0.3065 -0.3318 -0.3911
  756MOL0     H 2004  11.427   8.315  10.046 -0.9114 -1.5947  2.3158
  756MOL0     H 2005  11.394   8.417  10.242 -0.1500  0.3820 -0.3225
  756MOL0     H 2006  11.515   8.299  10.300 -0.8970  0.5644 -0.9919
  756MOL0     H 2007  11.693   8.491  10.228  0.9325  2.5814 -1.5579
  756MOL0     H 2008  11.626   8.502  10.381 -1.6428  0.7177  1.2533
  756MOL0     H 2009  11.524   8.620  10.106  4.9276 -2.6520  0.4815
  756MOL0     H 2010  11.430   8.651  10.255 -1.3340 -3.2527 -2.3647
  756MOL0     H 2011  11.811   8.734  10.160  3.2721  5.3403  0.4701
  756MOL0     H 2012  11.883   9.010  10.420  2.2331 -0.7271  0.5934
  756MOL0     H 2013  11.984   8.884  10.354 -0.0532  1.8422  3.4174
  756MOL0     H 2014  11.970   8.951  10.132  0.0518  1.5504 -0.1803
  756MOL0     H 2015  11.851   9.072  10.152  0.5448 -0.5779 -2.0579
  756MOL0     H 2016  12.098   9.144  10.130 -0.2722  0.6743 -0.1216
  756MOL0     H 2017  12.124   9.064  10.281 -0.9976 -0.5954  1.0952
  756MOL0     H 2018  11.991   9.252  10.404  2.5132  2.4825  0.8661
  756MOL0     H 2019  11.907   9.267  10.245 -0.0708  0.0490 -0.8665
  756MOL0     H 2020  12.142   9.494  10.459  0.5639  4.0554  2.2629
  756MOL0     H 2021  12.072   9.729  10.478 -1.6304  1.3625 -0.8059
  756MOL0     H 2022  12.180  10.103  10.304 -0.4995  0.4786 -0.4445
  756MOL0     H 2023  12.184  10.372  10.356  1.4269 -0.7371 -1.3563
  756MOL0     H 2024  11.859  10.534  10.544 -0.2747 -0.7430  0.0475
  756MOL0     H 2025  11.976  10.560  10.685  0.0575 -3.0800 -0.6371
  756MOL0     H 2026  11.957  10.711  10.413 -1.2574 -1.4578  0.7807
  756MOL0     H 2027  11.887  10.777  10.562 -1.6380  0.1030 -2.8193
  756MOL0     H 2028  12.139  10.761  10.654  2.0435  1.4281 -0.3776
  756MOL0     H 2029  12.184  10.739  10.486  1.1345 -1.7764  2.7128
  756MOL0     H 2030  12.015  10.975  10.564  0.5443  2.2182 -0.0088
  756MOL0     H 2031  12.105  10.936  10.416  0.7806 -2.0783 -0.2849
  756MOL0     H 2032  12.283  10.910  10.654  3.7163  3.2126 -0.6097
  756MOL0     H 2033  12.209  11.067  10.649 -1.0539 -1.6741  1.9210
  756MOL0     H 2034  12.439  11.052  10.521  0.8770 -0.6065 -1.7718
  756MOL0     H 2035  12.372  10.938  10.416 -0.8227 -0.6547  0.5769
  756MOL0     H 2036  12.257  11.202  10.484 -0.0940 -0.2479  0.6597
  756MOL0     H 2037  12.197  11.117  10.335  1.2563  1.3001 -1.5635
  756MOL0     H 2038  12.345  11.291  10.248 -1.1548 -1.6588 -3.2800
  756MOL0     H 2039  12.474  11.236  10.361  1.3520 -0.2001 -0.3403
  756MOL0     H 2040  11.850  10.325  10.603  2.7963  0.9655  3.2198
  756MOL0     H 2041  11.820  10.104  10.543 -0.4989  1.1075  0.0420
  756MOL0     H 2042  11.993   9.728  10.060 -3.0059 -5.2082 -2.4203
  756MOL0     H 2043  12.031   9.500  10.043  0.9373  1.4698 -0.5571
  756MOL0     H 2044  11.364   7.646  10.260 -0.5237 -1.7928 -0.2287
  756MOL0     H 2045  11.149   7.534  10.218  0.6998  3.2129  0.6077
  756MOL0     H 2046  10.919   7.394   9.804  0.4569 -0.4972  0.2828
  756MOL0     H 2047  10.742   7.247   9.681 -2.2355 -0.9647  0.0444
  756MOL0     H 2048  10.551   7.054   9.749 -2.9605 -0.4755 -0.7542
  756MOL0     H 2049  10.563   6.878   9.770  0.7726  0.3484 -0.5554
  756MOL0     H 2050  10.590   7.021   9.515  1.7071 -1.9982  1.0912
  756MOL0     H 2051  10.433   6.945   9.578 -0.5149  3.0028 -2.4054
  756MOL0     H 2052  10.559   6.714   9.550  1.3629 -1.4872 -1.6060
  756MOL0     H 2053  10.684   6.820   9.485 -0.4867 -0.0475 -1.6920
  756MOL0     H 2054  10.475   6.683   9.335 -0.6098  0.7386 -2.7743
  756MOL0     H 2055  10.395   6.839   9.366  1.0047  0.7269  0.8675
  756MOL0     H 2056  10.743   6.897   9.114  0.3053 -1.4383  0.1756
  756MOL0     H 2057  10.875   6.913   9.898  2.4848 -0.6609 -0.4333
  756MOL0     H 2058  10.956   6.948  10.111  1.2741 -0.3378 -1.7388
  756MOL0     H 2059  11.123   6.996  10.042  0.9093  0.3342 -1.1486
  756MOL0     H 2060  11.037   7.090  10.160  0.5486 -0.8234  0.8377
  757MOL0     O 2061   1.279  11.210  10.733  0.2871 -0.0075  0.0030
  757MOL0     C 2062   1.240  11.215  10.613  0.6264 -0.0514 -0.3094
  757MOL0     O 2063   1.164  11.316  10.560 -0.3868  0.2761  0.0510
  757MOL0     C 2064   1.097  11.401  10.646  0.3755  0.0629 -0.3590
  757MOL0     C 2065   0.952  11.384  10.654  0.6085 -0.2278  0.9149
  757MOL0     C 2066   0.879  11.463  10.743 -0.4614 -0.8666  0.0195
  757MOL0     C 2067   0.940  11.557  10.824 -0.7635 -0.3907 -0.1236
  757MOL0     O 2068   0.869  11.647  10.901 -0.4576  0.6764 -0.1613
  757MOL0     C 2069   0.865  11.779  10.839 -0.3990  0.1458  0.2070
  757MOL0     C 2070   0.823  11.880  10.935  0.4975 -0.3925 -0.4417
  757MOL0     C 2071   0.939  11.887  11.043  0.6650 -0.5280  0.1653
  757MOL0     C 2072   0.885  11.953  11.170  0.6350 -0.5704  0.1244
  757MOL0     C 2073   1.014  11.984  11.252  0.1659 -0.2053  0.8943
  757MOL0     C 2074   0.957  12.044  11.380 -0.5841  0.2826  0.6991
  757MOL0     C 2075   1.062  12.075  11.485  0.5864  0.6360  1.4075
  757MOL0     C 2076   1.160  12.179  11.438  0.7773  0.0981 -0.3245
  757MOL0     N 2077   1.207  12.243  11.561 -0.2088  0.5201 -0.3943
  757MOL0     C 2078   1.138  12.324  11.651  0.9071  1.1339 -0.8292
  757MOL0     C 2079   1.223  12.386  11.733 -0.9202  0.2245 -0.6281
  757MOL0     C 2080   1.184  12.495  11.833 -0.7670 -0.0970  1.1193
  757MOL0     C 2081   1.049  12.483  11.897 -0.5042  0.2253 -0.1525
  757MOL0     C 2082   1.011  12.574  12.008  0.6065  0.3513  0.2886
  757MOL0     C 2083   0.958  12.709  11.965  0.1105  0.0905 -0.1245
  757MOL0     O 2084   0.815  12.707  12.002 -1.2707  0.1628  0.1161
  757MOL0     C 2085   0.743  12.820  11.979  0.1660 -0.0082 -0.3861
  757MOL0     C 2086   0.801  12.940  11.953  0.7145  0.3041  0.3836
  757MOL0     C 2087   0.715  13.042  11.908  0.3464 -0.3670  0.0345
  757MOL0     C 2088   0.576  13.037  11.924 -0.1015 -0.2142 -0.9059
  757MOL0     C 2089   0.496  13.153  11.893 -0.0234  0.4921  0.2553
  757MOL0     O 2090   0.521  13.278  11.933  1.0811  0.0288 -0.1545
  757MOL0     C 2091   0.617  13.299  12.038 -0.0496 -0.2922  1.1584
  757MOL0     C 2092   0.628  13.206  12.148 -0.7189 -0.0988 -1.1855
  757MOL0     C 2093   0.728  13.229  12.242 -0.3423 -0.3142  0.7172
  757MOL0     C 2094   0.802  13.348  12.247 -0.3381 -0.7556  0.5392
  757MOL0     O 2095   0.885  13.392  12.348  0.1996 -0.0619 -0.0577
  757MOL0     C 2096   0.966  13.293  12.405 -0.6009 -0.3961 -0.2586
  757MOL0     C 2097   1.056  13.365  12.496  0.7567  0.5457 -0.0859
  757MOL0     C 2098   1.183  13.420  12.426  0.5846 -1.0883  0.3803
  757MOL0     C 2099   1.300  13.463  12.511 -0.1865  0.5138  0.0129
  757MOL0     C 2100   1.273  13.575  12.610  0.3564  1.0665 -0.1966
  757MOL0     C 2101   1.383  13.591  12.723  0.4647 -0.5830  0.9618
  757MOL0     C 2102   1.332  13.669  12.848  0.3683 -0.5399 -0.4643
  757MOL0     C 2103   1.427  13.666  12.959  0.6987 -0.6973  0.0127
  757MOL0    Cl 2104   1.361  13.734  13.110  0.0480  0.2501 -0.3090
  757MOL0     C 2105   0.795  13.435  12.134 -0.1635  0.6011  0.0652
  757MOL0     C 2106   0.695  13.415  12.037  0.6548  0.2524  0.8515
  757MOL0     O 2107   0.405  13.125  11.822 -0.0777 -0.1723  0.0403
  757MOL0     C 2108   0.521  12.915  11.964  0.2319 -0.3008 -1.0528
  757MOL0     C 2109   0.604  12.808  11.979 -0.5814  0.6683  0.0963
  757MOL0     N 2110   1.350  12.354  11.688 -0.0515  0.0224 -0.0808
  757MOL0     N 2111   1.335  12.275  11.586  0.0277 -0.0916 -1.4441
  757MOL0     C 2112   1.078  11.587  10.802  0.6183 -0.6096  0.2755
  757MOL0     C 2113   1.156  11.514  10.713  1.2735 -1.0937  1.1203
  757MOL0     C 2114   1.249  11.090  10.529 -0.0378  1.1052 -0.8992
  757MOL0     C 2115   1.260  10.959  10.581 -1.1483  0.0166 -0.7155
  757MOL0     C 2116   1.283  10.844  10.508 -0.1420  0.5123 -0.0257
  757MOL0     C 2117   1.309  10.865  10.366 -0.4426 -0.2652 -0.9040
  757MOL0     O 2118   1.352  10.758  10.303  0.9016 -0.1350  0.5076
  757MOL0     C 2119   1.293  10.718  10.179  0.2872 -1.2194 -0.6823
  757MOL0     C 2120   1.144  10.701  10.201 -0.8425 -0.5470  1.1524
  757MOL0     C 2121   1.102  10.619  10.322  0.2588 -0.6908 -1.3036
  757MOL0     C 2122   1.207  10.508  10.349  0.2401  0.8046  0.0001
  757MOL0     C 2123   1.151  10.399  10.420 -0.0630  1.0652 -0.3362
  757MOL0     C 2124   1.103  10.317  10.496 -0.2755  0.2583  0.1878
  757MOL0     C 2125   1.303  10.996  10.311 -0.0752  0.4941 -0.5520
  757MOL0     C 2126   1.279  11.103  10.392 -0.3646 -0.0676  0.0721
  757MOL0     C 2127   1.293  11.232  10.317  0.2002  0.6141 -0.8953
  757MOL0     H 2128   0.898  11.312  10.592  0.7430  0.0395  0.4864
  757MOL0     H 2129   0.771  11.469  10.756 -0.2768 -0.4710  1.5270
  757MOL0     H 2130   0.963  11.806  10.799 -0.0082 -0.8079  0.4958
  757MOL0     H 2131   0.798  11.765  10.754  0.4573 -2.1358 -0.1518
  757MOL0     H 2132   0.724  11.858  10.977  0.5740 -1.0956 -0.6141
  757MOL0     H 2133   0.814  11.978  10.887 -3.1297 -1.3256 -1.9935
  757MOL0     H 2134   1.019  11.946  10.998  0.3186 -0.4129 -0.3170
  757MOL0     H 2135   0.990  11.792  11.065  0.6962 -0.2791  1.1931
  757MOL0     H 2136   0.821  12.039  11.145 -0.6432 -1.6863 -0.5694
  757MOL0     H 2137   0.816  11.883  11.219 -1.1122  2.1819  1.9055
  757MOL0     H 2138   1.083  11.901  11.269  3.0023  1.8158  0.0685
  757MOL0     H 2139   1.078  12.052  11.196 -0.6830  1.2973  1.6865
  757MOL0     H 2140   0.894  12.128  11.348  1.4453  1.3814 -0.6099
  757MOL0     H 2141   0.896  11.964  11.423  1.0409 -3.7257 -3.6391
  757MOL0     H 2142   1.117  11.981  11.492  0.8558  0.7898  1.3648
  757MOL0     H 2143   1.001  12.092  11.574  0.0395  1.2634  0.9293
  757MOL0     H 2144   1.242  12.144  11.376  1.0623  0.9685 -0.4540
  757MOL0     H 2145   1.108  12.260  11.386  0.3108 -1.5462 -2.5194
  757MOL0     H 2146   1.031  12.341  11.645  0.4464 -1.7156 -2.6665
  757MOL0     H 2147   1.264  12.494  11.907  1.6717 -0.1383 -1.3603
  757MOL0     H 2148   1.178  12.594  11.786  1.5771 -0.3067  0.2360
  757MOL0     H 2149   0.975  12.482  11.816 -3.0146 -2.7734  1.9606
  757MOL0     H 2150   1.055  12.386  11.947 -0.2336 -0.0625 -0.7274
  757MOL0     H 2151   1.097  12.593  12.074  1.4440  1.4608 -1.0563
  757MOL0     H 2152   0.939  12.519  12.070 -0.4591  1.7998  0.3604
  757MOL0     H 2153   0.979  12.703  11.857  1.7627 -1.7786  0.2326
  757MOL0     H 2154   1.014  12.789  12.015 -1.1347  0.5343  0.5786
  757MOL0     H 2155   0.905  12.973  11.955 -0.0804  3.0897  0.5562
  757MOL0     H 2156   0.758  13.134  11.871 -1.3009  0.1692 -0.6563
  757MOL0     H 2157   0.557  13.125  12.158 -1.8475  1.1037  1.5200
  757MOL0     H 2158   0.724  13.164  12.329  2.0742 -0.6182  0.6684
  757MOL0     H 2159   0.908  13.226  12.469  0.9434 -1.1727  0.3876
  757MOL0     H 2160   1.016  13.236  12.326  1.1394  2.1417 -1.0993
  757MOL0     H 2161   1.003  13.444  12.551 -0.0815 -0.2825  0.3259
  757MOL0     H 2162   1.085  13.285  12.565 -3.2799 -1.1542 -0.0479
  757MOL0     H 2163   1.218  13.342  12.358  2.5933 -1.3585  1.6585
  757MOL0     H 2164   1.156  13.499  12.354  0.8320 -1.7709 -0.4767
  757MOL0     H 2165   1.383  13.500  12.450 -0.4258  0.1846 -0.5220
  757MOL0     H 2166   1.336  13.374  12.562  1.1171 -0.6947 -2.7945
  757MOL0     H 2167   1.172  13.562  12.651  0.4517  0.7144 -0.0766
  757MOL0     H 2168   1.260  13.667  12.551 -1.7572  1.0649  0.1908
  757MOL0     H 2169   1.421  13.490  12.743  3.5232  0.6161  1.6491
  757MOL0     H 2170   1.469  13.644  12.682 -1.3429  1.0241 -0.9743
  757MOL0     H 2171   1.237  13.627  12.882 -1.2696  3.8488  1.1611
  757MOL0     H 2172   1.305  13.770  12.816 -2.6567 -0.6049  1.4614
  757MOL0     H 2173   1.446  13.559  12.970 -0.3701 -1.1279 -1.8974
  757MOL0     H 2174   1.523  13.708  12.926  0.8276  1.1821  2.4861
  757MOL0     H 2175   0.859  13.522  12.135 -1.2028  1.4097 -0.7963
  757MOL0     H 2176   0.671  13.496  11.969 -4.2560 -0.9741  0.7620
  757MOL0     H 2177   0.416  12.914  11.991  0.3462 -0.6436 -0.6107
  757MOL0     H 2178   0.562  12.714  12.012  2.1140 -0.1276  1.6423
  757MOL0     H 2179   1.116  11.672  10.858 -0.7042 -0.4291  0.9569
  757MOL0     H 2180   1.262  11.540  10.713  0.8565  1.1812 -1.8467
  757MOL0     H 2181   1.254  10.947  10.688  1.4229  3.8701  0.0796
  757MOL0     H 2182   1.297  10.748  10.557 -2.9625  0.4438  0.8127
  757MOL0     H 2183   1.358  10.632  10.155  3.4365  0.5958  0.6420
  757MOL0     H 2184   1.317  10.792  10.102  2.9233 -0.5595  0.6533
  757MOL0     H 2185   1.106  10.650  10.112 -0.3197 -3.1850  2.3269
  757MOL0     H 2186   1.094  10.797  10.215 -0.2218 -0.1466  0.6764
  757MOL0     H 2187   1.003  10.578  10.299 -1.1923  0.9226  1.5179
  757MOL0     H 2188   1.086  10.684  10.409 -3.7381 -3.8278  0.6598
  757MOL0     H 2189   1.246  10.476  10.252 -0.6192  0.3178 -0.1990
  757MOL0     H 2190   1.284  10.550  10.414  1.8702  0.7798 -1.8350
  757MOL0     H 2191   1.053  10.245  10.558 -0.4778 -0.4265 -0.7467
  757MOL0     H 2192   1.326  11.011  10.206 -2.8184 -0.3538 -1.3416
  757MOL0     H 2193   1.197  11.278  10.294  1.8341  4.0012 -1.7163
  757MOL0     H 2194   1.352  11.293  10.387 -0.3214 -1.1227  1.1461
  757MOL0     H 2195   1.356  11.206  10.231  1.1063 -1.9139  0.4306
  758MOL0     O 2196   8.483   1.321   5.117 -0.7924 -0.3648 -0.0796
  758MOL0     C 2197   8.468   1.402   5.199  0.4594  0.6687  0.2381
  758MOL0     O 2198   8.570   1.482   5.243  0.1232  0.4045 -0.2099
  758MOL0     C 2199   8.704   1.468   5.217 -0.2175 -1.1662  0.6622
  758MOL0     C 2200   8.779   1.570   5.273 -0.3197  0.6938 -0.7490
  758MOL0     C 2201   8.919   1.579   5.255 -0.0571 -0.6004 -0.4015
  758MOL0     C 2202   8.986   1.489   5.168  0.6427 -0.6945  0.6543
  758MOL0     O 2203   9.108   1.501   5.126 -0.0344 -1.1677 -0.3383
  758MOL0     C 2204   9.153   1.629   5.088 -0.0510  0.0068  0.3790
  758MOL0     C 2205   9.307   1.646   5.072 -0.1161 -0.3560 -0.7507
  758MOL0     C 2206   9.345   1.789   5.038  0.0726 -0.4755 -0.6061
  758MOL0     C 2207   9.311   1.835   4.901 -0.0913  0.5190  0.3620
  758MOL0     C 2208   9.325   1.984   4.868 -0.5827 -0.5063 -0.3973
  758MOL0     C 2209   9.320   1.992   4.713 -0.0424 -0.1090  0.0543
  758MOL0     C 2210   9.361   2.132   4.650  0.4746 -0.7749  0.0581
  758MOL0     C 2211   9.508   2.138   4.593 -0.7679 -0.6605 -0.4577
  758MOL0     N 2212   9.619   2.116   4.691  0.1689 -0.8675 -0.5625
  758MOL0     C 2213   9.694   1.999   4.697 -1.4497 -0.7657  0.1137
  758MOL0     C 2214   9.762   2.016   4.816 -1.2850  0.2305 -0.1584
  758MOL0     C 2215   9.866   1.920   4.877  0.2008 -1.0410  0.5815
  758MOL0     C 2216   9.795   1.858   4.998  0.6772  0.6956  0.1415
  758MOL0     C 2217   9.792   1.951   5.114  0.8018  0.9931 -0.3690
  758MOL0     C 2218   9.793   1.882   5.256 -0.9039  0.8306 -1.2153
  758MOL0     O 2219   9.919   1.812   5.291  0.1906 -0.2928 -0.1524
  758MOL0     C 2220   9.994   1.822   5.403  0.9677  0.3435 -0.1819
  758MOL0     C 2221   9.950   1.862   5.521  0.1079 -0.3871 -0.5340
  758MOL0     C 2222  10.040   1.866   5.632  0.9031  0.3442  0.7486
  758MOL0     C 2223  10.164   1.793   5.626 -0.7789  0.4105  0.0907
  758MOL0     C 2224  10.242   1.774   5.745 -0.0723  0.5646  0.1733
  758MOL0     O 2225  10.187   1.808   5.868 -0.4145  0.0341 -0.9740
  758MOL0     C 2226  10.286   1.811   5.966 -0.3537 -0.3391 -0.1497
  758MOL0     C 2227  10.271   1.732   6.076 -0.1048  0.9149 -0.2960
  758MOL0     C 2228  10.349   1.755   6.189 -0.0976 -0.9618 -0.2182
  758MOL0     C 2229  10.451   1.853   6.205  0.4028 -0.1485  0.5391
  758MOL0     O 2230  10.492   1.907   6.324  0.0471 -0.4214  0.1225
  758MOL0     C 2231  10.476   1.843   6.450  0.7616  0.1855 -0.1848
  758MOL0     C 2232  10.596   1.890   6.535  0.5787 -0.7734 -0.1730
  758MOL0     C 2233  10.633   1.775   6.613  0.5703 -0.3042 -0.8288
  758MOL0     C 2234  10.777   1.797   6.662  0.5286  0.3149 -0.3647
  758MOL0     C 2235  10.787   1.915   6.754  0.6180 -0.8662  0.6946
  758MOL0     C 2236  10.940   1.926   6.803  0.4950  0.5644  0.1912
  758MOL0     C 2237  11.043   1.953   6.690  0.2825 -0.3677  0.8250
  758MOL0     C 2238  10.997   2.073   6.600 -0.6427  0.4754  0.4764
  758MOL0    Cl 2239  10.996   2.225   6.697  0.2667  0.0388  0.0012
  758MOL0     C 2240  10.461   1.936   6.091 -0.0705 -0.0365 -0.2769
  758MOL0     C 2241  10.388   1.917   5.971 -0.1265  0.6238  0.1903
  758MOL0     O 2242  10.348   1.708   5.736 -0.2047 -0.1317  0.3107
  758MOL0     C 2243  10.196   1.739   5.494  0.2564 -0.0367 -0.0212
  758MOL0     C 2244  10.121   1.771   5.386  1.3708 -0.0027  0.2577
  758MOL0     N 2245   9.746   2.148   4.859 -0.1302  0.0847  0.0223
  758MOL0     N 2246   9.654   2.204   4.786  0.3534 -0.3340 -0.4189
  758MOL0     C 2247   8.911   1.386   5.115  0.5155  0.0895  0.1831
  758MOL0     C 2248   8.766   1.383   5.136 -0.9496  0.1144  0.0312
  758MOL0     C 2249   8.331   1.426   5.262 -1.0045  0.3141 -0.4384
  758MOL0     C 2250   8.331   1.486   5.393 -0.0749  0.3360  0.3549
  758MOL0     C 2251   8.213   1.521   5.464 -0.2146  0.5367  0.9348
  758MOL0     C 2252   8.096   1.502   5.398  0.5180 -0.0906 -0.0769
  758MOL0     O 2253   7.971   1.548   5.458 -0.1527 -0.6019  1.1034
  758MOL0     C 2254   7.980   1.687   5.500  0.2689 -0.1464 -0.8736
  758MOL0     C 2255   7.915   1.705   5.638 -0.5254 -0.3171  1.1691
  758MOL0     C 2256   7.769   1.659   5.636 -0.9378  0.1592 -0.1414
  758MOL0     C 2257   7.687   1.696   5.509  0.0503  0.1954  0.5232
  758MOL0     C 2258   7.551   1.638   5.526 -0.4477 -0.5210  0.6128
  758MOL0     C 2259   7.432   1.608   5.509 -0.1274 -0.9292 -0.8544
  758MOL0     C 2260   8.093   1.450   5.273  0.7510  0.2368 -0.1956
  758MOL0     C 2261   8.206   1.403   5.199 -0.3855 -0.1962 -0.6176
  758MOL0     C 2262   8.193   1.362   5.056 -0.0843 -0.4923 -0.6859
  758MOL0     H 2263   8.728   1.643   5.335  0.7463 -0.6438  1.8678
  758MOL0     H 2264   8.966   1.666   5.301 -1.2586 -0.7151  1.0910
  758MOL0     H 2265   9.117   1.643   4.986 -0.4297 -1.3467  0.3116
  758MOL0     H 2266   9.120   1.713   5.151 -1.6076 -1.4502  1.6137
  758MOL0     H 2267   9.346   1.578   4.996 -1.5827 -1.4786 -0.5371
  758MOL0     H 2268   9.359   1.628   5.167  2.5746  1.5219 -1.7520
  758MOL0     H 2269   9.452   1.812   5.041 -0.0485  0.0001  0.8760
  758MOL0     H 2270   9.290   1.858   5.103 -0.6697  0.3608 -2.0657
  758MOL0     H 2271   9.362   1.770   4.829 -0.6817  0.9793 -0.4909
  758MOL0     H 2272   9.204   1.818   4.889 -0.6590 -0.5520  5.1928
  758MOL0     H 2273   9.242   2.044   4.909 -0.1880 -0.0881 -0.2056
  758MOL0     H 2274   9.423   2.015   4.904 -0.6980 -1.0345  0.4005
  758MOL0     H 2275   9.378   1.907   4.676  1.6903  0.2798  1.7023
  758MOL0     H 2276   9.220   1.972   4.672 -0.8216  3.4051 -0.0693
  758MOL0     H 2277   9.348   2.205   4.730 -1.1118 -0.2702 -0.6336
  758MOL0     H 2278   9.290   2.163   4.573  1.7885 -0.0523 -0.9049
  758MOL0     H 2279   9.512   2.058   4.518 -0.8851  0.9410 -2.2671
  758MOL0     H 2280   9.519   2.232   4.539  0.9643 -0.7608 -0.3516
  758MOL0     H 2281   9.685   1.908   4.638 -5.0519 -2.1252  2.4074
  758MOL0     H 2282   9.899   1.844   4.805  0.5682  1.7452 -2.4392
  758MOL0     H 2283   9.960   1.973   4.897  0.2702 -1.3960  1.2038
  758MOL0     H 2284   9.694   1.844   4.960  1.1829 -1.4395 -0.5715
  758MOL0     H 2285   9.828   1.764   5.044 -0.8447 -0.3160 -0.7309
  758MOL0     H 2286   9.699   2.009   5.116 -0.1395 -0.4376  2.0008
  758MOL0     H 2287   9.879   2.016   5.106  1.6838 -0.2093 -0.7970
  758MOL0     H 2288   9.709   1.812   5.260 -3.0491  3.2309 -0.9925
  758MOL0     H 2289   9.778   1.969   5.320  2.0676  1.2659 -0.9907
  758MOL0     H 2290   9.848   1.897   5.525  0.1487 -0.3462  1.6410
  758MOL0     H 2291  10.006   1.910   5.725  2.4065  0.7299  1.1367
  758MOL0     H 2292  10.204   1.647   6.086  0.2398  0.4655 -1.6229
  758MOL0     H 2293  10.331   1.693   6.276 -2.9448  0.9814  0.7269
  758MOL0     H 2294  10.379   1.854   6.498 -0.5344 -0.0435 -2.5941
  758MOL0     H 2295  10.489   1.737   6.426 -1.3608 -0.1708  0.0560
  758MOL0     H 2296  10.689   1.917   6.485  3.0880 -0.1939  4.2965
  758MOL0     H 2297  10.571   1.981   6.590  2.5819 -0.2631 -0.0416
  758MOL0     H 2298  10.564   1.738   6.690 -0.9970  0.6957 -1.7116
  758MOL0     H 2299  10.639   1.686   6.549 -1.1621 -0.9269 -0.2004
  758MOL0     H 2300  10.850   1.802   6.580 -1.2376 -2.5099 -2.2883
  758MOL0     H 2301  10.812   1.710   6.719 -0.9547 -2.0555 -2.8081
  758MOL0     H 2302  10.720   1.888   6.836 -0.2858 -0.5327  0.0835
  758MOL0     H 2303  10.754   2.010   6.711 -0.8328 -0.7309  2.0390
  758MOL0     H 2304  10.954   1.996   6.886  0.1398 -1.1587  1.7748
  758MOL0     H 2305  10.960   1.831   6.854  2.3501  0.0262 -1.4006
  758MOL0     H 2306  11.045   1.869   6.620 -1.0725 -0.2412  0.6011
  758MOL0     H 2307  11.145   1.961   6.727  0.8940 -1.4035 -0.5396
  758MOL0     H 2308  11.067   2.076   6.515 -0.3192 -0.5323  0.6959
  758MOL0     H 2309  10.898   2.053   6.557  0.7128 -0.6074 -2.4186
  758MOL0     H 2310  10.517   2.024   6.120 -1.8978  1.2414 -0.4244
  758MOL0     H 2311  10.386   1.992   5.892 -2.1982  0.9871  0.5155
  758MOL0     H 2312  10.286   1.680   5.483 -1.1080 -1.9186 -1.8538
  758MOL0     H 2313  10.155   1.738   5.289  2.2548  1.9943 -0.1623
  758MOL0     H 2314   8.969   1.313   5.059 -0.4071 -0.6875  0.2082
  758MOL0     H 2315   8.713   1.299   5.093 -1.0672 -0.0062  0.4052
  758MOL0     H 2316   8.430   1.506   5.434  2.6942 -2.4147 -4.0606
  758MOL0     H 2317   8.201   1.537   5.571 -0.3988  0.7319  0.8838
  758MOL0     H 2318   7.924   1.753   5.433  0.6727  0.1768 -0.8917
  758MOL0     H 2319   8.085   1.719   5.502  0.1758  0.1207  1.3666
  758MOL0     H 2320   7.924   1.812   5.659  1.3056 -0.4945  1.4627
  758MOL0     H 2321   7.966   1.651   5.718  0.6317 -0.4170  0.3933
  758MOL0     H 2322   7.714   1.701   5.721 -0.8658 -1.0077  0.5054
  758MOL0     H 2323   7.781   1.553   5.658  0.8816  0.5694  1.0526
  758MOL0     H 2324   7.667   1.804   5.514 -0.6182  0.0281  1.7564
  758MOL0     H 2325   7.732   1.667   5.413 -0.7752 -1.2984  0.5541
  758MOL0     H 2326   7.328   1.594   5.489 -0.0198 -2.0757 -0.6488
  758MOL0     H 2327   7.998   1.448   5.220 -1.4260 -1.1466  3.3965
  758MOL0     H 2328   8.240   1.267   5.031  2.5101 -0.0192  1.9450
  758MOL0     H 2329   8.090   1.346   5.023 -0.1099 -0.8268 -0.4422
  758MOL0     H 2330   8.241   1.438   4.992 -0.8831 -0.8877 -1.7899
  759MOL0     O 2331   3.771   9.926   9.687  0.5071 -0.1132 -0.6099
  759MOL0     C 2332   3.699   9.945   9.585 -1.2138  0.1536 -0.8858
  759MOL0     O 2333   3.655  10.069   9.542 -0.1688  0.0166  0.1246
  759MOL0     C 2334   3.643  10.192   9.603 -0.2562 -0.2490  0.4315
  759MOL0     C 2335   3.583  10.298   9.520  0.3629 -0.3458  0.6697
  759MOL0     C 2336   3.556  10.423   9.575 -1.2543 -0.2745 -0.0946
  759MOL0     C 2337   3.600  10.451   9.699 -0.7140 -0.7396  0.2617
  759MOL0     O 2338   3.586  10.576   9.748  1.0525  0.0123 -0.3292
  759MOL0     C 2339   3.621  10.624   9.881  0.0749 -0.0232  0.1089
  759MOL0     C 2340   3.542  10.756   9.911  0.1420  0.0376  0.4665
  759MOL0     C 2341   3.627  10.845  10.001  0.5725 -0.7975 -0.6157
  759MOL0     C 2342   3.567  10.989   9.985 -0.5025  0.1362 -0.8902
  759MOL0     C 2343   3.626  11.103  10.079  0.3708 -0.4831  0.1503
  759MOL0     C 2344   3.774  11.115  10.085  1.0940  0.5136  0.1187
  759MOL0     C 2345   3.829  11.201  10.203 -0.1740  0.1731  0.0422
  759MOL0     C 2346   3.808  11.352  10.180 -0.1087 -0.2375  0.0219
  759MOL0     N 2347   3.895  11.418  10.078  0.3998 -0.2384  0.4788
  759MOL0     C 2348   4.006  11.494  10.116 -0.6441  0.0770  0.3649
  759MOL0     C 2349   4.056  11.541  10.011  0.0602 -0.2706  1.4131
  759MOL0     C 2350   4.173  11.637   9.987  0.0266  0.7928  0.0245
  759MOL0     C 2351   4.276  11.576   9.887  0.4515  0.1642 -0.8073
  759MOL0     C 2352   4.413  11.646   9.885 -0.1479 -0.0429  0.4398
  759MOL0     C 2353   4.498  11.648  10.012  0.3260 -0.4062 -0.4273
  759MOL0     O 2354   4.547  11.521  10.069  0.5945  0.3478  0.4579
  759MOL0     C 2355   4.655  11.472   9.997  1.0080 -0.6170 -0.4786
  759MOL0     C 2356   4.644  11.356   9.912  0.1871 -0.2722  0.0745
  759MOL0     C 2357   4.748  11.320   9.837  0.4364 -0.1274  0.5491
  759MOL0     C 2358   4.865  11.386   9.840 -0.0095 -0.3030  0.2308
  759MOL0     C 2359   4.974  11.350   9.743  0.6383  0.4805  0.4729
  759MOL0     O 2360   4.927  11.288   9.616 -0.1682  0.2099  0.0199
  759MOL0     C 2361   5.011  11.229   9.528 -0.2943  0.5425 -0.1876
  759MOL0     C 2362   5.142  11.186   9.550 -0.2635 -0.4102 -0.4273
  759MOL0     C 2363   5.205  11.098   9.475  0.8255 -0.3618  1.1000
  759MOL0     C 2364   5.157  11.053   9.352  2.0741  0.6005  0.3986
  759MOL0     O 2365   5.212  10.963   9.267  0.3971  0.0966 -1.0577
  759MOL0     C 2366   5.345  10.922   9.304 -0.3814 -0.2419  0.9734
  759MOL0     C 2367   5.386  10.809   9.208 -0.4035 -0.9735  0.2453
  759MOL0     C 2368   5.520  10.747   9.238 -1.1418  1.1242  0.0832
  759MOL0     C 2369   5.531  10.617   9.151  0.4644  0.3900 -0.7116
  759MOL0     C 2370   5.538  10.490   9.242  0.1223 -0.2238 -0.0692
  759MOL0     C 2371   5.677  10.475   9.310 -1.0944 -0.1866  0.2004
  759MOL0     C 2372   5.689  10.330   9.374 -0.6440 -0.1449 -0.4588
  759MOL0     C 2373   5.828  10.283   9.386  0.2160 -1.0386 -0.0190
  759MOL0    Cl 2374   5.904  10.406   9.490  0.2371 -0.1946  0.0910
  759MOL0     C 2375   5.028  11.103   9.317 -0.1830  0.1212 -0.0956
  759MOL0     C 2376   4.959  11.197   9.398  0.7575 -1.3980 -0.4707
  759MOL0     O 2377   5.088  11.375   9.783 -0.6278  0.3243  1.1595
  759MOL0     C 2378   4.877  11.495   9.917  0.0310 -0.4091 -0.3616
  759MOL0     C 2379   4.774  11.545   9.997  0.7526  1.0646 -0.0133
  759MOL0     N 2380   3.976  11.491   9.901 -0.0904  0.5759 -0.2164
  759MOL0     N 2381   3.885  11.413   9.941  0.5639 -0.1811  0.0768
  759MOL0     C 2382   3.671  10.351   9.776  0.0259 -0.4451 -0.9668
  759MOL0     C 2383   3.686  10.220   9.727 -0.4323  0.4806 -0.3284
  759MOL0     C 2384   3.672   9.827   9.493 -0.4398 -0.3986 -0.5646
  759MOL0     C 2385   3.630   9.852   9.367 -0.0152 -0.5499 -0.7913
  759MOL0     C 2386   3.604   9.746   9.282 -0.0716 -0.5359 -0.0224
  759MOL0     C 2387   3.632   9.614   9.317 -0.5281 -0.3042 -0.0369
  759MOL0     O 2388   3.617   9.499   9.246 -0.0125  0.1980 -0.3282
  759MOL0     C 2389   3.533   9.500   9.128  0.2536 -0.9879 -0.1531
  759MOL0     C 2390   3.606   9.559   9.003  0.6386 -0.1101 -0.1133
  759MOL0     C 2391   3.724   9.471   8.970 -0.9648 -0.1386 -0.5742
  759MOL0     C 2392   3.819   9.527   8.860 -0.2213  0.0880 -0.8698
  759MOL0     C 2393   3.757   9.513   8.733  0.5866 -0.2228 -0.2071
  759MOL0     C 2394   3.714   9.490   8.622 -0.7905 -0.6095  0.0248
  759MOL0     C 2395   3.680   9.598   9.438  0.2755  0.4706 -0.5726
  759MOL0     C 2396   3.710   9.696   9.528  0.1167 -0.4564  0.0387
  759MOL0     C 2397   3.758   9.654   9.670  0.6574 -0.3502  0.0735
  759MOL0     H 2398   3.550  10.274   9.420 -1.1719 -0.9994  1.3003
  759MOL0     H 2399   3.502  10.496   9.514 -1.2760 -1.8676 -2.1037
  759MOL0     H 2400   3.588  10.556   9.961 -4.7456  2.8361  0.9565
  759MOL0     H 2401   3.727  10.649   9.870  0.3530 -1.1630  0.1248
  759MOL0     H 2402   3.450  10.719   9.956  0.2920 -2.5628 -1.1427
  759MOL0     H 2403   3.524  10.801   9.813  3.1648 -2.0243 -1.1811
  759MOL0     H 2404   3.732  10.847   9.972  0.0746 -1.8928 -2.6972
  759MOL0     H 2405   3.621  10.801  10.101 -0.9536 -1.3337 -0.9025
  759MOL0     H 2406   3.577  11.031   9.884  0.4703  1.2944 -0.3355
  759MOL0     H 2407   3.462  10.970  10.007  0.2829 -0.9250  2.5026
  759MOL0     H 2408   3.593  11.199  10.038  1.1682 -0.3060 -0.0919
  759MOL0     H 2409   3.584  11.093  10.179  0.7079 -1.9812  0.1790
  759MOL0     H 2410   3.793  11.008  10.103 -0.3260  0.3513  0.7405
  759MOL0     H 2411   3.804  11.139   9.982  0.1686 -0.5254 -0.4259
  759MOL0     H 2412   3.935  11.173  10.209 -0.8364 -2.7259 -0.4562
  759MOL0     H 2413   3.781  11.162  10.293 -3.9807 -0.5121 -2.0672
  759MOL0     H 2414   3.705  11.366  10.148  0.4311 -1.5943 -2.6328
  759MOL0     H 2415   3.814  11.407  10.274 -4.0531  1.2235 -0.4207
  759MOL0     H 2416   4.041  11.514  10.217  1.8729  1.0371 -0.6105
  759MOL0     H 2417   4.130  11.715   9.924  1.8901 -0.4573 -3.0587
  759MOL0     H 2418   4.225  11.676  10.075  2.3654 -1.2021 -0.3380
  759MOL0     H 2419   4.305  11.472   9.906 -0.1041  0.4109  1.6923
  759MOL0     H 2420   4.235  11.575   9.785  2.5423  1.6664 -1.7337
  759MOL0     H 2421   4.384  11.746   9.851 -0.2631  0.1840  1.1892
  759MOL0     H 2422   4.477  11.594   9.813  0.9255  2.4895 -0.5626
  759MOL0     H 2423   4.429  11.685  10.088  3.1524 -0.2444  2.2809
  759MOL0     H 2424   4.577  11.723   9.999 -0.4321  0.0521 -2.8390
  759MOL0     H 2425   4.552  11.299   9.901  0.4614 -0.3446 -2.5685
  759MOL0     H 2426   4.737  11.228   9.780  0.5363  0.7501 -0.9504
  759MOL0     H 2427   5.205  11.230   9.627 -1.8588  0.4278  0.4301
  759MOL0     H 2428   5.305  11.075   9.509  1.3994 -1.1246 -0.9608
  759MOL0     H 2429   5.409  11.004   9.272 -1.8351 -0.5432 -3.2596
  759MOL0     H 2430   5.351  10.878   9.404 -4.2509 -1.0184  1.0235
  759MOL0     H 2431   5.309  10.732   9.202  0.0858 -1.4234 -0.4115
  759MOL0     H 2432   5.393  10.855   9.108 -2.1874 -0.6032  0.2640
  759MOL0     H 2433   5.605  10.813   9.221 -0.9056  0.5446 -1.0618
  759MOL0     H 2434   5.501  10.715   9.341 -3.3135 -0.7937 -0.8007
  759MOL0     H 2435   5.610  10.622   9.076  0.8719  1.3102 -0.2306
  759MOL0     H 2436   5.445  10.599   9.085 -1.9120  2.9736  1.4900
  759MOL0     H 2437   5.514  10.402   9.181  2.2034 -0.5077 -0.5374
  759MOL0     H 2438   5.473  10.502   9.329 -0.6538  1.6263 -0.8507
  759MOL0     H 2439   5.760  10.500   9.243 -1.5415  2.3832  0.4852
  759MOL0     H 2440   5.679  10.550   9.390  0.7186  0.7232 -0.6308
  759MOL0     H 2441   5.625  10.259   9.320  0.1545 -1.7944  0.6684
  759MOL0     H 2442   5.652  10.331   9.477 -1.0117 -4.3914 -0.3770
  759MOL0     H 2443   5.836  10.192   9.447  0.0037  0.7699  2.9259
  759MOL0     H 2444   5.874  10.267   9.288  0.4348 -3.8768  0.4570
  759MOL0     H 2445   4.990  11.075   9.219  1.9599 -2.8187 -0.2213
  759MOL0     H 2446   4.868  11.242   9.359  0.7798  0.5331  1.5261
  759MOL0     H 2447   4.964  11.559   9.929 -1.3967  1.2940  1.4858
  759MOL0     H 2448   4.784  11.632  10.062 -0.2414 -0.8862  2.9554
  759MOL0     H 2449   3.735  10.389   9.856  0.6061 -0.8990 -1.2098
  759MOL0     H 2450   3.727  10.142   9.790 -2.5973 -1.0009 -0.6342
  759MOL0     H 2451   3.604   9.952   9.334 -4.1005 -1.4581 -0.8208
  759MOL0     H 2452   3.546   9.769   9.193 -3.0719  0.0076  1.9269
  759MOL0     H 2453   3.445   9.563   9.142  0.6019 -0.0297 -1.9594
  759MOL0     H 2454   3.515   9.398   9.090  4.2782 -0.8462 -3.1127
  759MOL0     H 2455   3.642   9.661   9.020 -1.8703  0.5375  1.9779
  759MOL0     H 2456   3.538   9.573   8.919  1.2432  0.8867 -0.4650
  759MOL0     H 2457   3.691   9.374   8.933  0.2137  0.4116 -3.3198
  759MOL0     H 2458   3.788   9.450   9.057 -2.8934  0.4373  1.0495
  759MOL0     H 2459   3.838   9.635   8.867  2.2245 -0.3931  1.8349
  759MOL0     H 2460   3.915   9.475   8.869  0.9288  2.2110 -0.0026
  759MOL0     H 2461   3.680   9.469   8.522 -0.7708 -2.1069  0.3049
  759MOL0     H 2462   3.693   9.497   9.474 -1.1291 -0.9966 -3.7585
  759MOL0     H 2463   3.791   9.550   9.670  3.0127  0.3224 -1.7238
  759MOL0     H 2464   3.849   9.709   9.697  0.0789  1.4279 -1.4458
  759MOL0     H 2465   3.675   9.678   9.737  0.6744  1.1490 -0.4033
  760MOL0     O 2466   7.562   9.088   3.724 -0.1168  0.4189 -0.2308
  760MOL0     C 2467   7.520   8.999   3.798  0.0595  0.7210  0.9358
  760MOL0     O 2468   7.441   9.016   3.913 -0.0029  0.1585 -0.0731
  760MOL0     C 2469   7.466   9.128   3.976  0.1406 -1.0061 -0.3073
  760MOL0     C 2470   7.590   9.158   4.044  0.6938 -0.1977  0.3557
  760MOL0     C 2471   7.608   9.288   4.097 -0.4516  0.6545 -0.1056
  760MOL0     C 2472   7.501   9.381   4.106  0.1883 -0.3403 -0.7781
  760MOL0     O 2473   7.515   9.494   4.184  0.2119 -0.7294 -0.8907
  760MOL0     C 2474   7.404   9.573   4.228 -0.8983  0.8442  1.0251
  760MOL0     C 2475   7.304   9.512   4.327  0.3685  0.2841  0.3445
  760MOL0     C 2476   7.214   9.617   4.402 -0.1343  0.7917  0.2120
  760MOL0     C 2477   7.069   9.579   4.395  0.5166 -1.8151  0.2379
  760MOL0     C 2478   6.986   9.684   4.480 -0.4569  0.3373  0.6325
  760MOL0     C 2479   6.997   9.837   4.441 -1.2349  0.9199 -0.7134
  760MOL0     C 2480   6.872   9.923   4.466 -0.7299  0.6102 -0.1976
  760MOL0     C 2481   6.890  10.064   4.427  0.1507 -0.2068 -0.7695
  760MOL0     N 2482   6.986  10.137   4.512  0.1366 -0.1031 -1.0454
  760MOL0     C 2483   6.971  10.163   4.648  1.0631 -0.2531 -0.5363
  760MOL0     C 2484   7.090  10.211   4.683  0.0785 -1.1174  0.9087
  760MOL0     C 2485   7.138  10.248   4.821 -1.0649 -1.0538 -0.6299
  760MOL0     C 2486   7.104  10.394   4.866  0.7280  0.2277  0.0283
  760MOL0     C 2487   7.041  10.391   5.001  0.1212  1.0406 -0.9888
  760MOL0     C 2488   6.893  10.392   4.992 -0.8710  0.0907 -0.9641
  760MOL0     O 2489   6.837  10.282   4.924  0.3681 -0.2379 -0.2524
  760MOL0     C 2490   6.696  10.274   4.945 -1.0350 -0.6907  0.5184
  760MOL0     C 2491   6.607  10.364   5.013 -0.7233  1.2393  0.1656
  760MOL0     C 2492   6.479  10.326   5.042 -0.0714  0.4971  0.0991
  760MOL0     C 2493   6.434  10.190   5.014 -1.3192  0.3635  0.5088
  760MOL0     C 2494   6.298  10.155   5.046  0.0385  0.2235  0.0793
  760MOL0     O 2495   6.241  10.073   4.954 -0.1679 -1.0832 -0.2180
  760MOL0     C 2496   6.129   9.991   4.986 -0.7241  0.2866  0.1545
  760MOL0     C 2497   6.154   9.856   5.007 -0.2375  0.9245  0.1665
  760MOL0     C 2498   6.044   9.764   5.012  0.2917  0.3631 -0.4117
  760MOL0     C 2499   5.910   9.818   5.007  0.1333 -0.4484  0.2381
  760MOL0     O 2500   5.810   9.728   4.986 -0.1774  0.3913 -0.2045
  760MOL0     C 2501   5.754   9.688   5.119  0.0000 -1.2130  0.5893
  760MOL0     C 2502   5.675   9.803   5.207  0.3400  0.0971 -0.8136
  760MOL0     C 2503   5.568   9.888   5.126  0.2720  0.3806 -0.4250
  760MOL0     C 2504   5.454   9.799   5.079  0.3203  0.2800  0.2810
  760MOL0     C 2505   5.357   9.881   4.989  0.3117 -0.3664 -0.5567
  760MOL0     C 2506   5.229   9.797   4.967 -0.2545 -0.5381 -0.6596
  760MOL0     C 2507   5.262   9.655   4.904  0.5482  0.0124  0.4700
  760MOL0     C 2508   5.133   9.575   4.865  0.6005 -1.0710 -0.0336
  760MOL0    Cl 2509   5.023   9.554   5.011 -0.2700 -0.1159  0.7788
  760MOL0     C 2510   5.888   9.954   4.998  0.8639 -0.5658 -0.4220
  760MOL0     C 2511   5.997  10.041   4.998 -0.1219  0.0710  0.2400
  760MOL0     O 2512   6.247  10.189   5.156  0.0321  0.8080 -0.2290
  760MOL0     C 2513   6.520  10.104   4.934 -0.8338 -0.8346  0.1073
  760MOL0     C 2514   6.652  10.143   4.915  0.4696 -0.4029  0.1394
  760MOL0     N 2515   7.176  10.216   4.569 -0.0048 -0.0981 -0.1910
  760MOL0     N 2516   7.109  10.167   4.475 -0.7847  0.1625  0.2358
  760MOL0     C 2517   7.381   9.351   4.032  0.3903  0.0265 -0.4647
  760MOL0     C 2518   7.369   9.227   3.972  0.7493  0.0368  0.8606
  760MOL0     C 2519   7.532   8.860   3.748 -0.3535 -0.0219  0.2906
  760MOL0     C 2520   7.652   8.808   3.708 -0.6275  0.5632 -0.0966
  760MOL0     C 2521   7.665   8.672   3.665 -0.0887 -0.2029  0.6478
  760MOL0     C 2522   7.556   8.599   3.641 -0.3396 -0.4130 -0.4065
  760MOL0     O 2523   7.572   8.472   3.594 -0.1349  0.4995 -0.2635
  760MOL0     C 2524   7.475   8.365   3.628 -1.1080  0.2152  0.2104
  760MOL0     C 2525   7.498   8.236   3.551 -0.3233 -0.4676  0.3703
  760MOL0     C 2526   7.550   8.250   3.403  0.2995  0.4962 -1.4140
  760MOL0     C 2527   7.458   8.329   3.302 -0.2797 -0.2680 -0.2115
  760MOL0     C 2528   7.321   8.267   3.277  0.5630  0.2345 -0.0703
  760MOL0     C 2529   7.218   8.209   3.256  0.5414 -1.1739  0.2887
  760MOL0     C 2530   7.429   8.657   3.680  0.3824  1.2750  0.6889
  760MOL0     C 2531   7.413   8.789   3.731 -0.2701  1.0003 -0.5869
  760MOL0     C 2532   7.273   8.846   3.728  0.9356 -0.1469  0.1030
  760MOL0     H 2533   7.666   9.081   4.032  0.4164 -0.3979 -0.1755
  760MOL0     H 2534   7.703   9.312   4.144 -1.1654 -0.6894  2.1745
  760MOL0     H 2535   7.440   9.666   4.273  0.7121  1.3769 -1.1307
  760MOL0     H 2536   7.349   9.612   4.141  0.4321  2.0416  0.6921
  760MOL0     H 2537   7.361   9.458   4.403  1.1455  2.4064  1.3530
  760MOL0     H 2538   7.245   9.436   4.275  2.5691 -1.9420  0.8996
  760MOL0     H 2539   7.226   9.716   4.358 -0.2698 -0.5742 -3.2104
  760MOL0     H 2540   7.252   9.627   4.504 -0.7802 -1.3401  0.7160
  760MOL0     H 2541   7.039   9.575   4.290  2.6963  0.0171 -0.5282
  760MOL0     H 2542   7.065   9.483   4.447  0.6045 -1.2896  1.2475
  760MOL0     H 2543   6.881   9.656   4.466 -0.5103  1.3430 -1.3211
  760MOL0     H 2544   7.013   9.667   4.585 -1.9453 -0.6069  0.8943
  760MOL0     H 2545   7.077   9.884   4.500 -2.0119 -0.7907  1.8714
  760MOL0     H 2546   7.015   9.841   4.334 -2.8764 -3.3961 -1.3480
  760MOL0     H 2547   6.829   9.912   4.567  1.2450 -0.6162  0.5638
  760MOL0     H 2548   6.794   9.880   4.403 -0.9473 -0.6422  0.8632
  760MOL0     H 2549   6.929  10.080   4.326  3.8131  3.1070  0.8482
  760MOL0     H 2550   6.795  10.117   4.419  0.9900  2.0506  2.0678
  760MOL0     H 2551   6.890  10.143   4.718  1.9589 -2.9280 -0.1647
  760MOL0     H 2552   7.096  10.181   4.897 -3.2658  0.9183  0.0171
  760MOL0     H 2553   7.247  10.237   4.819 -0.7502  1.6232 -0.9677
  760MOL0     H 2554   7.200  10.447   4.866 -0.2904  2.1800 -0.6081
  760MOL0     H 2555   7.054  10.458   4.792  3.5770  2.7506  0.0961
  760MOL0     H 2556   7.066  10.476   5.066  0.4960 -0.3851  0.8090
  760MOL0     H 2557   7.072  10.305   5.061 -2.5430 -0.1632 -1.2225
  760MOL0     H 2558   6.867  10.481   4.934  0.3349  2.9006  2.4304
  760MOL0     H 2559   6.850  10.406   5.092  0.5196 -1.0384 -0.1654
  760MOL0     H 2560   6.635  10.463   5.046 -3.4602  1.2669  2.8238
  760MOL0     H 2561   6.412  10.403   5.080 -1.3372 -0.7454  0.4344
  760MOL0     H 2562   6.255   9.817   5.023 -1.2144 -0.8085  2.8927
  760MOL0     H 2563   6.054   9.656   5.014 -0.3404  0.2871 -1.0985
  760MOL0     H 2564   5.674   9.617   5.098 -2.2245  0.9511  1.2284
  760MOL0     H 2565   5.831   9.639   5.179 -1.4252 -5.1676 -0.5214
  760MOL0     H 2566   5.624   9.755   5.291 -1.1055 -2.1242 -2.8097
  760MOL0     H 2567   5.749   9.874   5.245 -0.5248  0.2360  0.6833
  760MOL0     H 2568   5.533   9.973   5.184 -0.8205  0.3219 -0.9886
  760MOL0     H 2569   5.613   9.944   5.043 -0.2374  0.5667 -0.5771
  760MOL0     H 2570   5.402   9.758   5.166 -1.8957  0.7207 -0.7576
  760MOL0     H 2571   5.499   9.713   5.029  2.1920  0.5793  1.3538
  760MOL0     H 2572   5.400   9.905   4.891  1.4169  0.8677  0.2045
  760MOL0     H 2573   5.339   9.978   5.036 -0.8175 -1.3572  1.1713
  760MOL0     H 2574   5.172   9.789   5.060 -2.0681  4.2318 -1.0875
  760MOL0     H 2575   5.160   9.853   4.903  1.0397  0.9230 -0.8271
  760MOL0     H 2576   5.316   9.588   4.972  4.2416 -1.5391 -3.5601
  760MOL0     H 2577   5.322   9.675   4.815  0.6957  3.7313  1.2424
  760MOL0     H 2578   5.071   9.632   4.796  1.4683  1.2471  1.0020
  760MOL0     H 2579   5.146   9.476   4.820 -2.2463 -1.5675  0.0902
  760MOL0     H 2580   5.788   9.988   4.975  1.5146  3.0542  1.3036
  760MOL0     H 2581   5.982  10.148   4.983 -1.3574  0.0069  0.8996
  760MOL0     H 2582   6.489  10.001   4.916  1.7913 -2.1478  2.3631
  760MOL0     H 2583   6.724  10.066   4.890  2.4815  1.6447 -0.7722
  760MOL0     H 2584   7.300   9.422   4.014  1.3856  0.2782 -5.8573
  760MOL0     H 2585   7.284   9.198   3.911  0.5923  2.1959 -0.0254
  760MOL0     H 2586   7.747   8.853   3.732  1.5579 -3.0273 -1.1843
  760MOL0     H 2587   7.753   8.623   3.625  0.4999  0.3214  1.2540
  760MOL0     H 2588   7.372   8.398   3.615 -0.9718  0.0239 -1.5808
  760MOL0     H 2589   7.490   8.328   3.730 -0.9550 -0.2501  0.0219
  760MOL0     H 2590   7.400   8.188   3.556 -1.2454  1.0259 -1.9252
  760MOL0     H 2591   7.570   8.175   3.607  0.5730  0.7355  0.5452
  760MOL0     H 2592   7.571   8.151   3.362  0.3124  2.0570 -5.6264
  760MOL0     H 2593   7.647   8.301   3.404 -0.1930  1.4833 -2.2349
  760MOL0     H 2594   7.426   8.428   3.338 -0.5749 -0.0512 -1.0571
  760MOL0     H 2595   7.504   8.334   3.203 -2.2459  0.7424 -1.1206
  760MOL0     H 2596   7.138   8.138   3.248 -2.0532  1.6646 -0.8303
  760MOL0     H 2597   7.342   8.593   3.671  1.0341  0.5413 -0.4896
  760MOL0     H 2598   7.276   8.946   3.683  2.6845 -1.7190 -3.7121
  760MOL0     H 2599   7.201   8.797   3.662 -1.0644  0.8628  1.4212
  760MOL0     H 2600   7.229   8.854   3.828  0.4775 -1.5722  0.0356
  761MOL0     O 2601   9.820   0.237   0.227 -0.7549  0.6669  0.2153
  761MOL0     C 2602   9.713   0.250   0.175 -0.3307  0.6735  1.0538
  761MOL0     O 2603   9.646   0.364   0.169  0.9121  0.2532 -0.0624
  761MOL0     C 2604   9.696   0.485   0.222 -0.5862 -0.0386 -0.8937
  761MOL0     C 2605   9.667   0.595   0.166 -1.0681 -0.2331 -0.1041
  761MOL0     C 2606   9.719   0.719   0.205  0.3927 -0.3777 -0.2455
  761MOL0     C 2607   9.782   0.727   0.330 -0.0394 -0.8818 -0.5878
  761MOL0     O 2608   9.817   0.854   0.373 -0.7349 -0.6264  0.1461
  761MOL0     C 2609   9.867   0.873   0.508 -0.1035 -0.2390 -0.7184
  761MOL0     C 2610   9.890   1.023   0.516 -0.4054 -0.2266 -0.1945
  761MOL0     C 2611   9.963   1.074   0.635  1.3096 -0.1550  0.6556
  761MOL0     C 2612   9.856   1.118   0.732 -0.3225 -0.1700  0.7882
  761MOL0     C 2613   9.919   1.212   0.836  0.1930 -0.5702  0.1572
  761MOL0     C 2614   9.802   1.291   0.895 -0.5865  0.1448 -0.5303
  761MOL0     C 2615   9.854   1.397   0.999  0.7993  0.5501  0.1044
  761MOL0     C 2616   9.746   1.417   1.104  0.2889 -0.3918 -0.7825
  761MOL0     N 2617   9.769   1.312   1.197 -0.4375 -0.4025  0.3220
  761MOL0     C 2618   9.676   1.223   1.229  0.6526 -0.0525 -0.3069
  761MOL0     C 2619   9.736   1.134   1.311  0.4951 -1.7198  0.4959
  761MOL0     C 2620   9.662   1.022   1.369  0.5589  0.0412  0.3250
  761MOL0     C 2621   9.627   1.038   1.516 -0.2604 -0.3598  0.0910
  761MOL0     C 2622   9.723   0.985   1.631  0.2401  0.7227  0.7559
  761MOL0     C 2623   9.872   1.018   1.612  0.0581  0.6990  0.8101
  761MOL0     O 2624   9.891   1.153   1.656 -0.5579 -0.1881 -1.1200
  761MOL0     C 2625  10.023   1.171   1.691 -0.6430 -0.4547 -1.2648
  761MOL0     C 2626  10.129   1.169   1.588  0.4463  1.0276  0.1774
  761MOL0     C 2627  10.262   1.173   1.632  0.8664 -0.1011  0.4571
  761MOL0     C 2628  10.294   1.202   1.766 -0.5473 -0.6449  0.0172
  761MOL0     C 2629  10.430   1.248   1.795 -0.9302  0.9562  0.6912
  761MOL0     O 2630  10.485   1.337   1.702  0.3320  0.4121 -0.4861
  761MOL0     C 2631  10.601   1.406   1.736 -0.5161  1.2151  0.5731
  761MOL0     C 2632  10.596   1.513   1.818 -1.1154  0.5460 -0.3179
  761MOL0     C 2633  10.721   1.576   1.850  0.0734 -1.2287 -0.5631
  761MOL0     C 2634  10.845   1.549   1.796  0.0227  0.2917  0.4117
  761MOL0     O 2635  10.951   1.629   1.830  0.0270 -0.0361 -0.4066
  761MOL0     C 2636  11.081   1.574   1.864  0.4101 -0.0768 -0.1524
  761MOL0     C 2637  11.112   1.588   2.013  0.5725  0.1923 -0.6447
  761MOL0     C 2638  11.256   1.629   2.048 -0.0673 -0.6553 -0.4644
  761MOL0     C 2639  11.278   1.605   2.195 -0.3062 -0.7125 -1.3750
  761MOL0     C 2640  11.331   1.458   2.221 -0.4990 -0.0820 -1.1250
  761MOL0     C 2641  11.402   1.449   2.355  0.4690  0.3889 -0.3084
  761MOL0     C 2642  11.308   1.413   2.476 -0.6026  0.6829  0.3788
  761MOL0     C 2643  11.381   1.414   2.608  0.1833  0.2308 -0.7253
  761MOL0    Cl 2644  11.326   1.554   2.698  0.2397  0.1940  0.4880
  761MOL0     C 2645  10.847   1.429   1.719  0.5701  0.1263  1.3122
  761MOL0     C 2646  10.729   1.368   1.683 -0.1979  0.5414  0.9360
  761MOL0     O 2647  10.489   1.211   1.899 -0.2170 -1.6616 -0.2236
  761MOL0     C 2648  10.193   1.206   1.865  0.5236  0.2098  0.2738
  761MOL0     C 2649  10.059   1.192   1.824  0.7656  0.1836 -0.6118
  761MOL0     N 2650   9.855   1.189   1.347 -0.0754 -0.2017  0.0543
  761MOL0     N 2651   9.868   1.299   1.284  0.2871 -1.3846 -0.4500
  761MOL0     C 2652   9.798   0.616   0.411  0.2310 -0.1121  0.8141
  761MOL0     C 2653   9.743   0.499   0.355 -0.3364  0.2106 -0.0908
  761MOL0     C 2654   9.647   0.116   0.133  0.8557 -0.2116 -0.9775
  761MOL0     C 2655   9.513   0.130   0.101  0.3416  0.9661  0.5294
  761MOL0     C 2656   9.445   0.009   0.048  0.4150  0.3236  0.0139
  761MOL0     C 2657   9.517  -0.113   0.036  0.3957  0.1723 -0.1001
  761MOL0     O 2658   9.462  -0.219  -0.029 -0.1976  0.4972 -0.1401
  761MOL0     C 2659   9.354  -0.205  -0.115  0.2068 -0.6224 -0.9668
  761MOL0     C 2660   9.277  -0.341  -0.140 -0.0098 -0.3284 -0.1378
  761MOL0     C 2661   9.226  -0.348  -0.282 -0.0296  0.9000  1.1304
  761MOL0     C 2662   9.146  -0.477  -0.296 -0.7806 -0.5580  1.3963
  761MOL0     C 2663   9.101  -0.484  -0.434 -0.4089  0.2358 -1.1357
  761MOL0     C 2664   9.053  -0.481  -0.549  0.2098  0.8605 -0.0028
  761MOL0     C 2665   9.657  -0.124   0.069  1.0487 -0.6161 -0.1560
  761MOL0     C 2666   9.719  -0.009   0.125  0.5370  0.3043 -0.4863
  761MOL0     C 2667   9.869  -0.028   0.150 -0.3708  0.3403 -0.1261
  761MOL0     H 2668   9.622   0.582   0.068  1.3876 -2.8754 -1.0290
  761MOL0     H 2669   9.701   0.812   0.150  2.9337  1.0588  1.2076
  761MOL0     H 2670   9.795   0.844   0.585  0.8877  0.7541  0.6251
  761MOL0     H 2671   9.952   0.803   0.510 -1.1201 -1.6315 -2.7086
  761MOL0     H 2672   9.795   1.075   0.505 -0.8395 -0.8465  0.4940
  761MOL0     H 2673   9.958   1.047   0.434 -0.1856 -0.0649  0.0354
  761MOL0     H 2674  10.033   1.153   0.607  0.1813  0.1798 -1.4520
  761MOL0     H 2675  10.023   0.992   0.677  2.9708  1.5892  1.8706
  761MOL0     H 2676   9.779   1.169   0.673 -1.0823 -0.6062  1.3847
  761MOL0     H 2677   9.807   1.031   0.778 -1.5476  0.9853  1.7655
  761MOL0     H 2678   9.969   1.165   0.921  3.4468 -0.8593 -1.7683
  761MOL0     H 2679   9.996   1.277   0.793 -0.0533 -1.5957 -1.9620
  761MOL0     H 2680   9.744   1.344   0.818 -3.2948  0.2746  1.4462
  761MOL0     H 2681   9.733   1.221   0.942  0.0198  2.0354  3.6147
  761MOL0     H 2682   9.876   1.493   0.951  1.0619 -0.3655 -1.7106
  761MOL0     H 2683   9.948   1.357   1.038  1.9465 -2.2839 -4.7077
  761MOL0     H 2684   9.765   1.513   1.152 -0.1239 -0.4122 -0.5690
  761MOL0     H 2685   9.640   1.409   1.079 -0.8251 -1.5558  3.4093
  761MOL0     H 2686   9.571   1.215   1.200 -0.0097 -0.6867  2.0327
  761MOL0     H 2687   9.569   1.016   1.312  1.7479  1.3279 -1.8721
  761MOL0     H 2688   9.726   0.935   1.351  0.8614  0.0863  1.1522
  761MOL0     H 2689   9.611   1.144   1.535  1.4496 -0.0692  0.1020
  761MOL0     H 2690   9.531   0.987   1.528  0.4081 -1.3452  1.6330
  761MOL0     H 2691   9.711   0.877   1.644  0.3212  0.6076 -0.0340
  761MOL0     H 2692   9.700   1.038   1.723  0.8817  1.8280  0.3008
  761MOL0     H 2693   9.920   1.003   1.514  0.9447  3.8564  0.6239
  761MOL0     H 2694   9.926   0.955   1.683  0.8004 -0.4406 -0.7167
  761MOL0     H 2695  10.092   1.164   1.486  0.3917 -2.3001  0.2443
  761MOL0     H 2696  10.344   1.165   1.561  0.5601  0.5146  0.0212
  761MOL0     H 2697  10.504   1.545   1.866  0.2854  0.8491  2.3915
  761MOL0     H 2698  10.728   1.645   1.934  0.3578 -0.0277 -1.5555
  761MOL0     H 2699  11.088   1.468   1.838 -2.1388 -0.7699  1.6098
  761MOL0     H 2700  11.152   1.633   1.805  1.4425 -2.3103 -1.2660
  761MOL0     H 2701  11.049   1.670   2.047  1.5589  0.0291  1.7696
  761MOL0     H 2702  11.079   1.495   2.060 -4.1366  2.0069  0.1821
  761MOL0     H 2703  11.327   1.567   1.992  1.0774  0.3577 -0.1937
  761MOL0     H 2704  11.273   1.729   2.009  0.0900 -0.5576 -0.1525
  761MOL0     H 2705  11.187   1.645   2.240  0.2040 -2.8100  1.9020
  761MOL0     H 2706  11.363   1.668   2.224 -0.5610 -1.3622  1.0232
  761MOL0     H 2707  11.394   1.436   2.134  0.0931 -2.0937 -0.2533
  761MOL0     H 2708  11.265   1.372   2.220  1.1950 -1.5812  1.6808
  761MOL0     H 2709  11.478   1.371   2.346 -0.7021 -0.9148  0.7074
  761MOL0     H 2710  11.456   1.542   2.378  0.5339  0.1204  0.6700
  761MOL0     H 2711  11.273   1.310   2.459  2.1274 -0.1222 -0.8688
  761MOL0     H 2712  11.219   1.475   2.488 -1.9184 -1.1329  0.4643
  761MOL0     H 2713  11.350   1.328   2.668 -0.3295  1.9982  1.6751
  761MOL0     H 2714  11.490   1.413   2.609  0.2903 -2.1687  2.8216
  761MOL0     H 2715  10.946   1.403   1.682 -0.5047  0.3707 -2.1131
  761MOL0     H 2716  10.719   1.282   1.617  1.2374 -1.6510  3.4053
  761MOL0     H 2717  10.208   1.231   1.969  2.2423 -0.6022  0.2575
  761MOL0     H 2718   9.973   1.183   1.890 -2.2477 -1.6542 -4.3737
  761MOL0     H 2719   9.824   0.605   0.516 -1.0575 -2.7354  0.9348
  761MOL0     H 2720   9.757   0.408   0.412  0.5562  1.3723  1.6553
  761MOL0     H 2721   9.461   0.226   0.105 -0.3925  0.5502  1.2760
  761MOL0     H 2722   9.340   0.020   0.025  0.0170  0.6325  1.8410
  761MOL0     H 2723   9.407  -0.182  -0.208  4.0496 -0.5669  1.0570
  761MOL0     H 2724   9.271  -0.137  -0.091 -1.5710 -3.7247  2.9110
  761MOL0     H 2725   9.191  -0.341  -0.073 -0.3618  0.1915 -0.5774
  761MOL0     H 2726   9.354  -0.414  -0.112  4.0123  3.6467  0.3557
  761MOL0     H 2727   9.303  -0.354  -0.359 -0.7161  0.4859  0.4609
  761MOL0     H 2728   9.167  -0.260  -0.309 -0.0101  0.3547 -0.8883
  761MOL0     H 2729   9.205  -0.563  -0.263  2.8238  0.5715 -1.4131
  761MOL0     H 2730   9.062  -0.472  -0.227 -2.1087  0.8182 -0.2273
  761MOL0     H 2731   9.012  -0.486  -0.647  1.5450  1.1089 -0.5962
  761MOL0     H 2732   9.697  -0.224   0.056 -0.6436 -1.6428  1.8745
  761MOL0     H 2733   9.914   0.012   0.241  3.7258 -0.0075 -1.8108
  761MOL0     H 2734   9.893  -0.134   0.156 -1.6268  0.1043  2.5435
  761MOL0     H 2735   9.934   0.005   0.069  1.4385  3.5298  2.3497
  762MOL0     O 2736   1.865  11.458   2.303 -0.3576  0.4204 -0.4788
  762MOL0     C 2737   1.782  11.374   2.324  1.0556 -0.5691 -0.0893
  762MOL0     O 2738   1.796  11.270   2.409  0.8289  0.2845 -0.3222
  762MOL0     C 2739   1.907  11.251   2.473 -1.1889  0.1509  0.3075
  762MOL0     C 2740   1.955  11.318   2.584  0.2183  0.3450 -0.5421
  762MOL0     C 2741   2.059  11.272   2.660 -0.3811  0.5781 -0.2415
  762MOL0     C 2742   2.137  11.162   2.619 -0.9068  0.7879 -0.5795
  762MOL0     O 2743   2.230  11.096   2.700  0.5221  0.3112  0.5749
  762MOL0     C 2744   2.280  11.153   2.817 -0.9775  0.4742  0.0629
  762MOL0     C 2745   2.353  11.043   2.903 -0.9297 -0.4826 -0.0394
  762MOL0     C 2746   2.460  11.115   2.991  0.3291  0.4301 -0.3488
  762MOL0     C 2747   2.551  11.014   3.046  1.2294  1.3047  0.4315
  762MOL0     C 2748   2.647  11.091   3.138  0.3199 -0.2148  0.0202
  762MOL0     C 2749   2.753  10.985   3.187 -0.7129  0.0845 -0.5839
  762MOL0     C 2750   2.690  10.869   3.275 -0.5278  1.3762 -0.0970
  762MOL0     C 2751   2.795  10.802   3.373  0.3374  0.2506 -0.0122
  762MOL0     N 2752   2.920  10.772   3.305 -0.1447 -0.0113 -0.4355
  762MOL0     C 2753   3.029  10.820   3.362 -0.1402 -0.8180  0.8986
  762MOL0     C 2754   3.125  10.800   3.273  0.8025  0.2827  0.2611
  762MOL0     C 2755   3.272  10.825   3.296 -0.4030  0.7148  0.8254
  762MOL0     C 2756   3.344  10.703   3.363  0.9327  0.3259 -0.0498
  762MOL0     C 2757   3.500  10.677   3.327 -0.1872 -0.6311 -0.3081
  762MOL0     C 2758   3.560  10.605   3.447 -1.0420 -0.8880 -0.5020
  762MOL0     O 2759   3.512  10.468   3.438  0.4276  0.0032  0.1166
  762MOL0     C 2760   3.540  10.384   3.534 -0.0746  0.3664 -0.0003
  762MOL0     C 2761   3.465  10.268   3.544 -0.0918  0.3479  0.3350
  762MOL0     C 2762   3.479  10.178   3.655 -0.1107 -0.4581 -0.0381
  762MOL0     C 2763   3.586  10.195   3.743 -0.1927  1.1340  0.5681
  762MOL0     C 2764   3.608  10.115   3.856  1.1919  0.6748  0.2529
  762MOL0     O 2765   3.512  10.018   3.880  0.4626  0.0174 -0.6303
  762MOL0     C 2766   3.533   9.948   3.995 -0.4609 -0.5337 -0.6471
  762MOL0     C 2767   3.655   9.890   4.029 -0.6736 -0.1374  0.0017
  762MOL0     C 2768   3.675   9.824   4.147  0.3535 -0.5304 -0.3967
  762MOL0     C 2769   3.568   9.806   4.233  0.5654 -0.8543  0.4789
  762MOL0     O 2770   3.601   9.735   4.342  0.2700  0.3816 -0.0161
  762MOL0     C 2771   3.519   9.737   4.461 -1.4394  0.6741 -0.4904
  762MOL0     C 2772   3.447   9.605   4.477  0.3188  0.0130 -1.0036
  762MOL0     C 2773   3.392   9.591   4.624 -0.6741  1.0625  0.5222
  762MOL0     C 2774   3.304   9.463   4.637  0.5507 -0.7330  0.3988
  762MOL0     C 2775   3.266   9.425   4.781 -0.3192  1.4275  0.4989
  762MOL0     C 2776   3.143   9.330   4.793 -0.6164  0.1691  1.0158
  762MOL0     C 2777   3.109   9.297   4.940  1.4262  0.4504  0.9101
  762MOL0     C 2778   2.987   9.210   4.950  0.4994  0.7352  0.1111
  762MOL0    Cl 2779   3.007   9.037   4.894  0.0188 -0.2080  0.1548
  762MOL0     C 2780   3.437   9.863   4.199 -0.6309 -1.0703 -0.1021
  762MOL0     C 2781   3.421   9.924   4.082 -0.3511  0.1738 -0.2970
  762MOL0     O 2782   3.706  10.137   3.927 -0.1757  0.2671  0.6725
  762MOL0     C 2783   3.678  10.307   3.707 -0.5715 -0.4256 -0.2310
  762MOL0     C 2784   3.646  10.405   3.619 -0.0180 -0.6459  0.2365
  762MOL0     N 2785   3.076  10.718   3.169 -0.6650  0.4437 -0.2650
  762MOL0     N 2786   2.950  10.710   3.186 -0.4845 -0.4054 -0.1807
  762MOL0     C 2787   2.104  11.102   2.492  0.1263 -0.5422 -0.0242
  762MOL0     C 2788   1.990  11.140   2.426  0.8564 -0.9239 -0.7149
  762MOL0     C 2789   1.655  11.395   2.252  0.4165  0.0185  0.0908
  762MOL0     C 2790   1.567  11.286   2.252  0.3306  0.3231  0.5907
  762MOL0     C 2791   1.453  11.291   2.172 -0.3323 -0.1190  0.1860
  762MOL0     C 2792   1.419  11.393   2.089 -0.1655  0.5254 -1.0788
  762MOL0     O 2793   1.304  11.379   2.022 -0.0889 -0.6545  0.5305
  762MOL0     C 2794   1.280  11.455   1.902  0.7100 -0.0003 -1.0961
  762MOL0     C 2795   1.172  11.389   1.823 -0.0960 -0.3564 -0.0183
  762MOL0     C 2796   1.211  11.256   1.757  1.1928  0.7576 -0.0978
  762MOL0     C 2797   1.085  11.205   1.671 -1.3141  0.3389  0.1445
  762MOL0     C 2798   1.126  11.116   1.567  0.3837  0.2704 -0.4671
  762MOL0     C 2799   1.171  11.030   1.496  0.8052 -0.5001  0.5961
  762MOL0     C 2800   1.509  11.503   2.092  0.8707  0.3631  0.4112
  762MOL0     C 2801   1.625  11.508   2.167 -0.1322  0.8929 -1.2616
  762MOL0     C 2802   1.693  11.638   2.176  0.5355  0.8075  0.1201
  762MOL0     H 2803   1.900  11.406   2.616 -1.5547 -0.7719 -0.3848
  762MOL0     H 2804   2.075  11.319   2.757  2.5015  0.7855 -0.7203
  762MOL0     H 2805   2.365  11.218   2.794  1.0040 -0.3681  4.0423
  762MOL0     H 2806   2.208  11.211   2.876 -0.6148  1.0734 -0.0742
  762MOL0     H 2807   2.401  10.971   2.836  0.0330  2.0754 -2.2829
  762MOL0     H 2808   2.283  10.984   2.962  0.1455 -2.5507 -0.7317
  762MOL0     H 2809   2.419  11.165   3.080  0.7527  1.0670 -0.5059
  762MOL0     H 2810   2.518  11.185   2.932  1.3086  1.2714  1.5135
  762MOL0     H 2811   2.497  10.929   3.090  3.2726  0.3227  1.1558
  762MOL0     H 2812   2.604  10.977   2.957 -1.9085 -1.6099 -0.4603
  762MOL0     H 2813   2.690  11.180   3.091 -3.2343  0.1129 -3.1247
  762MOL0     H 2814   2.595  11.135   3.224  4.4185 -1.4196  3.4235
  762MOL0     H 2815   2.796  10.942   3.097 -3.0811  1.9170 -2.7623
  762MOL0     H 2816   2.825  11.044   3.245 -0.5792 -1.2054  0.6144
  762MOL0     H 2817   2.640  10.801   3.206  1.8752  1.3201 -1.9417
  762MOL0     H 2818   2.621  10.911   3.348  1.1128 -1.6522  3.5398
  762MOL0     H 2819   2.808  10.877   3.451 -0.4349  0.0675  0.2981
  762MOL0     H 2820   2.744  10.711   3.406 -2.6988  2.2445  1.1950
  762MOL0     H 2821   3.039  10.868   3.459  1.9512 -0.8715  0.7600
  762MOL0     H 2822   3.324  10.835   3.200 -3.2340 -0.7356 -1.0100
  762MOL0     H 2823   3.290  10.911   3.361  1.0852  0.5934  0.6117
  762MOL0     H 2824   3.328  10.711   3.471 -1.5922 -0.6372 -0.2881
  762MOL0     H 2825   3.283  10.614   3.345 -1.1617  0.2531  5.3943
  762MOL0     H 2826   3.538  10.777   3.305  0.9049 -0.5481  1.6687
  762MOL0     H 2827   3.508  10.627   3.231  1.3769  3.4677 -2.5729
  762MOL0     H 2828   3.541  10.650   3.544  0.4331  0.0137 -0.5958
  762MOL0     H 2829   3.667  10.590   3.430 -0.9204 -0.3312 -0.2459
  762MOL0     H 2830   3.391  10.240   3.469  1.4511 -0.0292 -1.1187
  762MOL0     H 2831   3.423  10.086   3.651  3.5759 -2.8754 -0.8717
  762MOL0     H 2832   3.742   9.894   3.964  0.8429 -0.0196  1.9668
  762MOL0     H 2833   3.768   9.776   4.177  0.5124 -0.1561 -0.2878
  762MOL0     H 2834   3.594   9.754   4.539 -0.9368 -1.2577 -0.5000
  762MOL0     H 2835   3.458   9.827   4.466  1.7920  3.2691 -2.7321
  762MOL0     H 2836   3.362   9.607   4.408  0.2301 -1.6716 -0.9699
  762MOL0     H 2837   3.518   9.526   4.455 -0.1140 -0.2032 -1.6687
  762MOL0     H 2838   3.483   9.606   4.684 -1.2817  3.2468  1.0062
  762MOL0     H 2839   3.332   9.677   4.656  2.2184  3.4048  0.2233
  762MOL0     H 2840   3.366   9.382   4.596  2.8940  0.1754  1.9233
  762MOL0     H 2841   3.214   9.463   4.575  0.3225  2.0129  0.6065
  762MOL0     H 2842   3.247   9.520   4.832  3.1669  3.0308 -0.8803
  762MOL0     H 2843   3.353   9.381   4.830  0.2728  1.7177 -0.2617
  762MOL0     H 2844   3.066   9.392   4.748  0.7328  0.1216 -1.5878
  762MOL0     H 2845   3.168   9.238   4.739 -2.0505 -1.0801  2.4015
  762MOL0     H 2846   3.098   9.391   4.995 -1.4835  1.8917 -1.7507
  762MOL0     H 2847   3.195   9.235   4.965  1.1588 -1.4461 -2.2792
  762MOL0     H 2848   2.954   9.204   5.054 -1.2310  0.6345 -0.4198
  762MOL0     H 2849   2.908   9.250   4.886  1.5310  3.0511  0.1853
  762MOL0     H 2850   3.349   9.835   4.256  0.3795  1.2386  2.9004
  762MOL0     H 2851   3.321   9.958   4.055 -0.7760  2.8590  3.8147
  762MOL0     H 2852   3.780  10.300   3.743 -0.9727  1.4615  1.4616
  762MOL0     H 2853   3.720  10.483   3.602 -0.5495 -0.5286 -1.7462
  762MOL0     H 2854   2.148  11.010   2.457  0.0783 -1.2337  1.6419
  762MOL0     H 2855   1.959  11.078   2.343 -2.2867 -1.8820  0.9969
  762MOL0     H 2856   1.587  11.192   2.302 -1.3456 -0.4148 -0.0489
  762MOL0     H 2857   1.387  11.205   2.165  1.3235 -1.4128 -0.1811
  762MOL0     H 2858   1.375  11.453   1.848  1.1129  0.8149 -0.4510
  762MOL0     H 2859   1.248  11.555   1.934  1.8455 -0.4149  1.6000
  762MOL0     H 2860   1.148  11.460   1.743 -1.6543  0.2878  0.9524
  762MOL0     H 2861   1.087  11.381   1.891 -0.8666  0.7949 -0.8113
  762MOL0     H 2862   1.232  11.187   1.839 -1.9937  0.6556  0.7490
  762MOL0     H 2863   1.298  11.266   1.691  0.1412 -2.7574 -2.2634
  762MOL0     H 2864   1.004  11.157   1.727 -0.3437 -1.1031  0.3684
  762MOL0     H 2865   1.036  11.295   1.633  0.1241  0.8881 -0.4846
  762MOL0     H 2866   1.199  10.953   1.428  0.4923  0.7651 -1.0311
  762MOL0     H 2867   1.467  11.588   2.039  0.2151  0.1969  0.6484
  762MOL0     H 2868   1.669  11.714   2.101  3.0363 -1.0655 -2.8550
  762MOL0     H 2869   1.671  11.672   2.277  0.0154 -1.3891  0.8138
  762MOL0     H 2870   1.800  11.618   2.166  0.0904 -1.8052 -0.3085
  763MOL0     O 2871   5.938   2.850   9.412  0.3406  0.2847 -0.1175
  763MOL0     C 2872   5.867   2.939   9.451 -0.0989 -0.2288 -0.2738
  763MOL0     O 2873   5.730   2.944   9.440 -0.0678  0.3865 -0.5436
  763MOL0     C 2874   5.661   2.848   9.378  0.2300 -0.3450 -0.3162
  763MOL0     C 2875   5.568   2.875   9.270  0.2896 -1.0998  0.4564
  763MOL0     C 2876   5.502   2.780   9.206  1.4202  0.5782 -0.1248
  763MOL0     C 2877   5.497   2.646   9.249 -0.3374 -0.3917 -0.9140
  763MOL0     O 2878   5.411   2.549   9.192  0.7351 -0.5052  0.9321
  763MOL0     C 2879   5.476   2.435   9.131 -0.1290  0.2106  0.1248
  763MOL0     C 2880   5.546   2.473   8.998 -0.3531 -0.4539 -0.3374
  763MOL0     C 2881   5.668   2.368   8.971  0.4394  0.2743 -0.1024
  763MOL0     C 2882   5.769   2.346   9.083 -0.6741  0.3339  0.5287
  763MOL0     C 2883   5.852   2.472   9.119  0.4735 -0.5324 -0.4034
  763MOL0     C 2884   5.958   2.451   9.231 -0.2079 -0.1698  0.2552
  763MOL0     C 2885   6.012   2.576   9.277 -0.3144 -0.7838  0.8808
  763MOL0     C 2886   6.116   2.550   9.380  0.8357  0.0796 -0.6162
  763MOL0     N 2887   6.045   2.515   9.502  0.0125  1.0155  0.0593
  763MOL0     C 2888   6.028   2.599   9.612 -0.1323 -0.9814  0.1915
  763MOL0     C 2889   5.978   2.524   9.706  0.4733 -0.1254 -1.3089
  763MOL0     C 2890   5.935   2.570   9.842 -0.2739  0.0678  0.5120
  763MOL0     C 2891   5.791   2.559   9.866  0.4745  0.2659  0.3127
  763MOL0     C 2892   5.750   2.631   9.998  0.0338  0.3165 -0.2483
  763MOL0     C 2893   5.770   2.782   9.997  0.6813 -0.4199  0.1415
  763MOL0     O 2894   5.731   2.841   9.874  0.4424 -0.0359  0.2368
  763MOL0     C 2895   5.689   2.967   9.871 -0.1143  0.4355 -0.1062
  763MOL0     C 2896   5.756   3.064   9.946  0.7399 -0.2536 -0.8098
  763MOL0     C 2897   5.720   3.201   9.949 -0.4829 -0.6885  0.3140
  763MOL0     C 2898   5.614   3.235   9.864 -0.1930  0.8273 -0.2641
  763MOL0     C 2899   5.580   3.383   9.852 -0.1592  0.3186 -0.7165
  763MOL0     O 2900   5.530   3.438   9.963 -0.2036  0.3103  1.1703
  763MOL0     C 2901   5.425   3.534   9.950 -0.0272  0.5756 -0.0602
  763MOL0     C 2902   5.340   3.559   9.844 -0.6178 -0.0714 -0.0205
  763MOL0     C 2903   5.240   3.651   9.863 -0.1362 -0.2161  0.3166
  763MOL0     C 2904   5.225   3.712   9.986  0.3996 -0.1522  0.4933
  763MOL0     O 2905   5.142   3.817   9.991 -0.1229 -0.0437 -1.5711
  763MOL0     C 2906   5.006   3.795   9.947 -0.2232 -0.4427  0.0845
  763MOL0     C 2907   4.902   3.853  10.046 -0.2123 -0.3953  0.0580
  763MOL0     C 2908   4.933   3.798  10.186  0.1076 -0.4732 -0.3196
  763MOL0     C 2909   4.833   3.870  10.281  0.3555 -0.1063 -0.1058
  763MOL0     C 2910   4.811   3.799  10.421 -0.1280 -0.0761 -0.1498
  763MOL0     C 2911   4.943   3.812  10.506 -0.0847  0.3494  0.0709
  763MOL0     C 2912   4.964   3.714  10.625 -0.9408  0.3622  0.8915
  763MOL0     C 2913   5.097   3.704  10.693  0.5176 -0.5718  0.8945
  763MOL0    Cl 2914   5.230   3.658  10.584 -0.0868  0.0468 -0.5692
  763MOL0     C 2915   5.298   3.683  10.097 -0.4513 -0.4099 -0.2724
  763MOL0     C 2916   5.405   3.597  10.076  0.2550 -0.7135 -0.9274
  763MOL0     O 2917   5.604   3.445   9.754 -0.8754 -0.1716  0.0782
  763MOL0     C 2918   5.547   3.138   9.784 -0.9804 -0.8409 -0.1276
  763MOL0     C 2919   5.587   3.004   9.793 -0.0865 -0.7849 -0.4740
  763MOL0     N 2920   5.951   2.395   9.662 -0.7036  0.6746 -0.2724
  763MOL0     N 2921   5.998   2.394   9.543 -0.4564 -0.2663  0.2845
  763MOL0     C 2922   5.587   2.615   9.357  0.0984  0.3114  0.8825
  763MOL0     C 2923   5.671   2.711   9.413  0.4270  0.6239 -0.7892
  763MOL0     C 2924   5.916   3.036   9.542 -0.1729 -0.0913  0.5825
  763MOL0     C 2925   5.973   2.990   9.666 -0.1326  0.0830 -0.0523
  763MOL0     C 2926   6.019   3.084   9.766  1.4888 -1.5105 -0.5305
  763MOL0     C 2927   6.018   3.224   9.736  0.1565 -0.0009 -0.4478
  763MOL0     O 2928   6.058   3.314   9.833 -0.0499 -0.4951  0.0169
  763MOL0     C 2929   6.179   3.387   9.826 -0.1786  0.4347  0.1683
  763MOL0     C 2930   6.176   3.535   9.882 -0.6282  0.0230 -0.0398
  763MOL0     C 2931   6.061   3.623   9.836  0.1353  0.7656 -1.5139
  763MOL0     C 2932   6.093   3.773   9.880 -0.1403  0.1116 -0.0146
  763MOL0     C 2933   6.196   3.820   9.771 -0.1841 -0.7372  0.0822
  763MOL0     C 2934   6.289   3.861   9.702 -0.8145 -0.2285  1.1488
  763MOL0     C 2935   5.970   3.263   9.609  1.1841  0.0944 -0.5628
  763MOL0     C 2936   5.922   3.176   9.509 -0.0075  0.1114  0.0883
  763MOL0     C 2937   5.866   3.227   9.379 -0.1309 -0.1217 -0.2617
  763MOL0     H 2938   5.549   2.979   9.246 -2.4672 -1.2066  1.8057
  763MOL0     H 2939   5.432   2.823   9.135  1.5621 -0.1377 -0.7098
  763MOL0     H 2940   5.545   2.405   9.211 -0.8036  0.2010  0.7039
  763MOL0     H 2941   5.408   2.351   9.114  0.7071 -0.7512  1.3423
  763MOL0     H 2942   5.587   2.573   9.018 -2.0240 -0.1625  2.1931
  763MOL0     H 2943   5.478   2.478   8.913 -3.1879  3.2981  1.7846
  763MOL0     H 2944   5.716   2.390   8.875 -0.7263 -2.0754 -1.2925
  763MOL0     H 2945   5.621   2.270   8.964  2.4857 -0.7176 -0.6623
  763MOL0     H 2946   5.718   2.298   9.166 -1.6571  0.5754  0.0804
  763MOL0     H 2947   5.840   2.271   9.047  1.3810  3.0503 -1.6090
  763MOL0     H 2948   5.911   2.514   9.038  0.9170  1.8680  1.0439
  763MOL0     H 2949   5.776   2.543   9.153 -0.3722 -1.8597  0.5671
  763MOL0     H 2950   5.894   2.398   9.303 -0.6587  2.9202  2.3138
  763MOL0     H 2951   6.032   2.376   9.201 -2.6493 -3.0081  0.8225
  763MOL0     H 2952   5.930   2.642   9.307 -0.2286 -1.0375  1.6836
  763MOL0     H 2953   6.059   2.614   9.186  0.5628 -2.0067  0.7992
  763MOL0     H 2954   6.179   2.470   9.342 -1.6740 -1.9716 -0.7368
  763MOL0     H 2955   6.175   2.641   9.391  2.1187 -0.4782 -2.4196
  763MOL0     H 2956   6.076   2.696   9.623 -2.9859  0.3856  1.7235
  763MOL0     H 2957   5.969   2.504   9.923  0.6027 -1.6714 -1.2013
  763MOL0     H 2958   5.969   2.671   9.864  1.2700 -0.4969  0.8490
  763MOL0     H 2959   5.733   2.603   9.784  1.0976  1.1537  0.3392
  763MOL0     H 2960   5.762   2.454   9.878 -0.3191  0.6141  1.6628
  763MOL0     H 2961   5.783   2.578  10.087  0.2586 -0.1249 -0.5912
  763MOL0     H 2962   5.643   2.609  10.010  0.1080 -0.2314 -0.5438
  763MOL0     H 2963   5.876   2.802  10.013  1.2828 -3.5974  0.8605
  763MOL0     H 2964   5.724   2.833  10.082  0.2330 -0.1297 -0.2697
  763MOL0     H 2965   5.847   3.042  10.000 -0.5783  0.7486  1.9683
  763MOL0     H 2966   5.755   3.277  10.018 -1.9340 -1.3257  1.8288
  763MOL0     H 2967   5.374   3.527   9.746 -0.7659 -0.5948  0.0939
  763MOL0     H 2968   5.187   3.694   9.779  2.5191  0.6546 -1.0423
  763MOL0     H 2969   5.002   3.831   9.844  2.2243  2.8926  0.9715
  763MOL0     H 2970   4.987   3.688   9.952  1.7297 -0.8733 -0.6091
  763MOL0     H 2971   4.911   3.962  10.037  0.5867 -0.2953  1.6011
  763MOL0     H 2972   4.806   3.817  10.009  0.1781 -1.0745 -0.3044
  763MOL0     H 2973   4.909   3.691  10.182 -1.7947 -0.1172  0.5291
  763MOL0     H 2974   5.037   3.817  10.216 -1.2017  4.2794  2.3082
  763MOL0     H 2975   4.740   3.881  10.225  1.1447 -0.3071 -1.4911
  763MOL0     H 2976   4.860   3.972  10.311  0.6402 -0.7054  1.8316
  763MOL0     H 2977   4.799   3.692  10.401  1.5173 -0.6864  1.7492
  763MOL0     H 2978   4.732   3.835  10.487 -3.1286 -3.7081 -1.3886
  763MOL0     H 2979   5.027   3.813  10.436 -0.3958 -2.6504 -0.4624
  763MOL0     H 2980   4.956   3.908  10.557  1.6046 -1.4642  3.3782
  763MOL0     H 2981   4.936   3.612  10.596 -2.3603  1.2259 -0.9423
  763MOL0     H 2982   4.891   3.735  10.704 -0.0696 -1.1864  2.1906
  763MOL0     H 2983   5.116   3.802  10.739  0.6155  0.1943 -0.6913
  763MOL0     H 2984   5.088   3.627  10.770 -0.5605 -1.5944 -0.2103
  763MOL0     H 2985   5.279   3.733  10.191 -1.3022 -1.5589  0.1887
  763MOL0     H 2986   5.471   3.573  10.159 -1.6119 -1.1712  0.4836
  763MOL0     H 2987   5.466   3.166   9.718  1.4266  3.0777 -1.7443
  763MOL0     H 2988   5.535   2.929   9.735 -1.8049  0.2247 -0.3026
  763MOL0     H 2989   5.595   2.515   9.400  1.9069 -0.8175 -1.7856
  763MOL0     H 2990   5.725   2.673   9.499 -4.1293 -2.6246  1.0101
  763MOL0     H 2991   5.964   2.883   9.676  0.8215 -0.3659 -3.0379
  763MOL0     H 2992   6.060   3.045   9.858  2.6303 -1.0612 -0.8287
  763MOL0     H 2993   6.184   3.398   9.717 -4.1143  2.6894  0.0146
  763MOL0     H 2994   6.265   3.328   9.859 -0.5993 -0.6421 -0.6159
  763MOL0     H 2995   6.274   3.579   9.861 -0.1944  0.1550  2.0861
  763MOL0     H 2996   6.169   3.520   9.990  4.6222  1.3427  0.7385
  763MOL0     H 2997   5.966   3.582   9.873 -0.5355  1.5975 -2.2599
  763MOL0     H 2998   6.049   3.620   9.727  1.8784 -0.1447 -1.7142
  763MOL0     H 2999   6.001   3.831   9.874  0.8315  1.9264  1.6977
  763MOL0     H 3000   6.133   3.771   9.982  2.9598  1.8021 -1.0611
  763MOL0     H 3001   6.382   3.896   9.661 -1.0042  0.0079  0.9218
  763MOL0     H 3002   5.951   3.368   9.591 -2.5273 -0.5766 -1.3338
  763MOL0     H 3003   5.920   3.188   9.292  2.6890 -1.3992  1.9348
  763MOL0     H 3004   5.764   3.188   9.372  0.7483 -3.5955  3.1129
  763MOL0     H 3005   5.876   3.336   9.387  0.4353 -0.1607 -0.3925
  764MOL0     O 3006   1.222   5.269  10.552  0.2083 -0.3537 -0.1636
  764MOL0     C 3007   1.139   5.203  10.614 -0.2854  0.4593  1.0889
  764MOL0     O 3008   1.032   5.255  10.681  0.1911  0.0587  0.5642
  764MOL0     C 3009   1.019   5.387  10.681 -0.0422 -0.8827 -0.1575
  764MOL0     C 3010   1.072   5.454  10.794 -0.1674  1.1792  0.7208
  764MOL0     C 3011   1.045   5.589  10.804 -0.3694  0.2111 -0.4420
  764MOL0     C 3012   0.993   5.672  10.699 -0.5112  0.6515  0.3065
  764MOL0     O 3013   0.972   5.805  10.700  0.0761 -0.2673 -0.4328
  764MOL0     C 3014   0.945   5.872  10.817 -0.2283 -0.2455  0.9365
  764MOL0     C 3015   0.955   6.027  10.795  0.2231  0.1100 -0.9263
  764MOL0     C 3016   0.821   6.098  10.767  1.5966 -0.7159  0.2342
  764MOL0     C 3017   0.840   6.240  10.723  1.6668 -0.0328 -0.2407
  764MOL0     C 3018   0.727   6.331  10.731  1.6340 -0.3964 -0.0351
  764MOL0     C 3019   0.598   6.277  10.672 -0.2621 -0.2406 -0.4103
  764MOL0     C 3020   0.501   6.392  10.657 -0.3430 -0.9338 -0.4014
  764MOL0     C 3021   0.372   6.338  10.596  1.2385 -0.5098 -0.8365
  764MOL0     N 3022   0.263   6.441  10.581 -0.7655 -0.1601 -0.6961
  764MOL0     C 3023   0.146   6.474  10.666 -0.6414  1.1930 -0.3146
  764MOL0     C 3024   0.100   6.579  10.604 -1.1618 -0.4132 -0.5797
  764MOL0     C 3025  -0.009   6.653  10.671 -0.6802  0.5262 -0.2016
  764MOL0     C 3026   0.052   6.774  10.745  0.0786  0.4202 -0.6632
  764MOL0     C 3027   0.116   6.744  10.878  0.5052  0.4977  0.3616
  764MOL0     C 3028   0.222   6.849  10.920 -0.2771  0.1876  0.0670
  764MOL0     O 3029   0.266   6.806  11.052 -0.2153  0.1025 -0.0180
  764MOL0     C 3030   0.349   6.891  11.121 -0.8480 -0.3321 -0.2968
  764MOL0     C 3031   0.378   7.032  11.085  0.8589  0.3530  0.4732
  764MOL0     C 3032   0.469   7.103  11.159 -0.0861  0.2971  0.4843
  764MOL0     C 3033   0.539   7.049  11.269 -0.6587  0.2107  0.0678
  764MOL0     C 3034   0.653   7.121  11.327 -0.2690  0.1540 -0.0429
  764MOL0     O 3035   0.737   7.043  11.406  0.0584  0.1191 -0.2007
  764MOL0     C 3036   0.804   7.101  11.507  0.6274 -0.2865 -0.5718
  764MOL0     C 3037   0.896   7.196  11.477 -0.2093  0.6983 -0.7263
  764MOL0     C 3038   0.950   7.279  11.574  0.5069 -0.2855 -0.7381
  764MOL0     C 3039   0.911   7.266  11.710 -0.8343  0.3945 -0.9119
  764MOL0     O 3040   0.950   7.372  11.789  0.5990 -0.3790 -0.5176
  764MOL0     C 3041   0.961   7.345  11.928  0.2370 -0.2973  0.1209
  764MOL0     C 3042   0.959   7.478  11.987  0.0233  0.1042  0.4643
  764MOL0     C 3043   0.940   7.466  12.139 -0.1859  0.0295 -0.0077
  764MOL0     C 3044   0.922   7.607  12.194  0.6274 -0.1088 -0.9927
  764MOL0     C 3045   0.991   7.634  12.333 -0.7719 -0.1181  0.0864
  764MOL0     C 3046   0.949   7.772  12.394 -0.0978 -0.1814  0.0043
  764MOL0     C 3047   1.034   7.788  12.512 -0.0280  0.0769 -0.1784
  764MOL0     C 3048   0.996   7.911  12.586 -0.5550  0.2913 -0.1722
  764MOL0    Cl 3049   1.105   7.928  12.730 -0.0356 -0.1912  0.3478
  764MOL0     C 3050   0.804   7.177  11.736 -0.4162 -0.2947 -0.3194
  764MOL0     C 3051   0.765   7.088  11.639  1.1969 -0.0451  0.4396
  764MOL0     O 3052   0.653   7.242  11.307  0.7393 -0.1556  0.5076
  764MOL0     C 3053   0.510   6.916  11.306 -0.7717 -0.1768  1.1628
  764MOL0     C 3054   0.425   6.845  11.233  0.5925 -0.3213  1.0295
  764MOL0     N 3055   0.180   6.615  10.491  0.3066 -0.2889  0.5487
  764MOL0     N 3056   0.271   6.530  10.481 -0.0606  0.6811  0.1736
  764MOL0     C 3057   0.954   5.594  10.583  0.0541  0.5476 -0.1994
  764MOL0     C 3058   0.958   5.458  10.583 -0.1655  0.0912 -0.2155
  764MOL0     C 3059   1.171   5.060  10.617  0.5788  0.7825 -0.2127
  764MOL0     C 3060   1.301   5.006  10.615  0.1767 -1.4400 -0.4022
  764MOL0     C 3061   1.329   4.875  10.609 -0.6119  0.2421 -0.4200
  764MOL0     C 3062   1.235   4.780  10.608  0.8531  0.1872  0.8115
  764MOL0     O 3063   1.282   4.648  10.599 -0.1701 -0.5703  0.2564
  764MOL0     C 3064   1.202   4.545  10.672 -0.7510 -0.1753 -0.3734
  764MOL0     C 3065   1.295   4.422  10.686  0.7414  0.4663  0.2959
  764MOL0     C 3066   1.336   4.371  10.543  0.7275  0.1777 -0.5377
  764MOL0     C 3067   1.427   4.250  10.536  0.7488 -1.3400 -0.3197
  764MOL0     C 3068   1.371   4.132  10.598 -0.1282  0.6386  0.9377
  764MOL0     C 3069   1.319   4.032  10.641 -0.4310  0.0616 -0.1145
  764MOL0     C 3070   1.102   4.818  10.607 -0.6273 -1.0175 -0.4094
  764MOL0     C 3071   1.071   4.961  10.625  0.0790 -0.0598 -0.8029
  764MOL0     C 3072   0.923   4.991  10.631  0.3871  1.2460  0.7442
  764MOL0     H 3073   1.116   5.408  10.882 -1.3801  1.0935  1.3043
  764MOL0     H 3074   1.063   5.636  10.900  0.6889 -1.3488  0.1664
  764MOL0     H 3075   0.841   5.863  10.849 -1.1277 -1.6696 -2.0323
  764MOL0     H 3076   1.005   5.852  10.906  1.2228  1.6062  0.4251
  764MOL0     H 3077   1.021   6.050  10.711  2.0607  1.3875  0.7668
  764MOL0     H 3078   1.005   6.067  10.884 -0.2977  3.3051 -1.9587
  764MOL0     H 3079   0.765   6.099  10.861  1.9995  0.1671  0.4764
  764MOL0     H 3080   0.762   6.042  10.693  2.2305 -2.1788  0.7965
  764MOL0     H 3081   0.909   6.292  10.791 -0.9044  0.4134  2.2549
  764MOL0     H 3082   0.866   6.233  10.617  2.3706 -3.8957  0.0412
  764MOL0     H 3083   0.690   6.348  10.833  2.7566  0.4789  0.2333
  764MOL0     H 3084   0.746   6.426  10.681  1.3671 -0.7159 -0.7590
  764MOL0     H 3085   0.620   6.234  10.574 -0.1820  0.1198 -0.5519
  764MOL0     H 3086   0.550   6.201  10.735  0.7045 -0.7737 -0.2912
  764MOL0     H 3087   0.538   6.474  10.596  0.0993 -2.1993 -1.9163
  764MOL0     H 3088   0.459   6.424  10.753  0.1909 -2.7426  0.4961
  764MOL0     H 3089   0.390   6.294  10.498 -0.2740  0.0421 -1.4087
  764MOL0     H 3090   0.328   6.264  10.664  1.5407 -1.5770 -1.7783
  764MOL0     H 3091   0.118   6.424  10.758  4.2359  2.6890  2.4093
  764MOL0     H 3092  -0.086   6.684  10.599  1.0927  0.2564 -2.3337
  764MOL0     H 3093  -0.065   6.592  10.742 -0.9540  0.6851 -0.2786
  764MOL0     H 3094   0.136   6.811  10.686  1.5735  0.4062  1.3512
  764MOL0     H 3095  -0.026   6.848  10.764  0.6772  1.7669 -2.9622
  764MOL0     H 3096   0.159   6.644  10.867 -0.1575  0.1819  0.5580
  764MOL0     H 3097   0.043   6.733  10.959  0.6373 -2.2242  0.1804
  764MOL0     H 3098   0.179   6.947  10.940  0.9005  0.1912  3.1477
  764MOL0     H 3099   0.305   6.854  10.849  1.5145 -2.7704  1.7531
  764MOL0     H 3100   0.325   7.073  11.000 -0.4254 -0.8347  0.6566
  764MOL0     H 3101   0.487   7.204  11.122 -1.5354  1.1226  1.8924
  764MOL0     H 3102   0.914   7.233  11.377  4.2264  1.6422  0.1820
  764MOL0     H 3103   1.018   7.353  11.534  0.9379  0.4881  1.3255
  764MOL0     H 3104   0.869   7.303  11.967  0.3266 -1.4364 -0.8444
  764MOL0     H 3105   1.058   7.295  11.938  0.1142 -2.5618 -5.7853
  764MOL0     H 3106   1.053   7.528  11.961  1.3225 -2.4720 -0.1087
  764MOL0     H 3107   0.880   7.539  11.941 -0.3515 -1.7025 -1.5001
  764MOL0     H 3108   0.852   7.404  12.161 -0.1925 -0.5796 -1.6297
  764MOL0     H 3109   1.036   7.437  12.183 -0.4445 -1.5275 -0.4144
  764MOL0     H 3110   0.815   7.625  12.203  0.9087  0.7630  1.3412
  764MOL0     H 3111   0.958   7.686  12.128  0.6845  1.9698  1.3643
  764MOL0     H 3112   1.097   7.644  12.306 -0.1269 -1.9676  1.6888
  764MOL0     H 3113   0.978   7.555  12.407 -0.8971 -0.1417  0.0383
  764MOL0     H 3114   0.965   7.851  12.320  3.3759 -1.4776 -0.8593
  764MOL0     H 3115   0.844   7.771  12.422 -0.3912  2.3394 -0.7760
  764MOL0     H 3116   1.141   7.798  12.490  0.6035 -2.0813  1.5363
  764MOL0     H 3117   1.027   7.703  12.580  0.9567  1.2133  1.4261
  764MOL0     H 3118   1.008   7.997  12.520 -0.5254 -2.3356 -3.8876
  764MOL0     H 3119   0.890   7.901  12.611 -0.0204  0.3742  2.3742
  764MOL0     H 3120   0.752   7.167  11.831 -0.3419 -2.0198 -0.4287
  764MOL0     H 3121   0.696   7.007  11.660  1.8033 -0.4575  0.8761
  764MOL0     H 3122   0.554   6.864  11.391 -0.0707  1.1118  1.6189
  764MOL0     H 3123   0.410   6.745  11.273  0.7738 -0.3306  1.0762
  764MOL0     H 3124   0.921   5.639  10.491 -1.2605 -0.9072 -0.4870
  764MOL0     H 3125   0.913   5.412  10.496  2.0922 -1.2095 -0.7936
  764MOL0     H 3126   1.378   5.082  10.628 -0.4837 -1.0393  1.4646
  764MOL0     H 3127   1.429   4.836  10.625 -0.5862  0.8180  0.9264
  764MOL0     H 3128   1.119   4.517  10.607 -0.9074  0.3697 -0.4089
  764MOL0     H 3129   1.160   4.586  10.764 -0.7006  1.2056 -0.9437
  764MOL0     H 3130   1.244   4.339  10.735  2.5117 -0.4339  0.7007
  764MOL0     H 3131   1.390   4.457  10.728  2.1758 -0.2022 -2.1403
  764MOL0     H 3132   1.382   4.439  10.470  0.9622 -3.1648 -3.8492
  764MOL0     H 3133   1.242   4.345  10.494 -0.3037  1.3275  0.7784
  764MOL0     H 3134   1.469   4.240  10.435  3.5946 -1.2473  0.7666
  764MOL0     H 3135   1.523   4.273  10.583  0.5406 -0.1230 -0.4486
  764MOL0     H 3136   1.284   3.939  10.681 -1.8817  2.6618  5.7255
  764MOL0     H 3137   1.027   4.741  10.594 -1.4763 -0.2606 -0.1076
  764MOL0     H 3138   0.866   4.898  10.623 -3.1439  3.3223 -0.4221
  764MOL0     H 3139   0.897   5.036  10.727 -0.1792  1.2639  0.5891
  764MOL0     H 3140   0.905   5.055  10.544  2.2222  0.2771 -0.4233
  765MOL0     O 3141   9.710   0.535   3.399 -0.1202  0.5405 -0.4763
  765MOL0     C 3142   9.804   0.575   3.322 -1.1344 -0.1540 -0.3491
  765MOL0     O 3143   9.915   0.652   3.366  0.1934  0.3993 -0.4578
  765MOL0     C 3144   9.872   0.741   3.458 -0.1196  0.0093 -0.1362
  765MOL0     C 3145   9.909   0.712   3.590  0.2129 -0.9685 -0.4609
  765MOL0     C 3146   9.899   0.814   3.682 -0.3949  0.7396  0.0317
  765MOL0     C 3147   9.827   0.932   3.658  0.2930  0.4819 -0.0700
  765MOL0     O 3148   9.806   1.018   3.762  0.2238 -0.7886  0.0468
  765MOL0     C 3149   9.888   1.132   3.748  0.1890 -0.0733 -0.6654
  765MOL0     C 3150   9.830   1.255   3.824 -0.0349 -0.7058  0.4559
  765MOL0     C 3151   9.920   1.378   3.844 -1.1545 -0.2958  0.0788
  765MOL0     C 3152   9.843   1.466   3.932  0.2941 -0.2970 -0.3354
  765MOL0     C 3153   9.846   1.421   4.072  0.3372 -0.0226  0.0121
  765MOL0     C 3154   9.738   1.495   4.155  1.0415 -1.2440 -0.6557
  765MOL0     C 3155   9.767   1.500   4.306  0.6053  0.0785  0.4579
  765MOL0     C 3156   9.644   1.573   4.365  0.6722 -0.4386 -0.4268
  765MOL0     N 3157   9.648   1.560   4.515 -1.2985 -0.1712  0.8046
  765MOL0     C 3158   9.581   1.463   4.591 -0.0972 -0.3152 -0.4643
  765MOL0     C 3159   9.615   1.491   4.726 -0.3766 -0.7240 -0.0036
  765MOL0     C 3160   9.566   1.417   4.853  0.1673 -0.7568 -0.3854
  765MOL0     C 3161   9.682   1.381   4.931 -0.1272  0.1667 -0.7659
  765MOL0     C 3162   9.731   1.493   5.020 -0.1453  0.1512  0.6311
  765MOL0     C 3163   9.693   1.471   5.157 -0.0177  0.0647  0.1257
  765MOL0     O 3164   9.558   1.449   5.179 -0.2271 -0.4909  0.3967
  765MOL0     C 3165   9.525   1.412   5.305 -0.0139 -0.8442  0.2586
  765MOL0     C 3166   9.566   1.486   5.426  1.1910  1.2125 -0.0213
  765MOL0     C 3167   9.524   1.440   5.553 -0.2478 -0.0746  0.1689
  765MOL0     C 3168   9.450   1.313   5.557  0.7659  0.1025 -0.0561
  765MOL0     C 3169   9.427   1.250   5.690  1.0487  1.3282 -0.2299
  765MOL0     O 3170   9.330   1.155   5.686 -0.1576 -0.2163  0.0194
  765MOL0     C 3171   9.286   1.092   5.799  0.2277  0.2164 -0.0568
  765MOL0     C 3172   9.368   1.023   5.894  0.0991 -0.7350 -0.4210
  765MOL0     C 3173   9.320   0.935   5.985  0.5710  0.5468 -0.5517
  765MOL0     C 3174   9.184   0.925   6.004 -1.1271 -0.4532  0.7673
  765MOL0     O 3175   9.130   0.859   6.101  0.0561 -0.1648  0.1442
  765MOL0     C 3176   9.198   0.798   6.206  0.5498  0.4781  0.2342
  765MOL0     C 3177   9.257   0.897   6.305  0.3529 -0.1370  0.8777
  765MOL0     C 3178   9.393   0.844   6.357  0.3419  0.4882  0.3807
  765MOL0     C 3179   9.383   0.736   6.466 -0.9886  0.1354 -0.0376
  765MOL0     C 3180   9.344   0.597   6.422  0.5475  0.3648  0.6318
  765MOL0     C 3181   9.447   0.531   6.321 -0.1227 -0.6933 -0.2461
  765MOL0     C 3182   9.417   0.380   6.287 -0.2441  0.5230 -0.8176
  765MOL0     C 3183   9.402   0.281   6.404 -0.2377  0.4995  0.0051
  765MOL0    Cl 3184   9.548   0.297   6.486 -0.0173 -0.2069  0.0824
  765MOL0     C 3185   9.100   0.988   5.919  0.4833 -0.7420 -0.5338
  765MOL0     C 3186   9.144   1.074   5.815  0.4187  0.6309 -0.3786
  765MOL0     O 3187   9.471   1.297   5.793  0.3658  0.0209  0.0837
  765MOL0     C 3188   9.408   1.250   5.440 -0.9657  0.3256 -0.2321
  765MOL0     C 3189   9.458   1.299   5.319  0.3177  0.9034 -0.2701
  765MOL0     N 3190   9.699   1.603   4.725 -0.3090  0.4598 -0.7862
  765MOL0     N 3191   9.710   1.642   4.600  0.3259 -0.3058  0.1713
  765MOL0     C 3192   9.777   0.951   3.533  0.2216  0.3122  0.2274
  765MOL0     C 3193   9.802   0.857   3.427  0.4180 -0.1391  0.4314
  765MOL0     C 3194   9.813   0.523   3.184  0.7726  0.7342  0.0632
  765MOL0     C 3195   9.683   0.470   3.138 -0.8698  0.0584  1.5536
  765MOL0     C 3196   9.677   0.412   3.014 -0.5362  1.1150  0.7133
  765MOL0     C 3197   9.792   0.408   2.930 -1.0067 -0.2735  0.2880
  765MOL0     O 3198   9.771   0.348   2.802 -0.2979 -0.3869  0.7008
  765MOL0     C 3199   9.871   0.318   2.710 -0.8145  0.0518  0.9909
  765MOL0     C 3200   9.920   0.175   2.738 -0.9496  0.1022  0.3298
  765MOL0     C 3201  10.037   0.149   2.634 -0.2669 -0.0958 -0.2235
  765MOL0     C 3202  10.110   0.021   2.697  0.4553  0.0891 -0.3411
  765MOL0     C 3203  10.207  -0.010   2.592 -0.3647  0.7898  0.5546
  765MOL0     C 3204  10.272  -0.053   2.496  0.2287 -0.4679  1.4188
  765MOL0     C 3205   9.916   0.458   2.972 -0.5110 -0.5380  0.2496
  765MOL0     C 3206   9.932   0.513   3.108  0.4067  0.0979  0.6703
  765MOL0     C 3207  10.064   0.559   3.144  0.3859  0.2818 -0.5238
  765MOL0     H 3208   9.959   0.619   3.617  0.4734 -1.0764 -1.3013
  765MOL0     H 3209   9.934   0.792   3.783 -3.0156 -0.2772  0.7888
  765MOL0     H 3210   9.987   1.104   3.785  0.4082 -0.4627 -1.5217
  765MOL0     H 3211   9.894   1.166   3.645  1.4209  2.8448  0.2806
  765MOL0     H 3212   9.787   1.220   3.919  1.7289  3.3817  3.0268
  765MOL0     H 3213   9.748   1.292   3.761 -1.3506 -1.6712  1.5307
  765MOL0     H 3214   9.955   1.422   3.750 -1.4785  0.8673  0.4877
  765MOL0     H 3215  10.017   1.367   3.893 -1.3193  0.7084  0.6518
  765MOL0     H 3216   9.871   1.572   3.927  1.0639 -0.2727  2.5006
  765MOL0     H 3217   9.743   1.455   3.891  1.3809 -1.3662 -2.9381
  765MOL0     H 3218   9.814   1.317   4.084  0.6713 -0.0445  0.7843
  765MOL0     H 3219   9.942   1.450   4.117 -0.6702 -1.4315  3.4074
  765MOL0     H 3220   9.746   1.598   4.119 -0.9030 -1.5181 -2.0411
  765MOL0     H 3221   9.637   1.466   4.124  1.2682 -2.6282 -0.1712
  765MOL0     H 3222   9.865   1.542   4.331  2.0845 -2.9416  0.2170
  765MOL0     H 3223   9.782   1.400   4.346  2.1104 -0.7848 -2.0101
  765MOL0     H 3224   9.644   1.677   4.332 -1.4431  0.3161  1.5756
  765MOL0     H 3225   9.543   1.543   4.334 -0.2513  0.3799  1.5244
  765MOL0     H 3226   9.509   1.389   4.559 -2.0179  0.5461  1.6407
  765MOL0     H 3227   9.502   1.482   4.912  1.6209 -1.1292  1.6856
  765MOL0     H 3228   9.512   1.328   4.821  0.2386 -0.5224 -1.1842
  765MOL0     H 3229   9.653   1.292   4.989  1.2270 -0.8394 -1.5748
  765MOL0     H 3230   9.762   1.352   4.863 -0.1252 -2.9992  0.3933
  765MOL0     H 3231   9.709   1.594   4.984  2.7727  0.8761  0.5904
  765MOL0     H 3232   9.840   1.494   5.018 -0.0561  1.1437  3.2118
  765MOL0     H 3233   9.717   1.569   5.200  0.9602  1.1606 -2.6613
  765MOL0     H 3234   9.763   1.397   5.196  0.9174  1.3379  0.9912
  765MOL0     H 3235   9.626   1.574   5.404  2.8673  0.5991  1.7634
  765MOL0     H 3236   9.563   1.486   5.643 -4.1408  0.5690  1.7088
  765MOL0     H 3237   9.476   1.034   5.899  0.1487 -1.2437 -0.2904
  765MOL0     H 3238   9.398   0.891   6.046  2.6177  5.1410  0.5910
  765MOL0     H 3239   9.126   0.735   6.259  0.1154  2.0079  1.5321
  765MOL0     H 3240   9.277   0.735   6.164 -0.4323 -1.3595  1.0428
  765MOL0     H 3241   9.291   0.988   6.255  0.6390 -0.4608  0.4775
  765MOL0     H 3242   9.187   0.928   6.383  0.8483  2.2176  0.4599
  765MOL0     H 3243   9.459   0.820   6.273  0.4831  2.1202 -0.0192
  765MOL0     H 3244   9.428   0.941   6.395  1.0456  0.3754  0.0367
  765MOL0     H 3245   9.310   0.775   6.538  1.7790  0.3489  2.8658
  765MOL0     H 3246   9.480   0.728   6.516  0.1134 -0.0437 -2.0841
  765MOL0     H 3247   9.241   0.589   6.385 -0.6216  7.1274  1.1606
  765MOL0     H 3248   9.344   0.542   6.516 -0.8051  0.0426  0.4615
  765MOL0     H 3249   9.450   0.590   6.228 -2.7759  1.0544  0.6400
  765MOL0     H 3250   9.541   0.537   6.375  0.3017  0.0550 -1.0335
  765MOL0     H 3251   9.490   0.335   6.218  1.3617 -0.5230  1.4528
  765MOL0     H 3252   9.329   0.376   6.222 -0.5204  1.4832 -0.5088
  765MOL0     H 3253   9.320   0.314   6.468 -0.1901  2.1393 -0.7423
  765MOL0     H 3254   9.385   0.178   6.370  1.5899  0.3251 -0.4782
  765MOL0     H 3255   8.995   1.004   5.942  0.6467  1.7443 -1.3107
  765MOL0     H 3256   9.067   1.116   5.751 -0.0929 -0.7514 -0.7088
  765MOL0     H 3257   9.348   1.160   5.443 -1.5176  0.7039  1.6345
  765MOL0     H 3258   9.427   1.259   5.223  0.9573  1.1404 -0.5799
  765MOL0     H 3259   9.730   1.045   3.505 -0.4529 -0.1271 -0.1219
  765MOL0     H 3260   9.769   0.881   3.327  2.7547  0.3173 -0.3111
  765MOL0     H 3261   9.603   0.465   3.210 -0.9636  0.5493  1.4851
  765MOL0     H 3262   9.587   0.356   2.992  0.3158 -0.6919  1.6210
  765MOL0     H 3263   9.944   0.398   2.699  0.3307 -0.8414  1.8678
  765MOL0     H 3264   9.823   0.297   2.614 -1.5730 -0.5065  1.4751
  765MOL0     H 3265   9.843   0.100   2.763 -1.1525  0.0125 -0.5366
  765MOL0     H 3266   9.973   0.195   2.831  2.2024  0.9084 -1.5061
  765MOL0     H 3267  10.099   0.239   2.628 -0.9185  0.2479 -2.4016
  765MOL0     H 3268  10.001   0.110   2.539 -1.1431 -0.5677  0.2853
  765MOL0     H 3269  10.165   0.042   2.790 -0.0687 -1.4603  0.3412
  765MOL0     H 3270  10.038  -0.060   2.714  1.8499 -0.5184  3.8952
  765MOL0     H 3271  10.323  -0.077   2.405 -1.6141  1.3248 -0.1792
  765MOL0     H 3272   9.993   0.452   2.896 -0.9627  1.1856 -0.3999
  765MOL0     H 3273  10.131   0.512   3.071  1.8099  1.8363 -0.2840
  765MOL0     H 3274  10.070   0.668   3.131  3.3421  0.2205 -0.3021
  765MOL0     H 3275  10.096   0.529   3.244 -2.6904  3.8830  1.7991
  766MOL0     O 3276   1.672   1.569   6.975  0.4875 -0.7681  0.2215
  766MOL0     C 3277   1.628   1.680   7.006 -0.8467 -0.8493 -0.7023
  766MOL0     O 3278   1.645   1.734   7.137  0.2022 -0.2853 -0.0341
  766MOL0     C 3279   1.691   1.644   7.229 -0.6031  0.0614 -0.5279
  766MOL0     C 3280   1.620   1.530   7.272 -0.2102 -0.1542  0.4061
  766MOL0     C 3281   1.672   1.462   7.377 -0.0959 -0.0368 -0.1973
  766MOL0     C 3282   1.780   1.501   7.446 -0.4803  1.1843 -1.1732
  766MOL0     O 3283   1.804   1.426   7.559 -0.1293  1.2034  1.0330
  766MOL0     C 3284   1.792   1.280   7.565 -0.4646  0.1220  0.5031
  766MOL0     C 3285   1.793   1.240   7.714 -0.2892 -0.1549  0.0048
  766MOL0     C 3286   1.815   1.087   7.721  0.2118 -0.1468  0.6290
  766MOL0     C 3287   1.778   1.026   7.858  0.2233 -0.1405  0.8196
  766MOL0     C 3288   1.829   0.886   7.885 -0.0604  0.0023 -0.2825
  766MOL0     C 3289   1.801   0.834   8.016 -0.0199 -0.5962  0.0660
  766MOL0     C 3290   1.857   0.919   8.133 -0.3146  0.6308  0.8520
  766MOL0     C 3291   1.837   0.857   8.270  0.2478  0.0422  0.5746
  766MOL0     N 3292   1.923   0.744   8.300  0.2913  0.3381  0.2569
  766MOL0     C 3293   2.039   0.747   8.376 -0.3243 -0.1126  0.2210
  766MOL0     C 3294   2.079   0.617   8.382 -0.1276 -0.3221  0.2657
  766MOL0     C 3295   2.206   0.575   8.448 -0.8583  0.3786  0.0721
  766MOL0     C 3296   2.316   0.516   8.349 -0.1089 -0.5105 -0.4200
  766MOL0     C 3297   2.443   0.495   8.421  0.7697 -0.2227 -0.1834
  766MOL0     C 3298   2.556   0.573   8.365  1.2300  0.2128  0.1735
  766MOL0     O 3299   2.514   0.711   8.386 -0.6584  0.3729 -0.9325
  766MOL0     C 3300   2.611   0.803   8.348  0.6013  0.5180 -0.0232
  766MOL0     C 3301   2.613   0.853   8.222 -0.4246  1.0225 -0.8584
  766MOL0     C 3302   2.709   0.942   8.197  0.1647 -0.0704  0.8509
  766MOL0     C 3303   2.773   1.024   8.296  0.6201  0.0649 -0.5086
  766MOL0     C 3304   2.879   1.119   8.268 -0.5131 -0.1853 -0.3615
  766MOL0     O 3305   2.895   1.217   8.366  0.4003  0.1476  0.5914
  766MOL0     C 3306   2.976   1.316   8.322  0.2217  0.2841 -0.7961
  766MOL0     C 3307   2.965   1.408   8.220 -0.6242 -0.3967 -0.0946
  766MOL0     C 3308   3.062   1.506   8.202  0.2950 -0.5769 -0.4470
  766MOL0     C 3309   3.166   1.523   8.294 -1.5312  0.2718  0.5064
  766MOL0     O 3310   3.250   1.626   8.261 -0.0358  0.5607  0.2962
  766MOL0     C 3311   3.363   1.657   8.341  0.0565 -0.1797 -0.1502
  766MOL0     C 3312   3.409   1.797   8.303 -0.1948  0.4421 -0.6454
  766MOL0     C 3313   3.300   1.906   8.317 -0.9888  1.4769 -0.1873
  766MOL0     C 3314   3.316   1.959   8.460 -0.1907 -1.1777 -0.1923
  766MOL0     C 3315   3.230   2.082   8.472 -0.3461 -0.1490 -0.7746
  766MOL0     C 3316   3.086   2.049   8.513  0.8487 -0.3674  0.2192
  766MOL0     C 3317   2.983   2.149   8.456  0.1351  1.1653 -0.0351
  766MOL0     C 3318   2.941   2.114   8.308  0.3890  0.5371 -0.2828
  766MOL0    Cl 3319   2.933   2.267   8.215  0.9586  0.2827 -0.0510
  766MOL0     C 3320   3.178   1.435   8.399  0.8123 -0.3013 -0.1554
  766MOL0     C 3321   3.080   1.319   8.409 -1.3536 -0.3491  0.1687
  766MOL0     O 3322   2.940   1.105   8.164  0.4389 -0.3987  0.1823
  766MOL0     C 3323   2.758   0.979   8.428 -0.1602  0.0713 -0.4711
  766MOL0     C 3324   2.674   0.875   8.449  0.9355  1.5536  0.7684
  766MOL0     N 3325   1.983   0.539   8.327  0.4761  0.1164  0.8121
  766MOL0     N 3326   1.886   0.614   8.276 -0.0313  0.1929 -0.9180
  766MOL0     C 3327   1.844   1.628   7.422  0.4291  1.3994 -0.2931
  766MOL0     C 3328   1.802   1.690   7.305  0.0615 -0.1313 -0.2796
  766MOL0     C 3329   1.564   1.763   6.904  0.1656  0.5840  0.6752
  766MOL0     C 3330   1.626   1.771   6.777  0.2367  0.6634  0.1971
  766MOL0     C 3331   1.557   1.819   6.667 -0.0044 -1.0465 -0.4281
  766MOL0     C 3332   1.448   1.902   6.692  0.4069  0.6667  0.0380
  766MOL0     O 3333   1.382   1.956   6.585 -0.0095 -0.2676 -0.8431
  766MOL0     C 3334   1.237   2.000   6.581 -1.2858  0.0007  0.2069
  766MOL0     C 3335   1.174   1.942   6.450  0.4779 -0.4288  0.0941
  766MOL0     C 3336   1.028   1.912   6.447 -0.0386 -0.0197 -1.2157
  766MOL0     C 3337   0.989   1.855   6.310 -0.7876 -1.1505 -0.4992
  766MOL0     C 3338   0.855   1.805   6.307 -0.1926 -0.4772 -0.9467
  766MOL0     C 3339   0.739   1.782   6.291 -0.4337  0.5242  0.4109
  766MOL0     C 3340   1.388   1.902   6.818 -0.1264 -0.1778 -0.0320
  766MOL0     C 3341   1.449   1.837   6.924  0.8411 -0.4887 -1.0382
  766MOL0     C 3342   1.382   1.856   7.052  0.1875  0.1146 -0.6226
  766MOL0     H 3343   1.539   1.497   7.207 -0.3414  1.0674 -0.0667
  766MOL0     H 3344   1.620   1.371   7.406  3.5400 -2.6313 -1.0796
  766MOL0     H 3345   1.695   1.255   7.520 -0.0091  1.8760 -1.6324
  766MOL0     H 3346   1.876   1.234   7.512 -0.4467  1.7372 -0.9866
  766MOL0     H 3347   1.697   1.270   7.758  0.3079  4.2006 -1.2189
  766MOL0     H 3348   1.868   1.292   7.774 -0.5793 -0.0349  0.2654
  766MOL0     H 3349   1.920   1.063   7.699 -0.0124  0.9373 -1.9216
  766MOL0     H 3350   1.757   1.046   7.638 -1.5995  2.4493  0.5072
  766MOL0     H 3351   1.810   1.108   7.922 -2.1714  1.8346 -0.3266
  766MOL0     H 3352   1.669   1.038   7.866 -0.1509  0.6574 -3.1655
  766MOL0     H 3353   1.790   0.820   7.807 -0.1194  1.8641 -1.9155
  766MOL0     H 3354   1.938   0.896   7.874  0.0602  2.2241  1.9489
  766MOL0     H 3355   1.693   0.820   8.024 -0.4398 -0.5077 -3.6395
  766MOL0     H 3356   1.835   0.730   8.013 -1.5166 -1.2266  2.5217
  766MOL0     H 3357   1.805   1.016   8.134 -1.4378  0.1385 -1.7601
  766MOL0     H 3358   1.962   0.935   8.105  0.2931 -0.1392  2.5912
  766MOL0     H 3359   1.861   0.930   8.347  0.1317 -1.1239  1.7612
  766MOL0     H 3360   1.733   0.825   8.281  0.1930  0.0652  0.1241
  766MOL0     H 3361   2.102   0.831   8.401 -0.7541  0.3810 -0.3358
  766MOL0     H 3362   2.233   0.659   8.513 -0.8872 -1.2901  2.3569
  766MOL0     H 3363   2.180   0.505   8.528 -3.2304 -1.0001 -1.7710
  766MOL0     H 3364   2.290   0.421   8.301 -1.1677 -0.1093 -0.6612
  766MOL0     H 3365   2.333   0.587   8.267 -2.5745  1.6018  0.7598
  766MOL0     H 3366   2.474   0.390   8.414 -1.9446 -1.6710  4.7037
  766MOL0     H 3367   2.429   0.521   8.526 -1.9041  3.5044 -1.2753
  766MOL0     H 3368   2.557   0.547   8.259 -1.7915  2.3225 -0.5177
  766MOL0     H 3369   2.650   0.552   8.418  1.0249 -0.7487  0.1670
  766MOL0     H 3370   2.548   0.801   8.153 -1.6609 -0.1442  1.0820
  766MOL0     H 3371   2.730   0.970   8.095 -1.2184 -0.1850  0.5172
  766MOL0     H 3372   2.892   1.392   8.141  1.9586  0.2919 -2.8008
  766MOL0     H 3373   3.046   1.574   8.119  0.2969  1.5549  1.2263
  766MOL0     H 3374   3.337   1.661   8.447 -2.7244  1.0998 -0.7873
  766MOL0     H 3375   3.436   1.579   8.319  2.3769  2.2564 -1.7533
  766MOL0     H 3376   3.497   1.821   8.364  0.2724  1.3042 -1.6270
  766MOL0     H 3377   3.452   1.792   8.202  1.8367  1.3229  0.1254
  766MOL0     H 3378   3.322   1.986   8.245  5.4447 -0.7548 -1.3911
  766MOL0     H 3379   3.199   1.869   8.299 -1.9515  1.6743  3.8677
  766MOL0     H 3380   3.419   1.994   8.468 -1.5258  3.4332 -0.4883
  766MOL0     H 3381   3.303   1.894   8.548 -1.5653 -1.3082 -0.4768
  766MOL0     H 3382   3.236   2.150   8.387 -3.5996  0.6661 -0.5008
  766MOL0     H 3383   3.269   2.142   8.555  1.9014  0.0231 -1.8963
  766MOL0     H 3384   3.051   1.953   8.472 -0.9027 -0.6405  2.1214
  766MOL0     H 3385   3.087   2.040   8.622  0.9536  0.3944  0.2868
  766MOL0     H 3386   3.018   2.252   8.450  1.9141  0.5028 -4.1388
  766MOL0     H 3387   2.893   2.152   8.519  1.0113 -1.4753  1.5244
  766MOL0     H 3388   3.012   2.050   8.256 -1.0065 -1.7524  0.4823
  766MOL0     H 3389   2.855   2.048   8.294  1.2743 -0.9594  1.0101
  766MOL0     H 3390   3.247   1.448   8.481  1.1382 -0.0289 -0.4665
  766MOL0     H 3391   3.092   1.257   8.497  1.1079 -2.2978 -1.3940
  766MOL0     H 3392   2.812   1.026   8.509  0.4532  0.6156 -1.1850
  766MOL0     H 3393   2.673   0.826   8.546 -0.1856 -1.8825 -0.7871
  766MOL0     H 3394   1.918   1.678   7.484 -0.2113  0.2925  1.4381
  766MOL0     H 3395   1.826   1.792   7.276 -1.7166  0.2199 -0.6277
  766MOL0     H 3396   1.715   1.720   6.739 -1.5442 -1.7399 -1.0113
  766MOL0     H 3397   1.592   1.806   6.566  2.5902  2.4728 -0.1745
  766MOL0     H 3398   1.216   2.107   6.588 -0.8567  0.1356 -0.4334
  766MOL0     H 3399   1.184   1.950   6.662 -2.2135 -1.5896 -1.3189
  766MOL0     H 3400   1.219   1.846   6.425  1.0500 -0.2167  0.2892
  766MOL0     H 3401   1.197   2.016   6.372  3.0859 -2.7281 -1.5142
  766MOL0     H 3402   0.974   2.003   6.476  0.3500 -0.7690  2.3507
  766MOL0     H 3403   1.004   1.836   6.521 -0.3300  0.1970 -1.0858
  766MOL0     H 3404   1.016   1.936   6.242  0.2771  0.1219  1.3397
  766MOL0     H 3405   1.057   1.780   6.266  2.4600  1.2677  0.0555
  766MOL0     H 3406   0.635   1.773   6.270 -0.4053  1.4730 -0.2141
  766MOL0     H 3407   1.307   1.974   6.830  1.5987  1.7353  0.8774
  766MOL0     H 3408   1.414   1.787   7.131 -1.4535 -3.8921 -3.1673
  766MOL0     H 3409   1.388   1.961   7.083 -1.1700  0.2315 -0.6855
  766MOL0     H 3410   1.272   1.859   7.047  0.1142  4.9156 -0.6295
  767MOL0     O 3411  11.007   4.863   1.306 -0.4155 -0.1003 -0.2057
  767MOL0     C 3412  11.003   4.946   1.220  0.1195  0.2968 -0.4105
  767MOL0     O 3413  10.892   4.985   1.166 -0.1624  0.6955 -0.3442
  767MOL0     C 3414  10.778   4.922   1.189 -0.2242  0.5561 -0.1575
  767MOL0     C 3415  10.667   4.994   1.229 -0.0988  0.4667  0.1297
  767MOL0     C 3416  10.544   4.922   1.249  0.2217  0.1309 -0.0906
  767MOL0     C 3417  10.530   4.788   1.228 -0.3836  0.3932  0.0366
  767MOL0     O 3418  10.395   4.734   1.247  0.3863 -0.2640 -0.0106
  767MOL0     C 3419  10.374   4.610   1.321 -0.3324 -1.5086 -0.3442
  767MOL0     C 3420  10.345   4.663   1.466 -0.3206 -0.1628  0.1828
  767MOL0     C 3421  10.293   4.560   1.563  0.1261  0.8474 -0.8292
  767MOL0     C 3422  10.254   4.624   1.695  0.5490 -0.8881 -1.2774
  767MOL0     C 3423  10.100   4.639   1.711  0.8072  0.6341 -0.7857
  767MOL0     C 3424  10.066   4.677   1.858  0.0705  1.1100  1.1600
  767MOL0     C 3425   9.914   4.703   1.880  0.3103  0.2990 -0.3705
  767MOL0     C 3426   9.895   4.770   2.014 -0.9020  0.2484  0.3822
  767MOL0     N 3427   9.920   4.687   2.132 -0.2179  0.3829 -0.7256
  767MOL0     C 3428   9.849   4.572   2.167  1.0966  0.6904  0.0047
  767MOL0     C 3429   9.932   4.493   2.239  0.6751 -0.3140 -0.1958
  767MOL0     C 3430   9.885   4.369   2.318 -0.0222 -0.3466 -0.7176
  767MOL0     C 3431   9.787   4.396   2.444 -0.1317 -0.4305 -0.2924
  767MOL0     C 3432   9.706   4.275   2.462 -0.0452 -0.1531  0.0543
  767MOL0     C 3433   9.628   4.276   2.589 -0.3789  0.0514  0.1129
  767MOL0     O 3434   9.704   4.265   2.709 -0.0255 -0.3768 -0.1139
  767MOL0     C 3435   9.623   4.229   2.821 -0.1410 -1.8338  0.4360
  767MOL0     C 3436   9.677   4.133   2.896  0.2046  0.6075  0.9645
  767MOL0     C 3437   9.625   4.100   3.022 -0.2716  0.0367  0.3500
  767MOL0     C 3438   9.504   4.152   3.077  1.0657  0.3279 -0.0292
  767MOL0     C 3439   9.457   4.106   3.207  0.1512  0.6528  0.4900
  767MOL0     O 3440   9.516   3.996   3.277  0.7280 -0.5586  0.0280
  767MOL0     C 3441   9.463   3.961   3.394  0.8810 -0.6019 -0.9743
  767MOL0     C 3442   9.395   3.838   3.406 -0.2121 -0.2897 -0.9456
  767MOL0     C 3443   9.331   3.784   3.523  0.0566  1.1176 -0.0582
  767MOL0     C 3444   9.327   3.862   3.649 -0.5976  0.0785 -0.3692
  767MOL0     O 3445   9.274   3.830   3.773  0.4111  0.2473 -0.3813
  767MOL0     C 3446   9.202   3.710   3.777 -0.4571  0.3635 -0.1842
  767MOL0     C 3447   9.168   3.688   3.928  0.1826 -0.4163 -0.1808
  767MOL0     C 3448   9.061   3.787   3.988 -0.6448 -0.4995  1.1341
  767MOL0     C 3449   8.916   3.754   3.938  0.3202  0.1162  0.4920
  767MOL0     C 3450   8.815   3.827   4.023 -1.0169  0.1513 -0.6222
  767MOL0     C 3451   8.669   3.808   3.985 -0.3209 -0.0480  0.1400
  767MOL0     C 3452   8.591   3.948   3.986  0.0964 -0.2233  0.7022
  767MOL0     C 3453   8.442   3.930   3.944  0.9156  0.7256 -0.4785
  767MOL0    Cl 3454   8.367   4.086   3.931  0.0849  0.6794 -0.0384
  767MOL0     C 3455   9.393   3.983   3.637 -0.8263  0.4820  0.4411
  767MOL0     C 3456   9.469   4.029   3.523 -0.2514  0.0643  0.1939
  767MOL0     O 3457   9.358   4.166   3.250  0.9349 -0.3692 -0.9624
  767MOL0     C 3458   9.442   4.248   2.996 -0.2245 -0.2029  0.2343
  767MOL0     C 3459   9.507   4.296   2.874  0.0157 -0.7299 -0.3318
  767MOL0     N 3460  10.061   4.546   2.233  0.5449  0.8443  0.6907
  767MOL0     N 3461  10.044   4.666   2.174  0.1012  0.8042 -0.8946
  767MOL0     C 3462  10.643   4.723   1.187  0.2462 -0.0544  1.2003
  767MOL0     C 3463  10.763   4.788   1.161  0.4779  0.9693 -0.7561
  767MOL0     C 3464  11.133   5.015   1.177 -0.3124  0.6616 -0.1655
  767MOL0     C 3465  11.129   5.064   1.044 -0.7232  1.1377 -0.2244
  767MOL0     C 3466  11.246   5.118   0.983 -0.0957  0.2674  1.0697
  767MOL0     C 3467  11.368   5.122   1.048  0.1645  0.9334 -0.4834
  767MOL0     O 3468  11.479   5.152   0.980  0.7558 -0.3769  0.1161
  767MOL0     C 3469  11.615   5.158   1.035  1.1346 -0.8794 -1.0478
  767MOL0     C 3470  11.705   5.206   0.925 -0.0355  0.5486  0.1672
  767MOL0     C 3471  11.747   5.107   0.823 -0.5989  0.0374  0.9651
  767MOL0     C 3472  11.816   4.985   0.879  0.1003  0.5077 -0.8389
  767MOL0     C 3473  11.878   4.901   0.777 -0.1087  0.0757  0.2641
  767MOL0     C 3474  11.929   4.819   0.699  0.2594 -0.2070  0.1635
  767MOL0     C 3475  11.376   5.076   1.182  1.2516 -0.1833 -1.1980
  767MOL0     C 3476  11.257   5.016   1.244 -0.4482  0.2548 -0.1832
  767MOL0     C 3477  11.281   4.968   1.386  1.1317  0.2029 -0.4239
  767MOL0     H 3478  10.680   5.099   1.252  5.0074 -0.6462  4.3791
  767MOL0     H 3479  10.463   4.979   1.295 -1.0088  1.6752 -3.7836
  767MOL0     H 3480  10.290   4.560   1.272 -0.3146 -1.3091 -0.5828
  767MOL0     H 3481  10.458   4.539   1.319  0.8392 -0.1667 -1.6161
  767MOL0     H 3482  10.263   4.735   1.455 -0.2669 -0.2147 -0.6412
  767MOL0     H 3483  10.432   4.706   1.515 -0.8323 -1.3142  2.2033
  767MOL0     H 3484  10.378   4.495   1.587  1.2732  3.0580  1.5658
  767MOL0     H 3485  10.213   4.493   1.532 -0.5064 -0.3076  2.7873
  767MOL0     H 3486  10.302   4.567   1.776  1.9896 -0.9347 -2.1296
  767MOL0     H 3487  10.288   4.728   1.702  1.0193 -1.0100 -1.6815
  767MOL0     H 3488  10.058   4.703   1.633 -3.4819  1.2911  1.7384
  767MOL0     H 3489  10.046   4.548   1.685  2.1231 -0.7205  0.9645
  767MOL0     H 3490  10.086   4.581   1.907 -4.5237 -1.2902 -0.9869
  767MOL0     H 3491  10.132   4.755   1.896  0.6392  1.8823 -1.2389
  767MOL0     H 3492   9.858   4.609   1.870 -0.7153  0.4435  2.8870
  767MOL0     H 3493   9.884   4.767   1.797  1.2663  0.9292 -0.2501
  767MOL0     H 3494   9.950   4.863   2.028  1.2569 -0.7936 -0.7871
  767MOL0     H 3495   9.788   4.788   2.031 -1.3563 -1.8185  0.0231
  767MOL0     H 3496   9.743   4.561   2.144  1.1408 -1.7434  0.7384
  767MOL0     H 3497   9.852   4.292   2.247  1.6232 -2.6904  0.8851
  767MOL0     H 3498   9.979   4.327   2.356 -0.9343 -0.7288  1.2837
  767MOL0     H 3499   9.846   4.393   2.536 -2.2093 -3.2045  1.0645
  767MOL0     H 3500   9.725   4.486   2.450 -3.0220 -2.4239  1.7642
  767MOL0     H 3501   9.778   4.193   2.461 -0.9534 -1.1088  2.9188
  767MOL0     H 3502   9.635   4.266   2.380  1.4680  3.2616 -1.8351
  767MOL0     H 3503   9.565   4.186   2.591  0.5673 -0.6847 -1.4972
  767MOL0     H 3504   9.561   4.362   2.591 -2.4839 -1.5045  1.9865
  767MOL0     H 3505   9.776   4.101   2.862  1.0782  2.5214  1.6013
  767MOL0     H 3506   9.679   4.020   3.070 -0.9477 -0.8220 -0.2790
  767MOL0     H 3507   9.398   3.767   3.324  0.8773 -0.1864 -1.0118
  767MOL0     H 3508   9.291   3.683   3.518  2.5592  0.0104  0.3321
  767MOL0     H 3509   9.110   3.718   3.719 -0.3789  0.0322 -0.3582
  767MOL0     H 3510   9.262   3.628   3.737 -0.6090 -1.1129  2.4121
  767MOL0     H 3511   9.138   3.582   3.933  1.6132 -1.1352 -3.7961
  767MOL0     H 3512   9.261   3.713   3.979  0.5554  1.1788 -1.5647
  767MOL0     H 3513   9.078   3.778   4.096  0.8283  1.0060  1.0711
  767MOL0     H 3514   9.098   3.884   3.954 -2.6055 -0.4345 -1.0910
  767MOL0     H 3515   8.895   3.647   3.947  0.8125  0.0310  0.6468
  767MOL0     H 3516   8.885   3.766   3.833 -1.1624  2.4020  1.1094
  767MOL0     H 3517   8.840   3.934   4.027  1.0340 -0.3117  1.0691
  767MOL0     H 3518   8.837   3.795   4.125 -0.7115 -0.0011 -0.7329
  767MOL0     H 3519   8.666   3.762   3.886  4.4703 -1.3612  0.3822
  767MOL0     H 3520   8.621   3.747   4.062  0.0677  2.5049  2.5687
  767MOL0     H 3521   8.635   4.005   3.904  0.5453 -4.2337 -2.1166
  767MOL0     H 3522   8.598   3.999   4.083  1.7435 -3.4227  2.4109
  767MOL0     H 3523   8.441   3.885   3.844  1.0801 -1.1465  0.3220
  767MOL0     H 3524   8.390   3.856   4.006  0.4162  2.5573  1.3858
  767MOL0     H 3525   9.387   4.055   3.717 -1.6976  2.2178 -1.1111
  767MOL0     H 3526   9.534   4.115   3.524  1.2923 -1.0362 -1.0469
  767MOL0     H 3527   9.357   4.298   3.041 -0.2561 -2.5963  3.1162
  767MOL0     H 3528   9.467   4.388   2.831 -0.2724  0.7172  2.7856
  767MOL0     H 3529  10.642   4.618   1.160  0.8083  0.4538 -1.0953
  767MOL0     H 3530  10.849   4.726   1.140 -2.3944 -3.3294 -1.1307
  767MOL0     H 3531  11.034   5.054   0.992 -0.2796 -0.6976 -0.7537
  767MOL0     H 3532  11.244   5.144   0.877  4.5662 -1.2399  0.3808
  767MOL0     H 3533  11.651   5.067   1.086  2.8017  0.7552  0.8749
  767MOL0     H 3534  11.612   5.233   1.115 -1.1435  0.0913 -1.9512
  767MOL0     H 3535  11.802   5.231   0.969  1.2788 -2.5526 -0.6957
  767MOL0     H 3536  11.660   5.295   0.879  1.4756  0.2097 -2.1527
  767MOL0     H 3537  11.819   5.149   0.752 -0.2862  0.4897  1.5378
  767MOL0     H 3538  11.667   5.082   0.753  1.9594  2.3306 -3.1548
  767MOL0     H 3539  11.881   5.003   0.965 -0.2211  0.6999 -0.6314
  767MOL0     H 3540  11.730   4.932   0.922 -1.5766  2.1074 -2.0821
  767MOL0     H 3541  11.979   4.758   0.626 -0.7865  0.9640 -1.5953
  767MOL0     H 3542  11.470   5.084   1.235 -0.2150  2.8991  1.2435
  767MOL0     H 3543  11.378   4.992   1.430  0.8626 -0.9542  0.8514
  767MOL0     H 3544  11.200   5.006   1.448  1.1829  1.6332 -1.1804
  767MOL0     H 3545  11.278   4.859   1.380  3.2324  0.1761 -4.2334
  768MOL0     O 3546   4.198   9.956   5.221  0.1033  0.3969 -0.3991
  768MOL0     C 3547   4.095   9.886   5.225  1.5372  0.0524  0.3917
  768MOL0     O 3548   4.069   9.776   5.142 -0.0019  0.2125  0.5912
  768MOL0     C 3549   4.152   9.676   5.098 -0.4605  0.5635  0.8038
  768MOL0     C 3550   4.288   9.663   5.132  0.3364 -0.1050  0.0945
  768MOL0     C 3551   4.372   9.570   5.068 -0.2810  0.8612 -0.0266
  768MOL0     C 3552   4.327   9.479   4.970  0.4246  0.3559  0.1173
  768MOL0     O 3553   4.397   9.383   4.912  0.0727  0.0784 -0.2700
  768MOL0     C 3554   4.526   9.425   4.872  0.6329  0.3216  0.4696
  768MOL0     C 3555   4.597   9.324   4.790 -1.1126  0.4862 -0.3936
  768MOL0     C 3556   4.753   9.347   4.817  0.8642  0.0232 -0.5885
  768MOL0     C 3557   4.843   9.339   4.695 -0.3172  0.6015 -1.1046
  768MOL0     C 3558   4.845   9.207   4.618 -0.0726 -1.1455 -0.3655
  768MOL0     C 3559   4.955   9.124   4.669  0.6903 -0.7321 -1.0030
  768MOL0     C 3560   4.941   8.986   4.616  0.3922 -0.0487  0.2726
  768MOL0     C 3561   5.014   8.965   4.475  0.9038 -0.3865  0.5671
  768MOL0     N 3562   4.985   8.839   4.412 -0.1728  0.5553 -1.0548
  768MOL0     C 3563   4.862   8.788   4.384 -0.6912  0.3077  0.4214
  768MOL0     C 3564   4.888   8.659   4.354 -0.0807 -0.2615 -0.5004
  768MOL0     C 3565   4.776   8.564   4.314 -0.6651  0.7714  0.3398
  768MOL0     C 3566   4.699   8.525   4.436 -0.5890  0.1483 -0.1998
  768MOL0     C 3567   4.587   8.430   4.391 -0.7102 -0.3301 -0.9181
  768MOL0     C 3568   4.535   8.354   4.514 -0.7493  0.0699 -0.2959
  768MOL0     O 3569   4.627   8.263   4.562 -0.5364 -0.1825  0.6120
  768MOL0     C 3570   4.575   8.160   4.643  0.3601  0.8334 -0.1840
  768MOL0     C 3571   4.660   8.050   4.677 -0.1717 -0.3843  2.4152
  768MOL0     C 3572   4.607   7.932   4.727 -0.1100 -1.3177 -0.1413
  768MOL0     C 3573   4.471   7.920   4.767  0.6575  0.3460 -0.5525
  768MOL0     C 3574   4.431   7.788   4.829  0.1831  0.5064 -0.4696
  768MOL0     O 3575   4.303   7.763   4.868 -0.2144  0.4942 -0.8410
  768MOL0     C 3576   4.273   7.637   4.905  0.3220 -0.5238 -0.1778
  768MOL0     C 3577   4.355   7.539   4.976  0.6281 -0.4676  0.0031
  768MOL0     C 3578   4.298   7.421   5.022 -0.2568  0.5494 -0.4316
  768MOL0     C 3579   4.163   7.386   5.006 -0.3100 -0.1299  0.1001
  768MOL0     O 3580   4.117   7.279   5.070  0.4127 -0.3404  0.3382
  768MOL0     C 3581   3.983   7.287   5.129  0.2883 -0.5636 -0.5768
  768MOL0     C 3582   3.977   7.226   5.266 -0.2831 -0.3401  0.6522
  768MOL0     C 3583   4.032   7.319   5.373  0.2657 -0.6557 -0.5974
  768MOL0     C 3584   3.979   7.277   5.506  0.2668 -0.3052  0.8429
  768MOL0     C 3585   4.080   7.320   5.621  0.4796 -0.8004  0.1014
  768MOL0     C 3586   4.200   7.236   5.639 -1.6160  0.1341 -0.0663
  768MOL0     C 3587   4.289   7.309   5.745  1.0601 -0.1942  0.0714
  768MOL0     C 3588   4.428   7.248   5.764  0.4662  0.2270  0.0219
  768MOL0    Cl 3589   4.542   7.341   5.853 -0.2015  0.7285  0.3094
  768MOL0     C 3590   4.090   7.479   4.925  0.3386  0.2767 -0.1062
  768MOL0     C 3591   4.137   7.602   4.877 -0.9147  0.6286  0.1141
  768MOL0     O 3592   4.521   7.704   4.828  0.0108  0.7485  0.4896
  768MOL0     C 3593   4.392   8.039   4.756  0.1946  0.6808  0.7639
  768MOL0     C 3594   4.442   8.153   4.687  0.2044  1.2788 -0.5308
  768MOL0     N 3595   5.023   8.637   4.352 -0.0094  0.9903 -0.3570
  768MOL0     N 3596   5.081   8.744   4.378  0.0760  0.5299  0.2551
  768MOL0     C 3597   4.182   9.481   4.954 -0.1068  0.7192  0.8886
  768MOL0     C 3598   4.096   9.576   5.002 -0.6395 -0.3930 -0.1933
  768MOL0     C 3599   3.987   9.918   5.310  0.8200 -1.0482 -0.1450
  768MOL0     C 3600   3.851   9.865   5.288  0.2660 -0.1492  0.6587
  768MOL0     C 3601   3.733   9.907   5.356 -0.7882  0.0567  0.1124
  768MOL0     C 3602   3.754  10.006   5.468 -0.4020  0.2841  0.8318
  768MOL0     O 3603   3.661  10.071   5.548 -0.2381  0.7486  0.5963
  768MOL0     C 3604   3.531  10.036   5.514  0.8365 -0.3178 -0.5842
  768MOL0     C 3605   3.443  10.145   5.599  0.2195 -0.0302 -0.8910
  768MOL0     C 3606   3.481  10.156   5.745  0.4887  0.5281 -0.3137
  768MOL0     C 3607   3.449  10.030   5.832 -0.8344  0.2656  0.4818
  768MOL0     C 3608   3.304  10.028   5.862  0.6065  0.8792 -0.2154
  768MOL0     C 3609   3.184  10.040   5.880  0.3317 -0.3353  0.6660
  768MOL0     C 3610   3.885  10.035   5.496 -0.3781  0.4783  0.0821
  768MOL0     C 3611   4.002   9.991   5.431  0.1761 -0.4475 -0.1704
  768MOL0     C 3612   4.128  10.038   5.489  0.8971 -0.0095  0.7811
  768MOL0     H 3613   4.331   9.732   5.204  0.3296 -0.9722  0.9641
  768MOL0     H 3614   4.473   9.548   5.102 -0.1376  0.2530 -0.8370
  768MOL0     H 3615   4.514   9.524   4.828  1.9139 -0.4456 -1.7340
  768MOL0     H 3616   4.576   9.448   4.967  2.2803 -1.1209 -0.0038
  768MOL0     H 3617   4.583   9.334   4.682 -1.2852 -0.8355 -0.5113
  768MOL0     H 3618   4.573   9.221   4.818  1.2418 -0.0832 -0.3142
  768MOL0     H 3619   4.775   9.272   4.893  1.4551  3.1788  2.6408
  768MOL0     H 3620   4.772   9.439   4.874 -1.8960 -0.8302  1.9546
  768MOL0     H 3621   4.808   9.404   4.614  1.3910 -0.6012 -2.9063
  768MOL0     H 3622   4.941   9.369   4.733 -1.2026  3.0979 -0.5774
  768MOL0     H 3623   4.743   9.167   4.628 -0.9015  0.5943 -1.3146
  768MOL0     H 3624   4.857   9.217   4.510 -2.8820  1.8217 -0.5736
  768MOL0     H 3625   5.048   9.168   4.631 -0.0397  1.4012 -0.4133
  768MOL0     H 3626   4.919   9.123   4.772 -0.3158 -1.2565 -1.3457
  768MOL0     H 3627   4.836   8.958   4.603  0.6360 -0.6611 -0.4617
  768MOL0     H 3628   4.979   8.911   4.686 -0.7767 -1.1554 -0.2273
  768MOL0     H 3629   4.974   9.036   4.401 -2.0278 -1.1368  1.3110
  768MOL0     H 3630   5.119   8.996   4.478  0.6914  0.3746  0.5412
  768MOL0     H 3631   4.765   8.832   4.407  0.7962  3.2669  1.7042
  768MOL0     H 3632   4.709   8.611   4.241 -1.6313  1.1492  1.4505
  768MOL0     H 3633   4.828   8.486   4.258 -1.1511  0.5490  0.1944
  768MOL0     H 3634   4.765   8.473   4.506 -2.3566 -1.8524  0.0784
  768MOL0     H 3635   4.672   8.616   4.490 -0.7973 -0.7984  1.3254
  768MOL0     H 3636   4.616   8.356   4.316  1.5216  3.2731 -4.0067
  768MOL0     H 3637   4.510   8.497   4.352  2.2795  3.1587 -1.4380
  768MOL0     H 3638   4.443   8.303   4.484 -2.0137  2.5849 -1.0171
  768MOL0     H 3639   4.503   8.426   4.591  1.0251  0.3682  0.2047
  768MOL0     H 3640   4.764   8.059   4.647  0.2063 -3.4512  2.4893
  768MOL0     H 3641   4.685   7.857   4.732  1.1164 -0.2123 -1.7555
  768MOL0     H 3642   4.460   7.563   4.993  1.7979 -3.1405 -2.5937
  768MOL0     H 3643   4.363   7.351   5.074  2.0627  4.2687  2.1536
  768MOL0     H 3644   3.957   7.393   5.143 -1.2466 -0.9487 -0.4490
  768MOL0     H 3645   3.916   7.243   5.055  1.0809  0.4613 -1.9743
  768MOL0     H 3646   3.874   7.192   5.281 -1.0058 -0.0823 -2.9234
  768MOL0     H 3647   4.047   7.142   5.272  0.1167 -0.0606 -0.0306
  768MOL0     H 3648   4.140   7.300   5.371  0.9027  2.3927 -3.0044
  768MOL0     H 3649   4.006   7.425   5.360 -0.8661 -0.8687 -0.1756
  768MOL0     H 3650   3.956   7.170   5.502  1.3148 -0.5047 -0.4604
  768MOL0     H 3651   3.880   7.318   5.527 -2.0204 -5.2386  1.2000
  768MOL0     H 3652   4.024   7.305   5.714  0.1825 -1.8503 -0.2394
  768MOL0     H 3653   4.108   7.425   5.608 -0.0579 -0.5526  0.8909
  768MOL0     H 3654   4.164   7.140   5.679 -2.3012 -0.0075 -0.9745
  768MOL0     H 3655   4.244   7.221   5.540  0.7012 -0.7255  1.0277
  768MOL0     H 3656   4.246   7.310   5.845 -2.3116 -0.3939 -1.2425
  768MOL0     H 3657   4.318   7.404   5.699  0.1774 -0.2631 -0.6568
  768MOL0     H 3658   4.397   7.154   5.809 -2.7938  1.5662  0.8629
  768MOL0     H 3659   4.460   7.222   5.663 -2.2447 -1.2546 -0.5618
  768MOL0     H 3660   3.990   7.442   4.902  1.4172 -3.3332  0.4076
  768MOL0     H 3661   4.073   7.668   4.820 -0.1429  1.7950  0.5597
  768MOL0     H 3662   4.298   8.033   4.809  0.0275 -0.3727  0.3757
  768MOL0     H 3663   4.383   8.243   4.671 -1.0486  1.7758  5.0263
  768MOL0     H 3664   4.130   9.429   4.875 -0.4632  0.3059  1.3863
  768MOL0     H 3665   3.990   9.583   4.980 -0.7640 -0.6679  0.3126
  768MOL0     H 3666   3.835   9.791   5.211  2.9609 -0.2935  0.1477
  768MOL0     H 3667   3.640   9.866   5.319 -1.2964 -0.5799  1.9735
  768MOL0     H 3668   3.501   9.937   5.549  0.2739  0.0729  0.0576
  768MOL0     H 3669   3.509  10.047   5.408 -2.8109 -0.6969  0.0173
  768MOL0     H 3670   3.336  10.125   5.597  0.5402 -2.1137  0.1107
  768MOL0     H 3671   3.462  10.238   5.544  0.7803  2.0820  2.6038
  768MOL0     H 3672   3.424  10.240   5.786  1.0861  0.5974  0.3977
  768MOL0     H 3673   3.589  10.174   5.756  1.1542 -3.2532  0.7720
  768MOL0     H 3674   3.473   9.933   5.788 -0.6268  0.3405  0.4296
  768MOL0     H 3675   3.510  10.034   5.923 -0.0845 -3.3067  0.2676
  768MOL0     H 3676   3.078  10.028   5.873  0.6390 -3.0277 -3.8180
  768MOL0     H 3677   3.899  10.108   5.575 -0.6781 -1.0883  1.6618
  768MOL0     H 3678   4.176  10.109   5.421  0.2223 -0.2017  0.0929
  768MOL0     H 3679   4.125  10.084   5.589  0.1464 -3.3365  2.4194
  768MOL0     H 3680   4.200   9.957   5.496  0.7270 -0.2134  0.2193
  769MOL0     O 3681   5.907   6.553   2.603  0.1865 -0.3531 -0.1637
  769MOL0     C 3682   5.850   6.561   2.708  0.0044 -1.3909 -0.5900
  769MOL0     O 3683   5.720   6.601   2.726 -0.2820 -0.6723  0.7534
  769MOL0     C 3684   5.661   6.667   2.615  0.7295  0.9234 -1.0168
  769MOL0     C 3685   5.667   6.622   2.477 -1.2476  0.3104  0.7886
  769MOL0     C 3686   5.578   6.673   2.374  0.5534  0.8298 -0.5682
  769MOL0     C 3687   5.479   6.768   2.410 -0.7955 -0.6920  0.7447
  769MOL0     O 3688   5.389   6.813   2.313 -0.0171 -0.1512 -0.5620
  769MOL0     C 3689   5.287   6.914   2.355  0.4559  1.1910 -0.4263
  769MOL0     C 3690   5.323   7.055   2.326  0.2637  0.0628  0.1573
  769MOL0     C 3691   5.374   7.068   2.179 -0.6146 -0.3626 -0.5797
  769MOL0     C 3692   5.386   7.207   2.129  0.0526  0.2537  0.0331
  769MOL0     C 3693   5.415   7.212   1.977  0.1225  0.1164 -1.4406
  769MOL0     C 3694   5.550   7.143   1.947  0.2740 -0.3663  0.1875
  769MOL0     C 3695   5.589   7.163   1.799 -0.3586  0.2646 -0.2189
  769MOL0     C 3696   5.491   7.116   1.702 -0.3319  0.7113 -0.3003
  769MOL0     N 3697   5.535   7.106   1.558 -0.4799  0.1117 -0.3741
  769MOL0     C 3698   5.557   6.982   1.497 -0.1262  0.1415 -0.2843
  769MOL0     C 3699   5.579   7.009   1.366 -0.4308  0.9253 -0.5009
  769MOL0     C 3700   5.613   6.901   1.269 -0.5645 -0.7144  0.6440
  769MOL0     C 3701   5.764   6.883   1.242  0.2967  0.9123  0.0823
  769MOL0     C 3702   5.782   6.751   1.185  0.6088 -0.1102 -0.1128
  769MOL0     C 3703   5.896   6.748   1.079 -0.5931 -0.0978  0.0605
  769MOL0     O 3704   5.940   6.631   1.013  0.5906 -0.1871 -0.2310
  769MOL0     C 3705   5.847   6.524   1.013 -0.0824 -0.1100  0.5607
  769MOL0     C 3706   5.719   6.533   0.960 -0.0566 -0.1287  0.6675
  769MOL0     C 3707   5.636   6.424   0.957  0.4000 -0.4411 -0.7073
  769MOL0     C 3708   5.681   6.297   0.992 -0.1328  0.2644 -0.7726
  769MOL0     C 3709   5.595   6.186   0.989  0.5097  0.4374 -0.7997
  769MOL0     O 3710   5.459   6.206   0.974  0.4028 -0.3564 -0.3773
  769MOL0     C 3711   5.367   6.096   0.968 -0.3005 -0.1836 -0.4264
  769MOL0     C 3712   5.339   6.026   1.083 -0.8061 -0.6389  0.2064
  769MOL0     C 3713   5.236   5.931   1.076  0.0391  0.2457 -0.0059
  769MOL0     C 3714   5.154   5.919   0.961  0.0136  0.0776 -0.8285
  769MOL0     O 3715   5.041   5.839   0.974  0.4094 -0.2309  0.2597
  769MOL0     C 3716   4.921   5.852   0.898 -0.5124 -0.9208 -0.4235
  769MOL0     C 3717   4.839   5.728   0.927  0.5853  1.1775 -0.5282
  769MOL0     C 3718   4.834   5.670   1.074  0.3244 -0.2784 -0.4415
  769MOL0     C 3719   4.721   5.560   1.071 -0.0504  0.6676  0.0574
  769MOL0     C 3720   4.757   5.430   1.002 -0.7550  0.2557  0.3987
  769MOL0     C 3721   4.644   5.335   1.011  1.0144  0.4911 -0.0947
  769MOL0     C 3722   4.508   5.361   0.942  0.1995  0.8699 -0.2843
  769MOL0     C 3723   4.435   5.225   0.950  0.2209 -0.0123  0.1742
  769MOL0    Cl 3724   4.275   5.231   0.865 -0.3375  0.2148  0.4167
  769MOL0     C 3725   5.189   5.997   0.849  0.1330 -0.1214  0.5947
  769MOL0     C 3726   5.288   6.093   0.848  0.0081 -0.1111 -0.0597
  769MOL0     O 3727   5.645   6.070   0.996 -0.2186 -0.2820  0.2740
  769MOL0     C 3728   5.809   6.282   1.035 -0.2260  1.2225  0.1213
  769MOL0     C 3729   5.898   6.394   1.040 -0.3417 -0.6178  0.7046
  769MOL0     N 3730   5.566   7.144   1.343 -0.0511  0.0761 -0.3929
  769MOL0     N 3731   5.547   7.202   1.458  0.4839  0.6954  0.3702
  769MOL0     C 3732   5.477   6.806   2.543  0.4358 -0.2170  0.5142
  769MOL0     C 3733   5.558   6.756   2.639 -0.6540 -0.0218  0.0304
  769MOL0     C 3734   5.933   6.540   2.828 -0.4413  1.5950  0.2434
  769MOL0     C 3735   5.986   6.405   2.840  0.9241  0.1138  0.6300
  769MOL0     C 3736   6.072   6.376   2.939  0.2756  0.5561 -0.1772
  769MOL0     C 3737   6.093   6.463   3.044 -1.1349 -1.0331 -0.2727
  769MOL0     O 3738   6.180   6.424   3.145 -0.1072  0.5974  0.4102
  769MOL0     C 3739   6.220   6.489   3.264 -0.2618 -0.7347 -0.0611
  769MOL0     C 3740   6.311   6.609   3.248 -0.5378 -0.1348 -0.1627
  769MOL0     C 3741   6.424   6.601   3.152 -0.1440 -0.5684 -0.3643
  769MOL0     C 3742   6.547   6.517   3.192  0.3973  0.3249  0.4231
  769MOL0     C 3743   6.592   6.546   3.318 -0.5572  0.5126  0.6850
  769MOL0     C 3744   6.654   6.570   3.412  0.6857 -0.0773 -0.4349
  769MOL0     C 3745   6.039   6.590   3.034  0.5021 -0.0376 -1.0276
  769MOL0     C 3746   5.962   6.631   2.929 -0.2469  0.2345  0.9968
  769MOL0     C 3747   5.921   6.770   2.931  0.4363  0.5072  0.3105
  769MOL0     H 3748   5.741   6.553   2.437 -3.9405 -2.3267 -0.0239
  769MOL0     H 3749   5.586   6.636   2.273 -1.7398 -0.7561 -0.2648
  769MOL0     H 3750   5.198   6.901   2.293  0.5061 -0.5485 -0.1908
  769MOL0     H 3751   5.252   6.897   2.457  1.4458 -1.9819 -0.5070
  769MOL0     H 3752   5.390   7.090   2.405 -1.1038 -2.1151  2.4169
  769MOL0     H 3753   5.231   7.116   2.328  1.1762  1.5659 -1.0166
  769MOL0     H 3754   5.305   7.008   2.119 -1.9237 -0.2905  0.8092
  769MOL0     H 3755   5.478   7.033   2.180  0.7500  3.2172  0.8561
  769MOL0     H 3756   5.298   7.269   2.148 -0.3352  0.2577 -1.6349
  769MOL0     H 3757   5.461   7.261   2.187 -0.4488  0.3371  0.6100
  769MOL0     H 3758   5.323   7.177   1.931 -1.4002  2.8096 -0.6456
  769MOL0     H 3759   5.432   7.313   1.938 -0.2169  0.5063 -0.5992
  769MOL0     H 3760   5.632   7.171   2.014 -0.2270 -1.3676  1.2500
  769MOL0     H 3761   5.555   7.034   1.955  2.2199 -0.2414  1.1373
  769MOL0     H 3762   5.686   7.118   1.779  0.0631  0.6076  0.9691
  769MOL0     H 3763   5.605   7.270   1.779 -0.4299  0.4292  0.5793
  769MOL0     H 3764   5.450   7.017   1.725 -0.4910  0.9465  0.4643
  769MOL0     H 3765   5.401   7.176   1.721 -0.5968  0.3823 -0.4859
  769MOL0     H 3766   5.556   6.883   1.542  1.1177 -0.1115 -0.7734
  769MOL0     H 3767   5.559   6.813   1.304 -2.8622  0.6173  0.5928
  769MOL0     H 3768   5.568   6.929   1.173 -0.9367 -1.7715  0.5061
  769MOL0     H 3769   5.798   6.964   1.177 -0.2900  0.6812 -0.5179
  769MOL0     H 3770   5.830   6.899   1.328 -1.7183  0.5614  1.7630
  769MOL0     H 3771   5.687   6.727   1.138 -0.6817  2.0737  1.2425
  769MOL0     H 3772   5.791   6.675   1.264 -2.7393  2.5863  3.2240
  769MOL0     H 3773   5.975   6.767   1.152 -1.2205  1.5633  0.3539
  769MOL0     H 3774   5.881   6.831   1.009 -1.9868  0.2190  0.7061
  769MOL0     H 3775   5.686   6.631   0.929 -0.2210  0.3220  2.1862
  769MOL0     H 3776   5.532   6.426   0.925  0.1416 -2.5877 -0.1796
  769MOL0     H 3777   5.407   6.043   1.166  1.1096  1.7693 -1.6968
  769MOL0     H 3778   5.209   5.866   1.159 -3.8249  0.8759 -0.5862
  769MOL0     H 3779   4.877   5.950   0.920  1.0992  0.1219 -1.5699
  769MOL0     H 3780   4.946   5.857   0.791  1.5377  1.1186  0.0668
  769MOL0     H 3781   4.739   5.743   0.885  0.5666 -0.5319 -1.1703
  769MOL0     H 3782   4.886   5.649   0.867 -3.1034 -2.8849  1.4168
  769MOL0     H 3783   4.929   5.629   1.107  0.0699  0.4879  1.3602
  769MOL0     H 3784   4.814   5.745   1.152 -0.1051 -1.1355  0.2871
  769MOL0     H 3785   4.620   5.592   1.045  0.1449  2.9574  1.8321
  769MOL0     H 3786   4.707   5.544   1.178 -4.3828  0.8003 -0.2995
  769MOL0     H 3787   4.851   5.393   1.044 -1.0367 -2.9695 -1.4617
  769MOL0     H 3788   4.780   5.433   0.894  1.8633 -0.7552  0.8445
  769MOL0     H 3789   4.682   5.243   0.966  0.0796  0.7141 -1.4028
  769MOL0     H 3790   4.623   5.337   1.119 -2.4121 -1.2700 -0.5963
  769MOL0     H 3791   4.511   5.397   0.839 -0.0877  4.2670  0.7758
  769MOL0     H 3792   4.450   5.432   1.003 -0.2371  0.9149 -0.7503
  769MOL0     H 3793   4.495   5.143   0.909  2.1316  0.8310  1.1710
  769MOL0     H 3794   4.412   5.194   1.052  0.0431 -1.3051 -0.2366
  769MOL0     H 3795   5.123   5.990   0.764 -1.6586  0.8264  1.8201
  769MOL0     H 3796   5.326   6.158   0.769  0.3112  1.2255  1.1532
  769MOL0     H 3797   5.851   6.187   1.067  1.0944  1.8705  0.3717
  769MOL0     H 3798   6.004   6.392   1.066 -0.5940  0.5915  1.9387
  769MOL0     H 3799   5.391   6.862   2.580  1.0185  1.9305 -1.1567
  769MOL0     H 3800   5.534   6.785   2.741  0.7328 -1.1544  0.7088
  769MOL0     H 3801   5.960   6.325   2.773  1.6306  1.2307 -1.0394
  769MOL0     H 3802   6.128   6.284   2.945  1.8646  1.4239 -0.8773
  769MOL0     H 3803   6.280   6.417   3.321  1.3803 -0.8506 -1.8447
  769MOL0     H 3804   6.136   6.525   3.324  0.6616 -1.0274  1.4740
  769MOL0     H 3805   6.354   6.628   3.346 -1.6267 -2.0810  0.7635
  769MOL0     H 3806   6.242   6.693   3.234  3.0669  3.4375  1.6630
  769MOL0     H 3807   6.474   6.698   3.142  1.9644 -1.6217 -0.5312
  769MOL0     H 3808   6.400   6.579   3.048  3.7616  0.8416 -1.7561
  769MOL0     H 3809   6.513   6.413   3.198  1.4849  0.0429  2.6178
  769MOL0     H 3810   6.621   6.525   3.111 -0.1082 -0.1673 -0.0947
  769MOL0     H 3811   6.710   6.591   3.501  1.2114  5.1055 -1.6523
  769MOL0     H 3812   6.077   6.653   3.114  1.1483  0.9284 -2.0630
  769MOL0     H 3813   5.876   6.790   3.029 -1.5420  1.7397 -0.7731
  769MOL0     H 3814   6.005   6.836   2.908  0.8985 -0.1156  0.1936
  769MOL0     H 3815   5.839   6.788   2.861  0.8696  0.0368 -0.3340
  770MOL0     O 3816   5.149   3.016   3.862  0.0362  0.1648  0.1276
  770MOL0     C 3817   5.022   3.008   3.877  0.0963  0.6867  0.1777
  770MOL0     O 3818   4.936   3.090   3.818  0.4718  0.5713 -0.3618
  770MOL0     C 3819   4.980   3.194   3.737 -1.4286  1.3665 -0.7194
  770MOL0     C 3820   4.952   3.327   3.763 -0.3516 -1.1762  0.7217
  770MOL0     C 3821   4.984   3.435   3.682  0.1611 -0.3447  0.6748
  770MOL0     C 3822   5.062   3.413   3.564 -0.2842  0.1877 -0.2162
  770MOL0     O 3823   5.105   3.502   3.470 -0.5396  0.1325  0.3558
  770MOL0     C 3824   5.050   3.638   3.481  0.0514 -1.5557  0.2454
  770MOL0     C 3825   5.106   3.725   3.597 -0.2963 -0.4357  0.1434
  770MOL0     C 3826   5.154   3.855   3.531 -0.8810  0.4157 -0.4355
  770MOL0     C 3827   5.214   3.949   3.634  0.0266 -0.7730 -0.2240
  770MOL0     C 3828   5.293   4.067   3.559  0.7269 -0.6463  0.5762
  770MOL0     C 3829   5.203   4.171   3.491  0.0771 -0.4026 -0.2674
  770MOL0     C 3830   5.279   4.291   3.436  0.2781 -0.4362  0.3192
  770MOL0     C 3831   5.186   4.408   3.390 -0.1027 -0.2307 -0.6264
  770MOL0     N 3832   5.259   4.532   3.375 -0.5397 -0.9360  1.0587
  770MOL0     C 3833   5.319   4.569   3.257 -0.1708 -0.3465 -0.1437
  770MOL0     C 3834   5.366   4.699   3.279 -0.5791  0.3098  1.2964
  770MOL0     C 3835   5.436   4.785   3.171  0.6204  0.6051  0.7083
  770MOL0     C 3836   5.519   4.903   3.213 -0.3872  0.1834 -0.5692
  770MOL0     C 3837   5.640   4.871   3.301  0.4860  0.1820 -0.0274
  770MOL0     C 3838   5.730   4.763   3.238 -0.5054  0.8997 -0.8082
  770MOL0     O 3839   5.858   4.757   3.301  0.3110 -0.4833 -0.4252
  770MOL0     C 3840   5.976   4.807   3.254  0.6594 -0.3477 -0.1762
  770MOL0     C 3841   5.968   4.909   3.164 -0.2709  0.6492  0.2656
  770MOL0     C 3842   6.087   4.951   3.106  0.3880  0.4525  0.3839
  770MOL0     C 3843   6.208   4.899   3.143 -1.0860  0.7065 -0.1361
  770MOL0     C 3844   6.335   4.924   3.060 -0.3262 -0.1947  0.4543
  770MOL0     O 3845   6.450   4.832   3.070 -0.5731 -0.5086  0.0210
  770MOL0     C 3846   6.570   4.895   3.060  0.6775 -0.7316  0.0725
  770MOL0     C 3847   6.650   4.853   2.952  0.1477  0.1593  0.3690
  770MOL0     C 3848   6.785   4.901   2.954 -1.1355 -0.4460  0.0376
  770MOL0     C 3849   6.834   5.001   3.057 -0.4874 -1.0841 -0.9328
  770MOL0     O 3850   6.965   5.039   3.068  0.1104 -0.5702 -0.8765
  770MOL0     C 3851   7.046   5.043   2.945  0.6582 -0.4188 -0.2088
  770MOL0     C 3852   7.170   5.121   2.975  0.3715 -0.1374  0.1168
  770MOL0     C 3853   7.287   5.041   3.056 -0.6590  0.7402  0.9813
  770MOL0     C 3854   7.372   4.959   2.960  0.7740  0.0703  0.2679
  770MOL0     C 3855   7.490   4.885   3.033 -0.6187 -0.7474 -0.4912
  770MOL0     C 3856   7.441   4.794   3.155 -0.4889 -0.4626 -0.4270
  770MOL0     C 3857   7.565   4.731   3.229  0.4297 -1.5347 -0.5217
  770MOL0     C 3858   7.538   4.664   3.366  0.9603  0.3801 -0.5011
  770MOL0    Cl 3859   7.694   4.623   3.439 -0.2974 -0.4957 -0.2945
  770MOL0     C 3860   6.736   5.032   3.156  0.2202 -0.6421 -0.1176
  770MOL0     C 3861   6.608   4.973   3.157 -0.2149 -0.0727 -0.2292
  770MOL0     O 3862   6.346   5.037   3.012  0.2028 -0.4446 -0.4238
  770MOL0     C 3863   6.208   4.801   3.244 -0.2987 -0.1299  0.3857
  770MOL0     C 3864   6.092   4.756   3.304 -0.0701 -0.1262  0.7368
  770MOL0     N 3865   5.361   4.716   3.418  0.0270 -0.7026  1.0068
  770MOL0     N 3866   5.292   4.628   3.467 -0.0511  0.5387  0.1608
  770MOL0     C 3867   5.112   3.283   3.548  0.5238  0.8941  0.4623
  770MOL0     C 3868   5.073   3.171   3.625 -0.0973  0.5996 -0.3817
  770MOL0     C 3869   4.973   2.895   3.952  0.9846 -0.0717 -0.3158
  770MOL0     C 3870   5.054   2.809   4.033 -0.1610 -0.6470  1.0907
  770MOL0     C 3871   5.003   2.717   4.116 -0.1402  0.1595 -0.6576
  770MOL0     C 3872   4.863   2.685   4.112 -0.0806 -0.3426  0.4598
  770MOL0     O 3873   4.796   2.584   4.180 -0.0347  0.1799  0.6781
  770MOL0     C 3874   4.883   2.473   4.208  0.1902 -0.0952  0.9520
  770MOL0     C 3875   4.821   2.339   4.211  0.3596  0.3388  0.6110
  770MOL0     C 3876   4.832   2.276   4.353 -0.0123 -0.7675 -0.1171
  770MOL0     C 3877   4.744   2.352   4.461  0.0397  0.5984  0.5873
  770MOL0     C 3878   4.763   2.287   4.589 -0.2188 -0.5863  0.4359
  770MOL0     C 3879   4.779   2.244   4.694 -0.1473  0.4378 -0.7639
  770MOL0     C 3880   4.779   2.764   4.030  0.4580  0.0371  0.3909
  770MOL0     C 3881   4.834   2.860   3.943  0.2505 -0.0529  0.2240
  770MOL0     C 3882   4.729   2.922   3.856 -0.2324 -0.9499  0.1635
  770MOL0     H 3883   4.901   3.348   3.857  1.5470  1.6229  1.2669
  770MOL0     H 3884   4.941   3.533   3.702  1.4897  1.0209 -2.3906
  770MOL0     H 3885   5.053   3.686   3.383 -2.2963 -2.8607 -0.5440
  770MOL0     H 3886   4.941   3.640   3.487 -0.0702  1.8623 -0.8146
  770MOL0     H 3887   5.184   3.670   3.650  2.4626  2.1338 -0.9632
  770MOL0     H 3888   5.023   3.748   3.665 -1.0191 -0.9591 -0.5436
  770MOL0     H 3889   5.080   3.910   3.472  0.0697  0.7915 -1.3208
  770MOL0     H 3890   5.236   3.834   3.461  0.4039 -2.9216  1.8288
  770MOL0     H 3891   5.139   3.990   3.702  1.8589 -1.2631  2.2079
  770MOL0     H 3892   5.269   3.884   3.702  0.5769 -1.2360 -1.0933
  770MOL0     H 3893   5.352   4.118   3.636  0.7862 -0.3222  0.3153
  770MOL0     H 3894   5.360   4.025   3.483 -0.5600  1.4128 -1.8049
  770MOL0     H 3895   5.151   4.132   3.404  0.9584  1.6057 -1.7836
  770MOL0     H 3896   5.132   4.206   3.567 -1.7387  2.3257 -2.9783
  770MOL0     H 3897   5.345   4.261   3.354  1.5471 -1.0715  1.5328
  770MOL0     H 3898   5.343   4.330   3.515  1.1817 -0.0110 -0.5953
  770MOL0     H 3899   5.132   4.384   3.297  0.8002  1.1199 -1.5325
  770MOL0     H 3900   5.112   4.426   3.468  1.1584 -2.0484  1.0673
  770MOL0     H 3901   5.316   4.518   3.161  1.9433 -0.2885 -0.2945
  770MOL0     H 3902   5.492   4.721   3.102 -1.0952  2.4371 -2.6469
  770MOL0     H 3903   5.363   4.823   3.100  0.6937 -0.9786 -0.2653
  770MOL0     H 3904   5.572   4.933   3.122  1.3706 -0.7154  0.0967
  770MOL0     H 3905   5.461   4.988   3.249 -0.5666 -0.8889  1.9102
  770MOL0     H 3906   5.601   4.840   3.398  1.3510 -1.9583 -0.3123
  770MOL0     H 3907   5.693   4.962   3.333  0.1642  0.3335  0.0755
  770MOL0     H 3908   5.742   4.798   3.135 -0.3113  1.1733 -0.6932
  770MOL0     H 3909   5.691   4.661   3.234  0.4083  0.5476 -0.8484
  770MOL0     H 3910   5.879   4.962   3.129  0.9350  0.9258 -2.6613
  770MOL0     H 3911   6.092   5.026   3.028  4.0054 -0.0456 -0.0360
  770MOL0     H 3912   6.608   4.787   2.877  2.3008 -1.0522  0.1541
  770MOL0     H 3913   6.847   4.860   2.875  2.3372 -1.0218  2.7904
  770MOL0     H 3914   7.055   4.945   2.897  1.4342 -1.0534  1.1738
  770MOL0     H 3915   6.985   5.100   2.875 -1.5398 -2.7300 -0.3407
  770MOL0     H 3916   7.206   5.156   2.878  0.4561 -0.5007  0.0127
  770MOL0     H 3917   7.149   5.209   3.035  1.1674  2.2438 -2.8577
  770MOL0     H 3918   7.352   5.103   3.119 -0.0054 -2.7951  4.1753
  770MOL0     H 3919   7.236   4.972   3.125 -2.0939 -1.9801 -2.4962
  770MOL0     H 3920   7.403   5.028   2.880 -3.7975 -0.8030 -2.6559
  770MOL0     H 3921   7.304   4.889   2.910 -1.8101  3.9894 -2.3112
  770MOL0     H 3922   7.564   4.957   3.069 -2.2256 -0.7545  3.1986
  770MOL0     H 3923   7.546   4.828   2.958 -2.3634 -2.5940 -0.4892
  770MOL0     H 3924   7.381   4.856   3.223 -3.2247 -1.3329 -1.9111
  770MOL0     H 3925   7.383   4.708   3.120  1.2279 -1.8864  0.1055
  770MOL0     H 3926   7.641   4.806   3.255  0.0769 -1.3260 -0.0820
  770MOL0     H 3927   7.603   4.653   3.163  0.7729 -0.5449 -1.5326
  770MOL0     H 3928   7.487   4.728   3.438 -0.3653 -0.4119 -0.6892
  770MOL0     H 3929   7.481   4.571   3.354  0.2075  0.7350  0.2509
  770MOL0     H 3930   6.773   5.102   3.230  0.5853 -1.6999  0.7261
  770MOL0     H 3931   6.549   4.973   3.248 -2.4750  0.0907 -1.6134
  770MOL0     H 3932   6.301   4.757   3.278 -0.1320 -1.6342 -1.8011
  770MOL0     H 3933   6.105   4.687   3.386  0.2586  0.8723  1.5418
  770MOL0     H 3934   5.181   3.280   3.464  2.0713 -0.3141  1.7055
  770MOL0     H 3935   5.092   3.066   3.608  1.1228  0.4488  1.5809
  770MOL0     H 3936   5.162   2.818   4.027 -0.1211  0.0216  2.3859
  770MOL0     H 3937   5.060   2.666   4.192  0.2874  0.1840 -0.9593
  770MOL0     H 3938   4.940   2.486   4.300  0.3638  5.6889  0.3805
  770MOL0     H 3939   4.954   2.461   4.125 -0.1327  1.3819  0.4354
  770MOL0     H 3940   4.874   2.278   4.137  2.1788 -0.5778  2.5821
  770MOL0     H 3941   4.719   2.331   4.172 -0.1478 -1.0730  2.1051
  770MOL0     H 3942   4.935   2.284   4.389 -0.4677 -3.2954  1.9996
  770MOL0     H 3943   4.803   2.171   4.353  5.5219 -2.7738 -4.6656
  770MOL0     H 3944   4.744   2.461   4.462  0.2987  0.6729 -1.5879
  770MOL0     H 3945   4.642   2.337   4.424  0.5660 -1.6506 -0.1451
  770MOL0     H 3946   4.815   2.185   4.777  2.8201 -0.6073 -2.6359
  770MOL0     H 3947   4.675   2.734   4.025  0.5266 -0.5963  2.0887
  770MOL0     H 3948   4.635   2.867   3.856 -1.5435  1.1947  0.7087
  770MOL0     H 3949   4.718   3.023   3.895  0.6497 -0.7725 -0.0173
  770MOL0     H 3950   4.768   2.919   3.753 -0.9719 -1.5885 -0.1062
  771MOL0     O 3951   2.880   5.800   4.141 -0.3653 -0.5918 -0.2687
  771MOL0     C 3952   2.796   5.869   4.089 -0.6099  0.8679 -0.6786
  771MOL0     O 3953   2.774   5.996   4.112  0.4869  0.1380 -0.3572
  771MOL0     C 3954   2.846   6.055   4.220 -0.6666  0.6559 -0.4776
  771MOL0     C 3955   2.815   6.015   4.352 -0.8736  0.3895  0.5292
  771MOL0     C 3956   2.882   6.065   4.461 -0.0013 -1.0838  0.5755
  771MOL0     C 3957   2.984   6.157   4.442  0.2136  0.1227 -0.7202
  771MOL0     O 3958   3.054   6.218   4.547 -0.1114 -0.1749 -0.1532
  771MOL0     C 3959   3.057   6.183   4.681 -0.2573  1.3873 -0.0636
  771MOL0     C 3960   3.151   6.277   4.759 -0.2267  0.7607 -0.6158
  771MOL0     C 3961   3.292   6.227   4.725 -0.0589  0.4558 -0.1607
  771MOL0     C 3962   3.391   6.308   4.807  0.1010 -0.1134 -0.7631
  771MOL0     C 3963   3.419   6.232   4.947  0.1559  0.3308 -0.9018
  771MOL0     C 3964   3.521   6.123   4.947 -0.0206 -0.5437  0.3202
  771MOL0     C 3965   3.518   6.054   5.083  0.2330  0.0910 -0.2333
  771MOL0     C 3966   3.597   6.116   5.194 -0.6097 -0.4778  1.0934
  771MOL0     N 3967   3.635   6.014   5.285  1.0293 -0.1690  0.1480
  771MOL0     C 3968   3.568   5.984   5.405  0.4093  0.4258 -0.2588
  771MOL0     C 3969   3.634   5.877   5.450  0.0367 -0.0771 -0.3200
  771MOL0     C 3970   3.593   5.811   5.582 -0.9661 -0.5288 -0.3821
  771MOL0     C 3971   3.699   5.720   5.641  1.0414  0.2049 -0.5107
  771MOL0     C 3972   3.632   5.646   5.769 -1.4006  0.4580  0.9991
  771MOL0     C 3973   3.647   5.488   5.758  0.5576  0.1228  0.5045
  771MOL0     O 3974   3.760   5.426   5.801 -0.9437 -0.2786 -0.3500
  771MOL0     C 3975   3.842   5.463   5.906  1.0348 -0.1978  0.3919
  771MOL0     C 3976   3.957   5.537   5.873 -0.0625 -0.0454 -1.1208
  771MOL0     C 3977   4.022   5.608   5.977  0.5585 -0.1415  0.2695
  771MOL0     C 3978   3.976   5.608   6.109 -1.0576  0.2498  0.9763
  771MOL0     C 3979   4.054   5.669   6.214  0.4199  0.6136 -0.1373
  771MOL0     O 3980   4.011   5.655   6.338  1.1470  0.0303  0.2614
  771MOL0     C 3981   4.067   5.734   6.433 -0.1612  0.5370  0.5409
  771MOL0     C 3982   4.033   5.873   6.450  0.5275  0.9924  1.3944
  771MOL0     C 3983   4.084   5.946   6.563  0.4387  0.4263  0.9869
  771MOL0     C 3984   4.190   5.888   6.637  0.8729 -0.9354 -1.2198
  771MOL0     O 3985   4.251   5.960   6.730  0.1878  0.0055  0.2729
  771MOL0     C 3986   4.184   5.968   6.851  0.5950  0.6484  0.1476
  771MOL0     C 3987   4.225   6.087   6.934  0.2314 -0.3027  0.6022
  771MOL0     C 3988   4.157   6.234   6.899 -0.5941  0.6070  0.2941
  771MOL0     C 3989   4.231   6.302   6.772  0.1997 -0.3889  0.4796
  771MOL0     C 3990   4.187   6.451   6.760 -0.7106  0.0196 -0.1572
  771MOL0     C 3991   4.250   6.536   6.660  0.7374  0.4799  0.3576
  771MOL0     C 3992   4.236   6.687   6.695  0.0647  0.0928 -0.7070
  771MOL0     C 3993   4.326   6.773   6.612  0.6900  0.0987 -0.4590
  771MOL0    Cl 3994   4.275   6.767   6.438 -0.1611 -0.7862  0.4067
  771MOL0     C 3995   4.218   5.756   6.611  0.3081  0.5411 -0.1864
  771MOL0     C 3996   4.167   5.678   6.511  0.7579 -0.3087  1.4810
  771MOL0     O 3997   4.164   5.719   6.186 -0.8644  0.0894  0.0285
  771MOL0     C 3998   3.857   5.533   6.139 -0.4920  0.4327 -0.5097
  771MOL0     C 3999   3.796   5.463   6.038  0.0425 -0.5273 -1.1719
  771MOL0     N 4000   3.741   5.842   5.372 -0.5590 -0.0342 -0.6479
  771MOL0     N 4001   3.744   5.935   5.281 -0.4927  0.7496  1.1568
  771MOL0     C 4002   3.022   6.194   4.319  0.1528  0.3698  0.2797
  771MOL0     C 4003   2.953   6.151   4.206 -0.8141 -1.0050  0.4379
  771MOL0     C 4004   2.710   5.806   3.979 -0.1260  0.4310 -0.7894
  771MOL0     C 4005   2.599   5.888   3.942 -0.3284 -0.8209  0.5914
  771MOL0     C 4006   2.501   5.853   3.855  0.5525  0.6684  0.4633
  771MOL0     C 4007   2.503   5.723   3.804 -0.6077 -0.2839 -0.7734
  771MOL0     O 4008   2.409   5.659   3.737 -0.7212  0.2027  0.1745
  771MOL0     C 4009   2.278   5.705   3.775  1.3545  0.1177 -0.3464
  771MOL0     C 4010   2.226   5.807   3.678 -0.3817  0.1864  1.5160
  771MOL0     C 4011   2.107   5.898   3.699  0.5636 -0.1083  1.1066
  771MOL0     C 4012   2.128   5.987   3.824  0.2158 -0.2140  0.0283
  771MOL0     C 4013   2.001   6.060   3.857 -1.0206 -0.1622 -0.2164
  771MOL0     C 4014   1.904   6.126   3.879 -0.4861 -0.9174  1.1234
  771MOL0     C 4015   2.616   5.641   3.823 -0.4616 -0.2536  0.4293
  771MOL0     C 4016   2.724   5.679   3.915  0.2528  0.2886  0.2112
  771MOL0     C 4017   2.830   5.579   3.929 -0.2222 -0.0888 -1.1356
  771MOL0     H 4018   2.722   5.960   4.365 -0.1143 -1.0576  0.0347
  771MOL0     H 4019   2.841   6.045   4.559 -4.4492  2.2638 -0.2493
  771MOL0     H 4020   2.958   6.190   4.728 -0.1324 -2.1622  0.9800
  771MOL0     H 4021   3.092   6.080   4.695  1.0687  1.8853  0.3944
  771MOL0     H 4022   3.130   6.266   4.866 -0.4385  0.2503 -0.7073
  771MOL0     H 4023   3.144   6.383   4.733  1.7231  1.6300  1.9061
  771MOL0     H 4024   3.316   6.249   4.621 -1.7817  1.6496 -0.3542
  771MOL0     H 4025   3.296   6.119   4.742  0.5733  0.5442  0.2875
  771MOL0     H 4026   3.491   6.317   4.763  2.3813 -0.9543  3.6474
  771MOL0     H 4027   3.342   6.404   4.825  3.2028  1.7543 -1.4927
  771MOL0     H 4028   3.442   6.302   5.029 -1.2097 -2.6991  2.3378
  771MOL0     H 4029   3.325   6.190   4.985  1.1323  0.3903  1.7847
  771MOL0     H 4030   3.503   6.050   4.867  2.6339  0.5269 -1.3936
  771MOL0     H 4031   3.624   6.156   4.933  0.1957 -1.4029 -0.2213
  771MOL0     H 4032   3.551   5.950   5.075  0.6782  0.3657 -3.2956
  771MOL0     H 4033   3.414   6.045   5.116 -0.1067  1.4540 -0.8447
  771MOL0     H 4034   3.686   6.150   5.140 -1.1053  0.5014  0.8719
  771MOL0     H 4035   3.543   6.193   5.250 -1.5449 -1.0940  1.0539
  771MOL0     H 4036   3.485   6.028   5.458  1.8759 -1.2153  3.7930
  771MOL0     H 4037   3.557   5.889   5.650 -4.8446  0.3547 -3.1036
  771MOL0     H 4038   3.498   5.761   5.565 -2.0318  0.2556  2.6073
  771MOL0     H 4039   3.736   5.655   5.561 -2.3377 -2.8988  0.1618
  771MOL0     H 4040   3.786   5.766   5.687  1.1009 -1.1758  0.8434
  771MOL0     H 4041   3.528   5.680   5.768 -0.4550  3.7752 -0.6526
  771MOL0     H 4042   3.682   5.693   5.855  1.6685 -1.8108  0.6120
  771MOL0     H 4043   3.634   5.479   5.649 -0.5783  2.2239  0.4058
  771MOL0     H 4044   3.563   5.435   5.804  0.5570 -0.4131 -0.1049
  771MOL0     H 4045   3.990   5.538   5.770 -3.2950  1.6801 -2.2638
  771MOL0     H 4046   4.110   5.669   5.959  0.7939 -0.1106  1.4543
  771MOL0     H 4047   3.967   5.913   6.373  1.2841  1.1401  0.8078
  771MOL0     H 4048   4.067   6.053   6.574 -1.3816  0.4992 -1.5361
  771MOL0     H 4049   4.077   5.988   6.837  0.8564  1.6819 -0.4512
  771MOL0     H 4050   4.205   5.869   6.893 -1.2386 -0.1407 -0.6639
  771MOL0     H 4051   4.198   6.064   7.038 -1.2066 -0.6706  0.1800
  771MOL0     H 4052   4.333   6.098   6.930  0.0401  1.5093 -0.7356
  771MOL0     H 4053   4.049   6.238   6.882 -0.4047 -3.3183 -3.3552
  771MOL0     H 4054   4.170   6.295   6.990 -1.9311  2.3310 -0.5946
  771MOL0     H 4055   4.203   6.252   6.679 -0.6796 -0.3195  0.6946
  771MOL0     H 4056   4.339   6.297   6.784  0.6428 -0.3910 -2.6555
  771MOL0     H 4057   4.217   6.491   6.858  0.1511 -1.9945  0.4538
  771MOL0     H 4058   4.080   6.468   6.746 -0.6791 -0.4694 -1.0465
  771MOL0     H 4059   4.355   6.504   6.666  1.4533  2.0597 -1.9979
  771MOL0     H 4060   4.225   6.516   6.555  2.2013 -0.3934  0.1451
  771MOL0     H 4061   4.258   6.701   6.801 -0.9118  1.9658 -0.7153
  771MOL0     H 4062   4.129   6.712   6.692  0.3056  1.2359 -0.1377
  771MOL0     H 4063   4.323   6.879   6.638  0.1654  0.2761 -1.2030
  771MOL0     H 4064   4.432   6.755   6.628  0.7365  2.3399  2.6650
  771MOL0     H 4065   4.299   5.711   6.668 -0.0836 -1.6244 -1.2210
  771MOL0     H 4066   4.220   5.584   6.499  1.3210  0.3167 -2.0903
  771MOL0     H 4067   3.810   5.517   6.236 -2.0168 -0.1477 -1.3141
  771MOL0     H 4068   3.705   5.411   6.065  2.2831 -3.9951  0.4490
  771MOL0     H 4069   3.101   6.268   4.314  0.9721 -0.3042  2.2487
  771MOL0     H 4070   2.971   6.198   4.110 -3.0703 -0.7169  0.0978
  771MOL0     H 4071   2.605   5.994   3.965 -1.2710  0.0955 -2.8295
  771MOL0     H 4072   2.419   5.924   3.842 -0.0384  0.1035  1.0030
  771MOL0     H 4073   2.264   5.734   3.880 -4.5983 -0.8447 -0.5041
  771MOL0     H 4074   2.207   5.622   3.768 -0.3958  1.2138  2.4682
  771MOL0     H 4075   2.185   5.742   3.600 -0.4610  0.9269  0.9284
  771MOL0     H 4076   2.308   5.871   3.644 -1.3105  0.7165  0.1773
  771MOL0     H 4077   2.027   5.827   3.721  0.8171 -1.3782 -1.5978
  771MOL0     H 4078   2.090   5.956   3.608 -2.1380  5.1683  4.4783
  771MOL0     H 4079   2.161   5.916   3.900 -1.6032 -2.4969 -1.1524
  771MOL0     H 4080   2.201   6.065   3.801  0.3607  0.4061  2.3476
  771MOL0     H 4081   1.825   6.196   3.900 -1.3213 -1.5530  0.2111
  771MOL0     H 4082   2.627   5.548   3.769  4.6111  1.5517 -2.4110
  771MOL0     H 4083   2.795   5.491   3.984  0.2805  0.6255  0.3686
  771MOL0     H 4084   2.877   5.544   3.836  1.5605 -1.9896  0.3954
  771MOL0     H 4085   2.904   5.617   3.999 -0.2143  0.1095 -1.2514
  772MOL0     O 4086   1.072   0.323   7.235 -0.0488  0.4972  0.2872
  772MOL0     C 4087   1.028   0.244   7.152 -0.1246 -0.0511  0.2571
  772MOL0     O 4088   1.083   0.219   7.029 -0.3363 -0.1817  0.1430
  772MOL0     C 4089   1.198   0.289   6.992  0.8259  0.6367 -0.2409
  772MOL0     C 4090   1.317   0.293   7.068 -0.2707  0.9247  0.2128
  772MOL0     C 4091   1.435   0.350   7.011  0.1497  0.0236 -0.6210
  772MOL0     C 4092   1.426   0.422   6.891  0.7857  0.7586  0.7382
  772MOL0     O 4093   1.527   0.511   6.866 -0.4341  0.7253  0.8512
  772MOL0     C 4094   1.543   0.563   6.732  0.3591  0.3103 -0.4861
  772MOL0     C 4095   1.472   0.698   6.701  0.5541 -0.8826  0.1803
  772MOL0     C 4096   1.508   0.750   6.555  0.5035 -0.7280 -0.5421
  772MOL0     C 4097   1.435   0.661   6.450 -0.3622  0.0531  0.0613
  772MOL0     C 4098   1.450   0.714   6.303 -0.0417 -0.4292 -0.1493
  772MOL0     C 4099   1.386   0.627   6.193  0.1462  0.3469  0.9848
  772MOL0     C 4100   1.235   0.618   6.206  0.2429  0.6921 -0.1626
  772MOL0     C 4101   1.161   0.624   6.073 -0.7323  0.6772  0.8062
  772MOL0     N 4102   1.212   0.521   5.976 -0.6758 -0.0639  0.7468
  772MOL0     C 4103   1.165   0.397   6.001  0.0911 -0.1672  0.4458
  772MOL0     C 4104   1.218   0.329   5.895  1.0636  0.1456  0.1270
  772MOL0     C 4105   1.177   0.184   5.867 -0.7737  1.3737 -0.1371
  772MOL0     C 4106   1.235   0.070   5.939  0.5390 -0.2355 -0.1786
  772MOL0     C 4107   1.149  -0.067   5.923 -0.9509  0.4283 -0.4838
  772MOL0     C 4108   1.208  -0.163   6.035  0.3592 -0.8367 -0.6024
  772MOL0     O 4109   1.144  -0.288   6.063 -0.1329 -0.5227 -0.4270
  772MOL0     C 4110   1.144  -0.380   5.953 -0.2646  0.3412  0.9835
  772MOL0     C 4111   1.053  -0.489   5.956 -0.0755 -0.2220 -0.5613
  772MOL0     C 4112   1.048  -0.579   5.856  0.2385  0.5865  0.5815
  772MOL0     C 4113   1.142  -0.583   5.750  0.9048  0.5521 -1.1351
  772MOL0     C 4114   1.134  -0.691   5.658 -0.6646 -0.9298 -0.4818
  772MOL0     O 4115   1.260  -0.728   5.598 -0.4421 -0.4902 -0.4135
  772MOL0     C 4116   1.266  -0.844   5.529 -0.6058 -0.0011 -0.5536
  772MOL0     C 4117   1.299  -0.957   5.604 -0.5115 -0.7515 -0.3925
  772MOL0     C 4118   1.301  -1.082   5.535  1.5059  0.2824  0.1467
  772MOL0     C 4119   1.268  -1.098   5.397  0.8527 -0.2428 -0.2220
  772MOL0     O 4120   1.254  -1.223   5.348 -0.3440 -0.3953 -0.2369
  772MOL0     C 4121   1.163  -1.248   5.244 -1.2059  0.5325  0.0963
  772MOL0     C 4122   1.143  -1.407   5.242  0.0259  0.0918  1.2780
  772MOL0     C 4123   1.271  -1.486   5.213  0.2431 -0.3361  0.8094
  772MOL0     C 4124   1.257  -1.632   5.177  0.3458 -0.8380 -0.2200
  772MOL0     C 4125   1.234  -1.657   5.029  0.4357  1.2897 -0.6932
  772MOL0     C 4126   1.346  -1.625   4.925  0.0048 -0.6283  0.1747
  772MOL0     C 4127   1.465  -1.716   4.950 -0.2089  0.1021 -0.2032
  772MOL0     C 4128   1.574  -1.648   5.020  0.0904  0.0975  0.0419
  772MOL0    Cl 4129   1.651  -1.547   4.894 -0.3192  0.4720  0.7120
  772MOL0     C 4130   1.239  -0.979   5.319 -0.2240  0.2589 -0.2958
  772MOL0     C 4131   1.240  -0.856   5.386  0.0849 -0.6960 -0.1040
  772MOL0     O 4132   1.027  -0.746   5.637 -0.7344  0.0125 -0.5887
  772MOL0     C 4133   1.225  -0.468   5.739 -0.7412 -0.1072 -0.0450
  772MOL0     C 4134   1.215  -0.365   5.829 -0.2815  0.6834 -0.3943
  772MOL0     N 4135   1.296   0.415   5.822 -0.5126  0.1588 -0.8841
  772MOL0     N 4136   1.298   0.535   5.873  0.0548 -0.1926  0.7808
  772MOL0     C 4137   1.314   0.420   6.814  0.0361  0.4868 -1.2497
  772MOL0     C 4138   1.202   0.344   6.851  0.4317  1.1543 -0.4312
  772MOL0     C 4139   0.895   0.175   7.168 -0.0269  0.2734 -0.6966
  772MOL0     C 4140   0.904   0.036   7.161 -0.9644 -0.3287  0.0261
  772MOL0     C 4141   0.792  -0.042   7.182 -0.2946 -0.4573 -0.4507
  772MOL0     C 4142   0.677   0.015   7.232  0.7411  0.4447 -0.0013
  772MOL0     O 4143   0.567  -0.073   7.240  1.0267 -0.0617  0.8962
  772MOL0     C 4144   0.450  -0.039   7.309 -0.3340 -0.0752 -0.4627
  772MOL0     C 4145   0.490  -0.009   7.461  0.6979 -0.2714 -0.3636
  772MOL0     C 4146   0.366  -0.022   7.546 -0.1977 -0.4074 -0.1389
  772MOL0     C 4147   0.298   0.118   7.545  0.3703 -0.2575 -0.6572
  772MOL0     C 4148   0.366   0.229   7.599  0.0308  0.2701 -0.1419
  772MOL0     C 4149   0.430   0.326   7.634  0.2393 -0.1492 -0.1682
  772MOL0     C 4150   0.667   0.157   7.238  0.0599  0.6654  0.4480
  772MOL0     C 4151   0.772   0.240   7.210 -0.4329  0.7009 -0.9169
  772MOL0     C 4152   0.763   0.381   7.221  0.3745  0.4492  0.7504
  772MOL0     H 4153   1.336   0.241   7.162 -1.6827 -2.1975 -1.0581
  772MOL0     H 4154   1.521   0.350   7.077 -0.7504 -2.4044  0.6609
  772MOL0     H 4155   1.648   0.576   6.704  0.3675  0.3315 -0.4446
  772MOL0     H 4156   1.519   0.485   6.660 -4.5074  2.0253 -1.0793
  772MOL0     H 4157   1.495   0.775   6.775 -0.3750  2.4381 -2.7418
  772MOL0     H 4158   1.365   0.679   6.695  0.3968 -0.5775  1.7805
  772MOL0     H 4159   1.614   0.765   6.534  0.7607  0.2667  1.2816
  772MOL0     H 4160   1.468   0.851   6.539  3.7599  0.3901 -2.6276
  772MOL0     H 4161   1.482   0.563   6.447  1.2483  0.7391  1.4971
  772MOL0     H 4162   1.328   0.653   6.469 -0.0659 -0.1498  1.7415
  772MOL0     H 4163   1.410   0.814   6.285  0.7730 -0.4461 -2.4039
  772MOL0     H 4164   1.556   0.709   6.276  0.5748 -1.8779  2.2536
  772MOL0     H 4165   1.417   0.655   6.092 -2.6202  1.2543  0.3218
  772MOL0     H 4166   1.427   0.526   6.195 -0.8161 -0.0936 -0.5314
  772MOL0     H 4167   1.200   0.695   6.276  2.7306  0.8874  0.9551
  772MOL0     H 4168   1.214   0.521   6.252 -1.2412 -0.0495 -2.2531
  772MOL0     H 4169   1.054   0.613   6.094 -0.7142 -0.5084  0.3703
  772MOL0     H 4170   1.177   0.719   6.020 -1.1290  1.2574  1.7091
  772MOL0     H 4171   1.094   0.374   6.079 -0.8584 -0.8066 -0.5639
  772MOL0     H 4172   1.068   0.172   5.870 -0.6920 -0.5219 -2.0965
  772MOL0     H 4173   1.200   0.178   5.760  1.0909  1.9373  0.1969
  772MOL0     H 4174   1.340   0.057   5.911  0.7552  1.7137 -0.3622
  772MOL0     H 4175   1.221   0.105   6.042  0.2994  1.7776 -0.8501
  772MOL0     H 4176   1.158  -0.110   5.823 -0.5001 -1.8317  0.4598
  772MOL0     H 4177   1.042  -0.051   5.935 -1.6010 -0.4887 -3.9480
  772MOL0     H 4178   1.205  -0.106   6.128  1.7351  0.9761 -1.5934
  772MOL0     H 4179   1.314  -0.179   6.012  0.4158  2.9324 -4.3036
  772MOL0     H 4180   0.994  -0.524   6.040 -0.2535 -1.0643 -1.0249
  772MOL0     H 4181   0.965  -0.649   5.860 -2.3817  3.2683 -1.9271
  772MOL0     H 4182   1.302  -0.925   5.708 -4.7757  2.8288 -1.0494
  772MOL0     H 4183   1.322  -1.174   5.589 -3.3017 -0.5106  1.1694
  772MOL0     H 4184   1.070  -1.191   5.256 -1.1508  1.0213 -1.5606
  772MOL0     H 4185   1.208  -1.227   5.147 -0.6425  0.2776  0.2991
  772MOL0     H 4186   1.110  -1.438   5.342  0.2289 -4.5964  0.1319
  772MOL0     H 4187   1.081  -1.440   5.159  1.0151  0.8387  0.2016
  772MOL0     H 4188   1.330  -1.437   5.134  3.1423 -1.7825  1.9146
  772MOL0     H 4189   1.340  -1.477   5.297  0.5040  0.3579  0.5344
  772MOL0     H 4190   1.169  -1.685   5.217 -0.5628 -0.7976 -2.0633
  772MOL0     H 4191   1.343  -1.691   5.209 -0.6072 -2.1897 -0.0596
  772MOL0     H 4192   1.135  -1.615   5.007 -0.3039 -0.2766 -0.4746
  772MOL0     H 4193   1.222  -1.764   5.013  1.4812  1.1970 -0.8961
  772MOL0     H 4194   1.307  -1.637   4.824 -1.0349  1.0029  0.3436
  772MOL0     H 4195   1.368  -1.518   4.925 -2.0635 -0.1336 -1.4739
  772MOL0     H 4196   1.503  -1.749   4.853  0.3785  1.0148 -0.2897
  772MOL0     H 4197   1.441  -1.801   5.015  0.7786  1.2886  1.8039
  772MOL0     H 4198   1.540  -1.579   5.098 -3.6250 -1.0771 -0.3654
  772MOL0     H 4199   1.640  -1.712   5.079 -3.3346 -0.5020  3.6227
  772MOL0     H 4200   1.230  -0.989   5.212  1.0631  2.5655 -0.6857
  772MOL0     H 4201   1.224  -0.767   5.325  0.9624 -2.0088 -2.3635
  772MOL0     H 4202   1.296  -0.458   5.657 -1.3368  2.6700 -0.3224
  772MOL0     H 4203   1.277  -0.280   5.805  0.3891 -0.1496 -1.7252
  772MOL0     H 4204   1.313   0.466   6.715  0.5844 -1.0344 -1.9904
  772MOL0     H 4205   1.116   0.336   6.785 -1.4354  1.3649  1.8356
  772MOL0     H 4206   1.003  -0.005   7.143  1.0377  3.9095  0.2358
  772MOL0     H 4207   0.791  -0.149   7.165  0.9012 -0.1379 -2.9497
  772MOL0     H 4208   0.372  -0.116   7.302  0.0906 -0.4923 -0.6515
  772MOL0     H 4209   0.405   0.055   7.276 -1.9481 -0.3426  0.8634
  772MOL0     H 4210   0.545   0.084   7.478  0.5066 -0.4225  1.2950
  772MOL0     H 4211   0.566  -0.085   7.483  4.1450  2.4114 -2.0041
  772MOL0     H 4212   0.389  -0.030   7.653  0.4323  3.8388  0.1992
  772MOL0     H 4213   0.301  -0.104   7.511 -1.0169 -0.3488  1.1832
  772MOL0     H 4214   0.271   0.141   7.441  4.8898 -0.2667 -2.0345
  772MOL0     H 4215   0.219   0.117   7.621  0.8933 -0.2788 -0.1175
  772MOL0     H 4216   0.482   0.415   7.663  0.1139 -0.0018 -0.3958
  772MOL0     H 4217   0.570   0.195   7.270 -0.7827  0.0939 -1.3261
  772MOL0     H 4218   0.782   0.429   7.125  2.5198 -1.6952  0.0026
  772MOL0     H 4219   0.667   0.422   7.252  1.0084 -0.8232  5.2417
  772MOL0     H 4220   0.832   0.410   7.302 -2.0071  0.4461  2.9010
  773MOL0     O 4221   4.205   0.015   4.614 -0.1297 -0.0099 -0.0829
  773MOL0     C 4222   4.126  -0.044   4.535 -0.9249  0.3400 -0.2589
  773MOL0     O 4223   4.148  -0.170   4.493  0.6521 -0.6112  0.0489
  773MOL0     C 4224   4.274  -0.208   4.466 -0.0676  0.1811 -0.1848
  773MOL0     C 4225   4.336  -0.311   4.540 -0.1029  0.4382 -1.1177
  773MOL0     C 4226   4.467  -0.343   4.520 -0.7159 -0.2668  0.4105
  773MOL0     C 4227   4.545  -0.261   4.429  1.8564  0.0994  1.0514
  773MOL0     O 4228   4.667  -0.291   4.388 -0.2242 -0.8149  0.1577
  773MOL0     C 4229   4.684  -0.426   4.327  0.5042  0.5258  0.2877
  773MOL0     C 4230   4.799  -0.419   4.223  0.5598 -0.0388  0.3057
  773MOL0     C 4231   4.845  -0.536   4.134 -0.1796  0.2297  0.9645
  773MOL0     C 4232   4.894  -0.654   4.220 -0.0289 -0.4634 -0.4645
  773MOL0     C 4233   4.956  -0.761   4.135 -1.5125  0.3649  0.4613
  773MOL0     C 4234   5.001  -0.890   4.213 -0.1698 -0.0442 -1.2287
  773MOL0     C 4235   5.088  -0.864   4.324 -0.4244 -0.0341 -0.3995
  773MOL0     C 4236   5.148  -0.975   4.413  0.6725  0.5093 -0.9313
  773MOL0     N 4237   5.199  -1.092   4.346 -0.4228  0.1976 -0.0511
  773MOL0     C 4238   5.325  -1.129   4.290 -0.4109 -0.3709  0.4331
  773MOL0     C 4239   5.307  -1.250   4.237 -1.2034 -0.0298  0.2598
  773MOL0     C 4240   5.421  -1.322   4.165  0.2487  0.2226  0.1115
  773MOL0     C 4241   5.517  -1.361   4.274  0.3673  0.5257 -0.6949
  773MOL0     C 4242   5.616  -1.460   4.217  0.4542 -0.2199 -0.4239
  773MOL0     C 4243   5.696  -1.511   4.340  0.0321  0.1015 -0.6602
  773MOL0     O 4244   5.797  -1.414   4.379 -0.0213 -0.9004  0.5851
  773MOL0     C 4245   5.897  -1.471   4.455  0.1848 -0.0202  0.2019
  773MOL0     C 4246   5.935  -1.609   4.444 -0.0381  0.3875  0.2857
  773MOL0     C 4247   6.045  -1.662   4.516 -0.4893 -0.1229 -0.7238
  773MOL0     C 4248   6.122  -1.578   4.602 -0.9793 -0.6907  0.7899
  773MOL0     C 4249   6.246  -1.623   4.663  0.0617 -0.8486  0.1186
  773MOL0     O 4250   6.246  -1.754   4.693  0.7471  0.3907 -0.0589
  773MOL0     C 4251   6.367  -1.815   4.714 -0.0442  0.9124  0.1821
  773MOL0     C 4252   6.380  -1.906   4.819 -0.7136 -0.1526  0.3797
  773MOL0     C 4253   6.506  -1.965   4.842 -0.2804  0.9664 -0.0863
  773MOL0     C 4254   6.606  -1.952   4.745 -0.0313 -0.5306  0.0925
  773MOL0     O 4255   6.729  -2.008   4.759 -0.1920  0.3889 -0.6763
  773MOL0     C 4256   6.780  -2.030   4.899 -0.1001  0.6525  0.4154
  773MOL0     C 4257   6.913  -1.966   4.923  0.4932  0.4988 -0.1624
  773MOL0     C 4258   6.889  -1.815   4.930 -0.6350  1.3990 -0.7190
  773MOL0     C 4259   7.018  -1.739   4.958  0.9205 -0.2457 -1.0366
  773MOL0     C 4260   7.127  -1.761   4.846 -0.1768  0.2542  0.5391
  773MOL0     C 4261   7.249  -1.675   4.864 -0.6067 -0.7955 -0.0336
  773MOL0     C 4262   7.351  -1.696   4.751 -0.4611  0.0677  0.1105
  773MOL0     C 4263   7.465  -1.585   4.750 -0.1363  0.6931  0.4397
  773MOL0    Cl 4264   7.575  -1.577   4.604 -0.0205 -0.0149 -0.1738
  773MOL0     C 4265   6.597  -1.877   4.630  0.2255 -0.0445 -0.2965
  773MOL0     C 4266   6.472  -1.813   4.608 -0.0718  0.5767 -0.2882
  773MOL0     O 4267   6.338  -1.540   4.674  0.2594 -1.3560  0.2897
  773MOL0     C 4268   6.076  -1.444   4.622  0.1666  0.0895  0.7987
  773MOL0     C 4269   5.962  -1.394   4.550 -1.5682 -0.8040  0.0163
  773MOL0     N 4270   5.181  -1.298   4.257 -0.4249 -0.3000  0.3250
  773MOL0     N 4271   5.125  -1.207   4.334 -0.4114 -0.0383  0.0231
  773MOL0     C 4272   4.482  -0.157   4.363 -0.7457 -0.4409 -0.1765
  773MOL0     C 4273   4.352  -0.132   4.379 -0.0238  0.5587  0.9562
  773MOL0     C 4274   3.986  -0.013   4.505  0.5822  0.3292 -0.0709
  773MOL0     C 4275   3.880  -0.105   4.528  0.1049  0.0243 -0.0365
  773MOL0     C 4276   3.757  -0.065   4.495 -0.3224  0.1285  0.3617
  773MOL0     C 4277   3.731   0.072   4.474 -0.4789  0.7575  1.2834
  773MOL0     O 4278   3.608   0.127   4.471  0.2776 -0.4170  0.0696
  773MOL0     C 4279   3.489   0.050   4.451  0.0958  0.0200  0.2105
  773MOL0     C 4280   3.366   0.135   4.396  0.7625 -0.4359 -0.0381
  773MOL0     C 4281   3.309   0.234   4.504  0.2809 -0.8706  0.6606
  773MOL0     C 4282   3.254   0.355   4.435 -0.8832 -0.3731 -0.2640
  773MOL0     C 4283   3.144   0.420   4.500 -0.9364 -0.2205  1.0767
  773MOL0     C 4284   3.046   0.467   4.540 -0.1243  0.2025 -1.0449
  773MOL0     C 4285   3.833   0.161   4.440 -0.2262  0.6279  0.7046
  773MOL0     C 4286   3.966   0.119   4.461 -0.2778 -0.1392 -0.7364
  773MOL0     C 4287   4.076   0.212   4.417 -0.5574  0.0501 -0.9131
  773MOL0     H 4288   4.286  -0.363   4.620 -0.0975  1.5054 -0.3990
  773MOL0     H 4289   4.521  -0.424   4.567 -1.5357 -0.7879  0.4588
  773MOL0     H 4290   4.714  -0.501   4.401  1.4622 -0.6519 -1.2159
  773MOL0     H 4291   4.594  -0.458   4.274  1.3112 -1.5266  0.0442
  773MOL0     H 4292   4.886  -0.400   4.286  2.0569 -5.3057  0.2812
  773MOL0     H 4293   4.782  -0.326   4.168  1.6963 -0.6454 -1.1447
  773MOL0     H 4294   4.928  -0.501   4.071 -0.9259  1.6599  0.7333
  773MOL0     H 4295   4.758  -0.569   4.075  0.8151  2.1826 -1.8523
  773MOL0     H 4296   4.966  -0.605   4.287  1.1260  0.9171 -2.5833
  773MOL0     H 4297   4.807  -0.685   4.278  0.7094  3.2268  3.0518
  773MOL0     H 4298   4.898  -0.788   4.046 -3.0209  2.5791  0.6962
  773MOL0     H 4299   5.051  -0.723   4.098 -2.1760  0.9561 -0.6869
  773MOL0     H 4300   4.918  -0.946   4.258 -0.5628  0.9317 -0.7105
  773MOL0     H 4301   5.037  -0.961   4.138 -0.2162 -0.1573 -1.1442
  773MOL0     H 4302   5.028  -0.799   4.389  0.0415  1.2416 -1.1949
  773MOL0     H 4303   5.165  -0.807   4.271 -0.7432  0.1068 -0.7221
  773MOL0     H 4304   5.224  -0.938   4.482 -0.8292 -0.4703  1.3648
  773MOL0     H 4305   5.074  -1.011   4.484  1.1077  1.1328 -0.1380
  773MOL0     H 4306   5.415  -1.072   4.273  1.0408 -2.6207  0.0748
  773MOL0     H 4307   5.371  -1.403   4.113  1.5678 -1.6929  1.6870
  773MOL0     H 4308   5.475  -1.251   4.101  1.5426  1.1118  2.0661
  773MOL0     H 4309   5.573  -1.279   4.320  0.4640 -1.3736  2.9420
  773MOL0     H 4310   5.472  -1.409   4.361 -0.8737  0.0229 -1.5814
  773MOL0     H 4311   5.691  -1.423   4.146  0.9451 -1.1243 -0.3866
  773MOL0     H 4312   5.561  -1.548   4.182 -0.1216  0.2918 -0.8219
  773MOL0     H 4313   5.739  -1.597   4.286  0.6997  2.0682 -3.5205
  773MOL0     H 4314   5.635  -1.539   4.425 -1.5595  0.2728 -1.7007
  773MOL0     H 4315   5.887  -1.680   4.378  0.9414  0.7267 -0.8083
  773MOL0     H 4316   6.092  -1.757   4.495  0.0114 -0.0408 -0.0355
  773MOL0     H 4317   6.289  -1.915   4.877  0.9884 -0.3315  3.2449
  773MOL0     H 4318   6.499  -2.024   4.933  1.6430 -3.7330 -2.6257
  773MOL0     H 4319   6.713  -1.982   4.971  0.6854  0.8024  1.0584
  773MOL0     H 4320   6.787  -2.137   4.922  2.7338  0.5146 -0.6873
  773MOL0     H 4321   6.950  -2.017   5.012  0.5320  0.1328 -0.3854
  773MOL0     H 4322   6.983  -1.991   4.843  2.8795  4.9858  0.2181
  773MOL0     H 4323   6.841  -1.787   4.836 -3.5170 -3.2417 -0.9350
  773MOL0     H 4324   6.815  -1.791   5.007 -1.6684 -1.7442 -0.6098
  773MOL0     H 4325   7.045  -1.769   5.059 -2.0985  2.1363  0.6455
  773MOL0     H 4326   7.000  -1.631   4.954 -1.7767 -0.4890  1.2868
  773MOL0     H 4327   7.077  -1.725   4.755  0.8675  0.0600 -0.1237
  773MOL0     H 4328   7.148  -1.868   4.838 -2.8606 -0.2374 -1.1256
  773MOL0     H 4329   7.237  -1.567   4.874  1.8307 -0.2986 -1.6456
  773MOL0     H 4330   7.278  -1.717   4.961 -0.2607 -1.7719 -0.5454
  773MOL0     H 4331   7.298  -1.707   4.657  1.9208 -1.9215 -1.1183
  773MOL0     H 4332   7.401  -1.793   4.755 -3.2545 -1.4631 -0.3305
  773MOL0     H 4333   7.414  -1.489   4.741  0.4042  0.8096 -2.7791
  773MOL0     H 4334   7.521  -1.585   4.844  1.0575 -0.5730 -0.2174
  773MOL0     H 4335   6.683  -1.884   4.563  1.5802 -2.8093  1.5526
  773MOL0     H 4336   6.463  -1.775   4.507  2.5510  1.4473 -0.2647
  773MOL0     H 4337   6.118  -1.375   4.693 -1.9130  0.1616  2.0403
  773MOL0     H 4338   5.920  -1.304   4.594  0.9319 -0.7132  2.4737
  773MOL0     H 4339   4.551  -0.092   4.310 -0.7381 -2.0315 -2.2413
  773MOL0     H 4340   4.299  -0.062   4.316  0.4879 -1.1204 -1.5110
  773MOL0     H 4341   3.904  -0.204   4.566 -4.1527 -1.3451 -0.4005
  773MOL0     H 4342   3.682  -0.142   4.504 -0.9324  0.6542 -0.1229
  773MOL0     H 4343   3.453   0.014   4.548  2.0374 -3.7466 -0.2734
  773MOL0     H 4344   3.513  -0.025   4.375  2.2332  1.2085 -0.3629
  773MOL0     H 4345   3.284   0.078   4.352  0.9037 -1.7205  1.2765
  773MOL0     H 4346   3.401   0.195   4.312 -1.2879  0.1939 -0.5000
  773MOL0     H 4347   3.386   0.255   4.579  2.3442 -0.8372 -1.3681
  773MOL0     H 4348   3.223   0.191   4.557  0.0279  0.2387  1.1923
  773MOL0     H 4349   3.334   0.424   4.405 -2.9000  2.7442  0.9842
  773MOL0     H 4350   3.221   0.316   4.339  1.4043  3.1743 -2.7319
  773MOL0     H 4351   2.966   0.523   4.584 -0.3876 -0.1795 -1.0330
  773MOL0     H 4352   3.802   0.259   4.407 -0.4166  0.7339  1.1956
  773MOL0     H 4353   4.039   0.313   4.430 -1.3058  0.0619 -2.8589
  773MOL0     H 4354   4.173   0.211   4.468 -1.6984 -1.2642  1.4051
  773MOL0     H 4355   4.097   0.204   4.310  0.5133  0.3915 -0.7369
  774MOL0     O 4356   3.566   3.641   3.379 -0.7074 -1.0559  0.2766
  774MOL0     C 4357   3.576   3.764   3.369  0.3625  0.0481 -0.1713
  774MOL0     O 4358   3.652   3.850   3.449 -0.8163  0.5029  0.4353
  774MOL0     C 4359   3.750   3.811   3.535 -0.2718  0.4282 -0.0169
  774MOL0     C 4360   3.843   3.911   3.571 -0.3655  0.8008  0.1530
  774MOL0     C 4361   3.939   3.893   3.669  0.6718  0.2193 -0.7423
  774MOL0     C 4362   3.945   3.771   3.727  0.5131  0.4697 -0.6254
  774MOL0     O 4363   4.040   3.728   3.822 -0.0383 -0.3016  0.0913
  774MOL0     C 4364   4.178   3.770   3.793 -0.5374 -1.1872 -0.3487
  774MOL0     C 4365   4.263   3.687   3.881  0.6622  0.0162  0.5454
  774MOL0     C 4366   4.261   3.709   4.018 -0.3595 -0.5899 -0.6426
  774MOL0     C 4367   4.335   3.616   4.103  0.0565  0.0003  0.5958
  774MOL0     C 4368   4.345   3.677   4.244  0.3034  0.5113 -0.3397
  774MOL0     C 4369   4.378   3.571   4.354 -0.8310 -0.7103  0.9068
  774MOL0     C 4370   4.429   3.629   4.483  0.3037 -0.0086  0.5467
  774MOL0     C 4371   4.561   3.719   4.472 -0.0256 -1.0099 -1.0211
  774MOL0     N 4372   4.620   3.749   4.603  0.4333  0.1231 -0.6053
  774MOL0     C 4373   4.623   3.664   4.708  0.1777  0.1536  0.8739
  774MOL0     C 4374   4.687   3.743   4.800  0.9228 -0.1441  0.0175
  774MOL0     C 4375   4.709   3.685   4.943  0.5562 -0.6820 -0.0881
  774MOL0     C 4376   4.694   3.804   5.040 -0.0406  0.6034  0.2546
  774MOL0     C 4377   4.652   3.769   5.193  0.7702  0.9582  0.3170
  774MOL0     C 4378   4.495   3.731   5.190 -0.8369  0.1578 -0.5536
  774MOL0     O 4379   4.450   3.692   5.320  0.2333 -0.9595  0.7192
  774MOL0     C 4380   4.328   3.737   5.357 -0.1163 -0.3166 -0.8819
  774MOL0     C 4381   4.285   3.684   5.478 -0.9536  0.1089  0.5899
  774MOL0     C 4382   4.163   3.708   5.532  0.4177  0.0321 -0.9415
  774MOL0     C 4383   4.080   3.793   5.468 -0.8809 -0.3985 -0.2058
  774MOL0     C 4384   3.964   3.836   5.534  0.1293  0.2343 -1.3934
  774MOL0     O 4385   3.870   3.877   5.441 -0.2385 -0.3252 -0.7038
  774MOL0     C 4386   3.763   3.964   5.462  0.5858 -0.0912  0.7987
  774MOL0     C 4387   3.724   4.029   5.579 -0.1196  0.3116 -0.4143
  774MOL0     C 4388   3.626   4.127   5.570  0.6537  0.8561 -0.9426
  774MOL0     C 4389   3.553   4.149   5.460  0.0265 -0.2345  0.2412
  774MOL0     O 4390   3.449   4.242   5.462  0.0255  0.4251 -0.4064
  774MOL0     C 4391   3.426   4.317   5.342 -0.1453 -0.4435  1.1519
  774MOL0     C 4392   3.298   4.405   5.348 -0.4629  0.3003 -0.4908
  774MOL0     C 4393   3.294   4.507   5.233  0.1353 -0.1637 -0.6380
  774MOL0     C 4394   3.251   4.470   5.090 -0.4955 -0.6214  0.4225
  774MOL0     C 4395   3.103   4.417   5.095 -0.3416 -0.4763 -0.8731
  774MOL0     C 4396   3.009   4.451   4.983  0.0566  0.3987  0.1172
  774MOL0     C 4397   2.863   4.402   4.998 -1.1290  0.0018  0.5395
  774MOL0     C 4398   2.786   4.461   4.877 -0.0025  0.6046 -1.3305
  774MOL0    Cl 4399   2.846   4.384   4.732  0.1400 -0.7301  0.1938
  774MOL0     C 4400   3.597   4.086   5.341 -0.3762  0.0787 -0.0485
  774MOL0     C 4401   3.693   3.987   5.342  0.1102 -0.1508  1.0188
  774MOL0     O 4402   3.935   3.821   5.656  0.1963  0.5887  1.3084
  774MOL0     C 4403   4.112   3.855   5.340  0.0102  0.8199 -0.3262
  774MOL0     C 4404   4.244   3.828   5.290  1.0978 -0.0885  0.1361
  774MOL0     N 4405   4.721   3.868   4.751  0.2510  0.5453 -0.1046
  774MOL0     N 4406   4.681   3.869   4.628 -0.2175 -0.4124  1.0797
  774MOL0     C 4407   3.856   3.672   3.690  0.4867  0.2785 -0.5234
  774MOL0     C 4408   3.762   3.686   3.594 -0.2533 -1.1980  0.0678
  774MOL0     C 4409   3.486   3.826   3.272 -0.2400 -0.0021  0.3052
  774MOL0     C 4410   3.535   3.896   3.162 -0.4315  0.0846  0.0984
  774MOL0     C 4411   3.458   3.934   3.057 -0.2020 -0.0252 -0.6360
  774MOL0     C 4412   3.318   3.911   3.067  0.5836  0.5316 -0.1812
  774MOL0     O 4413   3.221   3.933   2.976 -0.4096 -0.0320 -0.5695
  774MOL0     C 4414   3.250   4.021   2.862 -0.5943  0.5630 -0.0635
  774MOL0     C 4415   3.243   4.169   2.888 -0.1091 -0.7510  0.6560
  774MOL0     C 4416   3.294   4.240   2.771 -0.1730  0.0002  0.3670
  774MOL0     C 4417   3.164   4.281   2.684 -0.3883  0.5736  0.4086
  774MOL0     C 4418   3.188   4.346   2.556  0.2380 -0.9634  1.2718
  774MOL0     C 4419   3.203   4.411   2.449 -0.3512  0.6293 -1.0990
  774MOL0     C 4420   3.264   3.858   3.187  0.8869 -0.5264  0.5079
  774MOL0     C 4421   3.343   3.803   3.278 -0.5766 -0.4290 -0.8662
  774MOL0     C 4422   3.287   3.744   3.397  0.7691 -0.0525 -0.1918
  774MOL0     H 4423   3.836   4.005   3.517 -4.3079  1.6697  1.8983
  774MOL0     H 4424   4.006   3.971   3.704 -0.1892 -0.6491  3.3838
  774MOL0     H 4425   4.208   3.752   3.690  3.0176  4.2534 -0.7067
  774MOL0     H 4426   4.199   3.874   3.821  3.5340 -2.2796  1.2736
  774MOL0     H 4427   4.367   3.709   3.858  0.7358  0.7356  1.5421
  774MOL0     H 4428   4.242   3.582   3.859 -0.9638  0.5436 -0.6625
  774MOL0     H 4429   4.157   3.710   4.053  0.3821 -1.3559  1.8224
  774MOL0     H 4430   4.303   3.807   4.044 -0.0383 -0.8809 -0.0489
  774MOL0     H 4431   4.283   3.521   4.090  3.7382 -1.8135 -3.7683
  774MOL0     H 4432   4.439   3.601   4.072  0.4626 -0.5419  2.1505
  774MOL0     H 4433   4.416   3.760   4.243 -0.9600  1.7296 -4.1568
  774MOL0     H 4434   4.243   3.706   4.272 -0.5383 -2.6576  0.3702
  774MOL0     H 4435   4.284   3.520   4.377 -1.0603  0.7965  3.7347
  774MOL0     H 4436   4.466   3.509   4.335  2.0844  1.9786  4.1233
  774MOL0     H 4437   4.450   3.538   4.541 -0.6224 -1.3430 -1.1228
  774MOL0     H 4438   4.352   3.681   4.541  0.9111  0.4603  0.9517
  774MOL0     H 4439   4.635   3.668   4.410  3.2209  1.2139  0.7624
  774MOL0     H 4440   4.546   3.816   4.423 -0.8346 -0.7078 -0.2013
  774MOL0     H 4441   4.592   3.560   4.716  0.7978 -0.4740 -2.9537
  774MOL0     H 4442   4.637   3.609   4.974  0.9610 -0.9181  0.2832
  774MOL0     H 4443   4.806   3.636   4.948  1.8596  1.1119 -3.7556
  774MOL0     H 4444   4.794   3.848   5.045 -0.2206  1.0710 -0.1790
  774MOL0     H 4445   4.612   3.870   5.010  0.6843  1.4485  0.0770
  774MOL0     H 4446   4.672   3.844   5.270  0.2973 -0.1965  1.6249
  774MOL0     H 4447   4.701   3.674   5.217 -0.4161  0.5149  1.1094
  774MOL0     H 4448   4.490   3.643   5.126  1.9466  1.6743 -3.1181
  774MOL0     H 4449   4.449   3.812   5.132 -1.0091 -0.0968 -0.7743
  774MOL0     H 4450   4.346   3.613   5.533 -3.8702 -1.9270  1.4648
  774MOL0     H 4451   4.125   3.649   5.616  3.0373  0.9732  1.0657
  774MOL0     H 4452   3.769   4.013   5.676 -0.1175  1.1923 -0.2608
  774MOL0     H 4453   3.582   4.178   5.655  0.3208 -3.0193  1.4332
  774MOL0     H 4454   3.513   4.383   5.331 -0.1586 -0.6839 -0.8311
  774MOL0     H 4455   3.417   4.264   5.247  1.6917  4.2235 -2.0291
  774MOL0     H 4456   3.216   4.337   5.325  1.0130 -0.2013 -5.4702
  774MOL0     H 4457   3.290   4.450   5.447 -0.9118 -1.5705  0.3817
  774MOL0     H 4458   3.218   4.584   5.247 -0.8349 -1.2858  0.4062
  774MOL0     H 4459   3.395   4.551   5.227  0.0098  0.0914 -0.9427
  774MOL0     H 4460   3.308   4.396   5.034  0.6922  0.8975 -0.4512
  774MOL0     H 4461   3.260   4.560   5.028  1.6078  0.0082  1.5526
  774MOL0     H 4462   3.053   4.468   5.177 -1.2308 -0.2989 -1.5104
  774MOL0     H 4463   3.101   4.309   5.112  4.3842 -0.8400 -1.1322
  774MOL0     H 4464   3.016   4.559   4.971  0.4872  0.7909  3.1868
  774MOL0     H 4465   3.060   4.414   4.893 -0.1995 -2.1721  0.9496
  774MOL0     H 4466   2.824   4.452   5.087 -1.5762 -1.6359  1.3136
  774MOL0     H 4467   2.860   4.293   5.003  0.1850 -0.0515  0.5266
  774MOL0     H 4468   2.683   4.425   4.889 -0.2369  1.8750  1.4847
  774MOL0     H 4469   2.788   4.571   4.879 -5.5371  1.0640  1.8683
  774MOL0     H 4470   3.547   4.115   5.249 -0.7933  1.7389  0.6527
  774MOL0     H 4471   3.732   3.937   5.253  1.8647  3.9989 -0.8131
  774MOL0     H 4472   4.056   3.934   5.291  0.4533 -0.4560 -3.1069
  774MOL0     H 4473   4.269   3.866   5.192  0.0589  0.1865 -0.0396
  774MOL0     H 4474   3.865   3.570   3.727 -0.8254  0.5162  0.5305
  774MOL0     H 4475   3.700   3.596   3.591 -0.6933 -0.9126  0.4931
  774MOL0     H 4476   3.643   3.907   3.166 -0.3123 -1.1574  1.8947
  774MOL0     H 4477   3.500   3.984   2.971 -0.7893 -1.6682 -1.9312
  774MOL0     H 4478   3.190   4.000   2.773  1.0556  0.6294 -1.2438
  774MOL0     H 4479   3.349   3.991   2.824 -0.1415  1.1510  0.6384
  774MOL0     H 4480   3.320   4.174   2.966  2.7721 -1.2281 -1.9906
  774MOL0     H 4481   3.142   4.200   2.916  0.2015 -0.6779  1.7466
  774MOL0     H 4482   3.374   4.187   2.718  1.4472  2.0342  0.6196
  774MOL0     H 4483   3.334   4.336   2.807  2.1352 -1.3713  1.7185
  774MOL0     H 4484   3.110   4.189   2.660  1.1591 -0.5730  1.1338
  774MOL0     H 4485   3.102   4.350   2.742  3.1914  3.4982  1.1059
  774MOL0     H 4486   3.193   4.468   2.359  1.2477  0.4333 -1.4302
  774MOL0     H 4487   3.158   3.836   3.196  0.4361  0.2109 -2.0298
  774MOL0     H 4488   3.347   3.661   3.436 -2.0136 -2.6931 -1.1661
  774MOL0     H 4489   3.270   3.808   3.484 -2.7151 -0.0513 -0.7418
  774MOL0     H 4490   3.197   3.689   3.367  0.5339  0.5431 -0.5948
  775MOL0     O 4491   4.857   8.757   0.180  0.4855  0.0528  0.4638
  775MOL0     C 4492   4.835   8.662   0.096  0.0137 -0.8198 -0.3809
  775MOL0     O 4493   4.812   8.670  -0.045 -0.6839  0.1158 -0.3501
  775MOL0     C 4494   4.795   8.786  -0.116  1.3314 -0.4585 -0.1495
  775MOL0     C 4495   4.854   8.910  -0.087  0.2276  0.8173 -0.9917
  775MOL0     C 4496   4.845   9.019  -0.182 -0.2153  0.6338 -0.5644
  775MOL0     C 4497   4.774   8.998  -0.304  0.5692  0.5212 -0.1841
  775MOL0     O 4498   4.784   9.086  -0.414  0.0814  0.3605  0.7141
  775MOL0     C 4499   4.753   9.224  -0.380  0.0277 -0.3849 -0.5906
  775MOL0     C 4500   4.711   9.308  -0.508  0.4397  0.2768 -0.2923
  775MOL0     C 4501   4.832   9.345  -0.595  0.0864  0.1148  0.8831
  775MOL0     C 4502   4.781   9.441  -0.701  0.0015 -0.0419 -0.1319
  775MOL0     C 4503   4.894   9.466  -0.796 -0.6713  0.0585  1.4808
  775MOL0     C 4504   4.973   9.591  -0.742  0.2149 -1.7085  0.3422
  775MOL0     C 4505   5.064   9.658  -0.852 -0.5073 -0.1944  0.2265
  775MOL0     C 4506   5.193   9.581  -0.849 -0.4719 -1.1014 -0.0298
  775MOL0     N 4507   5.289   9.634  -0.945  0.4204  0.2446 -0.9551
  775MOL0     C 4508   5.271   9.710  -1.057 -0.6734  0.5093  0.2332
  775MOL0     C 4509   5.371   9.684  -1.141  0.0518  0.6644  0.6013
  775MOL0     C 4510   5.380   9.746  -1.271  0.0350 -0.1863 -0.3772
  775MOL0     C 4511   5.253   9.719  -1.357 -0.4218 -0.0232  0.2793
  775MOL0     C 4512   5.244   9.795  -1.487 -0.6275 -0.5551  0.4600
  775MOL0     C 4513   5.152   9.735  -1.586  0.5945  0.6449 -0.1384
  775MOL0     O 4514   5.016   9.723  -1.542 -0.1941  0.4200 -0.4885
  775MOL0     C 4515   4.919   9.796  -1.614  1.1639 -0.3039  0.3985
  775MOL0     C 4516   4.797   9.735  -1.655  0.4890  1.4535 -0.4577
  775MOL0     C 4517   4.707   9.806  -1.751  0.1860 -0.8971  0.3943
  775MOL0     C 4518   4.731   9.937  -1.781  0.3535 -0.3564 -0.1947
  775MOL0     C 4519   4.631  10.018  -1.847  0.0333 -0.7045 -0.1200
  775MOL0     O 4520   4.682  10.138  -1.895  0.2165 -0.4138 -0.1442
  775MOL0     C 4521   4.615  10.213  -1.994 -0.0606 -0.2726 -0.3415
  775MOL0     C 4522   4.496  10.184  -2.064  0.0916  0.1160 -0.1772
  775MOL0     C 4523   4.454  10.263  -2.171  0.6443  0.0987 -0.3355
  775MOL0     C 4524   4.526  10.372  -2.205  0.5327 -0.8700  0.1809
  775MOL0     O 4525   4.514  10.456  -2.315 -0.8523  0.4207  0.1043
  775MOL0     C 4526   4.385  10.457  -2.374  0.3565 -0.3010 -0.5516
  775MOL0     C 4527   4.389  10.357  -2.481  1.3473 -0.6043  0.0647
  775MOL0     C 4528   4.267  10.347  -2.567  0.8582  0.3613 -0.4835
  775MOL0     C 4529   4.272  10.423  -2.696 -0.1402 -0.0222  0.7402
  775MOL0     C 4530   4.120  10.419  -2.762  0.1069  0.0563  0.4819
  775MOL0     C 4531   4.134  10.452  -2.917 -0.7273 -0.2768 -0.8298
  775MOL0     C 4532   4.195  10.328  -2.992  1.1133 -0.3236 -0.3525
  775MOL0     C 4533   4.165  10.351  -3.138 -0.5045 -0.6322 -0.3616
  775MOL0    Cl 4534   3.989  10.320  -3.178  0.2480 -0.1308 -0.0713
  775MOL0     C 4535   4.641  10.397  -2.133 -0.7365  0.3357  0.3807
  775MOL0     C 4536   4.686  10.323  -2.025 -0.5234  0.4780  0.1104
  775MOL0     O 4537   4.517   9.998  -1.824  0.3586  0.9807 -0.8002
  775MOL0     C 4538   4.840   9.994  -1.731 -0.2376  0.2331  0.0665
  775MOL0     C 4539   4.936   9.932  -1.657  0.0844  0.4136  0.7291
  775MOL0     N 4540   5.448   9.581  -1.086  0.2643 -0.5679  0.0235
  775MOL0     N 4541   5.389   9.549  -0.980 -0.2833 -0.2553 -0.4708
  775MOL0     C 4542   4.721   8.872  -0.329 -0.9458 -0.6552  0.2333
  775MOL0     C 4543   4.727   8.768  -0.235  0.3284  0.6161  0.2229
  775MOL0     C 4544   4.882   8.525   0.128  0.4008  0.2080 -0.1525
  775MOL0     C 4545   4.988   8.460   0.060 -0.3022 -0.4900  0.3583
  775MOL0     C 4546   5.029   8.337   0.101  1.0840  0.0991  0.6752
  775MOL0     C 4547   4.960   8.266   0.204 -0.1640 -0.6562 -0.1087
  775MOL0     O 4548   4.990   8.133   0.190 -0.1630  0.0867 -0.5915
  775MOL0     C 4549   4.963   8.042   0.307  0.1564 -0.1425 -0.4037
  775MOL0     C 4550   5.084   8.019   0.404 -0.6552  0.2469  1.1236
  775MOL0     C 4551   5.095   8.121   0.520 -0.1769 -0.9053  0.6709
  775MOL0     C 4552   4.994   8.089   0.627 -0.3153  0.5909  0.9073
  775MOL0     C 4553   5.025   8.156   0.750  0.2623 -0.6743  0.5205
  775MOL0     C 4554   5.046   8.243   0.832 -0.1392  0.0502  0.6457
  775MOL0     C 4555   4.865   8.331   0.278 -0.8333  0.1647 -0.4702
  775MOL0     C 4556   4.834   8.469   0.246 -0.2674  0.8073 -0.1050
  775MOL0     C 4557   4.742   8.530   0.352  0.6756  0.1846  0.7789
  775MOL0     H 4558   4.905   8.914   0.009  0.0570 -1.1293 -0.7645
  775MOL0     H 4559   4.890   9.113  -0.152 -2.6798  1.3086  1.3705
  775MOL0     H 4560   4.666   9.232  -0.313  0.4509  0.2339 -0.1032
  775MOL0     H 4561   4.839   9.268  -0.329 -0.5789  0.6437 -0.4185
  775MOL0     H 4562   4.670   9.402  -0.470 -0.4295 -0.3026  0.2304
  775MOL0     H 4563   4.632   9.253  -0.560  3.3717 -0.9560 -3.7948
  775MOL0     H 4564   4.881   9.257  -0.636  0.8279  0.2864  1.3594
  775MOL0     H 4565   4.917   9.391  -0.543  0.1042  2.5565 -1.0893
  775MOL0     H 4566   4.692   9.404  -0.753 -0.3062  0.9499 -0.3413
  775MOL0     H 4567   4.748   9.534  -0.653 -3.3321 -2.4553  2.6982
  775MOL0     H 4568   4.963   9.382  -0.788  0.2623  0.8237  1.6637
  775MOL0     H 4569   4.880   9.481  -0.904  1.8931 -1.9069  0.7631
  775MOL0     H 4570   4.908   9.670  -0.704 -0.4219 -0.8362 -2.3583
  775MOL0     H 4571   5.030   9.558  -0.654 -1.4683 -0.4664  1.9895
  775MOL0     H 4572   5.086   9.762  -0.825  0.5859  0.2624 -2.1998
  775MOL0     H 4573   5.022   9.659  -0.953  3.0736 -0.8271 -1.4175
  775MOL0     H 4574   5.236   9.598  -0.750  1.6369  0.6455 -1.1512
  775MOL0     H 4575   5.178   9.473  -0.860 -1.3971 -1.2859  2.4225
  775MOL0     H 4576   5.184   9.765  -1.091 -0.1472  2.1417  1.3981
  775MOL0     H 4577   5.394   9.853  -1.253  2.2190 -0.2732 -1.2436
  775MOL0     H 4578   5.467   9.715  -1.329  1.6373  1.1826  1.2183
  775MOL0     H 4579   5.234   9.612  -1.373  1.1273 -0.5519  1.6991
  775MOL0     H 4580   5.169   9.755  -1.297  0.5816  0.3081  1.5225
  775MOL0     H 4581   5.347   9.790  -1.525 -0.6354 -0.8552  0.4706
  775MOL0     H 4582   5.217   9.898  -1.466  2.7646  0.6833 -0.6035
  775MOL0     H 4583   5.199   9.641  -1.616  0.7531  0.7679 -0.2775
  775MOL0     H 4584   5.156   9.789  -1.681 -0.4824 -1.8805 -1.7148
  775MOL0     H 4585   4.775   9.636  -1.616 -0.3243  0.9030 -2.2117
  775MOL0     H 4586   4.619   9.755  -1.790  0.2046 -0.8603  0.3039
  775MOL0     H 4587   4.431  10.101  -2.037  0.2572  0.3400  0.9772
  775MOL0     H 4588   4.356  10.243  -2.215  0.2611  3.2748 -1.1473
  775MOL0     H 4589   4.305  10.423  -2.307  1.1271 -2.8637 -0.7956
  775MOL0     H 4590   4.366  10.557  -2.413  0.5622  0.7913  2.0141
  775MOL0     H 4591   4.471  10.375  -2.551 -0.4215  2.6331 -1.3621
  775MOL0     H 4592   4.401  10.261  -2.431  0.6518 -0.4742  0.4958
  775MOL0     H 4593   4.263  10.243  -2.601 -1.2407 -1.2068  3.8496
  775MOL0     H 4594   4.172  10.377  -2.523 -0.2325 -1.3550 -1.5433
  775MOL0     H 4595   4.340  10.382  -2.771  0.7371  0.3799  1.3016
  775MOL0     H 4596   4.308  10.524  -2.674  1.9985 -0.8135  1.1423
  775MOL0     H 4597   4.067  10.503  -2.716  0.5066  0.3741  0.3683
  775MOL0     H 4598   4.056  10.332  -2.747 -2.0925  1.6375  0.8252
  775MOL0     H 4599   4.031  10.464  -2.953 -1.0030 -3.8139 -1.6572
  775MOL0     H 4600   4.185  10.547  -2.932  1.7294 -1.3614  0.0971
  775MOL0     H 4601   4.161  10.232  -2.951 -0.4070  1.3378  2.5766
  775MOL0     H 4602   4.304  10.322  -3.000  1.0604 -1.2005 -0.5280
  775MOL0     H 4603   4.197  10.452  -3.164  1.9673 -1.4093 -0.6275
  775MOL0     H 4604   4.231  10.289  -3.200  0.7715  2.8772 -2.8570
  775MOL0     H 4605   4.701  10.484  -2.159  0.3653  0.2151  2.2482
  775MOL0     H 4606   4.779  10.343  -1.973  0.6631 -0.4609 -1.5512
  775MOL0     H 4607   4.873  10.092  -1.764  2.3728 -0.3620  0.6548
  775MOL0     H 4608   5.025   9.992  -1.638  0.8092  0.3892 -2.0803
  775MOL0     H 4609   4.657   8.855  -0.416 -0.7607 -2.8782  0.4754
  775MOL0     H 4610   4.679   8.672  -0.249 -0.1424  0.3348  3.0645
  775MOL0     H 4611   5.046   8.505  -0.020 -0.9520  1.3076  0.8624
  775MOL0     H 4612   5.104   8.281   0.046  0.2193 -2.2427  1.7403
  775MOL0     H 4613   4.957   7.948   0.252  1.5415  0.5752 -1.8878
  775MOL0     H 4614   4.860   8.038   0.343 -0.9080  4.5864 -2.1224
  775MOL0     H 4615   5.167   8.010   0.333 -1.2613 -3.9042  0.7286
  775MOL0     H 4616   5.061   7.922   0.448 -0.2269 -1.6185 -2.3669
  775MOL0     H 4617   5.077   8.225   0.491  0.6478 -0.8244  0.4058
  775MOL0     H 4618   5.197   8.113   0.560  1.1456 -2.2026 -2.5995
  775MOL0     H 4619   4.893   8.116   0.594  0.0171 -0.3161 -0.9951
  775MOL0     H 4620   4.987   7.983   0.652 -1.8858  1.1944  3.2470
  775MOL0     H 4621   5.045   8.325   0.901  0.6854  2.8195 -2.3692
  775MOL0     H 4622   4.808   8.280   0.355  0.4768 -1.6567 -0.6483
  775MOL0     H 4623   4.775   8.631   0.378 -0.9844  1.0709 -0.3397
  775MOL0     H 4624   4.638   8.539   0.320  1.1341 -3.1695 -2.2913
  775MOL0     H 4625   4.731   8.467   0.441  3.9455  0.5344  1.5427
  776MOL0     O 4626  10.393   3.376   0.357 -0.7752 -0.1240 -0.2582
  776MOL0     C 4627  10.393   3.437   0.257  0.7713 -0.3273  0.2032
  776MOL0     O 4628  10.453   3.560   0.242 -0.5667 -0.5219 -0.0420
  776MOL0     C 4629  10.544   3.604   0.337 -0.5547  0.8075 -0.6675
  776MOL0     C 4630  10.503   3.638   0.464 -0.9139 -1.2635  0.3804
  776MOL0     C 4631  10.599   3.673   0.554  0.0193 -0.6733 -0.5401
  776MOL0     C 4632  10.733   3.680   0.525 -0.5610  0.3097 -0.4989
  776MOL0     O 4633  10.814   3.702   0.636 -0.8830  0.6844 -0.3173
  776MOL0     C 4634  10.920   3.790   0.607  0.1759  0.1002 -0.0523
  776MOL0     C 4635  10.963   3.862   0.736 -0.5346  0.1389 -0.1799
  776MOL0     C 4636  11.006   3.767   0.855 -1.1633  0.0833 -0.0531
  776MOL0     C 4637  11.015   3.841   0.989 -0.0104  0.7418 -0.6607
  776MOL0     C 4638  10.890   3.896   1.051 -0.8616 -0.3750  0.3060
  776MOL0     C 4639  10.777   3.785   1.054 -0.8009 -0.1898  0.2156
  776MOL0     C 4640  10.638   3.843   1.092 -0.1528 -0.8866  0.0136
  776MOL0     C 4641  10.531   3.749   1.116 -0.2796 -0.2869  0.0955
  776MOL0     N 4642  10.478   3.673   0.999 -0.9821 -0.0472  0.8098
  776MOL0     C 4643  10.539   3.551   0.947  0.2002  0.6528  0.6577
  776MOL0     C 4644  10.459   3.507   0.846  0.1868  0.1791 -0.0809
  776MOL0     C 4645  10.471   3.376   0.761 -0.3044 -0.4844 -0.4342
  776MOL0     C 4646  10.389   3.252   0.806 -0.1910 -0.8120  0.6674
  776MOL0     C 4647  10.259   3.297   0.881 -0.7519 -0.2273  0.3473
  776MOL0     C 4648  10.177   3.166   0.925  0.3700 -0.1014 -0.0654
  776MOL0     O 4649  10.158   3.082   0.813  0.0242 -0.7300  0.8902
  776MOL0     C 4650  10.081   2.975   0.846  0.4825  0.9388  1.2839
  776MOL0     C 4651  10.027   2.940   0.969 -0.8420  0.6069 -0.4214
  776MOL0     C 4652   9.969   2.812   0.984  1.1255  0.1893  1.3722
  776MOL0     C 4653   9.948   2.723   0.878  0.4583  0.6683 -0.4762
  776MOL0     C 4654   9.870   2.599   0.892  0.0771  0.5999  0.0777
  776MOL0     O 4655   9.842   2.555   1.020 -1.0180 -0.4534 -0.6430
  776MOL0     C 4656   9.782   2.435   1.044 -1.2746 -0.2689 -0.1144
  776MOL0     C 4657   9.665   2.425   1.117 -0.6684 -0.3292 -0.5747
  776MOL0     C 4658   9.611   2.305   1.139 -0.0653 -0.0258 -0.1466
  776MOL0     C 4659   9.675   2.194   1.094  0.4926  0.8473  0.0999
  776MOL0     O 4660   9.617   2.073   1.129  0.0643 -0.7989  0.2551
  776MOL0     C 4661   9.692   1.955   1.120  0.3830 -0.7071  0.4624
  776MOL0     C 4662   9.634   1.859   1.224 -0.5947  0.1969  0.2871
  776MOL0     C 4663   9.489   1.813   1.183 -1.0894 -0.1357 -0.6124
  776MOL0     C 4664   9.498   1.707   1.072  0.1294 -0.1656 -0.4534
  776MOL0     C 4665   9.358   1.708   1.010  0.0003 -0.1743  0.0973
  776MOL0     C 4666   9.334   1.621   0.883 -0.8956 -0.3335  0.6470
  776MOL0     C 4667   9.370   1.469   0.917 -0.3503 -0.6058 -0.1682
  776MOL0     C 4668   9.299   1.371   0.818 -0.2129  0.4359 -0.0340
  776MOL0    Cl 4669   9.411   1.249   0.751 -0.2279 -0.0191 -0.1948
  776MOL0     C 4670   9.792   2.202   1.021 -0.0470 -0.7211 -0.1172
  776MOL0     C 4671   9.846   2.326   0.989  0.2868  0.2043  0.8900
  776MOL0     O 4672   9.826   2.544   0.788  0.3084  0.3488 -0.3240
  776MOL0     C 4673   9.993   2.756   0.754 -0.1598  0.6914  0.9986
  776MOL0     C 4674  10.061   2.882   0.739 -0.3761  0.0234 -1.1527
  776MOL0     N 4675  10.354   3.599   0.834 -0.3752 -0.0106 -0.2131
  776MOL0     N 4676  10.365   3.690   0.929 -0.1594  0.4076 -0.5136
  776MOL0     C 4677  10.781   3.650   0.397  0.3113  1.4568 -0.8983
  776MOL0     C 4678  10.682   3.609   0.305  0.2409  0.0402  0.1614
  776MOL0     C 4679  10.310   3.379   0.147  0.4460  0.5404 -0.2503
  776MOL0     C 4680  10.315   3.237   0.134  0.8134  0.0639  0.2619
  776MOL0     C 4681  10.238   3.180   0.029 -0.0602 -0.6881 -0.9555
  776MOL0     C 4682  10.152   3.255  -0.055 -0.0444  0.4830  0.9044
  776MOL0     O 4683  10.094   3.183  -0.158 -0.4149 -0.0020 -0.0924
  776MOL0     C 4684  10.021   3.241  -0.267  0.2171 -0.5288  0.1050
  776MOL0     C 4685  10.113   3.283  -0.376  0.2580  0.2158  0.9523
  776MOL0     C 4686  10.018   3.335  -0.490  0.5373  0.3844  0.1901
  776MOL0     C 4687  10.096   3.347  -0.629  0.2887  0.1768 -0.4856
  776MOL0     C 4688  10.004   3.391  -0.734 -0.3743 -0.1866  0.7844
  776MOL0     C 4689   9.927   3.437  -0.809 -1.0459 -0.3694  0.4288
  776MOL0     C 4690  10.134   3.392  -0.025  0.8079 -0.4586 -0.2568
  776MOL0     C 4691  10.210   3.458   0.074 -0.2141  0.3944  0.1696
  776MOL0     C 4692  10.212   3.610   0.079  0.5087  0.2046  0.2071
  776MOL0     H 4693  10.399   3.634   0.492 -1.2122  1.0522 -0.2643
  776MOL0     H 4694  10.561   3.689   0.654  0.6346 -0.2221 -0.3737
  776MOL0     H 4695  11.011   3.734   0.582  0.0484 -0.1764  0.0882
  776MOL0     H 4696  10.893   3.865   0.532 -3.4539  0.9525  1.8841
  776MOL0     H 4697  10.875   3.916   0.770  0.0041 -1.2971  4.1614
  776MOL0     H 4698  11.057   3.916   0.720  1.5059 -3.5752 -2.2033
  776MOL0     H 4699  11.105   3.729   0.828 -0.9654  1.8726 -2.0786
  776MOL0     H 4700  10.948   3.674   0.859 -2.1584  0.6745 -0.3552
  776MOL0     H 4701  11.066   3.776   1.061  0.9294  0.9514 -1.1224
  776MOL0     H 4702  11.087   3.921   0.975 -1.6846  2.3305 -0.5031
  776MOL0     H 4703  10.916   3.924   1.154  1.3456 -0.4311 -0.1778
  776MOL0     H 4704  10.862   3.985   0.994 -0.5552  0.1919  1.0203
  776MOL0     H 4705  10.764   3.734   0.958 -2.2102  0.1141  0.2345
  776MOL0     H 4706  10.803   3.695   1.111 -0.2194 -0.4990 -0.5066
  776MOL0     H 4707  10.605   3.910   1.013  2.7062 -0.9621 -1.3515
  776MOL0     H 4708  10.655   3.917   1.171  0.6673  0.9719 -1.8038
  776MOL0     H 4709  10.567   3.692   1.202  6.7036  2.1984 -0.5307
  776MOL0     H 4710  10.443   3.801   1.153  0.6124  1.3172  0.0349
  776MOL0     H 4711  10.618   3.492   0.990  3.0573  3.2817 -0.6219
  776MOL0     H 4712  10.447   3.389   0.655  0.9279 -1.2348 -0.8369
  776MOL0     H 4713  10.579   3.358   0.756  0.1516  2.0508 -0.7621
  776MOL0     H 4714  10.351   3.200   0.717  0.8332  3.6804 -2.8179
  776MOL0     H 4715  10.455   3.185   0.861  0.2688 -0.7529  0.1962
  776MOL0     H 4716  10.201   3.360   0.814 -0.6429  1.8488  2.0914
  776MOL0     H 4717  10.285   3.353   0.972  2.1110 -0.6273 -0.1236
  776MOL0     H 4718  10.075   3.197   0.950 -0.1211 -0.6200 -1.2893
  776MOL0     H 4719  10.225   3.122   1.013  3.8445  1.6614 -0.9214
  776MOL0     H 4720  10.023   2.999   1.060 -1.3018 -0.6592  0.4207
  776MOL0     H 4721   9.931   2.771   1.077 -1.5270 -2.3453 -0.6406
  776MOL0     H 4722   9.622   2.520   1.146 -2.0121 -1.0371 -0.1135
  776MOL0     H 4723   9.521   2.299   1.200  1.3499 -0.1861  2.0316
  776MOL0     H 4724   9.696   1.922   1.015 -1.8599 -0.1215  0.1388
  776MOL0     H 4725   9.795   1.971   1.153  1.0841  0.3095 -1.9555
  776MOL0     H 4726   9.687   1.763   1.230 -2.0010 -0.5942  0.4983
  776MOL0     H 4727   9.626   1.909   1.320 -1.6259  0.5354  0.0447
  776MOL0     H 4728   9.444   1.768   1.273 -1.8234 -0.3333 -1.0686
  776MOL0     H 4729   9.428   1.899   1.154  0.1584  0.2163 -2.3348
  776MOL0     H 4730   9.536   1.614   1.116  2.6560  1.9584  2.2428
  776MOL0     H 4731   9.561   1.738   0.988 -0.4996  0.5434 -0.6682
  776MOL0     H 4732   9.338   1.813   0.990  0.5802 -0.2028 -0.6672
  776MOL0     H 4733   9.289   1.667   1.085  1.4553 -3.0737  0.0180
  776MOL0     H 4734   9.233   1.639   0.843 -0.5844  2.9756  1.0964
  776MOL0     H 4735   9.408   1.661   0.814  0.0154  2.0574  2.8613
  776MOL0     H 4736   9.359   1.431   1.019 -2.4471 -0.0167 -0.1274
  776MOL0     H 4737   9.477   1.457   0.900 -0.8602 -2.4424 -2.5761
  776MOL0     H 4738   9.210   1.315   0.850 -0.7626  1.0558 -0.4639
  776MOL0     H 4739   9.266   1.434   0.736  0.7906 -0.1189 -0.8972
  776MOL0     H 4740   9.844   2.113   0.987  0.3840 -0.2031 -0.8508
  776MOL0     H 4741   9.931   2.346   0.925 -0.4555  3.6395  0.7952
  776MOL0     H 4742   9.967   2.693   0.670 -0.4400  2.5655 -0.3684
  776MOL0     H 4743  10.109   2.907   0.645 -1.1702  1.0734 -1.3014
  776MOL0     H 4744  10.887   3.632   0.381 -0.0074 -0.4968 -0.9805
  776MOL0     H 4745  10.710   3.586   0.203  2.0008  0.1180  0.6036
  776MOL0     H 4746  10.370   3.176   0.204  0.0058 -1.4208 -0.3354
  776MOL0     H 4747  10.256   3.073   0.033  3.3817 -0.1711  0.1720
  776MOL0     H 4748   9.962   3.325  -0.230  0.8763 -0.0297  0.0471
  776MOL0     H 4749   9.950   3.163  -0.296 -0.2967 -0.6036  1.5133
  776MOL0     H 4750  10.176   3.198  -0.404 -0.7100  0.2388 -1.5880
  776MOL0     H 4751  10.173   3.364  -0.332  2.7725 -1.5613  1.0030
  776MOL0     H 4752   9.975   3.428  -0.451  0.1005 -0.1107  0.9228
  776MOL0     H 4753   9.934   3.267  -0.507 -2.2294  3.0779  2.1909
  776MOL0     H 4754  10.170   3.426  -0.615  1.0827 -0.6167 -0.1358
  776MOL0     H 4755  10.152   3.258  -0.660  2.5708  0.8368  1.4403
  776MOL0     H 4756   9.858   3.475  -0.882  0.7675  1.0095 -0.6728
  776MOL0     H 4757  10.077   3.455  -0.094  0.2606 -0.7196 -0.0423
  776MOL0     H 4758  10.295   3.654   0.023  1.5569  0.2498  1.7585
  776MOL0     H 4759  10.119   3.651   0.039  0.9831  0.8430 -0.2713
  776MOL0     H 4760  10.211   3.655   0.178 -2.6473  1.1116 -0.1464
  777MOL0     O 4761   4.938   4.930   4.683  0.5581  0.0504  0.2730
  777MOL0     C 4762   4.968   5.036   4.630 -0.4717 -0.6767 -0.5902
  777MOL0     O 4763   4.931   5.077   4.504  0.7735  0.3242 -0.3212
  777MOL0     C 4764   4.837   4.994   4.447 -0.1861 -0.1250 -0.0952
  777MOL0     C 4765   4.874   4.880   4.370 -0.3367 -1.0033  0.0220
  777MOL0     C 4766   4.768   4.792   4.325 -0.7131  0.2218 -0.3324
  777MOL0     C 4767   4.627   4.824   4.338 -0.1639  0.4257  0.8816
  777MOL0     O 4768   4.525   4.743   4.297 -0.2969 -0.3998 -0.2558
  777MOL0     C 4769   4.548   4.599   4.303 -0.2347  0.6365  0.2062
  777MOL0     C 4770   4.588   4.547   4.165  0.2532 -0.4069 -0.3680
  777MOL0     C 4771   4.473   4.567   4.054  0.4095  0.0921  0.8138
  777MOL0     C 4772   4.535   4.550   3.916 -0.3180  0.8372  0.6183
  777MOL0     C 4773   4.421   4.533   3.817  0.1196 -0.3374 -0.1516
  777MOL0     C 4774   4.488   4.513   3.684  0.7431  1.4255  0.3515
  777MOL0     C 4775   4.368   4.510   3.573 -0.6651  0.5609 -0.4473
  777MOL0     C 4776   4.415   4.448   3.448 -0.0198 -0.1135  0.3059
  777MOL0     N 4777   4.337   4.517   3.340 -0.2711  0.3177 -0.2899
  777MOL0     C 4778   4.393   4.616   3.267 -0.7342 -0.7899  0.7996
  777MOL0     C 4779   4.338   4.612   3.146 -0.7404 -0.5816  0.6735
  777MOL0     C 4780   4.362   4.697   3.034  0.0287 -0.1507  0.5141
  777MOL0     C 4781   4.340   4.843   3.071 -0.2411  0.2460 -0.0856
  777MOL0     C 4782   4.200   4.873   3.140 -0.5919  0.3882  0.2059
  777MOL0     C 4783   4.079   4.801   3.083  0.0142 -0.2461  0.8634
  777MOL0     O 4784   4.081   4.802   2.936  0.7061  0.3036  0.3277
  777MOL0     C 4785   4.015   4.699   2.865 -0.2899  0.2176  0.1303
  777MOL0     C 4786   3.955   4.579   2.922 -0.3293 -0.6058  0.0271
  777MOL0     C 4787   3.865   4.506   2.843  0.4703  0.1364 -0.7368
  777MOL0     C 4788   3.839   4.542   2.709  0.1704 -1.3047  0.7381
  777MOL0     C 4789   3.755   4.451   2.629 -0.1675  0.3041  0.5995
  777MOL0     O 4790   3.737   4.331   2.683  0.4492  0.3634  0.4277
  777MOL0     C 4791   3.700   4.219   2.606 -0.7892 -0.3948  0.8968
  777MOL0     C 4792   3.787   4.111   2.601  0.7275  0.7529 -1.3501
  777MOL0     C 4793   3.757   3.985   2.549 -0.7871 -1.4377 -0.4591
  777MOL0     C 4794   3.638   3.966   2.475  0.0812  0.6304  0.2657
  777MOL0     O 4795   3.602   3.839   2.439  1.2887 -0.6698 -0.3578
  777MOL0     C 4796   3.459   3.796   2.456  0.1071 -1.2194  0.0474
  777MOL0     C 4797   3.432   3.778   2.600 -0.1367 -0.0798  0.2322
  777MOL0     C 4798   3.501   3.652   2.654  0.1283 -0.0867  0.0793
  777MOL0     C 4799   3.470   3.629   2.808  0.4461 -0.7746  0.1115
  777MOL0     C 4800   3.348   3.546   2.826 -0.7249 -0.3564 -0.0633
  777MOL0     C 4801   3.323   3.520   2.973  1.2259  0.2725 -0.1225
  777MOL0     C 4802   3.443   3.440   3.046  1.0004 -0.1917  0.9606
  777MOL0     C 4803   3.390   3.350   3.152 -0.0776  0.1362  0.7706
  777MOL0    Cl 4804   3.316   3.208   3.073  0.6322  0.5103 -0.3124
  777MOL0     C 4805   3.557   4.081   2.464  0.2683 -0.3780 -0.9430
  777MOL0     C 4806   3.584   4.204   2.522 -0.3483  0.6672  0.0469
  777MOL0     O 4807   3.720   4.479   2.515  0.4603 -0.0498  0.2126
  777MOL0     C 4808   3.904   4.655   2.658 -0.2384 -0.4037 -0.2908
  777MOL0     C 4809   4.002   4.723   2.734 -1.3857  0.3567  0.1014
  777MOL0     N 4810   4.238   4.510   3.148 -0.4195 -0.5748 -0.2029
  777MOL0     N 4811   4.245   4.451   3.266 -0.2090 -0.1666  0.0189
  777MOL0     C 4812   4.597   4.953   4.397 -0.4083  0.6062  0.6570
  777MOL0     C 4813   4.700   5.038   4.448 -0.6333  0.2235  0.0689
  777MOL0     C 4814   5.069   5.118   4.704 -0.3059 -0.5050 -0.2343
  777MOL0     C 4815   5.196   5.143   4.645 -0.4136 -0.5813  0.3730
  777MOL0     C 4816   5.300   5.222   4.693  1.2846  0.2318  0.0690
  777MOL0     C 4817   5.285   5.272   4.827  0.3890  0.8488 -0.9187
  777MOL0     O 4818   5.384   5.356   4.863 -0.4504 -0.4380  1.0163
  777MOL0     C 4819   5.377   5.414   4.999 -0.8394  0.3334 -0.0767
  777MOL0     C 4820   5.396   5.320   5.120 -0.2861 -0.3296  0.0053
  777MOL0     C 4821   5.551   5.307   5.156  0.1287  0.1150  0.0630
  777MOL0     C 4822   5.652   5.233   5.050 -0.1187  0.4232 -0.3583
  777MOL0     C 4823   5.785   5.241   5.103  0.0178 -0.6970 -0.2472
  777MOL0     C 4824   5.900   5.267   5.139  0.6640 -0.6650  0.2929
  777MOL0     C 4825   5.164   5.246   4.896 -0.4520 -1.3655 -0.8541
  777MOL0     C 4826   5.062   5.176   4.835 -0.5040  0.3067  0.1269
  777MOL0     C 4827   4.930   5.175   4.910 -0.1699  0.0450  0.0587
  777MOL0     H 4828   4.978   4.868   4.341 -0.9392  1.2976 -3.7211
  777MOL0     H 4829   4.800   4.705   4.268 -1.2159 -0.8541  0.9530
  777MOL0     H 4830   4.621   4.553   4.370  0.0714 -2.7040 -2.1648
  777MOL0     H 4831   4.451   4.554   4.322  0.3183 -0.8278 -0.2896
  777MOL0     H 4832   4.613   4.441   4.175  0.3702 -0.3610 -0.1707
  777MOL0     H 4833   4.671   4.606   4.128  0.7818 -1.5886 -1.1284
  777MOL0     H 4834   4.435   4.670   4.060  0.5197  0.1469  0.5827
  777MOL0     H 4835   4.391   4.498   4.073  0.8990 -0.6593  0.2301
  777MOL0     H 4836   4.599   4.631   3.879  4.9696 -3.3221 -0.6982
  777MOL0     H 4837   4.601   4.462   3.915 -0.1907  0.8836  2.2624
  777MOL0     H 4838   4.362   4.447   3.850 -1.5593  1.8514  3.0103
  777MOL0     H 4839   4.360   4.622   3.803  1.8987  0.5080 -3.6626
  777MOL0     H 4840   4.573   4.580   3.666 -0.4576  2.8484 -0.2096
  777MOL0     H 4841   4.527   4.411   3.678 -0.3709  0.9378  0.9907
  777MOL0     H 4842   4.351   4.614   3.543 -0.0424  1.9532  3.4481
  777MOL0     H 4843   4.282   4.453   3.606  2.0186 -2.7018  1.5332
  777MOL0     H 4844   4.523   4.447   3.435 -0.3057  1.3689 -3.7369
  777MOL0     H 4845   4.396   4.340   3.457  3.2428 -0.6674  1.8613
  777MOL0     H 4846   4.474   4.673   3.309  0.1544 -1.1833 -0.3340
  777MOL0     H 4847   4.465   4.681   3.003 -0.2474 -0.7816 -0.0990
  777MOL0     H 4848   4.300   4.668   2.949  0.1861 -0.6312  0.5579
  777MOL0     H 4849   4.424   4.886   3.126  0.1420  1.1545 -1.3418
  777MOL0     H 4850   4.340   4.903   2.980 -2.8738  0.8133  0.2020
  777MOL0     H 4851   4.186   4.980   3.154  2.4532  1.1575 -1.6728
  777MOL0     H 4852   4.210   4.831   3.240  2.1025  0.2424 -0.0566
  777MOL0     H 4853   3.985   4.842   3.121 -1.9166 -0.9605 -2.6391
  777MOL0     H 4854   4.084   4.698   3.121 -2.9435  0.4536  3.5762
  777MOL0     H 4855   3.976   4.545   3.023  1.4886 -1.6090 -0.6534
  777MOL0     H 4856   3.818   4.417   2.884  0.5315  0.9273  1.1644
  777MOL0     H 4857   3.872   4.109   2.669 -0.5885 -1.4835  0.3350
  777MOL0     H 4858   3.818   3.902   2.581  0.1777 -0.4745  0.2730
  777MOL0     H 4859   3.384   3.872   2.434 -1.4481 -2.0288  2.1556
  777MOL0     H 4860   3.435   3.707   2.398 -3.0686 -0.6380  0.2759
  777MOL0     H 4861   3.463   3.866   2.658 -0.8075  1.4406 -1.6029
  777MOL0     H 4862   3.325   3.756   2.605 -0.5325  1.8841  1.9917
  777MOL0     H 4863   3.476   3.564   2.594  0.0508 -2.5217  3.4323
  777MOL0     H 4864   3.608   3.675   2.647  0.5842 -1.0019  2.8245
  777MOL0     H 4865   3.443   3.725   2.853 -4.0561 -1.5850 -0.3728
  777MOL0     H 4866   3.558   3.582   2.853 -0.1456 -4.4683 -2.2119
  777MOL0     H 4867   3.349   3.455   2.765  0.6349  1.9410 -3.8570
  777MOL0     H 4868   3.269   3.610   2.784  1.5548  3.5788  1.1143
  777MOL0     H 4869   3.304   3.622   3.009 -1.1672  0.0798 -0.6366
  777MOL0     H 4870   3.230   3.463   2.984  1.2811  0.3748  1.0010
  777MOL0     H 4871   3.500   3.520   3.095  0.8090  1.8890 -1.9188
  777MOL0     H 4872   3.497   3.387   2.968 -3.9686  1.5983 -4.4611
  777MOL0     H 4873   3.480   3.301   3.190  0.4758 -3.2270 -3.9301
  777MOL0     H 4874   3.320   3.391   3.225 -3.0738 -0.0803 -1.7370
  777MOL0     H 4875   3.468   4.070   2.402 -0.9395 -2.5104  0.9958
  777MOL0     H 4876   3.525   4.294   2.519  0.4712  1.4768  3.5152
  777MOL0     H 4877   3.898   4.679   2.552  0.8804 -1.7535 -0.6942
  777MOL0     H 4878   4.059   4.796   2.677  0.3423 -1.5864 -0.7662
  777MOL0     H 4879   4.496   4.990   4.384 -1.0668 -0.4513  2.3986
  777MOL0     H 4880   4.667   5.130   4.494 -0.4994  1.5514 -2.3285
  777MOL0     H 4881   5.199   5.109   4.542 -0.3278  1.2054 -0.2409
  777MOL0     H 4882   5.387   5.251   4.634  0.5948  2.9474  0.2572
  777MOL0     H 4883   5.283   5.469   4.998  0.4363  2.9015  2.7106
  777MOL0     H 4884   5.456   5.490   5.003  0.2251 -0.2637 -4.5494
  777MOL0     H 4885   5.359   5.222   5.088  0.8320 -1.0283  0.7822
  777MOL0     H 4886   5.354   5.352   5.216 -0.2413  0.2011 -0.1520
  777MOL0     H 4887   5.557   5.269   5.259 -4.2784  0.7328  0.7195
  777MOL0     H 4888   5.579   5.413   5.157 -0.9291  0.4272  1.7003
  777MOL0     H 4889   5.615   5.131   5.056  0.8999 -0.0506 -1.7364
  777MOL0     H 4890   5.646   5.272   4.947  2.5558 -3.8113 -2.3908
  777MOL0     H 4891   5.983   5.311   5.190 -0.6674  1.4023  0.7633
  777MOL0     H 4892   5.154   5.282   4.998  0.0820 -1.9966 -0.5770
  777MOL0     H 4893   4.915   5.270   4.962 -1.1723 -0.0334 -0.0654
  777MOL0     H 4894   4.863   5.158   4.826 -0.8254  1.5885  0.2327
  777MOL0     H 4895   4.907   5.090   4.975 -0.8377 -0.2066 -0.5037
  778MOL0     O 4896   2.336   7.045   9.521 -1.1380 -0.4020  0.2571
  778MOL0     C 4897   2.455   7.078   9.544  0.0385  0.2909  0.2600
  778MOL0     O 4898   2.542   7.139   9.449 -0.4887  0.5528 -0.5473
  778MOL0     C 4899   2.509   7.151   9.316  0.2722  0.9931 -0.2266
  778MOL0     C 4900   2.617   7.144   9.243  0.8194 -0.1162  0.0381
  778MOL0     C 4901   2.609   7.163   9.099 -0.3653 -1.3185 -1.3291
  778MOL0     C 4902   2.481   7.193   9.043  0.5287  0.1198 -0.1095
  778MOL0     O 4903   2.443   7.206   8.912 -0.0261  0.7912  0.6040
  778MOL0     C 4904   2.455   7.347   8.881 -0.4470 -0.2516 -0.6740
  778MOL0     C 4905   2.602   7.390   8.864 -0.1938  0.7292  0.1661
  778MOL0     C 4906   2.636   7.513   8.943  0.4853  0.2362 -0.5959
  778MOL0     C 4907   2.778   7.563   8.900  0.5148  1.0454  0.4003
  778MOL0     C 4908   2.807   7.706   8.941  0.5648 -0.0853  0.8200
  778MOL0     C 4909   2.829   7.716   9.084 -0.4716 -0.0452  0.3740
  778MOL0     C 4910   2.859   7.858   9.146  0.1274  0.6121  0.6058
  778MOL0     C 4911   2.738   7.941   9.167  0.2600  0.2472 -0.5397
  778MOL0     N 4912   2.790   8.072   9.225 -1.0681 -0.0464  0.2285
  778MOL0     C 4913   2.849   8.082   9.348 -0.7351 -0.3435 -0.5943
  778MOL0     C 4914   2.896   8.212   9.341  1.2457 -0.1871 -0.4258
  778MOL0     C 4915   2.996   8.255   9.444  0.2810  1.1755  0.4050
  778MOL0     C 4916   2.929   8.357   9.530  0.2354  0.1135 -0.1380
  778MOL0     C 4917   3.027   8.463   9.585  0.3976 -0.7138 -0.2574
  778MOL0     C 4918   3.121   8.407   9.689  0.2687 -0.1564 -0.5901
  778MOL0     O 4919   3.236   8.340   9.639  0.3750  0.1412 -0.2400
  778MOL0     C 4920   3.330   8.268   9.715 -0.4350  0.4341 -0.7760
  778MOL0     C 4921   3.309   8.251   9.857 -0.2849  0.0820  0.4627
  778MOL0     C 4922   3.405   8.175   9.935  0.6347 -1.1258 -0.4639
  778MOL0     C 4923   3.519   8.108   9.881  1.2182 -1.0313 -0.0189
  778MOL0     C 4924   3.611   8.029   9.963  0.0182 -0.6744 -0.3049
  778MOL0     O 4925   3.723   7.976   9.917 -0.2065 -0.0928  0.0697
  778MOL0     C 4926   3.801   7.898  10.002 -0.0393  0.4502 -0.7885
  778MOL0     C 4927   3.931   7.939  10.032 -0.3947  0.4909 -0.4920
  778MOL0     C 4928   4.006   7.865  10.124  0.0078 -1.2071  0.0204
  778MOL0     C 4929   3.957   7.751  10.186 -1.2419  0.2455  0.4391
  778MOL0     O 4930   4.049   7.694  10.279  0.0566 -0.7481 -0.4947
  778MOL0     C 4931   4.005   7.589  10.364  0.4820 -0.3344 -0.4626
  778MOL0     C 4932   4.114   7.538  10.463  0.4465  0.4967 -0.3249
  778MOL0     C 4933   4.246   7.512  10.393 -0.1153 -0.2854  0.6850
  778MOL0     C 4934   4.247   7.384  10.305  0.4690 -0.4582  0.8217
  778MOL0     C 4935   4.200   7.250  10.373 -0.6862  0.0765  0.1588
  778MOL0     C 4936   4.285   7.162  10.458  0.7450  0.2463  0.6142
  778MOL0     C 4937   4.318   7.231  10.587  0.3715  0.0091  0.1342
  778MOL0     C 4938   4.287   7.129  10.696  0.0049 -0.8409 -0.6987
  778MOL0    Cl 4939   4.314   7.225  10.848 -0.1012 -0.1592  0.1530
  778MOL0     C 4940   3.829   7.706  10.144 -0.5949  0.5976 -0.0763
  778MOL0     C 4941   3.746   7.782  10.053 -0.7153  1.0626  0.2917
  778MOL0     O 4942   3.579   8.026  10.081  0.2026 -0.9031 -0.1558
  778MOL0     C 4943   3.518   8.099   9.737 -0.0166 -0.7702  0.6910
  778MOL0     C 4944   3.433   8.196   9.660  0.1480 -0.0668  0.3131
  778MOL0     N 4945   2.866   8.275   9.229 -1.0176 -0.2039  0.9387
  778MOL0     N 4946   2.785   8.195   9.155 -0.7388 -0.1405  0.4764
  778MOL0     C 4947   2.371   7.186   9.122  0.9370 -0.1495  0.0972
  778MOL0     C 4948   2.380   7.171   9.260  0.5783  0.1909  0.1838
  778MOL0     C 4949   2.524   7.034   9.674  0.0258 -0.2970  1.2337
  778MOL0     C 4950   2.441   7.024   9.778 -0.0790  0.6228  0.0580
  778MOL0     C 4951   2.495   6.976   9.899  0.2576 -0.0561 -0.4450
  778MOL0     C 4952   2.627   6.950   9.914 -0.0403 -0.6062  0.2470
  778MOL0     O 4953   2.686   6.905  10.026 -0.0485 -0.4361 -0.1043
  778MOL0     C 4954   2.632   6.947  10.155  0.2759  0.2943 -0.3076
  778MOL0     C 4955   2.716   6.885  10.269  0.5492 -0.0008  0.5746
  778MOL0     C 4956   2.669   6.738  10.288 -0.1870  0.0259 -1.3386
  778MOL0     C 4957   2.715   6.674  10.425 -0.8834 -0.9145  0.5756
  778MOL0     C 4958   2.646   6.732  10.539  0.5397 -0.0735 -0.1146
  778MOL0     C 4959   2.598   6.757  10.651 -0.5526  0.9261  1.6782
  778MOL0     C 4960   2.709   6.959   9.804  0.4371 -0.8116 -0.5730
  778MOL0     C 4961   2.664   7.013   9.683 -0.6565 -0.7180 -0.0960
  778MOL0     C 4962   2.775   7.043   9.578 -0.2773  0.3140  0.1956
  778MOL0     H 4963   2.717   7.129   9.281  0.6926 -1.2104 -0.0171
  778MOL0     H 4964   2.699   7.143   9.043  1.4073 -3.5792  1.9676
  778MOL0     H 4965   2.418   7.363   8.779  2.4512 -3.5528 -2.4804
  778MOL0     H 4966   2.404   7.408   8.956  1.6289 -1.2568  1.6967
  778MOL0     H 4967   2.624   7.404   8.758 -1.3961 -2.3304 -0.6000
  778MOL0     H 4968   2.669   7.305   8.881 -0.5860  0.2608 -0.5745
  778MOL0     H 4969   2.640   7.494   9.051  0.4785  2.0282 -0.2410
  778MOL0     H 4970   2.551   7.581   8.933 -0.4470 -0.6033  1.0840
  778MOL0     H 4971   2.859   7.504   8.946  0.3360  1.9749  1.9823
  778MOL0     H 4972   2.800   7.560   8.793 -1.1064 -2.6584  0.0250
  778MOL0     H 4973   2.891   7.747   8.885  2.5145 -2.6426  1.6492
  778MOL0     H 4974   2.718   7.766   8.918  1.7911  1.5345  0.1276
  778MOL0     H 4975   2.741   7.673   9.133 -1.2730  0.0099 -0.9686
  778MOL0     H 4976   2.918   7.657   9.110 -0.2354  0.9795  2.0754
  778MOL0     H 4977   2.924   7.918   9.082 -0.3967 -1.1770 -1.7589
  778MOL0     H 4978   2.919   7.842   9.235  0.1559  0.1179  0.5007
  778MOL0     H 4979   2.679   7.957   9.076 -0.7448 -1.8684 -0.3030
  778MOL0     H 4980   2.670   7.900   9.242 -1.1867  1.6451 -1.0366
  778MOL0     H 4981   2.857   8.004   9.422 -1.0750 -1.4697 -1.7080
  778MOL0     H 4982   3.044   8.175   9.501 -2.6953 -2.3322 -1.5825
  778MOL0     H 4983   3.075   8.302   9.384 -1.3815  3.5940 -0.0383
  778MOL0     H 4984   2.878   8.418   9.456  0.8272  1.9489  0.9093
  778MOL0     H 4985   2.859   8.318   9.604 -3.3655  0.1600 -3.2076
  778MOL0     H 4986   2.960   8.546   9.609 -2.9726 -2.6608 -2.2201
  778MOL0     H 4987   3.087   8.496   9.499  3.2951 -1.7656  1.2112
  778MOL0     H 4988   3.055   8.340   9.744 -1.8690  0.7879 -1.8645
  778MOL0     H 4989   3.147   8.485   9.762 -0.4474  0.7032 -1.2296
  778MOL0     H 4990   3.225   8.301   9.903  0.3289 -0.2771  2.0570
  778MOL0     H 4991   3.396   8.181  10.043  4.0965 -2.2243  0.0235
  778MOL0     H 4992   3.971   8.030   9.988 -2.4798  0.7044 -2.0929
  778MOL0     H 4993   4.100   7.898  10.166  0.5411 -2.7022  0.0395
  778MOL0     H 4994   3.925   7.638  10.421  2.1650  2.1538 -0.0525
  778MOL0     H 4995   3.969   7.513  10.295  1.8635  0.4848 -2.1592
  778MOL0     H 4996   4.134   7.619  10.534  1.1088  0.7672 -0.8063
  778MOL0     H 4997   4.079   7.453  10.522 -2.1331  1.7109 -0.0059
  778MOL0     H 4998   4.273   7.597  10.330  0.9396  0.0401  1.5358
  778MOL0     H 4999   4.322   7.503  10.471  1.0904  2.6859 -0.0111
  778MOL0     H 5000   4.347   7.357  10.270 -0.3851 -4.9597  1.3517
  778MOL0     H 5001   4.190   7.410  10.215  2.4094  0.1686 -0.2860
  778MOL0     H 5002   4.174   7.179  10.294 -0.8218 -0.8632  1.0243
  778MOL0     H 5003   4.102   7.265  10.420 -2.1493  0.4243 -2.7714
  778MOL0     H 5004   4.223   7.073  10.474 -2.1983  2.2575  1.2790
  778MOL0     H 5005   4.383   7.141  10.416 -0.2303  1.3594 -2.5288
  778MOL0     H 5006   4.264   7.324  10.602  3.0953  1.5264  1.2042
  778MOL0     H 5007   4.424   7.255  10.601  0.8718 -1.6600 -0.5163
  778MOL0     H 5008   4.187   7.084  10.690 -0.2466 -0.6013  1.1940
  778MOL0     H 5009   4.356   7.045  10.696  1.6299  0.4322  0.9265
  778MOL0     H 5010   3.777   7.621  10.186 -2.5009  0.0381 -3.2429
  778MOL0     H 5011   3.649   7.744  10.025 -1.2299  1.3542  1.6120
  778MOL0     H 5012   3.586   8.042   9.675 -0.2489 -1.3642  0.9777
  778MOL0     H 5013   3.442   8.199   9.552  1.8386  0.5063  0.4337
  778MOL0     H 5014   2.268   7.192   9.090 -0.2303 -1.9973  3.0817
  778MOL0     H 5015   2.290   7.144   9.314  3.9099 -4.0192  4.6500
  778MOL0     H 5016   2.335   7.047   9.786 -0.0420  0.2464  2.3586
  778MOL0     H 5017   2.424   6.962   9.980 -0.6646  0.0648 -1.2169
  778MOL0     H 5018   2.524   6.932  10.168  0.6543 -1.3085  1.4694
  778MOL0     H 5019   2.644   7.056  10.164 -2.6143  0.7671 -1.1938
  778MOL0     H 5020   2.721   6.941  10.363 -0.6932 -1.3511  1.4936
  778MOL0     H 5021   2.819   6.875  10.234  0.5583 -3.4447  1.2765
  778MOL0     H 5022   2.702   6.676  10.204  1.4951 -0.2301 -0.5186
  778MOL0     H 5023   2.560   6.726  10.288 -0.6642 -0.5062  6.4946
  778MOL0     H 5024   2.705   6.566  10.421 -2.2631 -0.8058  0.7613
  778MOL0     H 5025   2.823   6.677  10.441 -1.2353  1.9627  3.5106
  778MOL0     H 5026   2.566   6.811  10.738 -3.3682 -0.6318  1.7147
  778MOL0     H 5027   2.815   6.935   9.812  0.7395  0.7194  0.4098
  778MOL0     H 5028   2.778   6.981   9.489  0.7493  1.1244 -0.3526
  778MOL0     H 5029   2.767   7.144   9.536 -1.6850  0.1862  0.0870
  778MOL0     H 5030   2.874   7.033   9.623  0.5103 -3.8488 -2.0074
  779MOL0     O 5031   0.022   6.413  11.234  0.0787 -0.1013  0.0849
  779MOL0     C 5032  -0.013   6.449  11.116 -0.2926 -0.6029 -1.5766
  779MOL0     O 5033   0.059   6.425  11.008 -0.6714  0.4921 -0.0273
  779MOL0     C 5034   0.190   6.400  11.029  0.4691  0.6348 -1.1803
  779MOL0     C 5035   0.240   6.280  10.983  0.4405  0.8889  0.3734
  779MOL0     C 5036   0.372   6.239  11.009  0.4485 -0.6859 -0.0583
  779MOL0     C 5037   0.455   6.326  11.082  0.3898 -0.4722  0.9099
  779MOL0     O 5038   0.575   6.299  11.138 -0.5719  0.8461 -0.4372
  779MOL0     C 5039   0.600   6.156  11.150  0.4950 -0.0803 -0.1856
  779MOL0     C 5040   0.513   6.098  11.260  0.1249 -0.1199 -0.0374
  779MOL0     C 5041   0.546   5.954  11.276  0.1048  0.0575  0.0419
  779MOL0     C 5042   0.455   5.898  11.399 -0.5587  0.0459  0.4952
  779MOL0     C 5043   0.505   5.762  11.434 -0.0771 -0.6524 -0.5126
  779MOL0     C 5044   0.489   5.653  11.320  0.8807  0.0756  0.2202
  779MOL0     C 5045   0.545   5.516  11.377 -1.1704 -0.0828  0.0955
  779MOL0     C 5046   0.536   5.409  11.274  0.3577  0.6630  0.1066
  779MOL0     N 5047   0.397   5.367  11.249 -0.5363 -0.0834  0.1537
  779MOL0     C 5048   0.335   5.284  11.333 -0.5182 -0.5731  0.8541
  779MOL0     C 5049   0.216   5.248  11.260 -0.7070  0.2013  0.4573
  779MOL0     C 5050   0.130   5.138  11.322 -0.5028 -0.5192  0.2734
  779MOL0     C 5051   0.191   5.008  11.288  0.4977  0.3212 -0.4625
  779MOL0     C 5052   0.094   4.887  11.298 -0.0988 -0.4169  0.3064
  779MOL0     C 5053  -0.019   4.886  11.198 -0.9273 -0.4318  1.2190
  779MOL0     O 5054  -0.086   4.767  11.212  0.7020  0.3896  0.3919
  779MOL0     C 5055  -0.049   4.684  11.110 -0.0308  0.1544  0.3260
  779MOL0     C 5056  -0.043   4.552  11.143 -1.0546  0.1021 -1.1931
  779MOL0     C 5057  -0.055   4.460  11.036  0.3855 -0.3023 -0.0689
  779MOL0     C 5058  -0.043   4.495  10.902 -1.0472  0.2367  0.2694
  779MOL0     C 5059  -0.032   4.392  10.800 -0.3629 -0.1605  0.6365
  779MOL0     O 5060  -0.061   4.430  10.666 -0.0531 -0.4514 -0.5211
  779MOL0     C 5061  -0.064   4.340  10.575  0.2874 -0.1623 -0.1810
  779MOL0     C 5062  -0.018   4.376  10.445  1.0518 -0.3964 -0.0568
  779MOL0     C 5063  -0.032   4.292  10.337  0.1504  0.3687  0.7196
  779MOL0     C 5064  -0.101   4.167  10.350  0.0585 -0.4373  0.5149
  779MOL0     O 5065  -0.104   4.077  10.241 -0.4145 -0.1092  0.0511
  779MOL0     C 5066  -0.034   3.955  10.258 -0.2008 -0.7590  0.2519
  779MOL0     C 5067   0.104   3.967  10.202  0.5414  0.1357  0.3039
  779MOL0     C 5068   0.103   3.975  10.048 -0.0833 -0.4919  0.2128
  779MOL0     C 5069   0.126   3.834   9.976  0.3049  0.1272  0.2548
  779MOL0     C 5070   0.162   3.858   9.823 -0.3673  0.4239 -0.2063
  779MOL0     C 5071   0.181   3.722   9.744 -0.3398  0.2107  0.2117
  779MOL0     C 5072   0.056   3.631   9.746 -0.3765  0.7354  0.9834
  779MOL0     C 5073   0.046   3.509   9.648  0.7081 -1.2744 -0.7037
  779MOL0    Cl 5074   0.201   3.411   9.638 -0.3968 -0.3587 -0.4260
  779MOL0     C 5075  -0.151   4.132  10.472 -0.3992 -0.4144  0.1514
  779MOL0     C 5076  -0.135   4.211  10.592  0.0738 -0.2513 -0.3088
  779MOL0     O 5077  -0.005   4.276  10.844 -0.8225  0.5189 -0.0156
  779MOL0     C 5078  -0.031   4.627  10.871  0.0006 -0.2197  0.5813
  779MOL0     C 5079  -0.042   4.718  10.975 -0.0487  0.2004 -0.7363
  779MOL0     N 5080   0.218   5.320  11.140  0.6474  0.1521 -0.4329
  779MOL0     N 5081   0.325   5.397  11.138  0.9800  0.6329 -0.9729
  779MOL0     C 5082   0.405   6.454  11.127 -0.5127 -0.1710  0.2114
  779MOL0     C 5083   0.274   6.487  11.106  0.4413 -0.4733 -0.2777
  779MOL0     C 5084  -0.150   6.523  11.092 -0.3458  0.4462 -0.1339
  779MOL0     C 5085  -0.208   6.523  10.965  0.0749 -0.0000  0.6943
  779MOL0     C 5086  -0.322   6.590  10.924 -1.2526 -0.5741 -0.0548
  779MOL0     C 5087  -0.393   6.656  11.023  0.3054  0.0055  0.8213
  779MOL0     O 5088  -0.499   6.724  10.977 -0.0912 -0.4291 -0.0228
  779MOL0     C 5089  -0.616   6.726  11.067  0.7012  0.0619 -0.6177
  779MOL0     C 5090  -0.742   6.770  10.982  0.2081  0.5842  0.2748
  779MOL0     C 5091  -0.730   6.722  10.834  0.9081 -0.5726 -0.5447
  779MOL0     C 5092  -0.851   6.745  10.748 -0.0225  0.1197 -0.5702
  779MOL0     C 5093  -0.820   6.713  10.602  0.4678  0.6618 -0.6131
  779MOL0     C 5094  -0.794   6.699  10.485 -0.4149  0.5013  0.1593
  779MOL0     C 5095  -0.353   6.647  11.158  1.4951 -0.4018  0.7763
  779MOL0     C 5096  -0.238   6.585  11.192  0.1230  0.5878  0.4596
  779MOL0     C 5097  -0.200   6.591  11.339 -0.3932 -0.5840 -0.5072
  779MOL0     H 5098   0.169   6.226  10.922 -1.4677  1.0251  2.3624
  779MOL0     H 5099   0.398   6.143  10.964 -1.9343 -1.8074  0.7743
  779MOL0     H 5100   0.597   6.110  11.051  3.1163 -2.9745  0.9388
  779MOL0     H 5101   0.707   6.148  11.172  0.9617  1.4032 -1.6822
  779MOL0     H 5102   0.408   6.118  11.237  0.7715  0.6687 -2.5794
  779MOL0     H 5103   0.522   6.155  11.353 -3.1193 -0.3985  0.5968
  779MOL0     H 5104   0.652   5.928  11.281 -0.1815 -1.1030  0.2577
  779MOL0     H 5105   0.508   5.905  11.187 -3.6762  3.3073 -0.3926
  779MOL0     H 5106   0.458   5.968  11.483  0.7975  3.0524 -1.8503
  779MOL0     H 5107   0.350   5.882  11.371 -0.6119 -0.5725  1.0308
  779MOL0     H 5108   0.609   5.770  11.467  0.1781 -0.8800 -1.2306
  779MOL0     H 5109   0.456   5.725  11.525  4.9262 -2.1079  2.0068
  779MOL0     H 5110   0.380   5.654  11.311  0.5448  0.2134  3.2565
  779MOL0     H 5111   0.549   5.677  11.232  1.8366  1.8755  1.2982
  779MOL0     H 5112   0.502   5.479  11.470 -3.0943  0.6585 -0.4585
  779MOL0     H 5113   0.654   5.526  11.379 -1.1573 -0.2042  0.0208
  779MOL0     H 5114   0.578   5.458  11.186  0.6240  3.6805  1.7913
  779MOL0     H 5115   0.605   5.327  11.295  0.7030  0.0936 -2.7900
  779MOL0     H 5116   0.347   5.250  11.435 -4.9095 -0.2810  1.6397
  779MOL0     H 5117   0.122   5.143  11.431  1.2560  0.9294  0.3789
  779MOL0     H 5118   0.027   5.143  11.285 -1.2469 -0.7597  2.1903
  779MOL0     H 5119   0.226   5.013  11.185 -2.3339  1.5076 -1.4707
  779MOL0     H 5120   0.280   4.988  11.349  0.3734 -2.3166 -1.0076
  779MOL0     H 5121   0.051   4.892  11.398  1.0523 -0.9360  0.8518
  779MOL0     H 5122   0.142   4.789  11.286  1.4421  0.5833 -3.3608
  779MOL0     H 5123   0.028   4.905  11.101 -3.0735  1.0464  0.4080
  779MOL0     H 5124  -0.077   4.977  11.216  1.0598  1.3841 -0.8636
  779MOL0     H 5125  -0.067   4.508  11.239 -1.0973 -1.0777 -1.7165
  779MOL0     H 5126  -0.067   4.355  11.063  1.6333 -0.0337  1.7377
  779MOL0     H 5127   0.043   4.466  10.437 -2.4126  1.9614 -2.2313
  779MOL0     H 5128   0.015   4.320  10.244 -0.0798  1.3991  0.9001
  779MOL0     H 5129  -0.014   3.935  10.364  3.2984 -0.7372 -0.2795
  779MOL0     H 5130  -0.084   3.860  10.235 -0.5823  0.0412 -2.5963
  779MOL0     H 5131   0.144   4.064  10.232  0.7584  0.2499 -0.3481
  779MOL0     H 5132   0.176   3.889  10.230  0.9798 -0.5680 -2.4976
  779MOL0     H 5133   0.011   4.030  10.026 -0.3869 -0.7445  0.8305
  779MOL0     H 5134   0.190   4.037  10.022 -1.1536  0.2001 -1.9304
  779MOL0     H 5135   0.032   3.779   9.986 -1.3931  2.9598  1.0421
  779MOL0     H 5136   0.204   3.772  10.022 -1.5429 -1.6675  1.1205
  779MOL0     H 5137   0.259   3.908   9.810  1.0432 -1.6370  1.7471
  779MOL0     H 5138   0.084   3.927   9.788 -2.1059 -0.0714  2.4028
  779MOL0     H 5139   0.197   3.734   9.636 -0.6525  1.1688  0.2630
  779MOL0     H 5140   0.262   3.662   9.786 -1.0024 -1.4409 -0.7444
  779MOL0     H 5141  -0.032   3.693   9.727 -0.0091  1.2893  1.0701
  779MOL0     H 5142   0.036   3.589   9.845 -1.5561  1.8349  1.2357
  779MOL0     H 5143  -0.029   3.439   9.684  0.8628 -0.1323  2.1163
  779MOL0     H 5144   0.018   3.548   9.549 -1.8160  0.7604  0.6908
  779MOL0     H 5145  -0.215   4.047  10.488 -0.3462 -0.0559  2.6585
  779MOL0     H 5146  -0.187   4.190  10.685  0.2347 -0.6326 -0.3005
  779MOL0     H 5147  -0.047   4.661  10.769 -2.7932 -0.7206  0.7714
  779MOL0     H 5148  -0.049   4.822  10.945  1.4701  0.8818  1.0754
  779MOL0     H 5149   0.458   6.510  11.204 -3.0123  2.5023  0.1682
  779MOL0     H 5150   0.240   6.581  11.148  2.3966 -0.0024  0.3665
  779MOL0     H 5151  -0.151   6.477  10.885 -0.1361  0.5203  0.2433
  779MOL0     H 5152  -0.364   6.590  10.824 -1.3577  0.1681 -0.0166
  779MOL0     H 5153  -0.606   6.800  11.147  1.2267 -0.3522 -0.2988
  779MOL0     H 5154  -0.654   6.628  11.099 -3.9429  1.4336 -1.1606
  779MOL0     H 5155  -0.752   6.879  10.980  1.2312  0.6896  0.1156
  779MOL0     H 5156  -0.834   6.722  11.017 -0.5506 -0.7536 -3.1164
  779MOL0     H 5157  -0.704   6.616  10.834 -0.2898 -0.9106  1.7455
  779MOL0     H 5158  -0.653   6.781  10.783  1.7697 -0.5052  0.7921
  779MOL0     H 5159  -0.942   6.702  10.791 -0.1239 -1.5152 -2.3009
  779MOL0     H 5160  -0.878   6.851  10.760 -0.5508 -0.0622 -0.0705
  779MOL0     H 5161  -0.771   6.683  10.381  1.2325 -0.4178  0.6364
  779MOL0     H 5162  -0.397   6.711  11.235  5.9140 -0.2519  3.5185
  779MOL0     H 5163  -0.228   6.497  11.386 -3.5106  0.6448  0.4158
  779MOL0     H 5164  -0.095   6.613  11.359 -0.0247 -1.1163 -1.7718
  779MOL0     H 5165  -0.251   6.670  11.396  1.3780  0.8898 -0.8528
  780MOL0     O 5166  10.826  10.800   1.997 -0.0518  0.2093  0.0170
  780MOL0     C 5167  10.834  10.782   2.114 -0.7269  0.4974  0.2584
  780MOL0     O 5168  10.945  10.730   2.168  0.2317  0.4842 -0.0007
  780MOL0     C 5169  11.055  10.718   2.087 -0.5447 -0.5494 -0.9647
  780MOL0     C 5170  11.081  10.619   1.990  0.1583  0.7276  0.6162
  780MOL0     C 5171  11.206  10.616   1.920  1.3324 -0.7644  0.5699
  780MOL0     C 5172  11.311  10.703   1.947 -0.2874  0.6541 -1.2240
  780MOL0     O 5173  11.433  10.683   1.878  0.7046 -0.3049 -0.4664
  780MOL0     C 5174  11.550  10.730   1.944  0.1754  0.2088 -0.3831
  780MOL0     C 5175  11.680  10.655   1.900  0.4460  0.9459 -0.7616
  780MOL0     C 5176  11.737  10.685   1.770 -0.4672 -0.8261  0.3767
  780MOL0     C 5177  11.785  10.829   1.740  0.3768  0.7783  0.1852
  780MOL0     C 5178  11.903  10.876   1.819  0.8183  0.7805 -0.1857
  780MOL0     C 5179  11.937  11.023   1.784 -0.4166  0.0784  1.5295
  780MOL0     C 5180  12.027  11.067   1.897 -0.8712 -0.7839  0.7523
  780MOL0     C 5181  12.064  11.213   1.879 -0.6390  0.0521  0.0878
  780MOL0     N 5182  12.203  11.240   1.927 -0.0011 -0.3434  0.0817
  780MOL0     C 5183  12.232  11.334   2.024 -0.1124  0.5015  0.4616
  780MOL0     C 5184  12.368  11.342   2.022 -1.5966 -0.3041  1.4140
  780MOL0     C 5185  12.443  11.445   2.099  0.2263 -0.8755 -1.0200
  780MOL0     C 5186  12.553  11.377   2.183  0.9410  0.2425  0.1109
  780MOL0     C 5187  12.648  11.483   2.251  0.8624 -0.1056  0.0197
  780MOL0     C 5188  12.576  11.542   2.384 -1.1495  0.3049 -0.9501
  780MOL0     O 5189  12.576  11.448   2.487  0.1767 -0.1589  0.1235
  780MOL0     C 5190  12.459  11.432   2.562 -0.0236 -0.2638 -0.4354
  780MOL0     C 5191  12.358  11.337   2.533  0.0608 -0.3429 -0.2028
  780MOL0     C 5192  12.248  11.313   2.618 -0.6627 -0.4447 -0.2034
  780MOL0     C 5193  12.229  11.402   2.729  0.8371 -0.2083  1.4531
  780MOL0     C 5194  12.096  11.389   2.801  0.4344  0.2262 -0.2476
  780MOL0     O 5195  12.054  11.492   2.887  0.0849 -0.5316  0.0643
  780MOL0     C 5196  11.939  11.499   2.963  0.4324 -0.0543  0.0374
  780MOL0     C 5197  11.935  11.611   3.049  0.1427  0.0758  1.4059
  780MOL0     C 5198  11.817  11.629   3.129  0.4400 -0.2228  0.3891
  780MOL0     C 5199  11.707  11.543   3.131  0.7822  0.8802  1.2886
  780MOL0     O 5200  11.597  11.566   3.196  0.0660  0.0621 -0.4930
  780MOL0     C 5201  11.593  11.499   3.330  0.5294 -0.1139  0.8009
  780MOL0     C 5202  11.510  11.376   3.326 -0.1697  1.2238  0.0027
  780MOL0     C 5203  11.357  11.393   3.300  0.7804  0.5137 -0.8788
  780MOL0     C 5204  11.285  11.256   3.282 -0.1838 -0.4674 -1.1000
  780MOL0     C 5205  11.138  11.269   3.305  0.6852  0.1997  0.3565
  780MOL0     C 5206  11.069  11.131   3.306 -0.6245  0.0468  0.0078
  780MOL0     C 5207  10.922  11.146   3.358 -0.7565  0.9390  0.6318
  780MOL0     C 5208  10.846  11.009   3.370 -0.3432 -0.2440 -0.9896
  780MOL0    Cl 5209  10.871  10.927   3.521 -0.2776  0.5022  0.8240
  780MOL0     C 5210  11.721  11.437   3.044  0.4175  0.2724  0.0413
  780MOL0     C 5211  11.839  11.408   2.970 -0.9121 -0.2709 -0.2074
  780MOL0     O 5212  12.036  11.281   2.779  0.0084  0.6475  1.1024
  780MOL0     C 5213  12.319  11.504   2.759  0.3017 -0.4105  0.1818
  780MOL0     C 5214  12.434  11.508   2.682 -1.4162  0.8393  0.2007
  780MOL0     N 5215  12.418  11.244   1.939  0.2818  0.3288 -0.4431
  780MOL0     N 5216  12.322  11.190   1.872 -0.0338  0.5554  0.2122
  780MOL0     C 5217  11.283  10.807   2.041  0.6015 -0.3112  0.0223
  780MOL0     C 5218  11.163  10.815   2.108 -0.9178 -0.5185 -0.2981
  780MOL0     C 5219  10.729  10.834   2.213  0.6157 -0.3340 -0.2097
  780MOL0     C 5220  10.737  10.796   2.353  0.0613  0.6436 -0.2309
  780MOL0     C 5221  10.632  10.828   2.450 -0.7360  0.5043  0.3185
  780MOL0     C 5222  10.521  10.909   2.416  0.3483 -0.1434 -0.0787
  780MOL0     O 5223  10.429  10.943   2.512  0.0165 -0.9665 -0.1660
  780MOL0     C 5224  10.310  11.013   2.481  0.1684 -0.7171  0.0735
  780MOL0     C 5225  10.243  11.030   2.622  0.7072 -0.7721 -0.6721
  780MOL0     C 5226  10.316  11.125   2.726  0.0308 -0.6071 -0.2622
  780MOL0     C 5227  10.396  11.027   2.818  1.0760  0.7203  0.1917
  780MOL0     C 5228  10.458  11.112   2.919  0.0746  0.6402  0.1974
  780MOL0     C 5229  10.494  11.166   3.013  0.4693  0.4478  0.2913
  780MOL0     C 5230  10.512  10.944   2.282  0.1386 -0.6042  1.1715
  780MOL0     C 5231  10.610  10.912   2.183 -0.2706 -0.0491  0.2204
  780MOL0     C 5232  10.574  10.922   2.038 -0.1971 -0.5184 -0.9372
  780MOL0     H 5233  11.011  10.541   1.965  0.0878  1.2723 -1.0391
  780MOL0     H 5234  11.206  10.538   1.845  5.1616  0.7532 -1.2944
  780MOL0     H 5235  11.570  10.837   1.935 -1.2602  0.9510  3.5417
  780MOL0     H 5236  11.541  10.710   2.051 -0.9434  0.9930 -0.3149
  780MOL0     H 5237  11.644  10.552   1.892  0.6818  0.9627 -2.3268
  780MOL0     H 5238  11.748  10.678   1.982  1.4547  2.1987 -1.9089
  780MOL0     H 5239  11.667  10.655   1.691  0.4829 -0.1907 -0.7265
  780MOL0     H 5240  11.824  10.620   1.762 -0.1514 -0.4672  0.8649
  780MOL0     H 5241  11.811  10.827   1.634 -3.1600 -1.0509 -0.7986
  780MOL0     H 5242  11.698  10.896   1.733 -0.8296 -0.8943 -2.6743
  780MOL0     H 5243  11.884  10.861   1.925  1.5430  0.0856 -0.1372
  780MOL0     H 5244  11.990  10.815   1.791 -1.4037 -3.3399  0.9694
  780MOL0     H 5245  11.992  11.030   1.690 -3.1068  0.2623 -0.1376
  780MOL0     H 5246  11.841  11.073   1.767 -0.3611 -0.2783  0.0334
  780MOL0     H 5247  12.116  11.004   1.885 -0.2693 -0.2089  1.9916
  780MOL0     H 5248  11.996  11.045   1.999  1.9756  0.3515  1.9712
  780MOL0     H 5249  12.050  11.253   1.778 -2.1429 -1.0437 -0.1804
  780MOL0     H 5250  11.993  11.266   1.944 -3.2198 -1.1320 -1.6048
  780MOL0     H 5251  12.154  11.381   2.082  1.4827  3.7241  0.2311
  780MOL0     H 5252  12.482  11.520   2.029 -0.6686 -0.8400 -1.4978
  780MOL0     H 5253  12.371  11.493   2.166  0.0044 -2.0446 -0.4018
  780MOL0     H 5254  12.500  11.314   2.255 -0.1924  1.3977  0.3216
  780MOL0     H 5255  12.608  11.309   2.117 -1.6591 -0.1087 -1.9037
  780MOL0     H 5256  12.657  11.566   2.181  0.9324 -0.5997 -0.5557
  780MOL0     H 5257  12.749  11.454   2.281  1.9654 -0.7666 -3.8342
  780MOL0     H 5258  12.478  11.589   2.366 -0.1597  3.1461  0.5199
  780MOL0     H 5259  12.644  11.618   2.421  0.7599 -2.0859  0.7779
  780MOL0     H 5260  12.362  11.267   2.451 -2.1313  0.4345 -1.0560
  780MOL0     H 5261  12.163  11.248   2.599 -3.0895  0.7845  4.6786
  780MOL0     H 5262  12.017  11.681   3.036 -1.0861  1.5404  1.2237
  780MOL0     H 5263  11.797  11.706   3.203  1.2464 -0.1581  0.5562
  780MOL0     H 5264  11.698  11.484   3.357  0.5675  1.8297  1.8694
  780MOL0     H 5265  11.544  11.564   3.403 -0.5394 -1.9875  1.8327
  780MOL0     H 5266  11.556  11.305   3.256  1.0615  3.3977 -1.5231
  780MOL0     H 5267  11.517  11.322   3.421  0.2501 -2.7407 -2.0486
  780MOL0     H 5268  11.314  11.437   3.390  1.4711 -1.5844  0.5582
  780MOL0     H 5269  11.340  11.456   3.212 -2.6417  0.6099 -0.2834
  780MOL0     H 5270  11.319  11.194   3.366 -0.0847 -1.2216 -1.6821
  780MOL0     H 5271  11.314  11.213   3.185  1.2890 -2.4280  0.1338
  780MOL0     H 5272  11.102  11.326   3.219  2.1906 -1.2438 -1.3292
  780MOL0     H 5273  11.111  11.328   3.392 -1.8141 -3.2310  2.1841
  780MOL0     H 5274  11.064  11.080   3.210 -6.8333 -3.9544  1.8133
  780MOL0     H 5275  11.120  11.061   3.373 -0.9742 -1.5288 -1.2896
  780MOL0     H 5276  10.867  11.203   3.283 -1.1809  1.0473  1.0179
  780MOL0     H 5277  10.907  11.197   3.454 -3.0091  0.3128  0.6681
  780MOL0     H 5278  10.737  11.020   3.367 -0.6675 -2.3063  0.4164
  780MOL0     H 5279  10.855  10.940   3.286 -3.2383  1.4182 -2.8135
  780MOL0     H 5280  11.635  11.372   3.029 -0.1844  1.3313 -1.3962
  780MOL0     H 5281  11.834  11.322   2.903  0.7502 -1.1592  0.7385
  780MOL0     H 5282  12.299  11.547   2.857 -0.8211 -0.1392 -0.1543
  780MOL0     H 5283  12.511  11.579   2.709 -0.6695  0.1349 -0.0267
  780MOL0     H 5284  11.363  10.875   2.068  1.2919 -1.2124  0.3147
  780MOL0     H 5285  11.158  10.877   2.197 -0.6135 -0.9343  0.0138
  780MOL0     H 5286  10.820  10.737   2.391 -1.5851 -1.0113  0.9579
  780MOL0     H 5287  10.647  10.798   2.553  0.5146  0.9537  0.2754
  780MOL0     H 5288  10.249  10.958   2.408 -0.8945  1.2477 -0.5821
  780MOL0     H 5289  10.337  11.106   2.431 -0.4355 -1.5165 -1.8630
  780MOL0     H 5290  10.210  10.932   2.659 -2.7306 -0.8130 -3.3486
  780MOL0     H 5291  10.143  11.072   2.606  1.0912 -0.5201 -2.6419
  780MOL0     H 5292  10.245  11.173   2.794  0.6192  2.7227 -1.8097
  780MOL0     H 5293  10.373  11.204   2.676  0.8784 -0.5118  0.8056
  780MOL0     H 5294  10.319  10.959   2.857 -0.4586  2.0332 -0.4065
  780MOL0     H 5295  10.476  10.975   2.766 -1.1027 -2.8058  0.0508
  780MOL0     H 5296  10.528  11.231   3.091  1.8427  0.9287 -0.6664
  780MOL0     H 5297  10.422  10.998   2.251  0.5243 -0.6070 -0.0072
  780MOL0     H 5298  10.477  10.972   2.027 -0.3346 -0.5546  0.0016
  780MOL0     H 5299  10.650  10.981   1.986 -2.0945  2.5575 -0.4517
  780MOL0     H 5300  10.554  10.830   1.983 -0.9648  0.7960 -2.9494
  781MOL0     O 5301   3.599   3.048   2.487  0.4247  0.2317 -0.8136
  781MOL0     C 5302   3.489   3.105   2.453 -0.3394  0.8892  1.0325
  781MOL0     O 5303   3.366   3.067   2.497  0.5399 -0.0118 -0.5015
  781MOL0     C 5304   3.355   2.973   2.594  0.5467  0.2244 -0.0859
  781MOL0     C 5305   3.306   2.847   2.558  0.3713  0.4675  0.4456
  781MOL0     C 5306   3.256   2.760   2.656  0.5748 -0.2401 -0.5820
  781MOL0     C 5307   3.280   2.791   2.790 -0.0710  0.6140  1.2678
  781MOL0     O 5308   3.233   2.694   2.883  0.1175 -0.8487 -0.0852
  781MOL0     C 5309   3.280   2.711   3.021 -0.0430  0.0313 -0.5049
  781MOL0     C 5310   3.247   2.580   3.097 -0.0276  0.0018 -0.6572
  781MOL0     C 5311   3.337   2.579   3.224 -0.6827  1.0886 -0.6378
  781MOL0     C 5312   3.326   2.441   3.290  0.0831  0.7589 -0.4817
  781MOL0     C 5313   3.364   2.459   3.435  0.1753  0.2640 -0.5672
  781MOL0     C 5314   3.267   2.553   3.519 -0.5649 -0.2209  0.1448
  781MOL0     C 5315   3.267   2.547   3.667 -0.9266 -0.1890 -0.1982
  781MOL0     C 5316   3.141   2.597   3.732  1.4545  0.3845 -0.9842
  781MOL0     N 5317   3.153   2.596   3.879  0.1511 -0.3262 -0.3680
  781MOL0     C 5318   3.220   2.696   3.948 -0.6710 -0.3230 -0.9817
  781MOL0     C 5319   3.266   2.644   4.063 -0.6379  0.7138  0.1122
  781MOL0     C 5320   3.373   2.695   4.153 -0.4016 -0.4461 -0.8061
  781MOL0     C 5321   3.368   2.847   4.166 -0.0147 -0.3573  0.0414
  781MOL0     C 5322   3.231   2.894   4.233 -0.5219 -0.5731  0.2584
  781MOL0     C 5323   3.223   2.842   4.381  0.5572 -0.4308 -0.5611
  781MOL0     O 5324   3.154   2.943   4.464 -0.5051 -0.1829  0.0500
  781MOL0     C 5325   3.063   2.898   4.555 -0.2712  0.3392  0.2958
  781MOL0     C 5326   2.928   2.929   4.550  0.2777  0.3710  0.5932
  781MOL0     C 5327   2.833   2.891   4.648  0.0696 -0.3100 -0.5147
  781MOL0     C 5328   2.880   2.808   4.762 -0.2970  0.3019 -0.9132
  781MOL0     C 5329   2.786   2.781   4.873  1.1356  0.1313 -0.2317
  781MOL0     O 5330   2.696   2.875   4.899  0.0704 -0.5368 -0.0874
  781MOL0     C 5331   2.609   2.864   5.006 -0.2871  0.1977 -0.1034
  781MOL0     C 5332   2.466   2.885   4.982  0.0703  0.1896  0.1938
  781MOL0     C 5333   2.371   2.872   5.088  1.0259  0.2000  0.1478
  781MOL0     C 5334   2.418   2.841   5.222  0.9070 -0.1384 -0.1145
  781MOL0     O 5335   2.332   2.857   5.332  0.2813  1.2035 -0.5427
  781MOL0     C 5336   2.342   2.767   5.448 -0.6100  0.0905  0.8110
  781MOL0     C 5337   2.210   2.782   5.524 -0.2677  0.6775 -0.0344
  781MOL0     C 5338   2.190   2.918   5.589 -1.0237 -0.5431 -0.4209
  781MOL0     C 5339   2.057   2.925   5.648 -0.1620 -0.6373 -0.2614
  781MOL0     C 5340   2.012   3.085   5.661 -0.3484  0.1864 -0.4100
  781MOL0     C 5341   1.963   3.133   5.516 -0.3516  0.4540 -0.7371
  781MOL0     C 5342   1.815   3.084   5.484 -0.8868  0.4715 -0.5094
  781MOL0     C 5343   1.747   3.171   5.375  0.2205 -0.5135  1.0331
  781MOL0    Cl 5344   1.572   3.157   5.377 -0.0583  0.1804 -0.2867
  781MOL0     C 5345   2.557   2.820   5.241 -0.4490 -0.1519 -0.2221
  781MOL0     C 5346   2.647   2.842   5.139 -0.0346 -0.6464  0.3820
  781MOL0     O 5347   2.793   2.671   4.936  0.2215  0.6762  0.1066
  781MOL0     C 5348   3.025   2.767   4.758 -0.1343  0.4511  0.9219
  781MOL0     C 5349   3.108   2.813   4.652 -0.3390  0.4649  0.0588
  781MOL0     N 5350   3.229   2.511   4.066  0.3490  0.6022 -0.1083
  781MOL0     N 5351   3.166   2.479   3.953 -0.1618 -0.7709  0.0475
  781MOL0     C 5352   3.308   2.920   2.824  0.6102  0.1954 -0.3182
  781MOL0     C 5353   3.352   3.008   2.731 -0.6283 -0.7571 -0.0226
  781MOL0     C 5354   3.515   3.219   2.362  1.2661  0.4151  0.9035
  781MOL0     C 5355   3.392   3.260   2.297  0.3479 -0.4411 -0.1613
  781MOL0     C 5356   3.404   3.351   2.187  0.3395  0.0934 -1.2230
  781MOL0     C 5357   3.526   3.421   2.158 -0.5492 -0.3232  0.0885
  781MOL0     O 5358   3.547   3.515   2.064 -0.1601  0.2125 -0.6907
  781MOL0     C 5359   3.436   3.568   1.999 -0.0010 -1.2472 -0.7092
  781MOL0     C 5360   3.430   3.540   1.850 -0.0689  0.2310 -0.7526
  781MOL0     C 5361   3.557   3.563   1.775 -0.1843  0.3088  0.3457
  781MOL0     C 5362   3.634   3.702   1.784 -0.3080  0.2151 -0.1262
  781MOL0     C 5363   3.527   3.799   1.805 -0.4819  0.4405 -0.3741
  781MOL0     C 5364   3.450   3.888   1.837 -0.1131 -0.7000  0.4456
  781MOL0     C 5365   3.642   3.378   2.230  0.2033 -0.6254 -0.0043
  781MOL0     C 5366   3.637   3.275   2.321  1.2760  0.2070  0.1427
  781MOL0     C 5367   3.770   3.226   2.366 -0.6506  0.8005 -0.0595
  781MOL0     H 5368   3.289   2.813   2.457  2.5940  1.1484 -0.2068
  781MOL0     H 5369   3.216   2.663   2.628  0.4542 -0.8749  1.5673
  781MOL0     H 5370   3.389   2.719   3.020  0.1665 -1.8432  0.9115
  781MOL0     H 5371   3.231   2.800   3.062 -2.0410  1.1577 -4.7808
  781MOL0     H 5372   3.265   2.486   3.045  4.3465 -0.2301  0.8131
  781MOL0     H 5373   3.144   2.586   3.134 -0.4861 -2.8434 -1.2949
  781MOL0     H 5374   3.308   2.668   3.282  0.8065 -0.0432  2.0355
  781MOL0     H 5375   3.445   2.587   3.208 -0.0389 -1.6987  1.5574
  781MOL0     H 5376   3.221   2.411   3.292  0.4033 -0.3916 -0.2344
  781MOL0     H 5377   3.393   2.374   3.236  0.9070  1.7793 -0.7534
  781MOL0     H 5378   3.348   2.359   3.477  0.3916  0.7966  0.8417
  781MOL0     H 5379   3.467   2.495   3.447  0.6693 -0.4214 -2.3912
  781MOL0     H 5380   3.277   2.658   3.491  1.1028  0.1566  1.9166
  781MOL0     H 5381   3.166   2.525   3.487  0.3621 -1.7016 -1.6836
  781MOL0     H 5382   3.364   2.590   3.696 -1.2769  1.0368 -0.7728
  781MOL0     H 5383   3.277   2.444   3.702 -0.6083  0.2319  0.9959
  781MOL0     H 5384   3.099   2.695   3.711  2.0055  0.5827 -1.1684
  781MOL0     H 5385   3.070   2.519   3.704  1.0863 -0.0145  0.9234
  781MOL0     H 5386   3.239   2.795   3.908  0.9601 -0.7291 -1.2765
  781MOL0     H 5387   3.362   2.649   4.252 -2.3019 -0.0623 -0.7868
  781MOL0     H 5388   3.470   2.671   4.110  1.4565  2.8842  1.0880
  781MOL0     H 5389   3.456   2.879   4.222 -0.3773 -0.2014  0.5293
  781MOL0     H 5390   3.382   2.892   4.067  3.6584  1.7700  1.3027
  781MOL0     H 5391   3.142   2.866   4.176  1.3342 -0.8054 -2.7577
  781MOL0     H 5392   3.241   3.002   4.246 -0.0347 -0.6822  0.8481
  781MOL0     H 5393   3.321   2.828   4.429 -0.3443  0.1935  1.5765
  781MOL0     H 5394   3.162   2.752   4.388 -0.8418  0.1469 -3.7349
  781MOL0     H 5395   2.898   2.984   4.462 -0.8158 -1.4424 -0.2250
  781MOL0     H 5396   2.733   2.927   4.630  0.7500  1.1167 -1.6691
  781MOL0     H 5397   2.440   2.908   4.879 -1.9861 -1.3609  0.3006
  781MOL0     H 5398   2.265   2.886   5.069  0.3652 -2.3727  1.5129
  781MOL0     H 5399   2.355   2.662   5.418 -1.0419  0.2659 -0.0354
  781MOL0     H 5400   2.419   2.796   5.520 -0.9151  1.0945  0.7512
  781MOL0     H 5401   2.128   2.773   5.453 -0.2137 -1.0547  0.0670
  781MOL0     H 5402   2.204   2.701   5.597  0.2235 -0.4738 -1.2328
  781MOL0     H 5403   2.268   2.933   5.664 -2.2252  1.1075  0.5881
  781MOL0     H 5404   2.207   2.997   5.515  0.2884 -1.3251 -0.9958
  781MOL0     H 5405   2.052   2.864   5.739 -1.3131 -1.8151 -1.0728
  781MOL0     H 5406   1.986   2.876   5.580  0.7284 -1.2179 -0.7923
  781MOL0     H 5407   2.096   3.144   5.698 -0.3707  0.7880 -1.2703
  781MOL0     H 5408   1.931   3.106   5.732 -1.3447  1.0148 -1.7225
  781MOL0     H 5409   1.965   3.242   5.505  0.6586  0.2252 -3.7973
  781MOL0     H 5410   2.028   3.103   5.434 -4.4882  0.4850 -4.3785
  781MOL0     H 5411   1.749   3.069   5.570  0.2930  2.1217  0.7411
  781MOL0     H 5412   1.820   2.991   5.427  1.6878 -0.3720  0.9475
  781MOL0     H 5413   1.768   3.278   5.390 -1.0944 -0.2260  0.9635
  781MOL0     H 5414   1.787   3.146   5.276 -0.4802  0.5142  0.4613
  781MOL0     H 5415   2.598   2.798   5.339  1.6770  0.2680 -0.9719
  781MOL0     H 5416   2.750   2.857   5.171 -0.4791  1.4131  0.9587
  781MOL0     H 5417   3.059   2.678   4.808 -1.1667 -1.4987 -1.6234
  781MOL0     H 5418   3.209   2.772   4.640 -0.6555 -0.4789  0.5127
  781MOL0     H 5419   3.308   2.956   2.927  1.1034 -1.8249  0.4255
  781MOL0     H 5420   3.363   3.113   2.756 -4.5494 -0.5469  1.5785
  781MOL0     H 5421   3.289   3.224   2.303 -0.6306  1.9417 -1.2485
  781MOL0     H 5422   3.308   3.359   2.137 -2.2015 -0.6793  3.0370
  781MOL0     H 5423   3.449   3.675   2.014  1.1414 -1.2975 -1.2099
  781MOL0     H 5424   3.344   3.550   2.056  0.0826 -1.2313 -0.5678
  781MOL0     H 5425   3.349   3.603   1.812 -2.0262 -0.1555  2.4433
  781MOL0     H 5426   3.384   3.443   1.831 -4.5105  0.8757  4.2211
  781MOL0     H 5427   3.534   3.555   1.668 -1.6287 -1.9388  0.7613
  781MOL0     H 5428   3.626   3.484   1.805 -1.3935  0.0657  2.7394
  781MOL0     H 5429   3.711   3.704   1.861  0.8629 -2.3019 -1.1150
  781MOL0     H 5430   3.683   3.739   1.693  2.0646  2.8212  2.0172
  781MOL0     H 5431   3.406   3.986   1.845  1.4466 -0.0594  1.6684
  781MOL0     H 5432   3.737   3.423   2.205  0.1307  0.9315  2.2254
  781MOL0     H 5433   3.769   3.203   2.473 -0.7960 -0.7551 -0.3748
  781MOL0     H 5434   3.791   3.131   2.317  0.8718  1.4321 -0.7113
  781MOL0     H 5435   3.853   3.293   2.341  0.9460 -0.4545  1.6166
  782MOL0     O 5436   6.724   1.061   3.033  0.4760  0.7540 -0.1382
  782MOL0     C 5437   6.602   1.083   3.015 -0.5276  0.0003 -0.0006
  782MOL0     O 5438   6.538   1.080   2.893  0.4882 -0.3127  0.6013
  782MOL0     C 5439   6.611   1.102   2.778 -0.1846 -0.1692  0.0252
  782MOL0     C 5440   6.628   1.010   2.673 -0.2115  0.2519 -0.4956
  782MOL0     C 5441   6.703   1.030   2.550 -0.2499  0.2883  1.3721
  782MOL0     C 5442   6.758   1.162   2.535 -0.5153 -0.7035  0.9090
  782MOL0     O 5443   6.837   1.192   2.429  0.0557  0.4497 -0.0651
  782MOL0     C 5444   6.981   1.136   2.448  0.6569  0.3856  0.0811
  782MOL0     C 5445   7.000   1.023   2.338  0.8670  0.0901 -0.6607
  782MOL0     C 5446   7.048   1.087   2.208  0.0513 -0.0453  0.3123
  782MOL0     C 5447   7.080   0.984   2.095 -0.2383 -0.6005 -0.9654
  782MOL0     C 5448   7.125   1.034   1.961 -0.4222 -0.0443 -0.7762
  782MOL0     C 5449   7.141   0.926   1.853 -0.6985  0.8672 -0.0883
  782MOL0     C 5450   7.217   0.983   1.727  0.7923  1.1874 -0.4257
  782MOL0     C 5451   7.267   0.854   1.652  0.0881  0.5899 -0.1849
  782MOL0     N 5452   7.337   0.875   1.528  0.1746  0.5867 -0.1037
  782MOL0     C 5453   7.446   0.815   1.480  0.3512 -0.1770  0.1394
  782MOL0     C 5454   7.481   0.878   1.362 -0.3638  0.1856 -0.6666
  782MOL0     C 5455   7.572   0.825   1.259  1.1493 -0.6684 -0.0470
  782MOL0     C 5456   7.524   0.877   1.118  0.2949 -0.1129 -0.6370
  782MOL0     C 5457   7.604   0.803   1.002 -0.0080 -0.1368  0.1250
  782MOL0     C 5458   7.566   0.852   0.862 -0.4480  0.1512  0.0564
  782MOL0     O 5459   7.424   0.820   0.856 -0.7606 -0.8134  0.3141
  782MOL0     C 5460   7.392   0.686   0.848 -0.1036 -0.9125  0.2808
  782MOL0     C 5461   7.452   0.593   0.766 -0.2092 -0.0291 -0.4085
  782MOL0     C 5462   7.397   0.463   0.762 -0.3678  0.3663  1.0407
  782MOL0     C 5463   7.281   0.438   0.834  0.6515  0.0334 -0.0446
  782MOL0     C 5464   7.232   0.290   0.859 -0.0872 -1.2602 -0.2476
  782MOL0     O 5465   7.318   0.193   0.831  0.4909 -0.0528  0.2969
  782MOL0     C 5466   7.289   0.065   0.844  1.2641  1.4542 -0.4511
  782MOL0     C 5467   7.368  -0.029   0.778  0.2270 -0.1753 -0.1774
  782MOL0     C 5468   7.350  -0.172   0.777  1.0132  0.0227 -0.1657
  782MOL0     C 5469   7.236  -0.225   0.850 -0.7681 -0.2715 -0.4501
  782MOL0     O 5470   7.208  -0.360   0.846  0.3071  0.5719  0.0446
  782MOL0     C 5471   7.242  -0.430   0.728 -0.5501 -0.4512  0.1188
  782MOL0     C 5472   7.141  -0.542   0.712  0.1804 -0.0323  0.3597
  782MOL0     C 5473   7.169  -0.623   0.584 -0.3553 -0.5375  0.0757
  782MOL0     C 5474   7.037  -0.696   0.558 -0.1223 -0.5301 -1.1225
  782MOL0     C 5475   7.049  -0.790   0.440  0.3786  1.1216  0.5984
  782MOL0     C 5476   7.034  -0.732   0.303  0.6005 -1.0719  1.3077
  782MOL0     C 5477   7.076  -0.821   0.188 -0.6794  0.2312 -0.6879
  782MOL0     C 5478   7.103  -0.755   0.061 -0.6306 -0.1013 -1.4617
  782MOL0    Cl 5479   6.960  -0.714  -0.031  0.3208 -0.0335  0.2487
  782MOL0     C 5480   7.152  -0.137   0.921  0.3500 -0.7992 -0.4350
  782MOL0     C 5481   7.177   0.002   0.920 -0.3852  0.8636 -0.3581
  782MOL0     O 5482   7.119   0.285   0.918 -0.7552 -0.7059  0.9029
  782MOL0     C 5483   7.201   0.545   0.885 -0.5509  0.5216 -0.3714
  782MOL0     C 5484   7.268   0.662   0.899  0.2468 -0.6553  0.7171
  782MOL0     N 5485   7.400   0.990   1.361 -0.2456  0.1798  0.4003
  782MOL0     N 5486   7.317   0.990   1.455 -0.4070 -0.1606  0.5933
  782MOL0     C 5487   6.758   1.254   2.644  0.3996  0.5154  0.0186
  782MOL0     C 5488   6.683   1.225   2.762 -0.1279  0.0545 -0.1109
  782MOL0     C 5489   6.498   1.056   3.118 -0.3404 -0.2703 -0.7220
  782MOL0     C 5490   6.401   0.956   3.107  0.2008 -0.0822 -0.3849
  782MOL0     C 5491   6.301   0.935   3.203 -0.4273  0.4542 -0.0291
  782MOL0     C 5492   6.308   1.012   3.323 -0.1154 -0.5350  1.4691
  782MOL0     O 5493   6.206   0.987   3.415  0.0525 -0.4274  0.1328
  782MOL0     C 5494   6.128   1.104   3.464 -1.6335  0.4739  0.6934
  782MOL0     C 5495   6.111   1.091   3.616 -0.7586 -0.1084  0.5680
  782MOL0     C 5496   6.033   1.198   3.691  0.2435  0.0805 -0.6483
  782MOL0     C 5497   5.920   1.268   3.607 -0.5543  1.0177 -0.6792
  782MOL0     C 5498   5.859   1.363   3.699  1.2314 -0.1346  0.6285
  782MOL0     C 5499   5.822   1.453   3.769 -0.0748  0.1607  0.3166
  782MOL0     C 5500   6.404   1.118   3.334  0.3971  0.4717  0.4582
  782MOL0     C 5501   6.504   1.136   3.240 -1.4042  0.6866  0.3847
  782MOL0     C 5502   6.616   1.235   3.263  0.2403  0.3287 -1.1582
  782MOL0     H 5503   6.582   0.913   2.689  2.8369 -1.1185  0.9129
  782MOL0     H 5504   6.715   0.960   2.468  2.8902  0.8383  1.2466
  782MOL0     H 5505   7.056   1.214   2.432  1.0561 -0.3057 -1.6596
  782MOL0     H 5506   6.998   1.095   2.548 -0.1569 -1.3673 -0.4635
  782MOL0     H 5507   6.906   0.967   2.334  2.0351 -1.8929 -2.7229
  782MOL0     H 5508   7.075   0.952   2.374  0.6723 -0.1091 -0.6472
  782MOL0     H 5509   7.133   1.153   2.227  0.2422  0.0970 -0.9527
  782MOL0     H 5510   6.967   1.152   2.175 -2.2783 -1.3916  2.9043
  782MOL0     H 5511   7.167   0.931   2.134  1.0383  2.4824  0.8363
  782MOL0     H 5512   6.992   0.921   2.084 -2.2253  1.5330  1.3540
  782MOL0     H 5513   7.056   1.112   1.928 -0.8905 -0.6246 -1.1817
  782MOL0     H 5514   7.221   1.088   1.963 -0.4058 -0.0228 -1.6907
  782MOL0     H 5515   7.201   0.842   1.889 -0.9732  1.4332  1.7762
  782MOL0     H 5516   7.060   0.862   1.816  0.4348 -1.2661  0.9309
  782MOL0     H 5517   7.303   1.039   1.764  3.1696 -2.2744 -0.2254
  782MOL0     H 5518   7.172   1.058   1.661  1.3245 -1.7900 -4.5024
  782MOL0     H 5519   7.333   0.804   1.723  3.9803  3.4650 -1.4180
  782MOL0     H 5520   7.176   0.796   1.635 -0.1666  0.5060  1.3134
  782MOL0     H 5521   7.502   0.729   1.517 -2.0342 -2.3443 -0.9139
  782MOL0     H 5522   7.673   0.856   1.286  0.6723  2.9376 -1.7812
  782MOL0     H 5523   7.568   0.716   1.251 -3.7024 -0.8024  1.0891
  782MOL0     H 5524   7.417   0.856   1.123  0.3318 -0.0712  0.7670
  782MOL0     H 5525   7.541   0.985   1.118 -0.4229  0.0855 -3.4172
  782MOL0     H 5526   7.585   0.695   1.005  0.9320 -0.4136 -1.9318
  782MOL0     H 5527   7.709   0.807   1.034 -0.2853  1.8108  0.9542
  782MOL0     H 5528   7.629   0.804   0.786  2.4087  2.5581  0.7092
  782MOL0     H 5529   7.580   0.959   0.845 -0.5367 -0.0814 -1.7330
  782MOL0     H 5530   7.527   0.641   0.704 -0.8333  1.7750  0.1498
  782MOL0     H 5531   7.464   0.385   0.727 -2.0364 -0.4387 -0.4662
  782MOL0     H 5532   7.449   0.020   0.724 -1.9464  2.6123 -1.1574
  782MOL0     H 5533   7.414  -0.248   0.735 -2.4449 -3.3590  0.1209
  782MOL0     H 5534   7.251  -0.376   0.633  0.5348 -1.6561 -0.4972
  782MOL0     H 5535   7.337  -0.480   0.749  0.6475  2.1829  1.4861
  782MOL0     H 5536   7.158  -0.608   0.797 -0.1765  1.6785  1.8196
  782MOL0     H 5537   7.039  -0.501   0.713 -0.2311 -0.9373  2.7861
  782MOL0     H 5538   7.194  -0.552   0.505 -2.8651  1.0621  0.6081
  782MOL0     H 5539   7.244  -0.701   0.601 -0.9841 -0.5548  3.5027
  782MOL0     H 5540   6.975  -0.616   0.518  0.6738  2.0273  2.3664
  782MOL0     H 5541   6.976  -0.731   0.642 -1.1418  0.6299 -1.3597
  782MOL0     H 5542   6.984  -0.876   0.458  0.9510  1.2092  3.7076
  782MOL0     H 5543   7.150  -0.833   0.440 -0.2963 -0.5101 -0.0926
  782MOL0     H 5544   6.930  -0.698   0.294  1.0507  0.2244  0.7509
  782MOL0     H 5545   7.101  -0.646   0.308 -1.9795  1.3363 -1.3440
  782MOL0     H 5546   6.999  -0.897   0.171 -1.0473 -0.6634  3.8868
  782MOL0     H 5547   7.169  -0.874   0.209 -1.2157  0.0631  1.5358
  782MOL0     H 5548   7.161  -0.664   0.078 -2.1445  0.5076  0.9121
  782MOL0     H 5549   7.162  -0.832   0.010 -1.0196 -1.4903  0.1158
  782MOL0     H 5550   7.083  -0.163   1.001  1.9265 -1.3597  0.7895
  782MOL0     H 5551   7.117   0.064   0.985 -0.1533  3.8655 -2.7644
  782MOL0     H 5552   7.119   0.530   0.954  3.5527 -1.7513  4.6213
  782MOL0     H 5553   7.231   0.755   0.940  0.5767 -0.7475  1.2257
  782MOL0     H 5554   6.793   1.357   2.639 -1.6048  1.2110 -0.5724
  782MOL0     H 5555   6.687   1.298   2.842 -0.2296  1.4688 -1.3641
  782MOL0     H 5556   6.392   0.894   3.018 -1.6916 -0.3037 -0.0901
  782MOL0     H 5557   6.225   0.858   3.199 -2.3930  2.2345  1.2714
  782MOL0     H 5558   6.030   1.111   3.416 -1.1742  0.2402 -0.3177
  782MOL0     H 5559   6.177   1.201   3.448  0.8959 -1.0810 -1.9971
  782MOL0     H 5560   6.205   1.081   3.671 -2.9600 -1.9663  4.3403
  782MOL0     H 5561   6.067   0.992   3.629  0.6037 -0.6971  0.8727
  782MOL0     H 5562   6.100   1.280   3.718  1.3841 -0.5363 -1.5170
  782MOL0     H 5563   5.986   1.150   3.777  2.3949  0.4892  0.8274
  782MOL0     H 5564   5.967   1.324   3.526 -2.9596  2.7766 -0.9659
  782MOL0     H 5565   5.846   1.194   3.575 -1.1900  1.9897 -1.4866
  782MOL0     H 5566   5.786   1.540   3.820  0.8491  0.5140  0.3941
  782MOL0     H 5567   6.412   1.169   3.430  2.3982  0.7980  0.1638
  782MOL0     H 5568   6.711   1.181   3.255  0.2568 -0.1954  1.6782
  782MOL0     H 5569   6.624   1.316   3.189  0.0244  0.5572 -0.9343
  782MOL0     H 5570   6.626   1.286   3.359 -2.0982 -5.1086  2.4912
  783MOL0     O 5571   8.908   2.374   1.583 -0.1054  0.5790  0.1293
  783MOL0     C 5572   9.008   2.407   1.646  0.2767 -0.0541 -0.1081
  783MOL0     O 5573   9.003   2.424   1.780  0.3594  0.1616 -1.0655
  783MOL0     C 5574   8.930   2.338   1.863 -1.5091 -0.2041  0.4558
  783MOL0     C 5575   8.877   2.395   1.982 -0.6027  0.1842  0.0353
  783MOL0     C 5576   8.806   2.312   2.073  0.2361 -0.6819 -0.2795
  783MOL0     C 5577   8.780   2.172   2.054 -1.0630  0.3562 -0.1771
  783MOL0     O 5578   8.720   2.092   2.151  0.1157 -0.0279  0.2551
  783MOL0     C 5579   8.726   1.954   2.146  0.5444 -0.1434 -1.3049
  783MOL0     C 5580   8.633   1.901   2.261  0.1930 -0.0641 -0.1191
  783MOL0     C 5581   8.561   1.770   2.226  1.5298  0.2708  0.2646
  783MOL0     C 5582   8.669   1.657   2.253  0.2043 -0.4048  0.6764
  783MOL0     C 5583   8.599   1.524   2.231 -0.1976  0.7676  1.2969
  783MOL0     C 5584   8.707   1.414   2.210 -0.0107 -0.0137 -0.8036
  783MOL0     C 5585   8.650   1.289   2.140 -0.6233  0.2547 -0.0093
  783MOL0     C 5586   8.524   1.240   2.208  0.6052 -0.6508  0.1224
  783MOL0     N 5587   8.552   1.215   2.347 -0.3163 -0.9888  0.1714
  783MOL0     C 5588   8.616   1.103   2.387 -0.8233  0.0158 -0.5879
  783MOL0     C 5589   8.599   1.107   2.523 -0.4343  0.8745 -0.3659
  783MOL0     C 5590   8.619   0.982   2.611  0.1813 -0.3776  0.6130
  783MOL0     C 5591   8.487   0.910   2.614 -0.3514 -0.3638 -0.0333
  783MOL0     C 5592   8.474   0.773   2.693 -0.3261 -0.1979 -0.2549
  783MOL0     C 5593   8.553   0.761   2.830 -0.0290  0.3645 -0.5215
  783MOL0     O 5594   8.513   0.633   2.883 -0.7041  0.0658 -0.9805
  783MOL0     C 5595   8.460   0.640   3.013 -0.1250 -0.9678 -0.5216
  783MOL0     C 5596   8.486   0.743   3.100 -0.3960  0.3975 -0.6320
  783MOL0     C 5597   8.420   0.749   3.221  0.9152 -0.9014  0.7830
  783MOL0     C 5598   8.323   0.649   3.268 -0.6133 -0.1503 -0.4449
  783MOL0     C 5599   8.231   0.652   3.390  0.6774  0.0468  0.0596
  783MOL0     O 5600   8.217   0.774   3.447 -1.1720  0.1151  0.1965
  783MOL0     C 5601   8.110   0.806   3.518 -0.4016  0.1181  0.4349
  783MOL0     C 5602   8.058   0.725   3.619 -1.0872  0.0388  0.5989
  783MOL0     C 5603   7.957   0.776   3.703  0.2844 -0.6483 -0.4687
  783MOL0     C 5604   7.905   0.907   3.679  0.3171  0.7351  0.1368
  783MOL0     O 5605   7.799   0.948   3.752 -0.7651 -0.4661 -0.5630
  783MOL0     C 5606   7.757   1.086   3.737  0.9027 -0.3432 -0.6438
  783MOL0     C 5607   7.840   1.190   3.820  0.0672 -0.8302 -0.1651
  783MOL0     C 5608   7.806   1.167   3.960 -0.9248 -0.1600  0.0405
  783MOL0     C 5609   7.871   1.278   4.044  0.1014  0.1776 -0.7062
  783MOL0     C 5610   7.911   1.241   4.189 -0.0268  0.1636  0.7272
  783MOL0     C 5611   8.016   1.325   4.240  0.3181 -0.0548 -0.3995
  783MOL0     C 5612   7.969   1.466   4.286  0.5448 -0.4876 -0.3748
  783MOL0     C 5613   8.063   1.582   4.236 -0.3576  0.9804  0.4234
  783MOL0    Cl 5614   8.229   1.572   4.305  0.4669  0.2100 -0.1348
  783MOL0     C 5615   7.956   0.981   3.569  0.8285 -0.3492 -0.2039
  783MOL0     C 5616   8.060   0.930   3.489 -0.2379 -0.3224 -0.6824
  783MOL0     O 5617   8.177   0.539   3.416  0.3170 -0.3907 -0.1800
  783MOL0     C 5618   8.317   0.536   3.180 -0.6132  0.8130 -0.2149
  783MOL0     C 5619   8.390   0.532   3.068 -0.1785 -0.0234 -1.0967
  783MOL0     N 5620   8.533   1.228   2.558 -0.8402  0.7637 -0.2362
  783MOL0     N 5621   8.510   1.293   2.449 -0.8552  0.1781 -0.1112
  783MOL0     C 5622   8.818   2.127   1.930 -0.2572 -0.0670 -0.2102
  783MOL0     C 5623   8.896   2.208   1.841 -0.0920 -0.2776  0.2233
  783MOL0     C 5624   9.135   2.431   1.579 -0.3626 -0.5491 -0.1733
  783MOL0     C 5625   9.245   2.463   1.656  0.1918  0.1220 -1.2296
  783MOL0     C 5626   9.365   2.494   1.601 -0.2913  0.8770 -0.0836
  783MOL0     C 5627   9.394   2.498   1.470 -1.0909  0.4380  1.2803
  783MOL0     O 5628   9.515   2.539   1.420  0.1949  0.8299 -0.6057
  783MOL0     C 5629   9.628   2.576   1.501  0.9439  0.1680  0.0195
  783MOL0     C 5630   9.750   2.602   1.404  0.7760  0.5560 -0.1745
  783MOL0     C 5631   9.882   2.653   1.473  1.0568 -0.3126  0.0512
  783MOL0     C 5632   9.874   2.794   1.536 -0.4317  0.4195  0.1788
  783MOL0     C 5633   9.934   2.905   1.461 -0.0042  0.6277  0.3827
  783MOL0     C 5634   9.997   2.981   1.395 -0.7013 -0.3112  0.2715
  783MOL0     C 5635   9.285   2.483   1.391  0.2829 -0.1243  0.1495
  783MOL0     C 5636   9.154   2.449   1.439 -0.0965 -1.1543 -0.4886
  783MOL0     C 5637   9.043   2.438   1.344 -0.4800  0.3938  0.8148
  783MOL0     H 5638   8.887   2.498   2.012  2.2899 -0.0151  0.0559
  783MOL0     H 5639   8.777   2.350   2.170  1.3292 -3.6282  1.3254
  783MOL0     H 5640   8.683   1.929   2.049 -0.5555 -0.3724 -0.7675
  783MOL0     H 5641   8.827   1.911   2.145  0.5089 -0.3813  0.6258
  783MOL0     H 5642   8.546   1.965   2.279 -0.0890 -1.0245  2.4014
  783MOL0     H 5643   8.693   1.901   2.353  1.3333 -0.7114 -0.8362
  783MOL0     H 5644   8.521   1.771   2.124 -0.8108  1.4779  1.1059
  783MOL0     H 5645   8.482   1.752   2.301  2.0064  3.2578  1.6076
  783MOL0     H 5646   8.749   1.666   2.180  0.2723  1.5227  0.9233
  783MOL0     H 5647   8.707   1.677   2.354 -1.2187  0.7754  1.0225
  783MOL0     H 5648   8.528   1.503   2.311 -0.5612  2.0688  1.3236
  783MOL0     H 5649   8.540   1.515   2.139 -1.6110  1.4873  2.0989
  783MOL0     H 5650   8.796   1.458   2.163 -1.0022 -0.8314 -3.6392
  783MOL0     H 5651   8.758   1.379   2.300  2.1118  0.6381 -1.6759
  783MOL0     H 5652   8.733   1.219   2.128  0.6678  1.8391 -0.6195
  783MOL0     H 5653   8.631   1.305   2.034 -1.9476  2.0190  0.4405
  783MOL0     H 5654   8.446   1.316   2.207 -0.5391 -1.6989  2.4113
  783MOL0     H 5655   8.494   1.149   2.156 -2.8793  2.9423 -5.1672
  783MOL0     H 5656   8.639   1.014   2.329  0.3414  1.0528 -1.7771
  783MOL0     H 5657   8.707   0.927   2.574 -0.0458  0.2531 -0.9732
  783MOL0     H 5658   8.636   1.018   2.712 -1.0413  4.2730 -0.6072
  783MOL0     H 5659   8.415   0.975   2.665 -2.0005 -1.3766 -0.9838
  783MOL0     H 5660   8.448   0.903   2.512  0.3809 -1.2680 -0.2681
  783MOL0     H 5661   8.515   0.698   2.624 -0.7956  1.4541 -2.4329
  783MOL0     H 5662   8.368   0.755   2.711 -0.0962  1.3477  3.8375
  783MOL0     H 5663   8.539   0.850   2.892 -2.6692 -1.1967  1.3323
  783MOL0     H 5664   8.661   0.755   2.811  0.0163 -1.7887  0.1154
  783MOL0     H 5665   8.569   0.811   3.083  0.4471 -0.7894 -1.4374
  783MOL0     H 5666   8.432   0.836   3.284 -1.0846 -1.6240  2.2486
  783MOL0     H 5667   8.096   0.624   3.632  0.7134  0.5986 -0.0656
  783MOL0     H 5668   7.921   0.718   3.788 -2.3267 -2.6647 -2.7716
  783MOL0     H 5669   7.757   1.116   3.632  4.0587 -0.6581 -0.8042
  783MOL0     H 5670   7.658   1.085   3.785  1.9313 -2.3496  1.7075
  783MOL0     H 5671   7.949   1.192   3.813  0.2206  2.4061  1.3771
  783MOL0     H 5672   7.810   1.291   3.789  1.4546 -0.2235  0.3692
  783MOL0     H 5673   7.701   1.158   3.988 -1.2238 -0.4449 -1.1323
  783MOL0     H 5674   7.847   1.067   3.979 -0.9055 -0.2256 -0.3413
  783MOL0     H 5675   7.806   1.364   4.058 -1.2467 -0.9752  0.3565
  783MOL0     H 5676   7.960   1.328   4.003  1.6906  1.9284  4.1488
  783MOL0     H 5677   7.949   1.138   4.182  1.4290  0.6038  1.6704
  783MOL0     H 5678   7.829   1.241   4.262 -0.7768 -2.0085 -0.0374
  783MOL0     H 5679   8.065   1.282   4.328 -0.3135 -1.9432 -0.9382
  783MOL0     H 5680   8.105   1.337   4.177 -0.8483 -0.0380 -2.0905
  783MOL0     H 5681   7.958   1.472   4.395 -0.0147  2.0305 -0.5037
  783MOL0     H 5682   7.872   1.491   4.244  1.1167 -0.7105 -1.8918
  783MOL0     H 5683   8.067   1.583   4.127 -1.3219  1.6367  0.3804
  783MOL0     H 5684   8.020   1.678   4.265  1.7480  2.4316 -1.0049
  783MOL0     H 5685   7.926   1.083   3.545 -0.3191 -1.2240 -2.9529
  783MOL0     H 5686   8.109   0.980   3.406  1.0832  0.2999  0.4409
  783MOL0     H 5687   8.265   0.441   3.191  0.8326  0.1333  1.2256
  783MOL0     H 5688   8.380   0.440   3.013  2.6248 -1.1783  0.1140
  783MOL0     H 5689   8.795   2.027   1.896 -3.0250  0.8260 -1.2422
  783MOL0     H 5690   8.918   2.160   1.746 -4.4722  0.8984 -1.6630
  783MOL0     H 5691   9.222   2.477   1.761 -1.7420 -1.6745 -1.3457
  783MOL0     H 5692   9.439   2.529   1.673  1.6591  1.8705 -2.4351
  783MOL0     H 5693   9.657   2.493   1.565  0.2039 -1.7902 -2.0419
  783MOL0     H 5694   9.609   2.661   1.567  0.1564  0.5916 -0.7328
  783MOL0     H 5695   9.711   2.682   1.341 -0.8975 -2.3608 -3.1531
  783MOL0     H 5696   9.751   2.501   1.361 -3.2689 -0.4281  1.5683
  783MOL0     H 5697   9.966   2.656   1.404 -0.6891  0.4285 -2.1447
  783MOL0     H 5698   9.913   2.579   1.548 -0.0887 -1.7493 -0.8347
  783MOL0     H 5699   9.770   2.829   1.542  0.3122  2.8399  0.0586
  783MOL0     H 5700   9.914   2.811   1.637 -4.2671  0.5262  1.8756
  783MOL0     H 5701  10.056   3.056   1.346 -1.3261 -1.1924 -1.9087
  783MOL0     H 5702   9.308   2.517   1.290  0.4144  0.7258  0.4553
  783MOL0     H 5703   8.989   2.344   1.330  0.7973 -0.3142  0.5043
  783MOL0     H 5704   8.966   2.513   1.363  0.5311  2.0112 -1.0986
  783MOL0     H 5705   9.092   2.460   1.249 -1.5279 -0.5535  0.0269
  784MOL0     O 5706   7.414   2.539   5.915  0.0001 -0.0992 -0.0633
  784MOL0     C 5707   7.437   2.652   5.882 -0.7383  0.7833 -0.0831
  784MOL0     O 5708   7.526   2.733   5.943 -0.1183 -0.1745 -0.3975
  784MOL0     C 5709   7.642   2.675   5.997 -0.4399 -0.4520  0.1805
  784MOL0     C 5710   7.637   2.630   6.131  0.1459 -0.0875 -0.2988
  784MOL0     C 5711   7.748   2.571   6.197  0.5926  0.6404 -1.0114
  784MOL0     C 5712   7.877   2.581   6.137  0.7881  0.2988  0.6197
  784MOL0     O 5713   7.990   2.523   6.187 -0.5777 -0.3938 -0.1133
  784MOL0     C 5714   7.980   2.409   6.274 -0.2511 -0.1830  0.4545
  784MOL0     C 5715   7.955   2.285   6.185  0.0593  0.1744 -0.3547
  784MOL0     C 5716   8.087   2.237   6.121  1.3182  0.0471  0.0027
  784MOL0     C 5717   8.131   2.327   6.010 -0.6034  0.2398 -0.2421
  784MOL0     C 5718   8.262   2.280   5.942 -0.6424  0.7158 -0.2414
  784MOL0     C 5719   8.355   2.391   5.907 -0.3814  0.1585  0.7889
  784MOL0     C 5720   8.457   2.358   5.793 -0.0440  0.1268  0.5312
  784MOL0     C 5721   8.562   2.247   5.840 -0.1774  0.1641  0.4776
  784MOL0     N 5722   8.661   2.250   5.729  0.2085  0.0859 -0.9650
  784MOL0     C 5723   8.681   2.142   5.641 -0.9669 -0.2260 -0.0402
  784MOL0     C 5724   8.767   2.194   5.555 -0.4258  0.0657 -0.4654
  784MOL0     C 5725   8.823   2.124   5.432  0.9756  0.5942 -0.6537
  784MOL0     C 5726   8.794   2.184   5.289 -0.0156  0.0348  0.0172
  784MOL0     C 5727   8.647   2.246   5.270 -0.9665 -0.3110 -0.6516
  784MOL0     C 5728   8.560   2.151   5.197 -0.5760  0.0615  0.6036
  784MOL0     O 5729   8.554   2.024   5.253  0.4941  0.4762  0.2897
  784MOL0     C 5730   8.484   1.992   5.372  0.6977 -0.2842 -0.0244
  784MOL0     C 5731   8.498   1.862   5.414 -0.0171 -0.1089  0.0387
  784MOL0     C 5732   8.425   1.826   5.536  0.5595 -0.6409  0.9495
  784MOL0     C 5733   8.336   1.918   5.596  0.1900 -0.3087  0.7379
  784MOL0     C 5734   8.248   1.871   5.713  0.0383  0.0601 -0.6636
  784MOL0     O 5735   8.254   1.753   5.776  0.2890 -0.3442  0.0076
  784MOL0     C 5736   8.167   1.719   5.878 -0.5033  0.4352  0.9293
  784MOL0     C 5737   8.126   1.580   5.908 -1.2732  0.2885 -0.4889
  784MOL0     C 5738   8.037   1.560   6.023 -0.2686 -0.5799  0.6845
  784MOL0     C 5739   7.992   1.667   6.111 -0.2017  0.8600 -0.4154
  784MOL0     O 5740   7.922   1.622   6.217  0.3136 -0.4150 -0.2267
  784MOL0     C 5741   7.878   1.710   6.319 -1.0026 -0.3434  0.4668
  784MOL0     C 5742   7.985   1.725   6.419 -0.0184  0.4178  0.5925
  784MOL0     C 5743   7.958   1.834   6.522  0.2423 -0.1657 -1.1080
  784MOL0     C 5744   8.068   1.944   6.530 -0.4290 -0.9195 -1.4017
  784MOL0     C 5745   8.092   2.005   6.667 -0.7356 -0.3633 -0.4988
  784MOL0     C 5746   7.995   2.109   6.712 -0.2809  0.1118 -0.2236
  784MOL0     C 5747   8.004   2.150   6.861 -0.1966  1.0802 -0.1301
  784MOL0     C 5748   8.098   2.268   6.896  1.2097  0.0256  0.9173
  784MOL0    Cl 5749   8.264   2.237   6.838  0.1096  0.3170  0.6817
  784MOL0     C 5750   8.033   1.790   6.074 -0.0988 -0.3366  0.8016
  784MOL0     C 5751   8.119   1.821   5.966  0.1616 -0.4636  0.1248
  784MOL0     O 5752   8.155   1.953   5.721 -0.6212 -0.0497  0.1063
  784MOL0     C 5753   8.325   2.047   5.535  0.4849  1.0422 -0.8385
  784MOL0     C 5754   8.391   2.085   5.424 -0.7419  0.0205 -0.4414
  784MOL0     N 5755   8.794   2.324   5.581 -0.2506 -0.2823 -0.1348
  784MOL0     N 5756   8.726   2.359   5.687  0.0864  0.0889  0.8384
  784MOL0     C 5757   7.883   2.623   6.001 -0.1416 -0.8625  0.2592
  784MOL0     C 5758   7.771   2.667   5.933 -0.1023  0.1948  0.0046
  784MOL0     C 5759   7.350   2.707   5.777 -0.0864  0.1053 -0.7154
  784MOL0     C 5760   7.333   2.850   5.775 -0.5382  0.0284  0.2025
  784MOL0     C 5761   7.257   2.908   5.677  0.6716 -1.1885  0.7182
  784MOL0     C 5762   7.194   2.838   5.576  0.3230  0.2958  0.4330
  784MOL0     O 5763   7.096   2.892   5.499 -0.4315 -0.1154  0.1840
  784MOL0     C 5764   7.155   2.964   5.377 -0.2293 -0.8009  0.1531
  784MOL0     C 5765   7.114   2.895   5.251  0.2639 -0.9456 -0.1221
  784MOL0     C 5766   7.208   2.776   5.210 -0.2308 -0.0309  0.8771
  784MOL0     C 5767   7.147   2.714   5.077  0.4718  0.0155 -0.1446
  784MOL0     C 5768   7.238   2.606   5.039  0.1967 -0.2693  0.4819
  784MOL0     C 5769   7.321   2.520   5.010  0.2918 -0.5245 -0.1053
  784MOL0     C 5770   7.199   2.696   5.584  0.5249  1.9858 -0.1998
  784MOL0     C 5771   7.286   2.637   5.672  0.1737  0.2026 -0.2857
  784MOL0     C 5772   7.306   2.486   5.656 -0.0784 -0.2676 -0.2059
  784MOL0     H 5773   7.538   2.625   6.176 -0.0910 -0.8256 -0.8723
  784MOL0     H 5774   7.738   2.524   6.294  0.5284  2.0852 -0.3018
  784MOL0     H 5775   8.073   2.399   6.330 -1.3513  3.6763  3.4383
  784MOL0     H 5776   7.906   2.418   6.354 -1.9704 -0.5687 -1.0211
  784MOL0     H 5777   7.875   2.299   6.112  1.5442  0.1890 -2.0401
  784MOL0     H 5778   7.909   2.210   6.251  0.4311  1.1496  1.0734
  784MOL0     H 5779   8.067   2.138   6.079  0.1783 -0.1502  0.9704
  784MOL0     H 5780   8.159   2.235   6.203  0.7780  4.6322  0.8528
  784MOL0     H 5781   8.054   2.342   5.934 -2.3939 -0.4984  1.3226
  784MOL0     H 5782   8.150   2.422   6.061 -1.9620  1.0135 -1.1202
  784MOL0     H 5783   8.310   2.204   6.005 -3.4743 -1.6709 -0.7077
  784MOL0     H 5784   8.243   2.221   5.851  3.0145  2.7915 -2.6056
  784MOL0     H 5785   8.289   2.471   5.871 -0.2071  0.3960  0.9973
  784MOL0     H 5786   8.412   2.423   5.994  0.8169 -0.3931  0.2240
  784MOL0     H 5787   8.498   2.457   5.773  1.6946 -1.0558 -2.4196
  784MOL0     H 5788   8.413   2.323   5.699 -0.0687 -1.0533  0.9697
  784MOL0     H 5789   8.605   2.266   5.939  0.7708 -0.7852  0.2770
  784MOL0     H 5790   8.504   2.154   5.840 -2.7846  1.5845 -2.6401
  784MOL0     H 5791   8.646   2.039   5.647 -0.5140 -0.3389  0.9992
  784MOL0     H 5792   8.931   2.108   5.439  1.9630  4.5514 -3.1554
  784MOL0     H 5793   8.784   2.023   5.443 -0.0903  1.2176  2.1920
  784MOL0     H 5794   8.854   2.275   5.291 -0.1921  0.1904 -1.0946
  784MOL0     H 5795   8.820   2.112   5.211 -0.6395 -0.0442 -0.1303
  784MOL0     H 5796   8.665   2.327   5.199  2.1303  0.4765  0.8472
  784MOL0     H 5797   8.605   2.287   5.362  1.7304 -1.6373  1.3221
  784MOL0     H 5798   8.586   2.143   5.092 -3.8716  2.8625 -0.6293
  784MOL0     H 5799   8.456   2.183   5.184 -1.4440 -2.2397  1.3668
  784MOL0     H 5800   8.563   1.802   5.351  2.0683 -1.2677  3.0453
  784MOL0     H 5801   8.436   1.729   5.582 -0.2205 -1.5732 -0.7188
  784MOL0     H 5802   8.168   1.503   5.843  3.0424  0.8002  1.3534
  784MOL0     H 5803   8.011   1.462   6.062  1.4420  0.0441  3.7819
  784MOL0     H 5804   7.835   1.804   6.282 -1.8048 -0.4344  1.1381
  784MOL0     H 5805   7.789   1.660   6.359 -2.1459  1.2140 -0.0473
  784MOL0     H 5806   7.993   1.635   6.480  0.8620  1.0551  1.4415
  784MOL0     H 5807   8.079   1.750   6.369  0.2424  0.8744  1.2937
  784MOL0     H 5808   7.862   1.883   6.500 -0.9337 -1.4277  0.8353
  784MOL0     H 5809   7.961   1.785   6.620  2.1466  0.2930 -0.9113
  784MOL0     H 5810   8.046   2.035   6.475 -0.0845  2.2615  3.1623
  784MOL0     H 5811   8.163   1.911   6.488  0.6663  0.7324 -0.3250
  784MOL0     H 5812   8.189   2.056   6.661 -0.3827 -0.6682  1.6241
  784MOL0     H 5813   8.097   1.917   6.733  2.7623 -0.0668 -0.1560
  784MOL0     H 5814   7.997   2.196   6.645  1.2171  0.0411 -0.2959
  784MOL0     H 5815   7.894   2.068   6.697 -0.0073 -0.9202  0.6926
  784MOL0     H 5816   8.039   2.059   6.911 -2.7220  0.3333  0.4030
  784MOL0     H 5817   7.903   2.171   6.898 -1.4883 -1.0359 -2.1904
  784MOL0     H 5818   8.055   2.355   6.845 -6.0417 -3.0036  0.6086
  784MOL0     H 5819   8.089   2.291   7.002 -0.8819 -1.0575  1.0129
  784MOL0     H 5820   8.005   1.876   6.134  0.3983  0.9775 -0.7703
  784MOL0     H 5821   8.158   1.922   5.966  0.0713 -0.3643  2.6000
  784MOL0     H 5822   8.267   2.125   5.584 -0.0832 -0.0786  0.3076
  784MOL0     H 5823   8.373   2.186   5.387  0.6453  1.0622  1.5237
  784MOL0     H 5824   7.976   2.625   5.945 -0.1458 -0.0108  0.2738
  784MOL0     H 5825   7.797   2.690   5.830  1.8895 -4.6898 -0.8556
  784MOL0     H 5826   7.362   2.910   5.861 -2.0207 -3.1278  3.1128
  784MOL0     H 5827   7.244   3.013   5.699 -1.0527 -1.2796  0.3209
  784MOL0     H 5828   7.264   2.963   5.383 -0.2355  0.4231  0.7253
  784MOL0     H 5829   7.126   3.069   5.366  1.2136 -0.6054 -2.5986
  784MOL0     H 5830   7.105   2.971   5.173  2.9393 -0.4762 -0.0845
  784MOL0     H 5831   7.014   2.854   5.264 -1.3453  1.7812 -2.5758
  784MOL0     H 5832   7.198   2.701   5.289  1.2741  0.3569  1.4724
  784MOL0     H 5833   7.310   2.799   5.178 -0.0701 -1.2464  0.4617
  784MOL0     H 5834   7.043   2.681   5.085  0.7519 -0.8020  0.3542
  784MOL0     H 5835   7.163   2.787   4.998  1.6137  0.1498  0.1872
  784MOL0     H 5836   7.401   2.449   5.004  0.8745  0.0335  0.7575
  784MOL0     H 5837   7.136   2.650   5.508  3.5476  1.1375 -2.3783
  784MOL0     H 5838   7.269   2.434   5.745  0.0060 -1.4372 -0.8315
  784MOL0     H 5839   7.256   2.453   5.565 -3.3630  0.1198  1.3072
  784MOL0     H 5840   7.411   2.463   5.636 -0.0099  1.6226 -2.4770
  785MOL0     O 5841   5.679   7.841  10.870  0.3354  0.0538 -0.5796
  785MOL0     C 5842   5.565   7.869  10.900 -0.0238 -0.1531 -0.3252
  785MOL0     O 5843   5.497   7.995  10.884 -0.3742 -0.4334  0.3562
  785MOL0     C 5844   5.553   8.076  10.792  0.1218  0.6855  1.1455
  785MOL0     C 5845   5.554   8.211  10.819 -0.7707 -0.4668 -0.3156
  785MOL0     C 5846   5.584   8.307  10.725 -1.1022 -0.2572 -0.2586
  785MOL0     C 5847   5.619   8.266  10.600 -0.3341 -0.4340  0.5672
  785MOL0     O 5848   5.659   8.370  10.517  0.8243  0.1680 -0.4033
  785MOL0     C 5849   5.718   8.353  10.386 -0.6727 -1.2458  0.1082
  785MOL0     C 5850   5.867   8.348  10.402 -0.6369 -0.0901  0.5462
  785MOL0     C 5851   5.938   8.446  10.297 -0.7924 -0.8197 -0.3444
  785MOL0     C 5852   6.080   8.477  10.344  0.0997  0.3675  0.5727
  785MOL0     C 5853   6.197   8.502  10.235 -0.5740 -0.5025  0.1620
  785MOL0     C 5854   6.167   8.636  10.158  0.8259 -0.5900  0.5819
  785MOL0     C 5855   6.097   8.616  10.021  0.1359  0.5915  0.4713
  785MOL0     C 5856   6.191   8.545   9.920 -0.0213  0.4436 -0.8093
  785MOL0     N 5857   6.134   8.545   9.779 -0.3323 -0.4247 -0.4611
  785MOL0     C 5858   6.082   8.649   9.706  0.5625  0.4825 -0.3044
  785MOL0     C 5859   6.062   8.597   9.581 -1.0088  0.2402  0.7771
  785MOL0     C 5860   5.996   8.674   9.471 -0.4393  0.0788 -0.4356
  785MOL0     C 5861   6.084   8.703   9.361 -0.1726 -0.5366  0.3688
  785MOL0     C 5862   6.201   8.797   9.405  0.3524 -0.1414 -0.3939
  785MOL0     C 5863   6.254   8.870   9.280 -0.0699 -0.7173 -0.0392
  785MOL0     O 5864   6.162   8.964   9.229  0.4195 -0.9944  0.5716
  785MOL0     C 5865   6.186   9.007   9.104  0.5897  0.0057 -0.2272
  785MOL0     C 5866   6.261   9.118   9.071  0.3506 -0.5646 -0.5756
  785MOL0     C 5867   6.273   9.169   8.938 -0.1820  0.4105 -0.4432
  785MOL0     C 5868   6.200   9.113   8.838  0.5799  0.3650 -1.1849
  785MOL0     C 5869   6.218   9.145   8.693  0.0751 -0.6086  0.4648
  785MOL0     O 5870   6.308   9.241   8.663  0.0310 -0.3821 -0.9241
  785MOL0     C 5871   6.308   9.312   8.554 -0.1938 -0.2541  0.0128
  785MOL0     C 5872   6.300   9.449   8.563 -0.5707 -0.2621 -0.5789
  785MOL0     C 5873   6.300   9.528   8.450  0.1674  0.1119  0.8739
  785MOL0     C 5874   6.307   9.478   8.320  0.1858  0.4085 -0.0988
  785MOL0     O 5875   6.291   9.558   8.205 -0.7470 -0.3660  0.1413
  785MOL0     C 5876   6.329   9.501   8.076  0.9939 -0.2012  0.7054
  785MOL0     C 5877   6.333   9.605   7.965 -0.1882  0.4995  0.6212
  785MOL0     C 5878   6.385   9.546   7.842  0.2739  0.9396  0.2079
  785MOL0     C 5879   6.411   9.648   7.722  0.5895  0.9019  0.0086
  785MOL0     C 5880   6.561   9.678   7.684 -0.1137  1.0676 -0.5875
  785MOL0     C 5881   6.625   9.727   7.817  1.0268 -0.3134  0.8620
  785MOL0     C 5882   6.764   9.801   7.783  0.1617 -0.2166 -0.0260
  785MOL0     C 5883   6.873   9.708   7.712 -0.5561 -0.4696 -1.0148
  785MOL0    Cl 5884   7.032   9.791   7.704  0.3109  0.1937  0.2669
  785MOL0     C 5885   6.302   9.332   8.312  0.2113  0.4238 -0.2523
  785MOL0     C 5886   6.305   9.257   8.427  0.5743  0.0431  0.1059
  785MOL0     O 5887   6.144   9.097   8.616  0.2885  0.0603  0.3268
  785MOL0     C 5888   6.108   9.014   8.878  0.1330  0.2337  0.5518
  785MOL0     C 5889   6.103   8.960   9.002 -0.3500 -0.0269 -0.6810
  785MOL0     N 5890   6.134   8.480   9.567 -0.0693 -0.1737  0.3901
  785MOL0     N 5891   6.175   8.450   9.685 -0.4286  0.1427  0.3489
  785MOL0     C 5892   5.616   8.127  10.560 -0.6966 -0.8569 -1.3682
  785MOL0     C 5893   5.578   8.037  10.657 -0.0694 -1.0491  0.5015
  785MOL0     C 5894   5.481   7.772  10.974  0.2681  0.4608 -1.2205
  785MOL0     C 5895   5.443   7.662  10.903 -0.2353  0.6716 -0.2164
  785MOL0     C 5896   5.368   7.563  10.971 -0.0655 -0.2655 -0.8916
  785MOL0     C 5897   5.306   7.585  11.097 -0.4115 -0.1678 -0.4043
  785MOL0     O 5898   5.231   7.494  11.163 -0.3611  0.4375  0.0570
  785MOL0     C 5899   5.198   7.366  11.095 -0.2667 -0.0524 -0.3614
  785MOL0     C 5900   5.121   7.261  11.180  0.0506 -0.5809 -0.5071
  785MOL0     C 5901   4.973   7.319  11.222 -0.8286  0.1434  0.4586
  785MOL0     C 5902   4.882   7.198  11.249  0.7742 -1.1837 -0.3086
  785MOL0     C 5903   4.747   7.249  11.294 -0.4923  0.2350  0.2164
  785MOL0     C 5904   4.642   7.283  11.337 -0.2194 -0.8902 -0.3462
  785MOL0     C 5905   5.344   7.708  11.162 -0.3388 -0.4980  0.3234
  785MOL0     C 5906   5.432   7.798  11.104 -0.0627 -0.1276 -0.1820
  785MOL0     C 5907   5.481   7.907  11.187 -0.4113 -0.1040  0.0491
  785MOL0     H 5908   5.525   8.238  10.920 -4.8825  3.1846 -2.1288
  785MOL0     H 5909   5.583   8.411  10.757  1.2772 -0.2648  0.0073
  785MOL0     H 5910   5.671   8.263  10.346 -0.4238 -1.4544  0.2768
  785MOL0     H 5911   5.703   8.440  10.323  1.2977  0.4564  1.8186
  785MOL0     H 5912   5.906   8.246  10.391  0.2908  0.2641  0.4839
  785MOL0     H 5913   5.895   8.380  10.502  0.4128  2.5939 -0.5234
  785MOL0     H 5914   5.874   8.534  10.285 -1.5826 -0.9051  2.5240
  785MOL0     H 5915   5.941   8.393  10.201 -0.3669 -1.8223  0.2086
  785MOL0     H 5916   6.078   8.562  10.414  3.8198 -2.0703  4.1062
  785MOL0     H 5917   6.105   8.382  10.392  0.3057 -0.3323 -0.8747
  785MOL0     H 5918   6.298   8.502  10.277 -0.6613 -0.7557  0.3752
  785MOL0     H 5919   6.189   8.410  10.176 -2.3121 -0.5175  0.3745
  785MOL0     H 5920   6.103   8.686  10.232  0.3085 -3.2715  2.0743
  785MOL0     H 5921   6.257   8.698  10.145 -1.3532  3.0869  1.5208
  785MOL0     H 5922   6.073   8.716   9.986 -1.9823 -0.3481 -0.9467
  785MOL0     H 5923   6.001   8.565  10.028 -0.3430  1.3645 -0.2490
  785MOL0     H 5924   6.287   8.595   9.904  0.7995 -0.7303  0.3085
  785MOL0     H 5925   6.208   8.444   9.958  3.0004  1.9575  2.4454
  785MOL0     H 5926   6.031   8.734   9.750 -1.0465  0.6385 -2.3098
  785MOL0     H 5927   5.908   8.620   9.435 -0.0126  0.5095 -2.2246
  785MOL0     H 5928   5.959   8.769   9.511 -0.3509 -0.2043  0.3378
  785MOL0     H 5929   6.128   8.616   9.310 -2.0466 -2.1124  1.2807
  785MOL0     H 5930   6.030   8.762   9.286  0.5374 -3.3238 -2.5800
  785MOL0     H 5931   6.281   8.746   9.460 -0.7911  0.4642  1.9533
  785MOL0     H 5932   6.157   8.875   9.468 -4.3343 -3.6602  1.3379
  785MOL0     H 5933   6.267   8.795   9.201 -1.3794 -0.5131 -0.4709
  785MOL0     H 5934   6.346   8.919   9.314 -1.2176  0.8289  0.9746
  785MOL0     H 5935   6.312   9.181   9.143 -0.1893  3.1087 -3.1710
  785MOL0     H 5936   6.332   9.259   8.930 -2.9541  2.7015  2.4024
  785MOL0     H 5937   6.293   9.498   8.659  2.7001 -0.5634 -0.0908
  785MOL0     H 5938   6.304   9.636   8.466  3.8784  0.1039  0.8866
  785MOL0     H 5939   6.423   9.446   8.077 -1.2234 -4.4258  2.6304
  785MOL0     H 5940   6.256   9.428   8.042 -0.0781  1.5918 -1.0576
  785MOL0     H 5941   6.230   9.641   7.955  0.5164  1.9919 -2.0647
  785MOL0     H 5942   6.408   9.682   7.984  0.7186  0.3263 -1.9290
  785MOL0     H 5943   6.481   9.502   7.872  0.7592 -1.4977 -4.0592
  785MOL0     H 5944   6.325   9.469   7.793  2.6394  0.3039 -1.9353
  785MOL0     H 5945   6.372   9.746   7.751 -0.6683  0.0715  1.2469
  785MOL0     H 5946   6.357   9.610   7.635  0.3682 -0.5938  0.7679
  785MOL0     H 5947   6.564   9.752   7.603  2.1728 -2.0989 -3.6673
  785MOL0     H 5948   6.615   9.594   7.640 -1.3013  0.1457 -0.3416
  785MOL0     H 5949   6.554   9.787   7.875 -1.7634 -1.9155 -0.6568
  785MOL0     H 5950   6.642   9.634   7.871 -1.2777 -1.3402 -0.0508
  785MOL0     H 5951   6.803   9.836   7.878  1.5620  4.1828 -1.9859
  785MOL0     H 5952   6.749   9.882   7.712 -2.2147 -2.8527 -2.8430
  785MOL0     H 5953   6.890   9.622   7.777  1.5791  1.5299  1.3255
  785MOL0     H 5954   6.838   9.685   7.611  0.6195 -0.5963 -1.4106
  785MOL0     H 5955   6.296   9.279   8.217  3.0885  0.2981 -0.4497
  785MOL0     H 5956   6.306   9.148   8.423 -2.3267 -0.1387  1.5280
  785MOL0     H 5957   6.041   8.970   8.805  1.8736  1.6189 -2.0738
  785MOL0     H 5958   6.032   8.880   9.021 -0.1290 -1.6101 -5.2549
  785MOL0     H 5959   5.651   8.085  10.465 -2.8862  1.8512 -3.5285
  785MOL0     H 5960   5.564   7.930  10.641 -2.8890 -1.0679  2.3798
  785MOL0     H 5961   5.486   7.643  10.805 -1.8581 -0.8119 -0.6964
  785MOL0     H 5962   5.364   7.465  10.926  0.1957 -0.6615 -0.0759
  785MOL0     H 5963   5.287   7.316  11.057  0.7459  1.7254 -0.4190
  785MOL0     H 5964   5.137   7.390  11.007  0.3477  4.3175  0.1635
  785MOL0     H 5965   5.173   7.227  11.270 -2.5190 -2.0957  0.5229
  785MOL0     H 5966   5.116   7.170  11.120 -1.2567  0.0640 -1.4273
  785MOL0     H 5967   4.934   7.375  11.137 -1.7621 -2.8087 -1.2060
  785MOL0     H 5968   4.992   7.385  11.307 -1.4700 -1.9485  2.3159
  785MOL0     H 5969   4.889   7.153  11.150 -1.6595 -2.3151 -0.0358
  785MOL0     H 5970   4.924   7.130  11.323 -0.0959 -1.6042 -0.1895
  785MOL0     H 5971   4.550   7.333  11.359  1.5359  2.7144 -0.4125
  785MOL0     H 5972   5.307   7.728  11.261  1.8756  3.4989  0.5407
  785MOL0     H 5973   5.589   7.917  11.177 -0.4414  1.4406  0.9440
  785MOL0     H 5974   5.433   7.999  11.152 -4.4961 -1.9928  0.1079
  785MOL0     H 5975   5.448   7.895  11.291  2.9466 -0.1461  1.2299
  786MOL0     O 5976   9.063  10.137   4.452 -0.0090  0.0466  0.4654
  786MOL0     C 5977   9.007  10.022   4.482  0.1901  0.1344 -0.0163
  786MOL0     O 5978   9.012   9.961   4.604  0.0124 -0.4990 -0.1368
  786MOL0     C 5979   9.115   9.983   4.688 -0.8131 -0.4489  1.1749
  786MOL0     C 5980   9.097  10.076   4.787  1.0192  0.0283 -0.5641
  786MOL0     C 5981   9.196  10.113   4.873 -0.1031 -0.9615 -0.0858
  786MOL0     C 5982   9.317  10.033   4.879  0.3667 -0.0208  0.1222
  786MOL0     O 5983   9.436  10.070   4.947 -0.7075  0.5611  0.5557
  786MOL0     C 5984   9.440  10.191   5.025  0.2392 -0.0316  0.1814
  786MOL0     C 5985   9.471  10.309   4.934 -0.1668  0.1767  0.5176
  786MOL0     C 5986   9.611  10.306   4.873  0.2470 -0.3211 -0.1432
  786MOL0     C 5987   9.654  10.404   4.760 -0.0893  0.7378 -0.4396
  786MOL0     C 5988   9.597  10.398   4.622 -0.0813  0.8170 -0.3661
  786MOL0     C 5989   9.599  10.538   4.557  0.5661  0.4679 -0.0091
  786MOL0     C 5990   9.473  10.616   4.595  0.6270 -0.0976  0.5119
  786MOL0     C 5991   9.355  10.578   4.498 -0.2245  0.2417 -0.6556
  786MOL0     N 5992   9.220  10.607   4.563  0.0565 -0.8822 -0.1106
  786MOL0     C 5993   9.132  10.509   4.596 -0.3731 -0.6660  0.8477
  786MOL0     C 5994   9.031  10.570   4.656  0.6003  0.1834 -0.0571
  786MOL0     C 5995   8.924  10.510   4.736 -0.6785 -0.5834 -0.3469
  786MOL0     C 5996   8.983  10.435   4.854  0.8032  0.3281  0.0082
  786MOL0     C 5997   8.989  10.512   4.990 -0.1857 -0.5826 -1.1159
  786MOL0     C 5998   9.134  10.559   5.025 -0.0546 -0.9984 -0.2754
  786MOL0     O 5999   9.142  10.643   5.144  0.1725 -0.3274  0.0508
  786MOL0     C 6000   9.088  10.766   5.128  0.4781 -1.1359  0.2633
  786MOL0     C 6001   9.014  10.806   5.235  0.2986  1.1683  0.0660
  786MOL0     C 6002   8.933  10.917   5.219  1.0641 -0.5620 -0.7600
  786MOL0     C 6003   8.931  10.986   5.097  0.5947 -0.1713  1.1356
  786MOL0     C 6004   8.826  11.096   5.070  0.4361  0.0634  0.0043
  786MOL0     O 6005   8.794  11.111   4.941  1.3625 -0.0754  0.0395
  786MOL0     C 6006   8.732  11.231   4.903 -0.2607  1.0763 -1.3510
  786MOL0     C 6007   8.623  11.300   4.956 -0.2437  0.7610  0.1105
  786MOL0     C 6008   8.560  11.398   4.871 -0.7394  0.7332 -1.0670
  786MOL0     C 6009   8.608  11.436   4.748 -0.0418  1.7039  0.1021
  786MOL0     O 6010   8.567  11.541   4.659 -0.0427 -0.3439 -0.0082
  786MOL0     C 6011   8.440  11.599   4.703 -0.3395  0.7620 -0.2914
  786MOL0     C 6012   8.396  11.703   4.602  0.0264 -0.4366  0.4549
  786MOL0     C 6013   8.323  11.659   4.475  0.3708 -0.1862 -0.5175
  786MOL0     C 6014   8.176  11.671   4.494  0.3571 -0.2695  0.4791
  786MOL0     C 6015   8.087  11.617   4.380 -0.9502 -0.5137  0.2109
  786MOL0     C 6016   7.940  11.602   4.411  0.7075 -0.2939 -0.0737
  786MOL0     C 6017   7.859  11.567   4.287  0.1397  0.4480  0.1818
  786MOL0     C 6018   7.712  11.531   4.319 -0.9737  0.5719  1.2800
  786MOL0    Cl 6019   7.624  11.678   4.382 -0.3304 -0.1272  0.1351
  786MOL0     C 6020   8.717  11.367   4.704  0.2397  0.3338 -0.3070
  786MOL0     C 6021   8.778  11.257   4.780 -0.7473 -0.5576 -0.0223
  786MOL0     O 6022   8.783  11.164   5.164  0.2884  0.9347 -0.3150
  786MOL0     C 6023   9.021  10.953   4.997 -0.0412 -0.1464  0.2049
  786MOL0     C 6024   9.103  10.844   5.012 -0.1005  0.6782  0.1299
  786MOL0     N 6025   9.050  10.707   4.651  0.3436 -1.1481 -0.1822
  786MOL0     N 6026   9.170  10.726   4.608 -0.1442  0.4169  0.8395
  786MOL0     C 6027   9.336   9.940   4.783 -0.0575  0.7639 -0.1612
  786MOL0     C 6028   9.239   9.918   4.674  0.0632 -0.5687  0.5245
  786MOL0     C 6029   8.954   9.939   4.365 -0.3247 -0.1984 -0.7152
  786MOL0     C 6030   8.992   9.975   4.233  0.0310  0.3796  0.6490
  786MOL0     C 6031   8.951   9.899   4.130  0.0457  0.4515  0.0542
  786MOL0     C 6032   8.865   9.790   4.143  0.5119  1.4641 -0.4153
  786MOL0     O 6033   8.845   9.703   4.042  0.2665  0.4206 -0.6717
  786MOL0     C 6034   8.801   9.748   3.914  0.5161 -0.5528  0.3271
  786MOL0     C 6035   8.869   9.662   3.809  0.6529  0.5002  0.3789
  786MOL0     C 6036   8.803   9.684   3.666 -0.7573 -0.1057 -0.0912
  786MOL0     C 6037   8.796   9.837   3.618  0.3546 -0.8248  0.4976
  786MOL0     C 6038   8.928   9.908   3.598  0.1969 -0.7981 -0.5960
  786MOL0     C 6039   9.042   9.951   3.580 -0.1328  0.3409 -0.3569
  786MOL0     C 6040   8.817   9.757   4.277 -0.1826  0.0846  0.2217
  786MOL0     C 6041   8.846   9.840   4.380  0.3402 -0.2059  0.1526
  786MOL0     C 6042   8.759   9.824   4.507  0.0194  0.0587  0.5969
  786MOL0     H 6043   9.006  10.135   4.799  1.5679  0.8787 -0.4633
  786MOL0     H 6044   9.168  10.177   4.956  2.6020 -0.9091  0.8775
  786MOL0     H 6045   9.346  10.194   5.080 -0.5489 -1.8876 -0.9623
  786MOL0     H 6046   9.526  10.175   5.091  1.5997  0.4736 -1.3997
  786MOL0     H 6047   9.449  10.404   4.983 -2.0272 -1.4362  3.0485
  786MOL0     H 6048   9.403  10.299   4.849  0.5178  0.2909 -0.0514
  786MOL0     H 6049   9.640  10.206   4.840  2.4097  0.3977 -0.6570
  786MOL0     H 6050   9.679  10.328   4.956  3.3968 -1.3204 -2.2813
  786MOL0     H 6051   9.632  10.503   4.802 -0.3387  1.1999 -1.6164
  786MOL0     H 6052   9.762  10.391   4.759  0.0119  0.7611  2.5184
  786MOL0     H 6053   9.650  10.331   4.553 -2.9199 -2.1626  0.1007
  786MOL0     H 6054   9.494  10.363   4.621 -0.6380  2.3981 -1.5138
  786MOL0     H 6055   9.697  10.584   4.573  2.3249 -3.3443  1.4268
  786MOL0     H 6056   9.591  10.523   4.449 -1.7690  1.6882 -0.0457
  786MOL0     H 6057   9.477  10.725   4.581  0.2250 -0.0889  0.4509
  786MOL0     H 6058   9.455  10.609   4.703 -1.0015 -1.9733  0.1754
  786MOL0     H 6059   9.364  10.637   4.406  1.8897 -0.0409 -0.6736
  786MOL0     H 6060   9.360  10.471   4.479 -2.8839  0.0684 -0.7303
  786MOL0     H 6061   9.165  10.405   4.599  0.3427 -0.5229 -0.8840
  786MOL0     H 6062   8.861  10.593   4.769  1.1776  1.0685 -0.7918
  786MOL0     H 6063   8.868  10.433   4.683 -0.8143 -0.1944 -0.7754
  786MOL0     H 6064   8.917  10.349   4.867  0.1674  0.8845  0.5423
  786MOL0     H 6065   9.080  10.388   4.836 -1.0375 -4.3749  0.9445
  786MOL0     H 6066   8.933  10.455   5.065 -0.6806  2.0547  0.6342
  786MOL0     H 6067   8.935  10.606   4.976 -0.1825 -0.6875 -1.8571
  786MOL0     H 6068   9.179  10.604   4.936  2.0085 -2.0548  0.1739
  786MOL0     H 6069   9.190  10.466   5.035  1.0746 -0.5478 -1.9490
  786MOL0     H 6070   9.015  10.740   5.321  4.4574 -1.4229 -1.6818
  786MOL0     H 6071   8.853  10.927   5.292  0.1586 -0.0877 -1.7938
  786MOL0     H 6072   8.565  11.277   5.046 -1.0381 -0.4921 -0.6885
  786MOL0     H 6073   8.484  11.463   4.914 -1.4752  0.3853 -1.8197
  786MOL0     H 6074   8.359  11.527   4.718 -0.3298  1.4453  5.3113
  786MOL0     H 6075   8.439  11.647   4.802 -3.0970  1.1964 -0.4289
  786MOL0     H 6076   8.316  11.755   4.656  0.1719 -0.2176  0.4597
  786MOL0     H 6077   8.470  11.777   4.572 -2.5150  0.8355 -3.4641
  786MOL0     H 6078   8.350  11.718   4.387  3.4151 -2.6092 -1.4275
  786MOL0     H 6079   8.358  11.564   4.433 -0.2587  0.3755 -2.3891
  786MOL0     H 6080   8.138  11.773   4.506 -1.0630 -0.9400  1.9698
  786MOL0     H 6081   8.148  11.614   4.583 -1.0881 -2.3518 -1.2013
  786MOL0     H 6082   8.113  11.510   4.375 -0.5510 -0.3512 -2.0066
  786MOL0     H 6083   8.103  11.661   4.282 -0.6921 -3.7016 -1.3182
  786MOL0     H 6084   7.922  11.521   4.483  0.6343 -0.3130 -0.1124
  786MOL0     H 6085   7.903  11.691   4.462 -0.8040 -0.1752 -1.2903
  786MOL0     H 6086   7.910  11.476   4.256  1.6377  0.5208  2.2219
  786MOL0     H 6087   7.864  11.635   4.201  2.2886 -1.6582 -1.4546
  786MOL0     H 6088   7.655  11.490   4.235  2.7132 -0.1038 -1.0956
  786MOL0     H 6089   7.713  11.456   4.398  0.7891 -0.8317  0.0208
  786MOL0     H 6090   8.757  11.387   4.605  5.3799 -0.6389  1.2795
  786MOL0     H 6091   8.866  11.203   4.745 -1.4248 -0.8021 -1.4382
  786MOL0     H 6092   9.021  10.988   4.894 -4.3956  0.1009  0.0805
  786MOL0     H 6093   9.155  10.806   4.924 -3.2175 -1.0535 -1.1170
  786MOL0     H 6094   9.415   9.866   4.781 -0.9700 -0.2330 -0.6487
  786MOL0     H 6095   9.252   9.843   4.597 -1.2031 -0.8842  0.5958
  786MOL0     H 6096   9.055  10.061   4.211 -0.4473  0.5195 -0.1965
  786MOL0     H 6097   9.005   9.928   4.041 -0.0274 -1.2662 -0.5861
  786MOL0     H 6098   8.814   9.854   3.893 -1.6001  0.3384  2.9725
  786MOL0     H 6099   8.695   9.721   3.905  0.1280  1.2750 -1.1148
  786MOL0     H 6100   8.859   9.555   3.827  0.1778 -0.3327 -3.7000
  786MOL0     H 6101   8.974   9.687   3.826  0.9848 -1.1001  0.7910
  786MOL0     H 6102   8.702   9.645   3.685 -0.3363 -0.1937  2.2243
  786MOL0     H 6103   8.861   9.627   3.593  0.7021  0.5299  0.5326
  786MOL0     H 6104   8.738   9.843   3.525  0.7548  1.6294  0.3246
  786MOL0     H 6105   8.745   9.889   3.700  2.2880 -0.8794  1.8110
  786MOL0     H 6106   9.141   9.984   3.556  1.4618 -1.9914  2.3923
  786MOL0     H 6107   8.752   9.671   4.288 -2.3292  1.4796 -0.8693
  786MOL0     H 6108   8.656   9.844   4.476  0.7942  1.4747 -1.2690
  786MOL0     H 6109   8.768   9.721   4.542  4.8698 -0.3883 -1.2491
  786MOL0     H 6110   8.790   9.895   4.584 -1.8023  0.8364  0.6586
  787MOL0     O 6111   5.587   5.652   6.667 -0.1396  0.3992 -0.3276
  787MOL0     C 6112   5.484   5.590   6.654  1.7505 -0.3071 -0.8333
  787MOL0     O 6113   5.384   5.570   6.748  0.1770 -0.5864  0.4500
  787MOL0     C 6114   5.415   5.569   6.888  1.0976  0.5437  1.0555
  787MOL0     C 6115   5.532   5.590   6.960 -0.0780 -0.1207  0.6040
  787MOL0     C 6116   5.545   5.583   7.100 -0.1978  0.4641  0.2691
  787MOL0     C 6117   5.425   5.569   7.182 -0.5085  0.6102  0.4282
  787MOL0     O 6118   5.421   5.582   7.316 -0.5523  0.0314 -0.0862
  787MOL0     C 6119   5.527   5.518   7.383  0.5611  0.7186 -0.1499
  787MOL0     C 6120   5.512   5.550   7.538  0.9662  0.7261 -0.2042
  787MOL0     C 6121   5.565   5.689   7.572  0.0068 -0.1869  0.1401
  787MOL0     C 6122   5.574   5.700   7.717  0.2486 -0.6095 -0.0557
  787MOL0     C 6123   5.628   5.852   7.743 -0.4479  1.0998 -0.4423
  787MOL0     C 6124   5.535   5.924   7.836 -0.5631 -0.3603 -0.3332
  787MOL0     C 6125   5.597   6.073   7.853  0.1813  0.0728 -0.5528
  787MOL0     C 6126   5.518   6.142   7.974  0.0252  0.1994  0.8965
  787MOL0     N 6127   5.566   6.095   8.099  0.3357 -0.4646 -0.0416
  787MOL0     C 6128   5.694   6.091   8.148 -0.2400 -0.7114 -0.1157
  787MOL0     C 6129   5.693   6.015   8.257 -0.4753  0.6491 -0.0786
  787MOL0     C 6130   5.821   5.985   8.340  0.5559 -0.7091 -0.0688
  787MOL0     C 6131   5.878   6.106   8.408  0.0665  0.1351 -0.4415
  787MOL0     C 6132   5.775   6.179   8.495 -0.1013 -0.4849  0.1512
  787MOL0     C 6133   5.827   6.311   8.555  1.5345  0.2551 -0.2704
  787MOL0     O 6134   5.885   6.403   8.464  0.5660  0.2027  0.2812
  787MOL0     C 6135   5.803   6.455   8.358  0.6044  0.9436  0.8099
  787MOL0     C 6136   5.659   6.452   8.360  1.5428 -0.5592  0.2988
  787MOL0     C 6137   5.590   6.520   8.250 -0.0969 -1.0988 -0.1456
  787MOL0     C 6138   5.665   6.589   8.152 -0.0160  0.8548 -0.1231
  787MOL0     C 6139   5.587   6.666   8.052  0.4175 -0.8613 -0.6176
  787MOL0     O 6140   5.490   6.597   7.990 -0.3040 -0.2992 -0.5258
  787MOL0     C 6141   5.415   6.652   7.886  1.0659  0.3665 -0.2987
  787MOL0     C 6142   5.398   6.567   7.779  0.5606 -1.0526  0.3343
  787MOL0     C 6143   5.321   6.611   7.667  0.3163  0.1351 -0.3108
  787MOL0     C 6144   5.271   6.745   7.652 -1.3463 -0.1161 -0.5910
  787MOL0     O 6145   5.197   6.794   7.551  0.7718 -0.4485  0.2280
  787MOL0     C 6146   5.247   6.886   7.448  0.1848  0.2635  0.0217
  787MOL0     C 6147   5.161   6.852   7.330  0.4651  0.0418  0.5679
  787MOL0     C 6148   5.025   6.910   7.341  0.0904  0.5787  1.3313
  787MOL0     C 6149   4.953   6.899   7.206  0.3144 -0.0490 -0.5013
  787MOL0     C 6150   4.816   6.943   7.215  0.8971  1.1209  0.6023
  787MOL0     C 6151   4.726   6.823   7.252 -0.7677 -0.9939 -0.0620
  787MOL0     C 6152   4.577   6.877   7.255 -0.1102  0.2940 -0.7462
  787MOL0     C 6153   4.482   6.766   7.312 -0.3928  0.0181  0.4321
  787MOL0    Cl 6154   4.523   6.757   7.492 -0.3499 -0.8494  0.1290
  787MOL0     C 6155   5.328   6.832   7.748 -0.1214 -0.9215 -0.3459
  787MOL0     C 6156   5.385   6.790   7.870  0.3370 -1.0895  0.1379
  787MOL0     O 6157   5.622   6.783   8.029 -0.3890  0.1990  0.1056
  787MOL0     C 6158   5.800   6.598   8.158 -0.2090 -0.0481 -0.7037
  787MOL0     C 6159   5.876   6.523   8.254  0.1274 -0.3866 -0.6063
  787MOL0     N 6160   5.564   5.967   8.280  0.1051 -0.2081 -0.8002
  787MOL0     N 6161   5.496   6.011   8.185  0.3145 -0.2800  0.8389
  787MOL0     C 6162   5.305   5.556   7.112 -0.2284  0.6283 -0.2604
  787MOL0     C 6163   5.303   5.546   6.967  0.3793  0.4639 -1.0665
  787MOL0     C 6164   5.447   5.541   6.516 -0.3819 -0.3137 -0.4870
  787MOL0     C 6165   5.318   5.561   6.476 -0.0435  0.3848 -0.0763
  787MOL0     C 6166   5.276   5.544   6.344  0.1205 -0.0740  0.2193
  787MOL0     C 6167   5.364   5.502   6.244 -0.5724  0.4708 -0.4952
  787MOL0     O 6168   5.321   5.482   6.115  0.0032 -0.3021  0.1273
  787MOL0     C 6169   5.203   5.555   6.066 -0.0293  0.4246 -0.1748
  787MOL0     C 6170   5.202   5.567   5.915  0.1705 -0.1780  0.4028
  787MOL0     C 6171   5.079   5.645   5.866  0.6153 -0.1671  0.4845
  787MOL0     C 6172   5.058   5.624   5.718  1.4331  0.1824 -0.1394
  787MOL0     C 6173   4.941   5.712   5.677 -0.5838 -0.2140 -0.9127
  787MOL0     C 6174   4.861   5.794   5.640  0.7706  0.2157 -0.6834
  787MOL0     C 6175   5.494   5.475   6.284 -0.1040  0.6399 -0.0221
  787MOL0     C 6176   5.538   5.496   6.410  0.1536 -0.1586  0.0984
  787MOL0     C 6177   5.686   5.470   6.447 -0.4160 -0.1385  0.3274
  787MOL0     H 6178   5.626   5.616   6.911  0.6437 -0.3264  1.8294
  787MOL0     H 6179   5.648   5.588   7.134  0.0171  2.8519 -0.5212
  787MOL0     H 6180   5.537   5.411   7.361  0.1344  0.9648 -1.6728
  787MOL0     H 6181   5.625   5.559   7.360  0.6924  1.8556  2.1848
  787MOL0     H 6182   5.559   5.470   7.596 -1.4121  1.8401  3.6523
  787MOL0     H 6183   5.406   5.546   7.566  0.4632 -0.6887 -2.0481
  787MOL0     H 6184   5.503   5.771   7.533 -1.3711 -0.8667  0.8221
  787MOL0     H 6185   5.660   5.708   7.522 -1.1181  1.5489 -1.5058
  787MOL0     H 6186   5.481   5.670   7.766 -0.2539 -1.6921 -1.5991
  787MOL0     H 6187   5.647   5.631   7.760  2.8416  1.6349 -0.6041
  787MOL0     H 6188   5.733   5.850   7.775  0.7607  0.8176 -3.9742
  787MOL0     H 6189   5.638   5.905   7.648 -2.2219 -0.3675 -1.5210
  787MOL0     H 6190   5.429   5.922   7.811 -1.2912 -2.4947  2.4602
  787MOL0     H 6191   5.550   5.863   7.926 -1.7631  1.0745  0.8796
  787MOL0     H 6192   5.589   6.131   7.760  2.0765  1.4961  0.0864
  787MOL0     H 6193   5.702   6.062   7.881  0.3831  0.8159 -0.9590
  787MOL0     H 6194   5.515   6.250   7.955 -1.9371  0.2764  1.4090
  787MOL0     H 6195   5.412   6.114   7.979 -1.3191  4.6043  3.0700
  787MOL0     H 6196   5.785   6.130   8.103 -1.1282 -1.7823 -3.0639
  787MOL0     H 6197   5.787   5.915   8.416  1.0046 -0.3057  0.5153
  787MOL0     H 6198   5.895   5.942   8.272 -0.8349 -1.5891 -1.0809
  787MOL0     H 6199   5.960   6.067   8.468 -0.7653 -1.6609 -0.4275
  787MOL0     H 6200   5.910   6.178   8.331 -2.0529  0.4364 -1.0945
  787MOL0     H 6201   5.754   6.109   8.576  1.1196  0.3956  1.2830
  787MOL0     H 6202   5.684   6.190   8.435 -1.5373 -0.8909  2.1396
  787MOL0     H 6203   5.901   6.287   8.632  1.7202  0.1010 -0.4943
  787MOL0     H 6204   5.739   6.361   8.595  1.4680  3.4614 -3.8128
  787MOL0     H 6205   5.603   6.405   8.440  1.4729  2.1292  1.9373
  787MOL0     H 6206   5.482   6.513   8.252 -0.1611 -0.3392  1.8565
  787MOL0     H 6207   5.427   6.463   7.798 -0.0453 -1.2643  0.1090
  787MOL0     H 6208   5.302   6.543   7.584  3.0399 -2.1112  0.7470
  787MOL0     H 6209   5.247   6.994   7.466  1.1095  0.0123  1.7588
  787MOL0     H 6210   5.342   6.840   7.417 -0.3678 -0.2800 -0.9083
  787MOL0     H 6211   5.206   6.900   7.242 -1.8146  1.2628 -0.0329
  787MOL0     H 6212   5.141   6.749   7.300  4.5893 -1.0667  1.0370
  787MOL0     H 6213   4.973   6.859   7.423  1.4171 -1.4390  0.9834
  787MOL0     H 6214   5.027   7.019   7.353 -2.2665  0.6336  1.6826
  787MOL0     H 6215   4.956   6.797   7.166  1.7061 -0.6542  1.0259
  787MOL0     H 6216   5.016   6.956   7.137  2.2815  0.0831  1.3174
  787MOL0     H 6217   4.798   6.983   7.115  0.2179 -1.2179 -0.2707
  787MOL0     H 6218   4.798   7.033   7.275  0.3277  2.6574 -1.7005
  787MOL0     H 6219   4.740   6.738   7.185  1.3329 -2.2140  1.7993
  787MOL0     H 6220   4.755   6.808   7.356  1.1341  1.1101 -0.1909
  787MOL0     H 6221   4.548   6.915   7.156  0.8393  1.8656 -0.4532
  787MOL0     H 6222   4.571   6.958   7.328  0.9876  0.4393 -0.7963
  787MOL0     H 6223   4.381   6.803   7.294 -0.5029 -0.1393  0.7195
  787MOL0     H 6224   4.507   6.671   7.264  1.2546  0.1359  0.9848
  787MOL0     H 6225   5.302   6.937   7.746  0.0268 -0.8880 -0.4732
  787MOL0     H 6226   5.409   6.860   7.949 -0.6549 -2.4004  1.6659
  787MOL0     H 6227   5.851   6.670   8.095  0.0984  0.2531 -0.1238
  787MOL0     H 6228   5.984   6.522   8.254  0.2568  2.6488  1.3195
  787MOL0     H 6229   5.216   5.562   7.175  0.6198  1.1619  0.9315
  787MOL0     H 6230   5.210   5.526   6.913 -1.2378 -0.1116  1.7567
  787MOL0     H 6231   5.240   5.596   6.543 -1.7363 -0.6487 -1.4041
  787MOL0     H 6232   5.183   5.579   6.301  1.1859  2.4461 -0.2211
  787MOL0     H 6233   5.210   5.655   6.109 -1.6633 -0.4566  2.3305
  787MOL0     H 6234   5.111   5.516   6.109 -0.6834  3.2408  1.2122
  787MOL0     H 6235   5.196   5.465   5.877 -0.6689 -0.2077  0.5852
  787MOL0     H 6236   5.298   5.607   5.880 -0.9270  1.1486 -1.2243
  787MOL0     H 6237   5.077   5.751   5.892 -1.2757 -0.3649  1.2507
  787MOL0     H 6238   4.993   5.603   5.919 -1.1432  2.3756 -0.2198
  787MOL0     H 6239   5.147   5.655   5.662  2.3118 -4.0196 -1.4717
  787MOL0     H 6240   5.048   5.517   5.698 -3.2531  0.0530  1.6414
  787MOL0     H 6241   4.790   5.863   5.600 -1.1004 -2.4201 -2.2143
  787MOL0     H 6242   5.572   5.456   6.211  0.0617  0.6008  0.1617
  787MOL0     H 6243   5.725   5.570   6.468 -2.5973  1.2474 -1.6780
  787MOL0     H 6244   5.694   5.404   6.533  0.4279 -1.2078 -0.5509
  787MOL0     H 6245   5.735   5.417   6.365  0.5624  0.3388  0.5932
  788MOL0     O 6246   9.697   9.069   1.693  0.7018 -0.3223 -0.1330
  788MOL0     C 6247   9.807   9.115   1.672 -0.2865  0.5787 -0.1451
  788MOL0     O 6248   9.870   9.212   1.740 -0.2356  0.3545  0.5383
  788MOL0     C 6249   9.822   9.269   1.855 -0.6730 -0.7030 -0.4076
  788MOL0     C 6250   9.744   9.197   1.947  0.0059 -0.7744 -0.0011
  788MOL0     C 6251   9.703   9.251   2.064  0.5285 -0.6305  0.4953
  788MOL0     C 6252   9.733   9.392   2.083 -0.1560  0.4974 -0.3342
  788MOL0     O 6253   9.689   9.458   2.199  0.5374  0.0925 -0.1451
  788MOL0     C 6254   9.580   9.402   2.281  0.3382 -0.6776 -0.7285
  788MOL0     C 6255   9.536   9.493   2.389  0.6285  0.6755 -0.3998
  788MOL0     C 6256   9.638   9.503   2.495 -0.3159  0.8624 -0.0126
  788MOL0     C 6257   9.660   9.374   2.578  0.3290 -1.0538 -0.3666
  788MOL0     C 6258   9.767   9.385   2.679 -0.3327 -0.8667 -0.2297
  788MOL0     C 6259   9.798   9.253   2.753 -0.6687  0.2150  0.0599
  788MOL0     C 6260   9.685   9.210   2.847  0.5078  0.2461  0.8210
  788MOL0     C 6261   9.604   9.312   2.930 -0.1129  0.4927 -0.3090
  788MOL0     N 6262   9.502   9.240   3.008 -0.0000  0.0790 -0.0255
  788MOL0     C 6263   9.513   9.128   3.089 -0.3507 -0.5022  0.4219
  788MOL0     C 6264   9.380   9.085   3.107  0.2207  0.2063  0.2843
  788MOL0     C 6265   9.326   8.970   3.184  0.6978 -0.2752 -0.0969
  788MOL0     C 6266   9.288   9.022   3.320  0.6697 -0.3474 -0.1112
  788MOL0     C 6267   9.228   8.920   3.417  0.2523 -0.5204 -0.6192
  788MOL0     C 6268   9.153   8.801   3.353  0.3333  0.5057 -0.3152
  788MOL0     O 6269   9.016   8.833   3.320  0.3495  0.6160  0.1908
  788MOL0     C 6270   8.940   8.727   3.268  0.0860 -0.6295 -0.1002
  788MOL0     C 6271   8.811   8.713   3.315 -0.7100 -0.4518  0.3990
  788MOL0     C 6272   8.735   8.603   3.271  0.3290  0.0628  0.3121
  788MOL0     C 6273   8.787   8.501   3.194  1.7563  0.6777  0.1454
  788MOL0     C 6274   8.695   8.388   3.160 -0.1779  0.2110 -0.3072
  788MOL0     O 6275   8.748   8.290   3.090  0.1879  0.6026  0.2926
  788MOL0     C 6276   8.681   8.175   3.072 -0.3520 -0.1347  0.7549
  788MOL0     C 6277   8.548   8.167   3.009 -0.4970  0.5159 -0.5265
  788MOL0     C 6278   8.484   8.044   2.987 -0.4841  1.0184 -1.0418
  788MOL0     C 6279   8.547   7.931   3.034  0.0276  0.6544  0.3249
  788MOL0     O 6280   8.500   7.803   3.015 -0.3959 -0.1253 -0.0958
  788MOL0     C 6281   8.456   7.764   2.885 -0.5468  0.5583 -0.7374
  788MOL0     C 6282   8.459   7.611   2.889 -0.5891  0.6547 -0.1930
  788MOL0     C 6283   8.438   7.545   2.751 -0.0105 -1.9050  0.1261
  788MOL0     C 6284   8.497   7.412   2.735 -0.7707  0.3500  0.5318
  788MOL0     C 6285   8.410   7.296   2.692 -0.5579 -1.3218 -0.9318
  788MOL0     C 6286   8.275   7.276   2.765 -0.2872 -0.2831 -0.1947
  788MOL0     C 6287   8.198   7.156   2.717 -0.6375  0.6602  0.3499
  788MOL0     C 6288   8.076   7.135   2.794  0.4327 -0.7503  0.3054
  788MOL0    Cl 6289   7.956   7.028   2.721 -0.0962  0.2991 -0.1625
  788MOL0     C 6290   8.666   7.929   3.102  0.1589 -0.6270  0.9458
  788MOL0     C 6291   8.731   8.050   3.112  1.3940 -0.4542  0.2963
  788MOL0     O 6292   8.573   8.410   3.172  0.6416  0.9244  0.5643
  788MOL0     C 6293   8.913   8.514   3.151 -0.6190  0.0254 -0.0324
  788MOL0     C 6294   8.989   8.622   3.195 -0.1989 -0.5424  0.4122
  788MOL0     N 6295   9.292   9.179   3.042 -0.1012  0.1676 -0.7436
  788MOL0     N 6296   9.370   9.263   2.986 -0.6172  0.7669  0.7248
  788MOL0     C 6297   9.815   9.467   2.002  0.4040 -0.3157  0.8119
  788MOL0     C 6298   9.861   9.402   1.883 -0.0023 -1.3207  0.5103
  788MOL0     C 6299   9.905   9.042   1.593 -0.1797 -0.0284 -0.8580
  788MOL0     C 6300  10.029   9.019   1.646  0.3721 -0.4405  0.2636
  788MOL0     C 6301  10.127   8.973   1.576  0.2525  0.1388  0.8108
  788MOL0     C 6302  10.110   8.917   1.441  1.1212 -0.9241 -0.9211
  788MOL0     O 6303  10.214   8.890   1.359  0.5369  0.2722 -0.3686
  788MOL0     C 6304  10.325   8.825   1.417  0.5001 -0.5693  0.0137
  788MOL0     C 6305  10.408   8.761   1.306 -0.0260 -0.0501 -0.6743
  788MOL0     C 6306  10.349   8.630   1.250  0.3508 -0.3346  0.1484
  788MOL0     C 6307  10.454   8.542   1.185  0.6893  0.4144  0.1319
  788MOL0     C 6308  10.519   8.618   1.073 -1.0671  0.5052  0.3886
  788MOL0     C 6309  10.576   8.689   0.989  0.9366 -0.1439 -0.4498
  788MOL0     C 6310   9.978   8.929   1.385 -0.2952 -0.9292 -0.4269
  788MOL0     C 6311   9.875   8.997   1.461 -1.5126  0.9513  0.1938
  788MOL0     C 6312   9.737   9.023   1.397  0.1206  0.0690  0.0171
  788MOL0     H 6313   9.724   9.094   1.923 -3.9285 -0.0929 -0.2730
  788MOL0     H 6314   9.666   9.180   2.137  3.5517 -3.8890 -0.8810
  788MOL0     H 6315   9.502   9.380   2.207 -0.7613 -0.8172  0.4505
  788MOL0     H 6316   9.609   9.301   2.314  0.6066 -1.0963 -2.1652
  788MOL0     H 6317   9.439   9.470   2.434  2.1703 -0.9516  2.3718
  788MOL0     H 6318   9.526   9.590   2.339 -1.6771  1.2334  0.9969
  788MOL0     H 6319   9.599   9.580   2.562  0.7176  1.0230  0.4139
  788MOL0     H 6320   9.733   9.536   2.453  0.5599 -1.3184  0.1105
  788MOL0     H 6321   9.568   9.336   2.623  0.6673 -0.2258  1.0911
  788MOL0     H 6322   9.693   9.299   2.506  1.2041 -0.5632 -0.4778
  788MOL0     H 6323   9.864   9.423   2.647  1.9362 -3.4164  3.0173
  788MOL0     H 6324   9.749   9.457   2.760  0.6082 -0.5083 -0.3353
  788MOL0     H 6325   9.825   9.177   2.679 -0.6880  1.4361 -1.2448
  788MOL0     H 6326   9.892   9.263   2.809  0.6011 -1.2713 -1.6852
  788MOL0     H 6327   9.736   9.142   2.915  4.3166  1.8789 -0.1625
  788MOL0     H 6328   9.608   9.153   2.794  0.6934 -2.6599  3.4121
  788MOL0     H 6329   9.666   9.361   3.005  1.0463  1.8382 -2.0560
  788MOL0     H 6330   9.561   9.387   2.864  1.0892  0.0419 -1.6776
  788MOL0     H 6331   9.607   9.080   3.112  2.3358  2.3195 -3.3490
  788MOL0     H 6332   9.251   8.920   3.123  0.4875 -0.0362 -0.0341
  788MOL0     H 6333   9.404   8.897   3.210 -0.2586 -1.5103 -0.6333
  788MOL0     H 6334   9.381   9.055   3.368  0.3797 -0.8561  0.8157
  788MOL0     H 6335   9.219   9.107   3.318  0.3114 -0.4872  2.3883
  788MOL0     H 6336   9.169   8.970   3.494  1.5899  1.2758 -0.6961
  788MOL0     H 6337   9.303   8.869   3.478 -2.7700 -3.6484  0.8202
  788MOL0     H 6338   9.145   8.716   3.421 -3.3689  0.4303 -0.6566
  788MOL0     H 6339   9.210   8.758   3.270  1.7884 -2.0734  1.8790
  788MOL0     H 6340   8.780   8.790   3.384 -1.6030 -0.1450 -0.3212
  788MOL0     H 6341   8.631   8.607   3.302  1.1916  0.1291  3.5421
  788MOL0     H 6342   8.484   8.250   2.980 -3.6654 -1.9376 -1.1474
  788MOL0     H 6343   8.383   8.033   2.950 -1.5065 -2.3986  2.1388
  788MOL0     H 6344   8.355   7.798   2.860 -0.6965 -0.8214 -2.1648
  788MOL0     H 6345   8.527   7.801   2.811  1.2133 -1.4403 -0.1373
  788MOL0     H 6346   8.559   7.588   2.927 -0.3804  1.7018 -0.0758
  788MOL0     H 6347   8.391   7.571   2.965  1.6491 -0.4162  1.3763
  788MOL0     H 6348   8.329   7.539   2.746 -0.0949 -0.2319 -0.7287
  788MOL0     H 6349   8.481   7.606   2.671  0.0880 -1.9367  0.1553
  788MOL0     H 6350   8.536   7.374   2.830 -1.9338  2.5691  1.9745
  788MOL0     H 6351   8.579   7.411   2.662  0.1401 -1.8190  1.4902
  788MOL0     H 6352   8.472   7.207   2.708  1.8857 -0.1409 -3.1808
  788MOL0     H 6353   8.387   7.308   2.586 -0.5567  1.4644 -0.6852
  788MOL0     H 6354   8.303   7.267   2.870 -3.0058  2.6975  0.9730
  788MOL0     H 6355   8.211   7.365   2.756  2.3583  1.5624 -2.8065
  788MOL0     H 6356   8.260   7.067   2.720 -2.9216 -0.9985  1.0050
  788MOL0     H 6357   8.172   7.184   2.614 -1.6893  3.0159  1.1765
  788MOL0     H 6358   8.094   7.104   2.897  0.6197 -1.6377  0.0199
  788MOL0     H 6359   8.030   7.234   2.795  1.2362 -0.3728  0.4870
  788MOL0     H 6360   8.703   7.831   3.131 -5.6685 -3.8358 -0.8214
  788MOL0     H 6361   8.836   8.059   3.141  0.8655  2.4256  1.7095
  788MOL0     H 6362   8.946   8.449   3.071 -2.6912  0.1144 -1.0008
  788MOL0     H 6363   9.091   8.626   3.158 -1.2252  0.3584 -2.6843
  788MOL0     H 6364   9.841   9.572   2.012 -0.6737 -0.0982  1.4668
  788MOL0     H 6365   9.933   9.454   1.821 -0.1947  1.7131  2.5775
  788MOL0     H 6366  10.053   9.047   1.748  1.5401  1.2491 -0.4344
  788MOL0     H 6367  10.227   8.964   1.617  0.1886 -0.8145  0.8014
  788MOL0     H 6368  10.287   8.743   1.479  0.8670 -0.7468  0.0085
  788MOL0     H 6369  10.371   8.906   1.474 -2.1544  1.0374  0.0441
  788MOL0     H 6370  10.509   8.734   1.339 -0.2221 -2.4598 -1.8251
  788MOL0     H 6371  10.433   8.842   1.237 -0.9382  0.4712 -0.4124
  788MOL0     H 6372  10.276   8.638   1.169  1.4493  1.6630 -0.7228
  788MOL0     H 6373  10.293   8.575   1.326  0.6452 -3.5177 -1.7403
  788MOL0     H 6374  10.527   8.516   1.262  0.0025  0.3264  0.7649
  788MOL0     H 6375  10.421   8.445   1.146  0.0695 -0.2061  2.0879
  788MOL0     H 6376  10.611   8.759   0.917 -0.3689 -0.9708 -1.9336
  788MOL0     H 6377   9.963   8.903   1.281  0.6684  1.8901 -1.3696
  788MOL0     H 6378   9.719   8.959   1.310  1.4755 -0.8934  0.4298
  788MOL0     H 6379   9.662   9.004   1.474  2.9947 -1.2910  2.6532
  788MOL0     H 6380   9.733   9.127   1.362 -2.4240  0.1173  0.2676
  789MOL0     O 6381   6.026   5.961   9.946 -0.0271 -0.1874  0.2789
  789MOL0     C 6382   6.008   5.843   9.987 -0.1546 -0.6465  0.0577
  789MOL0     O 6383   5.893   5.760   9.974 -0.2712 -0.7389 -0.5281
  789MOL0     C 6384   5.791   5.815   9.902  0.1565  0.5277 -0.7184
  789MOL0     C 6385   5.728   5.932   9.946  0.2911  0.1376 -0.4608
  789MOL0     C 6386   5.650   6.004   9.861  0.5710 -0.1171 -0.1002
  789MOL0     C 6387   5.621   5.961   9.729 -0.3062  0.6792 -0.4428
  789MOL0     O 6388   5.549   6.037   9.645  0.2343  0.5481  0.8663
  789MOL0     C 6389   5.594   6.037   9.515  0.5005  0.1342  1.1208
  789MOL0     C 6390   5.566   6.177   9.454  0.2788  0.0247 -0.5038
  789MOL0     C 6391   5.413   6.208   9.443 -0.7378  0.3407  0.0241
  789MOL0     C 6392   5.363   6.195   9.299  0.1068 -0.5353 -0.4831
  789MOL0     C 6393   5.214   6.218   9.309 -0.1926  0.7730  0.2253
  789MOL0     C 6394   5.170   6.363   9.343  1.1771 -1.1851 -0.7977
  789MOL0     C 6395   5.020   6.386   9.322  0.1443  0.1056  0.4355
  789MOL0     C 6396   4.935   6.415   9.440  0.3031 -0.1035 -0.0211
  789MOL0     N 6397   4.983   6.536   9.514  0.5306  0.5096  0.0072
  789MOL0     C 6398   5.055   6.553   9.636 -0.0994 -0.2456  0.2446
  789MOL0     C 6399   5.065   6.688   9.650 -0.3760  0.0431 -0.1687
  789MOL0     C 6400   5.143   6.772   9.762 -0.9389 -0.2842 -0.2593
  789MOL0     C 6401   5.196   6.909   9.704  0.6160  0.1682 -0.4725
  789MOL0     C 6402   5.282   6.985   9.804  0.0379  0.6766  0.6117
  789MOL0     C 6403   5.394   7.029   9.726 -0.7384 -0.2569 -0.0596
  789MOL0     O 6404   5.490   7.082   9.825  0.2749  0.1875 -0.2514
  789MOL0     C 6405   5.602   7.140   9.781  0.2661  0.2201  0.3753
  789MOL0     C 6406   5.654   7.133   9.647 -0.4636  0.5465 -0.8117
  789MOL0     C 6407   5.764   7.203   9.617  0.1264 -0.3150  0.3293
  789MOL0     C 6408   5.835   7.276   9.710  0.3309 -0.3075  0.2752
  789MOL0     C 6409   5.956   7.350   9.654  0.5483  0.4439 -0.5807
  789MOL0     O 6410   6.063   7.358   9.746  0.5958 -0.0774  0.6046
  789MOL0     C 6411   6.157   7.446   9.711  1.0845 -0.3520  0.0464
  789MOL0     C 6412   6.264   7.417   9.635  0.5281 -0.3877 -0.6231
  789MOL0     C 6413   6.347   7.520   9.595 -0.6516  0.7283  1.4254
  789MOL0     C 6414   6.331   7.651   9.638 -0.3663 -0.2787 -0.3349
  789MOL0     O 6415   6.436   7.727   9.610 -0.2023 -0.2142 -0.1950
  789MOL0     C 6416   6.460   7.835   9.703  0.1710 -0.2887 -0.9816
  789MOL0     C 6417   6.391   7.971   9.670 -0.9231 -0.3300  0.0929
  789MOL0     C 6418   6.430   8.030   9.534  1.1962 -0.2918 -0.2260
  789MOL0     C 6419   6.459   8.181   9.530 -0.2360 -0.8567 -1.2667
  789MOL0     C 6420   6.531   8.216   9.397  1.4681  0.0615  0.3423
  789MOL0     C 6421   6.586   8.362   9.397 -0.2177  0.3904  0.5807
  789MOL0     C 6422   6.484   8.465   9.462  0.2740 -0.2995 -0.5538
  789MOL0     C 6423   6.548   8.609   9.448  0.2489  0.1760 -0.3264
  789MOL0    Cl 6424   6.560   8.638   9.264  0.1527  0.3944  0.3496
  789MOL0     C 6425   6.224   7.674   9.718 -0.4191 -0.8590 -0.5927
  789MOL0     C 6426   6.129   7.576   9.755  0.1997 -0.7484 -0.1554
  789MOL0     O 6427   5.960   7.396   9.537 -0.5439  0.1434  0.1255
  789MOL0     C 6428   5.802   7.262   9.849 -0.3957 -0.1531 -0.0507
  789MOL0     C 6429   5.683   7.206   9.879 -0.1455  0.4803 -0.2927
  789MOL0     N 6430   5.013   6.745   9.538  0.2463  0.8088 -0.0243
  789MOL0     N 6431   4.950   6.657   9.467  0.3503 -0.2378  0.1214
  789MOL0     C 6432   5.665   5.835   9.694  0.4460 -1.3348  0.6016
  789MOL0     C 6433   5.753   5.757   9.779  2.0699 -0.1136  0.4894
  789MOL0     C 6434   6.117   5.778  10.055 -0.7082 -0.8914  0.6426
  789MOL0     C 6435   6.105   5.712  10.179  0.0812 -0.9442  0.3587
  789MOL0     C 6436   6.205   5.649  10.237  0.0349  0.3297  1.3525
  789MOL0     C 6437   6.329   5.635  10.175  0.4676  0.6776 -0.2211
  789MOL0     O 6438   6.425   5.568  10.249 -0.3180 -0.4866  0.5272
  789MOL0     C 6439   6.513   5.474  10.200  0.4597  0.7135 -0.0165
  789MOL0     C 6440   6.663   5.510  10.215  0.9719 -0.2424  0.4765
  789MOL0     C 6441   6.754   5.399  10.173  0.4773  1.0060 -0.1297
  789MOL0     C 6442   6.904   5.422  10.213  1.1158 -0.2947 -0.8414
  789MOL0     C 6443   6.985   5.468  10.100  0.5321 -0.3064  0.6262
  789MOL0     C 6444   7.049   5.529  10.013  0.6239 -0.3034  0.2450
  789MOL0     C 6445   6.357   5.707  10.057 -0.9770  0.4361  0.4898
  789MOL0     C 6446   6.244   5.765   9.985  0.3814 -0.3368  0.6430
  789MOL0     C 6447   6.271   5.825   9.852 -0.1568  0.5659  0.8037
  789MOL0     H 6448   5.750   5.985  10.038 -2.5538  0.1129  0.3041
  789MOL0     H 6449   5.613   6.101   9.893 -0.3045  0.3919 -2.4719
  789MOL0     H 6450   5.702   6.023   9.507  0.7113  1.9763  0.5225
  789MOL0     H 6451   5.558   5.960   9.446  2.5502 -3.0855  3.3022
  789MOL0     H 6452   5.614   6.182   9.356  1.6154 -0.9653  0.0508
  789MOL0     H 6453   5.622   6.241   9.523 -0.6399  2.1031 -1.6299
  789MOL0     H 6454   5.399   6.313   9.470  1.6243  0.1663  2.4053
  789MOL0     H 6455   5.359   6.150   9.519  1.0277 -0.3263  0.8236
  789MOL0     H 6456   5.421   6.275   9.252 -1.7588 -0.1790 -2.3507
  789MOL0     H 6457   5.376   6.092   9.266  0.5207 -0.9380  0.8921
  789MOL0     H 6458   5.164   6.186   9.217 -0.8854  3.1122 -0.2765
  789MOL0     H 6459   5.174   6.144   9.379 -0.4988 -0.3491 -1.0957
  789MOL0     H 6460   5.192   6.388   9.447 -3.5025  1.9714 -0.2355
  789MOL0     H 6461   5.221   6.441   9.286 -0.4250 -0.5614 -1.4352
  789MOL0     H 6462   4.986   6.299   9.266  0.9469  1.6703 -2.7035
  789MOL0     H 6463   4.993   6.472   9.260 -0.0055 -0.3243 -0.1104
  789MOL0     H 6464   4.830   6.422   9.409  0.3062  1.1387  0.1671
  789MOL0     H 6465   4.938   6.332   9.510 -1.4667 -1.2426 -1.2289
  789MOL0     H 6466   5.098   6.484   9.708 -3.4199 -0.0707  2.6625
  789MOL0     H 6467   5.078   6.790   9.848 -0.2548 -0.1191  0.2342
  789MOL0     H 6468   5.228   6.713   9.797 -2.5258 -3.7820 -1.8846
  789MOL0     H 6469   5.242   6.877   9.610 -0.7610 -1.6979 -0.5750
  789MOL0     H 6470   5.119   6.985   9.688  2.4233  2.4658  1.0641
  789MOL0     H 6471   5.321   6.920   9.883  0.8664 -2.1080 -1.8983
  789MOL0     H 6472   5.230   7.068   9.852 -0.1544  0.8322  0.1393
  789MOL0     H 6473   5.361   7.096   9.646 -1.3966 -2.9626 -2.2017
  789MOL0     H 6474   5.444   6.947   9.672  1.4231  2.1170 -1.9397
  789MOL0     H 6475   5.605   7.077   9.568 -1.0981 -2.4728  1.5336
  789MOL0     H 6476   5.786   7.213   9.511  0.2766  1.4355  0.4843
  789MOL0     H 6477   6.284   7.317   9.598 -0.7874 -0.4184 -1.2945
  789MOL0     H 6478   6.427   7.501   9.524  0.1651  1.6098  2.0852
  789MOL0     H 6479   6.422   7.805   9.801 -1.3015  1.5172 -0.9211
  789MOL0     H 6480   6.567   7.849   9.720 -0.1508  1.1512  0.1732
  789MOL0     H 6481   6.284   7.947   9.670 -1.3432  1.4021 -0.3713
  789MOL0     H 6482   6.411   8.044   9.748  2.9494 -3.4128  2.3310
  789MOL0     H 6483   6.522   7.978   9.506 -0.3792 -3.1749 -0.4705
  789MOL0     H 6484   6.356   8.003   9.458  1.7509  1.7070 -1.5496
  789MOL0     H 6485   6.529   8.204   9.611 -4.1344 -0.5280  2.3814
  789MOL0     H 6486   6.369   8.243   9.534  1.8019  2.2475  1.2077
  789MOL0     H 6487   6.455   8.192   9.322  2.5700 -0.3224 -0.6800
  789MOL0     H 6488   6.617   8.156   9.370  3.5961  3.3216 -0.7849
  789MOL0     H 6489   6.676   8.365   9.459  1.9381 -1.5569 -2.1942
  789MOL0     H 6490   6.610   8.387   9.293  1.0167  3.0641  1.4250
  789MOL0     H 6491   6.478   8.455   9.571 -1.0635  0.6487 -0.5116
  789MOL0     H 6492   6.385   8.439   9.422  0.2210 -2.6200  0.8932
  789MOL0     H 6493   6.500   8.695   9.495 -0.0291  0.5704 -1.2911
  789MOL0     H 6494   6.653   8.603   9.477  0.7368 -0.5518 -2.0806
  789MOL0     H 6495   6.193   7.769   9.760 -0.1707 -0.8238 -0.4867
  789MOL0     H 6496   6.044   7.597   9.818 -1.3316  0.5946 -2.5309
  789MOL0     H 6497   5.866   7.302   9.927 -3.6769  2.9193  1.3774
  789MOL0     H 6498   5.655   7.211   9.983  0.1362  2.2788 -0.2725
  789MOL0     H 6499   5.621   5.803   9.600  1.7830  1.3500 -1.0364
  789MOL0     H 6500   5.774   5.653   9.756  2.7540 -0.6061  3.0167
  789MOL0     H 6501   6.011   5.708  10.234 -2.4873  0.4079 -3.5421
  789MOL0     H 6502   6.192   5.614  10.339  3.8232  3.3654  3.1420
  789MOL0     H 6503   6.491   5.452  10.095 -2.6598  1.1057  0.4663
  789MOL0     H 6504   6.493   5.384  10.258 -2.7244  3.0761  2.9870
  789MOL0     H 6505   6.670   5.541  10.320 -0.7606  2.5686 -0.1568
  789MOL0     H 6506   6.691   5.596  10.154 -0.5690 -0.5549 -0.7295
  789MOL0     H 6507   6.738   5.376  10.067 -0.0076 -0.3188  0.2129
  789MOL0     H 6508   6.720   5.311  10.227  0.9857  0.0614 -1.2971
  789MOL0     H 6509   6.905   5.489  10.299  1.9895 -1.0646 -0.2364
  789MOL0     H 6510   6.951   5.329  10.246  0.6634 -0.0993  0.3879
  789MOL0     H 6511   7.112   5.572   9.938  0.8729  4.2766  2.7130
  789MOL0     H 6512   6.457   5.704  10.015 -0.6459 -1.2424  1.3291
  789MOL0     H 6513   6.198   5.804   9.774  0.8599  0.7503 -0.2337
  789MOL0     H 6514   6.294   5.932   9.852 -0.9730  0.7836 -0.8608
  789MOL0     H 6515   6.358   5.772   9.811 -1.1144 -1.4042  1.1992
  790MOL0     O 6516   2.422   0.337   3.015  0.1303 -0.2875 -0.9292
  790MOL0     C 6517   2.364   0.445   3.012  0.0992  0.0330 -1.0285
  790MOL0     O 6518   2.293   0.497   3.126  0.3551 -0.2310  0.3407
  790MOL0     C 6519   2.328   0.437   3.244 -0.2236  0.2972  0.5781
  790MOL0     C 6520   2.230   0.372   3.331 -0.2979 -1.0301 -0.0931
  790MOL0     C 6521   2.270   0.316   3.452  0.2873 -0.6880 -0.6141
  790MOL0     C 6522   2.403   0.330   3.490  1.0267 -0.1698 -0.7810
  790MOL0     O 6523   2.455   0.303   3.613  0.2171  0.2524  0.2199
  790MOL0     C 6524   2.389   0.191   3.673  0.4509 -0.1904  0.0596
  790MOL0     C 6525   2.457   0.132   3.792 -0.2702 -0.4675 -0.4365
  790MOL0     C 6526   2.614   0.139   3.792  0.7833 -0.7027 -0.0530
  790MOL0     C 6527   2.679   0.064   3.908 -0.2312  0.7648 -0.2408
  790MOL0     C 6528   2.676  -0.090   3.883  0.2701 -0.7324  0.6705
  790MOL0     C 6529   2.701  -0.161   4.011 -0.8156  0.0993 -0.0989
  790MOL0     C 6530   2.760  -0.300   3.984  0.6619  1.3473  0.9541
  790MOL0     C 6531   2.654  -0.390   3.916 -0.2807 -0.1434  0.3705
  790MOL0     N 6532   2.726  -0.511   3.867  0.6628  0.0476 -0.3372
  790MOL0     C 6533   2.737  -0.630   3.926  0.7858 -0.1880  0.2352
  790MOL0     C 6534   2.810  -0.712   3.844  0.3033 -0.4455  0.2405
  790MOL0     C 6535   2.831  -0.857   3.856  0.9195 -0.1760 -1.1471
  790MOL0     C 6536   2.910  -0.889   3.987 -0.6004 -0.4289 -0.4726
  790MOL0     C 6537   3.054  -0.827   3.987 -0.1138 -0.3214 -0.0686
  790MOL0     C 6538   3.133  -0.857   4.111 -0.7875  0.7279 -0.5090
  790MOL0     O 6539   3.263  -0.795   4.121  0.1869  0.0203  0.2600
  790MOL0     C 6540   3.280  -0.681   4.208 -0.3989  0.6473  0.8491
  790MOL0     C 6541   3.398  -0.677   4.278  0.7348 -0.5229  0.4541
  790MOL0     C 6542   3.410  -0.578   4.375 -0.6075  0.1316  0.5554
  790MOL0     C 6543   3.324  -0.473   4.392 -0.1124  0.1968  1.1716
  790MOL0     C 6544   3.352  -0.367   4.483  1.2008  0.3267 -0.0713
  790MOL0     O 6545   3.423  -0.385   4.594 -0.2470 -0.7687  0.1914
  790MOL0     C 6546   3.440  -0.272   4.678  0.2625  0.6814 -0.5462
  790MOL0     C 6547   3.342  -0.173   4.711 -0.7404  0.1570  0.5497
  790MOL0     C 6548   3.381  -0.059   4.785 -0.9032 -0.0729 -0.8839
  790MOL0     C 6549   3.510  -0.048   4.835 -1.0126  0.1305  0.3252
  790MOL0     O 6550   3.533   0.064   4.923  0.5614  0.7107 -0.6903
  790MOL0     C 6551   3.614   0.166   4.880 -0.2920  0.9303 -1.5292
  790MOL0     C 6552   3.761   0.137   4.881 -1.1387  0.2949  0.1902
  790MOL0     C 6553   3.808   0.055   5.015  1.0716  0.0039 -1.0282
  790MOL0     C 6554   3.957   0.089   5.059  0.0070  0.3091 -0.6406
  790MOL0     C 6555   3.988   0.059   5.209  0.1157  0.2073  0.2277
  790MOL0     C 6556   4.136   0.067   5.243 -0.0596  0.5069  0.0269
  790MOL0     C 6557   4.221  -0.042   5.177 -0.7343  1.2068 -0.0027
  790MOL0     C 6558   4.353   0.018   5.121 -0.4271  0.2025  0.2351
  790MOL0    Cl 6559   4.428   0.125   5.243  0.1304  0.2422 -0.3015
  790MOL0     C 6560   3.600  -0.156   4.822  0.4125 -0.1860 -0.0664
  790MOL0     C 6561   3.564  -0.265   4.746  0.0443  1.2041 -0.3401
  790MOL0     O 6562   3.308  -0.263   4.437 -0.6630 -0.1165 -0.3104
  790MOL0     C 6563   3.208  -0.474   4.310  0.4051 -0.2163  1.3308
  790MOL0     C 6564   3.186  -0.575   4.221 -0.3652 -0.2126  0.9865
  790MOL0     N 6565   2.833  -0.640   3.726 -0.8608  0.0084 -0.1996
  790MOL0     N 6566   2.783  -0.520   3.744 -0.3133 -0.7694 -0.3075
  790MOL0     C 6567   2.501   0.400   3.411  0.9056 -0.7996 -0.3188
  790MOL0     C 6568   2.459   0.452   3.287 -0.1174  0.9329  0.6660
  790MOL0     C 6569   2.358   0.527   2.889  0.4707  0.5549  0.3127
  790MOL0     C 6570   2.296   0.651   2.893 -0.8585  0.2238  0.4157
  790MOL0     C 6571   2.300   0.735   2.787 -0.1947 -0.4665  0.0484
  790MOL0     C 6572   2.344   0.697   2.658 -0.5773  0.4269 -0.1770
  790MOL0     O 6573   2.343   0.790   2.560  0.4245  0.4115 -0.0302
  790MOL0     C 6574   2.230   0.781   2.469 -0.2293  0.5416  0.5337
  790MOL0     C 6575   2.168   0.915   2.426 -0.2025  0.0703  0.1093
  790MOL0     C 6576   2.270   1.001   2.344  0.2164  0.8016  0.3434
  790MOL0     C 6577   2.273   0.936   2.194 -1.0271 -0.1054  0.2744
  790MOL0     C 6578   2.155   0.990   2.106 -0.0173 -1.1700 -1.0405
  790MOL0     C 6579   2.070   1.037   2.035  0.4259 -0.7899  0.6113
  790MOL0     C 6580   2.400   0.564   2.652  0.4666 -0.3060 -1.0691
  790MOL0     C 6581   2.415   0.487   2.764  0.0381  0.6837 -1.0408
  790MOL0     C 6582   2.494   0.362   2.744  0.2312  0.5282 -0.6313
  790MOL0     H 6583   2.125   0.360   3.306 -0.7897  0.4086  1.1198
  790MOL0     H 6584   2.193   0.260   3.503 -0.5347  0.7136 -0.2678
  790MOL0     H 6585   2.294   0.221   3.717  0.8000  3.0286 -1.0700
  790MOL0     H 6586   2.380   0.107   3.604 -0.3974  1.3464 -1.7981
  790MOL0     H 6587   2.425   0.029   3.812  1.9858 -1.5318 -1.9659
  790MOL0     H 6588   2.442   0.193   3.882 -1.4344 -3.0711  1.2409
  790MOL0     H 6589   2.636   0.246   3.797 -2.8034  0.1196  0.8409
  790MOL0     H 6590   2.665   0.100   3.703  3.1028  0.0450  0.8547
  790MOL0     H 6591   2.782   0.092   3.931 -0.6196 -0.0747  2.9877
  790MOL0     H 6592   2.629   0.091   4.001  0.3303 -0.4821  0.4457
  790MOL0     H 6593   2.578  -0.120   3.843  0.7766 -2.4524  0.6065
  790MOL0     H 6594   2.746  -0.117   3.804 -2.5395 -0.0807 -2.2934
  790MOL0     H 6595   2.773  -0.111   4.077  0.2006 -2.5778  0.9768
  790MOL0     H 6596   2.608  -0.173   4.067 -1.6311  3.2538 -0.6046
  790MOL0     H 6597   2.772  -0.346   4.082  0.8362 -0.4993  0.0993
  790MOL0     H 6598   2.859  -0.292   3.938 -0.5191  1.1966 -1.7764
  790MOL0     H 6599   2.575  -0.415   3.988 -0.3528  0.3971  0.4889
  790MOL0     H 6600   2.608  -0.337   3.832  0.2983  0.0575  0.1768
  790MOL0     H 6601   2.706  -0.657   4.026  0.2353 -1.1467 -0.1794
  790MOL0     H 6602   2.731  -0.902   3.863  1.2399 -0.6286  1.6542
  790MOL0     H 6603   2.881  -0.889   3.764 -1.1480  0.4581 -2.5651
  790MOL0     H 6604   2.867  -0.871   4.086 -0.5998 -2.9986  0.0730
  790MOL0     H 6605   2.922  -0.998   3.991 -0.4358 -0.4345 -0.9768
  790MOL0     H 6606   3.047  -0.719   3.968 -0.8498 -0.3399  0.0771
  790MOL0     H 6607   3.103  -0.882   3.906 -3.1738 -1.5543 -1.1906
  790MOL0     H 6608   3.155  -0.964   4.118 -1.1042  0.6672 -0.3911
  790MOL0     H 6609   3.068  -0.836   4.197  0.3407  3.6782 -0.2533
  790MOL0     H 6610   3.463  -0.764   4.273  1.1865 -0.1768  0.1771
  790MOL0     H 6611   3.494  -0.592   4.442 -0.5688  0.0898  0.4986
  790MOL0     H 6612   3.246  -0.170   4.660  0.0981  0.3167 -1.0902
  790MOL0     H 6613   3.305   0.016   4.805 -0.8559 -0.8022  2.7928
  790MOL0     H 6614   3.597   0.198   4.777  2.3444  2.1344 -1.6812
  790MOL0     H 6615   3.599   0.251   4.948  0.0838  2.3865 -3.1919
  790MOL0     H 6616   3.783   0.069   4.798 -2.1448 -0.8621  0.8390
  790MOL0     H 6617   3.828   0.224   4.881  2.0099 -1.9306  1.0750
  790MOL0     H 6618   3.740   0.080   5.096  0.2610 -1.5715 -1.1815
  790MOL0     H 6619   3.817  -0.051   4.989  0.7717 -0.3325  0.2050
  790MOL0     H 6620   3.978   0.196   5.056 -0.3781  0.4560  0.9858
  790MOL0     H 6621   4.026   0.047   4.986 -1.1241 -1.1962 -0.8884
  790MOL0     H 6622   3.950  -0.040   5.236  1.5751 -0.6741 -0.8174
  790MOL0     H 6623   3.932   0.130   5.271 -1.9391  1.6473 -3.0134
  790MOL0     H 6624   4.175   0.163   5.206  0.9673 -0.1286 -0.5820
  790MOL0     H 6625   4.162   0.075   5.349 -2.1298 -0.3629  0.6539
  790MOL0     H 6626   4.171  -0.086   5.090 -2.4810  2.8700  0.1016
  790MOL0     H 6627   4.247  -0.127   5.242  0.6509  1.9556  0.4709
  790MOL0     H 6628   4.435  -0.047   5.088  1.3639  1.9513  1.0432
  790MOL0     H 6629   4.334   0.082   5.035 -0.3394  2.0947  1.5612
  790MOL0     H 6630   3.696  -0.154   4.874  0.5325 -0.3269 -0.2786
  790MOL0     H 6631   3.631  -0.350   4.743 -2.4083 -0.8294 -1.5918
  790MOL0     H 6632   3.146  -0.387   4.294  0.2039 -0.8117 -1.7015
  790MOL0     H 6633   3.096  -0.570   4.159  0.8434  1.2700 -0.7505
  790MOL0     H 6634   2.591   0.429   3.464  0.6657 -0.3626 -0.1465
  790MOL0     H 6635   2.526   0.505   3.219  2.1879 -2.7008 -0.2086
  790MOL0     H 6636   2.265   0.695   2.987  0.0363  2.1280 -0.1080
  790MOL0     H 6637   2.282   0.840   2.807  1.7565  0.0964 -0.9622
  790MOL0     H 6638   2.149   0.726   2.517  1.2463 -0.8838  1.5351
  790MOL0     H 6639   2.267   0.728   2.381  0.1496 -0.0825  1.0630
  790MOL0     H 6640   2.121   0.971   2.508 -1.4053  0.2413 -0.6838
  790MOL0     H 6641   2.087   0.890   2.357  0.7553  0.5948 -1.2457
  790MOL0     H 6642   2.369   1.022   2.387  0.7245  1.8526 -1.2483
  790MOL0     H 6643   2.217   1.096   2.335 -0.0761  0.5522 -0.6825
  790MOL0     H 6644   2.367   0.967   2.148 -0.8081 -0.9049  0.1743
  790MOL0     H 6645   2.272   0.827   2.205  1.5796 -0.0824  1.6298
  790MOL0     H 6646   1.989   1.077   1.978  1.8451  0.8252 -0.4009
  790MOL0     H 6647   2.432   0.537   2.552 -0.3311  0.9598 -1.6817
  790MOL0     H 6648   2.438   0.276   2.779  0.4620  0.5169 -0.2844
  790MOL0     H 6649   2.516   0.344   2.638  2.8927 -1.7852  0.1811
  790MOL0     H 6650   2.588   0.346   2.798  2.2475  0.8216 -3.7764
  791MOL0     O 6651   3.273  10.393   2.862  0.6702  0.1531 -0.1169
  791MOL0     C 6652   3.227  10.488   2.813 -0.4647  0.3111 -0.0631
  791MOL0     O 6653   3.119  10.487   2.741  0.1903  0.6699  0.3007
  791MOL0     C 6654   3.052  10.371   2.707  0.0142 -0.9155  0.6643
  791MOL0     C 6655   2.993  10.373   2.578  0.4444  0.3727  0.5164
  791MOL0     C 6656   2.929  10.252   2.532 -0.6765  0.4002  0.2111
  791MOL0     C 6657   2.912  10.147   2.616 -0.2698 -0.4688  0.5755
  791MOL0     O 6658   2.857  10.032   2.584  0.9114 -0.4739 -0.3694
  791MOL0     C 6659   2.709  10.036   2.611 -0.6304 -1.2515  0.3336
  791MOL0     C 6660   2.661   9.883   2.603  0.6728 -0.4335 -0.4777
  791MOL0     C 6661   2.506   9.871   2.615  0.3871 -0.0143 -0.2329
  791MOL0     C 6662   2.415   9.952   2.530  0.1644 -0.3808  0.4277
  791MOL0     C 6663   2.425   9.927   2.385 -0.1250  0.3087 -0.0227
  791MOL0     C 6664   2.330  10.013   2.304 -0.7667  0.2739  0.5658
  791MOL0     C 6665   2.366  10.160   2.295  0.2552  0.5152 -0.2306
  791MOL0     C 6666   2.278  10.235   2.198  0.5293 -0.3889  0.3679
  791MOL0     N 6667   2.136  10.231   2.251 -0.5138 -0.2990  1.0135
  791MOL0     C 6668   2.077  10.317   2.342 -0.5829 -0.4603  1.1702
  791MOL0     C 6669   1.944  10.297   2.322  0.2503 -0.1541 -0.1312
  791MOL0     C 6670   1.850  10.376   2.407 -0.0122  0.2061 -0.2885
  791MOL0     C 6671   1.710  10.320   2.421 -0.3178  0.3205 -0.3738
  791MOL0     C 6672   1.702  10.183   2.491 -0.4776 -0.3446 -0.5299
  791MOL0     C 6673   1.584  10.162   2.592 -0.4226  0.2801  0.5328
  791MOL0     O 6674   1.453  10.185   2.534  0.0239 -0.5576  0.9223
  791MOL0     C 6675   1.347  10.180   2.625  0.0458 -1.1314  0.7774
  791MOL0     C 6676   1.218  10.207   2.566 -0.5356 -0.4807  0.8066
  791MOL0     C 6677   1.111  10.207   2.651  0.3201  0.3966  0.3674
  791MOL0     C 6678   1.114  10.171   2.788 -0.1767 -0.7641  0.0750
  791MOL0     C 6679   0.999  10.176   2.879  0.4226  0.6535 -0.6734
  791MOL0     O 6680   0.975  10.071   2.948  0.5093  0.3954  0.6219
  791MOL0     C 6681   0.877  10.077   3.045 -1.1662 -0.3265 -0.4668
  791MOL0     C 6682   0.737  10.104   3.020 -0.3199  0.4348  0.3041
  791MOL0     C 6683   0.649  10.092   3.129  0.0028  0.1203 -0.6472
  791MOL0     C 6684   0.691  10.061   3.269 -0.8849 -0.2557  0.0068
  791MOL0     O 6685   0.617  10.025   3.374 -0.3613 -0.6709 -0.7984
  791MOL0     C 6686   0.484  10.073   3.371 -0.5960  0.0166 -0.1383
  791MOL0     C 6687   0.418  10.068   3.506 -0.1514 -0.9315  0.3173
  791MOL0     C 6688   0.265  10.086   3.489 -1.3794  1.0190  0.5016
  791MOL0     C 6689   0.213  10.107   3.632  0.4499  0.9821 -0.5530
  791MOL0     C 6690   0.219   9.984   3.726  0.3584  0.1135  0.5045
  791MOL0     C 6691   0.133   9.866   3.677  0.3976  0.5229 -0.4155
  791MOL0     C 6692   0.154   9.737   3.754  0.1262  0.1842 -0.6329
  791MOL0     C 6693   0.301   9.700   3.755 -0.2195 -0.0984 -0.4139
  791MOL0    Cl 6694   0.375   9.669   3.593 -0.4801  0.9106  0.0366
  791MOL0     C 6695   0.829  10.048   3.282  0.6024  0.6846 -0.6481
  791MOL0     C 6696   0.918  10.040   3.173 -0.1852  0.1730 -0.0013
  791MOL0     O 6697   0.925  10.277   2.875 -0.5101  0.1820 -0.6328
  791MOL0     C 6698   1.241  10.126   2.838  0.9216 -0.5762  0.5683
  791MOL0     C 6699   1.351  10.128   2.757  0.5227 -0.4842 -1.0789
  791MOL0     N 6700   1.918  10.216   2.212 -0.1813  0.1796 -0.7054
  791MOL0     N 6701   2.036  10.173   2.180  0.3207 -0.2465 -0.1226
  791MOL0     C 6702   2.961  10.154   2.749 -0.4015 -0.3883 -0.1183
  791MOL0     C 6703   3.020  10.271   2.794  0.9931 -0.3162 -0.4524
  791MOL0     C 6704   3.310  10.612   2.839  0.2813  0.5162  1.1356
  791MOL0     C 6705   3.252  10.734   2.800  0.6328 -0.5232  1.0066
  791MOL0     C 6706   3.315  10.859   2.828 -0.3358  0.6951  0.4272
  791MOL0     C 6707   3.424  10.873   2.904  0.6729 -0.6305 -1.0503
  791MOL0     O 6708   3.467  11.006   2.930  0.6000  0.7604  0.0352
  791MOL0     C 6709   3.610  11.023   2.928  0.8065  0.4407 -0.6915
  791MOL0     C 6710   3.643  11.174   2.930  0.4145  0.3687  0.0865
  791MOL0     C 6711   3.787  11.202   2.938 -0.1579  0.3139 -0.3744
  791MOL0     C 6712   3.869  11.123   2.838  0.0571 -0.6908 -0.0750
  791MOL0     C 6713   3.999  11.191   2.830 -0.6289  0.6630  0.7057
  791MOL0     C 6714   4.114  11.216   2.799  0.6595 -0.7260  0.8759
  791MOL0     C 6715   3.491  10.758   2.948 -0.4489 -0.3536 -0.7638
  791MOL0     C 6716   3.434  10.627   2.918 -0.3605  0.1664  0.9345
  791MOL0     C 6717   3.506  10.509   2.973  0.8978 -0.6667 -1.2855
  791MOL0     H 6718   2.999  10.461   2.514 -0.7584  0.4853  0.5413
  791MOL0     H 6719   2.901  10.239   2.428 -1.7441  1.6272  0.3235
  791MOL0     H 6720   2.674  10.089   2.700 -0.7481  0.9901 -0.9864
  791MOL0     H 6721   2.673  10.096   2.527  3.6497  0.5919 -0.4909
  791MOL0     H 6722   2.715   9.825   2.679 -1.7174 -0.1399  1.6025
  791MOL0     H 6723   2.687   9.849   2.503 -0.0434  0.1136 -0.8588
  791MOL0     H 6724   2.479   9.870   2.721  0.2095 -2.6598 -0.2353
  791MOL0     H 6725   2.487   9.766   2.588  3.0064 -0.5885 -0.1219
  791MOL0     H 6726   2.310   9.929   2.552  0.1873  1.0246  2.1769
  791MOL0     H 6727   2.426  10.059   2.548 -4.7007  0.3385  0.3287
  791MOL0     H 6728   2.525   9.934   2.341  0.1395 -0.1651  0.5016
  791MOL0     H 6729   2.405   9.823   2.360  0.5474 -0.8008  3.4740
  791MOL0     H 6730   2.325   9.977   2.201 -0.7458  2.6475 -0.3181
  791MOL0     H 6731   2.230  10.004   2.347  0.6838 -3.9413  3.8043
  791MOL0     H 6732   2.468  10.156   2.256  0.5831  2.3691  0.3796
  791MOL0     H 6733   2.369  10.215   2.389 -0.9708 -1.1797  0.8682
  791MOL0     H 6734   2.319  10.336   2.192 -0.7559  0.0599 -2.7654
  791MOL0     H 6735   2.285  10.190   2.099  1.6122 -0.3475  0.4132
  791MOL0     H 6736   2.142  10.370   2.412  6.0320 -3.5383 -1.8128
  791MOL0     H 6737   1.896  10.383   2.505 -3.6718  1.0950  1.5434
  791MOL0     H 6738   1.858  10.482   2.378 -2.1206  1.3933  2.9731
  791MOL0     H 6739   1.661  10.387   2.492  2.8165 -0.9179  3.2791
  791MOL0     H 6740   1.670  10.319   2.319  1.7795  1.8800 -1.2727
  791MOL0     H 6741   1.799  10.160   2.537 -0.1608  1.0946 -0.4513
  791MOL0     H 6742   1.702  10.111   2.408 -3.4178 -1.3385  0.2392
  791MOL0     H 6743   1.592  10.240   2.669 -0.7613 -0.9999  1.8944
  791MOL0     H 6744   1.596  10.067   2.644  1.7923  0.3734  0.2839
  791MOL0     H 6745   1.210  10.237   2.462  4.2116 -1.7207 -0.1927
  791MOL0     H 6746   1.018  10.239   2.606  0.1207  0.6296  0.9320
  791MOL0     H 6747   0.682  10.113   2.927 -3.9324 -0.3067  2.1839
  791MOL0     H 6748   0.543  10.109   3.117 -0.7152 -0.8221  2.9788
  791MOL0     H 6749   0.489  10.179   3.345 -1.1440  0.5647  1.7854
  791MOL0     H 6750   0.431  10.008   3.301  1.8800 -2.3843  0.0667
  791MOL0     H 6751   0.448   9.977   3.558  2.4249 -0.6307 -0.5024
  791MOL0     H 6752   0.452  10.162   3.550 -1.7849 -0.6088  0.9509
  791MOL0     H 6753   0.241  10.174   3.429 -4.7590  1.5060  2.3155
  791MOL0     H 6754   0.228   9.999   3.434  1.4709  0.4854 -0.7732
  791MOL0     H 6755   0.107  10.132   3.623  0.0241  1.4661  3.5660
  791MOL0     H 6756   0.249  10.196   3.684  0.3073  0.4182  0.5474
  791MOL0     H 6757   0.182  10.005   3.827 -2.4778 -0.8201 -0.2173
  791MOL0     H 6758   0.325   9.966   3.743  1.2501  3.1319 -1.3154
  791MOL0     H 6759   0.029   9.894   3.698  0.0573 -0.9481 -0.0087
  791MOL0     H 6760   0.150   9.851   3.570  1.5427 -3.2718  0.1354
  791MOL0     H 6761   0.092   9.659   3.709  2.3205 -0.1742 -3.2875
  791MOL0     H 6762   0.118   9.771   3.852  1.6755  2.5745 -0.7832
  791MOL0     H 6763   0.357   9.768   3.819 -1.3921  1.6320 -1.1419
  791MOL0     H 6764   0.315   9.606   3.808 -0.7630 -0.9918 -1.7704
  791MOL0     H 6765   0.873  10.020   3.377  0.8704  3.2415  0.0634
  791MOL0     H 6766   1.023  10.020   3.191 -0.3077 -2.3464 -1.5880
  791MOL0     H 6767   1.270  10.101   2.940 -0.7195 -4.6490  0.2439
  791MOL0     H 6768   1.437  10.110   2.821 -2.3935 -0.4951  3.2958
  791MOL0     H 6769   2.950  10.069   2.815 -1.3423  3.3888  5.3095
  791MOL0     H 6770   3.054  10.286   2.896 -1.5019 -1.2014  0.5864
  791MOL0     H 6771   3.165  10.732   2.736  1.5004 -1.3898 -0.1937
  791MOL0     H 6772   3.269  10.948   2.786  0.0143  0.6551 -0.0455
  791MOL0     H 6773   3.653  10.972   2.842  0.1771  0.6221 -1.1205
  791MOL0     H 6774   3.651  10.979   3.020 -0.8109  2.3712  1.0676
  791MOL0     H 6775   3.583  11.228   3.004  1.4873  0.9664  0.5447
  791MOL0     H 6776   3.611  11.206   2.830  0.6987 -0.3380 -0.2422
  791MOL0     H 6777   3.821  11.198   3.042 -1.0995 -2.4433 -0.0747
  791MOL0     H 6778   3.792  11.309   2.917  2.7074  0.3121 -0.1657
  791MOL0     H 6779   3.882  11.021   2.875 -2.7583 -0.4769  1.7787
  791MOL0     H 6780   3.811  11.116   2.745  0.7637  0.1755 -0.5951
  791MOL0     H 6781   4.213  11.228   2.761  0.6683 -0.7679  0.8871
  791MOL0     H 6782   3.582  10.758   3.007 -0.8111  1.6612 -0.1488
  791MOL0     H 6783   3.585  10.545   3.039 -1.5162 -1.2428  2.2067
  791MOL0     H 6784   3.431  10.461   3.037  2.3487 -1.2278  0.0603
  791MOL0     H 6785   3.543  10.438   2.898  0.4537 -1.4556 -0.7827
  792MOL0     O 6786   8.853   8.830  10.129  0.6000 -0.0761 -0.2313
  792MOL0     C 6787   8.855   8.727  10.197  0.4212 -0.2825 -0.0426
  792MOL0     O 6788   8.953   8.679  10.259  0.1946  0.0985 -0.3676
  792MOL0     C 6789   9.084   8.724  10.237 -0.6077 -0.0703 -0.0000
  792MOL0     C 6790   9.169   8.713  10.355  0.6732 -1.2058 -0.6018
  792MOL0     C 6791   9.305   8.749  10.352  0.0623  0.1890  0.7003
  792MOL0     C 6792   9.351   8.817  10.237 -0.5823 -0.3963  0.4423
  792MOL0     O 6793   9.475   8.883  10.220 -0.6526  0.4221  0.2278
  792MOL0     C 6794   9.588   8.817  10.281  0.0886 -0.1856  0.5641
  792MOL0     C 6795   9.717   8.887  10.216  0.2490  0.2968 -0.5156
  792MOL0     C 6796   9.732   8.854  10.061  0.2538 -0.6692  0.1591
  792MOL0     C 6797   9.876   8.885  10.012 -0.2154  0.3574  0.1759
  792MOL0     C 6798   9.897   8.880   9.860 -0.1532  0.2939  0.0408
  792MOL0     C 6799  10.033   8.820   9.842  0.0020 -0.5245  0.3948
  792MOL0     C 6800  10.078   8.796   9.693  0.6203  0.3157 -0.2314
  792MOL0     C 6801  10.194   8.695   9.707  0.5880 -1.4251  0.4453
  792MOL0     N 6802  10.325   8.758   9.745  0.6598  0.1392  0.3919
  792MOL0     C 6803  10.442   8.744   9.667 -0.0579  0.1620 -0.4397
  792MOL0     C 6804  10.542   8.800   9.747 -0.3539  0.1012  0.6847
  792MOL0     C 6805  10.682   8.796   9.690  0.7417 -0.8073 -0.2399
  792MOL0     C 6806  10.767   8.880   9.780 -0.3413  0.7469  0.8954
  792MOL0     C 6807  10.921   8.878   9.758  0.4749 -0.6870 -0.1457
  792MOL0     C 6808  10.999   8.998   9.824 -0.4820  0.5070 -0.1306
  792MOL0     O 6809  11.041   8.952   9.956  0.0451 -0.5322 -0.0191
  792MOL0     C 6810  11.001   9.046  10.045  0.4252  0.0564  0.4429
  792MOL0     C 6811  10.875   9.038  10.097 -0.5871  0.8699 -1.1909
  792MOL0     C 6812  10.847   9.112  10.215 -0.0409 -0.9162  0.3489
  792MOL0     C 6813  10.937   9.200  10.278  0.0278  0.3639 -0.0458
  792MOL0     C 6814  10.895   9.257  10.411  0.1271 -0.2062  0.1429
  792MOL0     O 6815  10.985   9.274  10.506  0.1512  0.1705  0.3744
  792MOL0     C 6816  10.934   9.322  10.627  0.0465  0.8294 -0.5077
  792MOL0     C 6817  10.888   9.239  10.742 -0.7860 -0.2765  0.1629
  792MOL0     C 6818  10.838   9.302  10.860 -0.2595 -0.5843  0.0504
  792MOL0     C 6819  10.830   9.441  10.862  0.6546  0.3341 -0.8537
  792MOL0     O 6820  10.780   9.509  10.968  0.1362 -0.2536  0.4888
  792MOL0     C 6821  10.659   9.460  11.032 -0.2234 -0.1806 -0.1787
  792MOL0     C 6822  10.619   9.557  11.142  0.7661  0.0809  0.6203
  792MOL0     C 6823  10.540   9.685  11.083  0.3638 -0.3140  1.0562
  792MOL0     C 6824  10.493   9.783  11.177  1.0631 -0.3417 -0.4055
  792MOL0     C 6825  10.415   9.898  11.108 -0.3280 -0.3450  0.3658
  792MOL0     C 6826  10.524   9.996  11.037 -0.8279  1.8212  0.0810
  792MOL0     C 6827  10.446  10.109  10.980  0.4640 -0.8708  0.4190
  792MOL0     C 6828  10.527  10.217  10.915  0.3710 -0.4408  0.3343
  792MOL0    Cl 6829  10.624  10.149  10.774 -0.0692  0.2406 -0.2863
  792MOL0     C 6830  10.861   9.523  10.750  0.0560 -0.1312 -1.1184
  792MOL0     C 6831  10.918   9.463  10.639  0.4163  0.4260  0.7495
  792MOL0     O 6832  10.772   9.281  10.416 -0.8388 -0.4368 -0.3645
  792MOL0     C 6833  11.071   9.183  10.235  0.3342 -0.5261 -0.3180
  792MOL0     C 6834  11.100   9.118  10.115 -0.1402  0.2416 -1.7691
  792MOL0     N 6835  10.484   8.844   9.869 -0.2512 -0.8150 -0.5302
  792MOL0     N 6836  10.356   8.814   9.861  0.5615 -0.3556 -1.0156
  792MOL0     C 6837   9.267   8.839  10.129  0.0008  0.0425 -0.2304
  792MOL0     C 6838   9.141   8.789  10.128  0.6252  0.0624  1.0582
  792MOL0     C 6839   8.728   8.655  10.219  0.5063  0.5242 -0.3586
  792MOL0     C 6840   8.733   8.529  10.269 -0.0819  0.0490 -0.0696
  792MOL0     C 6841   8.619   8.457  10.313 -0.2253 -0.4235  0.1477
  792MOL0     C 6842   8.496   8.523  10.317 -0.1931  0.2804  0.0072
  792MOL0     O 6843   8.391   8.455  10.371 -0.2117 -0.1750  0.0859
  792MOL0     C 6844   8.255   8.491  10.336 -0.6138  0.0578 -0.7841
  792MOL0     C 6845   8.174   8.363  10.346 -0.1224 -0.9107 -0.0321
  792MOL0     C 6846   8.158   8.315  10.491  0.2533 -0.1511  0.1146
  792MOL0     C 6847   8.045   8.191  10.494 -0.6881 -0.4274 -0.6527
  792MOL0     C 6848   8.113   8.072  10.433 -0.1031  0.5902  0.8223
  792MOL0     C 6849   8.149   7.974  10.369  0.9200 -0.4442 -0.1130
  792MOL0     C 6850   8.487   8.651  10.265 -0.5266  0.1552  0.5346
  792MOL0     C 6851   8.595   8.722  10.217 -0.0280  0.6889  1.5818
  792MOL0     C 6852   8.583   8.861  10.173 -0.6989  0.1230 -0.5022
  792MOL0     H 6853   9.132   8.661  10.443  0.4113  0.2324  0.1641
  792MOL0     H 6854   9.373   8.738  10.436  0.9016  0.6908  0.1007
  792MOL0     H 6855   9.582   8.838  10.388  0.4186  0.7420  0.4100
  792MOL0     H 6856   9.583   8.709  10.262 -4.8691  0.1094 -1.1211
  792MOL0     H 6857   9.813   8.850  10.255  0.8445 -0.3693 -2.4647
  792MOL0     H 6858   9.717   8.993  10.241  0.8385 -0.1147  1.4005
  792MOL0     H 6859   9.669   8.928  10.010  2.1010  0.4254 -0.6451
  792MOL0     H 6860   9.716   8.750  10.032 -1.4806 -0.8540  1.6436
  792MOL0     H 6861   9.914   8.981  10.047  1.5250 -0.5857  1.0185
  792MOL0     H 6862   9.936   8.814  10.071 -0.2620  0.7712  0.7249
  792MOL0     H 6863   9.823   8.815   9.814 -0.1818  0.3386  0.0231
  792MOL0     H 6864   9.883   8.980   9.819  0.7695  0.4265  0.0070
  792MOL0     H 6865  10.105   8.890   9.887 -1.3206  1.5821 -0.6046
  792MOL0     H 6866  10.033   8.726   9.897 -0.5550 -1.4990 -1.2162
  792MOL0     H 6867  10.112   8.886   9.641 -2.6083  0.5476 -2.1930
  792MOL0     H 6868   9.987   8.751   9.653 -0.7029  1.9860  0.7094
  792MOL0     H 6869  10.160   8.619   9.778  1.1458 -0.4248  1.8392
  792MOL0     H 6870  10.201   8.641   9.612  0.5084  0.1893 -0.5211
  792MOL0     H 6871  10.444   8.715   9.563 -1.2265  2.9765 -1.3434
  792MOL0     H 6872  10.719   8.693   9.692  2.1495 -0.3589 -1.4015
  792MOL0     H 6873  10.683   8.827   9.585  0.7282 -2.4543 -0.7574
  792MOL0     H 6874  10.735   8.984   9.774 -0.0159  0.7905 -0.2005
  792MOL0     H 6875  10.750   8.844   9.882 -0.2521 -0.4436  0.5068
  792MOL0     H 6876  10.948   8.891   9.652  0.3270  0.3730 -0.0663
  792MOL0     H 6877  10.961   8.783   9.793 -1.6714 -0.9067  1.9142
  792MOL0     H 6878  10.944   9.091   9.812 -2.2988 -0.8131 -3.6675
  792MOL0     H 6879  11.088   9.008   9.761 -0.9368 -0.5409 -0.9795
  792MOL0     H 6880  10.809   8.964  10.054  0.5378 -0.2548 -1.0439
  792MOL0     H 6881  10.747   9.101  10.255 -0.5851  2.1599  0.1023
  792MOL0     H 6882  10.898   9.131  10.751  1.6068 -0.2488 -1.2849
  792MOL0     H 6883  10.802   9.244  10.945 -0.6757 -1.1327 -0.4931
  792MOL0     H 6884  10.580   9.455  10.956  0.4537 -1.7329 -0.8239
  792MOL0     H 6885  10.678   9.361  11.076  3.6237  0.9283  1.0337
  792MOL0     H 6886  10.554   9.508  11.216  0.8585 -0.1849  0.5280
  792MOL0     H 6887  10.712   9.574  11.198  2.0718 -0.3801 -1.3175
  792MOL0     H 6888  10.595   9.737  11.003  1.0137  0.7307  2.1394
  792MOL0     H 6889  10.454   9.645  11.028  0.1825  0.2938  0.8851
  792MOL0     H 6890  10.584   9.822  11.224  1.7923  2.6641 -3.8751
  792MOL0     H 6891  10.418   9.736  11.242  0.6451 -1.6369 -1.7908
  792MOL0     H 6892  10.363   9.961  11.181  1.3451 -0.4736  1.7430
  792MOL0     H 6893  10.332   9.869  11.044 -1.5384  2.0486  0.7195
  792MOL0     H 6894  10.587  10.033  11.118  0.0278  0.1184  0.2460
  792MOL0     H 6895  10.575   9.952  10.951 -3.0941  3.7776 -2.4224
  792MOL0     H 6896  10.389  10.160  11.058  1.3339 -2.3177  2.0664
  792MOL0     H 6897  10.377  10.074  10.903  0.7363  0.0622 -0.2722
  792MOL0     H 6898  10.456  10.292  10.880  1.5693  0.2810 -0.6323
  792MOL0     H 6899  10.598  10.259  10.987  0.1904 -0.9540  0.8171
  792MOL0     H 6900  10.833   9.628  10.756  1.1163  0.0938  0.7490
  792MOL0     H 6901  10.948   9.528  10.557 -1.3655  3.4052  2.2754
  792MOL0     H 6902  11.141   9.216  10.311  0.5835 -0.9565 -0.3553
  792MOL0     H 6903  11.203   9.099  10.085 -0.1304 -3.1786 -0.1297
  792MOL0     H 6904   9.306   8.898  10.047 -0.7982 -1.4219 -1.7261
  792MOL0     H 6905   9.081   8.805  10.040 -0.4998 -0.2882  1.7390
  792MOL0     H 6906   8.838   8.501  10.266  1.0304  3.7771 -2.0897
  792MOL0     H 6907   8.626   8.363  10.366  2.2667 -0.3916 -0.0369
  792MOL0     H 6908   8.253   8.551  10.244 -0.2356  0.8375 -0.2984
  792MOL0     H 6909   8.208   8.551  10.414 -0.8746 -3.3359  1.9296
  792MOL0     H 6910   8.214   8.282  10.286 -0.0733  1.1412 -2.9615
  792MOL0     H 6911   8.080   8.397  10.300  0.7746  2.0272  0.0806
  792MOL0     H 6912   8.125   8.400  10.553 -1.4731  0.9929 -2.2386
  792MOL0     H 6913   8.252   8.273  10.529 -0.9555 -1.3450  1.9387
  792MOL0     H 6914   8.010   8.163  10.593  1.9810 -0.7287  0.2963
  792MOL0     H 6915   7.958   8.203  10.429  0.2811  0.0872 -1.9043
  792MOL0     H 6916   8.186   7.880  10.335  0.6838 -0.0798 -1.4392
  792MOL0     H 6917   8.387   8.693  10.267 -1.7011 -2.2258 -2.0344
  792MOL0     H 6918   8.642   8.947  10.207 -2.3833  1.0991  0.0154
  792MOL0     H 6919   8.600   8.861  10.065 -0.4520 -0.5932 -0.4691
  792MOL0     H 6920   8.486   8.902  10.201  0.1956  1.0683  1.4024
  793MOL0     O 6921  11.444   8.979   4.313 -0.3234  0.6480 -0.2816
  793MOL0     C 6922  11.361   8.886   4.322 -0.5390 -0.1706  0.1429
  793MOL0     O 6923  11.272   8.855   4.233  0.5267  0.7410  0.8045
  793MOL0     C 6924  11.252   8.916   4.106  0.3423  0.2369 -0.1744
  793MOL0     C 6925  11.342   9.001   4.038  0.4563 -0.9206  0.5501
  793MOL0     C 6926  11.307   9.080   3.924  0.4288  0.4966 -1.2964
  793MOL0     C 6927  11.181   9.065   3.867 -1.4479  0.0952  0.9184
  793MOL0     O 6928  11.155   9.135   3.758 -0.4092 -0.0036  0.0836
  793MOL0     C 6929  11.034   9.209   3.755 -0.5980  0.4059 -0.5729
  793MOL0     C 6930  11.043   9.354   3.779 -0.6937 -0.4180 -0.7939
  793MOL0     C 6931  11.082   9.382   3.928  0.8259 -0.5258  0.4522
  793MOL0     C 6932  11.065   9.535   3.956  0.4233  0.0831 -1.0888
  793MOL0     C 6933  11.035   9.558   4.104  0.3912  0.2733  0.6252
  793MOL0     C 6934  10.979   9.702   4.127  0.5253  0.0048  0.1009
  793MOL0     C 6935  11.072   9.821   4.082  0.3732  0.8788  0.4081
  793MOL0     C 6936  11.176   9.842   4.188  0.0761  0.6320 -0.2625
  793MOL0     N 6937  11.276   9.932   4.142  0.2321  0.4507 -0.2359
  793MOL0     C 6938  11.255  10.069   4.122 -0.5044  0.0653 -0.7905
  793MOL0     C 6939  11.375  10.113   4.091 -0.9786 -0.0668  0.1424
  793MOL0     C 6940  11.413  10.245   4.018  0.7663  0.0172 -0.4118
  793MOL0     C 6941  11.376  10.215   3.870 -0.7131  1.4085 -0.0305
  793MOL0     C 6942  11.377  10.348   3.793  0.2393 -0.5945  0.0094
  793MOL0     C 6943  11.519  10.410   3.755 -0.1349 -0.7039 -0.8234
  793MOL0     O 6944  11.506  10.543   3.686  0.8918  0.7526  1.0942
  793MOL0     C 6945  11.619  10.621   3.693 -0.1462  0.1909  0.3569
  793MOL0     C 6946  11.609  10.752   3.729 -0.1860  0.1423  0.4807
  793MOL0     C 6947  11.726  10.840   3.733 -0.0521  0.6029  0.6164
  793MOL0     C 6948  11.851  10.780   3.716  0.0389 -0.0323 -0.3069
  793MOL0     C 6949  11.976  10.854   3.720  0.5459  0.4262  0.4181
  793MOL0     O 6950  12.087  10.786   3.710  0.0534  0.5227  0.5766
  793MOL0     C 6951  12.208  10.857   3.721 -0.7471  0.2327  0.9994
  793MOL0     C 6952  12.247  10.898   3.850  0.1401  1.1158  0.1899
  793MOL0     C 6953  12.374  10.956   3.859  0.2848  0.2914 -0.3502
  793MOL0     C 6954  12.467  10.977   3.758 -0.0417  0.4727  0.2678
  793MOL0     O 6955  12.594  11.024   3.760 -0.9973 -1.6714 -0.7910
  793MOL0     C 6956  12.628  11.110   3.866  0.0338 -0.2906  0.7340
  793MOL0     C 6957  12.728  11.210   3.809 -0.8091  0.4659 -0.2145
  793MOL0     C 6958  12.785  11.308   3.905 -0.7108 -0.0588 -0.9978
  793MOL0     C 6959  12.876  11.412   3.838  0.5583  0.3943  0.5109
  793MOL0     C 6960  12.977  11.486   3.935 -0.7635  0.7254  0.4864
  793MOL0     C 6961  13.091  11.397   3.996 -0.1510  0.4188  0.1856
  793MOL0     C 6962  13.168  11.467   4.108 -0.0758 -0.1223 -0.0397
  793MOL0     C 6963  13.285  11.375   4.141 -0.5887  0.9022 -0.0886
  793MOL0    Cl 6964  13.373  11.454   4.279  0.5143  0.3064 -0.0057
  793MOL0     C 6965  12.436  10.912   3.640 -0.0374 -0.6160  0.6058
  793MOL0     C 6966  12.311  10.850   3.619  0.1660  0.0309 -0.6645
  793MOL0     O 6967  11.968  10.975   3.735  1.2863 -0.6828  0.3878
  793MOL0     C 6968  11.860  10.650   3.682  0.2891  0.7536 -1.1301
  793MOL0     C 6969  11.747  10.569   3.659 -0.1683  0.8475 -0.0704
  793MOL0     N 6970  11.463  10.011   4.095 -0.1290  0.2833 -0.2791
  793MOL0     N 6971  11.407   9.905   4.142  0.7337 -0.0597  0.7614
  793MOL0     C 6972  11.101   8.964   3.917  1.6291 -0.3051 -0.1278
  793MOL0     C 6973  11.130   8.896   4.037 -0.8569  0.3762  0.7982
  793MOL0     C 6974  11.396   8.784   4.413  0.5571  0.2014 -0.3147
  793MOL0     C 6975  11.321   8.773   4.531  0.0192 -0.5354  0.5381
  793MOL0     C 6976  11.343   8.677   4.627 -0.5313  0.2038  0.7746
  793MOL0     C 6977  11.438   8.591   4.597  0.2429 -0.1067  0.0917
  793MOL0     O 6978  11.461   8.484   4.681  0.4992  0.9927  0.2323
  793MOL0     C 6979  11.361   8.401   4.731 -0.1525 -0.1556  0.1493
  793MOL0     C 6980  11.296   8.307   4.631  1.6407  0.2133  0.2818
  793MOL0     C 6981  11.278   8.351   4.482 -0.0551  0.3526 -0.2487
  793MOL0     C 6982  11.194   8.253   4.403  0.0052  0.1815  0.1076
  793MOL0     C 6983  11.053   8.266   4.432 -0.3187 -0.3365  0.2960
  793MOL0     C 6984  10.933   8.269   4.466  0.0856  0.5260  0.0545
  793MOL0     C 6985  11.515   8.595   4.479 -0.8504  0.2967 -0.6002
  793MOL0     C 6986  11.493   8.686   4.387  0.4271 -0.3230  0.0163
  793MOL0     C 6987  11.559   8.674   4.261 -0.5777  0.7859  0.2019
  793MOL0     H 6988  11.441   9.015   4.080  1.7414  1.0841 -2.7323
  793MOL0     H 6989  11.374   9.153   3.878 -1.7431  1.0841 -3.7815
  793MOL0     H 6990  10.979   9.192   3.663  0.3775  2.1657 -1.5131
  793MOL0     H 6991  10.973   9.169   3.837 -2.1576  1.4016 -1.2236
  793MOL0     H 6992  10.942   9.390   3.760 -0.5626 -0.2012 -1.0861
  793MOL0     H 6993  11.106   9.404   3.705  2.6969 -2.4657  0.4580
  793MOL0     H 6994  11.188   9.358   3.944  0.2101 -2.8887  1.4779
  793MOL0     H 6995  11.021   9.311   3.985 -0.6933 -0.4465 -0.9969
  793MOL0     H 6996  11.151   9.601   3.939  0.3017  0.9089  1.0936
  793MOL0     H 6997  10.976   9.575   3.907 -2.0384  0.4606  3.1997
  793MOL0     H 6998  10.960   9.483   4.130  2.5642 -2.3108 -0.0970
  793MOL0     H 6999  11.120   9.537   4.170  1.7580 -1.1686 -1.4630
  793MOL0     H 7000  10.878   9.701   4.084  0.0517 -1.0383  1.1633
  793MOL0     H 7001  10.972   9.709   4.236  3.0781 -3.7801  0.6787
  793MOL0     H 7002  11.013   9.913   4.080  0.8417  1.1749 -0.3484
  793MOL0     H 7003  11.126   9.804   3.988 -0.2941  4.2306 -0.7179
  793MOL0     H 7004  11.139   9.861   4.289  1.7183 -0.3427  0.5713
  793MOL0     H 7005  11.234   9.751   4.208  2.0489  1.9789  0.5429
  793MOL0     H 7006  11.164  10.125   4.141  0.3238  0.4698  2.5610
  793MOL0     H 7007  11.361  10.335   4.050 -1.1741 -0.8641 -0.9264
  793MOL0     H 7008  11.520  10.268   4.027  1.7780 -3.0008 -2.8528
  793MOL0     H 7009  11.437  10.130   3.839 -0.7516  1.2737  0.2605
  793MOL0     H 7010  11.272  10.187   3.850  0.0945 -1.3543 -0.8287
  793MOL0     H 7011  11.329  10.436   3.837  2.2016  1.1373 -1.1379
  793MOL0     H 7012  11.322  10.327   3.700 -1.2543  2.9833 -0.0868
  793MOL0     H 7013  11.569  10.334   3.695 -0.9294 -1.0118 -1.1106
  793MOL0     H 7014  11.577  10.425   3.846 -1.9128 -1.5173  0.5053
  793MOL0     H 7015  11.507  10.789   3.730 -1.3612 -2.7867 -0.0491
  793MOL0     H 7016  11.707  10.944   3.754  0.7522  0.8059  0.3560
  793MOL0     H 7017  12.194  10.881   3.943 -0.6415  1.0800 -0.2506
  793MOL0     H 7018  12.403  10.959   3.964 -2.5087 -2.1463  0.6648
  793MOL0     H 7019  12.538  11.160   3.901 -0.2641  0.9375 -1.5967
  793MOL0     H 7020  12.671  11.051   3.947 -0.4848 -2.7908 -0.6827
  793MOL0     H 7021  12.816  11.158   3.771 -0.5629  0.5373  0.2565
  793MOL0     H 7022  12.684  11.278   3.735 -2.0020  0.2656  0.2954
  793MOL0     H 7023  12.708  11.363   3.960  2.3348  2.2079  1.3144
  793MOL0     H 7024  12.843  11.257   3.983 -0.4592  0.8771 -0.5644
  793MOL0     H 7025  12.808  11.487   3.797 -0.5871 -0.5047  0.7180
  793MOL0     H 7026  12.940  11.360   3.765  0.5515 -0.6237  1.2148
  793MOL0     H 7027  12.918  11.533   4.015 -1.8783  0.9225 -0.4230
  793MOL0     H 7028  13.037  11.561   3.882 -0.6890  0.8634  0.7637
  793MOL0     H 7029  13.040  11.309   4.036  0.2633 -0.8764 -1.9822
  793MOL0     H 7030  13.156  11.366   3.914 -2.3615  1.9369 -2.3041
  793MOL0     H 7031  13.116  11.468   4.204  0.6972 -0.2204  0.3924
  793MOL0     H 7032  13.196  11.566   4.070 -1.8579  0.3759 -0.1040
  793MOL0     H 7033  13.256  11.271   4.159  1.8989 -0.2242 -2.0372
  793MOL0     H 7034  13.355  11.359   4.059  0.9957 -0.9494  1.5005
  793MOL0     H 7035  12.499  10.933   3.554 -1.7231  2.0616 -0.1093
  793MOL0     H 7036  12.288  10.798   3.526  3.3001  0.8024 -1.9923
  793MOL0     H 7037  11.952  10.598   3.655 -0.9000 -0.4573 -3.1990
  793MOL0     H 7038  11.757  10.463   3.637 -0.3957  0.7686  0.1993
  793MOL0     H 7039  11.008   8.969   3.861  1.5914  0.4332 -0.0055
  793MOL0     H 7040  11.057   8.837   4.091  1.5159 -5.2857 -1.4044
  793MOL0     H 7041  11.252   8.856   4.545 -3.4144 -2.4175 -3.3904
  793MOL0     H 7042  11.282   8.654   4.714 -2.1704 -2.6631 -0.9634
  793MOL0     H 7043  11.282   8.459   4.779  1.1848 -1.3513  4.2279
  793MOL0     H 7044  11.410   8.346   4.812  0.3851  1.6865  1.1376
  793MOL0     H 7045  11.192   8.293   4.663  0.4733  2.4517 -2.1472
  793MOL0     H 7046  11.358   8.217   4.632 -0.5394 -1.3711 -0.6263
  793MOL0     H 7047  11.375   8.346   4.432 -1.0671  0.1670 -2.3221
  793MOL0     H 7048  11.227   8.448   4.473 -2.4455 -0.7408  0.7158
  793MOL0     H 7049  11.218   8.277   4.300  4.3761  0.5300  1.0366
  793MOL0     H 7050  11.236   8.153   4.414  0.0668  0.0351 -1.3769
  793MOL0     H 7051  10.833   8.256   4.503 -0.0661  1.0891 -0.1471
  793MOL0     H 7052  11.585   8.515   4.458 -0.8480 -0.2756  1.4357
  793MOL0     H 7053  11.576   8.568   4.238  1.0302  1.3219 -1.3112
  793MOL0     H 7054  11.506   8.698   4.168 -0.2159  0.5325 -0.0725
  793MOL0     H 7055  11.660   8.717   4.261 -0.3109  0.1963  1.1923
  794MOL0     O 7056   8.027  10.560   6.871 -0.0344 -0.1988  0.4605
  794MOL0     C 7057   8.055  10.632   6.961 -0.9878 -0.4034 -0.0100
  794MOL0     O 7058   7.989  10.746   6.993 -0.1013  0.7064 -0.1590
  794MOL0     C 7059   7.895  10.802   6.903 -0.0501  0.8676  0.1077
  794MOL0     C 7060   7.769  10.752   6.887 -0.0695 -0.5453  1.0168
  794MOL0     C 7061   7.676  10.831   6.815 -0.0934  0.4695  0.5219
  794MOL0     C 7062   7.709  10.955   6.769 -0.7776  0.6289 -0.4831
  794MOL0     O 7063   7.613  11.021   6.692  0.3615 -0.1107  0.0380
  794MOL0     C 7064   7.628  11.161   6.655  0.0850  0.4982 -0.4181
  794MOL0     C 7065   7.514  11.192   6.557  0.2390  0.2852  0.4096
  794MOL0     C 7066   7.438  11.326   6.585  0.2147 -0.8669 -0.2397
  794MOL0     C 7067   7.334  11.361   6.476  0.0774 -0.1422  0.0746
  794MOL0     C 7068   7.315  11.510   6.458  0.5760 -0.2943  0.8011
  794MOL0     C 7069   7.208  11.533   6.349  0.6938  0.2852  0.2445
  794MOL0     C 7070   7.231  11.493   6.209  0.0827 -0.3804  0.3734
  794MOL0     C 7071   7.353  11.573   6.149 -0.3936 -1.0688  0.9967
  794MOL0     N 7072   7.381  11.541   6.010 -0.7817 -0.2206 -0.1962
  794MOL0     C 7073   7.300  11.552   5.901  0.1154 -0.1173 -1.0704
  794MOL0     C 7074   7.385  11.520   5.800  0.0639  0.0274  0.4751
  794MOL0     C 7075   7.346  11.535   5.654  0.1399 -0.0337  0.9748
  794MOL0     C 7076   7.397  11.429   5.553 -0.1083 -0.3925  0.0966
  794MOL0     C 7077   7.536  11.448   5.503 -0.7958 -0.7558 -0.6122
  794MOL0     C 7078   7.547  11.359   5.372 -0.9332  1.1188 -0.2378
  794MOL0     O 7079   7.511  11.440   5.261  1.0766 -0.0145 -0.5765
  794MOL0     C 7080   7.569  11.393   5.147  0.5026 -0.5091 -0.0424
  794MOL0     C 7081   7.566  11.488   5.038 -0.3827 -0.1062  0.4258
  794MOL0     C 7082   7.605  11.450   4.904  0.6983 -0.9573 -1.2163
  794MOL0     C 7083   7.674  11.331   4.891 -0.3946 -0.8771  0.1634
  794MOL0     C 7084   7.729  11.298   4.754 -0.0526 -1.2693 -0.7405
  794MOL0     O 7085   7.812  11.186   4.753 -0.0462 -0.0648 -0.4199
  794MOL0     C 7086   7.882  11.177   4.638  0.4668 -0.4826 -0.2089
  794MOL0     C 7087   7.834  11.111   4.527  0.3635 -0.0289  0.7168
  794MOL0     C 7088   7.912  11.074   4.416  0.4077 -0.4735  0.5141
  794MOL0     C 7089   8.053  11.118   4.415  0.8290  1.1033 -0.0132
  794MOL0     O 7090   8.140  11.106   4.305  0.1702  0.0779 -1.2554
  794MOL0     C 7091   8.092  11.077   4.176 -0.1263  0.3445 -0.6980
  794MOL0     C 7092   8.119  11.188   4.081 -0.9333 -0.5576  0.5065
  794MOL0     C 7093   8.263  11.246   4.083  0.4633 -0.0918 -0.0224
  794MOL0     C 7094   8.269  11.372   3.993  0.8560  0.8266 -0.2006
  794MOL0     C 7095   8.205  11.499   4.051 -0.5016  0.3529  0.0951
  794MOL0     C 7096   8.240  11.606   3.950  1.3995  0.2932  0.5527
  794MOL0     C 7097   8.239  11.749   4.007  0.6742 -0.7228  0.4141
  794MOL0     C 7098   8.235  11.855   3.894 -0.0901 -0.0157 -0.1186
  794MOL0    Cl 7099   8.236  12.018   3.963 -0.0825 -0.6298  0.4129
  794MOL0     C 7100   8.099  11.181   4.529 -0.3788 -0.3090 -0.1415
  794MOL0     C 7101   8.017  11.208   4.639 -0.6923 -0.2578 -0.7271
  794MOL0     O 7102   7.712  11.378   4.663 -0.0582  0.3505 -0.4926
  794MOL0     C 7103   7.687  11.241   4.989  0.7654 -0.4371 -1.3476
  794MOL0     C 7104   7.631  11.270   5.114  0.1368 -1.0808  0.4472
  794MOL0     N 7105   7.511  11.485   5.847  0.4727 -0.3139 -0.1298
  794MOL0     N 7106   7.511  11.498   5.972  0.2783  0.2787  0.6401
  794MOL0     C 7107   7.846  10.994   6.751 -0.0646 -0.4747 -0.5744
  794MOL0     C 7108   7.938  10.911   6.818  0.8376 -0.4271 -0.9766
  794MOL0     C 7109   8.175  10.593   7.040  0.3567  0.3814 -0.9736
  794MOL0     C 7110   8.276  10.523   6.972  0.4428 -0.0759  0.9189
  794MOL0     C 7111   8.375  10.453   7.021 -0.1214 -0.2834 -0.0553
  794MOL0     C 7112   8.394  10.464   7.153 -0.3452 -0.5590  0.1005
  794MOL0     O 7113   8.512  10.410   7.203 -0.0889  0.4941  0.0959
  794MOL0     C 7114   8.561  10.467   7.327  0.2348 -0.2936 -0.1655
  794MOL0     C 7115   8.535  10.369   7.436  0.8316 -0.3879 -0.3661
  794MOL0     C 7116   8.568  10.212   7.418 -0.0141 -0.3287 -0.1189
  794MOL0     C 7117   8.550  10.152   7.552 -0.7402  0.8902  0.0284
  794MOL0     C 7118   8.595  10.009   7.558 -1.2453 -0.9801 -0.9890
  794MOL0     C 7119   8.605   9.894   7.579 -1.1683  0.3963  0.6716
  794MOL0     C 7120   8.304  10.536   7.232  0.0725 -0.3544 -0.0563
  794MOL0     C 7121   8.191  10.595   7.178  1.2171  1.2233 -1.3193
  794MOL0     C 7122   8.090  10.658   7.279  0.7607  0.0808  1.1731
  794MOL0     H 7123   7.747  10.649   6.913  0.4165 -0.9986 -0.3311
  794MOL0     H 7124   7.587  10.772   6.794  0.3134  0.8095 -2.7442
  794MOL0     H 7125   7.614  11.211   6.751  3.4373  0.9211 -0.0339
  794MOL0     H 7126   7.723  11.176   6.604  0.1765 -0.7607 -0.6468
  794MOL0     H 7127   7.439  11.113   6.560  1.0195 -0.4857 -0.0688
  794MOL0     H 7128   7.555  11.207   6.457 -2.0056  2.5861 -0.2731
  794MOL0     H 7129   7.518  11.401   6.593  1.3885 -1.9495 -1.4346
  794MOL0     H 7130   7.388  11.319   6.681  1.5279  0.9288  0.6539
  794MOL0     H 7131   7.373  11.325   6.380  2.5883 -0.9622  1.3085
  794MOL0     H 7132   7.247  11.303   6.509  0.6863 -0.0357  1.9716
  794MOL0     H 7133   7.291  11.552   6.556  4.0463  0.7229  1.3806
  794MOL0     H 7134   7.405  11.565   6.427 -2.1667  3.6051 -1.0587
  794MOL0     H 7135   7.118  11.475   6.373  0.3519  2.1153  4.0851
  794MOL0     H 7136   7.163  11.632   6.353 -0.7517 -0.1462 -2.4200
  794MOL0     H 7137   7.139  11.509   6.153 -0.0747  1.3888  1.0815
  794MOL0     H 7138   7.243  11.384   6.207  0.1447 -0.3824  0.7741
  794MOL0     H 7139   7.318  11.675   6.166  1.5306 -0.7957  3.8549
  794MOL0     H 7140   7.443  11.551   6.207  2.1509  0.1366 -2.1750
  794MOL0     H 7141   7.206  11.603   5.882  0.8634  0.9114 -2.1450
  794MOL0     H 7142   7.237  11.542   5.649  0.1046 -1.2510 -2.2540
  794MOL0     H 7143   7.371  11.635   5.618 -2.2580  0.8370  1.5791
  794MOL0     H 7144   7.398  11.332   5.603  4.5638  0.2056  1.6890
  794MOL0     H 7145   7.331  11.419   5.466  2.5575 -0.2724 -2.0757
  794MOL0     H 7146   7.610  11.410   5.574  2.1922  0.5735 -2.8087
  794MOL0     H 7147   7.554  11.554   5.482  1.3264 -1.2048 -1.2650
  794MOL0     H 7148   7.490  11.267   5.379 -1.0045  0.9940 -2.0351
  794MOL0     H 7149   7.649  11.319   5.364 -0.8400  0.9974  1.3068
  794MOL0     H 7150   7.509  11.578   5.053 -2.1878 -1.3305  1.2812
  794MOL0     H 7151   7.582  11.518   4.823 -0.8901 -3.4125 -2.9700
  794MOL0     H 7152   7.729  11.082   4.521  0.5418 -0.3945 -1.9049
  794MOL0     H 7153   7.871  11.017   4.333 -4.9330  2.5265  0.5929
  794MOL0     H 7154   8.134  10.983   4.139 -2.4268 -0.7253 -0.7765
  794MOL0     H 7155   7.986  11.048   4.177  0.0778 -0.5725  2.0696
  794MOL0     H 7156   8.092  11.163   3.978  3.8877 -2.2701 -0.6412
  794MOL0     H 7157   8.042  11.261   4.107 -2.9583 -0.8897 -3.6885
  794MOL0     H 7158   8.304  11.271   4.181 -2.1584  1.3843  0.7942
  794MOL0     H 7159   8.325  11.176   4.026  1.6253  1.2001 -0.4100
  794MOL0     H 7160   8.228  11.353   3.894 -0.1302 -0.0476  0.3443
  794MOL0     H 7161   8.373  11.387   3.965  0.6320 -0.4125 -1.8503
  794MOL0     H 7162   8.255  11.520   4.146  1.9728 -0.9201 -0.8180
  794MOL0     H 7163   8.097  11.483   4.059 -0.4074  0.5416  2.7811
  794MOL0     H 7164   8.344  11.598   3.918  1.8767  0.9433  1.8741
  794MOL0     H 7165   8.172  11.597   3.865 -0.0265  0.3605  1.6540
  794MOL0     H 7166   8.327  11.772   4.067  0.5135  1.7128 -0.1985
  794MOL0     H 7167   8.148  11.757   4.067 -0.0662 -0.5591 -0.6991
  794MOL0     H 7168   8.323  11.841   3.831  1.7492  2.0810  1.8200
  794MOL0     H 7169   8.142  11.835   3.841 -1.0474 -2.0050  2.1007
  794MOL0     H 7170   8.203  11.213   4.523  0.8125 -3.1629  2.0978
  794MOL0     H 7171   8.071  11.263   4.715  1.9594  0.8153 -3.2143
  794MOL0     H 7172   7.703  11.134   4.979 -2.2408 -1.5343  2.7652
  794MOL0     H 7173   7.628  11.196   5.193 -5.0384 -0.8795  0.7817
  794MOL0     H 7174   7.867  11.088   6.701 -1.4256  0.5199  0.6770
  794MOL0     H 7175   8.037  10.948   6.842  0.8716 -0.7606 -0.5891
  794MOL0     H 7176   8.269  10.530   6.864 -4.0967 -1.5044  0.9092
  794MOL0     H 7177   8.445  10.386   6.972 -1.3560 -0.0981 -2.2055
  794MOL0     H 7178   8.527  10.569   7.346  0.6229 -0.4957  1.7662
  794MOL0     H 7179   8.670  10.474   7.324  0.4155  0.2636  3.3340
  794MOL0     H 7180   8.434  10.378   7.475  2.0927  0.3029  3.1507
  794MOL0     H 7181   8.593  10.411   7.519 -0.9041  0.5482  0.4225
  794MOL0     H 7182   8.669  10.185   7.389  0.0685 -1.9001  1.4827
  794MOL0     H 7183   8.499  10.176   7.340 -0.1156  0.0924 -0.2268
  794MOL0     H 7184   8.620  10.196   7.624 -0.0800 -1.5937  0.9902
  794MOL0     H 7185   8.450  10.169   7.592 -0.2930 -0.5255  1.8370
  794MOL0     H 7186   8.614   9.788   7.593 -2.1267  0.0795 -0.9432
  794MOL0     H 7187   8.330  10.550   7.337  2.4664  1.3002 -0.7928
  794MOL0     H 7188   8.127  10.750   7.324 -2.4736  1.1346  1.9251
  794MOL0     H 7189   7.989  10.674   7.240  1.0199  1.4133  1.0011
  794MOL0     H 7190   8.063  10.592   7.362 -3.6305 -0.9604 -0.7818
  795MOL0     O 7191   8.415   9.089   6.810  0.3910 -0.5045 -0.0974
  795MOL0     C 7192   8.355   8.991   6.765  0.0579  0.2550 -0.3698
  795MOL0     O 7193   8.221   8.984   6.757  0.0683 -0.1250 -0.3270
  795MOL0     C 7194   8.145   9.069   6.842  0.0944 -0.8465 -0.0606
  795MOL0     C 7195   8.139   9.211   6.820  0.1320 -0.1976  0.8826
  795MOL0     C 7196   8.055   9.306   6.887 -0.1910 -0.3396 -0.0608
  795MOL0     C 7197   7.967   9.256   6.984  0.0845  0.3210  0.7459
  795MOL0     O 7198   7.877   9.331   7.052  0.3776  0.1059 -1.4041
  795MOL0     C 7199   7.937   9.447   7.112 -0.8834 -0.2126 -0.7371
  795MOL0     C 7200   7.841   9.513   7.216  0.4560  0.4510 -0.0659
  795MOL0     C 7201   7.736   9.600   7.163 -0.0249  0.3898  0.5469
  795MOL0     C 7202   7.704   9.720   7.256  0.3471  0.6665  0.4144
  795MOL0     C 7203   7.604   9.826   7.197 -0.3331  0.0930 -0.7781
  795MOL0     C 7204   7.557   9.929   7.298 -0.2531 -0.1853  0.0955
  795MOL0     C 7205   7.659  10.011   7.377 -0.4039 -1.3974  0.4189
  795MOL0     C 7206   7.570  10.094   7.473  0.5119  0.4114 -0.0632
  795MOL0     N 7207   7.506  10.003   7.571  0.3006 -1.0193  0.3564
  795MOL0     C 7208   7.556   9.950   7.680 -1.2900  0.0415  0.9273
  795MOL0     C 7209   7.458   9.875   7.741 -0.2777  0.3162  0.6999
  795MOL0     C 7210   7.479   9.786   7.857  0.1701 -0.7486  0.3862
  795MOL0     C 7211   7.350   9.742   7.931 -0.0482  0.5063 -1.2289
  795MOL0     C 7212   7.255   9.858   7.970 -0.1033  0.7498  0.4922
  795MOL0     C 7213   7.319   9.917   8.092 -0.7353  0.4324 -0.3711
  795MOL0     O 7214   7.311   9.831   8.205 -0.7416  0.0953  0.4422
  795MOL0     C 7215   7.197   9.798   8.277  0.2838  0.1303  1.5962
  795MOL0     C 7216   7.191   9.672   8.341 -0.2129 -0.2379  0.2709
  795MOL0     C 7217   7.087   9.634   8.425  0.5946 -0.0626 -0.3261
  795MOL0     C 7218   6.978   9.725   8.445 -0.5410  0.2269  0.0613
  795MOL0     C 7219   6.877   9.683   8.550  0.8417 -0.2120  1.0127
  795MOL0     O 7220   6.914   9.573   8.622 -0.5183  0.4290 -0.1064
  795MOL0     C 7221   6.825   9.499   8.698  0.2435  0.2173 -0.0675
  795MOL0     C 7222   6.688   9.501   8.690  0.0273 -0.2772 -0.2851
  795MOL0     C 7223   6.607   9.442   8.785 -0.4130  0.1674  0.0843
  795MOL0     C 7224   6.666   9.364   8.894 -0.9242 -0.1283  0.6674
  795MOL0     O 7225   6.603   9.313   8.999 -0.3592  1.1027 -0.3005
  795MOL0     C 7226   6.538   9.422   9.081 -0.5534  0.2338 -0.0497
  795MOL0     C 7227   6.603   9.431   9.221  0.0078  0.6462  0.5587
  795MOL0     C 7228   6.557   9.313   9.301 -0.2542 -0.8800  0.4021
  795MOL0     C 7229   6.645   9.185   9.294 -0.2031  0.1853 -0.2937
  795MOL0     C 7230   6.780   9.225   9.357 -0.3640 -0.8954 -0.8643
  795MOL0     C 7231   6.876   9.104   9.356  0.1502  0.1242  0.3638
  795MOL0     C 7232   6.934   9.051   9.220  0.4418 -0.7501  0.2077
  795MOL0     C 7233   7.073   9.098   9.183 -0.5806 -0.5366 -0.0625
  795MOL0    Cl 7234   7.065   9.273   9.159  0.4778 -0.2328 -0.0404
  795MOL0     C 7235   6.805   9.368   8.900 -0.2261  0.3388 -0.5089
  795MOL0     C 7236   6.886   9.424   8.799  0.0759  0.8242 -0.3917
  795MOL0     O 7237   6.768   9.749   8.554  0.2310 -0.2330 -0.3495
  795MOL0     C 7238   6.992   9.852   8.389 -0.8758  0.3644  0.6353
  795MOL0     C 7239   7.094   9.885   8.297  0.0474  0.2652  0.7479
  795MOL0     N 7240   7.348   9.903   7.666  0.5396  0.5682  0.1162
  795MOL0     N 7241   7.373   9.981   7.564 -0.5461  0.9662 -0.1479
  795MOL0     C 7242   7.963   9.116   7.003  0.6036  0.6610 -0.2100
  795MOL0     C 7243   8.052   9.026   6.939 -0.3725  0.5990  0.2427
  795MOL0     C 7244   8.442   8.883   6.720  0.2649  0.1223  0.4573
  795MOL0     C 7245   8.390   8.758   6.720 -0.3380  0.4394  0.3514
  795MOL0     C 7246   8.457   8.647   6.671 -0.0992 -0.4156 -0.7749
  795MOL0     C 7247   8.585   8.664   6.618  0.8356  0.9302 -0.6680
  795MOL0     O 7248   8.658   8.578   6.550 -0.0344  0.3460 -0.1062
  795MOL0     C 7249   8.677   8.453   6.617  0.3007 -0.3059 -0.7879
  795MOL0     C 7250   8.800   8.378   6.550  0.8727 -0.1998 -0.4829
  795MOL0     C 7251   8.802   8.377   6.398 -0.3659  0.3780 -0.3776
  795MOL0     C 7252   8.681   8.318   6.323 -1.0900 -0.2595  0.0974
  795MOL0     C 7253   8.690   8.329   6.185  0.4148  0.2915  0.9865
  795MOL0     C 7254   8.683   8.350   6.065 -0.4729  0.3805  0.1264
  795MOL0     C 7255   8.641   8.784   6.623 -0.3684 -0.4738  0.3278
  795MOL0     C 7256   8.574   8.896   6.672 -1.0979  0.2853  0.0218
  795MOL0     C 7257   8.646   9.027   6.664  0.3535  0.6334 -1.5469
  795MOL0     H 7258   8.198   9.253   6.739  1.1281  1.8319  2.5623
  795MOL0     H 7259   8.063   9.409   6.857  3.4239 -0.9254 -1.6311
  795MOL0     H 7260   8.023   9.409   7.167  1.0041  0.7841 -2.8206
  795MOL0     H 7261   7.971   9.526   7.045 -1.9137  0.6598 -0.2710
  795MOL0     H 7262   7.908   9.572   7.280  0.6261 -0.0509  0.2295
  795MOL0     H 7263   7.783   9.439   7.272 -1.0129  1.6984  0.1230
  795MOL0     H 7264   7.643   9.548   7.137  0.0981 -0.9553  2.5542
  795MOL0     H 7265   7.779   9.632   7.068  4.2166 -2.8086  1.0538
  795MOL0     H 7266   7.660   9.685   7.350  0.4946 -0.6856  0.0038
  795MOL0     H 7267   7.794   9.774   7.287 -1.2663  2.6595  1.9589
  795MOL0     H 7268   7.658   9.877   7.117 -3.0509  1.9044 -1.5887
  795MOL0     H 7269   7.527   9.782   7.132  0.6819 -0.5315 -1.5988
  795MOL0     H 7270   7.480   9.988   7.248 -2.9431 -1.5182  2.3657
  795MOL0     H 7271   7.492   9.873   7.367  1.1135 -0.0941  1.5176
  795MOL0     H 7272   7.708  10.089   7.318  0.8433 -0.2635  2.8422
  795MOL0     H 7273   7.734   9.951   7.430 -0.8427 -1.7835  0.6085
  795MOL0     H 7274   7.628  10.158   7.540  1.2254 -0.4947  0.1999
  795MOL0     H 7275   7.494  10.153   7.421  0.6733  0.4091 -0.2971
  795MOL0     H 7276   7.663   9.954   7.695 -1.4299  2.0995  1.6514
  795MOL0     H 7277   7.534   9.696   7.826  0.5806 -0.8663  1.4335
  795MOL0     H 7278   7.557   9.837   7.914  1.0710 -1.4915 -0.1493
  795MOL0     H 7279   7.302   9.671   7.863  3.0441 -2.4636 -0.5878
  795MOL0     H 7280   7.377   9.677   8.014  0.8560  1.0637 -1.0659
  795MOL0     H 7281   7.155   9.821   7.995 -0.5626 -0.4476 -2.6996
  795MOL0     H 7282   7.235   9.936   7.896 -2.0036  1.5867  1.8238
  795MOL0     H 7283   7.271  10.012   8.120  1.3029  1.9487 -1.7261
  795MOL0     H 7284   7.422   9.947   8.070 -1.4315  0.0210 -5.2699
  795MOL0     H 7285   7.270   9.600   8.322 -1.1039 -1.4019  0.8293
  795MOL0     H 7286   7.094   9.538   8.476  4.7724  0.2438  0.0291
  795MOL0     H 7287   6.641   9.554   8.608  1.7485  0.5292 -0.8019
  795MOL0     H 7288   6.499   9.456   8.780 -0.1130  2.6999 -1.2993
  795MOL0     H 7289   6.556   9.517   9.030  1.4707 -0.2403 -0.3156
  795MOL0     H 7290   6.430   9.405   9.082 -0.7744  1.0966 -2.3611
  795MOL0     H 7291   6.712   9.438   9.213  0.3070 -0.5885  2.6897
  795MOL0     H 7292   6.566   9.523   9.267 -2.5418 -0.0247  0.0459
  795MOL0     H 7293   6.571   9.348   9.404  0.8573 -1.8618  0.6131
  795MOL0     H 7294   6.454   9.285   9.282 -0.0647 -2.0703  1.0362
  795MOL0     H 7295   6.642   9.162   9.187 -2.5979  1.5197 -0.5697
  795MOL0     H 7296   6.595   9.098   9.338 -2.5579  0.9709 -1.2573
  795MOL0     H 7297   6.757   9.261   9.458 -0.8841  0.4116 -1.4248
  795MOL0     H 7298   6.838   9.305   9.310 -1.5280  0.1966 -0.4885
  795MOL0     H 7299   6.954   9.134   9.428 -1.3360  0.9863  1.6842
  795MOL0     H 7300   6.822   9.021   9.401  0.4698  0.6037  1.7063
  795MOL0     H 7301   6.874   9.080   9.132  2.9082  3.4134 -0.3782
  795MOL0     H 7302   6.931   8.942   9.228 -3.7615 -0.8110  0.1746
  795MOL0     H 7303   7.152   9.074   9.255  0.1439  0.0470 -0.6413
  795MOL0     H 7304   7.114   9.061   9.088 -0.7981  2.2382 -1.3442
  795MOL0     H 7305   6.849   9.318   8.985  1.5954  0.3568 -1.3988
  795MOL0     H 7306   6.993   9.426   8.819 -0.2897  0.0564  1.9730
  795MOL0     H 7307   6.922   9.933   8.411 -2.1803 -0.1420 -1.3922
  795MOL0     H 7308   7.090   9.987   8.259 -1.3424  0.1302  0.4767
  795MOL0     H 7309   7.888   9.078   7.072  0.3786  2.1886  0.4144
  795MOL0     H 7310   8.056   8.921   6.967 -0.7871  1.0193  1.9605
  795MOL0     H 7311   8.289   8.742   6.756  0.9143 -3.7274  2.6740
  795MOL0     H 7312   8.418   8.546   6.673 -0.2631 -0.3612  1.4129
  795MOL0     H 7313   8.594   8.383   6.616 -0.4443  0.2242  3.4995
  795MOL0     H 7314   8.701   8.471   6.722 -2.3551  1.5790 -0.4246
  795MOL0     H 7315   8.805   8.271   6.573 -1.0249 -0.3407 -0.6319
  795MOL0     H 7316   8.892   8.427   6.584  2.1942 -1.1746 -2.4205
  795MOL0     H 7317   8.896   8.329   6.368  0.8132  0.5115  2.7363
  795MOL0     H 7318   8.796   8.481   6.364  1.7781  0.3864 -0.8856
  795MOL0     H 7319   8.674   8.209   6.334  2.0773 -0.6186 -0.4531
  795MOL0     H 7320   8.592   8.369   6.361  0.0468  0.6300  1.6527
  795MOL0     H 7321   8.688   8.364   5.959  2.2587  1.8163  0.3396
  795MOL0     H 7322   8.744   8.785   6.589  0.1286 -3.5870  1.4653
  795MOL0     H 7323   8.684   9.055   6.763 -1.1319  0.3221 -0.8684
  795MOL0     H 7324   8.730   9.025   6.593  2.7764  1.4956  1.0701
  795MOL0     H 7325   8.574   9.103   6.634 -5.3680 -3.2554  0.7371
  796MOL0     O 7326   6.168  10.845   0.651  0.1641  0.2867  0.1888
  796MOL0     C 7327   6.196  10.775   0.751 -0.1607 -0.1681  0.3440
  796MOL0     O 7328   6.317  10.775   0.811 -0.0704 -0.1582 -0.4253
  796MOL0     C 7329   6.418  10.860   0.754 -0.6738  0.4905  0.2844
  796MOL0     C 7330   6.502  10.926   0.842  0.1039 -0.7644  1.3824
  796MOL0     C 7331   6.614  10.997   0.795  0.0863  0.3929 -0.5939
  796MOL0     C 7332   6.648  10.983   0.655  0.7964 -0.2934 -0.3485
  796MOL0     O 7333   6.762  11.060   0.629  0.8541 -0.4440  0.4958
  796MOL0     C 7334   6.774  11.134   0.499 -1.3795 -0.7919  0.1700
  796MOL0     C 7335   6.911  11.203   0.491 -0.4870  0.0523  0.0984
  796MOL0     C 7336   6.904  11.349   0.543 -0.2925 -0.0834  1.1583
  796MOL0     C 7337   6.864  11.370   0.699 -0.0342  0.1196 -0.4241
  796MOL0     C 7338   6.895  11.511   0.755  0.7997 -0.3388 -0.4048
  796MOL0     C 7339   6.776  11.606   0.728  0.7259  0.7922  0.6068
  796MOL0     C 7340   6.821  11.750   0.749 -1.0765 -0.7811 -0.0275
  796MOL0     C 7341   6.696  11.844   0.757  0.5558  0.0531 -0.3682
  796MOL0     N 7342   6.624  11.853   0.627  0.2908 -0.2968  0.6221
  796MOL0     C 7343   6.661  11.936   0.524  0.3465 -0.4708 -0.0221
  796MOL0     C 7344   6.577  11.900   0.423 -0.5504 -0.5858 -0.4028
  796MOL0     C 7345   6.567  11.955   0.286  0.5271  0.0749  0.6530
  796MOL0     C 7346   6.501  12.091   0.288 -1.0304 -0.3304  0.4780
  796MOL0     C 7347   6.490  12.162   0.152 -0.0306  0.2399  0.5224
  796MOL0     C 7348   6.405  12.093   0.034 -0.2082 -0.0437 -1.0071
  796MOL0     O 7349   6.452  12.143  -0.091 -0.1686  0.4413  0.1860
  796MOL0     C 7350   6.365  12.195  -0.184  0.1142 -0.7700 -0.2600
  796MOL0     C 7351   6.223  12.165  -0.193  1.0369  1.3899  0.4062
  796MOL0     C 7352   6.149  12.232  -0.286 -0.3301  0.5480  0.0061
  796MOL0     C 7353   6.208  12.324  -0.377  0.3275  0.5404  0.7749
  796MOL0     C 7354   6.123  12.405  -0.469 -0.1879 -0.2489  0.4169
  796MOL0     O 7355   5.985  12.415  -0.439  0.4164  0.8872  0.1463
  796MOL0     C 7356   5.919  12.500  -0.520 -0.6430  0.3641 -0.3806
  796MOL0     C 7357   5.929  12.638  -0.503 -0.5296  0.0665  0.6668
  796MOL0     C 7358   5.862  12.717  -0.601  0.5417 -0.0325  0.6909
  796MOL0     C 7359   5.786  12.665  -0.702 -0.7754 -0.2717 -0.5476
  796MOL0     O 7360   5.711  12.737  -0.795 -0.3018  0.1798 -0.1595
  796MOL0     C 7361   5.693  12.881  -0.779  0.3981 -0.2307  0.3962
  796MOL0     C 7362   5.607  12.935  -0.893 -0.5638 -0.2338  0.1527
  796MOL0     C 7363   5.460  12.896  -0.872 -0.1643  0.5242 -0.9965
  796MOL0     C 7364   5.373  12.935  -0.985  0.7892  0.0867 -1.0253
  796MOL0     C 7365   5.361  12.834  -1.095  0.1561 -0.0195 -0.4964
  796MOL0     C 7366   5.447  12.877  -1.221 -0.1068 -0.6979 -0.1838
  796MOL0     C 7367   5.443  12.781  -1.341 -0.0803  0.3608 -0.6444
  796MOL0     C 7368   5.400  12.861  -1.477 -0.3142  0.2093 -0.2811
  796MOL0    Cl 7369   5.221  12.892  -1.465  0.3623  0.2870  0.3333
  796MOL0     C 7370   5.777  12.529  -0.714  0.1125  0.0314 -0.6823
  796MOL0     C 7371   5.854  12.445  -0.634 -0.4634  0.4772 -0.0289
  796MOL0     O 7372   6.181  12.482  -0.553 -0.0560  0.0216 -0.7222
  796MOL0     C 7373   6.342  12.341  -0.380 -0.2035 -0.5244 -0.0159
  796MOL0     C 7374   6.416  12.283  -0.281  0.2438  0.3601  0.6039
  796MOL0     N 7375   6.496  11.807   0.467 -0.0369 -0.4764  0.4069
  796MOL0     N 7376   6.512  11.785   0.593  0.1714 -0.0968 -0.4102
  796MOL0     C 7377   6.576  10.916   0.566  0.9023 -0.8119  0.0600
  796MOL0     C 7378   6.457  10.854   0.608 -0.2165 -0.1268  0.6003
  796MOL0     C 7379   6.092  10.697   0.828  1.0232  0.9699 -0.3684
  796MOL0     C 7380   6.119  10.659   0.965 -0.0868  0.1714  0.5567
  796MOL0     C 7381   6.032  10.567   1.027  0.5804 -0.3051  0.5720
  796MOL0     C 7382   5.908  10.533   0.977  0.6558  0.1061  0.2733
  796MOL0     O 7383   5.818  10.468   1.057  0.0196  0.6503  0.4623
  796MOL0     C 7384   5.697  10.418   0.991  0.0718  0.2804 -0.8990
  796MOL0     C 7385   5.638  10.330   1.098 -0.6861 -0.0450  1.5285
  796MOL0     C 7386   5.522  10.244   1.051  0.0915 -0.0099 -0.8583
  796MOL0     C 7387   5.400  10.327   1.051  0.6195 -0.6883 -0.1279
  796MOL0     C 7388   5.344  10.363   1.185  0.3176 -0.1436  0.0324
  796MOL0     C 7389   5.292  10.398   1.290 -0.0303  0.6709  1.0707
  796MOL0     C 7390   5.881  10.575   0.842  0.5090  0.0183 -0.0171
  796MOL0     C 7391   5.973  10.655   0.769 -0.2405 -0.5423  0.0744
  796MOL0     C 7392   5.934  10.684   0.620  0.8966 -1.0840 -0.0297
  796MOL0     H 7393   6.461  10.923   0.942 -2.0276 -1.8901  0.5334
  796MOL0     H 7394   6.675  11.052   0.866 -3.4817  2.5799  1.0916
  796MOL0     H 7395   6.770  11.068   0.412  0.5207 -0.3318 -0.3094
  796MOL0     H 7396   6.689  11.200   0.484 -1.8107 -1.8771 -2.7625
  796MOL0     H 7397   6.927  11.213   0.384 -0.6184 -1.4134 -0.0844
  796MOL0     H 7398   6.995  11.156   0.544 -0.2256 -1.3583 -1.4844
  796MOL0     H 7399   6.832  11.411   0.489 -2.1261  1.0956  4.6661
  796MOL0     H 7400   7.006  11.387   0.534 -0.5244  0.9588  2.6884
  796MOL0     H 7401   6.761  11.344   0.727 -0.1130  1.7270  0.9696
  796MOL0     H 7402   6.921  11.297   0.757  0.8383 -1.1384 -2.7196
  796MOL0     H 7403   6.902  11.499   0.863 -0.5107  0.1668 -0.2442
  796MOL0     H 7404   6.984  11.554   0.709 -1.7903  2.4181 -3.3269
  796MOL0     H 7405   6.728  11.599   0.630  5.7018 -3.4736 -2.0620
  796MOL0     H 7406   6.707  11.581   0.809 -1.0855  1.2406 -0.7419
  796MOL0     H 7407   6.875  11.773   0.656 -1.9215 -1.7998 -0.7953
  796MOL0     H 7408   6.878  11.751   0.843 -0.9209  0.9359 -0.0994
  796MOL0     H 7409   6.630  11.801   0.833 -0.3969  2.2024  0.0971
  796MOL0     H 7410   6.733  11.944   0.783  1.0032 -0.0411 -0.6496
  796MOL0     H 7411   6.736  12.014   0.524  0.9041 -0.9389  2.2031
  796MOL0     H 7412   6.665  11.953   0.236 -0.0041 -0.9505 -0.4211
  796MOL0     H 7413   6.487  11.901   0.234 -0.0056  0.7554  0.7625
  796MOL0     H 7414   6.400  12.088   0.331 -0.7026 -4.1039  1.2930
  796MOL0     H 7415   6.563  12.156   0.351 -3.4179  2.1001  0.4951
  796MOL0     H 7416   6.591  12.178   0.114 -0.2430 -1.4582 -0.8885
  796MOL0     H 7417   6.448  12.261   0.172 -1.5145 -0.5405  1.4017
  796MOL0     H 7418   6.301  12.116   0.057  0.2326  0.9772  0.0872
  796MOL0     H 7419   6.424  11.986   0.037 -0.4144 -0.0644  1.2483
  796MOL0     H 7420   6.196  12.076  -0.137  0.7732  1.0200 -0.2905
  796MOL0     H 7421   6.047  12.206  -0.311 -1.1339  2.1364  1.3949
  796MOL0     H 7422   5.989  12.669  -0.419  1.3485 -0.5104 -0.4112
  796MOL0     H 7423   5.880  12.823  -0.615  0.1087  0.0547  0.8040
  796MOL0     H 7424   5.634  12.889  -0.687 -0.9604  6.3111 -0.5965
  796MOL0     H 7425   5.788  12.933  -0.762  2.1603 -3.1044  0.1188
  796MOL0     H 7426   5.607  13.044  -0.897 -1.9916 -0.2393 -1.2605
  796MOL0     H 7427   5.635  12.886  -0.987 -1.2969 -3.2159  1.3538
  796MOL0     H 7428   5.459  12.786  -0.868 -3.5108  0.2536 -4.3309
  796MOL0     H 7429   5.416  12.935  -0.779  2.8723  1.3419  0.2194
  796MOL0     H 7430   5.401  13.034  -1.024 -0.1489  1.0615  0.6636
  796MOL0     H 7431   5.270  12.958  -0.956  0.9118  2.5307 -2.2795
  796MOL0     H 7432   5.258  12.822  -1.132  1.1439 -4.0885 -2.5082
  796MOL0     H 7433   5.414  12.746  -1.057  2.4916  1.2946 -0.5402
  796MOL0     H 7434   5.408  12.975  -1.250  1.5908  0.6624  1.7869
  796MOL0     H 7435   5.551  12.897  -1.193  0.5479 -1.1364 -2.1597
  796MOL0     H 7436   5.375  12.699  -1.317 -1.4577  1.2519 -1.3192
  796MOL0     H 7437   5.542  12.737  -1.354 -0.6287 -1.3298  0.6566
  796MOL0     H 7438   5.449  12.955  -1.503  1.8091 -1.2329 -1.9825
  796MOL0     H 7439   5.416  12.811  -1.574  0.8908 -0.8680  0.4407
  796MOL0     H 7440   5.706  12.483  -0.782  1.3458 -1.6167 -0.8983
  796MOL0     H 7441   5.859  12.337  -0.649  4.4662  0.5505 -0.6534
  796MOL0     H 7442   6.387  12.398  -0.460 -2.6902 -0.4250 -1.4300
  796MOL0     H 7443   6.524  12.284  -0.295  0.0974  1.7269 -0.7935
  796MOL0     H 7444   6.609  10.894   0.465  2.4729 -1.9628  0.7903
  796MOL0     H 7445   6.394  10.807   0.533  1.9276 -1.6862 -0.3414
  796MOL0     H 7446   6.198  10.700   1.028 -1.9005  1.2405  2.2559
  796MOL0     H 7447   6.052  10.543   1.131  2.3286 -2.6679 -0.2032
  796MOL0     H 7448   5.733  10.371   0.899  2.8655  2.9728 -1.3408
  796MOL0     H 7449   5.624  10.494   0.963  1.0252  1.0759 -1.2603
  796MOL0     H 7450   5.611  10.390   1.185 -2.9022 -3.0399  3.1070
  796MOL0     H 7451   5.716  10.263   1.137  0.1195 -1.3750 -1.9980
  796MOL0     H 7452   5.502  10.160   1.118  0.1689  2.4751  2.5255
  796MOL0     H 7453   5.536  10.206   0.950 -1.0981  0.7948 -1.3529
  796MOL0     H 7454   5.416  10.422   0.999  0.6903 -1.4063 -1.4472
  796MOL0     H 7455   5.318  10.284   0.993  1.3697 -0.4080 -1.4271
  796MOL0     H 7456   5.245  10.443   1.375 -1.6192  2.0361 -0.4325
  796MOL0     H 7457   5.792  10.540   0.791 -0.9244  2.1256  0.8946
  796MOL0     H 7458   6.022  10.663   0.559  2.7627  1.7676  1.4529
  796MOL0     H 7459   5.850  10.621   0.592  0.2817  0.2838 -1.4133
  796MOL0     H 7460   5.892  10.785   0.615  0.1080 -1.2410  2.4226
  797MOL0     O 7461   4.119   9.056   5.728  0.2473  1.0223  0.3846
  797MOL0     C 7462   4.163   9.078   5.840  0.1233 -0.2476  0.3931
  797MOL0     O 7463   4.102   9.050   5.950  0.2108 -0.2665 -0.7892
  797MOL0     C 7464   3.974   9.088   5.982  0.3005 -0.2182 -0.0915
  797MOL0     C 7465   3.930   9.071   6.115 -0.2902 -0.0711 -0.0270
  797MOL0     C 7466   3.790   9.111   6.141  0.2523 -0.4653 -0.0116
  797MOL0     C 7467   3.696   9.149   6.038  0.0266  0.7976  0.3142
  797MOL0     O 7468   3.571   9.176   6.074  0.3972 -0.4469  0.0293
  797MOL0     C 7469   3.477   9.164   5.965  0.1125  0.4624  0.6821
  797MOL0     C 7470   3.337   9.197   6.015 -0.4550  0.4037 -0.0628
  797MOL0     C 7471   3.240   9.185   5.898  0.3313 -0.1687 -1.0426
  797MOL0     C 7472   3.117   9.101   5.951  0.1654  0.5028  0.3122
  797MOL0     C 7473   3.012   9.089   5.844 -0.2644 -0.2722  0.3360
  797MOL0     C 7474   2.899   9.007   5.893  0.0656  0.5068 -0.1974
  797MOL0     C 7475   2.768   9.050   5.829 -0.3498  0.0202 -0.1482
  797MOL0     C 7476   2.766   9.106   5.681  0.8899 -0.0625 -0.6514
  797MOL0     N 7477   2.635   9.118   5.621  0.1623  0.2495 -0.3331
  797MOL0     C 7478   2.561   9.016   5.573  1.1888  0.5036  0.3412
  797MOL0     C 7479   2.454   9.076   5.522  0.3017 -0.7295 -0.5422
  797MOL0     C 7480   2.333   8.999   5.472  0.6823  0.7051  0.6902
  797MOL0     C 7481   2.317   9.017   5.321 -0.8078 -1.3013 -0.0238
  797MOL0     C 7482   2.216   8.925   5.262  0.9698 -0.0246 -0.4527
  797MOL0     C 7483   2.078   8.932   5.327 -0.0082  1.2491 -0.0442
  797MOL0     O 7484   2.046   8.839   5.432  0.4334 -0.3366 -0.0894
  797MOL0     C 7485   1.931   8.861   5.503  0.7979  0.7279  0.1295
  797MOL0     C 7486   1.837   8.965   5.483  0.1298 -0.4532  0.0501
  797MOL0     C 7487   1.736   8.973   5.584  0.0127 -0.8956 -0.2124
  797MOL0     C 7488   1.731   8.883   5.691 -0.8275  0.1845 -0.2530
  797MOL0     C 7489   1.624   8.885   5.801  1.5293 -0.2478  0.0459
  797MOL0     O 7490   1.524   8.983   5.789  0.2634  0.9091  0.3475
  797MOL0     C 7491   1.419   9.002   5.887 -0.3814  0.4041  0.6542
  797MOL0     C 7492   1.396   9.138   5.934  0.5123  0.3810 -0.2704
  797MOL0     C 7493   1.308   9.145   6.043 -0.2314  0.4781 -0.6494
  797MOL0     C 7494   1.257   9.036   6.105  0.0304  0.2675 -0.0577
  797MOL0     O 7495   1.177   9.048   6.209 -0.4614 -0.5511  1.0275
  797MOL0     C 7496   1.044   9.021   6.191  0.6635 -0.1773 -0.3372
  797MOL0     C 7497   0.970   9.023   6.341 -0.3181  0.1142  1.4629
  797MOL0     C 7498   1.019   8.899   6.417  0.4853 -1.0819 -0.2120
  797MOL0     C 7499   0.986   8.764   6.352 -0.8787 -0.7482 -0.1736
  797MOL0     C 7500   0.970   8.659   6.457 -0.0714  0.0625  0.7107
  797MOL0     C 7501   1.088   8.635   6.553 -0.1956 -0.5101  0.6429
  797MOL0     C 7502   1.034   8.562   6.678  0.3693  0.2141  0.2868
  797MOL0     C 7503   1.009   8.415   6.648 -0.4199  0.0364 -0.9653
  797MOL0    Cl 7504   1.179   8.354   6.638  0.4454 -0.0949  0.8439
  797MOL0     C 7505   1.275   8.909   6.060  0.1308  0.4669  0.5756
  797MOL0     C 7506   1.353   8.893   5.947 -1.0166 -0.2018  0.4175
  797MOL0     O 7507   1.643   8.805   5.892 -0.4786  0.8082 -0.0571
  797MOL0     C 7508   1.822   8.784   5.700  0.0114 -0.2945  0.6349
  797MOL0     C 7509   1.926   8.770   5.609  0.5921 -0.1510  0.0400
  797MOL0     N 7510   2.459   9.215   5.542  0.0274 -0.0586 -0.0943
  797MOL0     N 7511   2.560   9.237   5.610 -0.6366  0.2965 -0.3746
  797MOL0     C 7512   3.746   9.149   5.907  0.0130 -0.0212  0.1469
  797MOL0     C 7513   3.881   9.117   5.881  0.2638  0.8986  0.4749
  797MOL0     C 7514   4.316   9.108   5.840  0.4322 -0.1274 -0.3283
  797MOL0     C 7515   4.374   9.145   5.717 -0.2250  0.5803  0.2141
  797MOL0     C 7516   4.514   9.184   5.712  0.6322  0.3195  0.0639
  797MOL0     C 7517   4.593   9.183   5.823 -0.1488  0.9684 -0.0675
  797MOL0     O 7518   4.725   9.222   5.819 -0.1149  0.1726  0.0720
  797MOL0     C 7519   4.808   9.182   5.921  0.5757 -0.3676 -0.2423
  797MOL0     C 7520   4.948   9.190   5.853  0.4111 -0.0435 -0.3940
  797MOL0     C 7521   5.072   9.117   5.928  0.2946 -0.0551 -0.2160
  797MOL0     C 7522   5.108   9.204   6.046  0.6405 -0.0215  1.1652
  797MOL0     C 7523   5.018   9.197   6.164  0.4339 -0.0309 -0.6963
  797MOL0     C 7524   4.949   9.208   6.262  0.1407  0.5081 -0.0098
  797MOL0     C 7525   4.524   9.135   5.934 -0.0660 -0.6338 -0.7983
  797MOL0     C 7526   4.390   9.092   5.953  0.3195 -0.2715  0.1736
  797MOL0     C 7527   4.368   9.039   6.091 -0.0658 -0.3235  0.3404
  797MOL0     H 7528   3.993   9.035   6.195 -0.8714  0.6943  0.8037
  797MOL0     H 7529   3.766   9.108   6.247  1.5499  2.7350  0.4961
  797MOL0     H 7530   3.493   9.233   5.883 -1.9035 -1.9544 -1.9656
  797MOL0     H 7531   3.475   9.065   5.917 -0.3080  0.2832  1.0548
  797MOL0     H 7532   3.331   9.301   6.049  0.1191 -0.7770  4.3028
  797MOL0     H 7533   3.303   9.128   6.093 -0.6271  0.7318  0.1545
  797MOL0     H 7534   3.293   9.137   5.816  2.0303 -0.2129  0.0452
  797MOL0     H 7535   3.210   9.282   5.857 -5.3697 -0.8816  0.5437
  797MOL0     H 7536   3.143   8.999   5.980  0.6594  0.7628  0.8101
  797MOL0     H 7537   3.080   9.147   6.044  1.9295  1.2458  0.6931
  797MOL0     H 7538   2.973   9.186   5.810 -1.3233 -0.8064 -0.0081
  797MOL0     H 7539   3.062   9.047   5.756 -2.0229 -0.3135 -0.6991
  797MOL0     H 7540   2.915   8.901   5.874  0.1333  0.2600  1.1702
  797MOL0     H 7541   2.877   9.027   5.998  1.3707  0.6444  0.0626
  797MOL0     H 7542   2.727   9.122   5.900 -0.2637 -0.6988  0.6486
  797MOL0     H 7543   2.725   8.951   5.847 -0.1023 -0.1870 -0.6802
  797MOL0     H 7544   2.813   9.205   5.682  0.9465 -0.0770 -1.5282
  797MOL0     H 7545   2.823   9.041   5.613  0.5382 -2.0809  0.8641
  797MOL0     H 7546   2.587   8.911   5.579 -2.8603 -0.7409 -0.5452
  797MOL0     H 7547   2.342   8.894   5.501  0.7008  0.8593  1.2551
  797MOL0     H 7548   2.254   9.058   5.519  1.9142  2.5257  0.5917
  797MOL0     H 7549   2.289   9.119   5.292  0.2304 -0.2995  2.2951
  797MOL0     H 7550   2.405   8.992   5.260 -1.2592 -3.1019 -0.0081
  797MOL0     H 7551   2.247   8.820   5.271  0.3065 -0.5443 -3.3014
  797MOL0     H 7552   2.213   8.945   5.155 -0.0795 -1.3635 -0.6986
  797MOL0     H 7553   2.001   8.912   5.252 -0.9538  0.5177  1.0825
  797MOL0     H 7554   2.068   9.034   5.366  1.7966  1.3847  0.1757
  797MOL0     H 7555   1.847   9.049   5.415  0.6184 -0.9755 -0.5375
  797MOL0     H 7556   1.660   9.051   5.586  0.8657 -0.0454  0.4746
  797MOL0     H 7557   1.442   9.229   5.897  2.5908  0.0377  1.2719
  797MOL0     H 7558   1.281   9.240   6.086 -1.3043  0.8187 -2.0004
  797MOL0     H 7559   0.999   9.098   6.128  3.2294  1.0862 -0.7541
  797MOL0     H 7560   1.020   8.927   6.139 -4.2308  1.5006 -1.6088
  797MOL0     H 7561   1.006   9.118   6.382 -0.7939  1.3780 -0.8428
  797MOL0     H 7562   0.862   9.021   6.327 -0.4011  2.4861  1.4170
  797MOL0     H 7563   1.129   8.900   6.421  0.5401  0.1282 -1.3361
  797MOL0     H 7564   0.982   8.896   6.520 -0.3378  2.3528 -0.2803
  797MOL0     H 7565   1.074   8.739   6.292 -1.7832  0.1804 -1.9638
  797MOL0     H 7566   0.899   8.774   6.287 -0.7724 -0.4457 -0.2683
  797MOL0     H 7567   0.961   8.562   6.406 -1.0621 -1.0557  2.8881
  797MOL0     H 7568   0.885   8.684   6.520 -0.6796 -0.1981  0.0080
  797MOL0     H 7569   1.164   8.580   6.497 -1.4550 -0.7752 -0.8714
  797MOL0     H 7570   1.135   8.727   6.588  0.7741 -0.4713 -0.7145
  797MOL0     H 7571   0.943   8.607   6.718  0.2593 -0.9869  1.4575
  797MOL0     H 7572   1.105   8.568   6.761  0.7537 -0.8026  0.0503
  797MOL0     H 7573   0.957   8.365   6.731  2.3566 -0.0175  0.8629
  797MOL0     H 7574   0.948   8.395   6.560  0.4918  2.3150 -2.1861
  797MOL0     H 7575   1.245   8.817   6.109  1.7029  1.0214  2.7664
  797MOL0     H 7576   1.374   8.797   5.902  3.4201  2.1263 -3.2151
  797MOL0     H 7577   1.814   8.704   5.773 -1.0860 -1.5620 -0.7914
  797MOL0     H 7578   2.001   8.692   5.613 -1.0734 -1.8116  0.0458
  797MOL0     H 7579   3.693   9.164   5.814  1.9301 -0.4286 -1.0572
  797MOL0     H 7580   3.910   9.121   5.776  1.2108  1.9694  0.7480
  797MOL0     H 7581   4.311   9.156   5.630 -2.5481 -0.8759  1.6191
  797MOL0     H 7582   4.564   9.213   5.620 -0.2440  0.6619 -0.3057
  797MOL0     H 7583   4.786   9.081   5.958  0.2272 -1.2536 -2.7161
  797MOL0     H 7584   4.794   9.258   5.998 -2.2858 -0.7677 -0.2619
  797MOL0     H 7585   4.965   9.294   5.826 -2.6057  0.6824  0.0983
  797MOL0     H 7586   4.953   9.125   5.765 -0.2596 -0.3561 -0.2046
  797MOL0     H 7587   5.152   9.104   5.855  3.2660 -2.3559  3.1071
  797MOL0     H 7588   5.047   9.011   5.945 -1.3644  0.0385 -1.7932
  797MOL0     H 7589   5.209   9.173   6.073  1.1051 -0.8928 -1.2950
  797MOL0     H 7590   5.125   9.308   6.016  2.6370 -0.6130  0.0831
  797MOL0     H 7591   4.893   9.231   6.350 -2.0873 -0.3763 -1.1340
  797MOL0     H 7592   4.572   9.131   6.031  0.9352 -1.8707 -1.3228
  797MOL0     H 7593   4.424   8.948   6.109 -0.0939 -0.6133 -0.9756
  797MOL0     H 7594   4.402   9.124   6.151 -1.5750  0.1987  0.5197
  797MOL0     H 7595   4.266   9.022   6.129 -1.2058  0.6428 -2.0819
  798MOL0     O 7596   5.219   2.065   4.761  0.4830 -0.1105 -0.2202
  798MOL0     C 7597   5.318   1.999   4.737  0.4676  0.5072  0.0355
  798MOL0     O 7598   5.361   1.964   4.622  0.0347 -0.6981  0.1390
  798MOL0     C 7599   5.306   2.034   4.518  0.2960  0.3747  0.8682
  798MOL0     C 7600   5.192   1.972   4.465 -0.7969 -0.0259 -0.2234
  798MOL0     C 7601   5.129   2.025   4.345  0.2156 -0.3229 -0.0276
  798MOL0     C 7602   5.192   2.130   4.275 -0.1799  0.2889 -0.0534
  798MOL0     O 7603   5.140   2.189   4.163  0.2221 -0.0595 -0.2941
  798MOL0     C 7604   5.141   2.102   4.051  0.6463 -0.6023 -0.7249
  798MOL0     C 7605   5.177   2.198   3.934  0.0026  0.2892  0.4837
  798MOL0     C 7606   5.323   2.245   3.933 -0.8857  0.4936 -0.9963
  798MOL0     C 7607   5.330   2.399   3.938 -1.3411 -0.3888 -0.6725
  798MOL0     C 7608   5.484   2.441   3.945  0.1954  0.1529  0.5518
  798MOL0     C 7609   5.568   2.408   3.819  0.0505 -0.2131 -0.3141
  798MOL0     C 7610   5.711   2.465   3.845  0.1670 -0.4956 -0.5322
  798MOL0     C 7611   5.829   2.392   3.763  0.2336 -0.2008 -0.6445
  798MOL0     N 7612   5.954   2.468   3.785 -0.2365  0.4046 -0.1185
  798MOL0     C 7613   6.073   2.419   3.829 -0.2802  1.0521 -1.2790
  798MOL0     C 7614   6.164   2.515   3.799  0.2138 -0.5165  1.2661
  798MOL0     C 7615   6.305   2.475   3.816  0.4793  0.7979 -0.0242
  798MOL0     C 7616   6.391   2.455   3.688 -0.0103  0.1144 -0.3479
  798MOL0     C 7617   6.330   2.360   3.572 -1.1059 -0.9675 -0.1459
  798MOL0     C 7618   6.415   2.369   3.448  1.1990  0.4330  0.8538
  798MOL0     O 7619   6.358   2.263   3.366  0.0106 -0.0517  0.4377
  798MOL0     C 7620   6.419   2.246   3.237  0.2779  0.1692 -0.5901
  798MOL0     C 7621   6.452   2.352   3.149 -0.2552  0.5122  0.0431
  798MOL0     C 7622   6.515   2.322   3.031  0.4742  0.1211 -0.3196
  798MOL0     C 7623   6.541   2.194   2.987  0.0520 -0.6535  0.3610
  798MOL0     C 7624   6.612   2.165   2.863 -0.0744 -0.8295 -0.0988
  798MOL0     O 7625   6.620   2.272   2.769 -0.5170  0.1906 -0.1992
  798MOL0     C 7626   6.693   2.242   2.655 -0.2907  0.7207  1.1496
  798MOL0     C 7627   6.782   2.336   2.609  0.5549 -0.1700 -0.2222
  798MOL0     C 7628   6.855   2.323   2.494  0.3162 -0.7525  0.1216
  798MOL0     C 7629   6.839   2.216   2.411  0.1183  0.4839  0.5065
  798MOL0     O 7630   6.902   2.183   2.284  0.0011  0.3964  0.0631
  798MOL0     C 7631   6.938   2.303   2.210  0.0978 -0.6283  0.7300
  798MOL0     C 7632   7.034   2.285   2.086  0.1003 -0.0402 -0.3000
  798MOL0     C 7633   6.960   2.208   1.967 -0.5216  0.2113  0.9176
  798MOL0     C 7634   6.945   2.057   1.976 -0.2901  1.0582  0.2790
  798MOL0     C 7635   6.888   1.985   1.846  0.5302 -0.3531 -0.2796
  798MOL0     C 7636   6.874   1.836   1.867  0.3027  0.2727 -0.6030
  798MOL0     C 7637   7.007   1.761   1.892  0.1641  0.6432 -0.8552
  798MOL0     C 7638   6.979   1.608   1.909 -1.0565 -0.0363  0.0523
  798MOL0    Cl 7639   7.115   1.525   1.990  0.2022  0.1982 -0.3387
  798MOL0     C 7640   6.759   2.112   2.451  0.1750 -0.8305  0.1286
  798MOL0     C 7641   6.688   2.128   2.573 -0.7067 -1.0637  0.1653
  798MOL0     O 7642   6.655   2.051   2.848 -0.0515  0.1767 -0.3576
  798MOL0     C 7643   6.496   2.082   3.066  0.4769 -0.8287 -0.4310
  798MOL0     C 7644   6.435   2.111   3.190  1.1479 -0.0330  0.2207
  798MOL0     N 7645   6.101   2.626   3.746  0.2070 -0.1721  0.9824
  798MOL0     N 7646   5.988   2.596   3.744  0.6939 -0.8324 -0.2024
  798MOL0     C 7647   5.323   2.170   4.313 -0.3982  0.1416  0.4940
  798MOL0     C 7648   5.369   2.133   4.439 -0.7586 -0.0742  0.0511
  798MOL0     C 7649   5.381   1.932   4.851 -0.1877  0.6624  0.5914
  798MOL0     C 7650   5.368   1.974   4.983 -0.7781 -0.1765 -0.0418
  798MOL0     C 7651   5.416   1.904   5.093  0.2950 -0.0051 -0.2552
  798MOL0     C 7652   5.491   1.787   5.087  0.3390  0.1821  0.4973
  798MOL0     O 7653   5.538   1.721   5.189 -0.8560 -0.3658  0.2191
  798MOL0     C 7654   5.530   1.783   5.316  0.2364  0.2538 -0.9136
  798MOL0     C 7655   5.568   1.689   5.430  0.8345 -0.0639 -0.2704
  798MOL0     C 7656   5.463   1.578   5.454 -1.5406 -0.1345  0.6728
  798MOL0     C 7657   5.529   1.489   5.559  0.0742 -0.8725  0.1514
  798MOL0     C 7658   5.436   1.374   5.593 -0.4541  0.4391  0.3574
  798MOL0     C 7659   5.354   1.286   5.601 -0.0249 -0.4457 -0.2287
  798MOL0     C 7660   5.495   1.728   4.958  0.0980 -0.0185 -0.1768
  798MOL0     C 7661   5.453   1.802   4.845  0.9757  0.1209 -0.5585
  798MOL0     C 7662   5.478   1.724   4.726  0.6541 -1.0636 -0.6124
  798MOL0     H 7663   5.152   1.886   4.518 -2.0639  2.0705  2.5161
  798MOL0     H 7664   5.039   1.972   4.319  0.7358 -0.9688 -0.5211
  798MOL0     H 7665   5.212   2.019   4.049  1.7546  0.3128 -3.0951
  798MOL0     H 7666   5.039   2.063   4.047  1.0018 -1.7000  0.3074
  798MOL0     H 7667   5.110   2.283   3.924  1.2527  1.0132 -2.9033
  798MOL0     H 7668   5.165   2.137   3.844 -2.3114  1.5772 -0.1577
  798MOL0     H 7669   5.372   2.202   3.846  1.6305  2.4278 -0.6791
  798MOL0     H 7670   5.380   2.216   4.022 -1.2776  1.3983 -0.4343
  798MOL0     H 7671   5.282   2.433   3.846  0.3997  1.2243 -1.0546
  798MOL0     H 7672   5.282   2.443   4.026  2.8785  0.8167  1.3019
  798MOL0     H 7673   5.482   2.549   3.963 -0.1516  0.2936 -0.2724
  798MOL0     H 7674   5.535   2.404   4.034  0.7617  1.9306  1.0025
  798MOL0     H 7675   5.572   2.299   3.808  2.0116 -0.3476  1.1161
  798MOL0     H 7676   5.530   2.453   3.728  3.3313  3.0044 -0.3171
  798MOL0     H 7677   5.725   2.454   3.953 -2.9492 -2.7279 -0.1921
  798MOL0     H 7678   5.719   2.568   3.810 -1.9433 -1.1452 -3.2897
  798MOL0     H 7679   5.833   2.284   3.778  1.5439 -0.1553 -0.5563
  798MOL0     H 7680   5.809   2.399   3.655  0.3026  0.3088 -0.6300
  798MOL0     H 7681   6.090   2.316   3.857  1.0935  1.8914  1.2645
  798MOL0     H 7682   6.361   2.558   3.860 -0.5908  0.8312  1.3229
  798MOL0     H 7683   6.309   2.388   3.882  4.8796 -2.0693 -3.4483
  798MOL0     H 7684   6.408   2.549   3.635 -0.3682 -0.8148 -2.2207
  798MOL0     H 7685   6.487   2.418   3.727  1.1086  0.1189 -2.9013
  798MOL0     H 7686   6.238   2.400   3.530 -0.1455  2.7801  0.9689
  798MOL0     H 7687   6.307   2.260   3.610  0.1096  0.2167  4.3792
  798MOL0     H 7688   6.523   2.356   3.450  1.3093  1.1261 -0.0913
  798MOL0     H 7689   6.393   2.465   3.402 -1.7817  0.7357  2.6363
  798MOL0     H 7690   6.426   2.455   3.171  3.2841  1.3442  0.8667
  798MOL0     H 7691   6.552   2.408   2.974  0.5014  0.2217 -0.1496
  798MOL0     H 7692   6.790   2.429   2.663 -1.9768  1.9207 -3.1059
  798MOL0     H 7693   6.919   2.404   2.458  0.7513 -1.2931 -0.3430
  798MOL0     H 7694   6.851   2.357   2.172  1.4622  1.0414 -0.1453
  798MOL0     H 7695   6.993   2.381   2.264  1.1452 -0.6239 -0.2798
  798MOL0     H 7696   7.072   2.385   2.065 -0.0386  0.3919  1.3482
  798MOL0     H 7697   7.130   2.235   2.105 -1.4767 -2.9661  0.5057
  798MOL0     H 7698   6.861   2.253   1.961 -0.2331  1.3413  3.5511
  798MOL0     H 7699   7.010   2.226   1.871  2.5037 -0.9259  2.1463
  798MOL0     H 7700   6.888   2.034   2.067 -0.3947  1.6248  0.3614
  798MOL0     H 7701   7.042   2.009   1.995 -0.0808  1.6712  0.8328
  798MOL0     H 7702   6.955   2.002   1.761 -0.6806  2.8091 -0.7380
  798MOL0     H 7703   6.791   2.029   1.824  0.3244 -0.0767  1.0887
  798MOL0     H 7704   6.813   1.821   1.956  0.8574  0.2599 -0.2186
  798MOL0     H 7705   6.831   1.783   1.781  1.3802  0.6821 -1.4256
  798MOL0     H 7706   7.048   1.798   1.987 -0.8127  0.0033 -0.1622
  798MOL0     H 7707   7.074   1.774   1.807  1.7024  1.6261  0.4591
  798MOL0     H 7708   6.894   1.583   1.974 -0.4890 -2.0827  0.0775
  798MOL0     H 7709   6.949   1.559   1.816 -0.9026  0.1386 -0.0910
  798MOL0     H 7710   6.747   2.025   2.387  1.5746 -1.1657  0.2965
  798MOL0     H 7711   6.609   2.057   2.592 -1.9518 -0.0878 -1.1360
  798MOL0     H 7712   6.498   1.983   3.021 -1.2689 -0.0844 -2.2924
  798MOL0     H 7713   6.396   2.036   3.258 -0.4159  0.1152 -0.4669
  798MOL0     H 7714   5.377   2.255   4.272  0.6335  0.3609  2.1995
  798MOL0     H 7715   5.470   2.170   4.453 -0.2333 -2.1630  2.6567
  798MOL0     H 7716   5.321   2.069   5.009 -0.2510  0.7280 -2.1321
  798MOL0     H 7717   5.390   1.952   5.187  0.6688  1.0915 -0.7040
  798MOL0     H 7718   5.430   1.813   5.349  2.1435  0.5753  6.4081
  798MOL0     H 7719   5.587   1.875   5.329  1.1212 -0.5644  1.6195
  798MOL0     H 7720   5.594   1.755   5.513 -1.8371 -0.4018  0.9571
  798MOL0     H 7721   5.662   1.642   5.402  0.3611 -0.0659 -1.9476
  798MOL0     H 7722   5.444   1.524   5.361 -0.0519  0.9401 -0.3109
  798MOL0     H 7723   5.375   1.629   5.494 -0.7255  0.6344  1.5396
  798MOL0     H 7724   5.621   1.456   5.510 -0.4491  0.8142 -2.1832
  798MOL0     H 7725   5.546   1.538   5.655 -1.6482 -1.6776  0.9085
  798MOL0     H 7726   5.272   1.223   5.629 -1.4919  1.0060 -1.0280
  798MOL0     H 7727   5.547   1.632   4.954  0.9276  0.3819  0.5844
  798MOL0     H 7728   5.548   1.642   4.745  0.7374 -0.6542  0.9196
  798MOL0     H 7729   5.378   1.695   4.693 -1.1683  2.8793  0.8249
  798MOL0     H 7730   5.518   1.795   4.652  3.1592  2.1462  3.3928
  799MOL0     O 7731   5.044   6.872   1.203  0.3466 -0.3909 -0.4097
  799MOL0     C 7732   5.130   6.917   1.136 -0.1420  1.0986 -0.2597
  799MOL0     O 7733   5.244   6.844   1.112 -0.2572  0.1732  0.8263
  799MOL0     C 7734   5.270   6.729   1.187 -0.1512 -0.0601  0.2328
  799MOL0     C 7735   5.269   6.734   1.329  0.5853  0.1174  0.0001
  799MOL0     C 7736   5.323   6.612   1.391  0.7128 -0.7382 -1.1715
  799MOL0     C 7737   5.366   6.509   1.315 -0.0030  0.2136 -0.8342
  799MOL0     O 7738   5.420   6.402   1.389  0.3608 -0.0240  0.6481
  799MOL0     C 7739   5.399   6.274   1.330 -0.2044 -0.6207 -1.1779
  799MOL0     C 7740   5.426   6.173   1.439  0.2640  0.2735 -0.1038
  799MOL0     C 7741   5.325   6.199   1.557 -0.4574  0.5037 -0.2251
  799MOL0     C 7742   5.309   6.073   1.648  0.0141 -0.2052 -0.7773
  799MOL0     C 7743   5.226   6.103   1.774 -0.2465 -0.6974  0.6663
  799MOL0     C 7744   5.195   5.979   1.854 -0.4373  0.0816  0.2432
  799MOL0     C 7745   5.320   5.924   1.921  0.0575 -0.1367 -0.7379
  799MOL0     C 7746   5.287   5.793   2.001  0.3057 -0.4427  0.1680
  799MOL0     N 7747   5.417   5.712   1.998  0.2218  0.8395 -0.4817
  799MOL0     C 7748   5.542   5.748   2.048 -0.6232 -0.2372  0.1783
  799MOL0     C 7749   5.622   5.647   2.003 -0.9263  0.4770  0.0331
  799MOL0     C 7750   5.773   5.644   2.008  0.3329  0.3791  0.1632
  799MOL0     C 7751   5.813   5.680   2.145 -0.4087  0.2554 -0.6479
  799MOL0     C 7752   5.969   5.677   2.134  0.5914  0.0629 -0.2599
  799MOL0     C 7753   6.034   5.732   2.258 -1.1035  0.9003  0.8643
  799MOL0     O 7754   6.093   5.859   2.234 -0.2365 -0.6258  0.6933
  799MOL0     C 7755   6.206   5.908   2.297 -0.5906 -0.4364 -0.2207
  799MOL0     C 7756   6.266   6.002   2.222  0.7594 -0.4708 -0.2713
  799MOL0     C 7757   6.398   6.044   2.245  0.2488 -0.3076 -0.6426
  799MOL0     C 7758   6.472   5.979   2.353 -0.0575  0.0001  0.2082
  799MOL0     C 7759   6.616   6.019   2.379  0.8753 -0.1636  0.1295
  799MOL0     O 7760   6.663   6.112   2.292  0.1295 -0.3635 -0.3395
  799MOL0     C 7761   6.775   6.188   2.311 -0.9007  0.0986 -0.4261
  799MOL0     C 7762   6.781   6.330   2.317  0.5481  1.5954 -0.4880
  799MOL0     C 7763   6.895   6.407   2.328  0.7897  0.7463 -0.1171
  799MOL0     C 7764   7.016   6.333   2.326 -0.2024 -0.5891 -0.0299
  799MOL0     O 7765   7.133   6.395   2.322 -0.2384  0.6175  0.3102
  799MOL0     C 7766   7.140   6.509   2.232 -0.7806  0.8089 -0.7184
  799MOL0     C 7767   7.280   6.580   2.245 -0.0619 -0.8427 -0.6434
  799MOL0     C 7768   7.293   6.704   2.153  0.1929 -0.1763  0.9120
  799MOL0     C 7769   7.435   6.764   2.159 -0.0906  0.8321 -0.5227
  799MOL0     C 7770   7.437   6.865   2.049 -0.2728 -0.3380 -0.2964
  799MOL0     C 7771   7.580   6.941   2.051 -0.8687 -0.6040 -0.5381
  799MOL0     C 7772   7.599   7.048   1.945  0.6187 -0.2806  0.0778
  799MOL0     C 7773   7.738   7.117   1.938  0.2346 -0.3789 -0.3245
  799MOL0    Cl 7774   7.769   7.206   1.782  0.5502 -0.0263  0.0162
  799MOL0     C 7775   7.021   6.193   2.336  1.0187 -0.8128 -1.1061
  799MOL0     C 7776   6.900   6.129   2.333 -0.0249 -0.2299 -0.1626
  799MOL0     O 7777   6.685   5.967   2.462 -0.5655 -0.0442 -0.1368
  799MOL0     C 7778   6.406   5.876   2.431 -1.1409  0.5546 -0.4917
  799MOL0     C 7779   6.274   5.840   2.399 -0.2008 -0.0017 -0.8230
  799MOL0     N 7780   5.543   5.559   1.932  0.1693 -0.2672 -0.4204
  799MOL0     N 7781   5.422   5.587   1.938  0.2811 -0.5790 -0.8857
  799MOL0     C 7782   5.357   6.510   1.180  0.3231  0.2969  0.9188
  799MOL0     C 7783   5.312   6.617   1.114 -0.4003 -0.2159 -0.1722
  799MOL0     C 7784   5.113   7.047   1.058 -0.0665 -0.2834 -0.4479
  799MOL0     C 7785   5.197   7.060   0.946 -0.1501  0.1308 -0.1985
  799MOL0     C 7786   5.191   7.171   0.864 -1.6168 -0.0730  0.3681
  799MOL0     C 7787   5.093   7.266   0.887 -0.2225 -0.3575 -0.1807
  799MOL0     O 7788   5.075   7.378   0.809  0.4255  0.2913 -0.1330
  799MOL0     C 7789   5.126   7.379   0.680  0.3234 -0.7230 -0.4951
  799MOL0     C 7790   5.258   7.459   0.692 -0.5103  1.0494 -1.4289
  799MOL0     C 7791   5.271   7.541   0.562 -0.0998 -0.3593  0.2460
  799MOL0     C 7792   5.386   7.638   0.576  0.6386 -0.3645 -0.1612
  799MOL0     C 7793   5.358   7.736   0.686  0.3172  0.6158 -0.0403
  799MOL0     C 7794   5.314   7.790   0.786 -0.1861 -0.4206 -0.6571
  799MOL0     C 7795   5.005   7.250   0.999  0.8397  0.5550  1.2954
  799MOL0     C 7796   5.010   7.135   1.077 -0.3074  0.7080  0.6442
  799MOL0     C 7797   4.902   7.105   1.187  0.8050  0.2052 -0.4683
  799MOL0     H 7798   5.224   6.818   1.380 -3.4817 -0.3668 -2.3584
  799MOL0     H 7799   5.331   6.606   1.500  1.6149  0.4825 -1.1433
  799MOL0     H 7800   5.299   6.268   1.286  0.0956 -2.8525 -1.6700
  799MOL0     H 7801   5.463   6.260   1.243  0.0796  0.3882 -1.1484
  799MOL0     H 7802   5.531   6.178   1.470 -0.1993  3.3474  1.3501
  799MOL0     H 7803   5.411   6.067   1.417  0.3442  0.4734 -1.1477
  799MOL0     H 7804   5.225   6.221   1.518 -0.8940  0.7802  1.0198
  799MOL0     H 7805   5.366   6.290   1.600 -1.9685  2.4942 -2.6912
  799MOL0     H 7806   5.263   5.993   1.589 -3.3176 -0.8199  2.2666
  799MOL0     H 7807   5.411   6.037   1.664  0.1606  0.3420 -0.4174
  799MOL0     H 7808   5.262   6.182   1.841  0.3620 -0.4548  0.0571
  799MOL0     H 7809   5.129   6.141   1.740 -0.3466 -0.7026  0.9391
  799MOL0     H 7810   5.116   6.008   1.924 -1.7234  2.0114 -1.8583
  799MOL0     H 7811   5.146   5.904   1.791  2.1587 -2.0924  0.6247
  799MOL0     H 7812   5.364   6.011   1.970 -3.3348  2.8025 -2.4085
  799MOL0     H 7813   5.406   5.898   1.859 -0.0115 -3.3670  0.3349
  799MOL0     H 7814   5.252   5.823   2.100 -1.3314  0.6629 -0.7013
  799MOL0     H 7815   5.211   5.736   1.947  1.7779  0.1087 -2.7081
  799MOL0     H 7816   5.573   5.836   2.103 -2.0093 -0.6448  1.6938
  799MOL0     H 7817   5.817   5.550   1.972  0.4397 -0.4628  2.3741
  799MOL0     H 7818   5.816   5.715   1.937  3.1719 -0.4838  0.9028
  799MOL0     H 7819   5.772   5.770   2.191  3.6355  0.9335  2.1714
  799MOL0     H 7820   5.782   5.597   2.209 -1.5708  2.0781  1.2854
  799MOL0     H 7821   5.999   5.747   2.055  0.7714  0.5929  0.2727
  799MOL0     H 7822   5.997   5.576   2.102  1.9552  0.2162  0.4088
  799MOL0     H 7823   6.107   5.655   2.282  1.7380  2.5961 -1.6751
  799MOL0     H 7824   5.962   5.735   2.341 -2.9428 -0.8840 -0.5876
  799MOL0     H 7825   6.204   6.045   2.144 -0.4272 -1.5182  0.0640
  799MOL0     H 7826   6.437   6.132   2.195 -2.5905  1.5128  0.1173
  799MOL0     H 7827   6.686   6.382   2.329 -0.0347  1.0862 -2.4922
  799MOL0     H 7828   6.894   6.515   2.323 -2.1623  0.7793 -0.3845
  799MOL0     H 7829   7.145   6.490   2.124 -2.0091 -0.7063 -0.5504
  799MOL0     H 7830   7.065   6.589   2.242 -1.4954  0.0910 -0.2135
  799MOL0     H 7831   7.310   6.608   2.346 -2.3658  0.5833 -0.2741
  799MOL0     H 7832   7.362   6.514   2.216  0.6014 -0.2079 -0.2476
  799MOL0     H 7833   7.254   6.684   2.053 -0.9619  0.1237  1.2844
  799MOL0     H 7834   7.219   6.777   2.188 -0.1383 -1.0870  2.2302
  799MOL0     H 7835   7.512   6.687   2.142 -0.0046  0.5304  1.0846
  799MOL0     H 7836   7.453   6.806   2.258 -0.2308  0.0498 -0.1561
  799MOL0     H 7837   7.352   6.931   2.070 -2.9969 -2.6107 -3.2340
  799MOL0     H 7838   7.410   6.835   1.948 -0.0008 -1.5662 -0.0179
  799MOL0     H 7839   7.584   6.982   2.152 -0.8427 -4.6947  1.3317
  799MOL0     H 7840   7.655   6.862   2.049 -1.4446 -1.2545  1.6617
  799MOL0     H 7841   7.525   7.128   1.951  3.3886  2.4225  0.3292
  799MOL0     H 7842   7.577   6.991   1.854 -1.1989 -3.3756  2.2694
  799MOL0     H 7843   7.761   7.174   2.029 -0.8810  0.9140 -0.8088
  799MOL0     H 7844   7.806   7.033   1.956  1.0157  0.4904  1.0143
  799MOL0     H 7845   7.119   6.146   2.342  0.1953 -2.4333  0.2731
  799MOL0     H 7846   6.885   6.022   2.340  0.0780 -0.1498  1.5329
  799MOL0     H 7847   6.451   5.854   2.528  0.9562  2.8040 -0.8552
  799MOL0     H 7848   6.237   5.759   2.461 -1.0847  0.6516 -0.4703
  799MOL0     H 7849   5.402   6.441   1.109 -2.4474  0.5947 -1.3613
  799MOL0     H 7850   5.325   6.600   1.008 -0.4310  1.7363 -0.5158
  799MOL0     H 7851   5.278   6.990   0.928  1.9248  1.8523  1.7968
  799MOL0     H 7852   5.266   7.183   0.786  0.4123  0.2094  2.2523
  799MOL0     H 7853   5.055   7.426   0.612 -2.8303 -2.4874  1.3244
  799MOL0     H 7854   5.134   7.277   0.641  1.5308 -2.3435  3.4076
  799MOL0     H 7855   5.342   7.393   0.715 -1.0701  0.1757 -1.8717
  799MOL0     H 7856   5.241   7.521   0.781 -2.4985 -0.6635 -0.5250
  799MOL0     H 7857   5.179   7.599   0.562  0.2309  0.5238  4.4709
  799MOL0     H 7858   5.282   7.471   0.479 -2.1935  2.4898 -2.6230
  799MOL0     H 7859   5.477   7.584   0.603  1.2950  0.8921  0.2148
  799MOL0     H 7860   5.419   7.698   0.491  0.2195  2.9986  1.8818
  799MOL0     H 7861   5.272   7.849   0.865  0.8584 -2.2458  1.3462
  799MOL0     H 7862   4.932   7.329   1.015  3.5194  3.4099  0.3133
  799MOL0     H 7863   4.866   7.003   1.170  1.7805  0.1956 -2.9883
  799MOL0     H 7864   4.950   7.115   1.285  2.2322  2.6865 -1.3343
  799MOL0     H 7865   4.817   7.174   1.192 -0.1184 -0.9804  0.6826
  800MOL0     O 7866   1.967   7.812   7.102 -0.1456 -0.2693  0.0231
  800MOL0     C 7867   1.924   7.780   7.215 -0.0371 -0.1676 -0.5074
  800MOL0     O 7868   2.005   7.732   7.320 -0.4175 -0.3163 -0.2695
  800MOL0     C 7869   2.132   7.694   7.295 -0.7288  0.4734  0.2623
  800MOL0     C 7870   2.189   7.661   7.416 -0.7282 -1.2904  0.1952
  800MOL0     C 7871   2.317   7.612   7.421 -1.3622  0.5898  0.2939
  800MOL0     C 7872   2.397   7.607   7.310 -0.3624 -0.1927  0.5875
  800MOL0     O 7873   2.534   7.580   7.304  0.1851 -0.6042  0.3086
  800MOL0     C 7874   2.581   7.472   7.379 -0.6460  0.1468  0.2570
  800MOL0     C 7875   2.725   7.422   7.361 -0.2282 -0.0841  0.1714
  800MOL0     C 7876   2.816   7.547   7.387  0.1479  0.0529  0.3057
  800MOL0     C 7877   2.859   7.562   7.535  0.8555 -0.0936 -0.4829
  800MOL0     C 7878   2.989   7.656   7.545 -0.6482  1.0688 -0.3143
  800MOL0     C 7879   2.964   7.805   7.525  0.5677  0.3182  0.6837
  800MOL0     C 7880   3.097   7.885   7.554  0.2729 -0.1458 -0.6715
  800MOL0     C 7881   3.156   7.934   7.420 -0.4969  1.1715  0.7236
  800MOL0     N 7882   3.189   7.815   7.329  0.5942  0.1517 -0.8419
  800MOL0     C 7883   3.287   7.720   7.360  0.0238 -0.2635 -0.3184
  800MOL0     C 7884   3.292   7.633   7.256  0.1765  0.1495  0.7112
  800MOL0     C 7885   3.394   7.516   7.243  0.3934  0.5516 -0.6314
  800MOL0     C 7886   3.334   7.377   7.291  0.2384  0.2047 -0.2316
  800MOL0     C 7887   3.240   7.319   7.181  0.0771  0.4958 -0.0324
  800MOL0     C 7888   3.167   7.183   7.224  0.6314 -0.3120 -0.2741
  800MOL0     O 7889   3.081   7.121   7.135 -0.9417  0.1858 -0.8300
  800MOL0     C 7890   2.954   7.155   7.130  0.1115  0.1592 -0.2547
  800MOL0     C 7891   2.906   7.255   7.043 -0.8196  0.1449 -0.8996
  800MOL0     C 7892   2.766   7.262   7.029 -0.5438 -0.0252  1.0281
  800MOL0     C 7893   2.676   7.166   7.089 -0.8110 -0.2786 -0.2085
  800MOL0     C 7894   2.532   7.163   7.054  0.4501  0.2821 -0.4991
  800MOL0     O 7895   2.474   7.264   6.983 -0.4672  0.2795  0.3328
  800MOL0     C 7896   2.337   7.289   6.991  1.1115 -0.5309  0.8248
  800MOL0     C 7897   2.253   7.277   7.112  0.3205  0.3066 -0.0913
  800MOL0     C 7898   2.110   7.298   7.108  0.9885 -0.3739  0.4720
  800MOL0     C 7899   2.046   7.346   6.988 -0.6138 -0.1523 -0.6882
  800MOL0     O 7900   1.915   7.374   6.985  0.5987  0.6698 -0.2044
  800MOL0     C 7901   1.872   7.509   7.020  0.5688  0.2570  0.7068
  800MOL0     C 7902   1.736   7.494   7.091 -0.0696 -0.5113  0.1556
  800MOL0     C 7903   1.632   7.433   6.998  0.7412  0.3872 -0.2596
  800MOL0     C 7904   1.491   7.416   7.061 -0.0205  0.1121  0.1849
  800MOL0     C 7905   1.390   7.351   6.965 -0.6745 -0.6629  0.4306
  800MOL0     C 7906   1.260   7.335   7.019 -0.6085  0.1999  0.5116
  800MOL0     C 7907   1.171   7.289   6.908  0.1083 -0.5347 -0.3250
  800MOL0     C 7908   1.176   7.153   6.857 -0.3525 -0.2820 -0.1708
  800MOL0    Cl 7909   1.006   7.094   6.808 -0.4790  0.2098 -0.2040
  800MOL0     C 7910   2.129   7.355   6.876 -0.7580  1.1713 -0.3567
  800MOL0     C 7911   2.264   7.325   6.873 -0.6904 -0.6681  0.2018
  800MOL0     O 7912   2.466   7.074   7.105  0.1128 -0.7429  0.4683
  800MOL0     C 7913   2.730   7.075   7.178 -0.0594 -0.7378  0.2007
  800MOL0     C 7914   2.867   7.075   7.201 -0.6525  0.9581  0.4004
  800MOL0     N 7915   3.184   7.673   7.174 -0.0219 -0.0270 -0.3947
  800MOL0     N 7916   3.136   7.786   7.210  0.0061 -0.2477  0.4767
  800MOL0     C 7917   2.330   7.616   7.189  0.3485 -0.0901 -0.7588
  800MOL0     C 7918   2.199   7.660   7.179  0.0266 -0.5806  0.1898
  800MOL0     C 7919   1.788   7.806   7.257 -0.2410 -0.2005  1.0165
  800MOL0     C 7920   1.761   7.800   7.394 -0.0372 -0.3660  0.6264
  800MOL0     C 7921   1.634   7.827   7.447 -0.3883  0.2623 -0.2183
  800MOL0     C 7922   1.527   7.854   7.352  0.2494 -0.7084  0.3908
  800MOL0     O 7923   1.398   7.862   7.380  0.4065 -1.2376 -0.4247
  800MOL0     C 7924   1.313   7.759   7.334 -0.5333  0.5013  0.5578
  800MOL0     C 7925   1.239   7.717   7.453  0.0577  0.6441 -0.6907
  800MOL0     C 7926   1.210   7.561   7.475  0.4138 -0.4926 -0.4312
  800MOL0     C 7927   1.342   7.491   7.485 -0.3260  0.1827 -0.3085
  800MOL0     C 7928   1.330   7.394   7.581  0.4199 -0.5119  0.0928
  800MOL0     C 7929   1.313   7.318   7.671  0.1728  1.0421  0.4430
  800MOL0     C 7930   1.557   7.863   7.216 -1.0336  0.0065  0.6504
  800MOL0     C 7931   1.686   7.848   7.168  0.2556  0.5834  0.1038
  800MOL0     C 7932   1.705   7.865   7.019 -0.0112 -0.5962 -0.3562
  800MOL0     H 7933   2.128   7.675   7.505 -0.3416  0.3391  0.2229
  800MOL0     H 7934   2.361   7.592   7.518  0.9428 -1.1143 -0.9829
  800MOL0     H 7935   2.571   7.493   7.486 -0.4371  2.8473 -0.1841
  800MOL0     H 7936   2.522   7.381   7.365  0.6641 -0.8644  1.0773
  800MOL0     H 7937   2.741   7.388   7.258 -3.1856 -1.7336  0.1764
  800MOL0     H 7938   2.756   7.345   7.432  1.4298  0.6687  0.3188
  800MOL0     H 7939   2.765   7.638   7.356 -0.9623 -0.3895  0.7965
  800MOL0     H 7940   2.911   7.541   7.333  0.0113  2.4968 -0.3300
  800MOL0     H 7941   2.780   7.595   7.602 -0.6513 -0.3243 -2.0656
  800MOL0     H 7942   2.891   7.465   7.576  0.0386 -0.1239  0.1227
  800MOL0     H 7943   3.018   7.651   7.651 -1.7519 -2.5445 -0.0556
  800MOL0     H 7944   3.071   7.627   7.479 -0.6723  2.9963 -1.2492
  800MOL0     H 7945   2.920   7.815   7.426 -1.1486 -0.5860  1.3087
  800MOL0     H 7946   2.882   7.839   7.590 -0.1047  3.3066 -1.5539
  800MOL0     H 7947   3.174   7.825   7.604 -1.2241  0.8992  3.2645
  800MOL0     H 7948   3.074   7.972   7.617 -2.3567 -1.2131 -0.0169
  800MOL0     H 7949   3.083   7.990   7.361 -0.0790  0.6055 -0.3507
  800MOL0     H 7950   3.249   7.988   7.443  0.0586  0.3760  0.3965
  800MOL0     H 7951   3.362   7.726   7.438  0.6838  1.2565 -1.0492
  800MOL0     H 7952   3.415   7.510   7.136  1.4223 -0.2306 -0.4054
  800MOL0     H 7953   3.480   7.533   7.310  0.5220  0.0545 -0.6691
  800MOL0     H 7954   3.408   7.300   7.315  0.7544  0.1182 -1.9649
  800MOL0     H 7955   3.270   7.396   7.378 -3.9602 -3.2462 -2.1236
  800MOL0     H 7956   3.303   7.318   7.092  4.2684  3.4251  2.5272
  800MOL0     H 7957   3.160   7.390   7.157  0.4838  0.3789 -1.8424
  800MOL0     H 7958   3.113   7.199   7.318 -2.0348 -3.4116 -1.0824
  800MOL0     H 7959   3.239   7.101   7.241 -0.2372 -0.7698  1.3697
  800MOL0     H 7960   2.964   7.325   6.985 -0.2136  1.3535  1.0645
  800MOL0     H 7961   2.742   7.340   6.957 -0.6603 -1.7242 -0.8673
  800MOL0     H 7962   2.291   7.241   7.207  0.9183 -0.8097 -0.7193
  800MOL0     H 7963   2.059   7.279   7.202  1.3521 -5.2995 -0.0577
  800MOL0     H 7964   1.948   7.563   7.077  1.6933 -1.4104  0.8637
  800MOL0     H 7965   1.857   7.557   6.923 -0.1998  0.6333  1.0049
  800MOL0     H 7966   1.754   7.421   7.170  0.8903 -1.4781 -0.9201
  800MOL0     H 7967   1.699   7.589   7.132  1.7046  0.2189  0.1688
  800MOL0     H 7968   1.618   7.501   6.913  2.4425  1.6428  0.4142
  800MOL0     H 7969   1.659   7.330   6.969  1.9361  0.3476  0.9244
  800MOL0     H 7970   1.457   7.516   7.089  3.6017  0.9535  2.2172
  800MOL0     H 7971   1.495   7.354   7.151  1.2665 -0.1550 -0.0307
  800MOL0     H 7972   1.435   7.263   6.918  1.5911  1.5803 -1.9585
  800MOL0     H 7973   1.380   7.424   6.884 -1.5434  0.4465  1.5054
  800MOL0     H 7974   1.260   7.269   7.106  0.9753 -2.3775 -1.2932
  800MOL0     H 7975   1.207   7.427   7.046 -3.4500 -1.0845 -0.3559
  800MOL0     H 7976   1.164   7.357   6.822  0.6918 -1.3059 -0.9974
  800MOL0     H 7977   1.070   7.308   6.945  0.8181  3.3751  0.0211
  800MOL0     H 7978   1.256   7.134   6.785  1.1315 -1.6670  1.7449
  800MOL0     H 7979   1.223   7.099   6.939  0.8985  2.5480  1.1323
  800MOL0     H 7980   2.084   7.365   6.778 -2.0281 -2.2704 -0.2667
  800MOL0     H 7981   2.312   7.326   6.776 -1.2538 -0.8275 -0.0836
  800MOL0     H 7982   2.669   7.000   7.228  0.3071 -0.3076  1.3030
  800MOL0     H 7983   2.919   6.989   7.241 -0.6572 -0.3767 -2.2803
  800MOL0     H 7984   2.389   7.587   7.102  0.5539  2.4704 -1.5789
  800MOL0     H 7985   2.150   7.652   7.083 -0.1226  0.5211  0.1640
  800MOL0     H 7986   1.833   7.766   7.467 -0.0415 -0.6953  0.4795
  800MOL0     H 7987   1.609   7.836   7.552  2.5209  2.5400  0.4008
  800MOL0     H 7988   1.373   7.676   7.297  2.2468  1.6815  2.1872
  800MOL0     H 7989   1.244   7.804   7.261 -0.3275 -1.0272 -0.6399
  800MOL0     H 7990   1.140   7.764   7.450 -2.2328 -3.4431  2.0102
  800MOL0     H 7991   1.295   7.753   7.539  0.3867  1.8995 -1.3966
  800MOL0     H 7992   1.144   7.517   7.399  1.5027 -1.3722 -0.8935
  800MOL0     H 7993   1.154   7.553   7.568  1.1264  1.3818  0.2109
  800MOL0     H 7994   1.359   7.443   7.388  0.4747 -3.0207  1.2839
  800MOL0     H 7995   1.426   7.546   7.529  0.0305 -2.4110  2.5703
  800MOL0     H 7996   1.268   7.246   7.735  2.4833 -0.3331  0.6240
  800MOL0     H 7997   1.473   7.889   7.152  2.7313  1.8202 -4.2202
  800MOL0     H 7998   1.615   7.875   6.959  0.9878  2.4862 -1.5456
  800MOL0     H 7999   1.773   7.949   7.001  1.4576 -2.4214 -4.8886
  800MOL0     H 8000   1.755   7.780   6.971 -1.1867 -0.5170 -1.8034
  801MOL0     O 8001   8.741   4.997   2.601  0.0868  0.1681 -0.1770
  801MOL0     C 8002   8.731   5.038   2.716 -1.3983 -0.1391 -0.4909
  801MOL0     O 8003   8.615   5.088   2.771  0.8219 -0.2610  0.6339
  801MOL0     C 8004   8.498   5.104   2.696  0.4084 -0.5118  0.4813
  801MOL0     C 8005   8.497   5.124   2.548  0.1959  0.2389 -0.2080
  801MOL0     C 8006   8.373   5.152   2.482 -0.9652 -0.7645  0.0924
  801MOL0     C 8007   8.256   5.160   2.558  0.1060 -0.3670 -0.3467
  801MOL0     O 8008   8.142   5.195   2.482 -0.2309 -0.1777 -0.0791
  801MOL0     C 8009   8.026   5.210   2.560  0.5378  1.1555 -0.3427
  801MOL0     C 8010   7.899   5.219   2.473 -0.1165  0.3799 -0.5281
  801MOL0     C 8011   7.859   5.087   2.400  0.5622 -0.3482  0.4582
  801MOL0     C 8012   7.744   5.111   2.292 -0.0335 -0.2410 -0.3017
  801MOL0     C 8013   7.609   5.030   2.308 -0.1505  0.8965 -0.2264
  801MOL0     C 8014   7.495   5.077   2.415  0.4421  0.4507 -0.0830
  801MOL0     C 8015   7.390   4.957   2.435  0.4573  0.6724  0.3675
  801MOL0     C 8016   7.263   5.018   2.484 -0.5812 -0.5494 -0.9555
  801MOL0     N 8017   7.154   4.922   2.492 -1.2434 -0.1810 -0.1232
  801MOL0     C 8018   7.083   4.878   2.379 -0.1448 -0.8301 -0.7791
  801MOL0     C 8019   7.008   4.776   2.419 -0.2998 -0.9557  0.9618
  801MOL0     C 8020   6.919   4.686   2.329 -1.4051 -0.6440 -0.1843
  801MOL0     C 8021   6.989   4.573   2.259 -0.8924 -0.4386 -0.4446
  801MOL0     C 8022   7.062   4.609   2.143 -0.3777  0.1360  0.2258
  801MOL0     C 8023   6.989   4.603   2.025 -0.5639 -0.4040 -0.3491
  801MOL0     O 8024   7.085   4.597   1.919 -0.0171  0.6656  0.4838
  801MOL0     C 8025   7.040   4.602   1.793  0.6569  0.6285 -0.3015
  801MOL0     C 8026   7.118   4.549   1.694  0.3009  0.8636  0.7210
  801MOL0     C 8027   7.075   4.538   1.567  0.2853  0.2600  0.3155
  801MOL0     C 8028   6.940   4.568   1.527  0.6027 -0.0271  0.0860
  801MOL0     C 8029   6.889   4.539   1.387  0.1531  0.8584 -0.2637
  801MOL0     O 8030   6.781   4.608   1.346  0.1701  0.1189  0.7180
  801MOL0     C 8031   6.742   4.579   1.209 -0.3071  0.0177 -0.7388
  801MOL0     C 8032   6.732   4.696   1.130 -0.4242  0.2825  1.2420
  801MOL0     C 8033   6.680   4.672   0.995 -0.3407  0.7206 -0.4223
  801MOL0     C 8034   6.622   4.546   0.957 -0.6038 -0.0358 -0.6267
  801MOL0     O 8035   6.559   4.521   0.839  0.7432 -0.8904 -0.2733
  801MOL0     C 8036   6.422   4.479   0.859 -1.2354  0.1410 -0.0181
  801MOL0     C 8037   6.373   4.400   0.745 -0.2361  0.1935 -0.7303
  801MOL0     C 8038   6.454   4.272   0.763 -0.6485  0.3299  0.5424
  801MOL0     C 8039   6.398   4.149   0.685 -0.1017 -0.0400 -0.6693
  801MOL0     C 8040   6.274   4.086   0.742  0.5990  0.1972  0.9879
  801MOL0     C 8041   6.216   3.973   0.648 -0.4787  0.8077 -0.1639
  801MOL0     C 8042   6.156   4.029   0.521 -0.6948 -0.4180  0.8886
  801MOL0     C 8043   6.018   4.086   0.533  0.7146 -0.3006  0.7410
  801MOL0    Cl 8044   5.899   3.939   0.525 -0.2450 -0.6915  0.5593
  801MOL0     C 8045   6.629   4.446   1.050  0.3655 -0.4599 -0.3985
  801MOL0     C 8046   6.689   4.455   1.174 -0.1746  0.4975  0.0996
  801MOL0     O 8047   6.948   4.454   1.319 -0.5624 -0.1967 -0.2407
  801MOL0     C 8048   6.853   4.617   1.625 -0.3304  0.7046 -0.2555
  801MOL0     C 8049   6.904   4.633   1.759  0.4351 -0.3887  0.1668
  801MOL0     N 8050   7.047   4.743   2.543 -0.1992  0.4596 -0.2928
  801MOL0     N 8051   7.140   4.825   2.590 -0.5767 -0.2782  0.1159
  801MOL0     C 8052   8.255   5.146   2.696  0.3157  1.0407 -0.7866
  801MOL0     C 8053   8.370   5.117   2.771 -0.0783  0.8011  0.2848
  801MOL0     C 8054   8.852   5.076   2.796 -0.5621  0.1848 -0.8871
  801MOL0     C 8055   8.839   5.191   2.874 -0.6567 -0.6045 -0.7355
  801MOL0     C 8056   8.942   5.229   2.969 -0.7748 -0.3214  0.0060
  801MOL0     C 8057   9.058   5.151   2.975 -0.1639 -0.5101  0.7640
  801MOL0     O 8058   9.154   5.199   3.049  0.3619 -0.1699 -0.3686
  801MOL0     C 8059   9.215   5.114   3.149  0.6665 -0.7659 -0.3756
  801MOL0     C 8060   9.302   5.191   3.254 -0.0590 -0.7633  0.7832
  801MOL0     C 8061   9.411   5.284   3.178  0.4241  0.4093 -0.0519
  801MOL0     C 8062   9.533   5.302   3.265 -0.2560 -0.3435  0.1473
  801MOL0     C 8063   9.487   5.356   3.397 -0.4513 -0.8656  1.0866
  801MOL0     C 8064   9.446   5.391   3.508  0.7976  1.0572  0.0479
  801MOL0     C 8065   9.067   5.027   2.905  0.4694 -0.2626  0.0433
  801MOL0     C 8066   8.974   4.993   2.799 -1.1056 -0.6825 -0.7712
  801MOL0     C 8067   9.002   4.877   2.708 -0.1148  0.0751  0.3374
  801MOL0     H 8068   8.587   5.108   2.490 -0.3712 -1.9097 -0.5722
  801MOL0     H 8069   8.375   5.164   2.374  1.3742  3.2724  0.3753
  801MOL0     H 8070   7.999   5.123   2.621 -2.5997  2.1424 -0.1515
  801MOL0     H 8071   8.024   5.300   2.623 -1.7993  0.1437  1.2101
  801MOL0     H 8072   7.913   5.293   2.394  0.0485 -0.0850 -0.9374
  801MOL0     H 8073   7.816   5.253   2.535 -1.7072  0.2734 -2.5369
  801MOL0     H 8074   7.827   5.013   2.474  2.2761 -1.5150  0.0892
  801MOL0     H 8075   7.944   5.037   2.353 -0.4761 -2.9695  1.1904
  801MOL0     H 8076   7.716   5.217   2.286  0.1962 -0.1715 -0.1298
  801MOL0     H 8077   7.782   5.099   2.190  1.0986  2.8720 -0.3448
  801MOL0     H 8078   7.564   5.025   2.209  0.6958  0.1661 -0.5884
  801MOL0     H 8079   7.629   4.924   2.325 -0.3329  0.4456 -2.5038
  801MOL0     H 8080   7.532   5.114   2.512  1.6759 -1.3026  0.1646
  801MOL0     H 8081   7.446   5.152   2.352  0.5584  0.0455 -0.6602
  801MOL0     H 8082   7.418   4.879   2.506  1.7100  0.3448 -0.4585
  801MOL0     H 8083   7.379   4.904   2.340  1.7306 -0.1868  0.6722
  801MOL0     H 8084   7.289   5.055   2.584  0.2032 -0.5796 -1.1392
  801MOL0     H 8085   7.233   5.101   2.419 -2.8791 -2.8760 -3.0750
  801MOL0     H 8086   7.076   4.919   2.279 -0.6041 -2.2157 -1.3357
  801MOL0     H 8087   6.852   4.636   2.399 -1.8103  2.1826  1.5877
  801MOL0     H 8088   6.867   4.736   2.246 -1.0637 -0.6817 -0.4236
  801MOL0     H 8089   7.060   4.529   2.330 -0.6650  0.2675 -0.2266
  801MOL0     H 8090   6.924   4.487   2.239 -0.5641 -1.7257  3.2328
  801MOL0     H 8091   7.154   4.551   2.141  1.5574  2.7633  2.7817
  801MOL0     H 8092   7.108   4.707   2.162 -0.6650  0.2651  0.2761
  801MOL0     H 8093   6.923   4.690   2.022 -3.3300 -2.1253  3.2194
  801MOL0     H 8094   6.936   4.508   2.021  2.4671 -2.2014 -1.1680
  801MOL0     H 8095   7.211   4.504   1.726 -2.5495 -3.1652  4.6192
  801MOL0     H 8096   7.148   4.511   1.492  1.6811 -1.1659  2.0998
  801MOL0     H 8097   6.770   4.790   1.166  0.6245 -0.1048  1.1688
  801MOL0     H 8098   6.681   4.747   0.916  1.2524 -1.5994 -2.7808
  801MOL0     H 8099   6.410   4.424   0.953  1.3446 -0.6825 -0.0964
  801MOL0     H 8100   6.348   4.561   0.861 -2.6218 -1.0546  2.7474
  801MOL0     H 8101   6.265   4.385   0.737 -0.0291 -2.9496  0.9447
  801MOL0     H 8102   6.402   4.449   0.651 -0.3166  0.1426 -0.7818
  801MOL0     H 8103   6.555   4.294   0.726 -0.4122 -0.2060  0.8567
  801MOL0     H 8104   6.466   4.237   0.866  0.3971  0.3283  0.4363
  801MOL0     H 8105   6.478   4.074   0.696  3.9997  3.8841 -0.8049
  801MOL0     H 8106   6.388   4.185   0.582  0.2768 -0.5073 -0.8751
  801MOL0     H 8107   6.196   4.159   0.761  0.5224  0.1292  0.9386
  801MOL0     H 8108   6.303   4.036   0.835  3.9637 -0.3386 -0.2003
  801MOL0     H 8109   6.277   3.885   0.626  0.7421  1.0682  1.9023
  801MOL0     H 8110   6.145   3.921   0.713 -1.2203  0.6967 -1.0433
  801MOL0     H 8111   6.161   3.954   0.441  3.1573 -1.5504  2.0258
  801MOL0     H 8112   6.218   4.104   0.471 -0.0852 -1.6293 -0.2352
  801MOL0     H 8113   6.007   4.157   0.615 -0.9412  0.3636 -0.0101
  801MOL0     H 8114   5.986   4.145   0.447 -1.0482 -1.7284  0.3519
  801MOL0     H 8115   6.601   4.345   1.021  1.9298 -0.9449 -0.3272
  801MOL0     H 8116   6.701   4.371   1.242 -0.0100 -0.1997 -0.7772
  801MOL0     H 8117   6.749   4.630   1.598 -0.8466  0.3664  1.4528
  801MOL0     H 8118   6.835   4.675   1.832  0.3456 -0.9366  0.3982
  801MOL0     H 8119   8.161   5.157   2.749 -0.9325  3.9933 -3.2806
  801MOL0     H 8120   8.367   5.121   2.879 -0.8188  0.3071  0.2886
  801MOL0     H 8121   8.749   5.250   2.867  1.0562  2.2841  0.0176
  801MOL0     H 8122   8.936   5.317   3.033  4.1761  0.2862  0.0249
  801MOL0     H 8123   9.282   5.047   3.097  0.1127 -0.9375 -0.8805
  801MOL0     H 8124   9.137   5.047   3.188 -1.9414  0.4060 -3.1832
  801MOL0     H 8125   9.353   5.121   3.320 -0.8894 -0.4773  1.7657
  801MOL0     H 8126   9.226   5.249   3.308 -1.1554 -1.6306  0.2019
  801MOL0     H 8127   9.358   5.376   3.152  1.8582  1.4047  0.4608
  801MOL0     H 8128   9.441   5.245   3.081  1.1214  0.5710  0.0938
  801MOL0     H 8129   9.573   5.203   3.291  0.5982  0.1381  0.7007
  801MOL0     H 8130   9.602   5.367   3.210  1.1500 -0.3414  1.8234
  801MOL0     H 8131   9.421   5.423   3.607  0.2635 -2.2522  1.0735
  801MOL0     H 8132   9.152   4.960   2.913  0.0555 -1.6683 -4.3821
  801MOL0     H 8133   9.072   4.806   2.753  1.1169  1.8490  1.3091
  801MOL0     H 8134   8.903   4.831   2.695  1.4382 -3.6684  0.6272
  801MOL0     H 8135   9.054   4.911   2.618  4.1542  2.0285  3.2140
  802MOL0     O 8136   1.509   2.497  10.898 -0.3115 -0.2580 -0.7189
  802MOL0     C 8137   1.535   2.596  10.958 -0.0548 -0.3066 -1.4412
  802MOL0     O 8138   1.659   2.632  11.006 -0.4122 -0.6245  0.9316
  802MOL0     C 8139   1.766   2.563  10.952 -0.0470  0.5119 -0.2330
  802MOL0     C 8140   1.803   2.581  10.824  0.5574 -0.2398 -0.8939
  802MOL0     C 8141   1.925   2.523  10.778 -0.0121 -0.0765 -0.4533
  802MOL0     C 8142   2.004   2.435  10.862 -0.0598  0.2418 -0.0720
  802MOL0     O 8143   2.115   2.379  10.806 -0.2213 -0.1582  0.7998
  802MOL0     C 8144   2.200   2.290  10.877 -0.3536 -0.3866 -0.2967
  802MOL0     C 8145   2.326   2.265  10.787  0.1032 -0.6309 -0.0901
  802MOL0     C 8146   2.320   2.163  10.673  0.5535  0.0713  0.8336
  802MOL0     C 8147   2.212   2.191  10.561 -0.2131 -0.4145 -0.5051
  802MOL0     C 8148   2.254   2.128  10.432 -0.7403 -0.5642 -0.9667
  802MOL0     C 8149   2.157   2.148  10.321  1.3741 -0.5460 -0.2308
  802MOL0     C 8150   2.031   2.063  10.323  1.0284 -0.7079 -0.3117
  802MOL0     C 8151   2.043   1.911  10.305 -0.1039  0.0497  0.2994
  802MOL0     N 8152   1.919   1.831  10.317 -0.0882 -0.4754 -0.6089
  802MOL0     C 8153   1.806   1.869  10.373  0.8525 -0.9511 -0.0918
  802MOL0     C 8154   1.725   1.762  10.393  1.6975  0.1586  0.4491
  802MOL0     C 8155   1.607   1.751  10.488 -0.6380  0.6729  0.3144
  802MOL0     C 8156   1.479   1.816  10.436 -0.3835 -0.6731  0.4628
  802MOL0     C 8157   1.355   1.753  10.502  0.4754 -0.8038 -0.5326
  802MOL0     C 8158   1.312   1.618  10.448 -0.8143  0.4454  0.6603
  802MOL0     O 8159   1.279   1.634  10.305 -0.2942  0.7310 -0.7283
  802MOL0     C 8160   1.249   1.525  10.229 -0.6362  0.5550 -0.6370
  802MOL0     C 8161   1.239   1.394  10.282 -0.0748  0.8229  0.2158
  802MOL0     C 8162   1.206   1.287  10.185  1.2548 -0.0802 -0.3494
  802MOL0     C 8163   1.180   1.312  10.046 -0.9477  0.0152  0.3773
  802MOL0     C 8164   1.121   1.217   9.952  0.2947  0.0743 -0.0071
  802MOL0     O 8165   1.149   1.088   9.991 -0.2462 -0.7409 -0.7157
  802MOL0     C 8166   1.123   0.977   9.916  1.2440 -0.5032  0.0928
  802MOL0     C 8167   1.077   0.867   9.986  1.1043  0.7370 -0.5997
  802MOL0     C 8168   1.072   0.743   9.929  0.4608 -0.2157 -0.2531
  802MOL0     C 8169   1.129   0.719   9.808 -0.3456  0.3856  0.0682
  802MOL0     O 8170   1.153   0.584   9.775 -0.2318 -0.3873 -0.1847
  802MOL0     C 8171   1.181   0.546   9.640 -0.0560  0.9224  0.7347
  802MOL0     C 8172   1.189   0.396   9.642  0.3583  0.8725  0.7808
  802MOL0     C 8173   1.272   0.335   9.533 -0.9045 -0.1038 -0.0667
  802MOL0     C 8174   1.415   0.397   9.514 -0.5600 -0.1445 -0.6601
  802MOL0     C 8175   1.511   0.305   9.458 -0.9000  0.5214  0.6995
  802MOL0     C 8176   1.474   0.255   9.310  0.8654  0.4831 -1.1099
  802MOL0     C 8177   1.600   0.169   9.282  0.3300 -0.0751 -0.2253
  802MOL0     C 8178   1.580   0.077   9.154  0.9651 -0.4054  0.6965
  802MOL0    Cl 8179   1.721  -0.024   9.106 -0.0415  0.7244 -0.1485
  802MOL0     C 8180   1.150   0.827   9.729  0.1384 -0.4824  0.5399
  802MOL0     C 8181   1.156   0.957   9.783  0.8863  0.3791  0.4715
  802MOL0     O 8182   1.070   1.256   9.848  1.1382 -0.1149  0.9565
  802MOL0     C 8183   1.193   1.444  10.001 -0.3999 -0.1096  0.0163
  802MOL0     C 8184   1.219   1.550  10.097  0.2834 -0.0528 -0.5546
  802MOL0     N 8185   1.791   1.661  10.327  0.1157  0.2965  0.4928
  802MOL0     N 8186   1.907   1.703  10.282 -0.3688  0.0654 -0.6031
  802MOL0     C 8187   1.965   2.417  10.991 -0.2920 -0.2951 -0.2369
  802MOL0     C 8188   1.847   2.482  11.034 -0.6048 -0.4452 -0.8469
  802MOL0     C 8189   1.424   2.695  10.991  0.2318  0.2689 -0.3958
  802MOL0     C 8190   1.343   2.738  10.890 -1.2297 -0.0719  0.2436
  802MOL0     C 8191   1.240   2.827  10.912  0.1372 -0.6559 -0.8375
  802MOL0     C 8192   1.221   2.891  11.040 -0.0931 -0.3435 -0.1839
  802MOL0     O 8193   1.120   2.976  11.081 -0.1292 -0.2222 -0.1702
  802MOL0     C 8194   0.995   2.948  11.019 -0.1173  0.1162  1.5872
  802MOL0     C 8195   0.888   3.043  11.083 -0.1811  0.9937  0.6915
  802MOL0     C 8196   0.869   3.027  11.232 -0.1226 -0.4484 -0.4174
  802MOL0     C 8197   0.772   3.132  11.291  0.0902  0.0922  0.1538
  802MOL0     C 8198   0.763   3.122  11.436  0.4132  0.4867 -0.2247
  802MOL0     C 8199   0.743   3.130  11.552  0.5438 -0.6077 -0.3893
  802MOL0     C 8200   1.310   2.841  11.140 -0.5381 -0.0177  0.4442
  802MOL0     C 8201   1.410   2.754  11.118  0.0707 -0.8649 -0.5183
  802MOL0     C 8202   1.484   2.709  11.246 -0.1698 -0.1793 -0.4215
  802MOL0     H 8203   1.755   2.655  10.760 -0.5371 -0.9710 -0.9524
  802MOL0     H 8204   1.959   2.532  10.675 -1.7921 -3.8941 -1.5504
  802MOL0     H 8205   2.246   2.341  10.962 -0.1745 -2.5578  0.9839
  802MOL0     H 8206   2.139   2.203  10.904 -2.8402  1.3303 -0.0771
  802MOL0     H 8207   2.419   2.243  10.841 -0.1420 -0.8064  0.2645
  802MOL0     H 8208   2.367   2.360  10.751  1.2146 -0.4911  1.4113
  802MOL0     H 8209   2.291   2.066  10.715 -0.0008 -2.4618 -4.5876
  802MOL0     H 8210   2.422   2.146  10.636  0.8799  0.7755  1.3811
  802MOL0     H 8211   2.122   2.132  10.582  0.4256 -1.2006  0.0629
  802MOL0     H 8212   2.182   2.296  10.560 -1.2694 -0.6979 -1.2391
  802MOL0     H 8213   2.347   2.174  10.398  0.1367 -1.8012 -0.3195
  802MOL0     H 8214   2.267   2.023  10.459 -3.1147  0.0349  3.5216
  802MOL0     H 8215   2.128   2.253  10.313 -0.9562 -0.9853  1.3791
  802MOL0     H 8216   2.214   2.124  10.231  0.6137 -2.8368 -0.1659
  802MOL0     H 8217   1.977   2.097  10.235 -1.1639 -2.5182  0.2459
  802MOL0     H 8218   1.987   2.078  10.422  0.4341 -3.0766 -0.1679
  802MOL0     H 8219   2.077   1.908  10.201 -1.4549  2.0568 -0.2679
  802MOL0     H 8220   2.115   1.867  10.375 -0.0622 -1.6331 -0.7537
  802MOL0     H 8221   1.787   1.966  10.420 -1.0005  0.1143 -2.8214
  802MOL0     H 8222   1.591   1.644  10.505  1.4521  0.3056  0.2154
  802MOL0     H 8223   1.633   1.807  10.578  0.7099  0.0274  0.3486
  802MOL0     H 8224   1.482   1.919  10.472 -1.9849  0.0838 -1.3791
  802MOL0     H 8225   1.477   1.805  10.327  1.9789  1.9904  0.0404
  802MOL0     H 8226   1.279   1.831  10.493  0.5641 -0.4880  1.0667
  802MOL0     H 8227   1.381   1.760  10.608  1.7108 -0.8887 -0.8131
  802MOL0     H 8228   1.228   1.575  10.502 -1.6438  2.5453  1.1666
  802MOL0     H 8229   1.398   1.552  10.459  1.7838  3.8348  2.5975
  802MOL0     H 8230   1.251   1.379  10.389  0.2940 -0.7558 -0.0214
  802MOL0     H 8231   1.186   1.189  10.228  0.6482  2.5380  6.5601
  802MOL0     H 8232   1.045   0.888  10.088 -0.0665  1.2158 -1.0390
  802MOL0     H 8233   1.027   0.654   9.973  0.6331 -1.3137 -2.1492
  802MOL0     H 8234   1.102   0.581   9.573  1.0335 -1.2082 -1.8463
  802MOL0     H 8235   1.279   0.583   9.608 -0.0326 -1.1886 -2.0516
  802MOL0     H 8236   1.234   0.361   9.735  0.7723  1.6407  0.8741
  802MOL0     H 8237   1.092   0.346   9.634  1.8816 -1.9747 -1.9357
  802MOL0     H 8238   1.277   0.234   9.574 -0.0593  0.4170  1.1636
  802MOL0     H 8239   1.205   0.333   9.447 -1.4450  0.2773  0.3374
  802MOL0     H 8240   1.457   0.425   9.611  1.0819 -2.3883 -0.6563
  802MOL0     H 8241   1.397   0.487   9.454 -0.6979 -0.6571 -1.4038
  802MOL0     H 8242   1.525   0.216   9.520  0.9601 -1.7000 -2.6190
  802MOL0     H 8243   1.612   0.347   9.461 -0.8845  0.4720  2.8358
  802MOL0     H 8244   1.382   0.198   9.318 -0.3940  2.6867  2.4140
  802MOL0     H 8245   1.463   0.341   9.243  0.6004  3.4625  2.4313
  802MOL0     H 8246   1.624   0.104   9.366 -2.4442 -0.9811 -0.0282
  802MOL0     H 8247   1.682   0.240   9.264 -1.5827  2.1740 -0.5976
  802MOL0     H 8248   1.492   0.017   9.181  0.7135  0.2134  1.3117
  802MOL0     H 8249   1.563   0.144   9.069  3.7121  0.3274  0.6427
  802MOL0     H 8250   1.190   0.812   9.629  0.3085  0.0569  0.5223
  802MOL0     H 8251   1.184   1.036   9.714 -0.5764 -0.8996 -1.7099
  802MOL0     H 8252   1.185   1.476   9.897 -2.4128  1.0749  0.4624
  802MOL0     H 8253   1.229   1.650  10.058  0.5536  0.1596  0.0563
  802MOL0     H 8254   2.019   2.353  11.060  1.4365 -1.1573 -2.2988
  802MOL0     H 8255   1.830   2.478  11.141 -1.2100 -0.3923 -0.9368
  802MOL0     H 8256   1.359   2.692  10.793  0.0029  1.1897 -0.1838
  802MOL0     H 8257   1.176   2.866  10.834 -1.0116  2.3456  1.4338
  802MOL0     H 8258   0.966   2.843  11.026  3.9290 -1.0863  2.9353
  802MOL0     H 8259   0.999   2.968  10.912 -1.9904  2.1000  1.8000
  802MOL0     H 8260   0.795   3.023  11.029 -0.3419 -4.8535  2.4183
  802MOL0     H 8261   0.931   3.141  11.064  3.3831 -0.7269 -1.2250
  802MOL0     H 8262   0.965   3.031  11.284 -0.6317  0.3182  0.4882
  802MOL0     H 8263   0.815   2.933  11.247 -2.6294  0.7045 -1.5149
  802MOL0     H 8264   0.802   3.236  11.276 -1.3228  0.6045  0.7061
  802MOL0     H 8265   0.672   3.118  11.248  0.6546 -0.6741 -0.9566
  802MOL0     H 8266   0.713   3.128  11.654 -0.5163 -4.9271 -0.6155
  802MOL0     H 8267   1.306   2.882  11.241 -2.7434 -0.8405  0.7428
  802MOL0     H 8268   1.573   2.648  11.226  0.7716  1.7960 -2.7443
  802MOL0     H 8269   1.515   2.789  11.314  1.3062  1.5179 -2.9098
  802MOL0     H 8270   1.416   2.639  11.295  0.4045 -0.6749 -0.3174
  803MOL0     O 8271   0.447   6.305   1.320  0.1872  0.1137 -0.1274
  803MOL0     C 8272   0.542   6.249   1.263 -0.7899  0.3235  1.0861
  803MOL0     O 8273   0.529   6.143   1.174  0.4679  0.2094 -0.2781
  803MOL0     C 8274   0.402   6.087   1.152 -0.3883 -0.2693 -0.0423
  803MOL0     C 8275   0.311   6.137   1.052  0.5007 -1.3735  0.0036
  803MOL0     C 8276   0.174   6.095   1.047 -0.0893 -0.2772  0.7704
  803MOL0     C 8277   0.142   6.001   1.137  0.3543 -0.2309  0.3026
  803MOL0     O 8278   0.016   5.956   1.115  1.1434 -0.5524 -0.2327
  803MOL0     C 8279  -0.050   5.917   1.235 -0.4558  0.4214 -0.9500
  803MOL0     C 8280  -0.197   5.933   1.227 -0.3351 -1.1208 -0.8078
  803MOL0     C 8281  -0.258   6.059   1.164  0.3017  0.6779  1.1237
  803MOL0     C 8282  -0.419   6.056   1.170  0.4007  0.0044 -1.0203
  803MOL0     C 8283  -0.488   6.025   1.307 -0.1487  0.6058 -0.0866
  803MOL0     C 8284  -0.638   6.036   1.285  0.6521 -0.7754  0.1548
  803MOL0     C 8285  -0.726   6.007   1.413  0.0712 -0.3391 -0.6037
  803MOL0     C 8286  -0.846   6.112   1.412 -0.4554 -0.0063 -0.0853
  803MOL0     N 8287  -0.932   6.085   1.522  0.0992 -0.2207 -0.6058
  803MOL0     C 8288  -0.905   6.121   1.648  0.1054 -0.2203 -1.2177
  803MOL0     C 8289  -1.012   6.088   1.717  0.5998  0.0801 -0.2532
  803MOL0     C 8290  -1.027   6.116   1.867 -0.6168 -0.2941 -0.2009
  803MOL0     C 8291  -1.079   6.258   1.865  0.0754 -0.2482 -0.8460
  803MOL0     C 8292  -1.078   6.310   2.006  0.5673  0.5526 -0.8696
  803MOL0     C 8293  -1.179   6.427   2.027 -0.7296  0.2723 -0.2657
  803MOL0     O 8294  -1.306   6.373   2.036  0.4121 -0.3246 -0.0743
  803MOL0     C 8295  -1.362   6.306   2.149 -0.8032 -0.4778 -0.1245
  803MOL0     C 8296  -1.303   6.293   2.272  0.3743  0.0514 -0.2767
  803MOL0     C 8297  -1.374   6.223   2.369 -1.3276  0.0874 -1.0984
  803MOL0     C 8298  -1.494   6.159   2.354  0.4134 -0.4741 -0.2662
  803MOL0     C 8299  -1.553   6.085   2.458  0.0901  0.4727  0.4738
  803MOL0     O 8300  -1.484   6.089   2.575  0.4382  0.2721  1.0162
  803MOL0     C 8301  -1.530   6.003   2.676 -0.2138 -0.5657  0.2451
  803MOL0     C 8302  -1.544   6.060   2.807  0.6952 -0.1758 -0.8707
  803MOL0     C 8303  -1.583   5.975   2.913  0.3834 -0.2913  1.0920
  803MOL0     C 8304  -1.625   5.843   2.891  0.2056 -0.3676  0.2389
  803MOL0     O 8305  -1.666   5.777   3.002 -0.1992 -0.1743  0.2074
  803MOL0     C 8306  -1.657   5.629   3.006  0.3897 -0.4940 -0.0239
  803MOL0     C 8307  -1.706   5.578   3.144  0.4246  0.1071  0.4180
  803MOL0     C 8308  -1.696   5.676   3.257  0.0741  0.4267 -0.2575
  803MOL0     C 8309  -1.755   5.603   3.382 -0.3241 -0.6277 -0.3352
  803MOL0     C 8310  -1.756   5.701   3.491 -0.4500 -0.0269  0.1704
  803MOL0     C 8311  -1.849   5.661   3.602  1.6871  0.1899 -0.3474
  803MOL0     C 8312  -1.804   5.722   3.732  0.8803 -0.2980  0.4594
  803MOL0     C 8313  -1.885   5.677   3.855 -0.2228  0.1589  0.4135
  803MOL0    Cl 8314  -2.061   5.703   3.826  0.4338  0.0043 -0.3577
  803MOL0     C 8315  -1.616   5.796   2.762  0.1171  0.2264 -0.6444
  803MOL0     C 8316  -1.559   5.871   2.659 -0.2912 -0.2218  0.2379
  803MOL0     O 8317  -1.657   6.030   2.430  0.2025  0.6399  0.3391
  803MOL0     C 8318  -1.553   6.171   2.223 -0.5738 -0.1817 -0.4346
  803MOL0     C 8319  -1.481   6.245   2.127 -0.5393  0.3496  0.7215
  803MOL0     N 8320  -1.104   6.032   1.638 -0.4149  0.1654  0.3652
  803MOL0     N 8321  -1.063   6.033   1.518 -1.0084 -0.0642 -0.2897
  803MOL0     C 8322   0.233   5.938   1.230 -0.2873 -0.4733 -0.0382
  803MOL0     C 8323   0.362   5.991   1.244  0.0484 -0.5276  1.0761
  803MOL0     C 8324   0.684   6.285   1.266  0.6978 -0.9418 -0.4208
  803MOL0     C 8325   0.784   6.187   1.285 -0.0999  0.1787  1.1517
  803MOL0     C 8326   0.917   6.223   1.283 -0.5427  0.8366 -0.3961
  803MOL0     C 8327   0.960   6.357   1.261  0.4947  0.7024  0.8197
  803MOL0     O 8328   1.092   6.397   1.273  0.0975  0.6532 -0.0566
  803MOL0     C 8329   1.176   6.303   1.337 -0.6013  0.3523  0.6768
  803MOL0     C 8330   1.303   6.373   1.372  0.5022 -0.4198 -0.0618
  803MOL0     C 8331   1.401   6.388   1.251 -0.5073 -1.3330  1.2255
  803MOL0     C 8332   1.549   6.415   1.290  0.0231 -0.6664  0.0134
  803MOL0     C 8333   1.566   6.531   1.377 -0.1073  0.7893  0.5741
  803MOL0     C 8334   1.597   6.626   1.451  0.6958  0.7977  0.1679
  803MOL0     C 8335   0.858   6.446   1.226  0.4553 -0.3317 -0.4820
  803MOL0     C 8336   0.721   6.412   1.227  0.2416 -0.3871 -0.8769
  803MOL0     C 8337   0.638   6.525   1.171  0.5575 -0.0629  0.0282
  803MOL0     H 8338   0.346   6.203   0.973  1.1977  0.7336  1.9498
  803MOL0     H 8339   0.100   6.130   0.976  0.8969 -1.0686 -0.6836
  803MOL0     H 8340  -0.036   5.810   1.256 -3.2989 -0.3949 -2.5630
  803MOL0     H 8341  -0.016   5.968   1.325  3.3898 -6.6619  2.5106
  803MOL0     H 8342  -0.218   5.934   1.334  1.2994 -1.4945 -0.4638
  803MOL0     H 8343  -0.240   5.841   1.186 -2.8440  0.6423 -2.4321
  803MOL0     H 8344  -0.227   6.073   1.060  0.4485  0.2891  1.1146
  803MOL0     H 8345  -0.228   6.147   1.222  1.2345  0.9337  0.2811
  803MOL0     H 8346  -0.455   6.150   1.126 -0.5286  0.5245  0.7322
  803MOL0     H 8347  -0.462   5.979   1.106 -0.2983  0.5767 -1.2547
  803MOL0     H 8348  -0.458   5.924   1.336 -1.2381  0.6336  1.2034
  803MOL0     H 8349  -0.460   6.085   1.394 -0.5056 -0.9554  1.1517
  803MOL0     H 8350  -0.661   6.136   1.247  1.9920 -0.3140  0.4864
  803MOL0     H 8351  -0.670   5.964   1.210 -3.5234 -1.3579  2.1897
  803MOL0     H 8352  -0.661   6.011   1.501  0.2929 -1.1563 -0.7236
  803MOL0     H 8353  -0.766   5.906   1.402 -0.3020  0.0927 -4.4238
  803MOL0     H 8354  -0.812   6.216   1.418 -0.2705 -0.1406  1.6800
  803MOL0     H 8355  -0.891   6.100   1.313  1.7257 -1.0210 -1.0212
  803MOL0     H 8356  -0.816   6.171   1.685 -0.1303  1.5829 -2.9035
  803MOL0     H 8357  -1.092   6.050   1.925  0.8355 -2.8752 -1.3588
  803MOL0     H 8358  -0.927   6.116   1.910 -0.8442 -1.2873  0.3614
  803MOL0     H 8359  -1.027   6.332   1.803 -1.1792 -0.1679 -1.8480
  803MOL0     H 8360  -1.183   6.259   1.831 -0.6775  0.0972  1.3050
  803MOL0     H 8361  -0.971   6.333   2.008  0.7354 -0.2384 -0.6551
  803MOL0     H 8362  -1.096   6.234   2.083  3.7464 -1.9919 -2.4118
  803MOL0     H 8363  -1.177   6.500   1.946 -1.1526 -0.0445 -0.5654
  803MOL0     H 8364  -1.169   6.471   2.127  0.3569 -1.5979  0.4903
  803MOL0     H 8365  -1.203   6.325   2.300  0.2184  0.3801 -0.0870
  803MOL0     H 8366  -1.324   6.212   2.465  0.5625 -0.8906 -2.1397
  803MOL0     H 8367  -1.529   6.165   2.827 -0.0277 -0.4189  1.2061
  803MOL0     H 8368  -1.617   5.999   3.014 -0.5765 -2.2682  1.2806
  803MOL0     H 8369  -1.730   5.600   2.930 -0.4234  1.8938 -0.2353
  803MOL0     H 8370  -1.554   5.606   2.979  0.3413  2.3052 -3.3982
  803MOL0     H 8371  -1.811   5.547   3.135  0.5582  0.2429 -2.8996
  803MOL0     H 8372  -1.642   5.497   3.182  3.0504  0.5943 -2.5790
  803MOL0     H 8373  -1.592   5.691   3.288  0.5455 -0.3532 -1.3818
  803MOL0     H 8374  -1.747   5.770   3.235 -0.7549 -0.3562 -1.9316
  803MOL0     H 8375  -1.693   5.522   3.421 -0.7574 -0.3429  0.9952
  803MOL0     H 8376  -1.856   5.573   3.352 -1.4507  1.5250  1.1053
  803MOL0     H 8377  -1.787   5.800   3.459 -1.0972  0.3360  1.8229
  803MOL0     H 8378  -1.655   5.716   3.531 -0.0682 -1.7535 -0.0243
  803MOL0     H 8379  -1.950   5.693   3.576 -0.9580 -2.8963  4.5333
  803MOL0     H 8380  -1.851   5.552   3.615 -1.4247  0.0748 -0.8351
  803MOL0     H 8381  -1.790   5.830   3.720  0.9863 -0.2312  1.1574
  803MOL0     H 8382  -1.705   5.676   3.740 -0.7019 -3.9410  0.7765
  803MOL0     H 8383  -1.855   5.573   3.875 -1.1607 -0.2746 -0.3344
  803MOL0     H 8384  -1.856   5.752   3.928  0.6471  0.1380  0.0972
  803MOL0     H 8385  -1.644   5.692   2.746  3.1730 -0.9740  1.0384
  803MOL0     H 8386  -1.563   5.810   2.569  0.2112  2.4604 -1.7546
  803MOL0     H 8387  -1.652   6.133   2.199  0.2995 -1.8395 -1.6747
  803MOL0     H 8388  -1.528   6.246   2.029  0.8765  0.3809  0.0273
  803MOL0     H 8389   0.195   5.864   1.301 -1.3478 -1.2157 -1.3231
  803MOL0     H 8390   0.431   5.959   1.322 -0.6308 -1.0321  1.4843
  803MOL0     H 8391   0.749   6.090   1.320 -2.9136 -0.1113 -1.9585
  803MOL0     H 8392   0.981   6.146   1.323 -0.5724  0.3499 -1.2593
  803MOL0     H 8393   1.206   6.223   1.269  0.5015  1.8787 -0.7180
  803MOL0     H 8394   1.129   6.256   1.423 -0.7098  0.0870  0.4745
  803MOL0     H 8395   1.343   6.302   1.445  0.2335 -2.1335 -1.5388
  803MOL0     H 8396   1.288   6.472   1.417 -0.7391  0.2962 -1.9550
  803MOL0     H 8397   1.366   6.474   1.193 -0.1969 -0.3399  2.4659
  803MOL0     H 8398   1.389   6.305   1.181  1.9553 -0.3504 -0.4943
  803MOL0     H 8399   1.588   6.324   1.335 -1.8761 -2.7234 -2.2314
  803MOL0     H 8400   1.616   6.432   1.206  0.5498 -0.1598  0.5289
  803MOL0     H 8401   1.609   6.705   1.523 -0.2355  0.9442  0.1756
  803MOL0     H 8402   0.876   6.552   1.212  1.0293 -0.3388  0.1408
  803MOL0     H 8403   0.561   6.486   1.103 -0.1229  0.3471  0.5562
  803MOL0     H 8404   0.594   6.589   1.248 -1.2743 -0.2233 -0.8246
  803MOL0     H 8405   0.692   6.591   1.102 -2.6724 -0.8887 -3.6379
  804MOL0     O 8406   8.357   7.164   5.117  0.2686 -0.2706  0.6305
  804MOL0     C 8407   8.348   7.215   5.005 -0.5879  0.0036  1.1588
  804MOL0     O 8408   8.275   7.170   4.897 -0.4508  0.1042  0.5367
  804MOL0     C 8409   8.218   7.043   4.899 -0.5358  0.4074 -0.2978
  804MOL0     C 8410   8.150   7.006   4.784 -0.3304 -0.9981 -0.4574
  804MOL0     C 8411   8.079   6.890   4.771  0.3346  0.4352  0.3855
  804MOL0     C 8412   8.060   6.806   4.880  0.0827  0.3876  0.1734
  804MOL0     O 8413   7.983   6.689   4.878  0.0326  0.1375  0.1711
  804MOL0     C 8414   7.933   6.630   4.756 -0.6079  0.9919  0.7261
  804MOL0     C 8415   7.858   6.501   4.806 -0.5536 -0.0719  0.2165
  804MOL0     C 8416   7.927   6.426   4.922 -0.0050 -0.0914  0.1542
  804MOL0     C 8417   7.850   6.293   4.936 -0.2557 -0.1244 -0.3003
  804MOL0     C 8418   7.886   6.210   5.051  0.8294 -0.0083 -0.4697
  804MOL0     C 8419   7.804   6.082   5.037  0.3815  0.4672  0.5541
  804MOL0     C 8420   7.821   5.978   5.155  0.3970 -0.5467 -0.0477
  804MOL0     C 8421   7.806   6.038   5.300 -0.0192 -0.0674 -0.0671
  804MOL0     N 8422   7.757   5.944   5.407 -0.2721  0.1883 -0.1283
  804MOL0     C 8423   7.835   5.864   5.479 -0.2900 -0.6369 -0.4677
  804MOL0     C 8424   7.755   5.808   5.566 -0.9537  0.1473 -0.3798
  804MOL0     C 8425   7.789   5.703   5.664 -0.2017 -0.0849  1.1852
  804MOL0     C 8426   7.712   5.576   5.625  0.3349  0.1720 -0.1657
  804MOL0     C 8427   7.786   5.448   5.677  0.2668 -0.4410  0.1725
  804MOL0     C 8428   7.894   5.383   5.594  0.5650 -1.1272 -0.3711
  804MOL0     O 8429   7.894   5.245   5.610  1.6146  0.5387  0.0926
  804MOL0     C 8430   7.990   5.187   5.688 -0.1538  0.8630 -0.2269
  804MOL0     C 8431   7.958   5.148   5.816  0.1293 -0.0024 -0.4788
  804MOL0     C 8432   8.051   5.088   5.902 -0.2414  0.3018 -0.4976
  804MOL0     C 8433   8.181   5.069   5.863 -0.2319 -1.1801 -0.0871
  804MOL0     C 8434   8.275   5.021   5.965  0.1804  0.3161 -0.0520
  804MOL0     O 8435   8.406   5.008   5.924  0.2498 -0.9898 -0.1898
  804MOL0     C 8436   8.501   5.000   6.022  0.4076 -0.4699  0.0892
  804MOL0     C 8437   8.498   5.041   6.158 -0.2661  0.2299  0.3117
  804MOL0     C 8438   8.616   5.007   6.237  0.7219  0.3015  1.1972
  804MOL0     C 8439   8.740   4.950   6.179  0.0431 -1.0527  0.5416
  804MOL0     O 8440   8.847   4.896   6.245  0.7847  0.2350 -0.1262
  804MOL0     C 8441   8.820   4.856   6.381 -0.5649 -0.1160 -0.4746
  804MOL0     C 8442   8.942   4.783   6.431  0.0161  0.4260 -0.0229
  804MOL0     C 8443   8.929   4.761   6.588 -0.2485 -0.1680  0.8978
  804MOL0     C 8444   9.033   4.834   6.673  0.3588 -0.1107  1.6432
  804MOL0     C 8445   9.184   4.843   6.634 -0.4495  0.4488 -0.2965
  804MOL0     C 8446   9.270   4.872   6.753  0.6453  0.6858 -0.4431
  804MOL0     C 8447   9.422   4.831   6.733  0.4426  0.2718 -0.4326
  804MOL0     C 8448   9.493   4.805   6.869 -0.9178 -0.4606 -0.8240
  804MOL0    Cl 8449   9.646   4.729   6.817 -0.4003 -0.2452 -0.5882
  804MOL0     C 8450   8.733   4.920   6.042 -0.0161  0.4264 -0.8684
  804MOL0     C 8451   8.617   4.940   5.972  0.9177 -0.1049  0.2433
  804MOL0     O 8452   8.235   4.978   6.074 -0.2179 -0.3995  0.2038
  804MOL0     C 8453   8.215   5.126   5.732 -0.0052  0.7164 -0.6152
  804MOL0     C 8454   8.120   5.164   5.645 -0.3788  0.2443 -0.2947
  804MOL0     N 8455   7.629   5.856   5.558  0.1877 -1.1561 -0.0739
  804MOL0     N 8456   7.629   5.945   5.459 -0.4258  0.3104  0.1190
  804MOL0     C 8457   8.128   6.842   5.002 -0.0417 -0.0071 -0.1444
  804MOL0     C 8458   8.207   6.956   5.006 -0.6644 -0.0167 -0.6140
  804MOL0     C 8459   8.408   7.349   4.990 -0.5366 -0.4278  0.5747
  804MOL0     C 8460   8.320   7.443   4.940  0.8422 -0.7172 -0.6017
  804MOL0     C 8461   8.345   7.577   4.943 -0.3402 -0.3466 -0.0907
  804MOL0     C 8462   8.456   7.627   5.015 -0.6171  0.7335 -0.3435
  804MOL0     O 8463   8.480   7.770   5.019  0.7448 -0.4796  0.7635
  804MOL0     C 8464   8.574   7.824   5.111  0.9054 -0.3322 -1.0517
  804MOL0     C 8465   8.713   7.842   5.056 -0.3683  0.5205  0.4857
  804MOL0     C 8466   8.713   7.937   4.935  0.5947  0.6876 -0.2606
  804MOL0     C 8467   8.853   7.966   4.881 -0.2914  0.1886  0.2628
  804MOL0     C 8468   8.906   7.863   4.787  0.8005  0.6926 -0.2814
  804MOL0     C 8469   8.944   7.776   4.711 -1.0608  0.2166  0.5882
  804MOL0     C 8470   8.550   7.529   5.069  0.7674  0.0382  0.0096
  804MOL0     C 8471   8.533   7.391   5.053  0.2179  0.2383  0.4441
  804MOL0     C 8472   8.636   7.295   5.089 -0.4067 -0.0918 -0.1139
  804MOL0     H 8473   8.145   7.072   4.698 -1.5995  0.3243  0.5809
  804MOL0     H 8474   8.022   6.858   4.684  0.8032 -1.3313  0.6867
  804MOL0     H 8475   7.864   6.697   4.705 -2.6931 -0.7936  1.0524
  804MOL0     H 8476   8.010   6.592   4.688 -1.8131  0.7401 -0.5499
  804MOL0     H 8477   7.855   6.425   4.728  1.5842 -1.0003  0.9538
  804MOL0     H 8478   7.757   6.526   4.841 -1.1794 -5.1013  2.9717
  804MOL0     H 8479   7.953   6.473   5.017 -1.0899 -2.1929  1.5853
  804MOL0     H 8480   8.022   6.383   4.890 -0.9418 -1.6999 -0.6223
  804MOL0     H 8481   7.744   6.315   4.943 -0.0817  0.2588  1.3619
  804MOL0     H 8482   7.859   6.236   4.843  1.2036  0.0684 -0.3001
  804MOL0     H 8483   7.995   6.198   5.053  0.9964  1.3213 -0.5592
  804MOL0     H 8484   7.859   6.264   5.142 -3.2204 -2.1682 -0.1743
  804MOL0     H 8485   7.698   6.107   5.026  0.5882  1.2131  0.1786
  804MOL0     H 8486   7.821   6.033   4.941 -2.1759 -0.1472  0.3287
  804MOL0     H 8487   7.928   5.954   5.152  1.1112  2.3486 -1.0220
  804MOL0     H 8488   7.753   5.892   5.158  0.5776 -0.6769  0.7216
  804MOL0     H 8489   7.905   6.066   5.335  1.1356 -1.8497 -1.7302
  804MOL0     H 8490   7.740   6.126   5.295  2.2744  2.0758  3.1874
  804MOL0     H 8491   7.939   5.844   5.453 -1.3011  1.1936 -8.3273
  804MOL0     H 8492   7.895   5.681   5.648 -0.8256 -2.1624 -0.6152
  804MOL0     H 8493   7.758   5.738   5.763  0.2364  1.4804  0.8067
  804MOL0     H 8494   7.617   5.581   5.679 -1.6073 -0.7640 -3.2415
  804MOL0     H 8495   7.688   5.561   5.519 -1.4603  0.3952  0.1861
  804MOL0     H 8496   7.708   5.374   5.696 -2.0798  1.6914 -0.4762
  804MOL0     H 8497   7.831   5.472   5.773  0.3370 -0.6658  0.1959
  804MOL0     H 8498   7.991   5.423   5.628 -0.0691  1.2921 -1.1865
  804MOL0     H 8499   7.872   5.414   5.492 -0.1481  0.2751  0.1798
  804MOL0     H 8500   7.854   5.165   5.842  0.7706  1.8798  1.0818
  804MOL0     H 8501   8.019   5.071   6.004 -0.2072 -2.5148 -0.8831
  804MOL0     H 8502   8.408   5.081   6.202  0.0249  1.0254  0.1908
  804MOL0     H 8503   8.615   5.032   6.343 -0.8863 -1.1815  1.5851
  804MOL0     H 8504   8.790   4.947   6.434  2.6815  2.6766 -3.0075
  804MOL0     H 8505   8.740   4.781   6.376 -0.1410 -0.5551 -0.7362
  804MOL0     H 8506   8.939   4.693   6.368  3.7342 -1.3219  1.9372
  804MOL0     H 8507   9.030   4.839   6.397 -0.6136 -1.0867 -5.1131
  804MOL0     H 8508   8.827   4.783   6.621  0.3762 -0.1220  2.9236
  804MOL0     H 8509   8.948   4.657   6.614 -0.5895 -0.2309  0.9092
  804MOL0     H 8510   9.020   4.772   6.762 -1.0404 -2.2384  0.0619
  804MOL0     H 8511   9.007   4.939   6.688  0.4684 -0.3696  3.9254
  804MOL0     H 8512   9.200   4.916   6.554 -2.8905  1.4683  0.0610
  804MOL0     H 8513   9.212   4.742   6.602 -1.7096 -0.8003  2.2982
  804MOL0     H 8514   9.251   4.978   6.772 -0.1208  0.4261  0.3045
  804MOL0     H 8515   9.233   4.824   6.845 -0.4416  1.8030 -0.2785
  804MOL0     H 8516   9.468   4.918   6.686  0.3674  0.0050 -1.0058
  804MOL0     H 8517   9.448   4.736   6.686  1.9357 -0.4322  1.6703
  804MOL0     H 8518   9.525   4.887   6.933 -0.3185 -1.0232 -0.3907
  804MOL0     H 8519   9.430   4.736   6.926 -2.5892 -0.6313 -2.7605
  804MOL0     H 8520   8.821   4.873   5.999  1.4313  3.1075 -1.0837
  804MOL0     H 8521   8.634   4.906   5.871  0.9243 -4.4868  1.4684
  804MOL0     H 8522   8.316   5.135   5.692 -0.4055 -2.2434 -2.6007
  804MOL0     H 8523   8.139   5.191   5.541 -0.3327  0.8846 -0.1274
  804MOL0     H 8524   8.130   6.771   5.084  2.0018 -2.5671 -2.2141
  804MOL0     H 8525   8.243   6.971   5.107  0.4358 -1.5226 -0.7558
  804MOL0     H 8526   8.221   7.415   4.906 -0.8578  1.0554  2.5145
  804MOL0     H 8527   8.263   7.623   4.890 -0.2665 -0.8853 -0.6821
  804MOL0     H 8528   8.584   7.765   5.202 -2.7711  0.2858 -0.0910
  804MOL0     H 8529   8.542   7.921   5.151  3.2499 -0.5598  1.6807
  804MOL0     H 8530   8.755   7.743   5.035 -1.2369 -0.4435  2.9895
  804MOL0     H 8531   8.779   7.893   5.127  2.1616 -1.9817  0.1154
  804MOL0     H 8532   8.652   8.024   4.959 -0.7757 -0.2636 -0.1394
  804MOL0     H 8533   8.656   7.889   4.855 -2.9302 -1.5562  3.1675
  804MOL0     H 8534   8.850   8.063   4.830 -2.3445  0.1598  0.2484
  804MOL0     H 8535   8.923   7.979   4.964  1.2771 -0.5364 -0.8876
  804MOL0     H 8536   8.983   7.700   4.646  1.5108  1.1761  0.8959
  804MOL0     H 8537   8.640   7.563   5.120  1.1262 -0.9027  0.0307
  804MOL0     H 8538   8.618   7.194   5.050 -2.8714  0.5658 -0.8786
  804MOL0     H 8539   8.733   7.315   5.044  1.1037  0.0612  2.9866
  804MOL0     H 8540   8.649   7.268   5.195  0.9842 -0.4176 -0.3480
  805MOL0     O 8541   6.994  11.039   4.263  0.5119 -0.1946 -0.8798
  805MOL0     C 8542   6.881  11.051   4.209 -0.5249  0.7015  0.0280
  805MOL0     O 8543   6.866  11.083   4.072 -0.2729 -0.4655 -0.2008
  805MOL0     C 8544   6.962  11.062   3.986  0.0296  0.0937  0.8289
  805MOL0     C 8545   7.100  11.102   4.004  0.4309  1.4424 -0.4113
  805MOL0     C 8546   7.190  11.078   3.898  1.1371 -0.5827  0.4859
  805MOL0     C 8547   7.156  11.007   3.783 -1.2111  0.7585 -0.1088
  805MOL0     O 8548   7.262  10.979   3.704  0.5348 -0.2662 -0.0853
  805MOL0     C 8549   7.256  10.889   3.591 -0.5377 -0.2568 -0.3500
  805MOL0     C 8550   7.391  10.808   3.584  0.0869  1.1691 -0.0081
  805MOL0     C 8551   7.390  10.665   3.648 -0.6297  0.2698  0.2841
  805MOL0     C 8552   7.386  10.675   3.797  0.3292 -1.3721 -0.0156
  805MOL0     C 8553   7.284  10.571   3.845  0.1793  0.1092 -0.0419
  805MOL0     C 8554   7.311  10.418   3.816  0.2939  0.6881  0.7918
  805MOL0     C 8555   7.442  10.389   3.890  0.6709 -0.2646 -0.3053
  805MOL0     C 8556   7.487  10.245   3.904 -0.3751  0.3666 -0.3074
  805MOL0     N 8557   7.554  10.184   3.786 -0.1666 -1.1013 -0.3942
  805MOL0     C 8558   7.683  10.216   3.751 -0.4497  0.2251 -0.0219
  805MOL0     C 8559   7.703  10.136   3.644 -0.3951  0.8193 -0.0280
  805MOL0     C 8560   7.829  10.131   3.570  0.0047 -0.5889 -0.4702
  805MOL0     C 8561   7.874   9.985   3.540  0.0895  0.3067 -0.2435
  805MOL0     C 8562   7.995   9.938   3.623  0.0322  0.1714  0.7133
  805MOL0     C 8563   8.010   9.788   3.583 -0.4865  0.5107 -0.4531
  805MOL0     O 8564   8.118   9.742   3.667  0.1030  0.1850 -0.3801
  805MOL0     C 8565   8.204   9.654   3.614  1.1760 -0.4712 -0.4935
  805MOL0     C 8566   8.311   9.706   3.539  0.1852  0.0531  0.3683
  805MOL0     C 8567   8.402   9.633   3.466  0.4658 -0.8534  0.1842
  805MOL0     C 8568   8.390   9.500   3.476  0.8001  1.0331 -0.1506
  805MOL0     C 8569   8.474   9.421   3.383  0.3070 -0.4713 -0.3452
  805MOL0     O 8570   8.422   9.295   3.339 -0.5428 -0.5296  0.1840
  805MOL0     C 8571   8.505   9.237   3.249  0.1828  0.0316  0.0936
  805MOL0     C 8572   8.626   9.183   3.302  0.9372 -0.4658  1.4952
  805MOL0     C 8573   8.712   9.118   3.214 -1.0087 -0.0306 -0.2621
  805MOL0     C 8574   8.683   9.100   3.077  0.6496 -0.5683  0.8266
  805MOL0     O 8575   8.759   9.029   2.996  0.1803 -0.1077 -0.0687
  805MOL0     C 8576   8.799   8.894   3.012  0.2398 -0.1051  0.3171
  805MOL0     C 8577   8.803   8.837   2.871 -0.3343 -0.1406  0.3188
  805MOL0     C 8578   8.662   8.804   2.808 -0.6598 -0.8463 -0.7842
  805MOL0     C 8579   8.587   8.704   2.887  0.7086  0.1221  0.3190
  805MOL0     C 8580   8.486   8.650   2.785 -0.0791 -0.1306 -0.3753
  805MOL0     C 8581   8.396   8.556   2.855  0.4400 -0.9277 -0.5786
  805MOL0     C 8582   8.294   8.497   2.753  0.1207 -0.6181 -0.9348
  805MOL0     C 8583   8.323   8.361   2.700 -1.0862  1.2320  0.2970
  805MOL0    Cl 8584   8.493   8.334   2.628 -0.1375 -0.2718 -0.0559
  805MOL0     C 8585   8.557   9.154   3.034  0.0323 -0.3687  0.9735
  805MOL0     C 8586   8.470   9.228   3.118 -0.3566 -0.4508 -0.1838
  805MOL0     O 8587   8.589   9.468   3.359 -0.3373 -0.4772 -0.9459
  805MOL0     C 8588   8.299   9.434   3.568  0.2309 -0.6720  1.1689
  805MOL0     C 8589   8.209   9.520   3.637 -0.8725  0.0979  0.4074
  805MOL0     N 8590   7.591  10.064   3.609  0.0188 -0.0202 -0.3852
  805MOL0     N 8591   7.497  10.101   3.689 -0.1159 -1.2537  0.0483
  805MOL0     C 8592   7.025  10.971   3.767  0.3095 -0.9280  1.0240
  805MOL0     C 8593   6.927  11.001   3.864 -0.6068  0.2004  0.1959
  805MOL0     C 8594   6.759  11.059   4.292  0.5980  0.0661  0.3376
  805MOL0     C 8595   6.779  11.072   4.436 -0.3337 -0.4001  0.7634
  805MOL0     C 8596   6.673  11.084   4.521  0.4886  0.8730  0.2226
  805MOL0     C 8597   6.541  11.074   4.468 -0.2994 -0.0505 -0.6321
  805MOL0     O 8598   6.427  11.067   4.560 -1.1085 -0.1047 -0.4527
  805MOL0     C 8599   6.307  11.019   4.504 -0.2616  0.4974 -0.6304
  805MOL0     C 8600   6.217  10.970   4.615 -1.0198  0.2736  0.0467
  805MOL0     C 8601   6.175  11.074   4.709 -0.4289 -0.7103 -0.0152
  805MOL0     C 8602   6.082  11.025   4.826 -0.0368  0.3198 -0.4646
  805MOL0     C 8603   6.039  11.135   4.925  0.3994  0.3792  0.2561
  805MOL0     C 8604   6.005  11.208   5.017  0.2930 -0.0410 -0.0786
  805MOL0     C 8605   6.520  11.056   4.331  0.4104  0.7766  1.0745
  805MOL0     C 8606   6.626  11.051   4.240  1.0917 -0.3684  0.2227
  805MOL0     C 8607   6.585  11.019   4.094 -1.0238  0.0346 -0.9120
  805MOL0     H 8608   7.142  11.145   4.094 -0.1103  0.3515  0.3960
  805MOL0     H 8609   7.297  11.089   3.911  1.1897  2.0492 -1.3655
  805MOL0     H 8610   7.168  10.824   3.595 -2.0790  1.7650  0.8924
  805MOL0     H 8611   7.247  10.954   3.504 -0.9285  0.1420 -0.0186
  805MOL0     H 8612   7.472  10.873   3.616  0.7786 -0.1315  0.9734
  805MOL0     H 8613   7.414  10.783   3.480  3.5810  0.7671  0.7516
  805MOL0     H 8614   7.456  10.584   3.616 -1.3159 -0.9998  1.9562
  805MOL0     H 8615   7.288  10.640   3.614 -0.6832 -0.0111  0.6504
  805MOL0     H 8616   7.489  10.660   3.831 -0.1354 -5.1114  0.1677
  805MOL0     H 8617   7.353  10.775   3.827 -0.8569 -2.8924  4.5881
  805MOL0     H 8618   7.263  10.594   3.950  1.2687 -1.3851  0.5435
  805MOL0     H 8619   7.194  10.594   3.787 -0.5468 -1.7245  0.2862
  805MOL0     H 8620   7.219  10.378   3.858  0.5099  0.9461  1.5440
  805MOL0     H 8621   7.319  10.403   3.708 -3.8179  1.4806  0.2361
  805MOL0     H 8622   7.426  10.428   3.990  0.1416 -1.3229  0.0304
  805MOL0     H 8623   7.532  10.434   3.848  0.5623 -2.3999 -3.1991
  805MOL0     H 8624   7.543  10.232   3.997 -0.5486  2.9667  0.2489
  805MOL0     H 8625   7.401  10.181   3.925  1.0508 -1.4638  0.2329
  805MOL0     H 8626   7.756  10.284   3.794  0.8887  0.1546 -2.0142
  805MOL0     H 8627   7.805  10.180   3.474 -4.7570 -1.5396 -0.0197
  805MOL0     H 8628   7.911  10.182   3.621 -0.7623  2.4334 -2.0300
  805MOL0     H 8629   7.796   9.916   3.577  0.8011 -1.4660 -1.8443
  805MOL0     H 8630   7.883   9.967   3.433 -1.8062  0.4891 -0.4810
  805MOL0     H 8631   7.975   9.949   3.730  0.7178 -0.3644  0.9006
  805MOL0     H 8632   8.084   9.997   3.600  0.5247 -1.4825 -2.0312
  805MOL0     H 8633   8.043   9.781   3.479 -1.8643  0.7995 -0.9257
  805MOL0     H 8634   7.926   9.725   3.612 -1.0261  0.5626 -1.8739
  805MOL0     H 8635   8.320   9.815   3.538  2.1639 -0.0744  0.2105
  805MOL0     H 8636   8.484   9.675   3.408 -1.0320  2.7146  0.4068
  805MOL0     H 8637   8.631   9.172   3.410 -3.5098  3.7869  2.4894
  805MOL0     H 8638   8.807   9.087   3.258 -2.7050 -1.2667  2.8584
  805MOL0     H 8639   8.892   8.887   3.070 -0.6575  0.0791  1.8520
  805MOL0     H 8640   8.736   8.841   3.083 -0.5768  0.3417 -0.0660
  805MOL0     H 8641   8.855   8.911   2.810 -0.0085 -0.0296  0.7285
  805MOL0     H 8642   8.862   8.746   2.878 -0.9531 -0.4103  3.5223
  805MOL0     H 8643   8.609   8.900   2.814  1.1853  0.1353  1.4845
  805MOL0     H 8644   8.685   8.779   2.704  0.8347  2.7426 -1.4652
  805MOL0     H 8645   8.531   8.757   2.965  0.7611  0.3006  0.2360
  805MOL0     H 8646   8.652   8.621   2.916 -0.6032 -0.5072  1.5962
  805MOL0     H 8647   8.531   8.601   2.697 -1.4412 -0.4464 -0.9205
  805MOL0     H 8648   8.435   8.737   2.741  2.5387  1.7475  0.0295
  805MOL0     H 8649   8.463   8.483   2.899 -1.5721 -1.3563  2.0212
  805MOL0     H 8650   8.331   8.601   2.931 -0.1363 -2.5577 -0.0746
  805MOL0     H 8651   8.286   8.562   2.666  2.8417 -1.5347 -1.9677
  805MOL0     H 8652   8.193   8.492   2.797 -0.4117 -1.3343 -2.1834
  805MOL0     H 8653   8.308   8.293   2.784 -1.0560 -0.7688 -1.2434
  805MOL0     H 8654   8.248   8.340   2.623 -1.1853 -0.9574  0.9205
  805MOL0     H 8655   8.519   9.145   2.933  1.6561  2.2441  0.0333
  805MOL0     H 8656   8.379   9.272   3.080 -0.6877 -0.2459  0.8027
  805MOL0     H 8657   8.295   9.326   3.572 -2.0510 -0.7165 -0.5709
  805MOL0     H 8658   8.129   9.460   3.678 -3.1067  2.1680 -0.6924
  805MOL0     H 8659   6.993  10.901   3.690 -1.1001 -1.4376  2.0160
  805MOL0     H 8660   6.824  10.975   3.842 -0.4080  1.0633 -2.0375
  805MOL0     H 8661   6.879  11.064   4.475 -0.2986  2.8598  1.6110
  805MOL0     H 8662   6.675  11.082   4.630  0.0863  3.8474  0.3755
  805MOL0     H 8663   6.331  10.940   4.433  1.1680  1.6612 -1.5034
  805MOL0     H 8664   6.253  11.096   4.449 -3.6377  0.1468  1.9042
  805MOL0     H 8665   6.271  10.894   4.672 -2.0822  0.9665  2.1078
  805MOL0     H 8666   6.128  10.923   4.573 -0.0247 -0.2116 -1.6097
  805MOL0     H 8667   6.117  11.138   4.641 -2.4413 -3.1827 -0.7814
  805MOL0     H 8668   6.256  11.137   4.748 -1.2772  1.9734 -2.2261
  805MOL0     H 8669   5.992  10.982   4.782 -0.3140 -1.1553  1.4146
  805MOL0     H 8670   6.135  10.952   4.887  2.7342  3.1738  0.8681
  805MOL0     H 8671   5.963  11.272   5.091 -0.3737 -0.4481 -0.0915
  805MOL0     H 8672   6.420  11.047   4.291  1.0017  1.1413 -0.5317
  805MOL0     H 8673   6.644  10.941   4.044 -1.1567 -1.6682  1.4046
  805MOL0     H 8674   6.482  10.981   4.095 -1.2135  0.5467  0.6560
  805MOL0     H 8675   6.604  11.112   4.039  0.3831 -0.1664 -0.7895
  806MOL0     O 8676   4.356   3.274   4.387  0.6460  0.0005 -0.2378
  806MOL0     C 8677   4.409   3.162   4.375 -0.0756  0.8678 -0.8745
  806MOL0     O 8678   4.480   3.107   4.473 -1.0498  0.3125  0.1153
  806MOL0     C 8679   4.503   3.180   4.586 -1.0364 -0.6986  0.0904
  806MOL0     C 8680   4.634   3.184   4.639  0.6518  0.1789  0.7880
  806MOL0     C 8681   4.658   3.253   4.762  0.7013  0.8045 -0.4579
  806MOL0     C 8682   4.550   3.300   4.841 -0.0066  0.6008 -0.4976
  806MOL0     O 8683   4.567   3.373   4.957 -0.0909  0.2098  0.5691
  806MOL0     C 8684   4.620   3.314   5.076 -0.2393 -0.0583  0.3382
  806MOL0     C 8685   4.491   3.281   5.161 -0.2578  0.0479  0.4171
  806MOL0     C 8686   4.536   3.209   5.289  0.1927 -0.5011 -0.8492
  806MOL0     C 8687   4.420   3.208   5.396 -0.1438 -0.7756 -0.7033
  806MOL0     C 8688   4.480   3.245   5.537 -0.2729 -0.8759  0.5916
  806MOL0     C 8689   4.551   3.384   5.543  0.1748 -0.6825 -0.2047
  806MOL0     C 8690   4.586   3.405   5.699 -0.7332  0.0245 -0.4814
  806MOL0     C 8691   4.690   3.518   5.731 -0.3432  0.6952 -0.8707
  806MOL0     N 8692   4.662   3.659   5.683 -0.4191 -0.1821  1.2924
  806MOL0     C 8693   4.548   3.730   5.714  0.0533 -1.4134  0.2948
  806MOL0     C 8694   4.549   3.837   5.625  0.0216  0.1277  0.1066
  806MOL0     C 8695   4.473   3.965   5.640  0.1965 -0.6225  0.4476
  806MOL0     C 8696   4.539   4.061   5.743 -0.2476  0.8667  0.0330
  806MOL0     C 8697   4.434   4.168   5.781 -1.1471 -0.2024 -0.1961
  806MOL0     C 8698   4.381   4.258   5.682  0.3944  0.4460  0.2032
  806MOL0     O 8699   4.285   4.183   5.599 -0.3209 -0.1426 -0.4108
  806MOL0     C 8700   4.200   4.256   5.519  1.6418 -1.0063 -0.3623
  806MOL0     C 8701   4.216   4.393   5.477  0.7331  0.8144 -0.4754
  806MOL0     C 8702   4.122   4.454   5.396 -0.9060 -0.3802 -0.2997
  806MOL0     C 8703   3.995   4.388   5.370  0.5958 -0.3461 -0.1576
  806MOL0     C 8704   3.895   4.456   5.274 -1.0752  0.6335 -0.2912
  806MOL0     O 8705   3.775   4.395   5.250 -0.4898 -0.2739 -0.5187
  806MOL0     C 8706   3.686   4.438   5.159  0.5909 -0.6816  0.0564
  806MOL0     C 8707   3.654   4.352   5.053  0.9187  0.4769  1.4456
  806MOL0     C 8708   3.587   4.401   4.942  0.0372 -0.1969 -0.6445
  806MOL0     C 8709   3.554   4.540   4.932 -0.4321 -0.2791  0.3990
  806MOL0     O 8710   3.471   4.570   4.820  0.5657 -0.1857  0.2451
  806MOL0     C 8711   3.436   4.709   4.801  0.2385 -0.5880 -0.2029
  806MOL0     C 8712   3.440   4.754   4.660 -0.0284  0.5539  0.4064
  806MOL0     C 8713   3.586   4.717   4.615 -0.7837 -0.5578  1.0510
  806MOL0     C 8714   3.619   4.772   4.479 -0.0945  0.4836  0.2662
  806MOL0     C 8715   3.525   4.725   4.359 -0.3983 -0.3336  0.0817
  806MOL0     C 8716   3.578   4.777   4.213 -0.2288  0.1384 -0.0796
  806MOL0     C 8717   3.492   4.697   4.111 -0.1107 -0.2809  0.6041
  806MOL0     C 8718   3.539   4.712   3.963 -0.0364 -0.1435  0.6190
  806MOL0    Cl 8719   3.501   4.891   3.915  0.7732 -0.5701 -0.1261
  806MOL0     C 8720   3.589   4.625   5.040  0.7488 -0.3230 -0.0091
  806MOL0     C 8721   3.652   4.576   5.155  0.8003  0.5833 -1.0824
  806MOL0     O 8722   3.930   4.561   5.224 -0.2042  0.0726 -0.8151
  806MOL0     C 8723   3.987   4.256   5.407 -0.0500  0.4834  0.8290
  806MOL0     C 8724   4.081   4.187   5.482 -0.6086  0.3045 -0.6763
  806MOL0     N 8725   4.654   3.821   5.539 -0.2746 -0.7782 -0.4660
  806MOL0     N 8726   4.723   3.715   5.569  0.2002 -0.8574 -0.7149
  806MOL0     C 8727   4.430   3.290   4.787  0.7545  0.4431  0.3495
  806MOL0     C 8728   4.402   3.242   4.661 -0.5551  0.0337  0.2984
  806MOL0     C 8729   4.389   3.087   4.250  0.0418  0.5757  1.1424
  806MOL0     C 8730   4.321   3.157   4.138 -0.5205 -1.1158 -0.9450
  806MOL0     C 8731   4.300   3.098   4.013 -0.5891 -0.9232 -0.0425
  806MOL0     C 8732   4.347   2.973   3.994 -0.6099 -0.1175 -0.2456
  806MOL0     O 8733   4.339   2.903   3.877 -0.2259  0.3386 -0.1445
  806MOL0     C 8734   4.255   2.945   3.765 -1.6365 -1.1941 -0.3404
  806MOL0     C 8735   4.104   2.927   3.774 -0.5057  0.7150  0.0856
  806MOL0     C 8736   4.070   2.785   3.813  0.4189 -0.2605  0.6786
  806MOL0     C 8737   4.059   2.754   3.966 -0.4272  0.8906  0.3495
  806MOL0     C 8738   3.943   2.830   4.022 -0.2892  0.0680  0.4686
  806MOL0     C 8739   3.852   2.894   4.062 -0.4345 -0.7811 -0.1179
  806MOL0     C 8740   4.402   2.898   4.102 -0.1036  0.3141  0.1661
  806MOL0     C 8741   4.423   2.952   4.227  0.2536  0.1409  1.2187
  806MOL0     C 8742   4.502   2.860   4.325 -0.2581  0.4686 -0.5638
  806MOL0     H 8743   4.719   3.151   4.580  1.2104  3.7959 -0.6851
  806MOL0     H 8744   4.757   3.254   4.806  1.5228 -0.7242 -2.1362
  806MOL0     H 8745   4.684   3.227   5.062 -0.7467 -0.3286 -0.3515
  806MOL0     H 8746   4.679   3.386   5.134 -2.2739  3.0299 -1.1824
  806MOL0     H 8747   4.419   3.214   5.112 -1.0864  0.8464  0.5115
  806MOL0     H 8748   4.436   3.372   5.185 -1.6498 -0.4479 -0.7041
  806MOL0     H 8749   4.627   3.251   5.332  1.0516 -1.6799 -1.4703
  806MOL0     H 8750   4.558   3.106   5.261  1.2893 -0.2453 -0.9604
  806MOL0     H 8751   4.344   3.286   5.385 -0.1142 -0.7037 -0.4001
  806MOL0     H 8752   4.372   3.110   5.388 -1.1892 -0.3020 -0.3623
  806MOL0     H 8753   4.403   3.252   5.615 -0.2160  2.1934  0.4619
  806MOL0     H 8754   4.544   3.166   5.579  1.0303 -1.3029 -2.0181
  806MOL0     H 8755   4.645   3.387   5.486  0.5494 -3.8996  0.0550
  806MOL0     H 8756   4.484   3.460   5.502  0.6677  0.8816  1.7158
  806MOL0     H 8757   4.627   3.312   5.740 -0.5336 -0.4209 -1.6406
  806MOL0     H 8758   4.495   3.436   5.753 -1.6842 -0.8252 -1.5342
  806MOL0     H 8759   4.702   3.508   5.840 -2.1721 -2.0487 -0.8267
  806MOL0     H 8760   4.777   3.476   5.680  1.0712  0.2954  1.7065
  806MOL0     H 8761   4.487   3.707   5.801 -0.5325 -4.1133 -0.7112
  806MOL0     H 8762   4.471   4.008   5.539 -0.6129 -1.4169  0.1156
  806MOL0     H 8763   4.373   3.936   5.672 -0.9475  1.7753 -0.7163
  806MOL0     H 8764   4.548   4.003   5.835  0.4837 -0.1698 -0.6731
  806MOL0     H 8765   4.642   4.095   5.730 -0.4382  1.6506  0.5130
  806MOL0     H 8766   4.492   4.228   5.852 -0.0615 -0.5002 -0.8067
  806MOL0     H 8767   4.351   4.129   5.840 -2.2090  0.9628 -0.8890
  806MOL0     H 8768   4.454   4.312   5.621 -1.2733  1.9371 -0.5669
  806MOL0     H 8769   4.330   4.339   5.735  2.1140  1.7710 -0.0876
  806MOL0     H 8770   4.306   4.447   5.504  0.6506  1.2910 -1.1300
  806MOL0     H 8771   4.132   4.551   5.348 -2.3666  1.3603  2.6779
  806MOL0     H 8772   3.676   4.247   5.036  3.6638  1.1591  0.3299
  806MOL0     H 8773   3.569   4.339   4.855  1.1110 -3.5141  1.3033
  806MOL0     H 8774   3.342   4.738   4.847  0.3166 -0.3813 -0.1731
  806MOL0     H 8775   3.511   4.768   4.855 -0.2775 -2.3115  2.6197
  806MOL0     H 8776   3.366   4.705   4.596 -0.6767  2.7954 -0.6436
  806MOL0     H 8777   3.427   4.862   4.649  0.8081  0.3878 -3.5374
  806MOL0     H 8778   3.660   4.754   4.686 -0.0491 -3.0032  1.6537
  806MOL0     H 8779   3.614   4.612   4.608  2.0865  0.0829  1.6014
  806MOL0     H 8780   3.727   4.756   4.466  0.7091  3.2628  2.4445
  806MOL0     H 8781   3.602   4.880   4.488  0.1030  0.3722  2.3855
  806MOL0     H 8782   3.424   4.768   4.354 -1.1765 -2.2078 -1.3308
  806MOL0     H 8783   3.526   4.616   4.367  0.9746 -0.8014 -4.3141
  806MOL0     H 8784   3.554   4.882   4.195 -2.2137 -0.3257 -0.3372
  806MOL0     H 8785   3.687   4.768   4.205 -0.0267  3.1820 -2.6774
  806MOL0     H 8786   3.387   4.722   4.130 -0.0210 -0.1571  0.9626
  806MOL0     H 8787   3.504   4.592   4.137 -1.6344 -0.6854 -0.2581
  806MOL0     H 8788   3.642   4.685   3.937 -0.6612  0.6988 -3.4055
  806MOL0     H 8789   3.480   4.644   3.901  0.2452  1.7889 -1.9447
  806MOL0     H 8790   3.561   4.730   5.038 -0.7081 -0.6917 -1.5617
  806MOL0     H 8791   3.681   4.644   5.234 -1.5342  2.4017 -1.6826
  806MOL0     H 8792   3.905   4.199   5.363 -1.9247  2.7187  1.2255
  806MOL0     H 8793   4.085   4.085   5.518 -2.1972  0.5280  0.2067
  806MOL0     H 8794   4.347   3.342   4.835  1.3821  1.5887  0.2412
  806MOL0     H 8795   4.297   3.246   4.632 -1.0259  0.2495  1.9356
  806MOL0     H 8796   4.281   3.256   4.160  2.5581 -0.2264  1.4113
  806MOL0     H 8797   4.251   3.157   3.936 -2.1290 -0.1071  1.4924
  806MOL0     H 8798   4.292   2.876   3.689 -2.0347 -0.5227 -1.1585
  806MOL0     H 8799   4.282   3.046   3.733 -0.0230 -0.1854  3.5561
  806MOL0     H 8800   4.057   2.954   3.679 -0.0794  1.7287  0.1587
  806MOL0     H 8801   4.062   2.992   3.851 -0.8680  2.1515 -1.2825
  806MOL0     H 8802   4.152   2.726   3.771 -0.8525  0.5581 -3.4215
  806MOL0     H 8803   3.977   2.752   3.765  0.2633 -2.0936  2.1095
  806MOL0     H 8804   4.040   2.649   3.991  2.0801 -0.0183 -1.2162
  806MOL0     H 8805   4.141   2.793   4.027  2.0512 -1.5689 -1.1802
  806MOL0     H 8806   3.783   2.972   4.084 -2.1270 -1.8606 -1.4072
  806MOL0     H 8807   4.432   2.794   4.088 -4.4163 -1.1382  0.4591
  806MOL0     H 8808   4.440   2.798   4.391 -0.1913 -1.1963 -1.9643
  806MOL0     H 8809   4.575   2.799   4.271  0.1631 -0.3455  0.8829
  806MOL0     H 8810   4.557   2.930   4.388  0.9912 -0.7660 -0.2460
  807MOL0     O 8811   6.417   6.690   1.533  0.1704 -0.3399 -0.6343
  807MOL0     C 8812   6.446   6.571   1.516 -0.0010 -0.2649 -0.0021
  807MOL0     O 8813   6.557   6.530   1.443 -0.0562  0.3823 -0.6744
  807MOL0     C 8814   6.657   6.624   1.434 -0.4466  0.0504 -0.1515
  807MOL0     C 8815   6.679   6.657   1.305 -0.8948  0.1492 -0.4308
  807MOL0     C 8816   6.772   6.756   1.282 -0.1269 -0.6586  0.6494
  807MOL0     C 8817   6.845   6.821   1.377 -0.0588 -0.1508 -0.0037
  807MOL0     O 8818   6.944   6.907   1.333  0.8154 -0.2804 -0.2980
  807MOL0     C 8819   6.960   7.022   1.413 -0.7961 -0.4415 -0.5429
  807MOL0     C 8820   6.847   7.117   1.408  0.0796  0.5185 -0.5675
  807MOL0     C 8821   6.814   7.166   1.266 -0.4841  0.6185 -0.4565
  807MOL0     C 8822   6.719   7.289   1.265  0.3192  0.5873 -0.6663
  807MOL0     C 8823   6.677   7.334   1.130 -0.3550 -0.0448 -0.1597
  807MOL0     C 8824   6.590   7.469   1.137  0.2856 -0.3598 -1.1075
  807MOL0     C 8825   6.446   7.436   1.178  1.0976 -0.0705 -0.1247
  807MOL0     C 8826   6.349   7.543   1.203 -0.0219  0.0619 -0.0041
  807MOL0     N 8827   6.395   7.643   1.307  0.4072 -0.2018  0.2703
  807MOL0     C 8828   6.461   7.760   1.300 -0.4857 -0.4761  0.3651
  807MOL0     C 8829   6.452   7.819   1.427 -0.4292  0.0637  0.7138
  807MOL0     C 8830   6.502   7.957   1.474 -1.3261 -0.0362 -0.9371
  807MOL0     C 8831   6.389   8.056   1.451 -0.4005  0.3382 -0.9151
  807MOL0     C 8832   6.401   8.179   1.544 -0.4652 -0.0544  0.5060
  807MOL0     C 8833   6.417   8.140   1.691  1.4006 -0.3997  0.0551
  807MOL0     O 8834   6.548   8.163   1.732  0.2700 -0.7947  0.8892
  807MOL0     C 8835   6.562   8.135   1.866 -0.9127  0.0174 -0.5238
  807MOL0     C 8836   6.491   8.191   1.976 -0.4467  0.1250  0.0934
  807MOL0     C 8837   6.527   8.164   2.102  0.1825 -0.6559  0.6650
  807MOL0     C 8838   6.620   8.057   2.139  0.6926  0.1959 -0.1681
  807MOL0     C 8839   6.639   8.015   2.283  0.3512 -0.3486 -0.5335
  807MOL0     O 8840   6.719   7.913   2.306 -0.5418 -0.1021  0.7007
  807MOL0     C 8841   6.711   7.836   2.419  1.1624  0.7514  0.7247
  807MOL0     C 8842   6.732   7.893   2.544 -0.5272  0.0426 -0.4064
  807MOL0     C 8843   6.734   7.821   2.667 -0.0582 -0.1167  0.4255
  807MOL0     C 8844   6.698   7.678   2.669 -0.4117  0.0935  0.3122
  807MOL0     O 8845   6.695   7.591   2.779 -0.2464 -0.3806  0.1394
  807MOL0     C 8846   6.758   7.632   2.902 -0.3704  0.2437 -0.5931
  807MOL0     C 8847   6.784   7.506   2.993 -0.9316  0.0274 -0.2844
  807MOL0     C 8848   6.892   7.407   2.930 -0.8527 -0.2721 -0.1957
  807MOL0     C 8849   6.849   7.334   2.806 -0.7780  0.5994 -0.7008
  807MOL0     C 8850   6.743   7.231   2.844  0.2610  0.1921 -0.4694
  807MOL0     C 8851   6.699   7.166   2.709  0.0864 -0.4499  0.7956
  807MOL0     C 8852   6.574   7.078   2.732  0.0366  1.2707 -0.0571
  807MOL0     C 8853   6.462   7.175   2.704  0.6533  0.2269  0.4613
  807MOL0    Cl 8854   6.308   7.116   2.784 -0.1765 -0.0417  0.2720
  807MOL0     C 8855   6.658   7.631   2.540 -0.4579  0.3367  1.2692
  807MOL0     C 8856   6.675   7.700   2.412 -0.0433  0.0706 -0.7968
  807MOL0     O 8857   6.603   8.095   2.364 -0.2871 -0.1798 -0.3683
  807MOL0     C 8858   6.677   7.982   2.032  0.7326  0.1042 -0.1839
  807MOL0     C 8859   6.651   8.025   1.897 -0.6975  0.6824 -0.2113
  807MOL0     N 8860   6.365   7.741   1.496  0.6505 -0.3875 -0.4515
  807MOL0     N 8861   6.332   7.636   1.430  0.7276 -0.4638  0.1659
  807MOL0     C 8862   6.824   6.783   1.516 -0.1037  0.9092 -0.1657
  807MOL0     C 8863   6.723   6.684   1.541 -0.1263 -0.0900 -0.7863
  807MOL0     C 8864   6.334   6.469   1.533 -0.1573 -1.1778 -0.4095
  807MOL0     C 8865   6.196   6.520   1.552  0.3565  0.4906  0.2636
  807MOL0     C 8866   6.091   6.438   1.513  0.1977 -0.0757 -0.2200
  807MOL0     C 8867   6.114   6.301   1.466  0.1753 -1.3584  0.3438
  807MOL0     O 8868   6.010   6.248   1.396  0.0274  0.1278  0.0046
  807MOL0     C 8869   5.963   6.115   1.429 -0.1432 -0.0549  0.0214
  807MOL0     C 8870   5.860   6.053   1.331 -0.8240 -0.5376 -0.8252
  807MOL0     C 8871   5.773   5.955   1.405  0.3346  0.1383  0.0223
  807MOL0     C 8872   5.662   5.905   1.306 -0.4268  1.1134  0.2663
  807MOL0     C 8873   5.564   5.825   1.373 -0.5578 -0.4512  0.3630
  807MOL0     C 8874   5.528   5.754   1.463 -0.3856  0.4149  0.7615
  807MOL0     C 8875   6.241   6.250   1.466 -0.5784 -0.3406 -0.5304
  807MOL0     C 8876   6.358   6.333   1.490  0.6482 -0.3343  0.3300
  807MOL0     C 8877   6.492   6.264   1.459  0.6892  0.1587  1.1334
  807MOL0     H 8878   6.634   6.600   1.225 -0.2186 -1.4349  0.2777
  807MOL0     H 8879   6.807   6.767   1.179 -0.2930  2.0817  0.8309
  807MOL0     H 8880   6.995   6.996   1.514  4.0434 -1.5792 -2.2124
  807MOL0     H 8881   7.049   7.075   1.377 -1.4102  2.3069  1.6695
  807MOL0     H 8882   6.887   7.193   1.475 -2.8657  0.7642  1.0986
  807MOL0     H 8883   6.761   7.073   1.461  3.2185 -0.4049  4.4397
  807MOL0     H 8884   6.775   7.082   1.208  0.1736 -1.0564  1.4129
  807MOL0     H 8885   6.911   7.193   1.225  0.8604 -0.3935  1.8578
  807MOL0     H 8886   6.636   7.277   1.335  0.4752  4.2353  0.3543
  807MOL0     H 8887   6.773   7.370   1.316  2.7239 -1.2330 -0.1616
  807MOL0     H 8888   6.765   7.355   1.068 -1.0185  2.2879 -0.4216
  807MOL0     H 8889   6.619   7.254   1.085  2.1072 -0.8997 -1.9998
  807MOL0     H 8890   6.633   7.543   1.205 -2.0228  2.1352 -2.1577
  807MOL0     H 8891   6.582   7.518   1.039 -0.3103  0.7745 -0.5145
  807MOL0     H 8892   6.450   7.389   1.277 -3.5397  1.0772  0.8758
  807MOL0     H 8893   6.398   7.365   1.110 -2.2659  2.0541 -0.2040
  807MOL0     H 8894   6.316   7.601   1.116 -1.0407  0.0568  0.3669
  807MOL0     H 8895   6.261   7.489   1.236  0.7689 -2.2030 -1.4291
  807MOL0     H 8896   6.518   7.785   1.211 -2.1435 -1.7478 -1.1330
  807MOL0     H 8897   6.551   7.950   1.572  1.2964  0.7207 -2.0783
  807MOL0     H 8898   6.596   7.984   1.424  0.2928 -1.7428  0.9922
  807MOL0     H 8899   6.386   8.092   1.348  2.6718  0.1727 -1.1659
  807MOL0     H 8900   6.303   7.996   1.480  0.6753 -0.6537  0.3716
  807MOL0     H 8901   6.310   8.238   1.530  0.2713  0.7626 -1.1359
  807MOL0     H 8902   6.482   8.250   1.523 -1.3745  1.7302  2.6734
  807MOL0     H 8903   6.380   8.038   1.701 -3.6644  0.9463 -1.9060
  807MOL0     H 8904   6.338   8.183   1.754  2.3294  2.1680 -0.4077
  807MOL0     H 8905   6.406   8.257   1.960 -0.6682 -0.5468 -1.6831
  807MOL0     H 8906   6.460   8.199   2.180 -1.8154 -1.5569 -0.5798
  807MOL0     H 8907   6.726   8.001   2.548  0.3014  0.1110 -0.8528
  807MOL0     H 8908   6.740   7.869   2.764 -0.5213 -2.2270  1.5516
  807MOL0     H 8909   6.857   7.675   2.885  0.9983 -2.0593  0.9816
  807MOL0     H 8910   6.687   7.694   2.959  0.2569  0.6250 -0.2170
  807MOL0     H 8911   6.832   7.536   3.087  0.1810 -0.1825 -0.7690
  807MOL0     H 8912   6.693   7.449   3.013 -0.5311 -0.0493  1.4900
  807MOL0     H 8913   6.982   7.462   2.904 -0.8993 -0.3394 -0.5121
  807MOL0     H 8914   6.924   7.322   2.991  3.6880  1.4254  0.1174
  807MOL0     H 8915   6.936   7.276   2.773 -1.6418 -0.5610 -0.9957
  807MOL0     H 8916   6.813   7.388   2.718 -0.6339 -0.0060 -1.1391
  807MOL0     H 8917   6.665   7.293   2.890  1.0103 -0.4272  1.7653
  807MOL0     H 8918   6.780   7.152   2.910 -0.2595 -0.7354 -1.2538
  807MOL0     H 8919   6.696   7.234   2.623 -0.1301 -0.1431  1.0488
  807MOL0     H 8920   6.775   7.091   2.684  1.5270  0.6864  1.6667
  807MOL0     H 8921   6.575   7.048   2.837 -2.5993  0.9851 -0.0411
  807MOL0     H 8922   6.569   6.988   2.670  2.8329  2.1466 -1.7439
  807MOL0     H 8923   6.484   7.276   2.739  3.2625 -0.0400 -0.1943
  807MOL0     H 8924   6.448   7.180   2.595 -0.2300 -3.4695  0.2753
  807MOL0     H 8925   6.608   7.536   2.523 -0.5787  0.3347  1.6296
  807MOL0     H 8926   6.651   7.658   2.314 -0.0761  1.5271 -1.4433
  807MOL0     H 8927   6.743   7.898   2.050 -0.6450 -0.8033  0.7917
  807MOL0     H 8928   6.705   7.979   1.815  1.3102  0.1421  1.3231
  807MOL0     H 8929   6.881   6.821   1.600  0.3671  2.8618 -1.3054
  807MOL0     H 8930   6.710   6.661   1.646 -2.5227 -3.0342 -1.5918
  807MOL0     H 8931   6.158   6.617   1.581  0.4446  0.5771  0.0878
  807MOL0     H 8932   5.994   6.487   1.517  1.1359  2.0990 -1.8780
  807MOL0     H 8933   5.911   6.127   1.525 -1.1841  2.7364 -0.8097
  807MOL0     H 8934   6.040   6.040   1.454  0.2442  0.3527  0.0553
  807MOL0     H 8935   5.912   6.002   1.250  1.4529 -2.3973  1.6370
  807MOL0     H 8936   5.802   6.136   1.289 -0.2274 -0.0551 -0.7155
  807MOL0     H 8937   5.721   5.990   1.494  1.2184 -0.9845  1.0062
  807MOL0     H 8938   5.840   5.877   1.442  0.9815 -0.1798 -1.7282
  807MOL0     H 8939   5.612   5.990   1.259  0.8298  0.5178 -2.3636
  807MOL0     H 8940   5.704   5.858   1.217  0.5169  2.6896 -0.1536
  807MOL0     H 8941   5.471   5.710   1.542  1.9952  0.5556  2.6506
  807MOL0     H 8942   6.252   6.142   1.456 -3.0467 -0.5935 -1.0687
  807MOL0     H 8943   6.471   6.156   1.453 -3.2638  0.8434 -2.4546
  807MOL0     H 8944   6.537   6.284   1.361  0.3561  1.2000  1.1763
  807MOL0     H 8945   6.563   6.299   1.534 -0.0128  3.3758  0.4166
  808MOL0     O 8946   7.373   8.490   9.764  0.0305 -0.7313 -0.0301
  808MOL0     C 8947   7.430   8.449   9.861  0.5482  0.0731 -0.5780
  808MOL0     O 8948   7.548   8.500   9.906  1.1022 -0.8751 -0.3220
  808MOL0     C 8949   7.616   8.585   9.824  0.4854  0.1321 -0.4992
  808MOL0     C 8950   7.582   8.715   9.787  0.8043 -0.6127  0.3934
  808MOL0     C 8951   7.659   8.788   9.707 -0.4685  0.3470  0.2394
  808MOL0     C 8952   7.783   8.738   9.659  0.7225 -0.3199  0.2519
  808MOL0     O 8953   7.836   8.817   9.565 -0.0193 -0.0692 -0.7319
  808MOL0     C 8954   7.979   8.820   9.578  0.5399 -0.6291  0.5218
  808MOL0     C 8955   8.037   8.949   9.509 -0.0567 -0.2433  0.7243
  808MOL0     C 8956   7.997   9.073   9.590 -0.5809 -0.0646  0.6780
  808MOL0     C 8957   7.870   9.143   9.518 -0.2454 -0.6975  0.0979
  808MOL0     C 8958   7.915   9.235   9.399  0.9008  0.0075  0.0367
  808MOL0     C 8959   7.803   9.288   9.305 -0.0129  0.0937 -0.7391
  808MOL0     C 8960   7.723   9.397   9.372  0.4076 -0.9018 -0.0254
  808MOL0     C 8961   7.665   9.500   9.271  0.1822 -0.7892  0.6567
  808MOL0     N 8962   7.583   9.608   9.310 -0.8318  0.5068 -0.4104
  808MOL0     C 8963   7.627   9.735   9.349 -0.0640  0.6856  0.0124
  808MOL0     C 8964   7.500   9.786   9.364  0.3995 -0.7720 -0.7691
  808MOL0     C 8965   7.474   9.932   9.400  0.8673  0.7247 -0.4271
  808MOL0     C 8966   7.342   9.995   9.347  0.3966  0.6023  0.2929
  808MOL0     C 8967   7.345  10.004   9.192  0.3707 -0.0374  0.2121
  808MOL0     C 8968   7.449  10.102   9.131 -0.2475 -0.0740 -0.8699
  808MOL0     O 8969   7.461  10.218   9.213 -0.1245 -0.2745  0.6653
  808MOL0     C 8970   7.420  10.346   9.171  0.5537 -0.3669 -0.1184
  808MOL0     C 8971   7.299  10.376   9.098  0.2568 -0.5259 -0.4261
  808MOL0     C 8972   7.260  10.508   9.082  0.0991 -0.7430 -0.1066
  808MOL0     C 8973   7.335  10.617   9.117  0.9884 -0.4369  0.0468
  808MOL0     C 8974   7.288  10.749   9.076  0.0123 -0.3438  0.0117
  808MOL0     O 8975   7.207  10.751   8.961  0.4809  1.2522 -0.2812
  808MOL0     C 8976   7.168  10.872   8.909  0.1685 -0.2368  0.1648
  808MOL0     C 8977   7.037  10.889   8.862 -0.2857  0.1996  0.5844
  808MOL0     C 8978   7.008  11.000   8.786  0.0443 -0.7162  0.9864
  808MOL0     C 8979   7.103  11.110   8.766 -0.5333  1.5212  1.0577
  808MOL0     O 8980   7.062  11.218   8.687 -0.5720  0.4993  0.1299
  808MOL0     C 8981   7.159  11.278   8.599 -0.2072 -0.0307 -0.9232
  808MOL0     C 8982   7.084  11.344   8.492 -0.8122 -0.1606  0.0962
  808MOL0     C 8983   7.038  11.242   8.382  0.0404  0.9217  0.3129
  808MOL0     C 8984   6.895  11.178   8.389 -0.0851 -0.5556 -0.1426
  808MOL0     C 8985   6.772  11.266   8.352 -0.9530 -0.1109 -0.5211
  808MOL0     C 8986   6.654  11.168   8.314 -0.3944  0.8248 -0.8950
  808MOL0     C 8987   6.517  11.237   8.317 -1.2904 -0.7281  0.0304
  808MOL0     C 8988   6.524  11.376   8.246  0.3695 -0.0852 -0.4917
  808MOL0    Cl 8989   6.347  11.424   8.223 -0.2251 -0.0479 -0.7242
  808MOL0     C 8990   7.227  11.092   8.807  0.1642  0.2261 -0.4279
  808MOL0     C 8991   7.268  10.970   8.874  0.1725 -1.6402 -0.2652
  808MOL0     O 8992   7.319  10.848   9.139  0.2373 -0.2129  0.2656
  808MOL0     C 8993   7.454  10.592   9.185 -0.7343  0.1228  0.6452
  808MOL0     C 8994   7.494  10.458   9.209  0.7443  0.3565  0.1505
  808MOL0     N 8995   7.397   9.701   9.347 -0.3177  0.2949 -0.2126
  808MOL0     N 8996   7.454   9.593   9.305 -0.2375  0.5455  0.4352
  808MOL0     C 8997   7.823   8.608   9.682 -0.4694 -1.4084 -0.2810
  808MOL0     C 8998   7.736   8.537   9.769  0.4974 -0.1349  0.4260
  808MOL0     C 8999   7.364   8.330   9.928  0.2431 -0.5866 -0.0927
  808MOL0     C 9000   7.454   8.267  10.013 -0.7642  0.7090 -0.8088
  808MOL0     C 9001   7.412   8.164  10.093 -0.2246  0.6223 -0.2204
  808MOL0     C 9002   7.272   8.131  10.113 -0.2208 -0.6620  0.5315
  808MOL0     O 9003   7.233   8.039  10.202  0.1218  0.6435  0.1883
  808MOL0     C 9004   7.092   8.007  10.210  0.0418 -0.1954  0.2296
  808MOL0     C 9005   7.088   7.869  10.264  0.1584  1.2111  0.1281
  808MOL0     C 9006   6.938   7.850  10.312  0.2439  0.2641  0.1266
  808MOL0     C 9007   6.907   7.704  10.320  1.0225 -0.6840  0.9134
  808MOL0     C 9008   6.995   7.638  10.416 -0.0454 -0.2192 -0.1078
  808MOL0     C 9009   7.084   7.593  10.494 -0.9860  0.1838 -0.5756
  808MOL0     C 9010   7.179   8.199  10.034 -0.2466 -0.6633 -0.2598
  808MOL0     C 9011   7.225   8.298   9.935  0.6402 -0.1775 -0.2723
  808MOL0     C 9012   7.127   8.360   9.838  0.5599  0.9487  1.2184
  808MOL0     H 9013   7.483   8.753   9.809  0.3598 -2.6426  2.2449
  808MOL0     H 9014   7.638   8.888   9.669 -3.5929 -1.5807 -3.8532
  808MOL0     H 9015   8.016   8.826   9.681  1.5326  0.4566  0.1285
  808MOL0     H 9016   8.030   8.741   9.521  0.5068 -0.3774  0.1378
  808MOL0     H 9017   8.030   8.951   9.400  2.8070  0.6034  0.4920
  808MOL0     H 9018   8.146   8.940   9.512  0.0170 -0.1870 -1.0323
  808MOL0     H 9019   8.081   9.142   9.580  1.0982 -2.3241 -2.3349
  808MOL0     H 9020   7.979   9.057   9.697 -3.8534  0.4608  0.3204
  808MOL0     H 9021   7.799   9.074   9.471  0.7417 -1.4925 -0.2884
  808MOL0     H 9022   7.812   9.203   9.588 -2.0345 -2.0437 -0.1774
  808MOL0     H 9023   7.988   9.312   9.426 -0.2414  1.7649 -1.6385
  808MOL0     H 9024   7.957   9.159   9.333 -0.4079 -0.2714 -0.5020
  808MOL0     H 9025   7.852   9.334   9.219  0.9566  0.8866  0.1975
  808MOL0     H 9026   7.747   9.200   9.273  0.6329  0.4692 -3.0779
  808MOL0     H 9027   7.782   9.450   9.448  0.6865  1.8647 -2.0281
  808MOL0     H 9028   7.633   9.356   9.420 -0.5634  0.9794 -0.1637
  808MOL0     H 9029   7.749   9.549   9.219  0.4543 -0.1146  1.7006
  808MOL0     H 9030   7.625   9.441   9.188 -0.7327 -1.8756  1.8351
  808MOL0     H 9031   7.727   9.771   9.370  0.4263  0.3842 -1.6855
  808MOL0     H 9032   7.491   9.942   9.508 -0.5348 -3.4570  0.3749
  808MOL0     H 9033   7.550   9.990   9.347 -0.1991  0.2193 -2.6303
  808MOL0     H 9034   7.254   9.939   9.379  0.4477  1.2617  1.6502
  808MOL0     H 9035   7.330  10.097   9.382  0.1342  1.0861 -1.1607
  808MOL0     H 9036   7.244  10.027   9.157  0.2555 -0.7102  0.0778
  808MOL0     H 9037   7.375   9.908   9.150  1.3457  0.2497  0.2358
  808MOL0     H 9038   7.404  10.145   9.041 -3.9350  0.2838  0.9448
  808MOL0     H 9039   7.545  10.055   9.109  0.6139  1.1955  0.0247
  808MOL0     H 9040   7.231  10.297   9.067 -3.6078  1.5151  2.1289
  808MOL0     H 9041   7.167  10.529   9.030  1.4223 -0.8359 -2.6980
  808MOL0     H 9042   6.979  10.800   8.883  1.7021 -1.7948 -1.7333
  808MOL0     H 9043   6.910  11.021   8.744  0.6654 -0.2304 -0.2912
  808MOL0     H 9044   7.214  11.362   8.643 -3.2282  2.6510 -1.8908
  808MOL0     H 9045   7.231  11.210   8.552 -0.1064  2.4845 -4.8382
  808MOL0     H 9046   7.001  11.401   8.536  1.7099  2.5608  1.7146
  808MOL0     H 9047   7.144  11.427   8.456 -1.6371  1.3167  1.9214
  808MOL0     H 9048   7.041  11.306   8.293  1.6482  1.1983  0.5285
  808MOL0     H 9049   7.117  11.169   8.362 -0.5556  0.4109 -0.2021
  808MOL0     H 9050   6.885  11.143   8.492 -1.7666 -0.4664 -0.2442
  808MOL0     H 9051   6.904  11.096   8.317  1.2786 -0.3598 -0.2196
  808MOL0     H 9052   6.801  11.336   8.272 -0.5503  1.9636  1.3494
  808MOL0     H 9053   6.748  11.334   8.434 -1.3962 -0.1335 -0.6338
  808MOL0     H 9054   6.680  11.104   8.229  1.6609  2.2003 -1.3716
  808MOL0     H 9055   6.642  11.095   8.394 -0.4611 -0.8051 -2.3292
  808MOL0     H 9056   6.490  11.241   8.423  1.1436  2.6025  0.6789
  808MOL0     H 9057   6.465  11.167   8.251  2.1997 -0.3482 -3.5179
  808MOL0     H 9058   6.583  11.445   8.307  0.0584 -0.6046  0.4230
  808MOL0     H 9059   6.575  11.366   8.150  0.5927  0.2368 -0.4082
  808MOL0     H 9060   7.299  11.171   8.791 -0.7479  1.5161  1.3844
  808MOL0     H 9061   7.372  10.950   8.895  0.4947  0.4226  0.3176
  808MOL0     H 9062   7.519  10.677   9.201 -0.8013  0.8546 -2.4794
  808MOL0     H 9063   7.587  10.434   9.259 -1.0593  0.7776  4.0634
  808MOL0     H 9064   7.911   8.572   9.631  0.0858 -0.9033  0.3149
  808MOL0     H 9065   7.762   8.445   9.819  1.8296 -0.9963 -1.7088
  808MOL0     H 9066   7.560   8.290  10.011 -0.3931 -0.8324 -0.4514
  808MOL0     H 9067   7.481   8.114  10.160 -0.0762  1.9447  0.6501
  808MOL0     H 9068   7.046   8.005  10.111  1.7485  0.1756 -0.6161
  808MOL0     H 9069   7.028   8.080  10.260 -3.6169 -0.2254 -3.8005
  808MOL0     H 9070   7.148   7.858  10.355  0.7533 -0.2280 -0.4058
  808MOL0     H 9071   7.115   7.795  10.188 -3.0235  2.9066 -2.9810
  808MOL0     H 9072   6.861   7.897  10.250 -0.9022 -1.4112  0.2280
  808MOL0     H 9073   6.919   7.888  10.413  0.2051  0.7210 -0.0513
  808MOL0     H 9074   6.804   7.695  10.355 -0.0755  2.3634 -1.1369
  808MOL0     H 9075   6.913   7.649  10.225  3.8515 -2.1802  1.8461
  808MOL0     H 9076   7.150   7.542  10.562 -0.3572 -0.6172 -1.7382
  808MOL0     H 9077   7.071   8.187  10.036 -0.1164 -1.8896 -0.0931
  808MOL0     H 9078   7.161   8.336   9.737 -0.4204 -0.2957  1.1639
  808MOL0     H 9079   7.034   8.304   9.839  0.1663  1.3222 -2.5514
  808MOL0     H 9080   7.117   8.467   9.857  3.8280  1.0307  3.4011
  809MOL0     O 9081   8.989   1.937   2.987  0.6868 -0.0500 -0.6788
  809MOL0     C 9082   8.883   1.999   2.995  0.1092 -0.0980 -0.0338
  809MOL0     O 9083   8.858   2.133   2.987  0.5337  0.3340 -0.8931
  809MOL0     C 9084   8.943   2.236   2.959  0.4522  0.0402  0.2917
  809MOL0     C 9085   9.064   2.231   2.897 -1.0157  0.4220  0.1036
  809MOL0     C 9086   9.138   2.344   2.873 -0.2542 -0.3136 -0.2761
  809MOL0     C 9087   9.086   2.467   2.894 -0.4741 -0.0444  0.4389
  809MOL0     O 9088   9.168   2.579   2.853  0.0886 -0.2251  0.7318
  809MOL0     C 9089   9.128   2.722   2.901 -0.2351  1.2422  0.5302
  809MOL0     C 9090   9.230   2.818   2.858  0.3711  0.0147  0.3783
  809MOL0     C 9091   9.159   2.956   2.840  0.1693  0.8733  0.2239
  809MOL0     C 9092   9.088   2.995   2.965  0.0326  0.2112 -0.9742
  809MOL0     C 9093   9.082   3.141   2.970  0.3804 -0.5520  0.6979
  809MOL0     C 9094   9.023   3.195   3.100  0.0735 -0.8675  0.5369
  809MOL0     C 9095   9.000   3.350   3.097 -0.1840 -0.9647 -0.3952
  809MOL0     C 9096   8.936   3.410   3.221 -0.4845 -0.4023 -0.5808
  809MOL0     N 9097   9.017   3.389   3.345  0.1466 -0.3284 -0.0352
  809MOL0     C 9098   8.981   3.317   3.454  0.5398 -0.1134  0.3836
  809MOL0     C 9099   9.076   3.345   3.543  0.6346 -0.3657 -0.5409
  809MOL0     C 9100   9.071   3.278   3.680 -0.0614 -1.3365 -0.7330
  809MOL0     C 9101   9.163   3.168   3.686 -0.3676  1.1666 -0.3584
  809MOL0     C 9102   9.122   3.061   3.590 -0.0316  0.3644  0.3687
  809MOL0     C 9103   8.982   3.011   3.619  0.8513  0.8828 -0.0999
  809MOL0     O 9104   8.985   2.962   3.757 -0.8434 -0.5649 -0.4649
  809MOL0     C 9105   8.938   2.845   3.797 -0.9442 -0.7864 -0.3803
  809MOL0     C 9106   8.826   2.849   3.878  0.0480 -0.9217  0.6936
  809MOL0     C 9107   8.788   2.725   3.940 -1.1633  0.0586 -0.5155
  809MOL0     C 9108   8.847   2.608   3.894  0.0069 -0.1994 -0.1048
  809MOL0     C 9109   8.790   2.483   3.941 -0.2504 -0.1216 -1.7663
  809MOL0     O 9110   8.704   2.483   4.045 -0.1708  0.1615  0.1357
  809MOL0     C 9111   8.637   2.366   4.092 -0.3162  0.4937  0.7176
  809MOL0     C 9112   8.572   2.391   4.211 -0.4174 -0.4707 -0.1215
  809MOL0     C 9113   8.524   2.287   4.290 -0.6346 -0.6029 -0.4368
  809MOL0     C 9114   8.515   2.154   4.253 -0.1670  0.5389 -0.2075
  809MOL0     O 9115   8.436   2.069   4.332  0.6624  0.8695  0.3173
  809MOL0     C 9116   8.362   1.959   4.276  0.3374 -0.0442  0.6404
  809MOL0     C 9117   8.246   2.002   4.188 -0.5556 -0.3685  0.6996
  809MOL0     C 9118   8.155   2.118   4.235 -0.6619  0.0924  1.1666
  809MOL0     C 9119   8.010   2.110   4.179 -0.7374 -0.1585 -0.0637
  809MOL0     C 9120   7.932   2.223   4.253 -0.6026 -0.6089 -0.2425
  809MOL0     C 9121   7.786   2.247   4.196  0.0873 -0.1692 -1.5770
  809MOL0     C 9122   7.708   2.119   4.156 -0.1929 -0.7492 -1.1869
  809MOL0     C 9123   7.695   2.114   3.998 -0.1020  1.5427 -0.3411
  809MOL0    Cl 9124   7.541   2.021   3.962  0.5228  0.1243 -0.0096
  809MOL0     C 9125   8.577   2.130   4.125  1.1793 -0.3004 -0.0996
  809MOL0     C 9126   8.634   2.228   4.046 -0.2143 -0.0866  0.0250
  809MOL0     O 9127   8.824   2.382   3.881 -0.7856  0.3227  0.4302
  809MOL0     C 9128   8.956   2.608   3.804  0.9925  1.3610  0.3977
  809MOL0     C 9129   9.000   2.726   3.764 -0.1322 -0.2663  0.3743
  809MOL0     N 9130   9.163   3.446   3.492  0.5434 -0.2547  0.7629
  809MOL0     N 9131   9.131   3.464   3.365  0.5197 -0.1723 -0.6394
  809MOL0     C 9132   8.966   2.484   2.952  0.7247 -0.4712  0.0622
  809MOL0     C 9133   8.899   2.365   2.986  0.0111  0.4210  0.0251
  809MOL0     C 9134   8.769   1.912   3.006 -0.1261  0.3973  0.2416
  809MOL0     C 9135   8.787   1.774   2.967 -0.2076 -1.2799 -0.7638
  809MOL0     C 9136   8.675   1.680   2.986  0.2292 -0.1848  0.6900
  809MOL0     C 9137   8.542   1.731   3.025  0.2002  0.2305 -0.4133
  809MOL0     O 9138   8.438   1.652   3.043  0.4808  0.1899 -0.6952
  809MOL0     C 9139   8.403   1.651   3.181  1.5645  0.4067 -1.6738
  809MOL0     C 9140   8.451   1.522   3.265  0.6671  0.0837 -0.2195
  809MOL0     C 9141   8.386   1.389   3.241  0.4219 -0.6741 -0.0556
  809MOL0     C 9142   8.449   1.270   3.320 -0.7838  0.5376 -1.2925
  809MOL0     C 9143   8.580   1.223   3.277  0.6141 -0.8098  0.4451
  809MOL0     C 9144   8.685   1.188   3.230 -0.8298 -0.1111 -1.2101
  809MOL0     C 9145   8.523   1.866   3.043  0.7026 -0.2055  0.3743
  809MOL0     C 9146   8.635   1.952   3.038  0.1234  0.0152  0.0133
  809MOL0     C 9147   8.602   2.096   3.072 -0.4793  0.8893 -0.2992
  809MOL0     H 9148   9.108   2.135   2.872  1.4892  1.6064 -0.3875
  809MOL0     H 9149   9.240   2.331   2.838  0.2179  0.5407  0.7445
  809MOL0     H 9150   9.029   2.759   2.872 -0.1153  1.4411  0.3660
  809MOL0     H 9151   9.119   2.721   3.010 -2.1748 -0.8332  0.4356
  809MOL0     H 9152   9.264   2.803   2.755 -0.5932 -0.1124  0.0629
  809MOL0     H 9153   9.318   2.833   2.920  0.4744 -1.4764  0.6341
  809MOL0     H 9154   9.087   2.952   2.757 -0.3483  2.0733  0.5902
  809MOL0     H 9155   9.237   3.026   2.808  2.5630 -1.6072  0.2829
  809MOL0     H 9156   8.985   2.959   2.973 -0.7387  2.6466  1.8339
  809MOL0     H 9157   9.134   2.963   3.059  0.9012  0.8824 -1.1560
  809MOL0     H 9158   9.178   3.190   2.951 -0.2077 -0.0088 -1.1068
  809MOL0     H 9159   9.019   3.177   2.888  0.7229  0.7023  0.9567
  809MOL0     H 9160   8.927   3.151   3.127  1.7504 -5.8624 -0.5518
  809MOL0     H 9161   9.092   3.171   3.181 -0.6272  2.1646  2.1661
  809MOL0     H 9162   8.929   3.366   3.015 -0.7915  0.8689  0.4367
  809MOL0     H 9163   9.092   3.401   3.067 -0.5857 -0.7907 -1.3953
  809MOL0     H 9164   8.904   3.513   3.204  1.7893 -0.0184 -3.4104
  809MOL0     H 9165   8.841   3.359   3.242 -1.1908  0.4605 -1.5571
  809MOL0     H 9166   8.893   3.254   3.457 -0.1181  0.8130  1.3157
  809MOL0     H 9167   9.109   3.341   3.761 -0.8661  1.7720 -2.5751
  809MOL0     H 9168   8.973   3.253   3.719  0.3996  1.5687  2.8509
  809MOL0     H 9169   9.265   3.205   3.669  0.6036 -0.4017  1.5560
  809MOL0     H 9170   9.165   3.108   3.778 -3.0035 -1.7944 -2.0396
  809MOL0     H 9171   9.194   2.979   3.589  0.0805  0.4666  0.1717
  809MOL0     H 9172   9.118   3.094   3.486 -2.2379  0.2774  0.3701
  809MOL0     H 9173   8.955   2.932   3.548  2.1191  0.3402 -0.0081
  809MOL0     H 9174   8.905   3.089   3.616 -1.2602 -0.9490  1.6272
  809MOL0     H 9175   8.788   2.947   3.904  2.5294 -0.2057  1.9597
  809MOL0     H 9176   8.723   2.717   4.027 -1.8479 -1.7166 -1.1322
  809MOL0     H 9177   8.576   2.488   4.258  1.6418 -0.9560  0.8190
  809MOL0     H 9178   8.485   2.319   4.386 -1.2390 -0.3618 -0.7600
  809MOL0     H 9179   8.438   1.891   4.235  0.2582  0.8915 -1.1905
  809MOL0     H 9180   8.311   1.904   4.355 -1.1153 -0.1577 -0.3286
  809MOL0     H 9181   8.287   2.023   4.089  2.2520 -3.7316  0.9540
  809MOL0     H 9182   8.191   1.908   4.179  2.5151 -2.4007  1.5592
  809MOL0     H 9183   8.157   2.121   4.344  2.3775 -0.1883  1.2270
  809MOL0     H 9184   8.199   2.210   4.195 -0.5252 -0.7505 -0.7613
  809MOL0     H 9185   7.957   2.016   4.198 -2.4625  0.5989 -0.8590
  809MOL0     H 9186   8.007   2.125   4.071  3.7152  1.0254 -0.2070
  809MOL0     H 9187   7.979   2.322   4.244  2.1961 -1.8332 -0.3412
  809MOL0     H 9188   7.932   2.197   4.359  2.6053 -0.0194  0.0090
  809MOL0     H 9189   7.723   2.301   4.266 -0.5329 -1.3764 -1.1714
  809MOL0     H 9190   7.793   2.322   4.117 -1.9994  3.7654  1.6410
  809MOL0     H 9191   7.605   2.118   4.192 -0.3414  0.7493 -1.5107
  809MOL0     H 9192   7.751   2.028   4.199  4.5621  0.4296 -2.7338
  809MOL0     H 9193   7.692   2.213   3.953 -2.4124  1.8751  0.4047
  809MOL0     H 9194   7.784   2.065   3.959  0.4431  3.1181 -1.1587
  809MOL0     H 9195   8.567   2.032   4.079 -1.5190 -1.5829  2.8384
  809MOL0     H 9196   8.671   2.203   3.947 -1.5884 -0.8966 -0.3130
  809MOL0     H 9197   9.011   2.520   3.771 -0.5043  0.3736  0.4360
  809MOL0     H 9198   9.092   2.737   3.708 -2.4757  0.2385 -3.8069
  809MOL0     H 9199   8.919   2.576   2.988 -1.5127 -2.3407  2.3259
  809MOL0     H 9200   8.805   2.377   3.041  0.4278  2.5885  0.3657
  809MOL0     H 9201   8.888   1.734   2.956  2.0756  2.7250  2.4398
  809MOL0     H 9202   8.671   1.573   2.967  2.6580 -0.0187 -1.1198
  809MOL0     H 9203   8.294   1.647   3.177  1.4133  0.9135  0.3989
  809MOL0     H 9204   8.423   1.741   3.239 -1.4255  0.5490 -0.6660
  809MOL0     H 9205   8.435   1.551   3.370  0.1458 -1.3813  0.1324
  809MOL0     H 9206   8.552   1.505   3.229  0.0233 -2.2388 -1.0764
  809MOL0     H 9207   8.402   1.360   3.137  2.0368  2.3774 -0.7739
  809MOL0     H 9208   8.279   1.402   3.262  0.4927 -1.6098  0.9709
  809MOL0     H 9209   8.461   1.303   3.423 -0.5677 -0.3430 -1.0202
  809MOL0     H 9210   8.387   1.180   3.327  2.7864 -2.1225 -1.0240
  809MOL0     H 9211   8.783   1.159   3.199 -0.1991  1.0358 -0.3297
  809MOL0     H 9212   8.422   1.894   3.070  0.4329 -0.8543  0.0679
  809MOL0     H 9213   8.593   2.166   2.988  0.1400  2.7046  1.0630
  809MOL0     H 9214   8.510   2.110   3.130  1.0985  0.9097  2.4160
  809MOL0     H 9215   8.680   2.136   3.138  1.1864 -1.3026 -0.8367
  810MOL0     O 9216   9.280  11.274   3.912  0.9830  1.3260 -0.5093
  810MOL0     C 9217   9.373  11.250   3.989  1.2195  0.0587  0.8995
  810MOL0     O 9218   9.359  11.201   4.119 -0.5217  0.9517  0.8647
  810MOL0     C 9219   9.235  11.157   4.172 -0.3102  1.2604  0.3472
  810MOL0     C 9220   9.249  11.041   4.243 -0.0886 -0.4973  0.6825
  810MOL0     C 9221   9.136  10.987   4.302 -0.1981  0.8253 -0.2810
  810MOL0     C 9222   9.004  11.040   4.293 -0.7970  0.1027  0.2375
  810MOL0     O 9223   8.899  10.995   4.370 -0.4541 -0.1737  0.1962
  810MOL0     C 9224   8.919  10.906   4.476 -0.7428  1.6650 -0.7141
  810MOL0     C 9225   8.776  10.861   4.518  0.3798 -0.6740  0.6682
  810MOL0     C 9226   8.707  10.961   4.604  0.3947  0.2670  0.3844
  810MOL0     C 9227   8.557  10.933   4.627 -0.2309  0.3795  0.8393
  810MOL0     C 9228   8.496  11.055   4.705 -0.8920 -0.1577  0.8703
  810MOL0     C 9229   8.353  11.033   4.719 -0.4463  1.0272 -0.4508
  810MOL0     C 9230   8.295  11.095   4.837 -0.3332  0.1822 -0.2331
  810MOL0     C 9231   8.310  11.037   4.976 -0.0761 -0.0821  0.7546
  810MOL0     N 9232   8.328  10.891   4.984 -0.7625 -0.7516  0.2605
  810MOL0     C 9233   8.226  10.816   5.030  0.5609  0.0958  1.1596
  810MOL0     C 9234   8.289  10.710   5.066 -0.3797 -0.1366 -0.7788
  810MOL0     C 9235   8.214  10.587   5.112  0.3248  0.6576  0.4054
  810MOL0     C 9236   8.223  10.557   5.261 -0.3525  0.0253 -0.4950
  810MOL0     C 9237   8.112  10.643   5.327  0.4044  1.5168 -0.9481
  810MOL0     C 9238   8.082  10.583   5.474  0.5404 -0.1810  0.8846
  810MOL0     O 9239   8.194  10.601   5.560  0.2324 -0.5697 -0.4377
  810MOL0     C 9240   8.182  10.562   5.695  0.2003  0.0840 -0.1781
  810MOL0     C 9241   8.079  10.477   5.738  1.1184 -0.1406  0.2181
  810MOL0     C 9242   8.066  10.423   5.863 -0.4015  0.1514  0.8562
  810MOL0     C 9243   8.160  10.456   5.966  0.0424 -1.2942  0.9919
  810MOL0     C 9244   8.141  10.420   6.108 -0.1045  0.2649 -0.7086
  810MOL0     O 9245   8.052  10.329   6.149  0.2116 -0.2287  0.4652
  810MOL0     C 9246   8.044  10.265   6.271 -0.2305 -1.0249 -0.9753
  810MOL0     C 9247   8.131  10.284   6.386 -0.1417  0.0659 -0.3458
  810MOL0     C 9248   8.112  10.200   6.492  0.0219 -0.8487 -0.0741
  810MOL0     C 9249   8.012  10.100   6.494 -0.4585  0.0670  0.4946
  810MOL0     O 9250   7.980  10.031   6.606  0.0857  0.6867  0.8144
  810MOL0     C 9251   8.052   9.903   6.616 -0.6191  0.3031  0.9864
  810MOL0     C 9252   8.026   9.830   6.741  0.1431  0.6472 -0.0860
  810MOL0     C 9253   8.084   9.694   6.748 -0.1364  0.7313  0.0225
  810MOL0     C 9254   8.239   9.708   6.752 -0.0330  0.6222  0.9183
  810MOL0     C 9255   8.303   9.573   6.793  0.9524 -1.8422  0.0734
  810MOL0     C 9256   8.452   9.586   6.781  0.2350 -0.0631  0.2846
  810MOL0     C 9257   8.502   9.442   6.791  1.0116 -0.2367 -0.7312
  810MOL0     C 9258   8.654   9.436   6.805 -0.5277 -0.8721 -0.3807
  810MOL0    Cl 9259   8.725   9.526   6.943  0.2485  0.0896 -0.5400
  810MOL0     C 9260   7.928  10.082   6.380 -0.4468  0.0531  0.3296
  810MOL0     C 9261   7.946  10.171   6.271 -0.3444  0.4498  0.1632
  810MOL0     O 9262   8.214  10.471   6.190  0.2164  0.5810 -0.3318
  810MOL0     C 9263   8.276  10.529   5.921  0.8302 -0.5545 -0.1920
  810MOL0     C 9264   8.283  10.582   5.790 -0.1712  0.1763 -0.6693
  810MOL0     N 9265   8.421  10.726   5.057  0.0055 -0.0421  0.4504
  810MOL0     N 9266   8.451  10.836   5.014  0.7266  1.0450  0.6227
  810MOL0     C 9267   8.991  11.156   4.209  0.0308 -0.0376 -0.0786
  810MOL0     C 9268   9.105  11.220   4.155 -1.0785 -0.8389  0.6582
  810MOL0     C 9269   9.506  11.281   3.941 -1.2094  0.7262  0.3887
  810MOL0     C 9270   9.555  11.408   3.918 -0.1383  0.0089  0.5666
  810MOL0     C 9271   9.680  11.430   3.873  0.8495 -0.4321 -0.5828
  810MOL0     C 9272   9.772  11.327   3.849  0.1146  0.8751  0.4754
  810MOL0     O 9273   9.905  11.351   3.812  0.2773  0.1195  0.9365
  810MOL0     C 9274   9.941  11.452   3.725 -1.2271 -0.4767  0.3029
  810MOL0     C 9275  10.086  11.440   3.670 -0.4296 -0.4005  0.1950
  810MOL0     C 9276  10.193  11.447   3.786  0.4541 -0.6890  0.0379
  810MOL0     C 9277  10.172  11.574   3.867  0.3821  0.9143 -0.8246
  810MOL0     C 9278  10.288  11.590   3.954 -0.8425 -0.5970 -0.2087
  810MOL0     C 9279  10.376  11.614   4.039  0.5846  0.3442  0.9244
  810MOL0     C 9280   9.724  11.188   3.863 -0.4871 -0.2754  0.3171
  810MOL0     C 9281   9.596  11.169   3.912  1.1725  0.4548  0.1008
  810MOL0     C 9282   9.536  11.026   3.906  1.0153  0.3092 -0.3796
  810MOL0     H 9283   9.347  10.997   4.258  0.8338  1.6498  1.3650
  810MOL0     H 9284   9.143  10.895   4.359 -0.3311  1.0749  0.1444
  810MOL0     H 9285   8.963  10.812   4.440 -0.5019  2.0624 -1.4687
  810MOL0     H 9286   8.977  10.945   4.559  1.1559 -1.6850 -0.2698
  810MOL0     H 9287   8.787  10.769   4.577 -0.6760 -0.2929  1.4729
  810MOL0     H 9288   8.726  10.852   4.421  0.6095 -0.0825  0.4918
  810MOL0     H 9289   8.734  11.057   4.559  2.2312 -0.3725  0.0113
  810MOL0     H 9290   8.750  10.951   4.704  0.6753  0.5540  0.2936
  810MOL0     H 9291   8.508  10.925   4.529  2.4579 -0.7767 -0.5224
  810MOL0     H 9292   8.547  10.847   4.693 -0.6614  0.9375  1.5120
  810MOL0     H 9293   8.539  11.042   4.805  0.0856  2.4940  0.8759
  810MOL0     H 9294   8.534  11.146   4.658  1.1951 -0.7717  1.2817
  810MOL0     H 9295   8.300  11.054   4.625  3.5192 -0.2235 -3.2016
  810MOL0     H 9296   8.338  10.924   4.717 -0.7705  1.0814 -1.6480
  810MOL0     H 9297   8.186  11.096   4.827 -0.2921  0.9001 -0.7449
  810MOL0     H 9298   8.317  11.200   4.815 -3.1279  1.1801  1.2155
  810MOL0     H 9299   8.393  11.090   5.024 -0.2386  1.2841 -0.4249
  810MOL0     H 9300   8.222  11.062   5.037  2.1895  1.7192  3.5381
  810MOL0     H 9301   8.119  10.818   5.045  0.4539 -2.1927  1.0776
  810MOL0     H 9302   8.108  10.590   5.084  0.5643  0.0956 -0.5868
  810MOL0     H 9303   8.257  10.507   5.052  0.8185  1.7469 -0.7387
  810MOL0     H 9304   8.200  10.450   5.263 -1.6735  0.2863 -0.9154
  810MOL0     H 9305   8.321  10.578   5.306 -1.0648  1.6224  0.4115
  810MOL0     H 9306   8.024  10.645   5.262 -1.0343  0.7856  0.8956
  810MOL0     H 9307   8.142  10.749   5.330  1.0711  1.3110  0.4361
  810MOL0     H 9308   8.070  10.475   5.468 -2.6638  0.0917  0.8781
  810MOL0     H 9309   7.991  10.628   5.516  0.5489  2.2641 -1.4250
  810MOL0     H 9310   7.994  10.459   5.672  0.1067  1.1474  1.1115
  810MOL0     H 9311   7.987  10.352   5.885 -0.0079  0.1124  2.2204
  810MOL0     H 9312   8.204  10.364   6.390  0.2109 -0.2935  1.4358
  810MOL0     H 9313   8.162  10.233   6.583 -4.1073  2.9492  1.1802
  810MOL0     H 9314   8.017   9.847   6.528 -2.1916  3.1680 -0.3700
  810MOL0     H 9315   8.160   9.922   6.617 -0.3764 -0.9256  0.3287
  810MOL0     H 9316   8.072   9.883   6.825  0.3433  0.4098 -0.0447
  810MOL0     H 9317   7.917   9.825   6.748  0.2870 -1.7808  1.5968
  810MOL0     H 9318   8.064   9.644   6.843  3.5481 -2.2301 -0.5156
  810MOL0     H 9319   8.054   9.626   6.668  0.6051 -0.4056  0.6727
  810MOL0     H 9320   8.274   9.787   6.819  0.7166  1.6217 -0.5937
  810MOL0     H 9321   8.266   9.731   6.648 -2.2800  0.7958  0.3122
  810MOL0     H 9322   8.261   9.491   6.734  1.6287 -1.3029 -1.1829
  810MOL0     H 9323   8.284   9.566   6.901  1.0813  2.4623  0.5450
  810MOL0     H 9324   8.487   9.619   6.683  0.5094 -4.2469 -1.2146
  810MOL0     H 9325   8.491   9.640   6.868 -1.8168 -2.1072  2.6161
  810MOL0     H 9326   8.478   9.390   6.697 -2.3280 -2.4005  1.1136
  810MOL0     H 9327   8.460   9.394   6.879 -1.1963  0.5580 -1.2717
  810MOL0     H 9328   8.688   9.332   6.808 -2.6007 -1.6117  2.8537
  810MOL0     H 9329   8.691   9.490   6.717 -0.2800  0.0727  0.2924
  810MOL0     H 9330   7.860   9.998   6.384 -0.7901  0.2276 -1.1485
  810MOL0     H 9331   7.875  10.161   6.190  0.5005 -1.1483 -0.4360
  810MOL0     H 9332   8.354  10.552   5.992 -0.9293  0.4714  1.5114
  810MOL0     H 9333   8.363  10.638   5.743 -1.4012  2.1982 -0.5255
  810MOL0     H 9334   8.891  11.192   4.188 -0.0867 -0.5736 -0.4699
  810MOL0     H 9335   9.100  11.306   4.088  0.4219 -1.1341  0.1392
  810MOL0     H 9336   9.488  11.492   3.937 -0.4421  0.3267 -1.6324
  810MOL0     H 9337   9.703  11.536   3.866 -0.4947 -0.0875 -0.0640
  810MOL0     H 9338   9.923  11.548   3.773 -3.1355 -0.2742 -0.6841
  810MOL0     H 9339   9.892  11.427   3.630 -0.3443 -2.8853  0.4139
  810MOL0     H 9340  10.098  11.516   3.593 -1.1211 -0.8941 -0.4172
  810MOL0     H 9341  10.113  11.339   3.636  1.9002  0.4866 -0.7756
  810MOL0     H 9342  10.296  11.442   3.751  0.4479  1.4664 -0.4302
  810MOL0     H 9343  10.184  11.360   3.851 -0.1703 -2.6918 -2.5648
  810MOL0     H 9344  10.163  11.662   3.803  0.7059  1.1840 -0.5034
  810MOL0     H 9345  10.077  11.564   3.920  1.8050 -1.8580  1.4946
  810MOL0     H 9346  10.460  11.650   4.095  1.9422  2.6646 -2.3231
  810MOL0     H 9347   9.790  11.106   3.837 -0.7082 -0.9063  1.6807
  810MOL0     H 9348   9.434  11.035   3.868  1.5265  2.2697 -1.4415
  810MOL0     H 9349   9.598  10.970   3.836  1.0161 -1.2125  0.7950
  810MOL0     H 9350   9.526  10.972   4.001  1.3992  1.0010  0.0704
  811MOL0     O 9351  10.008   8.825   7.904 -0.0808  0.1037  0.1040
  811MOL0     C 9352  10.108   8.798   7.844 -0.4371 -0.1479  0.2068
  811MOL0     O 9353  10.188   8.685   7.862  0.3176 -0.1092 -0.0174
  811MOL0     C 9354  10.165   8.598   7.963 -0.3804 -0.2147  0.1208
  811MOL0     C 9355  10.161   8.453   7.929 -0.8266  0.2045  0.2055
  811MOL0     C 9356  10.145   8.363   8.028 -0.2145 -0.6927  0.7843
  811MOL0     C 9357  10.128   8.408   8.160  0.3114 -0.0470 -0.2139
  811MOL0     O 9358  10.128   8.309   8.260 -0.1714  0.7425  0.0697
  811MOL0     C 9359  10.081   8.337   8.395 -0.3761 -0.8230  0.0422
  811MOL0     C 9360  10.039   8.223   8.476 -0.2724 -0.6467  0.0978
  811MOL0     C 9361   9.976   8.264   8.609  0.2729  0.2909  0.5667
  811MOL0     C 9362   9.848   8.183   8.632  0.2833 -0.0187  1.0172
  811MOL0     C 9363   9.782   8.221   8.761  0.2663 -0.4692  0.8373
  811MOL0     C 9364   9.652   8.131   8.779  0.0080 -1.0464 -0.1973
  811MOL0     C 9365   9.575   8.165   8.908 -0.0557 -0.1063  0.8001
  811MOL0     C 9366   9.648   8.148   9.035 -0.6149  0.1775  0.0897
  811MOL0     N 9367   9.666   8.002   9.048  0.4290 -0.3695 -0.1996
  811MOL0     C 9368   9.570   7.911   9.091 -0.1751  0.3470 -0.5267
  811MOL0     C 9369   9.645   7.805   9.125  0.0702  0.6011  0.1492
  811MOL0     C 9370   9.593   7.666   9.154  0.7902 -0.2364 -0.3527
  811MOL0     C 9371   9.563   7.662   9.306 -1.0870 -0.3341  0.1399
  811MOL0     C 9372   9.492   7.531   9.340 -0.4217 -0.9587  0.0358
  811MOL0     C 9373   9.344   7.533   9.309  0.8008 -0.0559  0.6947
  811MOL0     O 9374   9.270   7.407   9.309 -0.0081 -0.0971  0.6632
  811MOL0     C 9375   9.256   7.337   9.428 -0.4238 -1.0266  0.8390
  811MOL0     C 9376   9.203   7.207   9.409  0.5104 -0.0437 -0.2465
  811MOL0     C 9377   9.164   7.126   9.516  0.2848 -0.1168 -0.2687
  811MOL0     C 9378   9.188   7.175   9.643  0.6406 -0.1544 -0.6891
  811MOL0     C 9379   9.157   7.081   9.761 -0.5236 -0.9251  0.4310
  811MOL0     O 9380   9.052   7.001   9.744 -0.0974 -0.5911  0.8296
  811MOL0     C 9381   8.991   6.925   9.836 -0.1693  0.1459  0.6667
  811MOL0     C 9382   8.857   6.937   9.873  0.8238  0.4289  0.5690
  811MOL0     C 9383   8.794   6.846   9.950  0.5149  0.0123 -0.6626
  811MOL0     C 9384   8.857   6.732   9.986  0.4933  0.5608  1.2731
  811MOL0     O 9385   8.800   6.624  10.053  0.1063  0.1799  0.2383
  811MOL0     C 9386   8.657   6.633  10.098  0.3358  0.6897  0.2723
  811MOL0     C 9387   8.599   6.502  10.170  0.3962 -0.6037 -0.1349
  811MOL0     C 9388   8.566   6.384  10.081  0.1097 -0.0179 -0.5687
  811MOL0     C 9389   8.633   6.368   9.959 -1.0486  0.0350 -0.4102
  811MOL0     C 9390   8.782   6.319   9.988  0.1002 -0.4334  0.5704
  811MOL0     C 9391   8.846   6.326   9.851 -0.7788  0.0742 -0.4187
  811MOL0     C 9392   8.988   6.301   9.858  0.0840 -0.0268  0.4968
  811MOL0     C 9393   9.061   6.307   9.715 -0.0295  0.0524 -0.0127
  811MOL0    Cl 9394   9.240   6.333   9.747  0.0984  0.3301  0.3646
  811MOL0     C 9395   8.996   6.718   9.960  0.0785  0.0170  0.0273
  811MOL0     C 9396   9.059   6.817   9.880 -0.7451  1.1112  1.0008
  811MOL0     O 9397   9.221   7.090   9.865  0.2336 -0.9633 -0.3399
  811MOL0     C 9398   9.257   7.299   9.660 -1.4501 -0.6276  0.1113
  811MOL0     C 9399   9.299   7.376   9.551  0.4547  0.6895 -1.2413
  811MOL0     N 9400   9.777   7.843   9.124  0.7456 -0.8496 -0.0839
  811MOL0     N 9401   9.787   7.961   9.081  0.2704  0.1406  0.9183
  811MOL0     C 9402  10.127   8.547   8.201 -0.2563  0.4684  0.1146
  811MOL0     C 9403  10.150   8.642   8.094  0.6794  0.1312  0.5280
  811MOL0     C 9404  10.151   8.897   7.749  0.3380  0.1260 -0.1745
  811MOL0     C 9405  10.282   8.940   7.757 -0.2906 -0.3746  0.5162
  811MOL0     C 9406  10.339   9.040   7.680 -0.4103 -0.5089  0.3598
  811MOL0     C 9407  10.258   9.102   7.590  0.2682  0.1298  1.1467
  811MOL0     O 9408  10.297   9.215   7.519  0.3380 -0.4583  0.2002
  811MOL0     C 9409  10.415   9.221   7.439  0.3628 -0.0382  0.1028
  811MOL0     C 9410  10.402   9.145   7.307  0.9235  0.3766  0.1453
  811MOL0     C 9411  10.435   8.998   7.320  0.0939 -0.0147 -0.8215
  811MOL0     C 9412  10.399   8.916   7.196 -0.1618  0.0601 -0.6560
  811MOL0     C 9413  10.259   8.926   7.152 -0.1099 -0.7832 -0.4066
  811MOL0     C 9414  10.137   8.949   7.140  0.2829 -0.5174  0.9649
  811MOL0     C 9415  10.124   9.059   7.573 -0.2383 -1.4496 -0.0341
  811MOL0     C 9416  10.068   8.962   7.652 -0.4138  1.0700  0.0358
  811MOL0     C 9417   9.926   8.918   7.620  0.8239  0.2258 -0.3171
  811MOL0     H 9418  10.174   8.423   7.825 -1.7899  0.3067  0.0459
  811MOL0     H 9419  10.155   8.256   8.008 -0.6592 -0.3004 -1.9856
  811MOL0     H 9420  10.158   8.388   8.454 -1.0305  1.4407 -0.9469
  811MOL0     H 9421  10.003   8.413   8.387 -0.6748 -0.8907  1.9062
  811MOL0     H 9422  10.130   8.164   8.492  0.3083 -0.8688 -3.2587
  811MOL0     H 9423   9.967   8.165   8.417 -2.2016  2.8695 -1.3241
  811MOL0     H 9424   9.949   8.368   8.589 -1.4613 -0.5001 -1.6440
  811MOL0     H 9425  10.052   8.252   8.687  0.3782 -0.8432  0.3190
  811MOL0     H 9426   9.774   8.212   8.557  3.6363 -0.7393 -2.9308
  811MOL0     H 9427   9.871   8.077   8.624 -3.0602 -0.7321 -0.9896
  811MOL0     H 9428   9.856   8.214   8.841  3.9501  2.5678 -1.8927
  811MOL0     H 9429   9.752   8.327   8.765  2.7746  0.3192  0.6679
  811MOL0     H 9430   9.574   8.144   8.704 -0.4092 -1.8653  0.0863
  811MOL0     H 9431   9.677   8.025   8.786 -1.5850 -1.3615  1.8656
  811MOL0     H 9432   9.484   8.104   8.905 -0.3664  0.3786 -1.7026
  811MOL0     H 9433   9.537   8.267   8.896  1.9363  0.4693 -1.0787
  811MOL0     H 9434   9.742   8.202   9.031  0.4835 -1.6741 -0.5355
  811MOL0     H 9435   9.592   8.180   9.123  0.3008 -2.3652  1.7214
  811MOL0     H 9436   9.465   7.923   9.067  0.3233  1.5008 -2.4048
  811MOL0     H 9437   9.506   7.649   9.090  1.8362 -0.5424 -1.7468
  811MOL0     H 9438   9.669   7.594   9.122  1.4274  1.1189 -2.0330
  811MOL0     H 9439   9.657   7.667   9.360 -0.0731  0.8362 -1.6274
  811MOL0     H 9440   9.494   7.743   9.334 -0.2694  0.2114  0.6195
  811MOL0     H 9441   9.490   7.503   9.445 -1.5094 -1.7567 -0.1896
  811MOL0     H 9442   9.535   7.447   9.284  0.2675 -0.5635 -0.0467
  811MOL0     H 9443   9.330   7.583   9.213  1.4777 -1.2996 -0.0712
  811MOL0     H 9444   9.295   7.597   9.383  0.4077  0.5908 -0.1152
  811MOL0     H 9445   9.153   7.166   9.322 -0.9639  0.2633  0.4091
  811MOL0     H 9446   9.127   7.024   9.518 -1.1911  0.3832  2.8781
  811MOL0     H 9447   8.801   7.014   9.822 -1.2676 -0.7588  0.9426
  811MOL0     H 9448   8.687   6.851   9.971 -0.0178  0.6258 -3.1560
  811MOL0     H 9449   8.647   6.719  10.164 -1.1319  1.5588 -1.0087
  811MOL0     H 9450   8.597   6.655  10.009  0.6839  1.3411  0.1975
  811MOL0     H 9451   8.677   6.473  10.241  0.3969 -1.1082 -0.3366
  811MOL0     H 9452   8.514   6.539  10.227 -1.3002 -0.8908 -2.3413
  811MOL0     H 9453   8.573   6.285  10.127  0.4561  0.4539  0.4166
  811MOL0     H 9454   8.461   6.392  10.048  1.0986 -2.5112 -5.2127
  811MOL0     H 9455   8.641   6.454   9.892  4.8841  0.6772  0.5959
  811MOL0     H 9456   8.581   6.284   9.911  0.3948 -0.5582 -1.0124
  811MOL0     H 9457   8.789   6.224  10.042 -1.7876 -0.9133  0.0409
  811MOL0     H 9458   8.828   6.393  10.055 -1.6651 -0.3489  1.7614
  811MOL0     H 9459   8.807   6.249   9.784  1.6608 -1.3989 -0.2637
  811MOL0     H 9460   8.832   6.426   9.809  0.1221  1.8363  3.0687
  811MOL0     H 9461   9.021   6.202   9.890  0.4793 -1.2216 -3.2030
  811MOL0     H 9462   9.031   6.374   9.928 -0.8761 -0.2200  1.3058
  811MOL0     H 9463   9.048   6.215   9.657 -1.2586  0.2377 -0.0552
  811MOL0     H 9464   9.026   6.391   9.654  1.6551  3.0487  2.7836
  811MOL0     H 9465   9.048   6.631  10.000 -2.0750  0.7186  4.9792
  811MOL0     H 9466   9.163   6.812   9.848 -1.7965 -0.9361 -2.6665
  811MOL0     H 9467   9.280   7.322   9.763 -0.8096 -1.0879  0.0739
  811MOL0     H 9468   9.341   7.475   9.564  0.6896  0.3523  0.9644
  811MOL0     H 9469  10.139   8.575   8.305 -1.1436 -0.8565  0.5928
  811MOL0     H 9470  10.170   8.745   8.118  0.5889  0.0477  0.9638
  811MOL0     H 9471  10.362   8.909   7.824  0.8544 -2.5229 -1.6782
  811MOL0     H 9472  10.445   9.065   7.685  0.0378 -2.1392 -0.4782
  811MOL0     H 9473  10.505   9.193   7.494  0.4375  1.8179  0.9927
  811MOL0     H 9474  10.432   9.327   7.419  0.7535  0.1092  1.2046
  811MOL0     H 9475  10.475   9.182   7.234 -0.8534  2.7257 -0.5767
  811MOL0     H 9476  10.304   9.171   7.266  0.2863  0.9645  1.9465
  811MOL0     H 9477  10.375   8.960   7.403  1.9464 -1.3752 -0.0354
  811MOL0     H 9478  10.542   8.991   7.341  0.5438  1.5704 -2.3679
  811MOL0     H 9479  10.468   8.955   7.120  2.0208  0.2044  1.2926
  811MOL0     H 9480  10.423   8.811   7.212  0.6485  0.6564  2.9381
  811MOL0     H 9481  10.034   8.971   7.123 -0.0472 -0.6228  2.7379
  811MOL0     H 9482  10.081   9.094   7.479 -0.2842  1.9474  1.1216
  811MOL0     H 9483   9.932   8.845   7.538  0.6432  0.9281 -0.9670
  811MOL0     H 9484   9.883   8.867   7.706 -0.1454 -1.0944 -1.5352
  811MOL0     H 9485   9.860   9.003   7.600  2.9762  1.7183 -1.5167
  812MOL0     O 9486   5.149   2.702   5.899 -0.0411  0.0932  0.7900
  812MOL0     C 9487   5.188   2.789   5.974 -1.3160 -0.1607  0.9521
  812MOL0     O 9488   5.258   2.907   5.940  0.3699 -0.0535  0.2012
  812MOL0     C 9489   5.277   2.926   5.806  0.2041 -0.2765  0.6988
  812MOL0     C 9490   5.407   2.965   5.763  0.1104  0.4783 -0.0309
  812MOL0     C 9491   5.429   2.997   5.629 -0.9299 -0.8046 -0.2168
  812MOL0     C 9492   5.334   2.985   5.530  0.4960 -0.5177  0.0957
  812MOL0     O 9493   5.367   3.014   5.404 -0.4061 -0.5038  0.4380
  812MOL0     C 9494   5.333   3.140   5.352 -0.2799 -0.5167  0.8345
  812MOL0     C 9495   5.432   3.243   5.396 -0.4565  0.7072  0.1718
  812MOL0     C 9496   5.403   3.379   5.328 -0.3278 -1.0711 -1.0678
  812MOL0     C 9497   5.498   3.492   5.380  0.3793  0.1057 -0.1392
  812MOL0     C 9498   5.469   3.622   5.296  0.4474  0.0269 -0.4520
  812MOL0     C 9499   5.574   3.732   5.329 -0.2048 -0.4541 -0.2612
  812MOL0     C 9500   5.524   3.859   5.262 -0.0101  0.6507  0.4729
  812MOL0     C 9501   5.635   3.968   5.246  0.2813  0.7607 -0.1687
  812MOL0     N 9502   5.578   4.104   5.236 -0.7188 -0.0596 -0.2000
  812MOL0     C 9503   5.464   4.165   5.291 -0.5821 -0.1309  1.3583
  812MOL0     C 9504   5.475   4.293   5.239 -0.2658 -0.1911 -0.2080
  812MOL0     C 9505   5.358   4.387   5.251  0.4569 -0.1712  0.2777
  812MOL0     C 9506   5.272   4.396   5.120 -0.5561 -0.1727 -0.1799
  812MOL0     C 9507   5.139   4.465   5.141  1.0935 -0.1277 -0.8532
  812MOL0     C 9508   5.029   4.360   5.156 -1.1705 -1.1381  0.6961
  812MOL0     O 9509   5.022   4.270   5.033  0.0875  0.1683  0.8286
  812MOL0     C 9510   4.915   4.289   4.950 -0.6096  0.0945  0.5252
  812MOL0     C 9511   4.821   4.181   4.935  0.4556  0.1895  1.3581
  812MOL0     C 9512   4.698   4.195   4.853 -0.8673  0.2120 -0.5362
  812MOL0     C 9513   4.668   4.318   4.804 -0.8969  0.2742 -0.1825
  812MOL0     C 9514   4.536   4.333   4.733 -0.1866 -0.7192 -0.1987
  812MOL0     O 9515   4.476   4.221   4.696 -0.1079 -0.3490 -0.4505
  812MOL0     C 9516   4.386   4.199   4.592 -1.3189 -0.4899 -0.4606
  812MOL0     C 9517   4.371   4.061   4.564  0.0717  0.8754 -0.0792
  812MOL0     C 9518   4.278   4.024   4.472  0.2261 -0.4005 -0.4945
  812MOL0     C 9519   4.201   4.117   4.397 -0.0192  0.2154 -0.6051
  812MOL0     O 9520   4.133   4.059   4.289 -0.0305  0.7756  0.0602
  812MOL0     C 9521   4.042   4.131   4.210  0.5406 -0.5022 -0.9608
  812MOL0     C 9522   3.980   4.043   4.109  0.5381  0.5401  0.0988
  812MOL0     C 9523   3.872   4.127   4.037  1.2066  0.2201 -0.0833
  812MOL0     C 9524   3.821   4.091   3.900 -0.0835 -0.2188  0.4826
  812MOL0     C 9525   3.682   4.160   3.888 -0.1399 -0.1275  0.9006
  812MOL0     C 9526   3.631   4.122   3.745 -1.2800  0.2123 -0.5174
  812MOL0     C 9527   3.489   4.161   3.723  0.0830  0.3683 -0.3258
  812MOL0     C 9528   3.459   4.138   3.577  0.5591  0.2651  0.8257
  812MOL0    Cl 9529   3.280   4.148   3.567  0.4081  0.1667 -0.1915
  812MOL0     C 9530   4.223   4.251   4.419 -1.1664 -0.3465 -0.6328
  812MOL0     C 9531   4.317   4.293   4.517 -0.3576 -0.9509 -0.4837
  812MOL0     O 9532   4.503   4.442   4.694 -1.0382  0.3053 -0.5150
  812MOL0     C 9533   4.761   4.420   4.806 -0.3274 -0.3509  0.2553
  812MOL0     C 9534   4.881   4.412   4.886  0.4188 -0.3276 -0.0590
  812MOL0     N 9535   5.589   4.309   5.163 -0.0657  0.0559 -0.8495
  812MOL0     N 9536   5.648   4.201   5.158  0.3650  0.6754 -0.1840
  812MOL0     C 9537   5.212   2.932   5.563  0.0134 -0.2231  0.1887
  812MOL0     C 9538   5.178   2.912   5.708 -0.0812 -0.3647 -0.5105
  812MOL0     C 9539   5.157   2.769   6.114 -0.3644 -0.5022  0.4011
  812MOL0     C 9540   5.224   2.843   6.206  0.3792  1.0665 -0.0936
  812MOL0     C 9541   5.230   2.801   6.339 -0.5872 -0.4857  0.5810
  812MOL0     C 9542   5.147   2.705   6.386  0.6289  0.9113  0.3494
  812MOL0     O 9543   5.149   2.700   6.523  0.5010 -0.5000 -0.7356
  812MOL0     C 9544   5.037   2.631   6.596 -0.3638  1.0661 -0.8467
  812MOL0     C 9545   4.895   2.677   6.559  0.4310 -0.6992 -0.5643
  812MOL0     C 9546   4.770   2.592   6.595  0.6945  0.4046 -0.5341
  812MOL0     C 9547   4.641   2.663   6.552 -0.6468  0.0720 -1.2359
  812MOL0     C 9548   4.641   2.701   6.412  0.1430  0.3269 -0.6013
  812MOL0     C 9549   4.648   2.729   6.293 -0.5105  0.2050 -1.0692
  812MOL0     C 9550   5.059   2.632   6.295 -0.2320 -0.1233 -0.4198
  812MOL0     C 9551   5.058   2.673   6.158 -0.0319  0.0305 -0.1869
  812MOL0     C 9552   4.962   2.597   6.070  0.5219  0.3538 -0.0116
  812MOL0     H 9553   5.484   2.990   5.834  1.8871 -0.1607 -1.6511
  812MOL0     H 9554   5.528   3.024   5.596  0.0356 -1.5705  1.8531
  812MOL0     H 9555   5.352   3.125   5.245 -0.2589 -1.4296  0.9609
  812MOL0     H 9556   5.228   3.161   5.378 -0.3561  0.5944 -0.2442
  812MOL0     H 9557   5.529   3.208   5.360 -1.6862 -1.7958 -0.9574
  812MOL0     H 9558   5.432   3.249   5.505 -0.1274 -0.8506  0.2846
  812MOL0     H 9559   5.310   3.406   5.379  1.2138 -1.6949  2.3558
  812MOL0     H 9560   5.391   3.372   5.220 -1.7298  0.2873 -1.0267
  812MOL0     H 9561   5.483   3.506   5.487 -2.0596 -0.6842 -0.3057
  812MOL0     H 9562   5.604   3.469   5.366  0.4219  0.9551 -1.4346
  812MOL0     H 9563   5.473   3.600   5.189  0.4922  4.2146 -1.4909
  812MOL0     H 9564   5.370   3.662   5.324  1.9088  1.9823  2.4185
  812MOL0     H 9565   5.589   3.755   5.435  1.0761  1.2315 -0.7736
  812MOL0     H 9566   5.669   3.698   5.286 -0.0028  1.0489 -1.0780
  812MOL0     H 9567   5.446   3.903   5.324 -1.0715 -1.2469  0.5513
  812MOL0     H 9568   5.486   3.845   5.160  0.6497  1.1914  0.1468
  812MOL0     H 9569   5.687   3.971   5.343 -1.3639 -2.2904  0.9716
  812MOL0     H 9570   5.709   3.943   5.169 -1.7397  0.2903 -2.0603
  812MOL0     H 9571   5.381   4.128   5.351 -1.0019  0.4567  1.1520
  812MOL0     H 9572   5.299   4.361   5.339  0.3710 -0.6441  0.0811
  812MOL0     H 9573   5.387   4.489   5.279 -1.0297  0.1621  0.7238
  812MOL0     H 9574   5.321   4.456   5.042  0.7422 -0.8575  0.0745
  812MOL0     H 9575   5.261   4.293   5.085 -0.6564 -0.2837  0.1750
  812MOL0     H 9576   5.120   4.524   5.051  0.6706  0.4680 -0.3767
  812MOL0     H 9577   5.142   4.535   5.224  1.3953 -0.2968 -0.7216
  812MOL0     H 9578   4.938   4.417   5.176 -0.7090 -0.8147  2.0095
  812MOL0     H 9579   5.049   4.301   5.246 -1.0041  0.4784  1.7623
  812MOL0     H 9580   4.843   4.081   4.970  0.5834 -0.2608  0.0402
  812MOL0     H 9581   4.633   4.109   4.839 -0.6056 -0.7447  3.1638
  812MOL0     H 9582   4.432   3.991   4.620 -1.9038 -1.7450 -1.0246
  812MOL0     H 9583   4.264   3.918   4.461  0.5709 -0.2645 -2.5876
  812MOL0     H 9584   3.969   4.180   4.275  2.7394  0.8549  0.5959
  812MOL0     H 9585   4.101   4.213   4.167  0.0663  1.3432  1.6685
  812MOL0     H 9586   4.054   4.003   4.037 -0.4815 -2.3189  0.4852
  812MOL0     H 9587   3.920   3.965   4.156 -0.5471  3.1231  3.2974
  812MOL0     H 9588   3.789   4.113   4.107  0.3590  0.4707 -1.0114
  812MOL0     H 9589   3.896   4.234   4.028 -1.1590  0.8351 -0.0177
  812MOL0     H 9590   3.810   3.982   3.891 -2.6994  0.0729 -0.5296
  812MOL0     H 9591   3.894   4.117   3.823  0.2799  0.4405  1.0389
  812MOL0     H 9592   3.681   4.269   3.894 -0.2337 -0.1741  1.9585
  812MOL0     H 9593   3.620   4.118   3.968  2.3482  1.3423  3.8150
  812MOL0     H 9594   3.699   4.178   3.680 -1.8167  0.5997 -0.7493
  812MOL0     H 9595   3.629   4.016   3.719 -3.1883  0.1741 -0.3291
  812MOL0     H 9596   3.476   4.263   3.760  2.1906  0.1252  1.2831
  812MOL0     H 9597   3.423   4.098   3.783  2.3316  0.0425  1.9753
  812MOL0     H 9598   3.502   4.221   3.518 -1.0794 -0.2012 -1.1297
  812MOL0     H 9599   3.492   4.037   3.552  0.8226  0.5861 -0.1957
  812MOL0     H 9600   4.166   4.315   4.352 -2.7381 -2.1043 -1.0643
  812MOL0     H 9601   4.323   4.401   4.528  0.6196 -0.8099 -1.9743
  812MOL0     H 9602   4.729   4.515   4.764 -4.5396 -1.9907 -0.7688
  812MOL0     H 9603   4.935   4.501   4.916 -2.0723  1.2282  0.1840
  812MOL0     H 9604   5.143   2.906   5.483 -0.3938 -0.1159  0.5039
  812MOL0     H 9605   5.077   2.892   5.741 -0.3237 -2.2526 -2.1409
  812MOL0     H 9606   5.281   2.931   6.177 -1.4638  1.4601 -2.9859
  812MOL0     H 9607   5.285   2.862   6.410 -0.8966  0.8753 -0.3149
  812MOL0     H 9608   5.059   2.649   6.701 -4.1391  1.4913  0.0139
  812MOL0     H 9609   5.050   2.523   6.582  0.9594  1.0751  0.1080
  812MOL0     H 9610   4.887   2.691   6.451  0.3575 -2.6947 -0.8473
  812MOL0     H 9611   4.886   2.769   6.618 -2.3434 -1.8889  1.0344
  812MOL0     H 9612   4.768   2.565   6.701 -0.9769  1.2233 -0.3154
  812MOL0     H 9613   4.786   2.499   6.539 -0.1796  0.5357 -1.0250
  812MOL0     H 9614   4.556   2.595   6.567  0.5271 -1.0244  0.8611
  812MOL0     H 9615   4.621   2.743   6.624  0.8418 -1.2495  0.7331
  812MOL0     H 9616   4.663   2.766   6.193 -0.8257  0.5314 -0.9970
  812MOL0     H 9617   4.998   2.548   6.327 -2.0709  0.1434 -2.8655
  812MOL0     H 9618   4.872   2.569   6.127 -0.0891 -0.2387 -1.2280
  812MOL0     H 9619   4.923   2.658   5.989  1.2910 -3.3416 -3.5063
  812MOL0     H 9620   5.018   2.516   6.022 -1.3422 -1.7010  1.0518
  813MOL0     O 9621   9.302  10.811   0.188 -0.6507 -0.6321  0.7975
  813MOL0     C 9622   9.227  10.887   0.128  0.2301  0.8069 -0.3451
  813MOL0     O 9623   9.208  11.020   0.163 -0.5942  0.4596  0.1038
  813MOL0     C 9624   9.292  11.075   0.252  0.0667 -0.3249 -0.5718
  813MOL0     C 9625   9.241  11.098   0.379 -0.8818 -0.2857  0.0007
  813MOL0     C 9626   9.324  11.165   0.479  0.8598  0.3442  0.3274
  813MOL0     C 9627   9.445  11.223   0.447  0.4262  0.0252 -0.4304
  813MOL0     O 9628   9.509  11.291   0.543 -0.2363  0.7761 -0.5433
  813MOL0     C 9629   9.655  11.284   0.517 -0.3080  0.0583  0.2382
  813MOL0     C 9630   9.725  11.334   0.647  0.7645 -0.2565 -0.6053
  813MOL0     C 9631   9.762  11.483   0.640  0.1256 -1.0242  0.8227
  813MOL0     C 9632   9.788  11.535   0.772 -0.0422  0.0836 -0.1211
  813MOL0     C 9633   9.844  11.686   0.759 -0.2971 -0.0109  0.0930
  813MOL0     C 9634   9.802  11.762   0.883  0.3142  0.3053 -0.3793
  813MOL0     C 9635   9.878  11.888   0.891  0.0955  0.0099  0.0543
  813MOL0     C 9636   9.833  11.994   0.798 -0.7798 -0.8250 -0.2556
  813MOL0     N 9637   9.894  12.121   0.831 -0.4744  0.6149  1.0570
  813MOL0     C 9638  10.031  12.132   0.835 -0.1692 -0.8093 -0.4247
  813MOL0     C 9639  10.047  12.263   0.875  0.2549 -0.0511  0.0804
  813MOL0     C 9640  10.184  12.343   0.865 -0.3561  0.8152 -0.8677
  813MOL0     C 9641  10.187  12.472   0.941  0.1612 -0.0882  0.1890
  813MOL0     C 9642  10.191  12.462   1.095  0.2061 -0.9076 -0.0346
  813MOL0     C 9643  10.166  12.601   1.148 -0.2449 -0.2367 -0.0879
  813MOL0     O 9644  10.277  12.693   1.107  0.2039 -0.0713 -0.1163
  813MOL0     C 9645  10.250  12.825   1.117  0.6874 -0.5583  0.0723
  813MOL0     C 9646  10.193  12.896   1.221 -0.2674 -0.5934  0.3043
  813MOL0     C 9647  10.176  13.038   1.213  0.5395  0.6215 -0.5404
  813MOL0     C 9648  10.225  13.117   1.103 -1.7821  0.4377  0.4495
  813MOL0     C 9649  10.214  13.262   1.085  0.2377  0.3079 -0.4824
  813MOL0     O 9650  10.149  13.322   1.192  1.0143 -0.2590 -0.5349
  813MOL0     C 9651  10.205  13.444   1.224 -0.3045 -0.4671 -0.2870
  813MOL0     C 9652  10.140  13.571   1.218  0.1678 -0.4270  1.0875
  813MOL0     C 9653  10.211  13.689   1.258  0.5620 -0.4792 -0.3508
  813MOL0     C 9654  10.335  13.681   1.314 -0.7574  0.9971 -0.7910
  813MOL0     O 9655  10.410  13.785   1.372  0.3122 -0.0582  0.4484
  813MOL0     C 9656  10.370  13.921   1.375  1.0364 -0.2389 -0.8782
  813MOL0     C 9657  10.496  13.999   1.410 -0.7482  0.0710  0.3115
  813MOL0     C 9658  10.567  13.964   1.543  0.3832 -1.0839 -0.4263
  813MOL0     C 9659  10.494  14.014   1.667 -0.4970 -0.1017  0.8659
  813MOL0     C 9660  10.524  13.932   1.795 -0.3177  0.5337 -0.0281
  813MOL0     C 9661  10.460  13.963   1.927  0.4801 -0.0929 -0.1099
  813MOL0     C 9662  10.505  13.854   2.032  0.4238  0.0346  0.6518
  813MOL0     C 9663  10.569  13.921   2.152  0.7681  0.6272  0.6290
  813MOL0    Cl 9664  10.451  13.984   2.269 -0.2553 -0.4677  0.1294
  813MOL0     C 9665  10.403  13.560   1.330  0.7630  0.3081  0.9194
  813MOL0     C 9666  10.326  13.447   1.297 -0.2214 -0.3087 -0.1441
  813MOL0     O 9667  10.280  13.315   0.998 -0.2176 -0.0058 -0.6565
  813MOL0     C 9668  10.283  13.042   1.001  0.2756 -0.0529  0.0586
  813MOL0     C 9669  10.302  12.902   1.009  0.6422 -0.7341  0.4865
  813MOL0     N 9670   9.922  12.328   0.889 -1.1798  0.1248 -0.1296
  813MOL0     N 9671   9.836  12.235   0.873  0.4119  0.0124 -0.2163
  813MOL0     C 9672   9.482  11.211   0.310  0.1614  0.0770  0.0793
  813MOL0     C 9673   9.414  11.137   0.218  0.0729  0.2082  0.0147
  813MOL0     C 9674   9.145  10.831   0.020 -0.9645 -0.5157 -0.0586
  813MOL0     C 9675   9.188  10.716  -0.050 -1.4902  0.0049 -0.6455
  813MOL0     C 9676   9.116  10.652  -0.143  0.3462 -0.2284  0.7765
  813MOL0     C 9677   8.997  10.708  -0.188  0.9531 -0.4982 -0.3064
  813MOL0     O 9678   8.903  10.657  -0.278 -0.2580 -0.1727 -0.0561
  813MOL0     C 9679   8.938  10.670  -0.410 -0.7374  0.8730  0.5486
  813MOL0     C 9680   8.812  10.724  -0.483  0.0714  0.6979 -1.0329
  813MOL0     C 9681   8.830  10.715  -0.637  0.2821  0.3232  0.1352
  813MOL0     C 9682   8.682  10.723  -0.701 -0.0481 -0.6995  1.1720
  813MOL0     C 9683   8.619  10.588  -0.703  1.1704  1.6303 -0.2908
  813MOL0     C 9684   8.567  10.477  -0.700  0.2592  0.3268  0.4534
  813MOL0     C 9685   8.945  10.817  -0.113  0.2701 -1.1876 -0.1085
  813MOL0     C 9686   9.018  10.874  -0.002  0.6881 -0.6889  0.8519
  813MOL0     C 9687   8.947  10.999   0.062  0.5990 -0.0216  0.1588
  813MOL0     H 9688   9.140  11.064   0.398 -1.0198  0.3974  0.5342
  813MOL0     H 9689   9.288  11.156   0.581  3.4858  0.7709  1.3656
  813MOL0     H 9690   9.690  11.186   0.486  0.4843  1.5362 -4.3446
  813MOL0     H 9691   9.678  11.342   0.426  1.4679 -3.8993 -2.0957
  813MOL0     H 9692   9.813  11.272   0.662  0.3082 -1.3507 -2.2270
  813MOL0     H 9693   9.655  11.316   0.730  1.6198 -0.4273  0.0941
  813MOL0     H 9694   9.681  11.544   0.597  2.4331  1.6425 -0.0373
  813MOL0     H 9695   9.854  11.501   0.584  2.4381 -4.3825  3.1725
  813MOL0     H 9696   9.695  11.542   0.829 -0.2225 -1.6360 -0.1308
  813MOL0     H 9697   9.844  11.461   0.830 -2.3973  0.4488  2.9028
  813MOL0     H 9698   9.952  11.670   0.749 -0.3004  0.0058  0.0316
  813MOL0     H 9699   9.811  11.736   0.667  0.0894 -0.7207 -0.4456
  813MOL0     H 9700   9.693  11.769   0.885  0.2849 -0.2552  0.5078
  813MOL0     H 9701   9.835  11.718   0.977  4.2643  3.3213 -0.0501
  813MOL0     H 9702   9.985  11.873   0.881  0.6512  1.6582  2.5996
  813MOL0     H 9703   9.869  11.930   0.992 -2.6515  0.2842 -0.2050
  813MOL0     H 9704   9.841  11.970   0.691 -0.2491  1.0438 -0.6795
  813MOL0     H 9705   9.726  12.013   0.813 -0.1360  1.9040  1.5839
  813MOL0     H 9706  10.109  12.059   0.815 -1.4043 -2.2866 -0.0605
  813MOL0     H 9707  10.266  12.277   0.895 -1.2974 -1.5860 -3.2099
  813MOL0     H 9708  10.197  12.359   0.757 -2.4774  0.4380 -1.2230
  813MOL0     H 9709  10.277  12.519   0.900  0.7634 -2.1242 -1.0095
  813MOL0     H 9710  10.101  12.535   0.916  1.5973  1.1751 -1.8246
  813MOL0     H 9711  10.286  12.419   1.128 -1.5496 -1.9663  4.3332
  813MOL0     H 9712  10.109  12.400   1.134 -0.3142 -1.6332 -2.1452
  813MOL0     H 9713  10.170  12.594   1.257  4.6749 -5.1976 -0.1109
  813MOL0     H 9714  10.076  12.641   1.100 -1.2333 -0.4220  1.5339
  813MOL0     H 9715  10.179  12.829   1.305 -1.8198 -0.5199  0.1315
  813MOL0     H 9716  10.111  13.085   1.286 -0.7414 -0.6945 -0.7877
  813MOL0     H 9717  10.047  13.575   1.163  1.0962 -2.4469 -0.7501
  813MOL0     H 9718  10.165  13.787   1.246 -0.3092 -0.2706  3.4229
  813MOL0     H 9719  10.319  13.952   1.284  1.8569 -1.9330 -1.9627
  813MOL0     H 9720  10.302  13.931   1.461  2.1563 -1.0332  0.1421
  813MOL0     H 9721  10.565  14.007   1.326  1.4337  1.4650  2.0873
  813MOL0     H 9722  10.478  14.106   1.422  2.9709  0.9145 -0.4068
  813MOL0     H 9723  10.598  13.860   1.559 -2.6596 -2.0368 -0.0834
  813MOL0     H 9724  10.670  13.999   1.534  0.2539 -1.1749 -3.0525
  813MOL0     H 9725  10.387  14.023   1.645  0.4852  2.3117 -4.7995
  813MOL0     H 9726  10.528  14.116   1.684  1.7155  0.0023 -2.9159
  813MOL0     H 9727  10.632  13.946   1.805 -0.3451  3.2986 -2.2395
  813MOL0     H 9728  10.508  13.825   1.777 -1.4356  0.1974  2.5396
  813MOL0     H 9729  10.486  14.064   1.961  1.0337 -0.1316 -0.3961
  813MOL0     H 9730  10.353  13.972   1.909  0.7480  0.5771 -1.5380
  813MOL0     H 9731  10.584  13.789   1.993  2.0259  2.2017  0.1087
  813MOL0     H 9732  10.420  13.797   2.071  0.4501  1.0869  2.3323
  813MOL0     H 9733  10.638  13.846   2.190  0.4729 -0.5976 -1.1123
  813MOL0     H 9734  10.626  14.011   2.127 -1.7540  2.4198  0.8689
  813MOL0     H 9735  10.503  13.554   1.370  2.5947 -4.2303 -3.3384
  813MOL0     H 9736  10.367  13.347   1.315  2.0705  0.7402  0.9101
  813MOL0     H 9737  10.308  13.090   0.907  1.4578  1.3271  1.0328
  813MOL0     H 9738  10.360  12.868   0.924  2.7563  1.3133  1.0159
  813MOL0     H 9739   9.577  11.255   0.282  0.2504  1.6091  2.5004
  813MOL0     H 9740   9.444  11.117   0.116 -0.8900 -3.4181  0.3161
  813MOL0     H 9741   9.281  10.663  -0.027 -1.3690 -0.0046 -1.1499
  813MOL0     H 9742   9.156  10.562  -0.188  0.9578 -0.2603  1.3627
  813MOL0     H 9743   8.955  10.569  -0.449 -2.8503  0.3564  0.8137
  813MOL0     H 9744   9.027  10.730  -0.430 -0.2059  0.3018  1.1562
  813MOL0     H 9745   8.801  10.830  -0.458 -1.5768  0.2858  0.1254
  813MOL0     H 9746   8.720  10.677  -0.450  1.4578  0.1817  2.5056
  813MOL0     H 9747   8.877  10.623  -0.672 -3.3292 -0.1451 -4.3883
  813MOL0     H 9748   8.895  10.796  -0.671 -0.0424 -0.0520 -1.4915
  813MOL0     H 9749   8.615  10.802  -0.665 -0.6402  0.9300 -2.9438
  813MOL0     H 9750   8.710  10.757  -0.801 -4.0322 -1.6686 -0.4626
  813MOL0     H 9751   8.508  10.388  -0.701  0.0943  0.3837  2.3668
  813MOL0     H 9752   8.851  10.868  -0.132  1.7058  1.8093  0.2654
  813MOL0     H 9753   8.978  11.090   0.010 -4.1548  1.9486  0.2778
  813MOL0     H 9754   8.839  10.981   0.057  0.7702 -0.7380 -2.8053
  813MOL0     H 9755   8.974  11.010   0.167  0.3542 -0.0298  0.2229
  814MOL0     O 9756   8.873   8.522   2.425 -1.0152  0.1273  0.2943
  814MOL0     C 9757   8.986   8.477   2.406 -0.1044 -0.6334  0.3114
  814MOL0     O 9758   9.060   8.518   2.296 -0.0245  0.3750  0.2679
  814MOL0     C 9759   9.000   8.584   2.188 -0.4155 -0.5466  0.4190
  814MOL0     C 9760   8.871   8.550   2.131 -0.3850 -0.3573 -1.0036
  814MOL0     C 9761   8.827   8.599   2.009 -0.0958 -0.5418  0.5553
  814MOL0     C 9762   8.911   8.678   1.931  0.2077  2.0114 -0.2761
  814MOL0     O 9763   8.864   8.725   1.808 -0.4193 -0.3632 -0.7426
  814MOL0     C 9764   8.953   8.808   1.721  0.7435 -0.3318 -0.2395
  814MOL0     C 9765   8.906   8.787   1.573  0.5025  0.4764 -0.6290
  814MOL0     C 9766   8.984   8.873   1.469  0.3767  0.7490 -0.7314
  814MOL0     C 9767   8.942   8.836   1.333 -0.5294 -0.5402  0.2993
  814MOL0     C 9768   9.033   8.904   1.227 -0.4385 -0.0755 -0.3827
  814MOL0     C 9769   8.973   9.044   1.188  0.6358  0.1503 -0.3984
  814MOL0     C 9770   9.034   9.118   1.070 -0.1543  0.3550 -0.4391
  814MOL0     C 9771   8.933   9.212   1.001  0.5306 -0.4671 -0.3911
  814MOL0     N 9772   8.998   9.319   0.918  0.3998 -0.2179 -0.8096
  814MOL0     C 9773   9.045   9.295   0.794 -0.3670 -0.8193  0.5677
  814MOL0     C 9774   9.095   9.415   0.757  0.4486 -0.6710 -0.5709
  814MOL0     C 9775   9.175   9.436   0.635  0.4935  0.0236 -0.5291
  814MOL0     C 9776   9.113   9.533   0.538  0.6498  0.4372  0.6097
  814MOL0     C 9777   9.200   9.578   0.418  0.4412  0.2973  0.6661
  814MOL0     C 9778   9.265   9.461   0.353 -0.0873 -0.6755  0.0796
  814MOL0     O 9779   9.303   9.516   0.231 -0.0114  0.0727  0.1796
  814MOL0     C 9780   9.390   9.446   0.147  0.6594 -0.0993 -0.0797
  814MOL0     C 9781   9.423   9.311   0.162 -0.3753 -0.2094  0.6501
  814MOL0     C 9782   9.484   9.242   0.066  0.1947  0.0974 -0.1522
  814MOL0     C 9783   9.531   9.302  -0.055 -0.1873  0.3249 -0.1250
  814MOL0     C 9784   9.618   9.233  -0.151  0.3314 -0.6004  0.3145
  814MOL0     O 9785   9.693   9.317  -0.220  0.6419  0.1260 -1.1901
  814MOL0     C 9786   9.810   9.266  -0.268 -0.4515  0.3921  0.0573
  814MOL0     C 9787   9.866   9.303  -0.391  0.2235  0.2143  0.1970
  814MOL0     C 9788   9.980   9.243  -0.441 -0.9275  0.1609  0.4097
  814MOL0     C 9789  10.058   9.138  -0.371  0.2257 -0.3519  1.6336
  814MOL0     O 9790  10.179   9.084  -0.405  0.1594  0.1837 -0.6778
  814MOL0     C 9791  10.203   9.089  -0.538 -0.6438  0.0501  0.3986
  814MOL0     C 9792  10.337   9.017  -0.583  0.3817  0.0191 -0.1502
  814MOL0     C 9793  10.462   9.077  -0.506 -0.0390  0.5887  1.3138
  814MOL0     C 9794  10.591   8.988  -0.536  0.5036 -0.0088 -0.5283
  814MOL0     C 9795  10.592   8.861  -0.444 -0.0039 -0.5338  0.5591
  814MOL0     C 9796  10.725   8.788  -0.469 -0.1650  0.1681  0.3550
  814MOL0     C 9797  10.848   8.847  -0.389  0.6806 -0.6365  0.1481
  814MOL0     C 9798  10.969   8.841  -0.468  0.0369 -0.0163  0.5285
  814MOL0    Cl 9799  10.960   8.901  -0.635  0.6011  0.0544 -0.2010
  814MOL0     C 9800  10.007   9.111  -0.238  0.5570  0.2870  0.5233
  814MOL0     C 9801   9.892   9.177  -0.198  0.1607  0.0101  0.7943
  814MOL0     O 9802   9.620   9.109  -0.147 -0.6384  0.3839  0.1330
  814MOL0     C 9803   9.510   9.445  -0.069 -0.7793 -0.4966 -0.3095
  814MOL0     C 9804   9.455   9.515   0.039  0.4136  0.6208 -0.7697
  814MOL0     N 9805   9.066   9.517   0.856 -0.6429  0.1717  0.8120
  814MOL0     N 9806   9.011   9.453   0.958  0.3216 -0.3009  0.9323
  814MOL0     C 9807   9.033   8.714   1.984  1.1355 -1.1148  0.2677
  814MOL0     C 9808   9.083   8.669   2.111  0.5283 -1.3717  0.0669
  814MOL0     C 9809   9.048   8.392   2.514 -0.4145 -0.4478 -0.5783
  814MOL0     C 9810   9.179   8.356   2.498  0.2006  0.5253  1.0056
  814MOL0     C 9811   9.252   8.298   2.595 -0.2424  0.0577 -0.4337
  814MOL0     C 9812   9.204   8.264   2.720 -0.4113  0.0591  0.5852
  814MOL0     O 9813   9.268   8.192   2.817  0.2957 -0.1184 -0.1612
  814MOL0     C 9814   9.404   8.154   2.792  0.6272 -0.3486 -0.0699
  814MOL0     C 9815   9.471   8.104   2.921  0.3009 -0.1195  1.0833
  814MOL0     C 9816   9.622   8.103   2.894  0.7284 -0.8358  0.1608
  814MOL0     C 9817   9.700   8.007   2.979 -0.2473 -0.0557 -0.1784
  814MOL0     C 9818   9.851   8.017   2.956 -0.0656 -0.1638  0.3174
  814MOL0     C 9819   9.960   8.031   2.905 -0.6702  0.2744  0.3882
  814MOL0     C 9820   9.068   8.286   2.736 -0.2131  0.1511 -0.0577
  814MOL0     C 9821   8.991   8.347   2.636  0.4626  0.5211  0.0358
  814MOL0     C 9822   8.849   8.366   2.680 -0.2097 -0.1182 -0.0951
  814MOL0     H 9823   8.817   8.477   2.191 -0.6663  0.2489 -0.5184
  814MOL0     H 9824   8.732   8.564   1.970  1.4959 -2.7887 -1.6719
  814MOL0     H 9825   8.930   8.911   1.749 -0.1201  0.4534 -3.3620
  814MOL0     H 9826   9.060   8.789   1.736  0.6707  1.1815  2.9157
  814MOL0     H 9827   8.799   8.809   1.574 -0.0569 -1.3530  3.5804
  814MOL0     H 9828   8.913   8.682   1.545  0.1159 -0.3195  1.9922
  814MOL0     H 9829   9.087   8.846   1.493  0.1265  2.1916  2.6697
  814MOL0     H 9830   8.976   8.982   1.483 -0.6385  0.6087 -0.0242
  814MOL0     H 9831   8.962   8.729   1.333 -0.5103 -0.5374  0.8775
  814MOL0     H 9832   8.835   8.860   1.324 -1.3187  1.8849  8.2943
  814MOL0     H 9833   9.137   8.916   1.259 -0.8159  0.4961  0.6720
  814MOL0     H 9834   9.020   8.833   1.144 -2.3601  1.2991 -1.3360
  814MOL0     H 9835   8.869   9.018   1.165  0.6055 -0.6121  0.5224
  814MOL0     H 9836   8.979   9.111   1.274 -0.5198  2.0231 -1.6970
  814MOL0     H 9837   9.079   9.055   0.993  1.1256  0.3143  0.3087
  814MOL0     H 9838   9.118   9.168   1.121 -1.9138  0.6763  2.3416
  814MOL0     H 9839   8.860   9.152   0.946 -0.5843 -1.0362  1.6204
  814MOL0     H 9840   8.878   9.255   1.086 -0.2261  1.3425 -1.7301
  814MOL0     H 9841   9.031   9.203   0.739 -3.1103 -0.2566  0.1942
  814MOL0     H 9842   9.273   9.476   0.662 -0.0921  0.2355  1.3996
  814MOL0     H 9843   9.193   9.337   0.592 -1.4283 -1.0146  0.9150
  814MOL0     H 9844   9.025   9.486   0.494  3.9959 -2.2082 -4.1026
  814MOL0     H 9845   9.066   9.608   0.603 -4.2299 -1.0442 -0.7838
  814MOL0     H 9846   9.274   9.657   0.437  1.6124 -0.5879 -0.0937
  814MOL0     H 9847   9.123   9.617   0.351  0.7031 -1.3113 -0.6413
  814MOL0     H 9848   9.203   9.373   0.338 -0.1275 -0.6533  0.1152
  814MOL0     H 9849   9.349   9.434   0.418  0.2028 -1.0023 -0.4286
  814MOL0     H 9850   9.394   9.264   0.255 -1.6323 -2.0327 -0.6123
  814MOL0     H 9851   9.521   9.141   0.079  1.0615  0.2829 -1.0404
  814MOL0     H 9852   9.812   9.381  -0.444  5.7949  3.8391 -1.0165
  814MOL0     H 9853   9.998   9.278  -0.542 -0.0742  0.3375  0.6186
  814MOL0     H 9854  10.120   9.046  -0.595 -0.5413 -1.9479  1.6455
  814MOL0     H 9855  10.208   9.191  -0.578 -0.7859 -0.6283 -1.4684
  814MOL0     H 9856  10.318   8.911  -0.565 -1.5281  0.4922  0.9243
  814MOL0     H 9857  10.345   9.039  -0.690 -0.0337 -0.7335 -0.3374
  814MOL0     H 9858  10.476   9.175  -0.553  0.5082 -0.1430 -0.1023
  814MOL0     H 9859  10.448   9.086  -0.398 -3.1625  2.1112  0.8746
  814MOL0     H 9860  10.666   9.065  -0.519  0.5855  0.2658 -1.9432
  814MOL0     H 9861  10.595   8.957  -0.641  1.6132 -0.8089 -0.2772
  814MOL0     H 9862  10.516   8.791  -0.480  0.5271 -1.3198  0.9373
  814MOL0     H 9863  10.566   8.877  -0.339 -0.9880 -2.6001  0.6824
  814MOL0     H 9864  10.704   8.686  -0.434 -0.0632 -0.3582 -1.0523
  814MOL0     H 9865  10.747   8.776  -0.576  0.2168  1.1348  0.3170
  814MOL0     H 9866  10.858   8.798  -0.292  1.3047  1.0782  0.9979
  814MOL0     H 9867  10.816   8.947  -0.360  0.4719 -0.5417 -0.3973
  814MOL0     H 9868  11.057   8.892  -0.429 -1.3331  0.1018  3.8017
  814MOL0     H 9869  11.009   8.739  -0.460  2.9358  0.8964 -0.8982
  814MOL0     H 9870  10.059   9.042  -0.172  4.2562  1.8519 -0.4976
  814MOL0     H 9871   9.866   9.151  -0.095  0.5360  1.0779  1.1785
  814MOL0     H 9872   9.536   9.507  -0.154  0.5161 -0.5736  0.0001
  814MOL0     H 9873   9.455   9.623   0.053  3.2639  0.4590  1.8752
  814MOL0     H 9874   9.105   8.771   1.926  0.7217 -2.9694 -2.2192
  814MOL0     H 9875   9.172   8.715   2.152 -0.2750  0.5663 -0.2193
  814MOL0     H 9876   9.225   8.402   2.412  0.5332  3.7563  2.7713
  814MOL0     H 9877   9.356   8.277   2.569 -0.8840 -3.9760 -0.3950
  814MOL0     H 9878   9.457   8.241   2.753  1.3036  0.7804  3.0928
  814MOL0     H 9879   9.389   8.068   2.726 -3.0360 -0.4902  0.7537
  814MOL0     H 9880   9.430   8.004   2.941 -1.3836  0.1976 -0.4845
  814MOL0     H 9881   9.461   8.170   3.008  1.6756 -1.4825  2.3490
  814MOL0     H 9882   9.663   8.205   2.893  0.7652 -0.8336 -2.3726
  814MOL0     H 9883   9.640   8.055   2.798  1.0441 -3.0447  1.2566
  814MOL0     H 9884   9.675   8.017   3.085  3.4122 -1.3615  0.9706
  814MOL0     H 9885   9.648   7.912   2.969 -2.8422  1.1947  0.7467
  814MOL0     H 9886  10.066   8.040   2.889 -0.4403  1.7085  2.2930
  814MOL0     H 9887   9.017   8.248   2.824  1.4880  0.0022  0.9083
  814MOL0     H 9888   8.782   8.304   2.621 -4.6938  1.2814  3.0211
  814MOL0     H 9889   8.839   8.339   2.786  1.8454 -2.2014 -0.3319
  814MOL0     H 9890   8.830   8.473   2.676 -0.2463  0.0263  2.2921
  815MOL0     O 9891  10.605   4.275  10.283  0.8742 -0.2322  0.4671
  815MOL0     C 9892  10.500   4.317  10.330  0.7200  0.4761  0.3430
  815MOL0     O 9893  10.429   4.435  10.286  0.3407  0.4080  0.0021
  815MOL0     C 9894  10.472   4.504  10.180 -0.3311 -0.1763 -0.1417
  815MOL0     C 9895  10.485   4.449  10.045  0.5293 -0.0127  0.5382
  815MOL0     C 9896  10.526   4.531   9.944 -0.1388  0.1532  0.4811
  815MOL0     C 9897  10.540   4.664   9.961 -0.5891 -1.0201  0.5749
  815MOL0     O 9898  10.569   4.729   9.842  0.2067 -0.2706 -0.0317
  815MOL0     C 9899  10.581   4.875   9.836  0.2195  1.3832 -1.0187
  815MOL0     C 9900  10.458   4.960   9.828  0.1968  0.0011 -1.2763
  815MOL0     C 9901  10.479   5.093   9.765 -0.1242  0.3627  0.8515
  815MOL0     C 9902  10.344   5.162   9.743  0.0073 -1.1297  0.0107
  815MOL0     C 9903  10.379   5.298   9.669  0.2472 -0.1532  0.0123
  815MOL0     C 9904  10.252   5.364   9.613  0.2064 -0.8019  0.3359
  815MOL0     C 9905  10.296   5.484   9.525  0.0892 -0.1424 -0.0508
  815MOL0     C 9906  10.194   5.485   9.402  0.5988  0.1902  0.1610
  815MOL0     N 9907  10.246   5.417   9.281  0.8942 -0.8341  0.0204
  815MOL0     C 9908  10.279   5.281   9.259 -0.5085 -0.1615  0.5197
  815MOL0     C 9909  10.338   5.296   9.132 -1.1176  0.4005  0.2442
  815MOL0     C 9910  10.413   5.198   9.044 -0.6617  0.5056  0.1062
  815MOL0     C 9911  10.314   5.118   8.958  0.0257 -0.7803 -0.6543
  815MOL0     C 9912  10.389   5.028   8.858 -1.1319  0.3945  0.0272
  815MOL0     C 9913  10.301   4.938   8.764 -0.7887 -0.9002 -0.0191
  815MOL0     O 9914  10.242   4.832   8.837 -0.7196  0.2747  0.4168
  815MOL0     C 9915  10.283   4.708   8.825  0.1546  0.2711 -1.1864
  815MOL0     C 9916  10.257   4.621   8.933 -0.7904 -0.8330 -0.2206
  815MOL0     C 9917  10.300   4.490   8.931 -0.9819  0.8019  0.2245
  815MOL0     C 9918  10.364   4.435   8.817 -0.1366  0.5068 -0.2039
  815MOL0     C 9919  10.421   4.300   8.828 -0.9791  0.6194  0.0345
  815MOL0     O 9920  10.441   4.238   8.946 -1.1200  0.2276  0.0668
  815MOL0     C 9921  10.471   4.109   8.938 -0.0898  0.6909 -0.4651
  815MOL0     C 9922  10.559   4.055   9.029 -0.7369 -0.5331  0.7290
  815MOL0     C 9923  10.590   3.919   9.033 -0.3175 -0.3254 -0.6503
  815MOL0     C 9924  10.532   3.822   8.949  0.0475  0.6544  0.0937
  815MOL0     O 9925  10.576   3.694   8.953 -0.1015 -0.1758  0.0977
  815MOL0     C 9926  10.561   3.601   8.843  0.6025  0.3311  0.1037
  815MOL0     C 9927  10.612   3.464   8.873  0.1776 -0.3452  0.0082
  815MOL0     C 9928  10.636   3.381   8.758  0.2525 -0.3561 -0.6952
  815MOL0     C 9929  10.726   3.256   8.785  0.7959  0.0754 -0.4324
  815MOL0     C 9930  10.661   3.161   8.887 -0.1779  0.2984  0.0550
  815MOL0     C 9931  10.743   3.041   8.936 -0.4512  0.0748  0.2224
  815MOL0     C 9932  10.874   3.083   9.012  0.1303 -0.5629  0.4340
  815MOL0     C 9933  10.958   2.965   9.015  0.2504 -0.0657  0.2116
  815MOL0    Cl 9934  10.883   2.858   9.151 -0.1997  0.1233  0.0063
  815MOL0     C 9935  10.431   3.872   8.865 -0.9761  0.0858  0.4184
  815MOL0     C 9936  10.401   4.009   8.864  0.3146 -0.3902  0.6776
  815MOL0     O 9937  10.454   4.254   8.720 -0.9586  0.9001  0.4192
  815MOL0     C 9938  10.383   4.509   8.709  0.2942  0.2639  0.0509
  815MOL0     C 9939  10.344   4.647   8.716  0.0212  0.2510 -0.0387
  815MOL0     N 9940  10.328   5.422   9.088  0.2803 -1.1732  0.5024
  815MOL0     N 9941  10.262   5.495   9.175  0.2117  0.4223  0.1992
  815MOL0     C 9942  10.535   4.723  10.085 -0.7111 -0.0671 -0.3139
  815MOL0     C 9943  10.508   4.643  10.198  1.0314  0.3773  0.3341
  815MOL0     C 9944  10.453   4.240  10.443  0.2314  0.1548 -0.1649
  815MOL0     C 9945  10.352   4.306  10.514 -0.1737 -0.3535 -1.1945
  815MOL0     C 9946  10.316   4.263  10.646  0.0060 -0.1891  0.7147
  815MOL0     C 9947  10.368   4.150  10.700  0.0854 -0.7900 -0.3575
  815MOL0     O 9948  10.339   4.097  10.825  0.2579 -0.0232 -0.3973
  815MOL0     C 9949  10.252   4.172  10.907  0.0510  0.1701  0.3671
  815MOL0     C 9950  10.240   4.105  11.041 -0.0887 -0.1011  0.6063
  815MOL0     C 9951  10.159   4.190  11.149 -0.1427  1.2373  0.8070
  815MOL0     C 9952  10.181   4.343  11.149  1.2798  0.3211  0.2732
  815MOL0     C 9953  10.320   4.387  11.176  0.5721  0.8977  0.3466
  815MOL0     C 9954  10.432   4.447  11.180  0.4028  0.4089 -0.0091
  815MOL0     C 9955  10.452   4.075  10.623  1.1353  0.2230 -0.2736
  815MOL0     C 9956  10.491   4.109  10.492  0.0458 -0.5254 -0.1006
  815MOL0     C 9957  10.586   4.007  10.428  0.3640 -0.7784 -0.2215
  815MOL0     H 9958  10.476   4.343  10.026 -0.5869  0.0497  0.6159
  815MOL0     H 9959  10.531   4.481   9.847 -1.4832 -0.0211  0.4818
  815MOL0     H 9960  10.639   4.910   9.922 -2.4003  4.8581 -0.4493
  815MOL0     H 9961  10.632   4.885   9.739 -0.4124 -2.4094 -1.9061
  815MOL0     H 9962  10.415   4.980   9.927  0.1064 -2.2578 -0.7993
  815MOL0     H 9963  10.376   4.903   9.781  0.2773 -2.3882  1.2093
  815MOL0     H 9964  10.534   5.068   9.674 -1.5206 -0.1487  0.1151
  815MOL0     H 9965  10.540   5.147   9.838  1.7067 -1.8477  1.0735
  815MOL0     H 9966  10.280   5.101   9.679  1.3580 -0.6185 -1.9219
  815MOL0     H 9967  10.281   5.187   9.828 -1.9048  0.5647 -1.8023
  815MOL0     H 9968  10.421   5.363   9.747  1.0910 -0.8254  0.1305
  815MOL0     H 9969  10.450   5.273   9.589  2.1514  2.0366  0.8984
  815MOL0     H 9970  10.198   5.291   9.553  0.6425 -0.1669 -0.8581
  815MOL0     H 9971  10.210   5.390   9.710 -0.4767  1.2234 -0.4537
  815MOL0     H 9972  10.403   5.472   9.506  0.3927 -0.6967  1.8103
  815MOL0     H 9973  10.289   5.562   9.602  3.4841 -0.5016  0.7722
  815MOL0     H 9974  10.095   5.454   9.435 -0.8210  0.3517 -3.5122
  815MOL0     H 9975  10.192   5.592   9.380 -3.2866 -0.4487 -4.0758
  815MOL0     H 9976  10.276   5.194   9.324  0.3237 -1.8325 -1.5565
  815MOL0     H 9977  10.477   5.246   8.970  1.9005 -1.0502  1.1941
  815MOL0     H 9978  10.482   5.135   9.101  3.9901  2.3192 -2.9408
  815MOL0     H 9979  10.241   5.065   9.020 -0.4089 -2.3041 -2.3830
  815MOL0     H 9980  10.265   5.193   8.895 -2.4780 -1.0749  0.8210
  815MOL0     H 9981  10.462   4.965   8.909 -0.6167 -1.4076 -2.6832
  815MOL0     H 9982  10.454   5.090   8.796  0.7939  0.2399  1.7951
  815MOL0     H 9983  10.360   4.900   8.681 -0.9130 -0.4137 -0.3295
  815MOL0     H 9984  10.217   4.991   8.719  1.3314  2.8099  0.0766
  815MOL0     H 9985  10.207   4.666   9.019 -0.5327  0.5355 -0.7652
  815MOL0     H 9986  10.290   4.433   9.023 -1.0408 -0.8812 -0.7750
  815MOL0     H 9987  10.593   4.126   9.104 -3.4821  1.4605  0.2551
  815MOL0     H 9988  10.662   3.888   9.108 -0.9377 -0.2078 -0.0019
  815MOL0     H 9989  10.458   3.599   8.808 -0.0020  3.5463  1.3779
  815MOL0     H 9990  10.612   3.630   8.750  0.4273 -0.4846 -0.2601
  815MOL0     H 9991  10.703   3.467   8.934 -1.3020  0.3905  2.3411
  815MOL0     H 9992  10.543   3.410   8.940 -0.4217 -2.2137 -2.0065
  815MOL0     H 9993  10.539   3.353   8.713 -0.4502  0.8779  0.0055
  815MOL0     H 9994  10.679   3.441   8.677  1.2617 -1.7038 -1.1865
  815MOL0     H 9995  10.816   3.291   8.836  0.5805 -1.8094  1.3542
  815MOL0     H 9996  10.746   3.200   8.693  3.9182  1.6735 -0.8462
  815MOL0     H 9997  10.561   3.140   8.848 -0.1530 -0.0894  0.1920
  815MOL0     H 9998  10.649   3.220   8.978  1.8032 -0.6033  0.9562
  815MOL0     H 9999  10.686   2.980   9.007  1.2435  0.9896  2.5023
  815MOL0     H10000  10.767   2.986   8.845 -2.0663  3.1717 -2.2463
  815MOL0     H10001  10.856   3.118   9.114 -3.2834  1.1085 -0.5940
  815MOL0     H10002  10.926   3.168   8.967 -0.2259  2.0294  4.4264
  815MOL0     H10003  10.960   2.913   8.919 -2.2098 -1.4182  0.8022
  815MOL0     H10004  11.060   2.995   9.040 -0.2135 -0.1022  2.3474
  815MOL0     H10005  10.380   3.814   8.788  2.6487 -0.4343 -1.8082
  815MOL0     H10006  10.331   4.045   8.788 -1.8240 -2.7218  1.3961
  815MOL0     H10007  10.436   4.475   8.621 -1.1891  0.0718 -0.7958
  815MOL0     H10008  10.364   4.708   8.629  1.5162  1.7635  1.3223
  815MOL0     H10009  10.563   4.827  10.096 -1.3070  0.5255 -3.3658
  815MOL0     H10010  10.495   4.687  10.296 -5.0428 -0.3289  0.2650
  815MOL0     H10011  10.303   4.398  10.483 -2.4516 -1.2161 -0.3361
  815MOL0     H10012  10.251   4.329  10.703 -0.3298  0.9092 -0.8809
  815MOL0     H10013  10.148   4.169  10.873 -0.4852 -0.7140  1.9918
  815MOL0     H10014  10.286   4.276  10.916 -3.4464  1.3513  1.7486
  815MOL0     H10015  10.343   4.085  11.074 -0.6983  0.2298  2.8747
  815MOL0     H10016  10.187   4.011  11.028 -0.4094  0.2693 -0.8998
  815MOL0     H10017  10.176   4.142  11.245  0.6668  0.9441  0.5192
  815MOL0     H10018  10.058   4.156  11.122 -0.0848 -0.9273  2.9693
  815MOL0     H10019  10.142   4.391  11.059  2.6216 -2.0006 -1.6476
  815MOL0     H10020  10.121   4.385  11.231  1.3377  0.4818  0.2326
  815MOL0     H10021  10.532   4.484  11.185  0.1623  0.9311  1.6887
  815MOL0     H10022  10.479   3.979  10.666 -1.5571 -1.1984 -1.4817
  815MOL0     H10023  10.691   4.027  10.453  0.2195 -0.7306  0.3550
  815MOL0     H10024  10.562   3.906  10.460 -0.5716 -0.7335 -0.7524
  815MOL0     H10025  10.575   4.020  10.320 -1.5045  0.2233  0.0544
  816MOL0     O10026   8.695  11.283   3.819  0.7327 -0.7098  0.6514
  816MOL0     C10027   8.578  11.271   3.785 -0.5978  0.2593  0.8126
  816MOL0     O10028   8.512  11.361   3.712  0.0006 -0.2557 -0.0404
  816MOL0     C10029   8.519  11.497   3.699  0.1996  0.7201  0.3092
  816MOL0     C10030   8.421  11.560   3.613  0.1040 -1.4682  0.3185
  816MOL0     C10031   8.418  11.698   3.596 -0.2044  0.3394  0.3179
  816MOL0     C10032   8.521  11.777   3.660 -0.0774 -0.9971  0.8851
  816MOL0     O10033   8.538  11.911   3.648  0.3914 -0.4121  0.2465
  816MOL0     C10034   8.436  11.990   3.591  0.5825  0.2639  0.8553
  816MOL0     C10035   8.467  12.136   3.635  0.8565 -0.6176  0.3094
  816MOL0     C10036   8.591  12.183   3.556  0.9095  0.4033 -1.6068
  816MOL0     C10037   8.639  12.315   3.587 -0.0639  0.2862  0.5686
  816MOL0     C10038   8.786  12.326   3.545 -1.0338 -0.0830 -0.2127
  816MOL0     C10039   8.822  12.325   3.402 -0.4752  0.3030 -0.0342
  816MOL0     C10040   8.971  12.366   3.382 -0.5517 -0.1646  0.8210
  816MOL0     C10041   8.982  12.473   3.281  0.3168 -0.7925  0.1387
  816MOL0     N10042   8.947  12.420   3.149  0.2006  0.5636  0.3197
  816MOL0     C10043   8.987  12.294   3.092  0.2566  0.4358 -0.1242
  816MOL0     C10044   8.909  12.266   2.984  0.2030  0.2551  0.7526
  816MOL0     C10045   8.925  12.147   2.896 -0.0463 -0.6152  0.0089
  816MOL0     C10046   9.007  12.184   2.772 -0.4435  0.8089  0.0845
  816MOL0     C10047   9.050  12.065   2.665  0.1131 -0.5307  0.2097
  816MOL0     C10048   9.061  12.109   2.523 -0.4047  0.3032 -0.0417
  816MOL0     O10049   8.926  12.167   2.498 -0.7416  0.2063 -0.5455
  816MOL0     C10050   8.887  12.222   2.379 -0.8633 -1.1038  0.7118
  816MOL0     C10051   8.754  12.240   2.367  0.5121  0.1104 -0.2015
  816MOL0     C10052   8.694  12.293   2.252  0.1097 -0.9258  0.3374
  816MOL0     C10053   8.776  12.325   2.147  0.7514  0.0825  0.7683
  816MOL0     C10054   8.726  12.379   2.018  0.1537  0.9843 -0.6412
  816MOL0     O10055   8.584  12.385   2.012 -0.1349  0.8464 -0.4194
  816MOL0     C10056   8.537  12.430   1.888 -0.3158 -0.2740 -0.2988
  816MOL0     C10057   8.482  12.339   1.809 -0.3559  0.0067  0.5175
  816MOL0     C10058   8.410  12.371   1.692  0.3829  0.1830 -0.4261
  816MOL0     C10059   8.411  12.505   1.642 -0.3255 -0.4244 -0.8451
  816MOL0     O10060   8.359  12.537   1.521 -0.0075  1.4473 -0.2252
  816MOL0     C10061   8.321  12.427   1.437 -0.4421  0.5953  0.2633
  816MOL0     C10062   8.309  12.461   1.288  1.3602 -0.4174 -0.5351
  816MOL0     C10063   8.294  12.323   1.206 -0.8930 -0.0646  0.4135
  816MOL0     C10064   8.173  12.242   1.238  0.3966  0.9302  0.7597
  816MOL0     C10065   8.124  12.153   1.123  0.8426 -1.1081  0.4003
  816MOL0     C10066   8.044  12.245   1.027 -0.3058 -0.1636 -0.3256
  816MOL0     C10067   7.982  12.170   0.910  0.7072  0.9789  0.0172
  816MOL0     C10068   7.956  12.240   0.776 -0.7583  0.2989 -0.8721
  816MOL0    Cl10069   7.851  12.151   0.663  0.4883 -0.4911  0.0819
  816MOL0     C10070   8.482  12.602   1.710 -0.5539  0.3821 -0.2834
  816MOL0     C10071   8.546  12.563   1.831  0.4156 -0.1419 -0.1739
  816MOL0     O10072   8.802  12.425   1.935 -0.2744 -0.1310  0.3215
  816MOL0     C10073   8.914  12.308   2.155  0.6214 -1.3507  0.6028
  816MOL0     C10074   8.969  12.260   2.272 -0.4579  0.2772 -0.3316
  816MOL0     N10075   8.830  12.370   2.971  0.6031 -0.1734 -0.1144
  816MOL0     N10076   8.840  12.454   3.078  0.2667 -0.5320 -0.0060
  816MOL0     C10077   8.611  11.716   3.743  0.1781  0.0312 -0.1406
  816MOL0     C10078   8.601  11.577   3.782  0.2396 -0.0085 -0.3640
  816MOL0     C10079   8.516  11.141   3.820  0.4238 -0.5111  1.0686
  816MOL0     C10080   8.406  11.091   3.743 -0.1804  1.3199 -0.0409
  816MOL0     C10081   8.332  10.974   3.771  0.5555  0.5156  0.1473
  816MOL0     C10082   8.370  10.896   3.877  0.9867 -0.5412 -0.3564
  816MOL0     O10083   8.288  10.796   3.916 -0.6773  0.6282 -0.2553
  816MOL0     C10084   8.362  10.673   3.919  0.8505 -0.2547  0.0189
  816MOL0     C10085   8.263  10.544   3.922  0.1838  0.1870 -0.0569
  816MOL0     C10086   8.185  10.546   3.792  0.0504  0.4291  0.3230
  816MOL0     C10087   8.105  10.425   3.777  0.3657  0.5816  0.7641
  816MOL0     C10088   8.089  10.394   3.633  0.1707 -1.1721  0.0240
  816MOL0     C10089   8.074  10.365   3.518  0.0023  0.0681  0.2093
  816MOL0     C10090   8.484  10.940   3.950 -0.1809 -0.4193 -0.3267
  816MOL0     C10091   8.556  11.060   3.932  0.1976  0.9430  0.8657
  816MOL0     C10092   8.677  11.076   4.020 -0.6424  0.6183 -0.4204
  816MOL0     H10093   8.343  11.514   3.553  0.3965  0.9959 -2.1797
  816MOL0     H10094   8.344  11.732   3.525  0.7099  2.4405  0.3194
  816MOL0     H10095   8.439  11.975   3.483 -1.2198 -1.8777  1.0258
  816MOL0     H10096   8.338  11.956   3.626 -0.4866  3.1282  0.9154
  816MOL0     H10097   8.486  12.125   3.743 -1.3430 -0.6700  0.7385
  816MOL0     H10098   8.385  12.202   3.606  2.9544  3.5058  2.9395
  816MOL0     H10099   8.566  12.187   3.449 -2.0686 -0.1211 -1.0276
  816MOL0     H10100   8.672  12.115   3.580 -1.3380 -1.7090  0.4645
  816MOL0     H10101   8.580  12.387   3.529 -1.0531 -1.1481 -0.2587
  816MOL0     H10102   8.629  12.328   3.695 -0.1722 -1.5862  0.8042
  816MOL0     H10103   8.831  12.419   3.580 -0.6037 -0.5170  0.4053
  816MOL0     H10104   8.845  12.250   3.597 -1.2470  1.1906  2.0449
  816MOL0     H10105   8.811  12.225   3.358 -0.3791  0.1301  0.3315
  816MOL0     H10106   8.753  12.398   3.358 -0.7357 -0.5112 -1.0303
  816MOL0     H10107   9.030  12.276   3.361 -1.5319 -0.8087  0.7289
  816MOL0     H10108   9.013  12.407   3.474  0.3674 -1.5951  1.0716
  816MOL0     H10109   8.909  12.553   3.301  1.6445  0.1974  1.2671
  816MOL0     H10110   9.076  12.528   3.271 -1.0260  1.6562 -0.1059
  816MOL0     H10111   9.072  12.230   3.116  1.2514  0.5264 -3.0230
  816MOL0     H10112   8.987  12.075   2.951 -0.0384 -1.1520 -0.6967
  816MOL0     H10113   8.828  12.101   2.875 -0.1325 -0.8655  0.8723
  816MOL0     H10114   8.968  12.267   2.713  0.8375 -0.0684 -2.1349
  816MOL0     H10115   9.105  12.215   2.812  0.7849 -1.1931 -1.1833
  816MOL0     H10116   8.984  11.977   2.668  2.0376 -2.0097  0.7244
  816MOL0     H10117   9.147  12.027   2.695  1.2077  0.9722 -1.2324
  816MOL0     H10118   9.085  12.021   2.463  2.7424  2.0726 -1.6197
  816MOL0     H10119   9.148  12.174   2.512  0.8486 -1.2208  0.5252
  816MOL0     H10120   8.695  12.228   2.458  0.4435  2.3854  0.0972
  816MOL0     H10121   8.586  12.294   2.255  0.1040  0.3294  2.8372
  816MOL0     H10122   8.486  12.234   1.832  0.2015  0.0449  0.6013
  816MOL0     H10123   8.366  12.292   1.632  3.4926 -0.2378 -2.4261
  816MOL0     H10124   8.407  12.359   1.440  1.0563  2.3308 -1.1203
  816MOL0     H10125   8.226  12.394   1.480 -0.5419  2.6618  1.8046
  816MOL0     H10126   8.220  12.523   1.278  0.3934 -1.8678 -1.1671
  816MOL0     H10127   8.401  12.511   1.255  2.4406 -0.0439  2.6282
  816MOL0     H10128   8.299  12.353   1.101  1.1327  2.4732  1.1255
  816MOL0     H10129   8.380  12.260   1.228 -2.5853 -2.4447  0.5255
  816MOL0     H10130   8.091  12.299   1.282 -1.4090 -2.0537  1.5748
  816MOL0     H10131   8.214  12.172   1.311 -3.2433 -2.8665 -0.4284
  816MOL0     H10132   8.062  12.075   1.169  0.6453 -1.3843 -0.3187
  816MOL0     H10133   8.209  12.106   1.073  0.1879 -1.2185 -0.6516
  816MOL0     H10134   7.969  12.302   1.082 -1.1720 -0.4224 -1.2171
  816MOL0     H10135   8.102  12.322   0.975  1.3947  0.3499  2.1615
  816MOL0     H10136   7.886  12.133   0.947  0.3467  1.9604  0.0812
  816MOL0     H10137   8.052  12.092   0.878  2.4648  2.9126 -1.0870
  816MOL0     H10138   7.901  12.329   0.807  2.6702  2.4440 -0.4909
  816MOL0     H10139   8.052  12.267   0.731 -0.2297 -1.0941 -0.6188
  816MOL0     H10140   8.483  12.705   1.677 -4.3824  0.5422 -0.4315
  816MOL0     H10141   8.589  12.647   1.884 -1.4855  0.2115  0.8811
  816MOL0     H10142   8.969  12.335   2.066 -0.8663 -1.2841 -0.3298
  816MOL0     H10143   9.076  12.262   2.287 -0.0519 -0.8963 -2.6341
  816MOL0     H10144   8.672  11.789   3.795  1.9510 -2.0404  0.8511
  816MOL0     H10145   8.673  11.531   3.849 -0.5618 -0.1838  0.3881
  816MOL0     H10146   8.366  11.151   3.661 -2.2934 -0.3461 -0.3144
  816MOL0     H10147   8.240  10.947   3.720  1.6892 -1.1348 -1.1281
  816MOL0     H10148   8.418  10.678   4.013  0.5992  1.6855  0.0943
  816MOL0     H10149   8.437  10.665   3.840  0.9007 -0.1343  0.0542
  816MOL0     H10150   8.190  10.560   4.001 -1.4297  0.1360 -1.4761
  816MOL0     H10151   8.318  10.451   3.937  2.5718  1.8421  2.3133
  816MOL0     H10152   8.247  10.552   3.702 -4.0448  0.9712 -2.7898
  816MOL0     H10153   8.132  10.642   3.785  3.5151  2.4600 -0.9766
  816MOL0     H10154   8.151  10.335   3.819 -0.4266 -1.1860 -1.8652
  816MOL0     H10155   8.009  10.441   3.825  0.0969 -0.7563  0.6933
  816MOL0     H10156   8.063  10.315   3.424 -0.7043  1.9379 -0.7508
  816MOL0     H10157   8.536  10.870   4.015 -1.7774 -1.2920  0.0675
  816MOL0     H10158   8.666  11.025   4.116  1.7104  2.6003  1.0208
  816MOL0     H10159   8.767  11.039   3.970 -0.2629  1.2668 -0.2305
  816MOL0     H10160   8.698  11.177   4.056  2.3073  0.5273 -1.6551
  817MOL0     O10161   9.966   0.731   1.518  0.5985 -0.0865  0.3667
  817MOL0     C10162   9.974   0.643   1.434 -0.6170  0.5089  0.1771
  817MOL0     O10163  10.087   0.577   1.400 -0.0517 -0.5926 -0.3273
  817MOL0     C10164  10.208   0.631   1.439  1.0051  0.7435 -1.0457
  817MOL0     C10165  10.240   0.764   1.395  0.4599  0.5870  0.7135
  817MOL0     C10166  10.367   0.814   1.401 -0.0472  0.6217  0.9753
  817MOL0     C10167  10.473   0.742   1.454  0.2106 -0.1127 -0.6289
  817MOL0     O10168  10.599   0.805   1.455  0.4045  0.0014 -0.2416
  817MOL0     C10169  10.596   0.927   1.544  0.5747  0.0664  0.1927
  817MOL0     C10170  10.564   0.900   1.691  0.5503  0.6147  0.3318
  817MOL0     C10171  10.650   0.784   1.750 -0.6465 -0.6477 -0.6089
  817MOL0     C10172  10.628   0.767   1.905  0.1522  0.2165 -0.3874
  817MOL0     C10173  10.739   0.693   1.974  0.3816 -0.0435 -0.6366
  817MOL0     C10174  10.691   0.650   2.112  0.4672  0.9245 -0.3158
  817MOL0     C10175  10.646   0.765   2.207 -1.0754  0.0554  0.9717
  817MOL0     C10176  10.755   0.865   2.246 -0.9364 -0.6525  0.4524
  817MOL0     N10177  10.740   0.941   2.373  0.4114  0.4035  0.1551
  817MOL0     C10178  10.807   1.057   2.395 -0.6321  1.0702  0.3667
  817MOL0     C10179  10.764   1.103   2.517  0.0239 -0.1232  0.0502
  817MOL0     C10180  10.833   1.206   2.600  0.5986  0.1189  0.3984
  817MOL0     C10181  10.962   1.143   2.653 -0.2891  0.2031  0.2298
  817MOL0     C10182  11.055   1.239   2.737 -0.1354  0.6632  0.8513
  817MOL0     C10183  11.035   1.228   2.888  0.4974 -1.0286  0.0483
  817MOL0     O10184  11.075   1.354   2.949 -0.0410 -1.2092  0.4598
  817MOL0     C10185  11.133   1.350   3.073  0.1743  1.1224  0.2151
  817MOL0     C10186  11.248   1.276   3.103 -1.1271 -0.2355 -1.3960
  817MOL0     C10187  11.284   1.260   3.236 -1.5399 -0.5019 -0.6332
  817MOL0     C10188  11.217   1.328   3.341  0.1464 -1.1206  0.8742
  817MOL0     C10189  11.257   1.316   3.491 -1.1171  0.4838 -0.4034
  817MOL0     O10190  11.205   1.409   3.574  1.0829 -0.2951 -0.1887
  817MOL0     C10191  11.196   1.372   3.702  0.0273 -0.5726 -0.8172
  817MOL0     C10192  11.267   1.436   3.789 -0.3707 -0.2914 -0.5661
  817MOL0     C10193  11.241   1.434   3.929 -0.5992  0.2290 -0.8788
  817MOL0     C10194  11.143   1.350   3.976 -0.4741 -0.5359 -0.2765
  817MOL0     O10195  11.118   1.332   4.113 -0.2785 -1.0878  0.4544
  817MOL0     C10196  11.205   1.399   4.208  0.7820  0.4730 -0.6026
  817MOL0     C10197  11.162   1.358   4.345  0.6230 -0.1423 -0.5078
  817MOL0     C10198  11.150   1.469   4.447  0.5748  0.8826  0.6755
  817MOL0     C10199  11.071   1.590   4.403 -0.8565 -0.3544  0.3693
  817MOL0     C10200  10.931   1.569   4.343  0.4476  0.1887  0.5857
  817MOL0     C10201  10.822   1.510   4.433 -0.5587 -0.8976  0.6433
  817MOL0     C10202  10.815   1.579   4.571  0.3854  0.2890  0.3977
  817MOL0     C10203  10.715   1.508   4.660 -0.0031 -1.0564  0.1004
  817MOL0    Cl10204  10.768   1.355   4.724 -0.1948 -0.4830 -0.0807
  817MOL0     C10205  11.062   1.287   3.876 -0.4521  0.6914 -0.1168
  817MOL0     C10206  11.088   1.296   3.741  0.2770 -0.6500  0.4000
  817MOL0     O10207  11.345   1.232   3.527  0.3492  0.0201  0.0141
  817MOL0     C10208  11.110   1.414   3.309 -0.0578  0.0116  0.0614
  817MOL0     C10209  11.067   1.424   3.173 -0.1854 -0.0524  1.0710
  817MOL0     N10210  10.664   1.008   2.555  0.5380 -0.2355 -0.0524
  817MOL0     N10211  10.638   0.924   2.457 -0.0015 -0.6495 -0.3028
  817MOL0     C10212  10.447   0.609   1.508  0.5397 -0.3617 -0.7348
  817MOL0     C10213  10.311   0.562   1.499 -0.1410  0.8603 -0.0791
  817MOL0     C10214   9.856   0.599   1.369 -1.4890  0.4473 -0.1991
  817MOL0     C10215   9.858   0.621   1.227  0.7483 -0.8162  0.8981
  817MOL0     C10216   9.735   0.601   1.162 -0.4785  0.8706 -0.4990
  817MOL0     C10217   9.620   0.546   1.227  0.3605 -0.6575  0.8828
  817MOL0     O10218   9.490   0.522   1.167  0.9053  0.3144 -0.4370
  817MOL0     C10219   9.470   0.527   1.030 -0.5643 -1.5302 -0.2438
  817MOL0     C10220   9.435   0.673   1.004  0.3721 -0.1327 -0.3842
  817MOL0     C10221   9.376   0.696   0.861  0.1918 -0.3858 -0.1105
  817MOL0     C10222   9.452   0.802   0.785  0.2412 -0.1664  0.4919
  817MOL0     C10223   9.467   0.756   0.644 -0.1896  0.6118 -0.3441
  817MOL0     C10224   9.477   0.719   0.524 -0.0418  0.1539  0.6668
  817MOL0     C10225   9.626   0.523   1.357 -0.0353 -0.1929  0.9296
  817MOL0     C10226   9.746   0.552   1.432  0.4092 -0.3093  1.3600
  817MOL0     C10227   9.746   0.541   1.577 -0.2310  0.3782  0.5823
  817MOL0     H10228  10.160   0.819   1.346  0.5629  2.5766  2.6780
  817MOL0     H10229  10.379   0.920   1.378 -1.2193  0.4907 -0.4042
  817MOL0     H10230  10.702   0.954   1.539  1.1440 -2.2798 -2.2628
  817MOL0     H10231  10.548   1.015   1.500  2.6045  2.3775  2.2015
  817MOL0     H10232  10.458   0.874   1.696  0.4096  0.1647 -2.9694
  817MOL0     H10233  10.577   0.993   1.747  0.5573  0.4019  0.6846
  817MOL0     H10234  10.759   0.792   1.752 -0.5905 -1.0006  2.4625
  817MOL0     H10235  10.637   0.695   1.688  1.7803 -0.8366 -0.9471
  817MOL0     H10236  10.612   0.864   1.953  1.7157 -0.3526  1.3967
  817MOL0     H10237  10.539   0.704   1.914  1.3442 -1.6060 -0.7162
  817MOL0     H10238  10.762   0.601   1.920 -1.1118 -0.0160 -1.3867
  817MOL0     H10239  10.824   0.762   1.980  0.7488 -0.5655  0.3446
  817MOL0     H10240  10.600   0.590   2.100  0.8504  0.3938 -0.6567
  817MOL0     H10241  10.766   0.583   2.154 -0.2611 -0.1781 -0.7138
  817MOL0     H10242  10.611   0.711   2.296 -1.0915 -1.0307  0.3232
  817MOL0     H10243  10.560   0.822   2.169 -0.1116 -1.1299 -3.6091
  817MOL0     H10244  10.850   0.811   2.253  0.6667  1.8155 -0.8381
  817MOL0     H10245  10.754   0.934   2.161  1.0605 -1.2366 -0.1124
  817MOL0     H10246  10.892   1.094   2.338  0.7027  0.7624  2.0394
  817MOL0     H10247  10.859   1.291   2.535  0.4242 -0.3365 -0.2823
  817MOL0     H10248  10.769   1.244   2.680 -3.7196 -0.5227 -2.3884
  817MOL0     H10249  10.939   1.054   2.712 -0.1240  0.7917  1.2021
  817MOL0     H10250  11.023   1.112   2.567  1.6917  0.9141  1.3183
  817MOL0     H10251  11.039   1.344   2.709 -0.5644  0.6262  0.9413
  817MOL0     H10252  11.159   1.214   2.718 -0.4488 -2.4855  2.5941
  817MOL0     H10253  11.078   1.136   2.930  2.1387 -0.7167 -0.8590
  817MOL0     H10254  10.931   1.209   2.916  1.0109 -2.4990  1.0969
  817MOL0     H10255  11.295   1.216   3.026 -1.7276  0.4939 -2.3555
  817MOL0     H10256  11.372   1.200   3.257 -1.4904 -0.7870 -1.6025
  817MOL0     H10257  11.348   1.506   3.767  0.1765 -0.3723  1.0750
  817MOL0     H10258  11.298   1.507   3.985  1.5404 -1.0258 -1.3230
  817MOL0     H10259  11.311   1.370   4.204 -0.2737 -4.7683  1.6754
  817MOL0     H10260  11.191   1.507   4.192  0.9861  0.7136  0.7387
  817MOL0     H10261  11.065   1.307   4.344 -1.5384  3.5399  1.3778
  817MOL0     H10262  11.225   1.276   4.379  0.5760  0.4664  1.1065
  817MOL0     H10263  11.080   1.424   4.519 -2.2646  0.8809 -1.8589
  817MOL0     H10264  11.249   1.507   4.473  1.5785 -1.1596  0.1077
  817MOL0     H10265  11.132   1.636   4.324 -1.1831 -2.2588 -1.0663
  817MOL0     H10266  11.062   1.663   4.484  0.7488 -1.2359  1.3915
  817MOL0     H10267  10.946   1.499   4.261 -1.0893 -1.0353  1.3003
  817MOL0     H10268  10.902   1.665   4.299 -2.4008 -0.7158  0.2845
  817MOL0     H10269  10.724   1.525   4.387  0.6503 -0.4481 -1.9344
  817MOL0     H10270  10.841   1.404   4.452 -0.8949 -0.8698  1.1803
  817MOL0     H10271  10.775   1.678   4.546 -0.2045 -0.0718 -0.1162
  817MOL0     H10272  10.914   1.575   4.617  1.4854 -1.6258 -1.9174
  817MOL0     H10273  10.682   1.582   4.733 -0.2528  0.6297 -1.6489
  817MOL0     H10274  10.618   1.488   4.613  0.2313 -2.5189  0.1904
  817MOL0     H10275  10.982   1.222   3.910 -0.7979  1.1168 -0.1172
  817MOL0     H10276  11.015   1.252   3.674 -1.1955  0.4378  1.2112
  817MOL0     H10277  11.072   1.480   3.386 -0.7294 -0.2233 -0.0628
  817MOL0     H10278  10.993   1.501   3.155  0.3860  0.9503  2.8043
  817MOL0     H10279  10.525   0.546   1.550 -0.9220 -1.3600  0.5760
  817MOL0     H10280  10.293   0.456   1.513 -1.2546  0.9723 -0.5925
  817MOL0     H10281   9.945   0.654   1.170  0.9752 -2.0490  0.5044
  817MOL0     H10282   9.734   0.624   1.056  1.3376 -3.1679 -1.5520
  817MOL0     H10283   9.389   0.459   1.001  0.0845 -2.9430  1.0816
  817MOL0     H10284   9.555   0.499   0.968 -1.0857 -0.1489 -1.6528
  817MOL0     H10285   9.527   0.729   1.020  0.2128 -0.8152  4.1064
  817MOL0     H10286   9.370   0.704   1.086  2.0804 -2.0017  1.7860
  817MOL0     H10287   9.272   0.726   0.880 -0.1014 -0.7757 -1.0244
  817MOL0     H10288   9.374   0.599   0.810 -0.0011  0.1855 -1.2406
  817MOL0     H10289   9.390   0.892   0.786 -0.6749 -0.6389 -2.5787
  817MOL0     H10290   9.554   0.809   0.824  0.1322 -0.3514  0.8177
  817MOL0     H10291   9.497   0.677   0.428 -1.8408 -0.6316  0.6108
  817MOL0     H10292   9.549   0.464   1.406 -1.7660  3.1105  2.5003
  817MOL0     H10293   9.833   0.480   1.605  0.1036  0.4989 -0.1522
  817MOL0     H10294   9.763   0.635   1.631 -2.7003  0.8632  0.6202
  817MOL0     H10295   9.664   0.481   1.616 -0.8949 -0.7308 -2.2533
  818MOL0     O10296   8.237  10.565   7.653 -0.0847 -0.0967  1.3522
  818MOL0     C10297   8.186  10.558   7.764  0.7131 -0.3840  0.6966
  818MOL0     O10298   8.251  10.518   7.878  0.1928 -0.2196  0.0897
  818MOL0     C10299   8.379  10.476   7.863  1.1326  0.7795  0.5078
  818MOL0     C10300   8.490  10.544   7.815 -0.5929 -0.2235 -0.3768
  818MOL0     C10301   8.621  10.491   7.804 -0.0208 -0.4016 -1.0143
  818MOL0     C10302   8.637  10.365   7.854 -1.0512  0.7965  0.5861
  818MOL0     O10303   8.756  10.305   7.818 -0.4760  0.1224 -0.3837
  818MOL0     C10304   8.786  10.165   7.871  0.5969  0.2697 -0.6755
  818MOL0     C10305   8.925  10.129   7.830 -1.0216  0.2821  0.6781
  818MOL0     C10306   8.962   9.989   7.890 -0.3939  0.0515  0.3082
  818MOL0     C10307   9.108   9.947   7.893  0.7070  0.1691  0.5367
  818MOL0     C10308   9.141   9.806   7.942  0.2974  0.0625 -0.8791
  818MOL0     C10309   9.273   9.741   7.890 -0.3025  0.3044 -0.9822
  818MOL0     C10310   9.384   9.816   7.952  0.0554  0.3514  0.1166
  818MOL0     C10311   9.526   9.774   7.893 -0.3372  0.0042 -1.5962
  818MOL0     N10312   9.554   9.825   7.754  0.3087  0.2367  0.0374
  818MOL0     C10313   9.548   9.963   7.711 -1.1216 -0.9757 -0.2373
  818MOL0     C10314   9.558   9.953   7.574 -0.5938 -0.5435 -0.5293
  818MOL0     C10315   9.558  10.077   7.479  0.0780  0.5094 -0.1237
  818MOL0     C10316   9.444  10.178   7.512 -0.3494  0.9193  1.8779
  818MOL0     C10317   9.297  10.119   7.493 -0.9744 -0.7103  0.1115
  818MOL0     C10318   9.193  10.224   7.505  0.1245  0.9708  0.6819
  818MOL0     O10319   9.191  10.327   7.398 -0.1654 -0.0621  0.2639
  818MOL0     C10320   9.101  10.434   7.405 -0.8588  0.1286  0.2460
  818MOL0     C10321   9.011  10.446   7.509  0.0896  0.2625 -0.0218
  818MOL0     C10322   8.919  10.558   7.511  0.3460  0.3730  0.7623
  818MOL0     C10323   8.924  10.670   7.429  0.8448  1.1157 -0.3893
  818MOL0     C10324   8.823  10.775   7.441  0.0485  0.0006 -0.1153
  818MOL0     O10325   8.713  10.759   7.526 -0.0376 -0.1496 -0.5773
  818MOL0     C10326   8.634  10.873   7.555  0.2957  0.3225  0.1324
  818MOL0     C10327   8.493  10.852   7.562  0.1736 -0.0498  0.5218
  818MOL0     C10328   8.416  10.970   7.570  0.1582 -0.4254  0.3849
  818MOL0     C10329   8.466  11.101   7.570  0.1359  0.6370 -0.9492
  818MOL0     O10330   8.389  11.217   7.578 -0.3284 -0.2012  0.0465
  818MOL0     C10331   8.252  11.221   7.576  0.0803 -0.8315 -0.2259
  818MOL0     C10332   8.201  11.367   7.582 -0.4343  0.4800 -0.5171
  818MOL0     C10333   8.051  11.366   7.537 -0.3111 -0.2769  0.5772
  818MOL0     C10334   8.046  11.439   7.399 -0.8675 -0.5479 -1.0806
  818MOL0     C10335   7.908  11.436   7.346 -0.5321  0.8370  0.3118
  818MOL0     C10336   7.901  11.496   7.200  1.0508  0.5151 -0.7375
  818MOL0     C10337   7.770  11.466   7.135 -0.3596 -0.3046 -0.6307
  818MOL0     C10338   7.779  11.499   6.978 -0.4107  0.0277  0.0447
  818MOL0    Cl10339   7.862  11.368   6.875  0.0941  0.2550  0.3922
  818MOL0     C10340   8.606  11.113   7.573  0.4981  0.4176  0.6968
  818MOL0     C10341   8.683  11.000   7.574  0.4032  0.0231 -0.0937
  818MOL0     O10342   8.852  10.877   7.388 -0.0454  0.5792  0.7637
  818MOL0     C10343   9.030  10.664   7.332 -0.6295  1.2133 -0.6904
  818MOL0     C10344   9.109  10.542   7.320  0.2448  0.0761  0.0359
  818MOL0     N10345   9.548   9.816   7.542 -0.3515 -0.7060 -0.2830
  818MOL0     N10346   9.557   9.745   7.644  0.3479 -0.0882 -0.0104
  818MOL0     C10347   8.524  10.293   7.915 -0.4585  0.9337  0.3803
  818MOL0     C10348   8.396  10.352   7.908  0.4990  0.0453 -0.0930
  818MOL0     C10349   8.035  10.580   7.777 -1.4159 -0.1554  0.2670
  818MOL0     C10350   7.977  10.667   7.684 -0.9184  0.0979 -0.5177
  818MOL0     C10351   7.846  10.709   7.698 -0.0043  0.8775 -0.3435
  818MOL0     C10352   7.763  10.640   7.787 -0.4297  0.0509  0.2735
  818MOL0     O10353   7.629  10.672   7.780  0.3749  0.7983  0.2408
  818MOL0     C10354   7.529  10.612   7.868  0.1990  0.0902 -0.6450
  818MOL0     C10355   7.396  10.615   7.802  0.5115 -0.4118 -0.3644
  818MOL0     C10356   7.399  10.512   7.688  0.1396 -0.0202 -0.2030
  818MOL0     C10357   7.272  10.523   7.611 -0.6164 -0.3542 -0.2179
  818MOL0     C10358   7.244  10.411   7.533 -0.8775 -0.5377 -0.2430
  818MOL0     C10359   7.229  10.306   7.483 -0.2444 -0.6320  0.5321
  818MOL0     C10360   7.812  10.546   7.877 -0.1104 -0.1676  0.9708
  818MOL0     C10361   7.946  10.516   7.873  0.3851  0.1852  0.3739
  818MOL0     C10362   7.991  10.427   7.987  0.3272 -0.3279  0.4342
  818MOL0     H10363   8.473  10.648   7.789  1.3155  0.0672 -0.5930
  818MOL0     H10364   8.702  10.550   7.764 -0.2559  2.2042  2.0291
  818MOL0     H10365   8.772  10.168   7.979 -1.6869 -2.3356 -0.7870
  818MOL0     H10366   8.725  10.080   7.837  2.7882 -2.6443  2.0441
  818MOL0     H10367   8.995  10.198   7.880 -1.8984 -0.5954  3.3162
  818MOL0     H10368   8.923  10.125   7.721 -1.9119 -0.7280  0.7172
  818MOL0     H10369   8.913   9.912   7.831 -1.3493 -0.5605  1.8354
  818MOL0     H10370   8.932   9.984   7.995 -0.8002  1.0403  0.2578
  818MOL0     H10371   9.139   9.966   7.790 -2.6552  0.0097 -0.6279
  818MOL0     H10372   9.164  10.018   7.954  0.0746  0.2019  1.0825
  818MOL0     H10373   9.152   9.816   8.051  0.9092  1.8494 -1.0766
  818MOL0     H10374   9.068   9.732   7.908 -0.7015  0.9892 -0.7667
  818MOL0     H10375   9.277   9.636   7.923 -0.1425  0.3918 -0.7119
  818MOL0     H10376   9.279   9.729   7.782 -1.8202 -0.9054 -0.9706
  818MOL0     H10377   9.392   9.815   8.061  3.8239  1.3527  0.0169
  818MOL0     H10378   9.368   9.921   7.927 -0.0891  1.5212  4.4059
  818MOL0     H10379   9.611   9.806   7.954  1.6846 -1.5287 -3.4524
  818MOL0     H10380   9.526   9.665   7.892 -0.3009 -0.3095  3.7452
  818MOL0     H10381   9.532  10.051   7.773 -2.3800 -0.8782 -0.6764
  818MOL0     H10382   9.656  10.123   7.490  1.1915 -1.9781  1.3665
  818MOL0     H10383   9.542  10.031   7.381 -1.3930 -0.4974  0.5392
  818MOL0     H10384   9.447  10.224   7.611  1.3798  5.1760  0.1042
  818MOL0     H10385   9.463  10.262   7.445  3.8358 -0.3858  1.1217
  818MOL0     H10386   9.286  10.047   7.575  2.3852  1.0036  2.2842
  818MOL0     H10387   9.273  10.073   7.397 -0.1033 -1.9687  0.4645
  818MOL0     H10388   9.206  10.282   7.596 -2.9351  2.6297  0.2203
  818MOL0     H10389   9.096  10.175   7.517 -0.6419  1.9829 -0.8377
  818MOL0     H10390   8.994  10.371   7.585 -0.2788  3.6466  3.4935
  818MOL0     H10391   8.845  10.545   7.588 -2.9399  0.8791 -2.0675
  818MOL0     H10392   8.449  10.753   7.566 -0.7650  0.2500 -1.3624
  818MOL0     H10393   8.310  10.965   7.592 -0.6622 -1.0899 -3.1183
  818MOL0     H10394   8.203  11.175   7.490  4.1119 -4.8198 -0.7306
  818MOL0     H10395   8.224  11.164   7.665  1.8391  0.2177  1.0723
  818MOL0     H10396   8.203  11.405   7.684 -3.9620  0.9430 -0.4912
  818MOL0     H10397   8.261  11.441   7.528 -1.0955  1.8650  0.5973
  818MOL0     H10398   8.016  11.263   7.523  1.8174 -0.9896  0.1785
  818MOL0     H10399   7.989  11.417   7.611 -2.3251  0.3429 -1.3986
  818MOL0     H10400   8.115  11.388   7.331  0.5548 -1.6728  1.0897
  818MOL0     H10401   8.084  11.541   7.409  0.3903 -1.1745  1.6034
  818MOL0     H10402   7.842  11.494   7.411  0.2002 -0.4961  2.3265
  818MOL0     H10403   7.871  11.333   7.345 -0.4681  0.7340  2.9782
  818MOL0     H10404   7.916  11.604   7.198 -0.0482  0.7110 -3.2972
  818MOL0     H10405   7.982  11.457   7.138  0.6021  0.9567 -1.6140
  818MOL0     H10406   7.682  11.519   7.171 -0.3314  2.7234 -4.3743
  818MOL0     H10407   7.739  11.362   7.143  0.5199 -0.4927  0.7103
  818MOL0     H10408   7.674  11.504   6.944  0.3993  0.5127 -2.6456
  818MOL0     H10409   7.826  11.596   6.960  0.3001 -0.6687 -2.3008
  818MOL0     H10410   8.661  11.206   7.570  2.7977 -0.8745  0.0540
  818MOL0     H10411   8.792  11.009   7.575  0.3644  0.6281 -0.6609
  818MOL0     H10412   9.048  10.752   7.270  1.3822  0.3037 -1.4802
  818MOL0     H10413   9.201  10.534   7.262  2.8995  0.5755  3.8375
  818MOL0     H10414   8.527  10.190   7.950  0.7808  1.3135  1.4683
  818MOL0     H10415   8.315  10.303   7.962  2.2804 -1.1650  1.6135
  818MOL0     H10416   8.037  10.714   7.607 -0.9404  1.1515  0.0814
  818MOL0     H10417   7.802  10.780   7.630 -1.3582  1.4445  1.0611
  818MOL0     H10418   7.522  10.661   7.965  0.1753 -1.0237 -0.0599
  818MOL0     H10419   7.534  10.503   7.882 -3.0928 -0.9518 -5.1653
  818MOL0     H10420   7.385  10.716   7.762  1.1118 -0.3483 -0.3808
  818MOL0     H10421   7.314  10.604   7.873  0.9962  3.3308  0.9842
  818MOL0     H10422   7.419  10.415   7.735  4.0918 -0.9186 -3.1731
  818MOL0     H10423   7.485  10.536   7.624  3.4718  0.9406  4.1915
  818MOL0     H10424   7.188  10.557   7.672  0.2669 -0.6597  1.2156
  818MOL0     H10425   7.300  10.603   7.542 -0.3575 -1.2013 -1.1214
  818MOL0     H10426   7.232  10.203   7.456 -0.2208 -1.1468  2.3739
  818MOL0     H10427   7.752  10.496   7.952  2.6577 -2.5634  1.7971
  818MOL0     H10428   8.091  10.448   8.026  0.4977 -2.3950  1.2821
  818MOL0     H10429   7.929  10.430   8.076  0.7511  1.8566  0.7103
  818MOL0     H10430   7.983  10.325   7.948  3.2306 -1.0922  1.5737
  819MOL0     O10431   2.690   2.556   2.988  0.0535  0.2686  0.5142
  819MOL0     C10432   2.752   2.624   3.067  0.8448 -0.2802  0.5795
  819MOL0     O10433   2.826   2.731   3.025 -0.3445  0.2676  0.0836
  819MOL0     C10434   2.803   2.788   2.904  0.2789  0.5249 -0.5883
  819MOL0     C10435   2.695   2.879   2.866 -0.2399 -0.6558 -0.7570
  819MOL0     C10436   2.681   2.927   2.739 -0.1814 -0.2792  0.7605
  819MOL0     C10437   2.767   2.882   2.642 -0.1255 -0.1228  0.1826
  819MOL0     O10438   2.732   2.905   2.511  0.4238  0.5845  0.7270
  819MOL0     C10439   2.815   2.860   2.403 -0.4891  0.2721  0.4804
  819MOL0     C10440   2.757   2.890   2.274  0.7061  0.3324  0.4003
  819MOL0     C10441   2.841   2.820   2.166  0.7424 -0.7017  0.4090
  819MOL0     C10442   2.809   2.866   2.018  0.7673  0.2163  0.4443
  819MOL0     C10443   2.680   2.808   1.947 -0.9535  0.3620 -0.0786
  819MOL0     C10444   2.713   2.746   1.803 -0.3500 -0.5483  0.0136
  819MOL0     C10445   2.582   2.674   1.773 -0.1574 -0.0978  0.5988
  819MOL0     C10446   2.559   2.551   1.864  0.2410 -0.2219  0.9815
  819MOL0     N10447   2.472   2.445   1.807 -0.1259 -0.0854 -0.4243
  819MOL0     C10448   2.507   2.312   1.786 -0.4614 -0.0451 -0.0001
  819MOL0     C10449   2.408   2.254   1.720  0.3703 -1.0609 -0.5669
  819MOL0     C10450   2.409   2.116   1.666 -0.5222 -0.0196 -0.4728
  819MOL0     C10451   2.273   2.057   1.696 -0.2508  0.3091 -1.2652
  819MOL0     C10452   2.253   1.920   1.639 -0.5011  0.0341  0.7695
  819MOL0     C10453   2.132   1.840   1.700 -0.3555 -0.0913  0.2003
  819MOL0     O10454   2.012   1.922   1.694 -0.0941  0.4847  0.5366
  819MOL0     C10455   1.889   1.855   1.725  0.2766 -0.1393 -1.3163
  819MOL0     C10456   1.775   1.887   1.662  0.4491  0.0074 -0.2882
  819MOL0     C10457   1.657   1.831   1.701  0.2415  0.3380 -0.0013
  819MOL0     C10458   1.649   1.736   1.804  0.0447  0.5693  0.3294
  819MOL0     C10459   1.533   1.660   1.829  0.5572 -0.4864 -0.0466
  819MOL0     O10460   1.411   1.722   1.822 -0.0847  0.0003 -0.0122
  819MOL0     C10461   1.303   1.643   1.855 -0.7434 -0.3736 -0.3978
  819MOL0     C10462   1.195   1.653   1.761  0.4437  0.1735 -1.3157
  819MOL0     C10463   1.065   1.597   1.798 -0.6711 -0.1300  0.9286
  819MOL0     C10464   1.055   1.522   1.916  0.2726  0.0592  0.2714
  819MOL0     O10465   0.935   1.454   1.960 -1.0211 -0.0575 -0.0774
  819MOL0     C10466   0.840   1.410   1.868 -0.4836  0.4983  0.7964
  819MOL0     C10467   0.851   1.258   1.851 -0.3772  1.2817 -1.4095
  819MOL0     C10468   0.725   1.183   1.792  0.3579 -0.8250 -0.8170
  819MOL0     C10469   0.745   1.036   1.803  0.1067  0.4438  1.1288
  819MOL0     C10470   0.758   0.983   1.945  0.6558 -0.0523  0.0086
  819MOL0     C10471   0.739   0.827   1.961  0.0834  0.7495  0.0638
  819MOL0     C10472   0.712   0.772   2.100  0.4021 -1.1138 -1.1600
  819MOL0     C10473   0.660   0.637   2.109 -0.2280  0.8257  0.4485
  819MOL0    Cl10474   0.509   0.590   2.030  0.5014  0.3818  0.3620
  819MOL0     C10475   1.169   1.515   2.004  0.3766 -0.3037 -0.7021
  819MOL0     C10476   1.289   1.577   1.974 -1.2193 -0.2850  0.2442
  819MOL0     O10477   1.543   1.539   1.851 -0.1996 -0.4000  1.0903
  819MOL0     C10478   1.777   1.699   1.865  0.5789 -0.9545  0.1500
  819MOL0     C10479   1.890   1.755   1.825 -0.5256  0.3013 -1.5289
  819MOL0     N10480   2.312   2.354   1.693  0.0196 -0.4396 -0.3690
  819MOL0     N10481   2.347   2.466   1.744  0.1605 -0.3970  0.5284
  819MOL0     C10482   2.875   2.797   2.680 -0.1900 -0.3932  0.4621
  819MOL0     C10483   2.885   2.751   2.808 -0.1697 -0.0127  1.2460
  819MOL0     C10484   2.762   2.576   3.211 -0.4371 -1.2261 -0.7180
  819MOL0     C10485   2.814   2.666   3.313 -0.1076 -0.3278  0.1994
  819MOL0     C10486   2.822   2.634   3.450  0.0880  0.1897  0.4922
  819MOL0     C10487   2.790   2.507   3.489 -0.9076 -0.1420  0.0893
  819MOL0     O10488   2.806   2.482   3.620  0.3638  0.3364  0.7560
  819MOL0     C10489   2.798   2.344   3.673 -0.6675 -1.0368 -0.2949
  819MOL0     C10490   2.807   2.357   3.827 -0.2885  0.1756  0.3665
  819MOL0     C10491   2.661   2.342   3.894 -0.3630  0.4830  0.9384
  819MOL0     C10492   2.661   2.364   4.047  0.8953 -0.0728  0.2215
  819MOL0     C10493   2.537   2.310   4.107  0.3274 -0.5124  0.4775
  819MOL0     C10494   2.434   2.254   4.145  0.0737  0.6402  0.2657
  819MOL0     C10495   2.752   2.419   3.395 -0.1757  0.7614 -1.0422
  819MOL0     C10496   2.731   2.451   3.254 -0.2157  0.4074 -0.5509
  819MOL0     C10497   2.635   2.361   3.188  0.1344  0.3336 -0.6263
  819MOL0     H10498   2.615   2.907   2.934  1.6803  0.9979  0.9649
  819MOL0     H10499   2.595   2.991   2.719 -0.2594 -0.8794 -1.0355
  819MOL0     H10500   2.910   2.914   2.407  1.1781 -2.4639  0.0933
  819MOL0     H10501   2.823   2.751   2.405 -0.0735  0.0384 -3.8721
  819MOL0     H10502   2.757   2.999   2.272  0.1601  0.3963  2.2369
  819MOL0     H10503   2.651   2.863   2.273  0.0369  2.6580 -2.3384
  819MOL0     H10504   2.849   2.712   2.177  1.5864 -0.7040 -0.1369
  819MOL0     H10505   2.945   2.849   2.182  1.2442 -1.0091 -1.8997
  819MOL0     H10506   2.792   2.974   2.020  1.7066  0.3745  0.5060
  819MOL0     H10507   2.901   2.841   1.963  1.7728  3.8346  0.2524
  819MOL0     H10508   2.646   2.736   2.021 -1.8027  2.7402  1.9555
  819MOL0     H10509   2.597   2.879   1.942 -1.3301 -0.1367 -2.2340
  819MOL0     H10510   2.724   2.820   1.723 -3.5135  0.1888  0.1454
  819MOL0     H10511   2.784   2.663   1.804 -1.2822 -1.3612  0.3736
  819MOL0     H10512   2.592   2.643   1.668 -0.8353 -1.0077  0.7978
  819MOL0     H10513   2.508   2.754   1.777  2.1493  2.1310  1.8385
  819MOL0     H10514   2.653   2.498   1.881  0.1402 -0.2641  1.4244
  819MOL0     H10515   2.525   2.584   1.963  0.9135 -2.5158  2.0512
  819MOL0     H10516   2.611   2.281   1.796 -0.9305 -2.9554 -2.6995
  819MOL0     H10517   2.434   2.124   1.560  3.0610  3.4843  0.3979
  819MOL0     H10518   2.490   2.073   1.725  2.3874 -0.6762 -4.5285
  819MOL0     H10519   2.260   2.051   1.804 -1.5701 -0.6758 -1.4491
  819MOL0     H10520   2.205   2.133   1.656 -1.4825  2.0081  3.4719
  819MOL0     H10521   2.342   1.859   1.660 -1.1189 -0.4200  2.2017
  819MOL0     H10522   2.246   1.927   1.530  0.7347 -0.1468  0.6637
  819MOL0     H10523   2.154   1.829   1.807 -2.9232 -2.0853  0.6140
  819MOL0     H10524   2.112   1.745   1.649 -2.0294  0.8464 -0.9572
  819MOL0     H10525   1.772   1.976   1.599 -0.8973  0.0504 -0.1883
  819MOL0     H10526   1.563   1.866   1.659 -0.8151 -0.1646  1.8410
  819MOL0     H10527   1.222   1.719   1.680  0.2072  0.8727 -0.8348
  819MOL0     H10528   0.985   1.620   1.728  1.7824 -0.8313 -2.3821
  819MOL0     H10529   0.737   1.429   1.901 -1.8217 -2.1820 -1.3435
  819MOL0     H10530   0.852   1.452   1.768  0.9136 -0.3831  0.5604
  819MOL0     H10531   0.943   1.233   1.798  1.3860  0.8937  1.5995
  819MOL0     H10532   0.879   1.220   1.949  0.0350 -1.8032 -2.6154
  819MOL0     H10533   0.645   1.212   1.860  1.2494  3.0476 -1.1627
  819MOL0     H10534   0.700   1.227   1.695 -1.4568  2.1919  0.8615
  819MOL0     H10535   0.826   1.009   1.733  0.6239  1.1584  1.4479
  819MOL0     H10536   0.646   1.004   1.769  0.1489  2.2749 -0.9113
  819MOL0     H10537   0.680   1.036   2.000  1.4367  2.6440 -1.3582
  819MOL0     H10538   0.855   1.011   1.988 -1.2540  1.1549  4.0289
  819MOL0     H10539   0.653   0.806   1.897 -1.2331  2.4643  1.1641
  819MOL0     H10540   0.830   0.788   1.917  0.4848  1.1524  0.5227
  819MOL0     H10541   0.634   0.829   2.151 -0.6410 -1.8903 -1.8168
  819MOL0     H10542   0.809   0.777   2.149  1.9381 -1.1725 -3.9739
  819MOL0     H10543   0.735   0.570   2.067 -1.1044  0.2476 -0.2254
  819MOL0     H10544   0.654   0.612   2.216  2.4428 -2.0394  0.0569
  819MOL0     H10545   1.158   1.445   2.086  0.8353 -2.5043 -2.4117
  819MOL0     H10546   1.375   1.563   2.040  0.3084  1.5980 -1.2244
  819MOL0     H10547   1.774   1.632   1.950 -1.3003 -0.7591  0.2707
  819MOL0     H10548   1.981   1.736   1.882 -1.3036  1.1318  0.0487
  819MOL0     H10549   2.935   2.750   2.603 -0.1282  1.0747 -0.4307
  819MOL0     H10550   2.975   2.702   2.843  0.8828  1.0521  0.1023
  819MOL0     H10551   2.856   2.762   3.287 -1.3614 -0.2344 -1.6522
  819MOL0     H10552   2.850   2.707   3.525 -1.3055  0.6233  0.6267
  819MOL0     H10553   2.879   2.285   3.629  2.1513  1.2131  1.5403
  819MOL0     H10554   2.702   2.298   3.649 -0.0800 -0.9200 -3.1871
  819MOL0     H10555   2.835   2.459   3.858  1.3587 -0.1689  0.1085
  819MOL0     H10556   2.873   2.278   3.864  2.2158  2.7446  1.8632
  819MOL0     H10557   2.624   2.241   3.873 -0.4074  1.2881 -4.1428
  819MOL0     H10558   2.597   2.421   3.852 -0.9225 -0.2956  0.2949
  819MOL0     H10559   2.751   2.320   4.090  2.7340  1.5752 -1.7401
  819MOL0     H10560   2.667   2.473   4.060 -1.4467  0.1902 -0.3297
  819MOL0     H10561   2.341   2.211   4.176  0.6946 -0.5282  0.5871
  819MOL0     H10562   2.729   2.319   3.430 -1.0807  1.7938  1.5382
  819MOL0     H10563   2.539   2.414   3.186 -0.0895 -0.0849 -0.9952
  819MOL0     H10564   2.663   2.339   3.084 -1.2581  3.8136 -1.8887
  819MOL0     H10565   2.613   2.271   3.246  0.0494  1.5882  1.3881
  820MOL0     O10566   7.117   0.072   7.941  0.0464 -0.0836 -0.0497
  820MOL0     C10567   7.117   0.064   8.061 -1.7108 -0.4469 -0.2070
  820MOL0     O10568   7.217   0.001   8.135 -0.5561  0.1724 -0.8355
  820MOL0     C10569   7.350  -0.022   8.083  0.3333 -0.4024  0.6378
  820MOL0     C10570   7.442  -0.063   8.177  0.2553  1.0673 -0.2806
  820MOL0     C10571   7.573  -0.084   8.130  0.7301 -0.6497  0.7494
  820MOL0     C10572   7.616  -0.055   8.003  0.3215  0.0848  0.7012
  820MOL0     O10573   7.737  -0.081   7.953 -0.8106  0.3718 -0.3020
  820MOL0     C10574   7.836  -0.149   8.028 -0.6234  0.3110  0.0499
  820MOL0     C10575   7.971  -0.168   7.952  1.1402  0.5719 -0.0411
  820MOL0     C10576   8.067  -0.274   7.999 -0.8916 -0.5625 -0.9520
  820MOL0     C10577   8.008  -0.418   7.977  0.5643  0.5744 -0.1156
  820MOL0     C10578   8.130  -0.512   7.979  0.7679 -0.0579  0.5661
  820MOL0     C10579   8.104  -0.657   7.957 -0.6463 -0.1318 -0.0456
  820MOL0     C10580   8.044  -0.727   8.085 -0.6041 -0.3387 -1.0927
  820MOL0     C10581   7.894  -0.721   8.096 -0.3868 -0.2759 -0.3970
  820MOL0     N10582   7.839  -0.819   8.194 -0.4333 -0.1750 -0.2364
  820MOL0     C10583   7.889  -0.838   8.325 -0.2092 -0.2059  0.6744
  820MOL0     C10584   7.789  -0.905   8.383 -0.6315 -0.4894  0.7859
  820MOL0     C10585   7.774  -0.961   8.512 -0.6069 -0.5216 -0.0602
  820MOL0     C10586   7.645  -0.911   8.589 -0.2139 -0.2796 -0.0863
  820MOL0     C10587   7.642  -0.925   8.747  0.5034  1.0014  0.0204
  820MOL0     C10588   7.691  -1.068   8.793  0.0532  0.5833  0.4827
  820MOL0     O10589   7.834  -1.066   8.791  0.2576  1.0863 -0.4018
  820MOL0     C10590   7.890  -1.180   8.761  0.5478 -0.0757 -0.2877
  820MOL0     C10591   7.833  -1.307   8.785 -0.5932  0.3225 -1.0963
  820MOL0     C10592   7.904  -1.425   8.763  0.1632  0.7700  0.5466
  820MOL0     C10593   8.032  -1.424   8.718  0.5230  0.1193  0.8221
  820MOL0     C10594   8.116  -1.557   8.693 -0.4341  0.1421 -0.6541
  820MOL0     O10595   8.040  -1.670   8.688  0.5604 -0.6051 -0.1032
  820MOL0     C10596   8.090  -1.780   8.632  0.0996 -0.2404 -0.6142
  820MOL0     C10597   8.181  -1.854   8.699  0.2297 -0.2197 -0.9251
  820MOL0     C10598   8.229  -1.974   8.655  0.2595 -0.1826 -0.0843
  820MOL0     C10599   8.196  -2.010   8.517 -0.4320  0.0906 -0.1961
  820MOL0     O10600   8.231  -2.131   8.462  1.1591 -0.5403 -0.4654
  820MOL0     C10601   8.225  -2.244   8.538  0.4556 -0.9484 -0.4586
  820MOL0     C10602   8.364  -2.289   8.573  0.2077  0.3534  0.1517
  820MOL0     C10603   8.382  -2.400   8.683  0.2447 -0.8411 -0.4106
  820MOL0     C10604   8.508  -2.382   8.765  0.2966  0.4764  0.4061
  820MOL0     C10605   8.492  -2.270   8.873  0.0172  0.1957 -0.4721
  820MOL0     C10606   8.599  -2.270   8.993  0.8365  0.3679  0.2020
  820MOL0     C10607   8.582  -2.146   9.081 -0.8260  0.3519 -0.5118
  820MOL0     C10608   8.631  -2.155   9.233  0.7643 -0.0074  0.7222
  820MOL0    Cl10609   8.701  -1.993   9.292  0.8321  0.3493  0.3413
  820MOL0     C10610   8.124  -1.919   8.443  0.5702 -0.3678  0.8049
  820MOL0     C10611   8.051  -1.813   8.504 -0.3655 -0.5959 -0.3666
  820MOL0     O10612   8.238  -1.550   8.681  0.0880  0.6519  0.7506
  820MOL0     C10613   8.090  -1.296   8.693 -0.8320  0.6072  0.5206
  820MOL0     C10614   8.028  -1.177   8.715 -0.0656 -0.0934  0.7481
  820MOL0     N10615   7.683  -0.932   8.294 -0.2567  0.1320  0.8813
  820MOL0     N10616   7.714  -0.872   8.187  1.4974 -0.1294  0.0167
  820MOL0     C10617   7.528  -0.005   7.917 -0.1249 -0.3354  0.2498
  820MOL0     C10618   7.395   0.013   7.955 -0.0075 -0.1289  0.2934
  820MOL0     C10619   6.997   0.099   8.136  0.8401 -0.9790  0.6217
  820MOL0     C10620   6.993   0.100   8.274 -1.2237 -0.0203 -0.2942
  820MOL0     C10621   6.886   0.145   8.353  0.3427  0.5084  1.1003
  820MOL0     C10622   6.773   0.193   8.287 -0.1753  0.4314  0.0407
  820MOL0     O10623   6.656   0.231   8.354 -0.1590 -0.2314 -0.6944
  820MOL0     C10624   6.640   0.242   8.501  0.2179  1.2354  0.3860
  820MOL0     C10625   6.559   0.376   8.516  0.0840  0.7457  0.8975
  820MOL0     C10626   6.510   0.394   8.666  0.0650  0.9217 -0.8504
  820MOL0     C10627   6.441   0.255   8.726 -0.0804 -0.0467 -0.2511
  820MOL0     C10628   6.386   0.262   8.868 -0.5886 -0.2860 -0.0296
  820MOL0     C10629   6.334   0.265   8.976  0.9899 -0.0106 -0.0720
  820MOL0     C10630   6.772   0.197   8.153 -0.7302 -0.7442 -0.0138
  820MOL0     C10631   6.877   0.142   8.075  0.3136 -0.7445 -0.8309
  820MOL0     C10632   6.853   0.144   7.922  0.6501 -0.4928 -0.9566
  820MOL0     H10633   7.411  -0.077   8.280  2.5131  1.7278  0.5708
  820MOL0     H10634   7.627  -0.142   8.204  2.6280  0.1584  0.0490
  820MOL0     H10635   7.846  -0.092   8.121 -0.6382 -0.5714  0.6051
  820MOL0     H10636   7.792  -0.242   8.066 -1.0776  0.7170  0.5426
  820MOL0     H10637   8.018  -0.071   7.935  3.1114 -0.6380 -1.9857
  820MOL0     H10638   7.944  -0.205   7.852  0.2279 -1.5733  0.9183
  820MOL0     H10639   8.102  -0.248   8.099 -1.0580 -2.8208 -0.2559
  820MOL0     H10640   8.155  -0.264   7.934  2.3298 -2.2541  2.7496
  820MOL0     H10641   7.930  -0.423   8.054 -0.2063 -0.3170 -0.9226
  820MOL0     H10642   7.960  -0.433   7.880 -0.4947  1.5960  0.2308
  820MOL0     H10643   8.201  -0.488   7.900 -1.9171  1.7654 -1.4673
  820MOL0     H10644   8.184  -0.494   8.073 -1.5693 -0.1714  2.0278
  820MOL0     H10645   8.044  -0.671   7.867 -0.3775 -3.8055  0.1860
  820MOL0     H10646   8.207  -0.688   7.937  0.3989  2.9683  0.0599
  820MOL0     H10647   8.087  -0.694   8.180 -1.8156  2.0476 -1.2750
  820MOL0     H10648   8.068  -0.831   8.065  1.6879 -0.1194  0.2635
  820MOL0     H10649   7.858  -0.622   8.127 -0.1319 -0.9037  2.1018
  820MOL0     H10650   7.845  -0.738   7.999 -0.5489 -0.2226 -0.3250
  820MOL0     H10651   7.990  -0.827   8.364 -0.0531  0.2366  0.1627
  820MOL0     H10652   7.772  -1.069   8.494 -0.5664 -0.6287  0.5616
  820MOL0     H10653   7.863  -0.947   8.575 -0.5261 -1.1649 -0.0221
  820MOL0     H10654   7.632  -0.804   8.573 -2.2324 -0.4768 -0.0063
  820MOL0     H10655   7.559  -0.968   8.553 -1.4566  1.2044  0.4636
  820MOL0     H10656   7.539  -0.935   8.783  0.5125 -0.0172 -0.2149
  820MOL0     H10657   7.692  -0.838   8.791  3.4171 -0.9489  0.8383
  820MOL0     H10658   7.648  -1.155   8.742 -0.2984  1.4248 -0.7009
  820MOL0     H10659   7.680  -1.067   8.902  1.1879  3.2526  0.6584
  820MOL0     H10660   7.740  -1.325   8.838 -2.3209  0.4240 -3.9273
  820MOL0     H10661   7.857  -1.523   8.766  2.2037 -0.5374 -3.2514
  820MOL0     H10662   8.219  -1.810   8.790 -0.3002 -2.4169  0.4373
  820MOL0     H10663   8.304  -2.033   8.706  1.6668  0.0483 -1.7725
  820MOL0     H10664   8.181  -2.242   8.638  1.5658  1.0852  0.0379
  820MOL0     H10665   8.180  -2.317   8.469  0.9520 -0.3925 -1.4025
  820MOL0     H10666   8.423  -2.311   8.484  3.0528 -1.6933  2.3280
  820MOL0     H10667   8.427  -2.205   8.605 -0.3545  1.0311 -0.5007
  820MOL0     H10668   8.296  -2.390   8.749  0.7148  2.1747 -0.0805
  820MOL0     H10669   8.376  -2.498   8.635 -2.9748 -1.0619  0.2325
  820MOL0     H10670   8.587  -2.357   8.693  0.4191  0.9113  0.6870
  820MOL0     H10671   8.522  -2.481   8.809  1.5777  0.2544 -0.4587
  820MOL0     H10672   8.395  -2.287   8.919 -0.7245 -1.3563 -2.4829
  820MOL0     H10673   8.481  -2.171   8.827 -3.6225  0.8359  1.4213
  820MOL0     H10674   8.596  -2.366   9.045 -1.2882  0.3788  0.1878
  820MOL0     H10675   8.695  -2.266   8.943  0.7834 -1.5113 -0.1122
  820MOL0     H10676   8.479  -2.111   9.081 -0.1712  2.5011 -0.9555
  820MOL0     H10677   8.640  -2.061   9.041  0.7790  0.7650  2.3862
  820MOL0     H10678   8.553  -2.171   9.307 -0.3946  0.9138 -0.2611
  820MOL0     H10679   8.708  -2.232   9.238  1.5236  0.5698 -1.1039
  820MOL0     H10680   8.093  -1.952   8.344  1.9705 -0.4423  0.3723
  820MOL0     H10681   7.975  -1.746   8.467  0.0442  1.0205  1.5563
  820MOL0     H10682   8.194  -1.291   8.660 -0.9624  1.6244  0.2161
  820MOL0     H10683   8.077  -1.082   8.698  0.4144 -0.2609  1.1846
  820MOL0     H10684   7.554   0.013   7.813  0.2638 -4.3683 -0.5025
  820MOL0     H10685   7.332   0.049   7.874  2.6607  1.3063 -1.2977
  820MOL0     H10686   7.084   0.066   8.324 -0.3625  2.7400  0.2168
  820MOL0     H10687   6.888   0.127   8.460 -2.6038  1.8558  1.4679
  820MOL0     H10688   6.735   0.253   8.554 -0.1801 -0.2587  1.4840
  820MOL0     H10689   6.591   0.153   8.541  3.6698  0.2950  3.0138
  820MOL0     H10690   6.477   0.372   8.444  2.7264 -0.2615 -2.2868
  820MOL0     H10691   6.633   0.451   8.487  4.8685 -3.6535  0.2771
  820MOL0     H10692   6.444   0.481   8.665 -0.7078  0.3503 -0.4571
  820MOL0     H10693   6.591   0.413   8.737 -0.5838  0.9475 -0.1027
  820MOL0     H10694   6.368   0.226   8.649  2.2794  0.7282 -2.9582
  820MOL0     H10695   6.506   0.171   8.749  1.5655  1.1575 -0.3608
  820MOL0     H10696   6.295   0.264   9.076  0.7650  0.8429 -0.1400
  820MOL0     H10697   6.678   0.229   8.109 -1.3970 -0.1058  1.7850
  820MOL0     H10698   6.859   0.040   7.889  2.0911 -1.7845  2.8255
  820MOL0     H10699   6.754   0.180   7.894  0.5211  1.1554  1.4025
  820MOL0     H10700   6.924   0.200   7.860  2.4499 -0.3372  1.1055
  821MOL0     O10701   4.975   9.980   8.372  0.3232  0.9657  0.7304
  821MOL0     C10702   5.072   9.908   8.405 -0.2317 -0.9523  0.9469
  821MOL0     O10703   5.087   9.778   8.403 -0.4073 -0.7784  0.0964
  821MOL0     C10704   4.997   9.682   8.366  0.1944  0.3675 -0.4534
  821MOL0     C10705   4.884   9.710   8.285  0.2535 -0.6416  0.4613
  821MOL0     C10706   4.803   9.604   8.242 -0.3345 -0.5141 -0.4701
  821MOL0     C10707   4.828   9.480   8.290 -0.2112  0.4223 -0.9955
  821MOL0     O10708   4.733   9.389   8.272  0.5287  0.1468  1.0829
  821MOL0     C10709   4.735   9.262   8.340 -0.0736 -1.0863  1.0827
  821MOL0     C10710   4.609   9.191   8.321 -0.3867 -0.5486 -0.2581
  821MOL0     C10711   4.591   9.150   8.174 -0.1436 -0.6251  0.6868
  821MOL0     C10712   4.452   9.088   8.142  0.1407 -0.2565  0.2298
  821MOL0     C10713   4.417   8.949   8.205 -0.4839  0.5462  0.8450
  821MOL0     C10714   4.503   8.843   8.146 -0.4143  0.0992 -0.7881
  821MOL0     C10715   4.474   8.807   7.997  0.5677 -0.0726 -0.3305
  821MOL0     C10716   4.598   8.744   7.933 -0.9186  0.3784 -0.8981
  821MOL0     N10717   4.578   8.737   7.786 -0.0283 -0.2466  0.1493
  821MOL0     C10718   4.585   8.848   7.700  0.5900 -0.5320  0.2265
  821MOL0     C10719   4.568   8.796   7.575  0.0866 -0.0824 -1.1720
  821MOL0     C10720   4.574   8.870   7.448  0.8822  0.4589  0.1114
  821MOL0     C10721   4.677   8.798   7.356 -0.0838 -0.3137 -0.2106
  821MOL0     C10722   4.829   8.818   7.399 -0.3329 -0.0024 -0.0403
  821MOL0     C10723   4.890   8.957   7.399 -0.2870 -0.4421  0.4107
  821MOL0     O10724   4.859   9.032   7.281 -0.2351 -0.3558 -0.1642
  821MOL0     C10725   4.934   9.026   7.170  0.5403 -1.1141 -0.0316
  821MOL0     C10726   5.069   9.045   7.182 -0.7894 -0.0253  0.4589
  821MOL0     C10727   5.154   9.038   7.074 -0.4664  0.5493  0.1008
  821MOL0     C10728   5.102   8.993   6.951  0.1200 -0.1043 -0.3535
  821MOL0     C10729   5.197   8.974   6.837  0.1134 -0.4090  0.1066
  821MOL0     O10730   5.150   8.919   6.718  0.3396  0.1551  0.3892
  821MOL0     C10731   5.227   8.912   6.603  0.1840 -0.3031  0.7640
  821MOL0     C10732   5.172   8.949   6.477 -0.3902 -0.4330 -0.7064
  821MOL0     C10733   5.257   8.946   6.371  0.1122 -0.4618 -0.1826
  821MOL0     C10734   5.385   8.897   6.374 -0.2053  0.4205 -0.2966
  821MOL0     O10735   5.459   8.880   6.262 -0.6750 -0.5405 -0.8477
  821MOL0     C10736   5.401   8.884   6.132 -0.4959 -0.2560 -0.1414
  821MOL0     C10737   5.505   8.844   6.017  0.1657  0.2631 -0.4576
  821MOL0     C10738   5.516   8.701   5.975 -0.7322  0.4041 -0.4657
  821MOL0     C10739   5.664   8.668   5.947  0.8155  0.4182  0.6985
  821MOL0     C10740   5.673   8.583   5.822  0.6062  0.3398  0.3417
  821MOL0     C10741   5.805   8.504   5.813 -0.4666  0.3655  0.4489
  821MOL0     C10742   5.801   8.381   5.709 -0.9438  0.3009  0.8714
  821MOL0     C10743   5.899   8.406   5.593  1.0966  0.2613 -0.4938
  821MOL0    Cl10744   6.078   8.384   5.640 -0.3039 -0.2091 -0.1526
  821MOL0     C10745   5.436   8.844   6.495  0.9427  0.1240  0.2214
  821MOL0     C10746   5.355   8.851   6.611 -0.7651 -0.6881  0.6108
  821MOL0     O10747   5.312   9.015   6.862  0.0885  0.7086 -0.4715
  821MOL0     C10748   4.964   8.961   6.941 -0.4073  0.8479  0.5059
  821MOL0     C10749   4.887   8.983   7.056  1.1144  0.6075  0.6550
  821MOL0     N10750   4.557   8.665   7.588  0.4927  0.2004 -0.1938
  821MOL0     N10751   4.557   8.629   7.711  0.0656 -0.5200 -1.4780
  821MOL0     C10752   4.945   9.445   8.375 -0.0046 -0.8594  0.3752
  821MOL0     C10753   5.028   9.553   8.411  0.3041  0.8558  0.0392
  821MOL0     C10754   5.197   9.984   8.435 -0.6070 -0.2397  0.2836
  821MOL0     C10755   5.280   9.923   8.537  0.3121 -0.0221  0.0750
  821MOL0     C10756   5.403   9.973   8.579 -0.5972 -0.1113  0.4492
  821MOL0     C10757   5.446  10.089   8.521 -0.8383 -0.4609  0.2519
  821MOL0     O10758   5.561  10.163   8.557 -0.1195  0.4416 -0.5567
  821MOL0     C10759   5.664  10.099   8.631 -0.6073  0.3689 -0.7135
  821MOL0     C10760   5.761  10.013   8.536  0.8918 -0.7231  0.3185
  821MOL0     C10761   5.880   9.934   8.588  0.0040  1.2547 -0.8099
  821MOL0     C10762   5.985  10.023   8.648 -0.0405  0.2961  0.0484
  821MOL0     C10763   6.055  10.077   8.537 -0.9864 -1.0068  0.7104
  821MOL0     C10764   6.106  10.167   8.466  0.2732 -0.8667  0.0893
  821MOL0     C10765   5.368  10.149   8.426  0.3746 -0.3818  0.1679
  821MOL0     C10766   5.245  10.105   8.379  0.1911 -0.2451 -0.7949
  821MOL0     C10767   5.170  10.184   8.280  0.0887  0.0312  0.1024
  821MOL0     H10768   4.854   9.805   8.243  2.9844  1.0003  1.9476
  821MOL0     H10769   4.711   9.621   8.187 -0.6053 -0.4499 -0.0044
  821MOL0     H10770   4.817   9.201   8.300 -1.5868 -1.7450 -1.1664
  821MOL0     H10771   4.733   9.291   8.446 -1.2570  0.2658  0.7207
  821MOL0     H10772   4.522   9.251   8.350 -0.5114 -0.1493 -1.3893
  821MOL0     H10773   4.603   9.112   8.396  0.0368  0.6625  1.0845
  821MOL0     H10774   4.670   9.080   8.143 -0.1470  1.3028 -4.8847
  821MOL0     H10775   4.605   9.230   8.101 -1.4069 -2.4763 -1.7575
  821MOL0     H10776   4.380   9.163   8.175  1.0932  0.0120  1.8112
  821MOL0     H10777   4.440   9.076   8.034  4.2522 -4.1594 -0.1075
  821MOL0     H10778   4.437   8.952   8.313  0.3090 -0.2319  0.7294
  821MOL0     H10779   4.313   8.927   8.179 -0.0346 -0.0530 -0.5374
  821MOL0     H10780   4.604   8.884   8.155 -0.9374  1.1075  0.9398
  821MOL0     H10781   4.505   8.762   8.219 -0.4563  0.6528 -0.1673
  821MOL0     H10782   4.456   8.900   7.942 -2.4476  1.6320  3.0381
  821MOL0     H10783   4.387   8.741   7.987  0.5280  0.3437 -4.2128
  821MOL0     H10784   4.675   8.820   7.946 -0.6179  0.2056 -1.6222
  821MOL0     H10785   4.616   8.649   7.983 -1.9204  0.2070 -0.8394
  821MOL0     H10786   4.601   8.950   7.734 -3.0846 -0.5534  2.6568
  821MOL0     H10787   4.474   8.859   7.406  2.5017 -1.2166 -3.8822
  821MOL0     H10788   4.602   8.975   7.457  1.4642  0.3989 -0.8193
  821MOL0     H10789   4.665   8.690   7.369 -0.9726  0.0618  3.2280
  821MOL0     H10790   4.653   8.837   7.257  0.2860  0.0241 -0.1701
  821MOL0     H10791   4.893   8.743   7.352 -4.5310 -2.7997 -1.8862
  821MOL0     H10792   4.830   8.791   7.505 -1.6992  2.7434  0.7823
  821MOL0     H10793   4.999   8.947   7.410  0.0466  2.7110  0.9620
  821MOL0     H10794   4.850   9.014   7.483  0.3144  1.0467 -0.2629
  821MOL0     H10795   5.111   9.069   7.279  1.0543 -1.4420  0.0941
  821MOL0     H10796   5.260   9.061   7.086  0.5184 -2.9968 -0.5214
  821MOL0     H10797   5.073   8.992   6.467  0.7223  2.6791  0.1990
  821MOL0     H10798   5.214   8.987   6.280  2.2200  3.5495  0.4285
  821MOL0     H10799   5.318   8.813   6.128  0.9769 -2.0348 -0.0839
  821MOL0     H10800   5.371   8.987   6.106  1.1113 -0.4549 -3.2076
  821MOL0     H10801   5.483   8.893   5.921  0.4690  0.3977 -0.4573
  821MOL0     H10802   5.596   8.890   6.055 -0.5630  0.2546  1.3968
  821MOL0     H10803   5.470   8.653   6.061 -0.5552  4.7988  2.4132
  821MOL0     H10804   5.447   8.684   5.892  1.3712  1.5077 -2.5517
  821MOL0     H10805   5.691   8.614   6.039 -0.2872 -2.0634 -0.3481
  821MOL0     H10806   5.718   8.761   5.928 -1.4111  1.7339  0.5102
  821MOL0     H10807   5.661   8.646   5.733 -6.4080 -1.3334 -0.4964
  821MOL0     H10808   5.589   8.513   5.815  1.3828 -0.6508  0.7396
  821MOL0     H10809   5.884   8.571   5.777 -1.8119  2.1687  0.7107
  821MOL0     H10810   5.833   8.457   5.908  2.8424 -0.8319 -0.9522
  821MOL0     H10811   5.707   8.354   5.661 -1.3253 -4.5656  3.6845
  821MOL0     H10812   5.838   8.289   5.756  0.2196 -0.4163 -1.3146
  821MOL0     H10813   5.875   8.330   5.518 -1.2437  0.5620 -0.1500
  821MOL0     H10814   5.882   8.499   5.537  2.8289  0.1889 -1.1883
  821MOL0     H10815   5.535   8.799   6.490 -0.5023 -3.5360  1.2506
  821MOL0     H10816   5.407   8.805   6.695  1.9539  3.4495  1.5000
  821MOL0     H10817   4.916   8.926   6.850  0.5984 -0.4516  0.4453
  821MOL0     H10818   4.779   8.974   7.065  1.3053 -0.8628  1.8804
  821MOL0     H10819   4.962   9.347   8.419 -0.0142  1.3095  6.0410
  821MOL0     H10820   5.117   9.526   8.467 -0.6838 -2.9896  0.0318
  821MOL0     H10821   5.241   9.829   8.574 -0.2177  1.1322  2.6730
  821MOL0     H10822   5.466   9.920   8.650  1.4947  0.7516 -0.6972
  821MOL0     H10823   5.625  10.034   8.710 -0.0383  0.6536 -0.1905
  821MOL0     H10824   5.719  10.187   8.664 -1.9098  1.1104 -0.4609
  821MOL0     H10825   5.798  10.080   8.458 -0.1307  1.1782  1.4083
  821MOL0     H10826   5.695   9.949   8.476 -2.6840  0.6984  2.4156
  821MOL0     H10827   5.908   9.866   8.507  0.2089 -0.0026  0.3040
  821MOL0     H10828   5.834   9.873   8.665  2.3696  1.0983  0.5554
  821MOL0     H10829   5.941  10.097   8.716 -0.9200 -1.6089  1.6505
  821MOL0     H10830   6.055   9.971   8.714 -1.2176  0.1005  1.1832
  821MOL0     H10831   6.155  10.235   8.400 -2.6659  0.0311 -1.3403
  821MOL0     H10832   5.415  10.231   8.372 -2.9337  0.9857 -0.8718
  821MOL0     H10833   5.116  10.121   8.209 -0.6783 -0.9999  1.5722
  821MOL0     H10834   5.096  10.245   8.333  0.4137  2.3976 -1.9293
  821MOL0     H10835   5.233  10.261   8.234  0.3734  0.9528  1.9407
  822MOL0     O10836   2.691   0.956   5.375  0.3774 -1.1122 -0.3210
  822MOL0     C10837   2.742   1.042   5.453  0.2017  0.0041 -0.3805
  822MOL0     O10838   2.747   1.039   5.589  1.2506  0.0216  0.7394
  822MOL0     C10839   2.716   0.920   5.660 -0.7017  0.5401 -0.0847
  822MOL0     C10840   2.750   0.787   5.624  0.1637  0.2530  0.2529
  822MOL0     C10841   2.719   0.674   5.703 -0.5042  0.7153 -0.1095
  822MOL0     C10842   2.648   0.686   5.822 -0.6236  0.4733  0.5025
  822MOL0     O10843   2.613   0.589   5.904  0.2195  0.6513 -0.0050
  822MOL0     C10844   2.568   0.456   5.845  0.1176 -0.5649 -0.4218
  822MOL0     C10845   2.440   0.458   5.764 -0.2582 -0.9100  0.0268
  822MOL0     C10846   2.321   0.534   5.816  0.2521  0.6068 -0.7160
  822MOL0     C10847   2.185   0.495   5.762 -0.3284  0.1038 -0.3656
  822MOL0     C10848   2.065   0.563   5.830 -0.4571  0.9721  0.7347
  822MOL0     C10849   2.028   0.497   5.964 -0.6834 -0.2136 -0.2932
  822MOL0     C10850   1.918   0.581   6.034  0.8890 -0.0839 -0.5945
  822MOL0     C10851   1.776   0.557   5.974  0.2064 -0.1100 -0.1376
  822MOL0     N10852   1.711   0.431   6.014  0.1989 -0.3354  0.5014
  822MOL0     C10853   1.648   0.413   6.133 -0.3982 -0.2249  0.3280
  822MOL0     C10854   1.596   0.286   6.126 -0.0304 -0.6246 -0.3411
  822MOL0     C10855   1.496   0.230   6.234 -1.3674  0.3131 -0.0684
  822MOL0     C10856   1.553   0.133   6.338  0.9584 -0.0799 -0.1178
  822MOL0     C10857   1.513  -0.011   6.294  0.5808  0.5240 -0.3464
  822MOL0     C10858   1.599  -0.062   6.188 -0.9717  0.1627  0.1648
  822MOL0     O10859   1.585  -0.207   6.166 -0.1647 -0.2628 -0.9929
  822MOL0     C10860   1.639  -0.258   6.055  0.7251  0.7246  0.3634
  822MOL0     C10861   1.586  -0.378   6.006  1.1604 -0.0065 -0.0728
  822MOL0     C10862   1.642  -0.433   5.888 -0.3116  0.1490  0.2473
  822MOL0     C10863   1.733  -0.379   5.805  1.5843  0.1422  0.1334
  822MOL0     C10864   1.784  -0.451   5.684  0.2064 -0.2153 -0.7300
  822MOL0     O10865   1.747  -0.581   5.675  0.1019 -0.0276  0.0772
  822MOL0     C10866   1.808  -0.659   5.577  0.3144 -0.1819 -0.3203
  822MOL0     C10867   1.947  -0.700   5.566  0.4270 -0.1179 -0.2304
  822MOL0     C10868   2.000  -0.758   5.446  0.0749 -0.2340  1.0721
  822MOL0     C10869   1.911  -0.788   5.342 -0.0614  0.5174  1.1064
  822MOL0     O10870   1.946  -0.848   5.229  0.2062 -0.0348  0.1181
  822MOL0     C10871   2.078  -0.817   5.165  0.9698 -0.4467  0.2596
  822MOL0     C10872   2.117  -0.960   5.109  0.3244 -0.0228 -0.7565
  822MOL0     C10873   2.031  -1.009   4.991  0.4416  1.7823 -0.1377
  822MOL0     C10874   2.090  -1.135   4.928  0.4230  0.0397  0.7735
  822MOL0     C10875   2.012  -1.160   4.795 -0.3023 -0.4847 -0.2084
  822MOL0     C10876   2.068  -1.292   4.729  0.1906  0.5315 -0.8457
  822MOL0     C10877   1.968  -1.372   4.649  0.5733  0.4155  0.8771
  822MOL0     C10878   2.020  -1.509   4.593 -0.2338  0.1231  0.7834
  822MOL0    Cl10879   2.150  -1.482   4.475  0.0281  0.9574  0.1619
  822MOL0     C10880   1.766  -0.756   5.362 -0.2538 -0.2898  1.1436
  822MOL0     C10881   1.722  -0.685   5.469 -0.4512 -0.4195  0.4556
  822MOL0     O10882   1.878  -0.397   5.625 -0.3982 -0.2003  0.5463
  822MOL0     C10883   1.800  -0.269   5.858 -0.0483 -0.7424  1.5125
  822MOL0     C10884   1.748  -0.207   5.978 -0.1828  0.7246  0.3617
  822MOL0     N10885   1.621   0.239   5.998 -0.1874  0.5918  0.7028
  822MOL0     N10886   1.702   0.323   5.930  0.1679  0.2728  0.8287
  822MOL0     C10887   2.607   0.818   5.854 -0.4216 -0.1685 -0.4437
  822MOL0     C10888   2.639   0.931   5.772 -0.2840  0.2641 -0.9383
  822MOL0     C10889   2.802   1.164   5.397  0.6442 -0.6713 -0.1204
  822MOL0     C10890   2.879   1.245   5.481 -0.0993  0.0937 -0.1855
  822MOL0     C10891   2.966   1.354   5.433  0.5780 -0.5496 -0.2353
  822MOL0     C10892   2.953   1.391   5.302  0.0957  0.2349 -0.5635
  822MOL0     O10893   3.003   1.506   5.248 -0.2442  0.1921  0.5772
  822MOL0     C10894   3.046   1.612   5.336  0.2599  0.8966  1.2186
  822MOL0     C10895   3.194   1.625   5.354  0.0712  0.5541  0.3171
  822MOL0     C10896   3.266   1.651   5.220  0.4830 -0.4796  0.6391
  822MOL0     C10897   3.422   1.671   5.248  0.2950 -1.2103 -0.3406
  822MOL0     C10898   3.446   1.799   5.318  0.1356 -0.7953 -0.2210
  822MOL0     C10899   3.461   1.906   5.375  0.0661 -0.2147 -0.7912
  822MOL0     C10900   2.877   1.307   5.215  0.8580 -0.4458  0.4302
  822MOL0     C10901   2.798   1.191   5.250 -0.4386 -0.1176  0.5287
  822MOL0     C10902   2.729   1.115   5.146  0.8905  0.2416 -0.3686
  822MOL0     H10903   2.813   0.776   5.537 -0.7424 -1.8262 -0.2009
  822MOL0     H10904   2.749   0.575   5.671  3.8134  1.5850  0.6712
  822MOL0     H10905   2.655   0.415   5.794  1.5441  1.0338  0.6107
  822MOL0     H10906   2.547   0.388   5.929  2.4995 -0.7293  0.1005
  822MOL0     H10907   2.421   0.353   5.742  1.5142 -1.4525  0.9384
  822MOL0     H10908   2.452   0.492   5.661  1.6027  1.3459  0.9062
  822MOL0     H10909   2.331   0.642   5.798 -0.0132  1.3635  2.8378
  822MOL0     H10910   2.316   0.522   5.925 -0.5533  2.7422 -0.4538
  822MOL0     H10911   2.191   0.518   5.655  1.8667  1.9654  0.0575
  822MOL0     H10912   2.181   0.388   5.781 -2.3564 -0.5354 -3.6453
  822MOL0     H10913   2.094   0.668   5.838  0.4402  0.9025 -0.9775
  822MOL0     H10914   1.973   0.559   5.770 -1.9531  0.1503  2.9443
  822MOL0     H10915   1.989   0.396   5.952  1.6763 -1.2094 -0.1175
  822MOL0     H10916   2.117   0.488   6.026 -2.6718  3.6803  3.7566
  822MOL0     H10917   1.948   0.686   6.028  0.1605  0.0926 -1.6042
  822MOL0     H10918   1.921   0.551   6.139  0.0567 -2.5706 -1.2012
  822MOL0     H10919   1.718   0.643   6.009  0.4373 -0.0581  0.1312
  822MOL0     H10920   1.779   0.569   5.866 -3.0016 -3.0585 -0.6932
  822MOL0     H10921   1.647   0.468   6.226  2.8079 -3.3541  2.4665
  822MOL0     H10922   1.457   0.309   6.299 -0.3758 -0.6619  1.7860
  822MOL0     H10923   1.419   0.180   6.175  0.0428  1.1689 -2.7950
  822MOL0     H10924   1.661   0.147   6.346  0.8464  0.4668  0.5015
  822MOL0     H10925   1.502   0.155   6.432 -1.9922 -0.8317 -1.4126
  822MOL0     H10926   1.409  -0.019   6.261  0.3245 -2.6531  0.9166
  822MOL0     H10927   1.523  -0.067   6.387 -0.3618 -0.6678 -0.9264
  822MOL0     H10928   1.701  -0.034   6.217 -0.5084 -3.2487  2.4097
  822MOL0     H10929   1.582  -0.017   6.090 -1.9633  0.5949  0.5214
  822MOL0     H10930   1.506  -0.415   6.069  1.3086 -0.3514 -0.0847
  822MOL0     H10931   1.611  -0.532   5.855  0.2104  1.0634 -3.3825
  822MOL0     H10932   2.015  -0.684   5.648  2.0319 -2.6811 -0.9472
  822MOL0     H10933   2.106  -0.781   5.437  0.7946  3.2692 -1.4155
  822MOL0     H10934   2.057  -0.751   5.080 -5.0529 -1.7878  0.2001
  822MOL0     H10935   2.150  -0.769   5.232  1.6509 -2.3598  0.9751
  822MOL0     H10936   2.222  -0.960   5.077  0.8407  2.4976  0.6132
  822MOL0     H10937   2.105  -1.033   5.189 -5.1562  3.3720  2.1589
  822MOL0     H10938   1.933  -1.037   5.031  0.2992  1.3547 -0.7797
  822MOL0     H10939   2.009  -0.920   4.930  0.8261  0.9806 -1.4837
  822MOL0     H10940   2.082  -1.214   5.003  3.1245  0.8780  2.0542
  822MOL0     H10941   2.194  -1.119   4.899  0.9520 -4.9072 -0.9715
  822MOL0     H10942   2.037  -1.073   4.733  1.9255  0.0767  1.3446
  822MOL0     H10943   1.904  -1.157   4.805 -0.1188 -0.2135  2.3070
  822MOL0     H10944   2.157  -1.270   4.670  0.7668  1.0169  0.1570
  822MOL0     H10945   2.105  -1.349   4.815 -1.3905 -1.5172 -1.4638
  822MOL0     H10946   1.927  -1.307   4.572 -4.4619 -2.3243  0.8466
  822MOL0     H10947   1.882  -1.387   4.714 -0.7523  2.4710 -0.3133
  822MOL0     H10948   2.054  -1.580   4.669  0.5686 -2.6018 -1.9064
  822MOL0     H10949   1.931  -1.540   4.536 -1.0017  2.7716  0.3798
  822MOL0     H10950   1.691  -0.785   5.290  1.3071  0.8929 -1.0600
  822MOL0     H10951   1.615  -0.671   5.476 -0.3726 -0.4968  2.2163
  822MOL0     H10952   1.886  -0.225   5.809 -1.9295 -0.2067 -1.5627
  822MOL0     H10953   1.804  -0.121   6.012 -1.4860  1.2281  1.3378
  822MOL0     H10954   2.554   0.824   5.948  2.0894 -1.3454  1.1840
  822MOL0     H10955   2.606   1.032   5.793  1.5806  0.1961  3.6493
  822MOL0     H10956   2.902   1.209   5.581 -0.1616 -3.1652 -1.2284
  822MOL0     H10957   3.026   1.418   5.498 -0.2039  0.7547 -0.7597
  822MOL0     H10958   3.001   1.617   5.435 -0.8176  0.4490  0.7693
  822MOL0     H10959   3.030   1.713   5.296  1.6989  1.3471  1.7004
  822MOL0     H10960   3.231   1.537   5.407  0.9557  1.0479  0.5610
  822MOL0     H10961   3.220   1.710   5.418 -1.4384  0.9126  0.4863
  822MOL0     H10962   3.235   1.740   5.165  0.6213 -0.8248 -0.0011
  822MOL0     H10963   3.273   1.571   5.146  2.9048  0.1501  0.0917
  822MOL0     H10964   3.448   1.579   5.300 -0.9778 -1.4621 -0.1170
  822MOL0     H10965   3.479   1.680   5.155 -1.1584  1.3090 -1.0736
  822MOL0     H10966   3.485   1.997   5.427 -0.1855  0.1080 -1.2276
  822MOL0     H10967   2.868   1.331   5.109 -2.9671 -0.5911  0.5544
  822MOL0     H10968   2.778   1.017   5.140  1.3824  0.2011  2.4864
  822MOL0     H10969   2.622   1.107   5.170  0.7583 -2.9081 -1.5457
  822MOL0     H10970   2.742   1.158   5.047  2.8486  0.6941  0.0489
  823MOL0     O10971   0.551   9.838   2.378 -0.8143  0.7129 -0.3891
  823MOL0     C10972   0.552   9.846   2.501 -0.4213 -1.3189 -0.5605
  823MOL0     O10973   0.647   9.928   2.571 -0.4022 -0.1638 -0.1273
  823MOL0     C10974   0.748   9.965   2.486 -0.4059 -0.6177  0.8055
  823MOL0     C10975   0.868   9.890   2.454  0.3304 -0.7067  0.1714
  823MOL0     C10976   0.966   9.945   2.371 -0.7287  0.3427 -0.1475
  823MOL0     C10977   0.936  10.061   2.295 -0.1139  0.1145  0.6188
  823MOL0     O10978   1.040  10.107   2.212  0.5400 -0.0781  0.4723
  823MOL0     C10979   1.014  10.230   2.142 -0.0390  0.0593  0.5636
  823MOL0     C10980   1.126  10.271   2.048 -0.0315  0.0179 -0.1879
  823MOL0     C10981   1.083  10.348   1.932 -1.2258 -0.5037  0.3754
  823MOL0     C10982   1.194  10.387   1.842  1.0095  0.0275 -0.1173
  823MOL0     C10983   1.135  10.466   1.724 -0.2896 -0.1421 -0.0381
  823MOL0     C10984   1.267  10.486   1.636  0.3499  1.1497 -0.4012
  823MOL0     C10985   1.251  10.576   1.514  0.5069 -0.0740 -1.1157
  823MOL0     C10986   1.384  10.576   1.437 -0.9514  0.7835 -0.1230
  823MOL0     N10987   1.432  10.709   1.414  0.3672  0.1488  0.8043
  823MOL0     C10988   1.515  10.780   1.493  0.0978 -0.4898 -0.8954
  823MOL0     C10989   1.509  10.905   1.450  0.0559  0.6780  0.2017
  823MOL0     C10990   1.569  11.021   1.517 -0.2325  0.0221 -0.4225
  823MOL0     C10991   1.692  11.068   1.454  0.2513  0.4684 -0.3623
  823MOL0     C10992   1.773  11.155   1.546  0.1781 -0.2880 -0.0853
  823MOL0     C10993   1.706  11.289   1.585  0.8582 -0.2832 -0.1224
  823MOL0     O10994   1.762  11.337   1.710 -0.2755  0.5595  0.9347
  823MOL0     C10995   1.888  11.387   1.690 -0.5543 -1.0925  0.1867
  823MOL0     C10996   1.961  11.407   1.578  0.6673  0.6269  0.0364
  823MOL0     C10997   2.078  11.489   1.575  0.7911  0.4426 -0.1973
  823MOL0     C10998   2.137  11.534   1.699  1.1407 -0.0548  0.0225
  823MOL0     C10999   2.261  11.604   1.706 -0.0810  0.8918 -0.3662
  823MOL0     O11000   2.322  11.639   1.579 -0.3504 -0.0086 -0.3072
  823MOL0     C11001   2.437  11.712   1.582 -0.1669 -0.6451 -0.6780
  823MOL0     C11002   2.451  11.832   1.656 -0.4964  0.1958 -0.4991
  823MOL0     C11003   2.566  11.898   1.667 -0.1560  0.2543 -0.3080
  823MOL0     C11004   2.671  11.867   1.581  0.3916 -0.7948 -0.6132
  823MOL0     O11005   2.783  11.943   1.588 -0.0427  0.3215  0.4252
  823MOL0     C11006   2.875  11.891   1.690  0.4194  0.0047 -0.8634
  823MOL0     C11007   2.877  11.970   1.816  1.2123  0.1054  0.5100
  823MOL0     C11008   2.851  11.887   1.936 -0.5293 -0.1975  0.0617
  823MOL0     C11009   2.869  11.980   2.069 -0.1314 -0.1244  1.8168
  823MOL0     C11010   2.919  11.883   2.177  0.2235  0.0750 -0.5279
  823MOL0     C11011   2.904  11.956   2.313  0.7835  0.2639  0.6429
  823MOL0     C11012   2.952  11.854   2.421  0.1966 -0.4970 -0.0174
  823MOL0     C11013   2.964  11.902   2.571  0.1899 -1.4107  0.5610
  823MOL0    Cl11014   3.077  11.816   2.674  0.0870 -0.0646 -0.0062
  823MOL0     C11015   2.660  11.763   1.489  0.2687  0.3661 -1.3802
  823MOL0     C11016   2.548  11.675   1.498  0.1342 -1.6743 -0.9128
  823MOL0     O11017   2.318  11.594   1.815 -0.7333 -0.7497 -0.0662
  823MOL0     C11018   2.061  11.517   1.821  0.0288 -0.7441  0.2590
  823MOL0     C11019   1.942  11.445   1.818 -0.8196 -0.8583  0.4327
  823MOL0     N11020   1.435  10.900   1.328 -1.2313  0.3540  0.2535
  823MOL0     N11021   1.382  10.786   1.311 -0.3866 -0.6615  0.6520
  823MOL0     C11022   0.821  10.131   2.331 -0.1424  0.3361 -0.8782
  823MOL0     C11023   0.731  10.088   2.430 -0.2647  0.0622 -0.2825
  823MOL0     C11024   0.444   9.774   2.576 -0.8999  0.7418  0.4305
  823MOL0     C11025   0.365   9.676   2.507  0.0943  0.5721  0.5132
  823MOL0     C11026   0.257   9.610   2.578 -0.4141 -0.0777  0.5384
  823MOL0     C11027   0.217   9.631   2.710  0.4072 -0.5926  0.2609
  823MOL0     O11028   0.130   9.558   2.787  0.1072 -0.7826  0.2629
  823MOL0     C11029   0.035   9.474   2.723  0.3333  0.7631 -0.3177
  823MOL0     C11030   0.035   9.329   2.775 -0.8593  0.5571  0.5933
  823MOL0     C11031   0.168   9.261   2.718  0.2162 -0.5459 -0.2498
  823MOL0     C11032   0.154   9.118   2.731  0.4758 -1.1129 -0.6763
  823MOL0     C11033   0.143   9.064   2.872 -0.2409 -0.0599  0.5994
  823MOL0     C11034   0.140   9.026   2.987  0.2579  0.5070 -0.2037
  823MOL0     C11035   0.285   9.742   2.772 -0.3861 -0.9931  1.2613
  823MOL0     C11036   0.400   9.803   2.712 -0.4455 -0.0953 -0.4771
  823MOL0     C11037   0.485   9.896   2.811 -0.1455  0.5745  0.9740
  823MOL0     H11038   0.881   9.799   2.511 -0.7295 -0.4132  0.9047
  823MOL0     H11039   1.053   9.883   2.353  0.3107  2.3058 -2.5655
  823MOL0     H11040   0.924  10.235   2.080  1.6676  2.4957 -1.9655
  823MOL0     H11041   1.002  10.308   2.218  3.5074  0.3660  0.9997
  823MOL0     H11042   1.164  10.178   2.003 -1.6223 -0.0849 -1.4064
  823MOL0     H11043   1.206  10.313   2.109 -0.7115 -1.2508  1.6697
  823MOL0     H11044   1.063  10.448   1.972  0.4508 -0.5974  1.5721
  823MOL0     H11045   1.010  10.292   1.872  1.6211 -2.4077 -1.5950
  823MOL0     H11046   1.271  10.451   1.887  2.3762  0.6275 -3.0595
  823MOL0     H11047   1.237  10.303   1.787  2.3422 -0.2287  1.2616
  823MOL0     H11048   1.054  10.413   1.672 -0.5318 -3.5512  3.3844
  823MOL0     H11049   1.092  10.561   1.756  1.3525  0.7386 -0.3466
  823MOL0     H11050   1.343  10.528   1.702  2.1551 -3.9297  1.2199
  823MOL0     H11051   1.300  10.387   1.603  1.6621  0.1542  3.4720
  823MOL0     H11052   1.224  10.679   1.539 -3.3169 -0.4705 -2.8986
  823MOL0     H11053   1.172  10.533   1.452  0.4734  1.2260 -2.0221
  823MOL0     H11054   1.461  10.513   1.483 -1.7325  0.0521  0.2045
  823MOL0     H11055   1.375  10.521   1.342  1.7122 -1.2141  0.6445
  823MOL0     H11056   1.553  10.737   1.585 -2.6433  0.5589  0.8462
  823MOL0     H11057   1.498  11.105   1.515 -0.8023 -0.4624 -0.6909
  823MOL0     H11058   1.593  10.992   1.619 -1.2485 -0.8713 -0.4192
  823MOL0     H11059   1.751  10.980   1.426 -0.8596 -0.9897  1.6217
  823MOL0     H11060   1.657  11.122   1.365 -0.1529 -2.5509 -2.1680
  823MOL0     H11061   1.874  11.170   1.509  1.4898  3.4745  4.1830
  823MOL0     H11062   1.765  11.104   1.643 -1.3282  0.4412  0.2003
  823MOL0     H11063   1.597  11.285   1.585  0.6078  2.8165 -2.0991
  823MOL0     H11064   1.717  11.364   1.505  1.7267 -1.5499 -1.2370
  823MOL0     H11065   1.922  11.388   1.479 -3.0129 -0.6968  1.5770
  823MOL0     H11066   2.125  11.506   1.478 -3.1530  0.3710 -2.3042
  823MOL0     H11067   2.368  11.881   1.704  0.2264 -0.8218  1.9093
  823MOL0     H11068   2.585  11.998   1.706  2.0228 -0.0087 -0.5680
  823MOL0     H11069   2.848  11.789   1.716 -1.3666  1.1249  2.1966
  823MOL0     H11070   2.980  11.889   1.657  1.8564 -1.3682  3.2103
  823MOL0     H11071   2.972  12.024   1.821  1.2807  0.1778 -1.1884
  823MOL0     H11072   2.797  12.045   1.807  1.8170  0.8957  1.4287
  823MOL0     H11073   2.749  11.847   1.934  0.0126 -1.6364 -2.1998
  823MOL0     H11074   2.917  11.803   1.957 -1.4571 -1.0221 -0.2238
  823MOL0     H11075   2.775  12.035   2.077 -0.1090  1.0564 -2.9539
  823MOL0     H11076   2.940  12.062   2.055  0.8776 -1.0538  1.3766
  823MOL0     H11077   3.024  11.858   2.160  1.0436  0.2922  3.1712
  823MOL0     H11078   2.859  11.791   2.183 -1.1258  0.8217 -1.8887
  823MOL0     H11079   2.966  12.045   2.325  3.6688 -1.1831 -1.8552
  823MOL0     H11080   2.800  11.980   2.335  0.5124 -1.0030  0.8248
  823MOL0     H11081   3.050  11.827   2.383 -1.0998 -1.9369 -2.5463
  823MOL0     H11082   2.880  11.772   2.428 -0.0415 -0.1883  1.6529
  823MOL0     H11083   3.007  12.002   2.565 -2.3022 -0.3744 -2.4516
  823MOL0     H11084   2.865  11.889   2.616 -0.2176 -0.5704 -0.0661
  823MOL0     H11085   2.749  11.745   1.431  0.4077 -0.4825 -0.9279
  823MOL0     H11086   2.548  11.581   1.444  0.4568 -3.0352  1.3199
  823MOL0     H11087   2.090  11.553   1.920  3.9299  1.1513 -1.3634
  823MOL0     H11088   1.898  11.435   1.917  0.0725 -0.7981  0.8478
  823MOL0     H11089   0.813  10.232   2.292 -0.1163  0.8032  0.2653
  823MOL0     H11090   0.642  10.147   2.452  0.6824  1.4432 -0.0517
  823MOL0     H11091   0.382   9.650   2.403 -0.7132  4.0716 -0.6321
  823MOL0     H11092   0.219   9.532   2.513 -0.5525  1.6698 -1.5894
  823MOL0     H11093   0.064   9.476   2.617 -5.2311  0.0091 -2.2312
  823MOL0     H11094  -0.069   9.509   2.729 -0.2940 -0.9499 -0.5314
  823MOL0     H11095  -0.055   9.278   2.740  1.0347 -2.1602 -0.5905
  823MOL0     H11096   0.037   9.310   2.883 -1.0556 -2.4300  0.1429
  823MOL0     H11097   0.258   9.302   2.764 -0.8650  1.1013  0.5139
  823MOL0     H11098   0.164   9.290   2.613 -0.0061 -3.3051 -1.0932
  823MOL0     H11099   0.059   9.091   2.683 -1.2314  2.0476  0.6517
  823MOL0     H11100   0.240   9.078   2.676 -0.1313 -1.1587 -1.6154
  823MOL0     H11101   0.148   8.984   3.085  2.7964  0.8391 -0.2083
  823MOL0     H11102   0.258   9.783   2.869  0.4965  2.0300  0.3323
  823MOL0     H11103   0.432   9.916   2.904  0.3464  4.4608  0.5757
  823MOL0     H11104   0.582   9.848   2.824  0.3848  0.9993 -1.0303
  823MOL0     H11105   0.518   9.988   2.761  1.1508 -0.8556 -0.9623
  824MOL0     O11106   1.636   3.761   4.928 -0.1533  0.3892  0.3509
  824MOL0     C11107   1.544   3.684   4.955  0.5703  0.2497 -0.8882
  824MOL0     O11108   1.442   3.702   5.044 -1.0519 -0.4954 -0.2130
  824MOL0     C11109   1.412   3.827   5.062 -0.2661 -0.4789 -0.0961
  824MOL0     C11110   1.448   3.888   5.185  0.0495  0.1769  0.5898
  824MOL0     C11111   1.447   4.032   5.201  0.7540  0.3206 -0.7447
  824MOL0     C11112   1.415   4.112   5.089 -0.0023  0.2121 -0.1110
  824MOL0     O11113   1.429   4.248   5.090 -0.2369 -0.2139 -0.5033
  824MOL0     C11114   1.417   4.307   5.220  0.1185 -0.6286  1.0901
  824MOL0     C11115   1.430   4.455   5.170 -0.3041 -0.1041 -0.9891
  824MOL0     C11116   1.385   4.562   5.280 -0.3227 -0.1522  0.8533
  824MOL0     C11117   1.489   4.578   5.390 -0.9046  0.1074  0.2438
  824MOL0     C11118   1.438   4.659   5.504 -0.8095 -0.8005 -0.3377
  824MOL0     C11119   1.403   4.800   5.475  0.2437 -0.5757  0.1810
  824MOL0     C11120   1.347   4.863   5.595  0.4129  0.2118 -0.7255
  824MOL0     C11121   1.282   5.001   5.578 -0.0473 -0.3269  0.4069
  824MOL0     N11122   1.225   5.052   5.700  0.1388 -0.1949  0.7163
  824MOL0     C11123   1.136   4.995   5.780  0.4081  0.8461  0.5665
  824MOL0     C11124   1.089   5.081   5.870 -0.0924 -0.0978 -0.3526
  824MOL0     C11125   0.975   5.051   5.964 -0.2818 -0.0508  0.4348
  824MOL0     C11126   0.877   5.161   5.943  0.7761  0.0327  0.0763
  824MOL0     C11127   0.914   5.298   6.003  0.1057  0.3155 -0.1456
  824MOL0     C11128   0.795   5.393   6.044  0.4321  0.2814  0.5556
  824MOL0     O11129   0.856   5.524   6.072 -0.0049  0.0172  0.1398
  824MOL0     C11130   0.802   5.608   6.177  0.4598  0.5980 -0.3312
  824MOL0     C11131   0.675   5.595   6.235 -0.1565 -0.2462 -0.4441
  824MOL0     C11132   0.627   5.691   6.327 -0.1384  0.0310 -0.2473
  824MOL0     C11133   0.725   5.793   6.380 -0.4675 -0.8153  0.7059
  824MOL0     C11134   0.695   5.868   6.505 -0.3926 -0.0251 -0.1708
  824MOL0     O11135   0.785   5.950   6.548 -0.3309 -0.7140 -0.7474
  824MOL0     C11136   0.756   6.023   6.663 -1.0567  0.3046  0.3094
  824MOL0     C11137   0.769   6.162   6.651 -0.2767  0.1381 -0.0919
  824MOL0     C11138   0.749   6.245   6.761  0.8208  0.3442 -0.5304
  824MOL0     C11139   0.727   6.191   6.889 -0.4503 -0.8136 -0.2332
  824MOL0     O11140   0.703   6.290   6.984 -0.7042 -0.4102 -0.1523
  824MOL0     C11141   0.701   6.260   7.127  0.3477 -0.1805  0.8028
  824MOL0     C11142   0.724   6.396   7.206 -0.3433  0.3767  0.8123
  824MOL0     C11143   0.657   6.528   7.163 -0.7624  0.4564  0.0132
  824MOL0     C11144   0.720   6.637   7.260  0.8757 -0.1261  0.9426
  824MOL0     C11145   0.630   6.759   7.234 -0.2445  1.1043 -0.0263
  824MOL0     C11146   0.640   6.878   7.337 -0.1134  0.0271 -0.1444
  824MOL0     C11147   0.571   6.995   7.266  1.1795  0.0183 -0.6974
  824MOL0     C11148   0.568   7.112   7.363  0.0633  0.3180  0.5825
  824MOL0    Cl11149   0.519   7.258   7.268  0.5111  0.2977 -0.7747
  824MOL0     C11150   0.705   6.047   6.902  0.2420 -0.6112  0.3468
  824MOL0     C11151   0.712   5.973   6.787 -1.0575  0.2091 -0.0484
  824MOL0     O11152   0.593   5.827   6.566  0.0285  0.0795 -0.1975
  824MOL0     C11153   0.846   5.812   6.310  0.9929 -0.1178 -0.5413
  824MOL0     C11154   0.874   5.726   6.204  0.3555 -0.1832  0.4452
  824MOL0     N11155   1.169   5.187   5.847  0.5993 -0.7471  0.1084
  824MOL0     N11156   1.240   5.184   5.737  0.0526 -0.0622  0.1496
  824MOL0     C11157   1.400   4.047   4.966 -0.0003 -0.1436 -1.1184
  824MOL0     C11158   1.384   3.908   4.952  0.9428 -0.4363  0.5600
  824MOL0     C11159   1.544   3.554   4.880  0.8781 -0.4189 -0.3571
  824MOL0     C11160   1.585   3.544   4.751 -0.7531  0.2228 -1.6668
  824MOL0     C11161   1.556   3.437   4.664  0.6090 -0.5099  0.0823
  824MOL0     C11162   1.504   3.322   4.721  0.4850  0.6542 -1.0692
  824MOL0     O11163   1.480   3.202   4.655 -0.3767  0.6551  0.3190
  824MOL0     C11164   1.510   3.197   4.518  0.5361 -0.8534  0.0060
  824MOL0     C11165   1.650   3.146   4.484 -0.0176  0.1720  0.1858
  824MOL0     C11166   1.708   3.032   4.563  0.1142  0.2369  0.4373
  824MOL0     C11167   1.812   2.943   4.488 -0.3833 -0.0492 -0.3996
  824MOL0     C11168   1.887   2.854   4.587 -0.9347  0.1632 -0.0652
  824MOL0     C11169   1.937   2.774   4.661  1.0449  0.0834 -0.5745
  824MOL0     C11170   1.475   3.319   4.855 -0.0824 -0.0747  0.8264
  824MOL0     C11171   1.501   3.434   4.941 -0.3614 -0.5885  0.8629
  824MOL0     C11172   1.477   3.421   5.089 -0.3908 -0.4144  0.2682
  824MOL0     H11173   1.474   3.819   5.265 -0.0795 -0.8617 -0.2444
  824MOL0     H11174   1.445   4.067   5.303 -0.8638  0.7925 -0.8994
  824MOL0     H11175   1.319   4.285   5.264  0.3635 -0.1793  1.8761
  824MOL0     H11176   1.491   4.273   5.292  0.3073  0.6602  1.5197
  824MOL0     H11177   1.378   4.467   5.075 -0.4246 -2.5166 -1.2849
  824MOL0     H11178   1.537   4.468   5.152  0.4022 -0.0870  2.5235
  824MOL0     H11179   1.286   4.535   5.317  0.0904  0.4944  2.5498
  824MOL0     H11180   1.377   4.655   5.223  4.5810  1.5073  2.3483
  824MOL0     H11181   1.521   4.482   5.430 -0.8170 -2.2781 -4.7634
  824MOL0     H11182   1.583   4.619   5.352 -1.1402 -1.2015 -1.9288
  824MOL0     H11183   1.356   4.599   5.544 -1.1038 -0.2177 -0.0602
  824MOL0     H11184   1.520   4.670   5.576 -0.7056  0.2248 -0.6040
  824MOL0     H11185   1.488   4.858   5.437 -0.6925 -1.1120 -2.9993
  824MOL0     H11186   1.325   4.801   5.399  0.3543 -2.9982 -0.0278
  824MOL0     H11187   1.424   4.866   5.672  0.9980  2.6562 -1.3405
  824MOL0     H11188   1.268   4.796   5.631  0.4078 -0.0121 -1.1370
  824MOL0     H11189   1.366   5.062   5.543  0.5645 -1.8815 -1.0150
  824MOL0     H11190   1.211   5.002   5.495  1.3499  0.9780 -0.8466
  824MOL0     H11191   1.107   4.891   5.765  4.2054 -1.2140  4.8968
  824MOL0     H11192   0.932   4.953   5.940  0.4242 -0.6230  1.4270
  824MOL0     H11193   1.012   5.047   6.067 -0.7195 -2.5347  0.5575
  824MOL0     H11194   0.835   5.156   5.842 -1.6516  0.5269  0.9979
  824MOL0     H11195   0.790   5.123   5.998  2.0083 -0.0499  2.0905
  824MOL0     H11196   0.974   5.348   5.926  1.1524 -2.0601 -0.9629
  824MOL0     H11197   0.975   5.274   6.091 -0.1328 -2.0496 -0.5576
  824MOL0     H11198   0.740   5.352   6.128  1.2914 -3.0478 -0.3648
  824MOL0     H11199   0.732   5.387   5.954 -1.4708 -4.1975  1.9120
  824MOL0     H11200   0.609   5.515   6.203  1.2547 -2.2360  1.3069
  824MOL0     H11201   0.528   5.668   6.365  0.7366 -3.3993  0.2832
  824MOL0     H11202   0.799   6.211   6.559 -0.4292 -1.3896 -1.0001
  824MOL0     H11203   0.749   6.353   6.752  1.1118  0.3430 -0.5524
  824MOL0     H11204   0.601   6.222   7.151  0.8382 -2.5749 -0.6062
  824MOL0     H11205   0.781   6.198   7.168  2.5160  2.3880  0.7460
  824MOL0     H11206   0.701   6.366   7.308 -1.0838 -1.1111  0.2442
  824MOL0     H11207   0.833   6.405   7.202  0.4111 -4.5216  3.2459
  824MOL0     H11208   0.680   6.546   7.057  1.1097 -1.5223 -0.0001
  824MOL0     H11209   0.550   6.511   7.166 -0.6285 -0.3099  1.8613
  824MOL0     H11210   0.823   6.649   7.227  0.8506  1.8891  1.4683
  824MOL0     H11211   0.710   6.607   7.365  0.3290  0.2406  1.0000
  824MOL0     H11212   0.529   6.718   7.243  0.0703  0.7282  4.3114
  824MOL0     H11213   0.649   6.807   7.138 -0.1199  1.1856  0.0381
  824MOL0     H11214   0.585   6.848   7.426 -0.1594  0.5277 -0.0004
  824MOL0     H11215   0.743   6.894   7.371  0.5724 -0.5436 -1.8395
  824MOL0     H11216   0.479   6.972   7.211 -1.5864 -0.9834  3.7661
  824MOL0     H11217   0.650   7.018   7.194  0.7187 -3.2784 -2.4519
  824MOL0     H11218   0.485   7.100   7.433 -1.5494 -2.4103 -1.6132
  824MOL0     H11219   0.664   7.112   7.416 -0.8264  0.5133  2.2814
  824MOL0     H11220   0.670   6.013   6.999  0.8663 -2.4380 -0.0299
  824MOL0     H11221   0.679   5.873   6.813 -1.9890  0.7647  0.9698
  824MOL0     H11222   0.918   5.891   6.328  0.1430  1.1367 -2.3862
  824MOL0     H11223   0.970   5.714   6.154 -0.5940 -1.6839 -1.1580
  824MOL0     H11224   1.393   4.115   4.881  0.1673 -0.2304 -1.2020
  824MOL0     H11225   1.365   3.854   4.860  2.9078  1.4269 -1.0378
  824MOL0     H11226   1.636   3.634   4.715 -0.8211  1.0401  0.1672
  824MOL0     H11227   1.585   3.443   4.559 -1.6600  1.0830 -0.5241
  824MOL0     H11228   1.479   3.286   4.463 -0.9792 -1.5150 -0.2540
  824MOL0     H11229   1.454   3.112   4.478 -1.0766 -0.9867  2.3456
  824MOL0     H11230   1.715   3.232   4.501 -0.7106  0.5373  1.1552
  824MOL0     H11231   1.645   3.107   4.382 -0.7814 -0.0922  0.3127
  824MOL0     H11232   1.628   2.965   4.596 -0.4345 -0.0446 -1.3400
  824MOL0     H11233   1.762   3.085   4.642  1.0374  0.3408 -0.2471
  824MOL0     H11234   1.762   2.891   4.407 -2.5042  1.0155  0.1415
  824MOL0     H11235   1.881   3.012   4.438  2.7998 -3.6115 -1.4045
  824MOL0     H11236   1.987   2.693   4.709 -4.2799 -2.9076  0.6704
  824MOL0     H11237   1.440   3.222   4.888 -1.1461  0.5208  1.5233
  824MOL0     H11238   1.377   3.443   5.127  0.4330 -1.0291  3.0275
  824MOL0     H11239   1.504   3.317   5.112  1.8344  0.2357  0.9058
  824MOL0     H11240   1.551   3.485   5.138 -0.5870  1.9200 -2.2525
  825MOL0     O11241  10.263   2.185   9.777 -0.3689  0.4365 -0.0629
  825MOL0     C11242  10.346   2.239   9.704  0.2156  0.1667 -0.1700
  825MOL0     O11243  10.468   2.290   9.744  0.1453 -0.0824 -0.1002
  825MOL0     C11244  10.480   2.327   9.872  0.5406  0.1433  0.1625
  825MOL0     C11245  10.387   2.418   9.932 -0.1582  0.1146 -0.3370
  825MOL0     C11246  10.393   2.459  10.061 -0.3856  0.2331 -0.0982
  825MOL0     C11247  10.497   2.419  10.142  0.0468 -0.7084 -1.0494
  825MOL0     O11248  10.526   2.454  10.271  0.0524 -0.4639 -0.2473
  825MOL0     C11249  10.442   2.550  10.350 -0.9720 -0.2308 -0.5790
  825MOL0     C11250  10.430   2.489  10.489 -0.4125 -0.2980  0.3648
  825MOL0     C11251  10.549   2.516  10.577  0.8816  0.6271 -0.7304
  825MOL0     C11252  10.529   2.628  10.678 -0.9805  0.1231 -0.3135
  825MOL0     C11253  10.660   2.670  10.744 -0.3999  0.2871 -0.0773
  825MOL0     C11254  10.719   2.554  10.813 -0.0370  0.3982  0.3052
  825MOL0     C11255  10.851   2.594  10.879  0.6833 -0.0664  0.0887
  825MOL0     C11256  10.889   2.522  11.008 -0.1223  0.0014  0.3691
  825MOL0     N11257  10.807   2.569  11.125  0.3401  0.3911  0.2292
  825MOL0     C11258  10.832   2.686  11.196 -0.7547  0.0819  0.1423
  825MOL0     C11259  10.731   2.696  11.278  0.5689  1.6292 -0.7505
  825MOL0     C11260  10.684   2.806  11.379 -0.0264 -0.3395  0.0317
  825MOL0     C11261  10.545   2.863  11.341 -0.1047 -0.0170 -0.1288
  825MOL0     C11262  10.577   2.994  11.257 -0.2247  0.9777 -0.1871
  825MOL0     C11263  10.445   3.080  11.253 -0.6125  0.8455  0.5815
  825MOL0     O11264  10.449   3.188  11.159  0.5957 -0.1746 -1.0936
  825MOL0     C11265  10.459   3.316  11.199  0.2830  0.3895  0.3959
  825MOL0     C11266  10.504   3.357  11.328 -0.2282 -0.8522  0.5588
  825MOL0     C11267  10.502   3.495  11.358  0.1696 -0.1809  0.3447
  825MOL0     C11268  10.472   3.593  11.262 -0.0105 -0.1392  0.3598
  825MOL0     C11269  10.489   3.738  11.297 -0.1536  0.5720  0.2315
  825MOL0     O11270  10.554   3.760  11.420 -0.0264  0.0983  0.2842
  825MOL0     C11271  10.589   3.884  11.462  0.3738  0.1158 -0.0344
  825MOL0     C11272  10.611   4.008  11.377  0.5190  0.6873  0.3285
  825MOL0     C11273  10.653   4.124  11.443  0.0457  0.3782 -0.1681
  825MOL0     C11274  10.693   4.125  11.586 -0.2461 -0.4540  0.0636
  825MOL0     O11275  10.750   4.235  11.654 -0.4561  0.4737  0.1580
  825MOL0     C11276  10.785   4.358  11.586  0.2634  1.0803 -0.8601
  825MOL0     C11277  10.863   4.453  11.680  0.4332  0.1876  0.1240
  825MOL0     C11278  10.778   4.534  11.769  0.2600 -0.0013  0.9442
  825MOL0     C11279  10.838   4.665  11.832 -0.0450  0.3740  1.1580
  825MOL0     C11280  10.848   4.662  11.983  0.2605  0.1967  0.2874
  825MOL0     C11281  10.957   4.754  12.025 -0.0236  0.6962  0.2614
  825MOL0     C11282  10.979   4.744  12.173  0.2745  0.1475  0.9572
  825MOL0     C11283  11.118   4.775  12.209 -0.6560 -0.0432  0.7736
  825MOL0    Cl11284  11.149   4.952  12.194 -0.1727 -0.2792  0.0013
  825MOL0     C11285  10.682   4.002  11.655  0.1571  0.5496  0.7580
  825MOL0     C11286  10.631   3.885  11.595  0.4838 -0.5835  0.0528
  825MOL0     O11287  10.441   3.827  11.229  0.2189 -0.2441 -0.6146
  825MOL0     C11288  10.423   3.548  11.139 -0.0150  0.1194 -0.9565
  825MOL0     C11289  10.419   3.414  11.112 -1.0644 -0.5606  0.4355
  825MOL0     N11290  10.643   2.584  11.248 -0.0687 -1.0644 -0.4670
  825MOL0     N11291  10.691   2.506  11.165 -0.1495  0.0940  0.8354
  825MOL0     C11292  10.596   2.339  10.077  0.0197  0.5614 -1.2745
  825MOL0     C11293  10.596   2.295   9.945  0.1206 -0.4955 -0.7715
  825MOL0     C11294  10.332   2.221   9.552  0.4054 -0.0351 -0.0695
  825MOL0     C11295  10.205   2.169   9.508 -0.2467 -0.2385  0.3982
  825MOL0     C11296  10.195   2.126   9.376  0.3417  0.2405  0.6442
  825MOL0     C11297  10.296   2.140   9.281  0.4108  0.2129  0.1280
  825MOL0     O11298  10.290   2.097   9.152  0.5619 -0.3319  0.2577
  825MOL0     C11299  10.180   2.020   9.104  0.0198  0.1658  0.0187
  825MOL0     C11300  10.210   1.878   9.144  0.9296  0.2488 -0.8779
  825MOL0     C11301  10.346   1.832   9.089  0.0440 -0.7157 -0.4277
  825MOL0     C11302  10.408   1.710   9.173  0.2636 -0.4766  0.3164
  825MOL0     C11303  10.306   1.607   9.181  0.6815 -0.7978 -0.2863
  825MOL0     C11304  10.213   1.522   9.199 -0.5543  0.5335 -0.9848
  825MOL0     C11305  10.401   2.213   9.317 -1.2270  0.0125 -0.1638
  825MOL0     C11306  10.428   2.251   9.455 -0.7134 -0.4028 -1.1088
  825MOL0     C11307  10.567   2.325   9.485  0.4783 -0.3372  0.3197
  825MOL0     H11308  10.311   2.454   9.863  0.8959  2.7985 -0.2385
  825MOL0     H11309  10.322   2.530  10.103  0.8763  1.2713  0.3643
  825MOL0     H11310  10.487   2.649  10.354  1.1686 -1.1560 -0.1812
  825MOL0     H11311  10.339   2.571  10.320 -1.4602 -1.1715  0.3340
  825MOL0     H11312  10.412   2.382  10.476  1.0226 -0.5362  0.1619
  825MOL0     H11313  10.342   2.532  10.537 -1.0190 -1.1184  0.0144
  825MOL0     H11314  10.645   2.540  10.531  1.5399  2.0690  1.2587
  825MOL0     H11315  10.558   2.422  10.633  0.7644  0.8352 -0.3563
  825MOL0     H11316  10.503   2.717  10.620  0.7847 -1.1140 -3.2472
  825MOL0     H11317  10.453   2.591  10.748  0.7086 -3.9728 -0.3815
  825MOL0     H11318  10.724   2.718  10.669 -0.1922  2.8290  1.5955
  825MOL0     H11319  10.648   2.738  10.829 -0.0819  0.0235  0.1816
  825MOL0     H11320  10.641   2.524  10.883 -0.4827 -1.2712 -0.8553
  825MOL0     H11321  10.731   2.467  10.747 -1.1284 -0.4597  1.2025
  825MOL0     H11322  10.841   2.701  10.899  1.5542 -0.1052  0.7556
  825MOL0     H11323  10.919   2.583  10.795  0.4248 -1.2905  0.0203
  825MOL0     H11324  10.869   2.415  11.000 -1.8118  0.3689 -0.8235
  825MOL0     H11325  10.995   2.538  11.031 -0.0596 -3.7830  3.8799
  825MOL0     H11326  10.918   2.750  11.181 -0.3086 -0.6179 -0.3186
  825MOL0     H11327  10.674   2.751  11.473  0.3969 -1.2529 -0.4442
  825MOL0     H11328  10.764   2.880  11.396 -0.0994  0.6635 -3.2938
  825MOL0     H11329  10.491   2.784  11.288  2.5090 -1.1465 -1.2586
  825MOL0     H11330  10.482   2.889  11.427  1.3646 -0.5984  1.1724
  825MOL0     H11331  10.610   2.947  11.165  0.3281  0.9747  0.0103
  825MOL0     H11332  10.656   3.058  11.297  1.6550 -1.7200  0.6537
  825MOL0     H11333  10.411   3.119  11.350 -0.4154  1.3374  0.4577
  825MOL0     H11334  10.360   3.022  11.216 -2.3889  4.3628 -1.3851
  825MOL0     H11335  10.529   3.271  11.390  0.4569 -2.9929 -2.4572
  825MOL0     H11336  10.528   3.531  11.457 -1.2518 -0.0585  0.6876
  825MOL0     H11337  10.576   4.014  11.275  0.6969 -2.8305 -0.0759
  825MOL0     H11338  10.670   4.202  11.370  1.6543 -0.6942 -1.0091
  825MOL0     H11339  10.846   4.327  11.501 -0.8247 -2.8854 -0.3838
  825MOL0     H11340  10.692   4.401  11.546 -0.4511 -0.4895 -0.9818
  825MOL0     H11341  10.941   4.401  11.736  0.0213 -0.3920  0.1639
  825MOL0     H11342  10.919   4.526  11.621  1.5279  2.1963  3.3840
  825MOL0     H11343  10.677   4.559  11.736  1.8830  2.0938 -3.2721
  825MOL0     H11344  10.751   4.461  11.846 -3.0470  0.3708  0.2872
  825MOL0     H11345  10.782   4.744  11.782 -1.4727 -1.6870 -0.7257
  825MOL0     H11346  10.940   4.668  11.791 -0.8090 -2.6186 -1.3638
  825MOL0     H11347  10.881   4.564  12.020  1.0944 -0.4446 -1.9859
  825MOL0     H11348  10.753   4.692  12.029 -0.7323  2.7260 -3.0755
  825MOL0     H11349  11.045   4.727  11.966  0.4360  1.2550  0.6767
  825MOL0     H11350  10.938   4.856  11.991 -2.1684 -0.2563 -1.6997
  825MOL0     H11351  10.959   4.643  12.209  3.7156 -0.1003  2.6198
  825MOL0     H11352  10.920   4.815  12.231  0.3765  0.5203  0.6088
  825MOL0     H11353  11.126   4.743  12.313  2.8993 -2.1527  0.0096
  825MOL0     H11354  11.193   4.726  12.146  0.0812  2.7008 -0.6511
  825MOL0     H11355  10.707   3.980  11.758 -0.6536  1.8460  1.2549
  825MOL0     H11356  10.642   3.787  11.641 -0.5615  0.0226  1.6639
  825MOL0     H11357  10.404   3.621  11.061  2.2252 -1.4723 -3.1326
  825MOL0     H11358  10.397   3.385  11.010  0.2078  0.9611 -0.3111
  825MOL0     H11359  10.680   2.292  10.126  0.3319 -0.2931 -2.5891
  825MOL0     H11360  10.679   2.236   9.908 -0.8644 -3.0815  0.8956
  825MOL0     H11361  10.110   2.174   9.560 -1.1384  4.8414 -1.1999
  825MOL0     H11362  10.102   2.084   9.340  0.8393 -0.1291 -0.2381
  825MOL0     H11363  10.195   2.028   8.996  2.2020  1.7704  0.3827
  825MOL0     H11364  10.079   2.056   9.127  0.1450  1.0118 -0.7112
  825MOL0     H11365  10.139   1.819   9.084  0.1854  0.8002 -0.5508
  825MOL0     H11366  10.193   1.849   9.248 -2.0496 -0.6865 -1.5137
  825MOL0     H11367  10.420   1.911   9.104 -0.0417 -1.2347  4.5071
  825MOL0     H11368  10.324   1.806   8.985 -0.0232 -0.7359 -0.4082
  825MOL0     H11369  10.499   1.669   9.128  1.4456  1.9005  0.3670
  825MOL0     H11370  10.416   1.745   9.277 -4.6139  3.6456 -0.3388
  825MOL0     H11371  10.135   1.449   9.202  0.9726 -1.2857 -2.2316
  825MOL0     H11372  10.469   2.231   9.235 -0.6035  0.9835  0.5258
  825MOL0     H11373  10.552   2.433   9.496  3.1979  0.2458 -0.8230
  825MOL0     H11374  10.621   2.283   9.570  3.6589  1.7883 -0.4675
  825MOL0     H11375  10.627   2.312   9.395  1.7758  1.7520  0.8282
  826MOL0     O11376   2.578   4.426  11.197  0.6836 -0.5780 -1.1604
  826MOL0     C11377   2.527   4.510  11.267 -0.4753  0.6438 -0.3046
  826MOL0     O11378   2.425   4.481  11.363 -0.5190  0.5807 -0.1910
  826MOL0     C11379   2.374   4.353  11.393 -0.1954 -0.0761 -0.7020
  826MOL0     C11380   2.402   4.228  11.345  0.1095 -0.5180  0.3156
  826MOL0     C11381   2.339   4.113  11.401 -0.3932 -0.0715 -0.7386
  826MOL0     C11382   2.232   4.125  11.489 -1.1968  0.6153  0.1505
  826MOL0     O11383   2.186   4.004  11.535  0.4607  0.1830  0.6226
  826MOL0     C11384   2.098   4.014  11.648  0.1507  0.0045  0.1963
  826MOL0     C11385   2.063   3.878  11.712 -0.0524  0.3234 -0.7205
  826MOL0     C11386   2.195   3.805  11.753  1.0755 -0.2060  0.3788
  826MOL0     C11387   2.235   3.711  11.633  0.1284  0.2847 -0.4761
  826MOL0     C11388   2.368   3.647  11.680  0.2788 -0.4685 -0.8154
  826MOL0     C11389   2.404   3.548  11.573 -0.8486  0.0112  0.0379
  826MOL0     C11390   2.547   3.481  11.586  0.1695 -0.0094  0.2003
  826MOL0     C11391   2.565   3.411  11.731 -0.4921 -0.3287  0.2555
  826MOL0     N11392   2.698   3.349  11.735  0.2478 -0.7254 -0.5727
  826MOL0     C11393   2.804   3.399  11.800 -0.7765 -0.6414 -0.1630
  826MOL0     C11394   2.900   3.303  11.804 -0.3821 -0.4690  0.5121
  826MOL0     C11395   3.037   3.321  11.863  0.4167  0.2571 -0.4775
  826MOL0     C11396   3.145   3.221  11.812  0.3041 -1.1782 -0.1588
  826MOL0     C11397   3.132   3.078  11.873  0.6900  0.0840 -0.5741
  826MOL0     C11398   3.257   2.992  11.838  0.1299  0.0031 -0.4117
  826MOL0     O11399   3.222   2.863  11.879  1.2414  0.1962  0.1420
  826MOL0     C11400   3.198   2.767  11.785 -0.3520  0.0315  0.0517
  826MOL0     C11401   3.278   2.742  11.676 -0.6565  0.2912  0.1822
  826MOL0     C11402   3.247   2.625  11.599 -0.8093  0.3383 -0.3867
  826MOL0     C11403   3.132   2.544  11.616 -0.7038 -1.4422  0.1128
  826MOL0     C11404   3.114   2.419  11.541  0.4018  0.3905  0.4389
  826MOL0     O11405   3.037   2.315  11.598  0.4668 -0.1978 -0.3037
  826MOL0     C11406   3.022   2.198  11.530 -0.5292 -0.3938 -0.1329
  826MOL0     C11407   2.925   2.175  11.433  0.4669  0.8706  0.0407
  826MOL0     C11408   2.922   2.052  11.363  0.2150  1.0161  1.3258
  826MOL0     C11409   3.024   1.959  11.379 -0.0176 -0.2957  0.3499
  826MOL0     O11410   3.026   1.852  11.291  0.0341  0.4213  0.0491
  826MOL0     C11411   3.086   1.729  11.342  0.0277  0.1930  0.0976
  826MOL0     C11412   3.056   1.611  11.252  0.1682 -0.1716 -0.3095
  826MOL0     C11413   3.128   1.640  11.121  0.6825  0.7977  0.2647
  826MOL0     C11414   3.091   1.535  11.009 -1.3462 -0.7116 -0.3397
  826MOL0     C11415   3.182   1.562  10.893  0.0731 -0.7297  0.5608
  826MOL0     C11416   3.158   1.714  10.848  0.4193  0.5119  0.1537
  826MOL0     C11417   3.205   1.740  10.708 -0.8219  0.7458  0.0425
  826MOL0     C11418   3.154   1.883  10.660  0.5962 -0.2299 -0.0369
  826MOL0    Cl11419   3.243   2.020  10.727 -0.3580  0.4568  0.3254
  826MOL0     C11420   3.105   1.976  11.495  0.0620  0.6307 -0.2359
  826MOL0     C11421   3.098   2.091  11.571  0.3619 -0.7613 -0.0504
  826MOL0     O11422   3.177   2.405  11.434  0.0992 -0.2838  0.0372
  826MOL0     C11423   3.055   2.574  11.729  0.3796 -0.6460 -0.3861
  826MOL0     C11424   3.085   2.690  11.810  0.4308  1.3704 -0.1594
  826MOL0     N11425   2.855   3.197  11.720  0.5565 -0.5693  0.4639
  826MOL0     N11426   2.733   3.233  11.679  0.5188 -0.1530 -0.0709
  826MOL0     C11427   2.197   4.257  11.533 -0.1755 -0.2270 -0.4841
  826MOL0     C11428   2.267   4.367  11.483  0.4672 -0.7269  0.4244
  826MOL0     C11429   2.565   4.656  11.254  0.6641  0.8063  0.6251
  826MOL0     C11430   2.678   4.684  11.173  1.1541 -0.4538  0.8327
  826MOL0     C11431   2.709   4.815  11.143 -0.2006 -0.3145  0.2313
  826MOL0     C11432   2.629   4.923  11.192  0.5431  1.2095 -0.0341
  826MOL0     O11433   2.660   5.054  11.165 -0.3750 -0.5058 -0.0327
  826MOL0     C11434   2.794   5.091  11.199  0.4935 -0.0209 -0.3865
  826MOL0     C11435   2.827   5.233  11.147 -0.6126  0.2015 -0.1723
  826MOL0     C11436   2.969   5.241  11.084 -0.2636 -1.2697  0.4731
  826MOL0     C11437   3.077   5.252  11.194  0.2382 -0.5536 -1.1918
  826MOL0     C11438   3.202   5.321  11.136  0.1613 -0.0564 -0.2739
  826MOL0     C11439   3.289   5.392  11.093 -0.4739  0.2125  0.4918
  826MOL0     C11440   2.509   4.892  11.251 -0.7985 -0.5757  0.1315
  826MOL0     C11441   2.475   4.766  11.293 -0.9026  0.6509 -0.8268
  826MOL0     C11442   2.339   4.749  11.368  0.2956 -0.3979 -0.4854
  826MOL0     H11443   2.477   4.220  11.266  0.4898 -0.7179  0.6923
  826MOL0     H11444   2.386   4.019  11.374  3.8120  2.0252 -1.5582
  826MOL0     H11445   2.140   4.076  11.727  0.6605 -1.7377  1.3400
  826MOL0     H11446   2.008   4.053  11.599 -1.8603 -3.9348  0.3659
  826MOL0     H11447   2.002   3.820  11.643 -1.5932  2.5509 -1.3327
  826MOL0     H11448   2.005   3.902  11.801 -0.0269  0.9137 -0.8630
  826MOL0     H11449   2.192   3.747  11.846 -0.0141  0.4590  0.7797
  826MOL0     H11450   2.268   3.880  11.784  1.7455 -2.1206  3.9941
  826MOL0     H11451   2.160   3.632  11.639 -1.1320  1.5125  1.0082
  826MOL0     H11452   2.249   3.761  11.537  1.6135  0.8029 -0.0274
  826MOL0     H11453   2.441   3.721  11.713 -0.8669 -1.0730  3.6409
  826MOL0     H11454   2.350   3.587  11.769  0.4329  0.9563  0.2185
  826MOL0     H11455   2.327   3.470  11.571  1.7667 -2.7708 -1.2309
  826MOL0     H11456   2.404   3.585  11.470 -1.2425 -0.4569 -0.1361
  826MOL0     H11457   2.632   3.547  11.564  3.1031 -3.4883  0.1001
  826MOL0     H11458   2.553   3.397  11.516  1.6676 -1.6289  2.1344
  826MOL0     H11459   2.546   3.482  11.812 -3.1377 -0.2789 -0.3448
  826MOL0     H11460   2.488   3.336  11.750 -2.7787  0.6067 -4.1805
  826MOL0     H11461   2.793   3.488  11.861  2.1322 -2.4592  3.4365
  826MOL0     H11462   3.069   3.416  11.819  0.5478  0.0687 -0.7908
  826MOL0     H11463   3.037   3.317  11.972 -0.4447 -1.5361 -0.5040
  826MOL0     H11464   3.142   3.219  11.703 -0.4632 -0.1403 -0.1799
  826MOL0     H11465   3.245   3.258  11.837  2.7174 -5.7075 -2.0482
  826MOL0     H11466   3.033   3.041  11.845  0.0885  0.0066  1.5341
  826MOL0     H11467   3.124   3.103  11.979 -2.8339  2.1731 -1.1687
  826MOL0     H11468   3.345   3.023  11.896 -0.3774 -1.9246  1.5377
  826MOL0     H11469   3.274   2.991  11.730 -0.0333 -0.9459 -0.4351
  826MOL0     H11470   3.368   2.798  11.655 -1.5669  1.5755 -0.4004
  826MOL0     H11471   3.321   2.596  11.524 -0.3677  2.3248 -0.7720
  826MOL0     H11472   2.848   2.248  11.411  0.7872  1.4379  0.7404
  826MOL0     H11473   2.846   2.016  11.295  1.4858 -3.1237  1.8364
  826MOL0     H11474   3.194   1.745  11.345 -0.0456  0.8029 -0.3740
  826MOL0     H11475   3.064   1.709  11.447 -0.7177 -0.2632 -0.1366
  826MOL0     H11476   3.084   1.520  11.306 -0.7001  0.3918  1.1576
  826MOL0     H11477   2.947   1.614  11.242  0.2777 -0.4272 -1.6789
  826MOL0     H11478   3.083   1.734  11.087 -1.3013 -0.0150  0.5140
  826MOL0     H11479   3.236   1.654  11.135  0.6098  1.0048  0.6114
  826MOL0     H11480   2.984   1.541  10.985 -1.4444 -3.0912 -0.7187
  826MOL0     H11481   3.107   1.431  11.038 -2.1021 -0.0992  2.5550
  826MOL0     H11482   3.154   1.497  10.810  1.3282 -0.4985 -0.0690
  826MOL0     H11483   3.288   1.542  10.910  0.9400 -0.1953 -3.3239
  826MOL0     H11484   3.051   1.738  10.846 -0.6918 -3.5957 -0.9580
  826MOL0     H11485   3.208   1.785  10.914 -0.4953  0.5987  0.7750
  826MOL0     H11486   3.150   1.667  10.648 -3.9301  3.8609 -1.2684
  826MOL0     H11487   3.314   1.738  10.708 -0.7432  0.3751  3.1921
  826MOL0     H11488   3.170   1.894  10.552  0.9848 -0.3148  0.0100
  826MOL0     H11489   3.049   1.893  10.687  0.7025 -1.5054  0.9143
  826MOL0     H11490   3.167   1.896  11.533 -1.6240 -0.3950  0.5035
  826MOL0     H11491   3.168   2.100  11.654  0.0739 -5.2838  0.9311
  826MOL0     H11492   2.964   2.523  11.758 -1.6710  2.8325 -0.1421
  826MOL0     H11493   3.018   2.713  11.892 -2.5809  0.4143 -2.1990
  826MOL0     H11494   2.115   4.285  11.598  0.6916  2.0653 -0.2757
  826MOL0     H11495   2.244   4.461  11.534 -1.7564 -2.4544  2.9019
  826MOL0     H11496   2.736   4.606  11.124  1.4018  0.4486 -0.3604
  826MOL0     H11497   2.788   4.836  11.072 -0.1186  1.8535  0.8923
  826MOL0     H11498   2.885   5.032  11.182  1.9229  1.7313  0.8462
  826MOL0     H11499   2.796   5.095  11.308  2.2990  1.9659 -0.4246
  826MOL0     H11500   2.824   5.294  11.238 -1.1080 -0.9779  0.6233
  826MOL0     H11501   2.748   5.261  11.077 -2.1557  1.8381  2.0726
  826MOL0     H11502   2.965   5.334  11.027 -2.8706  1.1526  4.2011
  826MOL0     H11503   3.007   5.160  11.021  2.4238 -2.3829  3.2633
  826MOL0     H11504   3.041   5.331  11.260  2.1255  0.2097 -1.0089
  826MOL0     H11505   3.095   5.160  11.251  1.7427  0.4634  0.0567
  826MOL0     H11506   3.359   5.467  11.062 -1.2410 -0.2840 -2.7928
  826MOL0     H11507   2.450   4.973  11.293  2.1387  0.7136  2.1755
  826MOL0     H11508   2.302   4.848  11.397  1.0509 -0.7988  2.0633
  826MOL0     H11509   2.259   4.704  11.308  0.3282 -2.2198  0.7801
  826MOL0     H11510   2.333   4.688  11.458 -3.0548 -1.5928 -1.3659
  827MOL0     O11511   9.801   2.780   2.098  1.1155 -0.4600  0.4520
  827MOL0     C11512   9.819   2.899   2.131 -0.1174  0.1909 -0.2312
  827MOL0     O11513   9.777   3.014   2.067 -0.4670  0.4598 -0.5064
  827MOL0     C11514   9.680   3.007   1.966  0.1521  0.8326 -0.0394
  827MOL0     C11515   9.571   3.094   1.979 -0.2718  0.6226  0.4247
  827MOL0     C11516   9.464   3.088   1.887 -0.5178 -0.4277  0.3651
  827MOL0     C11517   9.466   2.994   1.782 -0.0710  0.4382  0.4184
  827MOL0     O11518   9.355   2.997   1.695 -0.3668  0.0283  0.5249
  827MOL0     C11519   9.336   2.886   1.599 -0.1834 -0.1711  0.1471
  827MOL0     C11520   9.203   2.908   1.523 -1.0058 -0.4573  0.2915
  827MOL0     C11521   9.202   3.027   1.429 -0.4296 -0.6076  0.1457
  827MOL0     C11522   9.070   3.041   1.349 -0.7004 -0.0576 -0.2635
  827MOL0     C11523   9.061   2.939   1.235 -0.3475 -0.4740 -0.0159
  827MOL0     C11524   8.926   2.949   1.155 -0.1156  1.0512 -0.2493
  827MOL0     C11525   8.802   2.957   1.250  1.0196  0.3079 -0.8851
  827MOL0     C11526   8.755   2.818   1.315  0.0046  0.2130  0.7355
  827MOL0     N11527   8.641   2.848   1.409  0.1057  0.7625  0.4438
  827MOL0     C11528   8.645   2.932   1.515 -0.2507 -0.7208  0.3510
  827MOL0     C11529   8.525   2.986   1.515 -0.1577 -0.2971 -0.4129
  827MOL0     C11530   8.484   3.088   1.624 -0.2055  0.3477  0.5492
  827MOL0     C11531   8.456   3.032   1.765  0.1659  0.3515  0.1462
  827MOL0     C11532   8.319   2.990   1.775  1.2792  0.3375  0.0035
  827MOL0     C11533   8.286   2.962   1.928 -0.1537  0.2199 -0.7016
  827MOL0     O11534   8.241   3.081   1.992 -0.9621 -0.9069 -0.5139
  827MOL0     C11535   8.182   3.056   2.116 -0.2371  0.5590  0.2311
  827MOL0     C11536   8.225   2.964   2.213 -0.1401  0.3515  0.9351
  827MOL0     C11537   8.166   2.950   2.334 -0.3513  0.0199 -0.2974
  827MOL0     C11538   8.050   3.034   2.359  0.0435  0.9000  0.0145
  827MOL0     C11539   7.991   3.033   2.493  0.3262 -0.3188 -1.0123
  827MOL0     O11540   7.889   3.120   2.506 -0.1760 -0.4596  0.4423
  827MOL0     C11541   7.806   3.109   2.617 -0.6386  0.2706 -0.2315
  827MOL0     C11542   7.779   2.985   2.686 -0.5332  0.0694 -1.0891
  827MOL0     C11543   7.697   2.983   2.794  0.1587  0.7719 -0.1548
  827MOL0     C11544   7.660   3.096   2.858  0.7306 -0.3794 -0.3244
  827MOL0     O11545   7.592   3.106   2.979  0.3271  0.1298  0.3816
  827MOL0     C11546   7.565   2.980   3.049  0.6988  0.2677  0.6181
  827MOL0     C11547   7.470   3.009   3.159  0.0902  1.1812  0.8080
  827MOL0     C11548   7.329   3.024   3.109 -0.3879  1.0340  0.1383
  827MOL0     C11549   7.221   2.994   3.218  0.3029 -0.3564 -0.4505
  827MOL0     C11550   7.238   3.062   3.355 -0.6433 -0.4476 -0.9326
  827MOL0     C11551   7.107   3.109   3.426  0.1394 -1.1395  0.6803
  827MOL0     C11552   7.007   3.000   3.446 -1.0048 -0.0989  0.0393
  827MOL0     C11553   6.892   3.046   3.535  0.0705 -0.4997  0.2526
  827MOL0    Cl11554   6.761   2.919   3.569 -0.2521  0.1987  0.2832
  827MOL0     C11555   7.691   3.225   2.802  0.0614  0.3974 -0.1157
  827MOL0     C11556   7.771   3.228   2.684  0.2403  0.4420 -0.0629
  827MOL0     O11557   8.028   2.948   2.575 -0.4112  0.1056  0.1720
  827MOL0     C11558   8.006   3.124   2.261 -0.0434 -0.0484 -0.4703
  827MOL0     C11559   8.066   3.129   2.141 -0.8719  0.4383 -0.4739
  827MOL0     N11560   8.451   2.937   1.411 -0.1520 -0.1313  0.6170
  827MOL0     N11561   8.522   2.845   1.357  0.3690 -0.0804 -0.0224
  827MOL0     C11562   9.583   2.923   1.751  0.8852 -0.1757 -0.7059
  827MOL0     C11563   9.684   2.922   1.856 -0.4830 -0.5675 -0.7302
  827MOL0     C11564   9.921   2.908   2.231  0.1920 -0.1119 -0.1282
  827MOL0     C11565  10.036   2.816   2.234 -0.1238  0.7052 -0.8381
  827MOL0     C11566  10.129   2.820   2.345 -0.8310 -0.8879  0.8557
  827MOL0     C11567  10.109   2.921   2.445  0.6093  0.1272 -0.3805
  827MOL0     O11568  10.216   2.954   2.527  0.6229 -0.1645 -0.6545
  827MOL0     C11569  10.193   3.024   2.657  0.0326 -0.6043  0.5779
  827MOL0     C11570  10.322   3.023   2.740  0.4932  0.8936  0.2764
  827MOL0     C11571  10.429   3.122   2.689 -0.3218  0.2255 -0.3415
  827MOL0     C11572  10.528   3.066   2.588 -0.6603 -0.8441  0.5338
  827MOL0     C11573  10.629   2.978   2.636 -0.0871 -0.5997  0.4923
  827MOL0     C11574  10.720   2.916   2.678 -0.1166  0.1292  0.4687
  827MOL0     C11575   9.984   2.990   2.447 -0.3582  0.3367  0.6432
  827MOL0     C11576   9.892   2.992   2.347  0.0619 -0.9009  1.4421
  827MOL0     C11577   9.768   3.080   2.359  0.7012 -0.0196  0.1348
  827MOL0     H11578   9.574   3.134   2.080  1.9872  1.8860 -0.0679
  827MOL0     H11579   9.394   3.170   1.871  1.7336  1.2093 -1.9803
  827MOL0     H11580   9.417   2.874   1.526  0.1522  1.0025  0.3119
  827MOL0     H11581   9.334   2.788   1.648 -0.5044 -0.3608 -0.2454
  827MOL0     H11582   9.125   2.911   1.600  1.3496  1.9095  2.8225
  827MOL0     H11583   9.178   2.822   1.461 -0.0080 -0.0356 -0.7356
  827MOL0     H11584   9.274   2.996   1.352 -1.1229 -1.8784 -0.0275
  827MOL0     H11585   9.228   3.120   1.480  1.5216 -0.0076 -1.8062
  827MOL0     H11586   8.987   3.025   1.418 -1.6250 -0.1050 -1.3677
  827MOL0     H11587   9.066   3.145   1.315 -2.6842 -0.2352 -0.6517
  827MOL0     H11588   9.135   2.978   1.164 -2.5108 -0.0222 -2.1510
  827MOL0     H11589   9.093   2.835   1.247  0.1865 -0.8311 -3.5004
  827MOL0     H11590   8.934   3.049   1.110  0.4817  0.8587 -0.5745
  827MOL0     H11591   8.921   2.872   1.078  1.1134  0.7056 -0.0012
  827MOL0     H11592   8.714   2.975   1.187 -0.6901 -0.2966  1.2101
  827MOL0     H11593   8.821   3.033   1.325  3.4491 -0.3101 -0.8003
  827MOL0     H11594   8.722   2.750   1.235  1.8175  1.4295 -1.1452
  827MOL0     H11595   8.841   2.772   1.364 -1.1706 -2.0503  0.8143
  827MOL0     H11596   8.737   2.960   1.566  0.1042  3.1364 -2.0090
  827MOL0     H11597   8.567   3.159   1.619  0.9517 -0.7803  2.4338
  827MOL0     H11598   8.396   3.147   1.596 -1.1435  0.3059  3.1074
  827MOL0     H11599   8.529   2.951   1.777 -0.2852 -0.4872 -2.2655
  827MOL0     H11600   8.486   3.105   1.841 -1.9142  0.5216  0.8521
  827MOL0     H11601   8.290   2.908   1.708  1.6217 -1.9375  2.4563
  827MOL0     H11602   8.255   3.074   1.747 -0.8633 -1.0395  0.5213
  827MOL0     H11603   8.371   2.915   1.977  2.5384  3.5230 -1.7973
  827MOL0     H11604   8.198   2.896   1.930 -0.5487  0.7466 -0.4225
  827MOL0     H11605   8.310   2.902   2.189 -0.8998 -0.1116 -0.7510
  827MOL0     H11606   8.199   2.870   2.400 -2.0476 -1.3249 -1.0094
  827MOL0     H11607   7.802   2.893   2.633 -1.1641  0.6724 -2.4440
  827MOL0     H11608   7.677   2.885   2.835  4.0159 -0.4872 -0.8924
  827MOL0     H11609   7.537   2.894   2.987 -1.0797  1.8682 -0.9395
  827MOL0     H11610   7.657   2.939   3.089  1.2503  2.0630  1.2999
  827MOL0     H11611   7.476   2.925   3.229  1.9076 -1.2268 -1.9797
  827MOL0     H11612   7.501   3.096   3.218 -1.3117  2.9942 -0.9854
  827MOL0     H11613   7.315   3.125   3.070 -1.6021  0.6211 -0.5704
  827MOL0     H11614   7.319   2.944   3.034  1.6557 -1.7683  2.6153
  827MOL0     H11615   7.219   2.887   3.240  0.0097 -0.7459 -2.2261
  827MOL0     H11616   7.123   3.019   3.177  1.6509  2.1457 -2.4449
  827MOL0     H11617   7.291   3.156   3.335  1.7064 -1.3270  0.6606
  827MOL0     H11618   7.306   3.001   3.415  0.2591  1.3227 -0.0466
  827MOL0     H11619   7.140   3.140   3.525 -1.8511 -0.4482  1.1640
  827MOL0     H11620   7.068   3.197   3.374 -0.4966 -0.2520  2.6067
  827MOL0     H11621   7.064   2.932   3.510  1.0991  0.8835 -0.6862
  827MOL0     H11622   6.980   2.950   3.352  1.3119 -1.6911  0.1376
  827MOL0     H11623   6.931   3.077   3.633  3.2507 -1.5078 -0.5830
  827MOL0     H11624   6.833   3.134   3.507  1.1510  0.2181  0.1623
  827MOL0     H11625   7.646   3.316   2.839  0.0889  0.4679 -0.2548
  827MOL0     H11626   7.807   3.320   2.639  1.7100 -0.1353 -0.1109
  827MOL0     H11627   7.913   3.180   2.272  0.4530  0.3698  2.9344
  827MOL0     H11628   8.038   3.187   2.053 -2.0698 -0.9680 -1.0502
  827MOL0     H11629   9.592   2.859   1.664  0.6286 -2.9812  1.1732
  827MOL0     H11630   9.778   2.868   1.857  0.7190  1.4288 -0.0922
  827MOL0     H11631  10.080   2.760   2.152 -0.0515 -2.4343  1.1570
  827MOL0     H11632  10.223   2.766   2.339  0.0568  0.4447  2.1593
  827MOL0     H11633  10.105   2.984   2.708 -1.5453 -0.2740 -1.7260
  827MOL0     H11634  10.175   3.130   2.640  4.0494  0.1966  0.3452
  827MOL0     H11635  10.359   2.920   2.744 -2.5854 -0.2784  2.0540
  827MOL0     H11636  10.301   3.056   2.842 -0.4609 -2.4708  1.3150
  827MOL0     H11637  10.495   3.156   2.769 -2.1416 -3.7781  3.2521
  827MOL0     H11638  10.372   3.208   2.654 -0.2320  1.8443  3.1144
  827MOL0     H11639  10.468   3.037   2.501  0.6875  0.3986 -0.8831
  827MOL0     H11640  10.584   3.156   2.560 -1.2557 -1.3873 -2.8172
  827MOL0     H11641  10.791   2.843   2.710  0.8430  0.9204  0.2136
  827MOL0     H11642   9.975   3.065   2.525  2.3324  0.3921  0.9976
  827MOL0     H11643   9.684   3.011   2.362  1.3445 -0.8063  0.4988
  827MOL0     H11644   9.775   3.142   2.449  1.7119  0.6447 -0.3755
  827MOL0     H11645   9.758   3.141   2.269 -0.4638 -2.6192 -1.6234
  828MOL0     O11646   4.894   6.909   6.662  0.2804 -0.4962 -0.4313
  828MOL0     C11647   4.882   7.030   6.671 -0.3438 -0.1514  0.2341
  828MOL0     O11648   4.760   7.101   6.684  0.0987 -1.3275  0.4036
  828MOL0     C11649   4.643   7.052   6.735  0.3986  0.2181  0.2944
  828MOL0     C11650   4.531   7.141   6.718 -0.3470  0.5481 -0.4637
  828MOL0     C11651   4.413   7.111   6.782  0.5359 -0.0115  0.3709
  828MOL0     C11652   4.407   7.004   6.878  0.4093 -0.7192  0.3371
  828MOL0     O11653   4.295   6.975   6.955  0.2068  0.7315 -0.0479
  828MOL0     C11654   4.180   7.056   6.934  0.6934 -0.0596 -0.4272
  828MOL0     C11655   4.061   6.988   6.999 -0.2663  0.1399  0.5755
  828MOL0     C11656   4.020   6.870   6.906  0.0719 -0.1038 -0.2440
  828MOL0     C11657   3.887   6.800   6.956  0.1818 -0.0951  0.3129
  828MOL0     C11658   3.858   6.662   6.913 -0.7082  0.0165 -0.3420
  828MOL0     C11659   3.737   6.582   6.970 -0.3178  0.0682  0.0907
  828MOL0     C11660   3.730   6.430   6.938  0.5107 -0.5117  0.8367
  828MOL0     C11661   3.696   6.400   6.795 -0.6077 -0.2078  0.7646
  828MOL0     N11662   3.717   6.260   6.753  0.8012  0.1902 -0.4186
  828MOL0     C11663   3.675   6.152   6.829  0.4072 -0.0460 -0.4737
  828MOL0     C11664   3.749   6.049   6.781 -0.5629 -0.2499 -0.0219
  828MOL0     C11665   3.738   5.908   6.803  0.9310  0.1900 -0.0500
  828MOL0     C11666   3.703   5.845   6.668  0.3985 -0.0489 -0.7635
  828MOL0     C11667   3.557   5.879   6.608 -0.4553  0.5459 -0.9130
  828MOL0     C11668   3.556   5.833   6.465 -0.0919  0.4315 -0.3460
  828MOL0     O11669   3.638   5.923   6.401  0.3194  0.8049  0.2470
  828MOL0     C11670   3.614   5.945   6.271  0.2173  0.7216 -0.3390
  828MOL0     C11671   3.700   5.883   6.174  0.7119 -0.6708  0.2928
  828MOL0     C11672   3.673   5.913   6.036  0.1505  0.1828  0.2089
  828MOL0     C11673   3.578   6.007   5.998 -0.4493  0.1507 -0.3778
  828MOL0     C11674   3.570   6.050   5.862  0.9623  0.6564 -0.2523
  828MOL0     O11675   3.442   6.094   5.823  0.0165  0.1115  0.1686
  828MOL0     C11676   3.411   6.162   5.705 -0.1534  0.2972 -0.4127
  828MOL0     C11677   3.284   6.161   5.655 -0.5694 -0.6863  0.2658
  828MOL0     C11678   3.265   6.241   5.537  0.0737 -0.1095 -0.0594
  828MOL0     C11679   3.365   6.304   5.467  0.5856  0.9027  1.2108
  828MOL0     O11680   3.330   6.355   5.343  0.1941  0.5342 -0.4749
  828MOL0     C11681   3.363   6.488   5.313  0.1395 -0.4503 -0.2196
  828MOL0     C11682   3.241   6.567   5.268 -0.0232 -0.4844  0.0720
  828MOL0     C11683   3.280   6.700   5.219 -0.8062  0.6469 -1.3772
  828MOL0     C11684   3.171   6.806   5.231 -0.4960 -0.1893  0.1175
  828MOL0     C11685   3.233   6.917   5.158  0.5786 -0.0413 -0.6017
  828MOL0     C11686   3.158   7.040   5.182 -0.2952 -0.2154  0.1659
  828MOL0     C11687   3.233   7.166   5.161 -0.5092 -0.2409  0.6326
  828MOL0     C11688   3.153   7.296   5.179  0.1559 -0.4653 -0.9139
  828MOL0    Cl11689   3.246   7.444   5.157 -0.0837 -0.3458  0.0846
  828MOL0     C11690   3.490   6.305   5.521  0.1626  0.0107 -0.0324
  828MOL0     C11691   3.510   6.244   5.641 -0.7066 -0.6098  0.0785
  828MOL0     O11692   3.672   6.038   5.791 -0.2871  0.4147  0.2974
  828MOL0     C11693   3.493   6.055   6.092 -0.0699 -0.6100 -0.1533
  828MOL0     C11694   3.510   6.028   6.227 -0.4191 -0.6986 -0.8791
  828MOL0     N11695   3.863   6.101   6.717  0.2651 -0.3345  0.1799
  828MOL0     N11696   3.830   6.222   6.698  0.1153 -0.4337  0.6832
  828MOL0     C11697   4.516   6.910   6.888 -0.0805  0.3882  0.1020
  828MOL0     C11698   4.630   6.938   6.816 -1.1416 -0.5097  0.3900
  828MOL0     C11699   5.006   7.113   6.632 -0.7663  0.5242 -0.4832
  828MOL0     C11700   4.991   7.248   6.649 -0.5908 -0.5528 -0.4804
  828MOL0     C11701   5.095   7.336   6.621 -0.5358 -0.4208 -0.1425
  828MOL0     C11702   5.211   7.294   6.564  0.2263  0.2462  0.3825
  828MOL0     O11703   5.300   7.394   6.542  0.3237 -0.9379 -0.1663
  828MOL0     C11704   5.432   7.355   6.488 -0.6506 -1.1925 -1.1996
  828MOL0     C11705   5.529   7.283   6.584  1.3392 -0.0942 -0.6261
  828MOL0     C11706   5.679   7.279   6.539 -0.0215 -0.5867  0.8932
  828MOL0     C11707   5.706   7.221   6.399 -1.7010 -0.2625 -0.2488
  828MOL0     C11708   5.850   7.196   6.381 -0.4727 -0.0645  0.5636
  828MOL0     C11709   5.970   7.176   6.392 -0.2301  0.0301  0.8971
  828MOL0     C11710   5.235   7.155   6.531  0.2192  0.2755 -1.2415
  828MOL0     C11711   5.125   7.069   6.560 -0.2518  0.2253 -0.4793
  828MOL0     C11712   5.125   6.924   6.506  0.5048  0.3384  0.0407
  828MOL0     H11713   4.553   7.224   6.652 -3.2288 -1.9004 -5.0034
  828MOL0     H11714   4.334   7.186   6.775  1.5281  1.1065  0.7343
  828MOL0     H11715   4.195   7.153   6.982 -0.7683 -0.5239  1.0912
  828MOL0     H11716   4.147   7.078   6.832 -0.4882  2.6868  0.4750
  828MOL0     H11717   3.978   7.059   6.997 -0.2717  0.1357 -1.0702
  828MOL0     H11718   4.076   6.958   7.103 -2.4288  0.2900  0.9753
  828MOL0     H11719   4.103   6.800   6.922 -0.5524  0.0456  5.5579
  828MOL0     H11720   3.997   6.905   6.805 -3.0308  2.5479  1.2239
  828MOL0     H11721   3.877   6.799   7.065  1.0133 -1.7243  0.4119
  828MOL0     H11722   3.813   6.872   6.920  2.4361  1.7917 -0.8363
  828MOL0     H11723   3.859   6.675   6.805 -0.2315 -1.9467 -0.6089
  828MOL0     H11724   3.950   6.613   6.947 -2.0889 -1.7369  1.0585
  828MOL0     H11725   3.750   6.599   7.077 -0.6864 -2.9363  0.7144
  828MOL0     H11726   3.641   6.626   6.941 -0.2347 -0.8086 -1.6484
  828MOL0     H11727   3.658   6.384   7.005 -0.7885  0.8762  0.4590
  828MOL0     H11728   3.823   6.383   6.969  0.6326  0.8488  2.7111
  828MOL0     H11729   3.595   6.423   6.760 -0.0149  0.2792 -0.6969
  828MOL0     H11730   3.765   6.458   6.733 -2.5514  1.9924  0.4901
  828MOL0     H11731   3.591   6.140   6.896  0.2632 -0.2525 -0.6879
  828MOL0     H11732   3.819   5.865   6.862  0.4873  0.2648  0.6332
  828MOL0     H11733   3.653   5.904   6.871  1.8328  0.5654  1.1225
  828MOL0     H11734   3.785   5.862   6.598 -2.6933 -0.1586 -4.8088
  828MOL0     H11735   3.702   5.737   6.684  1.3100  0.1098  0.5108
  828MOL0     H11736   3.533   5.984   6.625 -0.2097  0.0787  3.4292
  828MOL0     H11737   3.485   5.813   6.658  1.8218 -1.6803 -0.3757
  828MOL0     H11738   3.450   5.829   6.438 -0.2464 -0.2013  0.3010
  828MOL0     H11739   3.601   5.737   6.440  1.4348  0.3885  2.2339
  828MOL0     H11740   3.789   5.826   6.198  0.6030 -0.4343  1.2688
  828MOL0     H11741   3.733   5.866   5.959  2.3675  1.6914  0.9148
  828MOL0     H11742   3.200   6.103   5.692 -1.5038 -1.4180 -2.7637
  828MOL0     H11743   3.164   6.240   5.496 -0.1615  0.0321  0.5154
  828MOL0     H11744   3.418   6.546   5.388  0.3658 -0.1800 -0.5905
  828MOL0     H11745   3.428   6.490   5.225  0.6869  2.7729  0.1033
  828MOL0     H11746   3.188   6.505   5.195 -1.9613 -0.9747  1.7723
  828MOL0     H11747   3.164   6.572   5.346 -1.5645  0.6318 -1.4351
  828MOL0     H11748   3.376   6.724   5.266 -2.7578 -2.1273  5.1991
  828MOL0     H11749   3.306   6.692   5.113 -0.6528  1.8763 -1.4531
  828MOL0     H11750   3.147   6.818   5.337  0.4127 -1.9248  0.5696
  828MOL0     H11751   3.077   6.774   5.186 -0.9856 -1.0848  1.6884
  828MOL0     H11752   3.233   6.883   5.054  0.3535 -2.6081  0.1602
  828MOL0     H11753   3.336   6.931   5.193  0.3783  0.4989 -0.2191
  828MOL0     H11754   3.083   7.040   5.103  0.3889 -5.7656 -0.8921
  828MOL0     H11755   3.120   7.052   5.284  0.1432 -0.3007  0.3440
  828MOL0     H11756   3.275   7.177   5.061  1.5253 -0.7598  1.3744
  828MOL0     H11757   3.323   7.163   5.223 -0.6305 -1.5774  0.7837
  828MOL0     H11758   3.069   7.302   5.110  0.0091  5.7437 -0.7423
  828MOL0     H11759   3.106   7.306   5.277 -0.7238  1.6563 -1.5030
  828MOL0     H11760   3.567   6.366   5.475  0.4460 -0.1472  0.2327
  828MOL0     H11761   3.604   6.255   5.694  0.3526 -1.4517 -1.5542
  828MOL0     H11762   3.425   6.137   6.069 -1.2120 -0.7044  2.4604
  828MOL0     H11763   3.445   6.077   6.298  0.0038  0.6868 -1.4206
  828MOL0     H11764   4.508   6.820   6.948  1.3783 -0.8372 -1.4312
  828MOL0     H11765   4.723   6.884   6.834  1.2506  2.9657 -0.4945
  828MOL0     H11766   4.895   7.296   6.669 -0.1951  0.3437 -0.6821
  828MOL0     H11767   5.083   7.442   6.641 -1.0437  0.2260 -3.3500
  828MOL0     H11768   5.481   7.444   6.447 -0.7444  0.9634  2.8192
  828MOL0     H11769   5.415   7.277   6.414  1.6804 -0.7275 -2.3066
  828MOL0     H11770   5.500   7.180   6.606  1.6411  0.4460  3.0402
  828MOL0     H11771   5.522   7.324   6.686 -2.1992  0.5362 -1.0051
  828MOL0     H11772   5.736   7.224   6.615  3.2429  0.6152 -0.4787
  828MOL0     H11773   5.720   7.380   6.542  1.1665 -0.9491 -0.9517
  828MOL0     H11774   5.657   7.123   6.398  0.8048 -1.6397  1.0893
  828MOL0     H11775   5.669   7.276   6.312 -1.0067 -1.2033 -1.1630
  828MOL0     H11776   6.076   7.161   6.385 -0.4310 -0.5336 -2.8685
  828MOL0     H11777   5.325   7.115   6.486  0.7899 -1.5926  1.3126
  828MOL0     H11778   5.214   6.908   6.445 -0.1307 -1.5315 -0.4752
  828MOL0     H11779   5.131   6.850   6.587 -1.4404 -0.6032 -0.6000
  828MOL0     H11780   5.035   6.916   6.444  0.3915 -0.2113  0.2727
  829MOL0     O11781   4.273   7.151   1.471 -0.5258 -0.6349 -0.4697
  829MOL0     C11782   4.257   7.031   1.491  0.0283 -1.1096  0.1359
  829MOL0     O11783   4.151   6.981   1.562 -0.1300  0.3287 -0.4596
  829MOL0     C11784   4.051   7.069   1.601  0.1167  0.6467  0.2742
  829MOL0     C11785   3.930   7.060   1.542  0.6983  0.1583 -0.4305
  829MOL0     C11786   3.832   7.149   1.571  0.4201 -0.9294  1.1524
  829MOL0     C11787   3.863   7.269   1.643  0.9334  0.3894 -0.3396
  829MOL0     O11788   3.758   7.340   1.695 -1.0717 -0.0568 -0.0928
  829MOL0     C11789   3.727   7.460   1.621 -0.8299 -0.3208  0.2575
  829MOL0     C11790   3.595   7.531   1.657 -0.7572 -0.3545 -0.6114
  829MOL0     C11791   3.593   7.590   1.799 -0.0155 -0.1434  0.4019
  829MOL0     C11792   3.719   7.670   1.831  0.7227 -0.0408 -1.1579
  829MOL0     C11793   3.706   7.749   1.967 -0.3525  0.5917  0.1409
  829MOL0     C11794   3.750   7.648   2.074 -0.3198  1.0242  0.8458
  829MOL0     C11795   3.760   7.711   2.210  0.3328 -0.3191  0.3798
  829MOL0     C11796   3.649   7.669   2.310 -0.6982 -0.0246  0.0880
  829MOL0     N11797   3.658   7.759   2.420 -0.0907  0.0222 -0.3791
  829MOL0     C11798   3.569   7.863   2.442 -0.4490  0.8355  0.5158
  829MOL0     C11799   3.599   7.919   2.559  0.7810 -0.4512  0.0625
  829MOL0     C11800   3.541   8.055   2.624 -0.8359 -0.5918  1.2755
  829MOL0     C11801   3.512   8.164   2.517 -0.2285  0.5593  0.4730
  829MOL0     C11802   3.458   8.295   2.571  0.3689 -0.7927  0.4708
  829MOL0     C11803   3.319   8.298   2.615  0.4191 -0.8531  0.1909
  829MOL0     O11804   3.228   8.253   2.516  0.3913 -1.0361  0.2847
  829MOL0     C11805   3.147   8.353   2.465 -1.0105 -0.1745 -0.7084
  829MOL0     C11806   3.183   8.462   2.388  0.3481  0.5718  0.4269
  829MOL0     C11807   3.092   8.566   2.365 -0.2253  0.4664  0.0204
  829MOL0     C11808   2.959   8.561   2.393 -0.0042  0.5821 -0.4847
  829MOL0     C11809   2.866   8.664   2.355 -0.8098 -0.1594  0.1805
  829MOL0     O11810   2.930   8.777   2.306  0.5891  0.5027 -0.6992
  829MOL0     C11811   2.850   8.867   2.241 -1.0782 -1.0570  0.0344
  829MOL0     C11812   2.910   8.987   2.229 -0.0778 -0.6071 -0.0991
  829MOL0     C11813   2.870   9.093   2.145 -0.0903 -0.5511 -0.7166
  829MOL0     C11814   2.751   9.073   2.068  1.0678  0.4232 -0.0967
  829MOL0     O11815   2.706   9.173   2.003  0.9280  0.1704  0.5152
  829MOL0     C11816   2.728   9.172   1.861  0.4992 -0.9692  1.1617
  829MOL0     C11817   2.770   9.311   1.817  0.5869 -1.7876  0.6425
  829MOL0     C11818   2.876   9.388   1.896 -0.2261 -0.3063  0.9095
  829MOL0     C11819   2.944   9.508   1.831  0.3425 -0.4876 -0.2852
  829MOL0     C11820   2.839   9.611   1.797  0.3997  0.3328  0.2974
  829MOL0     C11821   2.890   9.750   1.760 -0.4687  0.9593  0.5301
  829MOL0     C11822   2.955   9.748   1.626 -0.0311  1.1143 -0.9778
  829MOL0     C11823   2.997   9.889   1.585  0.1887  0.5013 -0.1795
  829MOL0    Cl11824   2.861   9.977   1.508 -0.3408 -0.4318 -0.5537
  829MOL0     C11825   2.688   8.950   2.082  0.0869  0.0435 -0.6216
  829MOL0     C11826   2.737   8.854   2.165  0.2946  1.0932  0.6846
  829MOL0     O11827   2.749   8.645   2.363 -0.1947  0.2910  0.0501
  829MOL0     C11828   2.917   8.448   2.461 -1.0018  1.1436  0.3067
  829MOL0     C11829   3.014   8.352   2.497 -0.4732 -0.2332 -0.8323
  829MOL0     N11830   3.709   7.843   2.604 -0.1539  0.2179 -0.0067
  829MOL0     N11831   3.720   7.734   2.532 -0.5026  0.7930  0.1582
  829MOL0     C11832   3.988   7.274   1.714  1.0226 -0.2756  0.8541
  829MOL0     C11833   4.078   7.167   1.698 -0.0930  0.0752 -0.3751
  829MOL0     C11834   4.366   6.938   1.443 -0.3942 -0.0550  0.0862
  829MOL0     C11835   4.379   6.819   1.509  0.0172  0.1633  0.2491
  829MOL0     C11836   4.485   6.728   1.483 -0.0899 -0.1415 -0.4108
  829MOL0     C11837   4.587   6.760   1.394  0.8027  0.4004 -0.0460
  829MOL0     O11838   4.695   6.673   1.394 -0.1916  0.0382  0.1589
  829MOL0     C11839   4.791   6.696   1.294 -0.6701  0.4175 -0.8167
  829MOL0     C11840   4.919   6.604   1.302 -0.1278  0.4612  0.3226
  829MOL0     C11841   4.874   6.462   1.322  0.2941  0.3508  0.3914
  829MOL0     C11842   4.985   6.350   1.324 -0.5784  1.2005 -0.1771
  829MOL0     C11843   5.033   6.291   1.194 -0.4063  0.2736 -0.7918
  829MOL0     C11844   5.068   6.239   1.088  0.4658  0.4000  0.4978
  829MOL0     C11845   4.567   6.872   1.313  0.3889 -0.5545  0.0733
  829MOL0     C11846   4.465   6.963   1.342  1.0228 -0.8129  0.7818
  829MOL0     C11847   4.460   7.082   1.249  1.1304  0.6844  0.3473
  829MOL0     H11848   3.921   6.974   1.476  1.9265  0.0835 -0.5271
  829MOL0     H11849   3.728   7.128   1.548  0.5460 -2.1436  1.6359
  829MOL0     H11850   3.803   7.534   1.646 -1.9472  0.7846  0.4523
  829MOL0     H11851   3.725   7.436   1.514 -1.2670  0.7520  0.0147
  829MOL0     H11852   3.507   7.466   1.649  1.5195 -3.4949 -2.0673
  829MOL0     H11853   3.587   7.611   1.583 -1.5563  2.8379  2.6503
  829MOL0     H11854   3.604   7.505   1.868  3.0070 -0.9815 -0.9249
  829MOL0     H11855   3.504   7.651   1.813 -0.7902 -1.1713  0.0628
  829MOL0     H11856   3.816   7.622   1.819  0.9256  0.4554 -1.5413
  829MOL0     H11857   3.737   7.751   1.760  2.2461  1.5488  0.9103
  829MOL0     H11858   3.758   7.845   1.969 -3.0995  2.2020  2.5364
  829MOL0     H11859   3.602   7.772   1.990 -1.1970 -1.5579 -1.2306
  829MOL0     H11860   3.673   7.570   2.074 -0.0796  0.7866  1.3135
  829MOL0     H11861   3.846   7.613   2.035  0.1623  1.9077  1.2153
  829MOL0     H11862   3.769   7.818   2.192 -1.5531  0.1478  1.8948
  829MOL0     H11863   3.853   7.679   2.258 -1.4003 -0.2377  4.1971
  829MOL0     H11864   3.548   7.683   2.270 -0.5477  0.3555 -0.1673
  829MOL0     H11865   3.658   7.565   2.341 -0.8720  0.5804  2.3274
  829MOL0     H11866   3.478   7.896   2.393 -1.8062 -0.2819  2.1716
  829MOL0     H11867   3.442   8.034   2.666 -0.2454 -0.6129  2.7022
  829MOL0     H11868   3.614   8.093   2.696 -0.5207 -1.3205  1.3468
  829MOL0     H11869   3.605   8.176   2.461  2.1004 -2.5460  3.2733
  829MOL0     H11870   3.437   8.116   2.453 -2.6812  0.7833  2.9773
  829MOL0     H11871   3.469   8.372   2.494  0.3866 -1.0022  0.2654
  829MOL0     H11872   3.520   8.326   2.656  0.0297  1.7924 -0.1204
  829MOL0     H11873   3.305   8.403   2.642  1.7905 -0.3575 -0.8765
  829MOL0     H11874   3.319   8.239   2.707 -2.7364 -2.5863 -0.7604
  829MOL0     H11875   3.288   8.467   2.361 -0.3266  1.7480 -2.3869
  829MOL0     H11876   3.133   8.653   2.314 -0.7735  1.0378  0.5465
  829MOL0     H11877   2.995   9.003   2.294 -0.7739 -0.3050  0.7605
  829MOL0     H11878   2.931   9.182   2.152  1.2070 -0.7784 -5.4231
  829MOL0     H11879   2.814   9.114   1.827  1.1337  0.9876 -0.8131
  829MOL0     H11880   2.636   9.147   1.807 -0.5628  0.9506  1.9712
  829MOL0     H11881   2.794   9.313   1.710 -0.3085  1.2351  0.4128
  829MOL0     H11882   2.684   9.378   1.817  2.4563  0.8359 -1.2413
  829MOL0     H11883   2.832   9.427   1.988  0.7126 -2.8774  2.5421
  829MOL0     H11884   2.951   9.316   1.929 -0.3822 -0.3536  1.1670
  829MOL0     H11885   2.996   9.486   1.737  1.8143  1.1658  0.0945
  829MOL0     H11886   3.019   9.555   1.894  0.4090 -3.3876  1.9998
  829MOL0     H11887   2.768   9.640   1.875 -1.3190  0.9246 -1.4216
  829MOL0     H11888   2.780   9.573   1.713  1.2059  2.3065 -1.2477
  829MOL0     H11889   2.800   9.813   1.759 -0.9274  0.4828  3.1373
  829MOL0     H11890   2.968   9.788   1.827  1.1150 -1.1721  0.0001
  829MOL0     H11891   2.891   9.710   1.547  2.8529  1.3422 -3.6350
  829MOL0     H11892   3.040   9.679   1.630  0.0992  1.3010 -0.4630
  829MOL0     H11893   3.037   9.930   1.678 -0.1412 -0.6407  0.4831
  829MOL0     H11894   3.074   9.885   1.508 -0.3130  0.8712 -0.7083
  829MOL0     H11895   2.594   8.931   2.032 -1.1377 -1.4872  2.0319
  829MOL0     H11896   2.687   8.758   2.157  2.0865  0.1433  0.1833
  829MOL0     H11897   2.811   8.429   2.480 -0.5984  0.1119  1.6950
  829MOL0     H11898   2.979   8.272   2.561 -1.1954 -0.9184 -2.0427
  829MOL0     H11899   4.011   7.357   1.779  1.0332 -0.2896  0.8683
  829MOL0     H11900   4.180   7.156   1.731 -0.5499 -1.4240  0.6553
  829MOL0     H11901   4.307   6.798   1.588  0.4045 -0.8504  0.3586
  829MOL0     H11902   4.494   6.641   1.548 -0.1764  0.5417  0.5412
  829MOL0     H11903   4.818   6.802   1.295 -0.6359  0.4075 -0.6486
  829MOL0     H11904   4.757   6.663   1.195  1.3698  0.0548 -1.4531
  829MOL0     H11905   4.990   6.639   1.377  1.0828 -0.6148 -0.2667
  829MOL0     H11906   4.982   6.617   1.213  0.1877  1.0551  0.6255
  829MOL0     H11907   4.814   6.435   1.235  1.1394  1.1044 -0.4543
  829MOL0     H11908   4.816   6.457   1.414  1.6670 -0.0678  1.2630
  829MOL0     H11909   5.070   6.391   1.380 -1.1588  0.3173  1.4383
  829MOL0     H11910   4.956   6.261   1.382 -0.8299  1.9107  0.8074
  829MOL0     H11911   5.086   6.180   1.000 -0.2853 -0.1415  0.6902
  829MOL0     H11912   4.633   6.880   1.227 -0.3511  2.3689 -0.3117
  829MOL0     H11913   4.470   7.181   1.296 -2.3389  0.4462  1.9675
  829MOL0     H11914   4.519   7.060   1.160  0.6192  0.3925  0.0766
  829MOL0     H11915   4.359   7.069   1.209  2.0461 -1.6791 -1.3696
  830MOL0     O11916   8.266   3.442  10.040 -0.3592 -0.6594  0.1182
  830MOL0     C11917   8.389   3.434  10.063  0.2215  0.2002  0.6133
  830MOL0     O11918   8.485   3.441   9.964  0.0475  0.2352 -0.0080
  830MOL0     C11919   8.479   3.374   9.845  0.0320 -1.2549  0.6209
  830MOL0     C11920   8.399   3.258   9.814  0.2261  0.3086 -0.2888
  830MOL0     C11921   8.398   3.203   9.690  0.4160  0.2158  0.1802
  830MOL0     C11922   8.484   3.252   9.598  1.2160  0.6125 -1.1738
  830MOL0     O11923   8.476   3.178   9.488  0.1447 -0.8527  0.7480
  830MOL0     C11924   8.557   3.190   9.372 -0.4943  0.2487 -0.6105
  830MOL0     C11925   8.512   3.090   9.262  0.2576  0.3859 -0.6409
  830MOL0     C11926   8.566   3.134   9.131 -0.3359  0.2855 -0.7827
  830MOL0     C11927   8.572   3.018   9.039 -0.7101 -0.4023  0.0310
  830MOL0     C11928   8.708   2.967   8.985 -0.9886  0.4122  0.5163
  830MOL0     C11929   8.698   2.841   8.901 -1.0006 -0.7438 -0.3920
  830MOL0     C11930   8.845   2.816   8.836 -0.3189  0.8274 -0.8235
  830MOL0     C11931   8.954   2.820   8.939  0.8639  0.0477 -1.0489
  830MOL0     N11932   9.081   2.759   8.891  0.6442 -0.0373 -0.3199
  830MOL0     C11933   9.106   2.634   8.855 -0.5655  0.3673  0.6830
  830MOL0     C11934   9.232   2.642   8.799  0.8540  0.0755 -0.3569
  830MOL0     C11935   9.307   2.530   8.728 -0.6409 -0.4408 -0.2104
  830MOL0     C11936   9.305   2.392   8.805 -0.3004  0.9292  0.0079
  830MOL0     C11937   9.402   2.297   8.733 -0.3680 -0.2427 -0.2030
  830MOL0     C11938   9.345   2.244   8.604  0.3807  0.1885  0.1681
  830MOL0     O11939   9.432   2.133   8.563 -0.3851 -0.8527 -0.2713
  830MOL0     C11940   9.562   2.157   8.539 -0.0443  0.8420  1.3406
  830MOL0     C11941   9.587   2.225   8.419 -0.1205 -0.9706 -1.3174
  830MOL0     C11942   9.725   2.238   8.376  0.1216  0.0714 -0.1243
  830MOL0     C11943   9.834   2.187   8.441  0.7116 -0.2828  0.4092
  830MOL0     C11944   9.975   2.211   8.410 -0.5126  0.1805  0.7100
  830MOL0     O11945   9.986   2.294   8.313 -0.6165 -0.1657  0.1461
  830MOL0     C11946  10.081   2.285   8.213 -0.4802  0.0068 -0.2152
  830MOL0     C11947  10.149   2.170   8.173 -0.1821 -0.4644  0.5680
  830MOL0     C11948  10.234   2.185   8.063  0.7318 -0.1952 -0.1572
  830MOL0     C11949  10.268   2.302   7.997 -0.2041  0.1730 -0.2842
  830MOL0     O11950  10.358   2.310   7.896  0.3091  0.6695  1.0729
  830MOL0     C11951  10.317   2.393   7.787 -0.2795 -0.3796 -0.3169
  830MOL0     C11952  10.424   2.400   7.670  0.0167  0.3255  0.1054
  830MOL0     C11953  10.489   2.273   7.621  0.3910  0.3570 -0.3049
  830MOL0     C11954  10.580   2.277   7.500  0.8276  0.3929  0.7173
  830MOL0     C11955  10.667   2.145   7.466  0.2521  0.7243 -0.1018
  830MOL0     C11956  10.697   2.144   7.310  0.3381 -0.4998 -0.0772
  830MOL0     C11957  10.795   2.029   7.280 -0.7347 -0.0166  0.8915
  830MOL0     C11958  10.836   2.033   7.136  0.9413  0.3182  0.0457
  830MOL0    Cl11959  10.971   2.153   7.134  0.0370 -0.1737 -0.3858
  830MOL0     C11960  10.218   2.414   8.059 -0.6321 -0.2135  0.2946
  830MOL0     C11961  10.131   2.408   8.166 -0.6970 -0.4804 -0.9533
  830MOL0     O11962  10.076   2.162   8.463  0.0338 -0.5042  0.3465
  830MOL0     C11963   9.802   2.118   8.559 -0.5311 -0.6555  0.4623
  830MOL0     C11964   9.669   2.108   8.607 -0.9254 -0.1493 -0.4141
  830MOL0     N11965   9.286   2.767   8.823 -0.2611 -0.3836 -0.6107
  830MOL0     N11966   9.190   2.840   8.858  0.0205  0.5694 -0.4957
  830MOL0     C11967   8.562   3.367   9.612 -0.8544  0.3393 -0.1618
  830MOL0     C11968   8.557   3.431   9.741  0.0447 -0.8866  1.4066
  830MOL0     C11969   8.442   3.442  10.196 -0.2896  0.1082  0.5329
  830MOL0     C11970   8.561   3.371  10.219 -0.6202  0.5387 -0.3604
  830MOL0     C11971   8.627   3.385  10.341 -0.5544  1.1726 -0.1168
  830MOL0     C11972   8.586   3.475  10.446 -0.6070  0.5302  0.1838
  830MOL0     O11973   8.657   3.507  10.563 -0.0774 -0.6206 -0.2209
  830MOL0     C11974   8.788   3.458  10.570 -0.3187 -1.1304 -1.3805
  830MOL0     C11975   8.846   3.516  10.699 -0.3872  0.6390 -1.0569
  830MOL0     C11976   9.004   3.514  10.700  0.2055  0.3462 -0.2344
  830MOL0     C11977   9.061   3.588  10.826 -0.0358  1.0942  0.2161
  830MOL0     C11978   9.044   3.498  10.944  0.8746 -0.3981  0.3485
  830MOL0     C11979   9.011   3.428  11.038 -0.0240 -0.4955  0.9451
  830MOL0     C11980   8.460   3.525  10.434  1.9154 -0.8215 -0.0228
  830MOL0     C11981   8.383   3.508  10.307 -0.9777  0.4527  0.3244
  830MOL0     C11982   8.248   3.581  10.312 -0.1513  0.8611  0.7482
  830MOL0     H11983   8.342   3.199   9.885  1.8239  0.0625  0.8414
  830MOL0     H11984   8.342   3.114   9.663 -1.5597  1.3270  0.3375
  830MOL0     H11985   8.528   3.287   9.331 -4.9265 -0.3640  0.5438
  830MOL0     H11986   8.665   3.178   9.380 -0.1974  1.1545 -2.5669
  830MOL0     H11987   8.404   3.082   9.274  0.1584 -0.0147 -1.7767
  830MOL0     H11988   8.553   2.991   9.283 -1.1827 -0.1951 -0.4869
  830MOL0     H11989   8.668   3.172   9.125  0.1472 -1.2294 -3.3534
  830MOL0     H11990   8.494   3.209   9.097 -0.9151 -0.3318 -0.9400
  830MOL0     H11991   8.515   2.931   9.073  0.3568 -1.0728  0.1704
  830MOL0     H11992   8.531   3.055   8.945  0.6777  1.2827  0.0498
  830MOL0     H11993   8.753   3.049   8.928  0.4782 -0.7485 -0.0736
  830MOL0     H11994   8.767   2.944   9.075 -2.2225  1.8284  1.7417
  830MOL0     H11995   8.679   2.756   8.968  1.6672 -0.0436  1.4319
  830MOL0     H11996   8.615   2.833   8.830 -2.2360 -1.1490  1.0342
  830MOL0     H11997   8.867   2.899   8.768 -3.0583  2.0954 -0.3039
  830MOL0     H11998   8.847   2.718   8.788 -0.6911  0.2378  0.3279
  830MOL0     H11999   8.971   2.924   8.968  1.1798 -0.6818  1.6198
  830MOL0     H12000   8.919   2.772   9.030 -0.1138 -1.2141 -2.0416
  830MOL0     H12001   9.044   2.545   8.870 -0.7379 -0.4506 -3.6010
  830MOL0     H12002   9.278   2.517   8.623 -0.8550  2.5069 -0.6051
  830MOL0     H12003   9.405   2.578   8.720 -0.2299 -1.6025 -3.7321
  830MOL0     H12004   9.318   2.401   8.913 -0.9306 -3.1552  0.5805
  830MOL0     H12005   9.204   2.349   8.804 -0.5554  1.4065  1.8799
  830MOL0     H12006   9.425   2.216   8.803 -0.3806  0.9184  1.1884
  830MOL0     H12007   9.499   2.346   8.720 -0.3637 -0.6722 -2.1524
  830MOL0     H12008   9.359   2.324   8.531  4.1411 -1.1783 -0.8384
  830MOL0     H12009   9.245   2.200   8.605 -0.3020  1.0771 -4.4323
  830MOL0     H12010   9.494   2.269   8.383 -1.1812 -1.8581  0.2051
  830MOL0     H12011   9.741   2.310   8.296  3.2663  2.0043  2.0095
  830MOL0     H12012  10.116   2.074   8.209 -2.7852  0.5423  1.0729
  830MOL0     H12013  10.284   2.102   8.013  1.8426  0.9710 -1.0805
  830MOL0     H12014  10.229   2.356   7.734  1.0218 -0.3406 -2.6068
  830MOL0     H12015  10.317   2.495   7.826  1.7294 -0.4852  0.0807
  830MOL0     H12016  10.368   2.441   7.586 -2.2490 -1.6557  0.5616
  830MOL0     H12017  10.503   2.474   7.692 -1.1717  2.2969 -1.8854
  830MOL0     H12018  10.568   2.246   7.691  0.4188  2.3682  0.4989
  830MOL0     H12019  10.413   2.194   7.622  3.0290 -2.3214  0.4706
  830MOL0     H12020  10.642   2.366   7.510  1.5634 -0.0085 -0.1302
  830MOL0     H12021  10.515   2.292   7.414  2.1943 -2.5279 -0.9656
  830MOL0     H12022  10.616   2.053   7.496  3.0044 -0.6910  0.5699
  830MOL0     H12023  10.761   2.157   7.522  0.7748  1.8155 -1.1946
  830MOL0     H12024  10.603   2.117   7.261 -0.0910  0.1938  0.3458
  830MOL0     H12025  10.734   2.242   7.281 -3.0967  0.3049 -2.2991
  830MOL0     H12026  10.737   1.939   7.306 -0.0932  0.2823  3.7150
  830MOL0     H12027  10.883   2.044   7.343  1.3187  6.5177 -2.5955
  830MOL0     H12028  10.877   1.940   7.096  1.8116  0.1476  1.2732
  830MOL0     H12029  10.763   2.074   7.065  0.7642 -0.0188  0.0305
  830MOL0     H12030  10.240   2.515   8.025  4.0005 -0.7136  1.1846
  830MOL0     H12031  10.087   2.501   8.199  5.3859  3.5376 -2.5069
  830MOL0     H12032   9.874   2.094   8.637 -0.3984 -3.6308 -0.4594
  830MOL0     H12033   9.656   2.055   8.700 -0.4651 -1.9129 -1.3114
  830MOL0     H12034   8.616   3.412   9.530 -0.2352 -0.0590  0.0273
  830MOL0     H12035   8.593   3.531   9.759  2.6727 -0.8836 -2.5800
  830MOL0     H12036   8.600   3.303  10.145 -1.3442  1.2739 -1.4436
  830MOL0     H12037   8.726   3.343  10.352 -1.1988 -0.4648 -0.2666
  830MOL0     H12038   8.838   3.494  10.480 -0.5862 -0.7072 -1.3607
  830MOL0     H12039   8.802   3.350  10.581  0.6324 -0.9000 -0.0425
  830MOL0     H12040   8.804   3.454  10.779  0.0576 -0.9307 -1.9985
  830MOL0     H12041   8.822   3.623  10.708 -0.0783  0.7153 -1.1523
  830MOL0     H12042   9.042   3.569  10.614  0.1077 -2.6881 -2.3857
  830MOL0     H12043   9.040   3.411  10.689 -0.3998  0.1129 -0.0908
  830MOL0     H12044   9.169   3.606  10.823  0.3901 -0.4020  3.2098
  830MOL0     H12045   9.000   3.678  10.835 -4.0820 -1.3215 -0.8816
  830MOL0     H12046   8.998   3.379  11.132  1.0538  1.3090  2.0875
  830MOL0     H12047   8.405   3.598  10.491 -1.4227 -1.5650 -2.0302
  830MOL0     H12048   8.178   3.553  10.233  3.4636 -1.5213 -1.9450
  830MOL0     H12049   8.201   3.562  10.409 -2.4326 -0.0895 -0.4648
  830MOL0     H12050   8.274   3.686  10.298  1.2826  0.2094 -2.3603
  831MOL0     O12051   4.782   7.573   2.542  0.5170 -0.1218  0.4492
  831MOL0     C12052   4.773   7.638   2.440  0.4547 -0.4965 -0.3466
  831MOL0     O12053   4.704   7.601   2.326 -0.0631  0.0729  0.3994
  831MOL0     C12054   4.650   7.470   2.320 -0.4743 -1.1104 -0.8683
  831MOL0     C12055   4.517   7.451   2.339  0.4008  0.8674  0.5420
  831MOL0     C12056   4.471   7.318   2.322 -0.8894 -0.2129  0.8375
  831MOL0     C12057   4.565   7.214   2.315  1.2427  0.5261  1.0998
  831MOL0     O12058   4.500   7.087   2.333 -0.6284 -0.6592 -0.2988
  831MOL0     C12059   4.578   6.993   2.402 -0.4014  0.4986  0.5023
  831MOL0     C12060   4.495   6.864   2.375 -1.4086 -0.3852  0.2434
  831MOL0     C12061   4.358   6.890   2.455 -0.1455 -0.2991 -0.4351
  831MOL0     C12062   4.270   6.764   2.462  1.2362 -0.8878  0.6835
  831MOL0     C12063   4.244   6.689   2.333 -0.5086 -0.1297 -0.0691
  831MOL0     C12064   4.156   6.574   2.366  0.0869 -0.9392  0.4782
  831MOL0     C12065   4.008   6.615   2.382  0.3534  0.0697  0.7097
  831MOL0     C12066   3.925   6.512   2.465  0.5706 -0.4786 -0.4147
  831MOL0     N12067   3.934   6.366   2.414 -0.4560  0.3562  0.4932
  831MOL0     C12068   3.905   6.320   2.284 -0.9166 -1.7135 -0.2729
  831MOL0     C12069   3.938   6.188   2.276 -0.0239  0.4910 -0.2412
  831MOL0     C12070   3.931   6.087   2.168  0.7487  0.3757  0.5783
  831MOL0     C12071   4.037   5.987   2.191  0.7609  0.2630 -0.1590
  831MOL0     C12072   4.034   5.872   2.086  0.9552 -0.7712  0.2819
  831MOL0     C12073   4.140   5.771   2.134  0.3240 -0.1078 -0.2129
  831MOL0     O12074   4.091   5.700   2.250 -0.4600 -0.0807  0.4524
  831MOL0     C12075   4.104   5.564   2.246 -0.4671  0.3870 -0.3375
  831MOL0     C12076   4.216   5.488   2.263  0.1786 -0.4310 -0.1922
  831MOL0     C12077   4.208   5.351   2.271  0.9207 -0.5487 -0.7582
  831MOL0     C12078   4.086   5.286   2.276 -0.1140 -0.6784  0.5423
  831MOL0     C12079   4.089   5.141   2.297  0.0601  1.0677 -1.0423
  831MOL0     O12080   4.198   5.078   2.282 -0.1387  1.3584 -0.7389
  831MOL0     C12081   4.211   4.951   2.331 -0.1844  0.0022 -0.2813
  831MOL0     C12082   4.337   4.923   2.389  1.1648 -0.7238 -0.2116
  831MOL0     C12083   4.346   4.812   2.463 -0.2952  0.3128  0.2349
  831MOL0     C12084   4.238   4.722   2.478  0.9985 -0.7499 -0.2203
  831MOL0     O12085   4.254   4.624   2.567 -0.1115 -1.2925  0.8396
  831MOL0     C12086   4.196   4.497   2.545  0.0993  0.7926  0.5829
  831MOL0     C12087   4.219   4.415   2.674  0.5390  1.3040 -0.3601
  831MOL0     C12088   4.145   4.280   2.669  0.6482  0.1678 -0.0298
  831MOL0     C12089   4.237   4.164   2.688  0.3135 -0.2905  0.3866
  831MOL0     C12090   4.157   4.033   2.677  0.8264 -0.5170  0.3720
  831MOL0     C12091   4.263   3.928   2.724  0.3105 -0.0078  0.4626
  831MOL0     C12092   4.206   3.787   2.716  0.3466  0.3580 -0.5177
  831MOL0     C12093   4.308   3.679   2.757  0.6125 -0.2103  0.2436
  831MOL0    Cl12094   4.307   3.652   2.938  0.6487  0.0785  0.0182
  831MOL0     C12095   4.129   4.733   2.389 -0.1316 -0.3113 -0.0220
  831MOL0     C12096   4.116   4.848   2.313  0.0213  0.3477 -0.4393
  831MOL0     O12097   3.989   5.099   2.350  0.0530  0.1539  0.1280
  831MOL0     C12098   3.963   5.368   2.264 -0.2677 -0.2546  1.1789
  831MOL0     C12099   3.982   5.502   2.245 -0.0463 -0.4907 -0.6711
  831MOL0     N12100   3.998   6.167   2.405  0.2043 -0.2819 -1.1051
  831MOL0     N12101   4.004   6.270   2.475  0.0051  0.5215  0.2776
  831MOL0     C12102   4.694   7.241   2.303  0.3990  0.6169 -0.2300
  831MOL0     C12103   4.741   7.364   2.303  0.0300 -0.5297 -0.3115
  831MOL0     C12104   4.851   7.769   2.414 -0.1061 -0.5218  0.1527
  831MOL0     C12105   4.905   7.799   2.285  0.4007  0.1866  0.3660
  831MOL0     C12106   4.998   7.911   2.267  0.3501  0.5966 -0.7940
  831MOL0     C12107   5.028   7.999   2.366 -0.9472 -0.6185  0.6733
  831MOL0     O12108   5.083   8.129   2.353  0.2264 -1.0293  0.0374
  831MOL0     C12109   5.197   8.151   2.271  2.0546  0.8104  0.1093
  831MOL0     C12110   5.269   8.269   2.335 -0.3697  0.9477 -1.1236
  831MOL0     C12111   5.165   8.379   2.351  0.1226  0.6683 -0.3258
  831MOL0     C12112   5.091   8.411   2.214  0.0598 -0.2902 -0.3279
  831MOL0     C12113   5.164   8.436   2.091 -0.1975 -0.4386  0.2977
  831MOL0     C12114   5.234   8.448   1.992 -0.9743 -0.1803  0.2658
  831MOL0     C12115   4.974   7.966   2.495  0.0615  0.3236 -1.1354
  831MOL0     C12116   4.890   7.861   2.523  0.7228  0.0642  0.7705
  831MOL0     C12117   4.832   7.864   2.655  0.3477 -0.0956 -0.8338
  831MOL0     H12118   4.439   7.526   2.346  0.4226  1.5359 -3.7947
  831MOL0     H12119   4.365   7.296   2.321 -0.3399 -3.3065  1.2764
  831MOL0     H12120   4.679   6.976   2.363 -1.8907 -0.1439 -3.7037
  831MOL0     H12121   4.583   7.013   2.509 -0.0589  0.6260  0.4627
  831MOL0     H12122   4.537   6.769   2.408 -3.0752 -0.8046  1.2489
  831MOL0     H12123   4.481   6.852   2.267 -0.8917  1.7534 -0.0978
  831MOL0     H12124   4.299   6.974   2.417 -0.5537 -0.0088  0.7808
  831MOL0     H12125   4.388   6.922   2.555 -0.4309  2.0158 -1.0367
  831MOL0     H12126   4.307   6.697   2.540 -1.3091 -3.4850 -0.1651
  831MOL0     H12127   4.178   6.793   2.514  1.1959 -0.4498  0.3687
  831MOL0     H12128   4.191   6.755   2.264 -1.9934 -0.5062  0.6571
  831MOL0     H12129   4.340   6.658   2.290 -1.4260 -0.2355 -2.1596
  831MOL0     H12130   4.150   6.516   2.274 -2.9288  0.6767 -0.4876
  831MOL0     H12131   4.186   6.513   2.452 -2.1558 -0.1661  1.9134
  831MOL0     H12132   3.960   6.620   2.283  1.3000 -0.0746  0.2298
  831MOL0     H12133   3.992   6.710   2.433  0.2987 -1.6724  4.1801
  831MOL0     H12134   3.967   6.507   2.566  1.2224 -4.7570 -0.6987
  831MOL0     H12135   3.818   6.535   2.470  0.4923 -0.4788 -1.6452
  831MOL0     H12136   3.858   6.393   2.220  3.0894  0.2603 -1.3131
  831MOL0     H12137   3.830   6.046   2.179 -1.2429  4.2932 -0.9049
  831MOL0     H12138   3.939   6.140   2.072  3.1546  0.3120  0.6862
  831MOL0     H12139   4.139   6.026   2.199  1.6205 -1.3482 -2.1647
  831MOL0     H12140   4.037   5.941   2.290 -1.0256 -0.8533 -0.6341
  831MOL0     H12141   4.057   5.909   1.985  0.1037 -6.2370 -2.2914
  831MOL0     H12142   3.933   5.832   2.079  0.9926 -0.8809  0.3844
  831MOL0     H12143   4.218   5.838   2.171 -1.3002  2.9353 -1.9118
  831MOL0     H12144   4.189   5.708   2.060 -0.7528 -0.9578 -0.2206
  831MOL0     H12145   4.316   5.529   2.274 -0.7711  1.3176  3.6047
  831MOL0     H12146   4.303   5.298   2.278  0.7168 -0.8806 -0.4505
  831MOL0     H12147   4.403   5.009   2.382 -1.4072  1.4229 -0.1273
  831MOL0     H12148   4.437   4.788   2.517 -0.0508 -1.2661 -0.8356
  831MOL0     H12149   4.088   4.498   2.526  0.3097  1.8783 -0.6759
  831MOL0     H12150   4.247   4.437   2.469 -0.6601  1.3237 -0.3764
  831MOL0     H12151   4.327   4.410   2.685  0.8668  3.2502 -2.0317
  831MOL0     H12152   4.189   4.475   2.760 -4.3770  1.1739 -1.6564
  831MOL0     H12153   4.076   4.282   2.753  2.4058 -0.5891  1.5147
  831MOL0     H12154   4.096   4.264   2.572 -0.8694  0.9891  0.5848
  831MOL0     H12155   4.272   4.163   2.792 -2.3412 -2.1405  1.3931
  831MOL0     H12156   4.320   4.162   2.617  0.6590 -0.1764  0.7835
  831MOL0     H12157   4.112   4.024   2.578 -0.7633  1.1667  0.8993
  831MOL0     H12158   4.068   4.031   2.741  0.1647 -0.0672 -0.5230
  831MOL0     H12159   4.350   3.928   2.658  0.3012 -0.9760  0.4361
  831MOL0     H12160   4.289   3.935   2.830 -0.6766  2.7156  0.6066
  831MOL0     H12161   4.174   3.749   2.619  1.3462 -1.8217 -0.0600
  831MOL0     H12162   4.113   3.793   2.773 -1.3303  0.7529 -3.0925
  831MOL0     H12163   4.271   3.588   2.708  2.0063  0.3933 -2.0807
  831MOL0     H12164   4.406   3.711   2.719  1.8239 -1.9003  1.7786
  831MOL0     H12165   4.049   4.661   2.396 -0.1142 -0.3227  0.0702
  831MOL0     H12166   4.031   4.851   2.246 -0.9243  1.3983  0.7528
  831MOL0     H12167   3.866   5.318   2.266 -0.5723  0.3305  1.0842
  831MOL0     H12168   3.898   5.569   2.232 -0.1192  0.0963  2.2048
  831MOL0     H12169   4.773   7.166   2.304 -1.9249 -2.0589 -2.3940
  831MOL0     H12170   4.844   7.394   2.290  0.1440  0.7168  2.5872
  831MOL0     H12171   4.881   7.733   2.202  1.5742 -2.6986  2.1564
  831MOL0     H12172   5.037   7.931   2.167  0.1746  1.8383 -0.6298
  831MOL0     H12173   5.162   8.169   2.170  4.1944  0.8423 -0.6894
  831MOL0     H12174   5.259   8.060   2.271  2.4762  1.0438  1.9729
  831MOL0     H12175   5.356   8.297   2.276 -0.9908 -1.5032 -3.3854
  831MOL0     H12176   5.297   8.240   2.437 -2.9010  1.4448 -0.1982
  831MOL0     H12177   5.223   8.460   2.395 -0.6306 -0.1380  2.3497
  831MOL0     H12178   5.091   8.340   2.421  1.1000 -2.2070 -0.7555
  831MOL0     H12179   5.012   8.338   2.198 -1.9987  0.9119  3.2088
  831MOL0     H12180   5.034   8.503   2.234  2.4130  1.1144  0.3044
  831MOL0     H12181   5.297   8.472   1.909 -0.0126 -1.5897  0.5411
  831MOL0     H12182   4.985   8.040   2.573  0.6834 -0.8939 -0.0216
  831MOL0     H12183   4.723   7.853   2.643  0.3518 -1.2160  0.0427
  831MOL0     H12184   4.883   7.780   2.703  1.9092  1.8981  1.2189
  831MOL0     H12185   4.855   7.954   2.713  0.0145  0.3946 -1.4433
  832MOL0     O12186   1.620   8.930   2.021  0.7309 -0.6135  0.5278
  832MOL0     C12187   1.581   8.954   2.137  1.0475 -0.1008  0.8637
  832MOL0     O12188   1.643   8.920   2.260 -1.2334  0.0564 -0.8263
  832MOL0     C12189   1.759   8.846   2.246  0.9369  0.3560 -0.6800
  832MOL0     C12190   1.879   8.885   2.312 -0.1508  0.7017 -0.3417
  832MOL0     C12191   1.999   8.825   2.276  0.1684  0.2957 -0.4638
  832MOL0     C12192   2.004   8.719   2.189 -0.3641  0.0824  0.2474
  832MOL0     O12193   2.136   8.677   2.150 -0.3413 -0.5523 -0.7285
  832MOL0     C12194   2.171   8.552   2.101  0.0255 -0.5554 -0.9177
  832MOL0     C12195   2.220   8.453   2.205  0.4995  0.0705  0.5130
  832MOL0     C12196   2.108   8.380   2.276  0.0697  0.4623 -0.4585
  832MOL0     C12197   2.154   8.260   2.368  0.3560 -0.8188  0.6054
  832MOL0     C12198   2.181   8.120   2.313 -0.2628 -0.9375  0.0548
  832MOL0     C12199   2.208   8.005   2.405  0.0439  1.1725  0.4703
  832MOL0     C12200   2.346   8.025   2.465 -1.0292 -0.4403  0.6231
  832MOL0     C12201   2.398   7.898   2.533  0.1415 -0.3550  0.7176
  832MOL0     N12202   2.464   7.801   2.444 -0.6981  0.0504  0.2343
  832MOL0     C12203   2.597   7.752   2.472 -0.2859 -0.0210 -0.2168
  832MOL0     C12204   2.616   7.667   2.369 -0.2628 -0.3161  1.2162
  832MOL0     C12205   2.745   7.601   2.340  1.0188  0.5758 -0.2276
  832MOL0     C12206   2.837   7.712   2.281  0.1437 -0.5885 -0.1019
  832MOL0     C12207   2.843   7.713   2.132 -0.1634 -1.2078  0.1221
  832MOL0     C12208   2.940   7.825   2.078  0.1508 -0.9095 -0.3982
  832MOL0     O12209   2.920   7.840   1.929  0.0830  0.3749  0.1347
  832MOL0     C12210   2.979   7.954   1.868  0.6705 -0.4287 -0.4266
  832MOL0     C12211   2.966   7.951   1.734 -0.8525 -0.7168 -0.3538
  832MOL0     C12212   2.986   8.060   1.655 -0.1267 -0.1827 -0.7115
  832MOL0     C12213   3.047   8.174   1.710 -0.0008 -0.2185  0.9523
  832MOL0     C12214   3.089   8.282   1.611 -0.0389  0.0572 -0.5524
  832MOL0     O12215   3.061   8.264   1.477 -0.3871  0.2617 -0.4901
  832MOL0     C12216   3.077   8.375   1.405 -0.3850 -0.0785 -0.5439
  832MOL0     C12217   3.186   8.410   1.330 -0.0409 -0.7168 -0.1581
  832MOL0     C12218   3.191   8.524   1.254  0.2505  0.2098  0.0371
  832MOL0     C12219   3.092   8.613   1.252 -0.0298  0.0951 -0.6003
  832MOL0     O12220   3.107   8.705   1.151  0.4723 -0.2288 -0.1663
  832MOL0     C12221   3.014   8.815   1.144  0.6743 -0.4099  0.5037
  832MOL0     C12222   3.060   8.918   1.039  0.4646 -0.2725 -0.1698
  832MOL0     C12223   2.968   9.029   1.018  0.0442  0.7847  0.3738
  832MOL0     C12224   3.000   9.105   0.880 -1.1739  0.5236 -0.4790
  832MOL0     C12225   2.900   9.211   0.862  0.0150 -0.2616  0.1231
  832MOL0     C12226   2.967   9.313   0.755  0.3056 -0.5277 -0.4741
  832MOL0     C12227   3.069   9.392   0.831  0.4687 -0.4533 -0.4034
  832MOL0     C12228   3.104   9.520   0.755  0.2452  0.8087 -1.1148
  832MOL0    Cl12229   3.221   9.603   0.848  0.3599 -0.3777  0.3340
  832MOL0     C12230   2.977   8.596   1.339 -0.6955 -0.7446 -0.0572
  832MOL0     C12231   2.975   8.480   1.418 -0.2173  0.0426  0.4136
  832MOL0     O12232   3.145   8.380   1.660 -0.3382 -0.1623  0.3963
  832MOL0     C12233   3.089   8.177   1.849 -0.2780  0.3938  0.1289
  832MOL0     C12234   3.053   8.065   1.922 -1.1179  0.1376 -0.1648
  832MOL0     N12235   2.513   7.682   2.276 -0.2741  0.3343  0.5300
  832MOL0     N12236   2.423   7.749   2.325  0.6274 -0.5572  0.0495
  832MOL0     C12237   1.882   8.663   2.145 -0.8046  0.3496  0.0260
  832MOL0     C12238   1.763   8.725   2.173  0.2016 -1.5254  0.0330
  832MOL0     C12239   1.480   9.062   2.165  0.6173 -0.1566  0.5834
  832MOL0     C12240   1.495   9.149   2.274 -0.4699 -0.7261 -0.3446
  832MOL0     C12241   1.385   9.240   2.302 -0.0753 -0.7832  0.2573
  832MOL0     C12242   1.278   9.256   2.219  0.3593  1.2664 -0.0782
  832MOL0     O12243   1.176   9.338   2.255 -0.2849  0.5073 -1.0783
  832MOL0     C12244   1.055   9.363   2.181  1.0039  0.2260 -0.7361
  832MOL0     C12245   0.966   9.475   2.253 -0.5343  0.1673  1.0372
  832MOL0     C12246   0.895   9.428   2.383  0.5665  0.0632 -1.0563
  832MOL0     C12247   0.781   9.528   2.410 -0.1431  1.0841  0.1560
  832MOL0     C12248   0.698   9.517   2.534 -0.0974 -0.2688  0.6843
  832MOL0     C12249   0.620   9.504   2.623  0.4921  0.1976 -0.0022
  832MOL0     C12250   1.271   9.179   2.107 -0.7313  0.3972 -0.5916
  832MOL0     C12251   1.370   9.081   2.078 -0.4662 -0.5114  0.0974
  832MOL0     C12252   1.346   8.997   1.947  0.4074 -0.2904  0.0740
  832MOL0     H12253   1.879   8.967   2.383 -0.2804  1.2209 -0.9248
  832MOL0     H12254   2.094   8.857   2.319  0.2473  1.9046 -1.7360
  832MOL0     H12255   2.090   8.500   2.048  1.3059 -1.6692 -1.8707
  832MOL0     H12256   2.254   8.572   2.033  1.0475  2.2758  0.9983
  832MOL0     H12257   2.288   8.513   2.267  2.2756  0.1510 -1.3939
  832MOL0     H12258   2.294   8.384   2.162  0.3130  0.0775  0.1846
  832MOL0     H12259   2.041   8.341   2.199 -2.4514  2.0368  0.8101
  832MOL0     H12260   2.059   8.468   2.319  1.8032  1.4180 -0.3405
  832MOL0     H12261   2.246   8.293   2.418  1.7134 -0.0702 -2.2248
  832MOL0     H12262   2.077   8.241   2.443  1.8032 -2.2550  1.8163
  832MOL0     H12263   2.091   8.092   2.257 -1.2700 -0.2658  1.3005
  832MOL0     H12264   2.255   8.133   2.234 -1.9512  0.3841 -1.3897
  832MOL0     H12265   2.130   7.985   2.479 -0.5556 -1.0976 -0.6493
  832MOL0     H12266   2.213   7.917   2.339  2.8437  0.7345  1.1638
  832MOL0     H12267   2.357   8.105   2.539  4.9100  0.5278 -0.8037
  832MOL0     H12268   2.415   8.047   2.384 -0.2030 -1.6365  0.9758
  832MOL0     H12269   2.463   7.934   2.612 -1.7244  4.4612  0.3959
  832MOL0     H12270   2.303   7.856   2.567 -1.0679  2.5757  1.3198
  832MOL0     H12271   2.676   7.786   2.538  1.1382 -2.1697 -0.7003
  832MOL0     H12272   2.776   7.572   2.441  1.9700  1.0894 -0.3564
  832MOL0     H12273   2.727   7.515   2.275 -0.4249 -0.1550  1.0638
  832MOL0     H12274   2.842   7.815   2.318  3.0066 -0.4339 -0.7471
  832MOL0     H12275   2.939   7.683   2.306  1.9570  2.5794 -2.8981
  832MOL0     H12276   2.744   7.723   2.086  1.0872  0.7936 -2.3871
  832MOL0     H12277   2.882   7.612   2.116  0.7620 -1.0620  1.3922
  832MOL0     H12278   3.045   7.810   2.103 -0.0466 -0.5304  0.7652
  832MOL0     H12279   2.923   7.926   2.116  1.3408 -0.0679 -2.0030
  832MOL0     H12280   2.936   7.856   1.690 -0.0653 -0.8733 -0.5688
  832MOL0     H12281   2.953   8.051   1.552 -0.0062  0.4554 -0.8099
  832MOL0     H12282   3.257   8.328   1.339 -1.9081 -2.4573 -0.4475
  832MOL0     H12283   3.278   8.537   1.190  1.3499  1.9557  1.7484
  832MOL0     H12284   2.927   8.764   1.103 -0.6695  2.1205 -0.0275
  832MOL0     H12285   2.991   8.853   1.244  2.0158 -0.9128  1.0266
  832MOL0     H12286   3.153   8.963   1.075  1.1652 -0.7909 -1.2466
  832MOL0     H12287   3.093   8.862   0.951  5.4457  0.0788  1.1746
  832MOL0     H12288   2.866   8.991   1.023  0.3568  0.0435  1.4394
  832MOL0     H12289   2.984   9.099   1.100 -0.4994  0.7865  0.4801
  832MOL0     H12290   3.005   9.039   0.793 -1.2549  2.2322 -1.8604
  832MOL0     H12291   3.099   9.149   0.899 -0.0207 -1.5828 -1.3569
  832MOL0     H12292   2.876   9.272   0.949  0.9671  1.2998 -0.6489
  832MOL0     H12293   2.808   9.172   0.817 -1.0683  1.0749  1.0990
  832MOL0     H12294   3.017   9.261   0.672 -0.4471 -0.2087 -1.1378
  832MOL0     H12295   2.893   9.387   0.722 -1.1454 -2.0594 -0.8049
  832MOL0     H12296   3.162   9.337   0.843  0.6906 -0.2715 -1.2008
  832MOL0     H12297   3.033   9.425   0.929 -1.8838 -2.4650 -0.4788
  832MOL0     H12298   3.136   9.510   0.650  0.4554 -1.4250 -0.8802
  832MOL0     H12299   3.010   9.574   0.744  0.0041  1.3327  2.4213
  832MOL0     H12300   2.891   8.662   1.343  0.9345  1.4738  3.1420
  832MOL0     H12301   2.881   8.473   1.472 -0.3548  0.5538  0.2449
  832MOL0     H12302   3.149   8.258   1.888  1.5758 -1.4362  1.2773
  832MOL0     H12303   3.074   8.049   2.028  1.3414  2.1131 -0.2615
  832MOL0     H12304   1.894   8.581   2.076  1.0397  1.7284 -1.4082
  832MOL0     H12305   1.680   8.677   2.122 -0.1203 -1.6010  0.6104
  832MOL0     H12306   1.585   9.154   2.335 -0.3715  2.7369 -0.5951
  832MOL0     H12307   1.406   9.308   2.383  2.7034  1.0858 -1.8482
  832MOL0     H12308   1.000   9.269   2.190 -1.3268  1.4922 -0.8909
  832MOL0     H12309   1.078   9.395   2.079 -1.4013  1.1324 -1.0658
  832MOL0     H12310   0.886   9.505   2.184 -1.1101 -1.6222  0.8839
  832MOL0     H12311   1.027   9.564   2.270  0.5445 -0.2192 -0.6502
  832MOL0     H12312   0.975   9.415   2.456 -0.6704 -1.8559  0.0420
  832MOL0     H12313   0.846   9.333   2.362  0.4580  0.1232 -1.0781
  832MOL0     H12314   0.814   9.629   2.385 -1.3354  0.9548 -2.2395
  832MOL0     H12315   0.718   9.502   2.325  1.7858 -0.3851 -0.9212
  832MOL0     H12316   0.567   9.483   2.713 -1.6588 -1.0220 -1.4615
  832MOL0     H12317   1.179   9.186   2.050 -1.7936  2.8601  1.2561
  832MOL0     H12318   1.242   8.996   1.913  0.1976  0.8300  0.6254
  832MOL0     H12319   1.407   9.039   1.867 -2.1012  1.4984 -1.0445
  832MOL0     H12320   1.377   8.894   1.963  1.2161  0.3011  2.8214
  833MOL0     O12321   7.462  11.241   2.777 -0.1869 -0.1217 -0.1020
  833MOL0     C12322   7.502  11.297   2.873  0.3045 -0.0281 -0.4628
  833MOL0     O12323   7.430  11.395   2.935  0.1593 -0.8314  0.2670
  833MOL0     C12324   7.310  11.446   2.881 -0.6934 -0.0736 -0.2213
  833MOL0     C12325   7.196  11.373   2.868  0.2601  0.0815 -0.0984
  833MOL0     C12326   7.071  11.425   2.837  0.1231  1.0965  0.3900
  833MOL0     C12327   7.059  11.562   2.827  0.3243 -0.7504 -0.1862
  833MOL0     O12328   6.938  11.621   2.803  0.2250 -0.2582 -0.2510
  833MOL0     C12329   6.906  11.743   2.879 -0.3345 -0.2268  0.3501
  833MOL0     C12330   6.757  11.769   2.908 -0.5319  0.6635  0.0531
  833MOL0     C12331   6.689  11.666   3.002  1.0045 -0.6572  0.3000
  833MOL0     C12332   6.585  11.743   3.095 -0.5978  0.7002 -0.7842
  833MOL0     C12333   6.531  11.657   3.211 -0.6669  0.1904  0.4035
  833MOL0     C12334   6.405  11.723   3.256  0.5713  0.2925 -0.6675
  833MOL0     C12335   6.316  11.615   3.313 -0.0849 -0.5600  0.6828
  833MOL0     C12336   6.177  11.655   3.354 -0.5924 -0.3159  0.6217
  833MOL0     N12337   6.091  11.536   3.379 -0.3400 -0.3395  0.1166
  833MOL0     C12338   5.973  11.499   3.321 -0.5674  0.8013  1.0399
  833MOL0     C12339   5.937  11.387   3.389  0.2763 -0.4347  0.1087
  833MOL0     C12340   5.814  11.305   3.357  0.6883 -0.4854  0.3400
  833MOL0     C12341   5.685  11.365   3.405 -0.0472  0.2445 -0.1617
  833MOL0     C12342   5.583  11.248   3.421 -0.2463 -0.5750  0.4834
  833MOL0     C12343   5.608  11.156   3.536  1.0874 -0.2952  0.3750
  833MOL0     O12344   5.503  11.062   3.568 -0.1818  0.4618 -0.0134
  833MOL0     C12345   5.491  10.990   3.685 -0.3222 -0.3497  0.3004
  833MOL0     C12346   5.582  11.011   3.794  0.2772  0.3175  1.2266
  833MOL0     C12347   5.568  10.942   3.911  0.2459 -0.7291  0.0727
  833MOL0     C12348   5.464  10.857   3.935 -0.2913 -0.7228 -1.2294
  833MOL0     C12349   5.460  10.781   4.064  0.3874 -1.2206 -0.3803
  833MOL0     O12350   5.546  10.817   4.160  0.2961  0.1365  0.2367
  833MOL0     C12351   5.556  10.731   4.268  0.4561 -0.0028  0.0441
  833MOL0     C12352   5.663  10.645   4.263  0.0059  0.2372  1.1092
  833MOL0     C12353   5.687  10.543   4.350 -1.2380 -0.1029  0.6009
  833MOL0     C12354   5.602  10.518   4.457 -0.3869  0.1527 -0.6259
  833MOL0     O12355   5.626  10.419   4.551  0.2921 -1.1142  0.2478
  833MOL0     C12356   5.716  10.447   4.654 -0.5407  0.3068 -1.0987
  833MOL0     C12357   5.692  10.334   4.759  0.8820  0.1835 -0.9736
  833MOL0     C12358   5.771  10.340   4.879  0.6059  0.1280  0.0513
  833MOL0     C12359   5.753  10.478   4.950  0.0553 -0.2233  0.4400
  833MOL0     C12360   5.780  10.473   5.097  0.0295 -0.2489  0.9090
  833MOL0     C12361   5.912  10.545   5.130  0.4061  0.0413  0.0178
  833MOL0     C12362   5.919  10.695   5.121  0.0391 -0.3221 -0.2803
  833MOL0     C12363   6.048  10.767   5.164  0.4543  0.4439  0.4110
  833MOL0    Cl12364   6.187  10.721   5.057  0.1976 -0.5075  0.1083
  833MOL0     C12365   5.492  10.612   4.479 -0.4826 -0.2185 -0.2864
  833MOL0     C12366   5.473  10.718   4.387  0.5059 -0.4423  0.3164
  833MOL0     O12367   5.375  10.702   4.069  0.3722  0.4047 -0.9066
  833MOL0     C12368   5.374  10.845   3.824  0.3370 -0.3006 -0.3746
  833MOL0     C12369   5.397  10.899   3.701  0.4526 -0.0838 -0.0743
  833MOL0     N12370   6.017  11.374   3.498 -1.5817  0.1781  0.1450
  833MOL0     N12371   6.100  11.472   3.496 -0.0145  0.4590  0.1277
  833MOL0     C12372   7.180  11.644   2.846 -0.0256  1.4566  0.1414
  833MOL0     C12373   7.299  11.587   2.869 -0.5075  0.3913 -0.5227
  833MOL0     C12374   7.645  11.285   2.902 -0.1840  0.2569 -0.4117
  833MOL0     C12375   7.703  11.395   2.980  0.3919  1.6169 -0.1224
  833MOL0     C12376   7.829  11.380   3.020  0.1378 -0.2459  0.1158
  833MOL0     C12377   7.906  11.268   2.992  0.6083 -0.3532 -0.1251
  833MOL0     O12378   8.029  11.266   3.060  0.4107  0.0660 -0.4190
  833MOL0     C12379   8.080  11.136   3.114  0.4206 -0.1797  0.3138
  833MOL0     C12380   8.105  11.141   3.265  0.4461 -0.0236  0.2852
  833MOL0     C12381   8.233  11.239   3.271 -0.2012  0.4063  0.9101
  833MOL0     C12382   8.290  11.254   3.416  0.4411 -0.0403  0.3010
  833MOL0     C12383   8.193  11.256   3.527  0.2670 -0.1950 -0.3889
  833MOL0     C12384   8.114  11.272   3.614 -0.4310  0.6079  0.4101
  833MOL0     C12385   7.857  11.174   2.904  0.6056 -0.7750 -0.0591
  833MOL0     C12386   7.725  11.177   2.855  0.1142 -0.3060 -0.2528
  833MOL0     C12387   7.677  11.070   2.760 -0.7678 -0.6211 -0.4313
  833MOL0     H12388   7.208  11.267   2.888  0.2171 -0.6900 -3.5142
  833MOL0     H12389   6.987  11.357   2.841  0.6233  0.4592  0.2329
  833MOL0     H12390   6.952  11.745   2.978 -3.9099  1.2460  2.1887
  833MOL0     H12391   6.946  11.824   2.817  1.8865 -1.7059 -0.2275
  833MOL0     H12392   6.707  11.779   2.811  0.2950 -0.2886 -0.4855
  833MOL0     H12393   6.752  11.868   2.954 -2.9370 -0.1244  1.6803
  833MOL0     H12394   6.751  11.600   3.063  1.4172  0.0196  0.6339
  833MOL0     H12395   6.639  11.598   2.933  2.2768 -0.8677 -0.4504
  833MOL0     H12396   6.638  11.833   3.129  1.8816  0.2003 -2.9575
  833MOL0     H12397   6.507  11.787   3.032 -1.4633  0.8341  0.3479
  833MOL0     H12398   6.517  11.552   3.187  1.4134  0.6514 -3.5439
  833MOL0     H12399   6.607  11.652   3.289  0.6680  0.7018 -0.8274
  833MOL0     H12400   6.439  11.796   3.330  2.1309  1.9389 -2.8725
  833MOL0     H12401   6.354  11.778   3.177  3.9164  1.3910 -2.2853
  833MOL0     H12402   6.369  11.571   3.398 -0.5868 -0.3322  1.1237
  833MOL0     H12403   6.310  11.527   3.248  2.5064 -0.4130  0.1510
  833MOL0     H12404   6.196  11.729   3.433  2.5810  2.1998 -2.1792
  833MOL0     H12405   6.136  11.711   3.270  0.2132 -1.3727 -0.5007
  833MOL0     H12406   5.939  11.551   3.232  0.8296  1.8753  1.1080
  833MOL0     H12407   5.816  11.291   3.248  1.8428 -2.0737  0.5357
  833MOL0     H12408   5.824  11.205   3.398 -2.5103 -0.3350  1.7952
  833MOL0     H12409   5.693  11.409   3.504 -2.9948 -0.8498  0.6605
  833MOL0     H12410   5.645  11.439   3.335  0.1479  2.0349  1.5338
  833MOL0     H12411   5.575  11.196   3.325  1.8706  0.4657 -0.3180
  833MOL0     H12412   5.486  11.291   3.445  0.0752  2.5608 -2.9934
  833MOL0     H12413   5.613  11.220   3.624 -2.0399 -1.7202  1.7548
  833MOL0     H12414   5.695  11.091   3.520 -1.4261 -3.4719 -1.7225
  833MOL0     H12415   5.667  11.078   3.790  0.1929  0.3697 -0.6399
  833MOL0     H12416   5.643  10.954   3.988  0.1045 -2.7411  0.5638
  833MOL0     H12417   5.729  10.636   4.177 -0.0294  0.7851  1.0189
  833MOL0     H12418   5.774  10.478   4.338 -2.7715 -2.2980  0.7387
  833MOL0     H12419   5.819  10.447   4.619 -0.6346  1.7821 -1.4561
  833MOL0     H12420   5.692  10.550   4.681  2.5418  0.5319  1.3515
  833MOL0     H12421   5.588  10.332   4.794  1.3851  0.9090  0.6341
  833MOL0     H12422   5.709  10.238   4.709 -0.3266 -0.7457  0.3242
  833MOL0     H12423   5.726  10.265   4.944 -1.2183 -0.9192 -2.2355
  833MOL0     H12424   5.873  10.315   4.847  0.3599  0.5401 -1.1455
  833MOL0     H12425   5.653  10.519   4.934  0.9323  1.9075  0.1527
  833MOL0     H12426   5.814  10.557   4.906 -0.4904  1.2501  2.1803
  833MOL0     H12427   5.768  10.370   5.132 -0.9710 -1.4833 -2.5800
  833MOL0     H12428   5.707  10.530   5.156 -1.0885  0.6695 -1.2386
  833MOL0     H12429   5.939  10.510   5.230 -3.2335 -2.5518  0.2902
  833MOL0     H12430   5.985  10.498   5.064  2.4939  2.0408  0.7311
  833MOL0     H12431   5.837  10.729   5.187  0.5722 -1.6822  1.1550
  833MOL0     H12432   5.908  10.736   5.021  0.6049  0.8251  0.1136
  833MOL0     H12433   6.043  10.876   5.159  0.3883  0.3866 -1.7616
  833MOL0     H12434   6.070  10.733   5.265  0.7739  0.4768  0.3524
  833MOL0     H12435   5.438  10.598   4.572  1.7033 -0.5543  1.0229
  833MOL0     H12436   5.389  10.784   4.403  2.0262  1.4495  0.8372
  833MOL0     H12437   5.284  10.786   3.840 -2.2116  2.7822 -2.0194
  833MOL0     H12438   5.334  10.854   3.625 -3.3541  2.2552  1.3999
  833MOL0     H12439   7.160  11.751   2.837 -4.7896  1.3153  4.4323
  833MOL0     H12440   7.388  11.648   2.872  0.3576 -0.7018 -2.6184
  833MOL0     H12441   7.657  11.487   3.016  0.7932  2.3536 -1.4249
  833MOL0     H12442   7.869  11.455   3.088  1.5307 -3.2588  2.8968
  833MOL0     H12443   8.165  11.104   3.052 -0.4033 -2.9459  0.4975
  833MOL0     H12444   8.023  11.046   3.091  1.8577 -1.4616  1.5445
  833MOL0     H12445   8.126  11.048   3.318 -1.5544  0.0647  1.3147
  833MOL0     H12446   8.010  11.180   3.301 -0.3771 -3.5102  2.2998
  833MOL0     H12447   8.201  11.339   3.241 -0.8445 -0.1008 -0.1044
  833MOL0     H12448   8.307  11.191   3.206  0.1699 -0.4684  1.9458
  833MOL0     H12449   8.354  11.170   3.444  1.0634  0.7298  1.2578
  833MOL0     H12450   8.344  11.349   3.426 -2.6567  2.1190 -1.5529
  833MOL0     H12451   8.033  11.271   3.683  0.1100  0.1066  1.0481
  833MOL0     H12452   7.912  11.081   2.894  0.2163 -1.4765  3.1333
  833MOL0     H12453   7.663  11.123   2.665 -0.3888  2.2191  0.9688
  833MOL0     H12454   7.746  10.985   2.756  1.8157  1.2193  1.6031
  833MOL0     H12455   7.576  11.048   2.797 -0.1407 -1.6283  0.7385
  834MOL0     O12456   2.380   9.570   7.735 -0.2951  0.7385  0.0857
  834MOL0     C12457   2.356   9.522   7.845  0.2385  1.1413 -1.0002
  834MOL0     O12458   2.437   9.533   7.954 -0.1985 -0.2141  0.3264
  834MOL0     C12459   2.531   9.622   7.924 -0.7422  0.5638 -0.6498
  834MOL0     C12460   2.511   9.758   7.956 -0.4258  0.7569  0.9557
  834MOL0     C12461   2.607   9.855   7.922  0.2210  0.2150 -0.2416
  834MOL0     C12462   2.720   9.818   7.840 -0.3091 -0.7081  0.4999
  834MOL0     O12463   2.814   9.900   7.796  0.6972 -0.6133 -0.1683
  834MOL0     C12464   2.769  10.036   7.766  0.4571 -0.9932  0.8888
  834MOL0     C12465   2.681  10.050   7.649  0.8082 -0.2035 -0.0400
  834MOL0     C12466   2.740  10.124   7.533 -0.1171  0.0857 -0.7092
  834MOL0     C12467   2.660  10.108   7.399  1.0795 -0.0439  0.5409
  834MOL0     C12468   2.704  10.221   7.311 -0.1787 -0.9544 -0.0244
  834MOL0     C12469   2.833  10.191   7.227  0.0041 -0.9933 -0.3150
  834MOL0     C12470   2.793  10.092   7.116 -0.0115  1.9232 -0.3593
  834MOL0     C12471   2.729  10.140   6.980  1.2551 -0.4272  0.6502
  834MOL0     N12472   2.818  10.200   6.887  0.8794 -0.5412 -0.2305
  834MOL0     C12473   2.906  10.143   6.799 -0.2312 -0.7058  0.9048
  834MOL0     C12474   2.980  10.251   6.749 -0.8309 -0.3174 -0.9222
  834MOL0     C12475   3.080  10.246   6.635  1.0438 -0.4615 -0.3640
  834MOL0     C12476   3.067  10.368   6.535 -0.8927  0.4704 -0.9593
  834MOL0     C12477   3.191  10.363   6.446  0.7025  0.3454  0.2423
  834MOL0     C12478   3.318  10.406   6.508 -1.3006  0.3070  0.2225
  834MOL0     O12479   3.305  10.546   6.527 -0.5507  0.0949  0.8008
  834MOL0     C12480   3.362  10.607   6.638 -0.9763  0.1847  0.3297
  834MOL0     C12481   3.293  10.710   6.707  0.0018  0.2396  0.8019
  834MOL0     C12482   3.340  10.771   6.820 -0.6898  0.6569  0.1982
  834MOL0     C12483   3.458  10.719   6.878  0.0285  0.4723 -0.9382
  834MOL0     C12484   3.497  10.775   7.011  0.2698 -0.2889  0.4253
  834MOL0     O12485   3.409  10.860   7.075  0.8567  0.3130  0.1105
  834MOL0     C12486   3.457  10.928   7.178  0.2216  0.5769  0.1827
  834MOL0     C12487   3.576  10.993   7.200 -0.2308 -0.6556  0.3332
  834MOL0     C12488   3.604  11.063   7.319 -0.1630  0.1868 -0.0346
  834MOL0     C12489   3.504  11.069   7.412  0.1163  0.1663 -0.5633
  834MOL0     O12490   3.527  11.137   7.527 -0.4894  0.5636 -0.4143
  834MOL0     C12491   3.563  11.285   7.521 -0.2808 -0.0803 -0.3569
  834MOL0     C12492   3.671  11.321   7.617 -0.5497 -0.4261  0.6334
  834MOL0     C12493   3.807  11.261   7.584  0.3174  0.2077 -0.0505
  834MOL0     C12494   3.884  11.320   7.463 -0.1736  0.5668  0.4508
  834MOL0     C12495   4.022  11.271   7.469  0.7735  0.6825  0.1918
  834MOL0     C12496   4.096  11.338   7.353 -0.1846 -0.5824  0.3705
  834MOL0     C12497   4.219  11.247   7.316  0.3530 -0.1575  0.0951
  834MOL0     C12498   4.323  11.325   7.234  0.6858 -0.6606 -0.8698
  834MOL0    Cl12499   4.264  11.377   7.084 -0.3865  0.0680 -0.1537
  834MOL0     C12500   3.373  11.017   7.385 -0.4422 -0.9229 -0.0512
  834MOL0     C12501   3.350  10.946   7.270  0.1358 -0.8694  0.9570
  834MOL0     O12502   3.615  10.750   7.045 -0.5623 -0.1622 -0.2176
  834MOL0     C12503   3.524  10.615   6.816 -0.6035  0.5758 -0.5956
  834MOL0     C12504   3.480  10.560   6.694 -0.0185 -0.3856 -1.0955
  834MOL0     N12505   2.916  10.365   6.796  0.2815 -0.2812 -0.1836
  834MOL0     N12506   2.820  10.329   6.875  0.3682  0.7634 -0.3735
  834MOL0     C12507   2.736   9.682   7.804 -0.3073 -0.5087 -0.2998
  834MOL0     C12508   2.649   9.582   7.852  0.5067 -0.0639  0.3800
  834MOL0     C12509   2.227   9.445   7.880  0.1340 -0.1080 -0.3698
  834MOL0     C12510   2.168   9.466   8.009  0.5729 -0.3706 -0.3633
  834MOL0     C12511   2.059   9.386   8.055 -0.0451  0.0236  0.7195
  834MOL0     C12512   1.996   9.296   7.969  0.4174  0.0798 -1.1940
  834MOL0     O12513   1.890   9.223   8.025  0.2455 -0.8780  0.6146
  834MOL0     C12514   1.804   9.135   7.949  0.0502 -0.7784 -0.4422
  834MOL0     C12515   1.670   9.218   7.916 -0.9410  0.6053  0.5405
  834MOL0     C12516   1.588   9.158   7.799 -0.4022  0.0729 -0.0547
  834MOL0     C12517   1.501   9.053   7.849 -0.3994 -0.1545  1.1560
  834MOL0     C12518   1.403   9.078   7.958 -0.7995  0.3876 -0.3389
  834MOL0     C12519   1.337   9.097   8.060  0.1522  0.0091 -0.7329
  834MOL0     C12520   2.053   9.265   7.841 -1.0410 -0.4118  1.4087
  834MOL0     C12521   2.168   9.345   7.802 -0.3683  0.0772  0.4110
  834MOL0     C12522   2.224   9.321   7.664 -0.3195  0.8125  0.2398
  834MOL0     H12523   2.419   9.784   8.007  0.6587 -0.4142  3.7060
  834MOL0     H12524   2.569   9.954   7.943  0.7944  0.8234 -1.8924
  834MOL0     H12525   2.736  10.081   7.860 -2.3829 -2.8270  0.8593
  834MOL0     H12526   2.857  10.094   7.736 -1.1354  0.7139 -0.7598
  834MOL0     H12527   2.596  10.099   7.697  1.7778 -0.9300  2.5707
  834MOL0     H12528   2.642   9.949   7.634 -0.9334  0.0888  2.0883
  834MOL0     H12529   2.833  10.068   7.520  0.8490  0.4902  3.0873
  834MOL0     H12530   2.769  10.226   7.563  0.1205 -0.0112 -0.6053
  834MOL0     H12531   2.656  10.009   7.353  2.7499  0.0667  0.1065
  834MOL0     H12532   2.556  10.132   7.425  0.6033 -0.4528 -0.8994
  834MOL0     H12533   2.630  10.256   7.238 -0.0614  0.4517  0.4961
  834MOL0     H12534   2.729  10.308   7.373  1.5445 -2.1626  1.0458
  834MOL0     H12535   2.866  10.278   7.170 -2.1018  1.3473  1.8207
  834MOL0     H12536   2.913  10.152   7.291 -1.1964 -3.7652 -0.3629
  834MOL0     H12537   2.746  10.002   7.156  4.4754 -1.2224 -1.3506
  834MOL0     H12538   2.896  10.061   7.094 -0.6139 -4.6763  3.5249
  834MOL0     H12539   2.677  10.052   6.941 -0.4311 -0.3335  2.5130
  834MOL0     H12540   2.643  10.197   7.016  1.6464 -1.1071  2.8246
  834MOL0     H12541   2.917  10.039   6.772  2.6066 -0.6568  1.5082
  834MOL0     H12542   3.180  10.239   6.679  1.3548  0.4900 -0.8698
  834MOL0     H12543   3.076  10.151   6.580  1.8568 -1.0778  0.6069
  834MOL0     H12544   2.972  10.358   6.483 -1.3746 -0.1986  0.0132
  834MOL0     H12545   3.055  10.460   6.593 -0.5442  0.6133 -1.1134
  834MOL0     H12546   3.171  10.419   6.354 -2.5029 -2.7969 -1.1887
  834MOL0     H12547   3.197  10.263   6.404  0.7184  0.6757 -0.5524
  834MOL0     H12548   3.404  10.387   6.442  0.4996 -1.6842  2.9393
  834MOL0     H12549   3.350  10.351   6.597  0.0443  1.5459  0.5386
  834MOL0     H12550   3.200  10.749   6.667 -1.4251 -3.1085  0.5779
  834MOL0     H12551   3.277  10.848   6.866 -3.5182  0.2273 -2.5860
  834MOL0     H12552   3.663  10.994   7.135  0.2772  0.7870  1.0101
  834MOL0     H12553   3.703  11.107   7.326  0.6757 -1.8397  2.7817
  834MOL0     H12554   3.585  11.308   7.416  1.8680  0.2162  0.1139
  834MOL0     H12555   3.479  11.343   7.560  0.3317 -1.1137  2.7867
  834MOL0     H12556   3.678  11.430   7.623  1.5262 -0.0484 -4.3930
  834MOL0     H12557   3.631  11.279   7.710  0.4856 -0.9229  0.8661
  834MOL0     H12558   3.867  11.280   7.673 -0.2496 -0.5689  0.5113
  834MOL0     H12559   3.790  11.154   7.567 -2.0416  0.6635 -0.9938
  834MOL0     H12560   3.894  11.428   7.481  0.3359  0.6251 -0.1486
  834MOL0     H12561   3.836  11.291   7.369  1.0301 -2.9582  0.7861
  834MOL0     H12562   4.022  11.162   7.464  0.7806  0.6665  0.4969
  834MOL0     H12563   4.068  11.289   7.567 -1.5018  0.8631  1.3082
  834MOL0     H12564   4.044  11.355   7.257  1.6511 -2.0364 -0.9429
  834MOL0     H12565   4.144  11.427   7.395  1.9602 -2.5565  2.3700
  834MOL0     H12566   4.179  11.161   7.261 -3.4079  1.7239 -0.3853
  834MOL0     H12567   4.276  11.218   7.404  3.2392  1.8667 -0.9322
  834MOL0     H12568   4.351  11.405   7.303  1.1976 -1.5569 -0.0037
  834MOL0     H12569   4.413  11.266   7.214  5.0486  4.1725  1.9540
  834MOL0     H12570   3.297  11.026   7.462 -0.3556  0.1597 -0.0866
  834MOL0     H12571   3.259  10.888   7.258  1.8893 -3.8433  0.9762
  834MOL0     H12572   3.619  10.577   6.852 -1.5521  1.2284  2.9495
  834MOL0     H12573   3.537  10.483   6.645 -2.8274 -1.6330 -2.6279
  834MOL0     H12574   2.813   9.660   7.731 -0.7495 -0.6959 -0.7147
  834MOL0     H12575   2.643   9.482   7.809  0.0610  0.7737 -1.6195
  834MOL0     H12576   2.209   9.551   8.063  0.3535  0.3471 -1.2854
  834MOL0     H12577   2.043   9.406   8.161 -1.0685  0.1774  0.5546
  834MOL0     H12578   1.780   9.042   8.001  1.1516 -1.3161 -0.8546
  834MOL0     H12579   1.845   9.099   7.854 -1.3417  0.6589 -1.6273
  834MOL0     H12580   1.702   9.316   7.881 -0.4882  0.2289 -0.1180
  834MOL0     H12581   1.613   9.240   8.007  0.8212 -0.2378  1.9262
  834MOL0     H12582   1.657   9.108   7.731 -0.7613 -1.3457  0.5788
  834MOL0     H12583   1.532   9.236   7.747 -2.0258  0.6622  2.3866
  834MOL0     H12584   1.449   9.017   7.759  2.0145  0.9945 -0.8129
  834MOL0     H12585   1.553   8.965   7.888  0.4998 -0.8557 -1.4380
  834MOL0     H12586   1.271   9.109   8.144  0.1946  1.5788 -0.8898
  834MOL0     H12587   2.008   9.192   7.774  2.3937  0.2258 -1.9740
  834MOL0     H12588   2.196   9.402   7.597 -3.4316  1.0143  1.6153
  834MOL0     H12589   2.331   9.307   7.683  0.0229  0.9088 -1.5151
  834MOL0     H12590   2.194   9.226   7.618  1.3835  0.1457  0.3961
  835MOL0     O12591   7.941   9.858  11.329 -0.9252  0.9574  0.4415
  835MOL0     C12592   7.948   9.864  11.451  0.3564  0.1861 -0.0803
  835MOL0     O12593   7.940   9.755  11.541 -1.0072  0.4433  0.0929
  835MOL0     C12594   7.926   9.635  11.479  0.3274  0.8390 -0.2384
  835MOL0     C12595   7.801   9.604  11.409 -0.8332  0.0131  1.0242
  835MOL0     C12596   7.788   9.483  11.344  0.0806 -1.0080 -0.2247
  835MOL0     C12597   7.894   9.389  11.345  0.5672 -0.7503  1.1991
  835MOL0     O12598   7.872   9.276  11.273  0.3329 -0.1802  0.0811
  835MOL0     C12599   7.979   9.187  11.219  0.3477 -0.1233 -0.7791
  835MOL0     C12600   7.906   9.081  11.132 -0.1455 -0.2381 -0.0322
  835MOL0     C12601   7.840   8.976  11.206 -0.9361  0.0570 -0.1057
  835MOL0     C12602   7.774   8.873  11.112  0.0294  0.6378 -0.5479
  835MOL0     C12603   7.680   8.765  11.174  0.0747  0.0895  0.5141
  835MOL0     C12604   7.758   8.645  11.227  0.4479 -0.3723  0.0236
  835MOL0     C12605   7.786   8.555  11.108 -0.3384  1.0990 -0.2392
  835MOL0     C12606   7.662   8.473  11.057 -0.1218  0.1297 -1.2448
  835MOL0     N12607   7.693   8.355  10.987  0.7032  0.0978 -0.7696
  835MOL0     C12608   7.662   8.222  11.019  0.0404 -0.1091  0.0693
  835MOL0     C12609   7.706   8.145  10.918 -0.3242  0.7236 -0.0451
  835MOL0     C12610   7.690   7.990  10.917 -0.8804 -0.5428 -0.4794
  835MOL0     C12611   7.804   7.927  10.850 -0.6096 -0.2865 -0.7776
  835MOL0     C12612   7.786   7.776  10.846  0.8182  1.1101 -0.2852
  835MOL0     C12613   7.800   7.696  10.971  0.0401  1.1926 -0.1045
  835MOL0     O12614   7.719   7.730  11.082  0.6833 -0.1995  0.3187
  835MOL0     C12615   7.704   7.641  11.191 -0.4434  0.3174 -0.2547
  835MOL0     C12616   7.625   7.677  11.302  0.0388  0.0816 -0.5140
  835MOL0     C12617   7.620   7.595  11.413 -0.2020 -0.2390  0.3023
  835MOL0     C12618   7.671   7.464  11.402 -0.3207  0.4278 -0.7237
  835MOL0     C12619   7.664   7.366  11.507 -1.0277  0.0324 -0.3726
  835MOL0     O12620   7.602   7.406  11.613  0.0792  0.1360  0.2310
  835MOL0     C12621   7.567   7.328  11.719 -0.8309  0.0564 -0.2495
  835MOL0     C12622   7.531   7.194  11.714 -0.1961  0.1718  0.1801
  835MOL0     C12623   7.499   7.122  11.828 -0.3477  0.0816  0.5897
  835MOL0     C12624   7.509   7.179  11.954  0.0798 -0.5436 -0.1816
  835MOL0     O12625   7.489   7.096  12.067 -0.6627  0.7603 -0.0560
  835MOL0     C12626   7.448   7.147  12.191 -1.2605 -0.2876 -0.5156
  835MOL0     C12627   7.311   7.222  12.191 -0.1960  0.2485  1.1175
  835MOL0     C12628   7.308   7.373  12.265 -0.8581  0.5218  0.1680
  835MOL0     C12629   7.327   7.355  12.414 -0.0744  0.0427  0.2014
  835MOL0     C12630   7.324   7.488  12.490  0.2455 -0.7943  0.6054
  835MOL0     C12631   7.177   7.523  12.526  0.5697  0.2832 -0.0177
  835MOL0     C12632   7.106   7.434  12.618 -0.1556 -0.1347  0.2305
  835MOL0     C12633   7.017   7.503  12.713  0.2897  0.1284  0.1654
  835MOL0    Cl12634   6.900   7.633  12.648 -0.2485  0.5228 -0.4093
  835MOL0     C12635   7.545   7.320  11.970 -0.9327 -0.0600  0.4761
  835MOL0     C12636   7.579   7.392  11.848  0.0122 -0.5395 -0.2403
  835MOL0     O12637   7.702   7.253  11.489  0.1252 -0.8688  0.2240
  835MOL0     C12638   7.737   7.432  11.282  0.1061  0.4916 -0.2777
  835MOL0     C12639   7.756   7.513  11.176 -0.8006 -0.2999 -0.4858
  835MOL0     N12640   7.760   8.236  10.825 -0.3552 -0.4119 -0.7252
  835MOL0     N12641   7.749   8.355  10.862 -0.3503  0.6951  0.2560
  835MOL0     C12642   8.015   9.413  11.416  0.7150 -1.7853 -0.8753
  835MOL0     C12643   8.023   9.533  11.481  0.0052 -0.6837  1.0303
  835MOL0     C12644   7.949  10.001  11.518  0.1813 -0.1159  0.5293
  835MOL0     C12645   7.916   9.998  11.654  0.3607 -0.3257  0.5660
  835MOL0     C12646   7.902  10.114  11.734 -0.0552 -0.1392 -0.3242
  835MOL0     C12647   7.928  10.243  11.676 -0.1940  1.1270 -0.3015
  835MOL0     O12648   7.914  10.359  11.737 -1.4488  0.1084 -0.6380
  835MOL0     C12649   7.891  10.382  11.881 -0.5459  1.0551  0.5411
  835MOL0     C12650   8.018  10.383  11.966  1.6389  0.5377 -0.0825
  835MOL0     C12651   7.999  10.371  12.119  0.5938 -0.9767 -0.8256
  835MOL0     C12652   8.036  10.510  12.186 -0.3339  0.1513  0.3283
  835MOL0     C12653   7.967  10.629  12.134  0.2297  0.2868  0.2236
  835MOL0     C12654   7.913  10.737  12.117 -0.7591 -0.3355  0.7477
  835MOL0     C12655   7.955  10.243  11.542  0.4419 -0.8497  0.6810
  835MOL0     C12656   7.971  10.124  11.460  0.5049  0.6186  0.1614
  835MOL0     C12657   8.029  10.146  11.327  1.1373 -0.5370  0.0682
  835MOL0     H12658   7.713   9.667  11.411 -0.5157  0.8176 -2.6388
  835MOL0     H12659   7.699   9.473  11.282  0.5178 -1.0685 -0.8593
  835MOL0     H12660   8.055   9.234  11.158  2.4329  0.1116  1.8158
  835MOL0     H12661   8.034   9.146  11.305 -1.9802  0.5026  1.1334
  835MOL0     H12662   7.972   9.032  11.059 -1.4053  1.5082 -2.5206
  835MOL0     H12663   7.831   9.129  11.068 -1.1262 -2.7979 -0.9385
  835MOL0     H12664   7.771   9.035  11.266 -0.1181  0.0479  0.8828
  835MOL0     H12665   7.909   8.924  11.272 -2.8943  0.8977  2.7807
  835MOL0     H12666   7.706   8.924  11.043  3.0039  3.0399 -1.9311
  835MOL0     H12667   7.853   8.823  11.056 -0.5257  0.3487 -1.0903
  835MOL0     H12668   7.625   8.812  11.256 -0.9731  1.1412 -0.7493
  835MOL0     H12669   7.616   8.741  11.088 -0.3067  2.1285  0.1660
  835MOL0     H12670   7.845   8.675  11.287  0.3091 -0.0596  0.0675
  835MOL0     H12671   7.687   8.604  11.301 -2.0812  1.9590 -0.9533
  835MOL0     H12672   7.849   8.469  11.134 -0.9625  0.2526 -1.4234
  835MOL0     H12673   7.837   8.611  11.030  0.9693 -0.1339 -0.3080
  835MOL0     H12674   7.594   8.438  11.135  2.5384 -0.9276  0.7970
  835MOL0     H12675   7.616   8.536  10.980  1.1495  3.2628  0.3883
  835MOL0     H12676   7.615   8.182  11.108  1.1218  2.4899  1.9364
  835MOL0     H12677   7.672   7.956  11.020 -4.5191  0.7827 -0.5283
  835MOL0     H12678   7.599   7.957  10.867  0.1733 -1.6031 -1.7702
  835MOL0     H12679   7.810   7.962  10.746  1.6168  1.7353 -0.0569
  835MOL0     H12680   7.893   7.951  10.910 -1.0120  1.0599 -0.7018
  835MOL0     H12681   7.853   7.734  10.770  0.4830  0.2533 -0.1088
  835MOL0     H12682   7.688   7.750  10.806  1.3792  0.1745 -1.1072
  835MOL0     H12683   7.905   7.701  11.002  1.0829 -2.6356 -2.3933
  835MOL0     H12684   7.791   7.592  10.938  2.4409 -0.4484  3.6061
  835MOL0     H12685   7.579   7.774  11.318  0.3431 -0.3094  4.5473
  835MOL0     H12686   7.580   7.638  11.504  2.9936  3.2080  0.3280
  835MOL0     H12687   7.509   7.144  11.621  0.9209 -0.2826  0.1494
  835MOL0     H12688   7.457   7.022  11.821 -0.5970  0.1687  0.8154
  835MOL0     H12689   7.434   7.078  12.275 -1.8589  0.9322  0.4157
  835MOL0     H12690   7.525   7.216  12.226 -0.1603 -0.3987 -2.5654
  835MOL0     H12691   7.287   7.237  12.086  1.5920 -3.1559  0.0539
  835MOL0     H12692   7.236   7.159  12.238  3.5065 -3.0694  3.2512
  835MOL0     H12693   7.377   7.439  12.211 -0.9239 -1.0676 -1.9754
  835MOL0     H12694   7.217   7.429  12.248 -1.6950 -1.0438 -0.7449
  835MOL0     H12695   7.422   7.307  12.438  1.6892  3.7890  1.5664
  835MOL0     H12696   7.253   7.289  12.458  1.5771  0.3410  3.7928
  835MOL0     H12697   7.366   7.578  12.443 -3.6735  0.8745 -0.1028
  835MOL0     H12698   7.379   7.463  12.581 -0.5592 -2.9194  0.5711
  835MOL0     H12699   7.182   7.627  12.560 -0.2076  0.3726 -0.1500
  835MOL0     H12700   7.114   7.527  12.436 -1.1123  1.1891  1.1358
  835MOL0     H12701   7.172   7.369  12.676 -2.0194  1.0501  4.0157
  835MOL0     H12702   7.042   7.374  12.554 -1.8254  0.6882  1.0771
  835MOL0     H12703   6.963   7.427  12.769 -0.6682 -0.4355 -1.4673
  835MOL0     H12704   7.073   7.554  12.793  0.0932 -3.1205  2.5740
  835MOL0     H12705   7.564   7.372  12.063  2.8478 -1.1651  0.5009
  835MOL0     H12706   7.610   7.496  11.850  0.2323 -0.5334 -2.0167
  835MOL0     H12707   7.789   7.338  11.267 -0.1962  0.4891 -1.3455
  835MOL0     H12708   7.825   7.486  11.096 -0.3050  2.3743 -1.0603
  835MOL0     H12709   8.103   9.350  11.426  0.3653 -2.0479  0.9989
  835MOL0     H12710   8.120   9.562  11.522  0.1867  1.2161 -0.6035
  835MOL0     H12711   7.902   9.901  11.700  4.6533  0.1635  3.4070
  835MOL0     H12712   7.841  10.109  11.824 -2.0731 -0.6116 -1.6530
  835MOL0     H12713   7.827  10.304  11.923 -1.5611  1.7207  0.2832
  835MOL0     H12714   7.837  10.477  11.885 -1.4500  0.5272  1.3704
  835MOL0     H12715   8.085  10.467  11.944  1.4831  1.2538  1.9742
  835MOL0     H12716   8.076  10.292  11.947 -0.1330 -0.7309  0.3548
  835MOL0     H12717   8.068  10.295  12.159 -1.0564 -0.3865  3.6806
  835MOL0     H12718   7.894  10.357  12.144  0.8294  0.2648  1.0509
  835MOL0     H12719   8.028  10.515  12.295 -0.1675 -1.2859  0.4327
  835MOL0     H12720   8.139  10.531  12.155 -0.9689  2.2537 -0.5384
  835MOL0     H12721   7.875  10.832  12.085  2.9925 -0.3236 -5.0351
  835MOL0     H12722   7.982  10.341  11.504  2.7502 -1.0797  1.5277
  835MOL0     H12723   8.049  10.252  11.312  0.0157 -0.1264  1.3428
  835MOL0     H12724   8.124  10.098  11.300  1.9212  0.8256  0.3023
  835MOL0     H12725   7.945  10.108  11.267 -0.2872 -2.5746  3.1180
  836MOL0     O12726   7.494  10.837  10.643 -0.6913 -1.0278  0.1112
  836MOL0     C12727   7.609  10.874  10.651  0.3098  0.6665 -0.3445
  836MOL0     O12728   7.685  10.937  10.558  0.6457  0.2664  0.2383
  836MOL0     C12729   7.631  10.931  10.430  0.5968  0.2308  0.0765
  836MOL0     C12730   7.526  11.017  10.384 -0.3287  0.8707 -0.1896
  836MOL0     C12731   7.470  10.987  10.261 -0.7539  1.0103  0.4553
  836MOL0     C12732   7.511  10.878  10.182  0.6961 -0.3097  0.2887
  836MOL0     O12733   7.454  10.851  10.061 -1.1221  0.3161  0.5323
  836MOL0     C12734   7.339  10.922  10.003 -0.2696 -0.7397 -0.7321
  836MOL0     C12735   7.302  10.879   9.860 -0.1082 -0.1900 -0.2671
  836MOL0     C12736   7.177  10.971   9.809 -1.5248  0.4620  0.1913
  836MOL0     C12737   7.224  11.111   9.773  0.3956 -0.1043  0.1102
  836MOL0     C12738   7.118  11.204   9.711 -0.9303  0.0643  0.4871
  836MOL0     C12739   7.173  11.341   9.681  0.2362 -0.3781  0.0871
  836MOL0     C12740   7.060  11.440   9.634 -0.1852  0.0602 -0.4905
  836MOL0     C12741   7.009  11.407   9.495 -0.8663  0.3038 -1.2688
  836MOL0     N12742   6.920  11.496   9.423 -0.0666 -0.1536  0.4728
  836MOL0     C12743   6.925  11.556   9.298 -0.9493 -0.3969  0.0352
  836MOL0     C12744   6.810  11.615   9.271 -0.1642  0.7007 -0.1311
  836MOL0     C12745   6.777  11.703   9.148  0.0988  0.7482  0.0762
  836MOL0     C12746   6.797  11.848   9.172 -0.5912 -0.0848 -0.1901
  836MOL0     C12747   6.721  11.937   9.074 -0.7483  0.4228 -0.2844
  836MOL0     C12748   6.767  12.074   9.089  0.8183 -0.5659 -0.3388
  836MOL0     O12749   6.715  12.132   9.205 -0.2386 -0.0571  0.0851
  836MOL0     C12750   6.583  12.163   9.213 -0.9608  0.4464  0.0055
  836MOL0     C12751   6.477  12.133   9.131 -0.3569 -0.8357  0.4263
  836MOL0     C12752   6.342  12.146   9.164  0.1587  0.1428 -0.4749
  836MOL0     C12753   6.311  12.215   9.282  0.7207  0.1680  0.4403
  836MOL0     C12754   6.168  12.230   9.324  0.2101  1.0850 -0.1562
  836MOL0     O12755   6.078  12.194   9.226 -0.8860  0.8238 -0.3126
  836MOL0     C12756   5.951  12.223   9.249 -0.0064  0.0572  1.1609
  836MOL0     C12757   5.867  12.141   9.330  0.1915 -1.2855 -0.0307
  836MOL0     C12758   5.733  12.183   9.338  0.1657 -1.1149  0.0166
  836MOL0     C12759   5.687  12.294   9.262  0.4249 -0.8629 -0.4200
  836MOL0     O12760   5.571  12.349   9.262  1.6941 -0.0687 -1.4162
  836MOL0     C12761   5.474  12.323   9.365 -0.3221  0.3021  0.3436
  836MOL0     C12762   5.353  12.404   9.361  0.5282 -0.0498 -0.7241
  836MOL0     C12763   5.368  12.555   9.332  1.0149  0.0769 -0.3185
  836MOL0     C12764   5.404  12.640   9.453 -0.3415  0.4898 -0.7781
  836MOL0     C12765   5.399  12.791   9.438  0.1816  0.0510 -0.7095
  836MOL0     C12766   5.520  12.861   9.513  0.8545 -1.1672 -0.1410
  836MOL0     C12767   5.538  13.001   9.462  0.6358  0.0422  0.2869
  836MOL0     C12768   5.642  13.092   9.521 -0.3797  0.1161 -1.0941
  836MOL0    Cl12769   5.647  13.246   9.432 -0.0739  0.0210 -0.7107
  836MOL0     C12770   5.778  12.356   9.175 -0.3662 -0.3323 -0.3764
  836MOL0     C12771   5.907  12.327   9.173  0.5029  0.1736  0.8323
  836MOL0     O12772   6.136  12.287   9.430 -0.1097 -0.2281 -0.1389
  836MOL0     C12773   6.410  12.265   9.368  0.1728 -0.0412  0.0895
  836MOL0     C12774   6.548  12.234   9.336  1.0952 -0.1284 -0.2717
  836MOL0     N12775   6.730  11.586   9.376  0.0776 -0.0098  0.6808
  836MOL0     N12776   6.785  11.502   9.458  0.5447  0.0068 -0.5066
  836MOL0     C12777   7.614  10.801  10.232 -0.3950 -0.1473  0.0591
  836MOL0     C12778   7.683  10.828  10.349 -0.2850 -0.0372 -0.2812
  836MOL0     C12779   7.673  10.831  10.787 -1.1371  0.6310  0.6896
  836MOL0     C12780   7.810  10.863  10.804  0.0655  0.1189 -0.3431
  836MOL0     C12781   7.876  10.816  10.911  0.4565  0.2362 -0.4502
  836MOL0     C12782   7.815  10.735  11.012  0.8011 -0.0823 -0.6665
  836MOL0     O12783   7.898  10.707  11.111 -0.0608 -0.5701 -0.1174
  836MOL0     C12784   7.844  10.654  11.232 -1.0458 -0.7133 -0.1208
  836MOL0     C12785   7.807  10.760  11.331 -0.8383 -0.8704  0.4254
  836MOL0     C12786   7.928  10.839  11.388 -0.2157  0.9624 -0.2708
  836MOL0     C12787   8.040  10.765  11.475  0.0046 -0.7602  0.8549
  836MOL0     C12788   7.979  10.729  11.608  0.3935 -0.5441  0.4478
  836MOL0     C12789   7.919  10.702  11.708  0.0784  0.0672  0.1345
  836MOL0     C12790   7.676  10.698  10.997 -1.0117 -0.7060 -0.1698
  836MOL0     C12791   7.605  10.748  10.886 -1.3290  0.9156  0.4422
  836MOL0     C12792   7.455  10.727  10.896  0.1673 -0.5900 -0.2703
  836MOL0     H12793   7.475  11.087  10.450 -1.7647  0.8781 -1.2746
  836MOL0     H12794   7.377  11.035  10.230 -0.2474  2.1160  0.6064
  836MOL0     H12795   7.249  10.913  10.063  0.1669 -2.7867 -0.3095
  836MOL0     H12796   7.372  11.027  10.001 -2.1643  0.0515  2.6290
  836MOL0     H12797   7.288  10.771   9.865 -1.5571  0.0299  1.5068
  836MOL0     H12798   7.381  10.893   9.785  1.3596 -0.7794  1.0973
  836MOL0     H12799   7.111  10.976   9.895 -0.2872  1.0274  1.1420
  836MOL0     H12800   7.133  10.917   9.725  1.6748 -1.3410 -0.5156
  836MOL0     H12801   7.248  11.161   9.867  0.9822 -0.3634  0.1056
  836MOL0     H12802   7.317  11.106   9.715  0.9942  5.5452  0.0754
  836MOL0     H12803   7.075  11.166   9.617  1.2412 -1.1286 -0.0898
  836MOL0     H12804   7.035  11.216   9.781 -1.0075  0.7759  0.2839
  836MOL0     H12805   7.220  11.384   9.769 -0.3616 -3.2037  1.9205
  836MOL0     H12806   7.250  11.337   9.603  1.9109  2.8661  1.3727
  836MOL0     H12807   7.110  11.537   9.623  3.7434 -1.0737  4.0706
  836MOL0     H12808   6.976  11.456   9.702 -0.3852 -0.2171 -0.6715
  836MOL0     H12809   7.105  11.408   9.442  1.3402 -1.8350  2.3015
  836MOL0     H12810   6.970  11.306   9.480  0.0811 -0.9004  2.9730
  836MOL0     H12811   7.018  11.567   9.242 -1.0898  0.0892 -0.1007
  836MOL0     H12812   6.828  11.671   9.057  1.3310  0.2169  0.9157
  836MOL0     H12813   6.671  11.688   9.128 -0.2266 -0.1367  2.1429
  836MOL0     H12814   6.754  11.870   9.270 -0.9675  0.2981 -0.4380
  836MOL0     H12815   6.902  11.878   9.179 -1.3850  2.6423  2.7309
  836MOL0     H12816   6.613  11.921   9.081 -1.0656  1.5872 -1.9553
  836MOL0     H12817   6.742  11.892   8.977 -0.0667 -2.4908  1.1022
  836MOL0     H12818   6.732  12.137   9.007 -0.7170 -1.3900 -0.3658
  836MOL0     H12819   6.875  12.084   9.104  0.8732  0.3386 -1.2594
  836MOL0     H12820   6.506  12.087   9.037  0.7946 -0.0319  0.3674
  836MOL0     H12821   6.268  12.127   9.087  3.7529 -2.7149 -3.6224
  836MOL0     H12822   5.904  12.050   9.375  0.7260 -0.9404  0.2361
  836MOL0     H12823   5.657  12.133   9.398  0.4427 -0.0379  1.3121
  836MOL0     H12824   5.432  12.222   9.364 -2.9259  1.2940 -1.4314
  836MOL0     H12825   5.521  12.353   9.459  1.3592  0.8807 -0.6351
  836MOL0     H12826   5.287  12.365   9.283 -1.5425  1.1870  0.3295
  836MOL0     H12827   5.311  12.390   9.461  1.7097 -0.2561 -0.2370
  836MOL0     H12828   5.434  12.565   9.245 -1.8991 -1.5485 -2.9098
  836MOL0     H12829   5.276  12.594   9.289  1.3299  0.8460 -0.3180
  836MOL0     H12830   5.508  12.618   9.477 -0.9093 -0.4829  0.9582
  836MOL0     H12831   5.346  12.615   9.542  0.1928  1.8769 -0.0124
  836MOL0     H12832   5.306  12.845   9.456  1.0175  1.0353  0.9434
  836MOL0     H12833   5.422  12.809   9.333 -0.4650  0.5940 -0.7671
  836MOL0     H12834   5.515  12.859   9.622  1.7053  0.1572 -0.0517
  836MOL0     H12835   5.612  12.808   9.488  0.5868 -2.2075  0.9655
  836MOL0     H12836   5.440  13.049   9.475  1.1636  0.7913  1.7641
  836MOL0     H12837   5.568  12.987   9.358  0.3162 -0.6014  0.2789
  836MOL0     H12838   5.601  13.107   9.622 -0.0785 -4.6060 -0.0249
  836MOL0     H12839   5.738  13.043   9.540  0.0721  0.9139 -1.2818
  836MOL0     H12840   5.741  12.433   9.108 -0.7529  0.6610  0.9337
  836MOL0     H12841   5.982  12.363   9.103  2.6707  1.7685  3.7260
  836MOL0     H12842   6.375  12.316   9.458 -1.6243 -1.9230  0.5429
  836MOL0     H12843   6.628  12.262   9.403  1.4509  0.7616 -1.0401
  836MOL0     H12844   7.666  10.723  10.177  4.6351  1.5621  1.9232
  836MOL0     H12845   7.757  10.758  10.386 -1.5263 -0.7097  1.0066
  836MOL0     H12846   7.861  10.929  10.734  0.6979  0.0353  0.0277
  836MOL0     H12847   7.980  10.848  10.917  0.0896  1.8303 -1.9003
  836MOL0     H12848   7.909  10.580  11.280 -0.6188 -1.4187 -1.6958
  836MOL0     H12849   7.754  10.593  11.219 -0.2328 -2.2436  1.0944
  836MOL0     H12850   7.745  10.716  11.410 -0.7291  1.1840  1.7192
  836MOL0     H12851   7.746  10.834  11.278  1.7429  1.0410 -0.0814
  836MOL0     H12852   7.916  10.934  11.441  5.6441  0.9225  1.8312
  836MOL0     H12853   7.981  10.873  11.298 -2.3794  1.2753 -1.4912
  836MOL0     H12854   8.082  10.676  11.427  1.7361  1.1838 -1.4024
  836MOL0     H12855   8.127  10.830  11.482 -1.1368  0.6704  2.9075
  836MOL0     H12856   7.882  10.688  11.807 -1.6626  1.4367 -0.2690
  836MOL0     H12857   7.613  10.638  11.062  1.4301 -3.6668 -0.2964
  836MOL0     H12858   7.427  10.696  10.997 -1.4840 -2.5265 -1.2592
  836MOL0     H12859   7.412  10.827  10.887  2.7416  0.7638  1.4002
  836MOL0     H12860   7.406  10.664  10.821 -1.4027 -1.7299  1.6186
  837MOL0     O12861   8.516   9.324   5.114 -0.0120  0.6195  0.1330
  837MOL0     C12862   8.496   9.439   5.082 -0.1062 -0.8559  0.7849
  837MOL0     O12863   8.416   9.480   4.983 -0.5488 -0.5087  0.0536
  837MOL0     C12864   8.361   9.387   4.896  1.0506  0.3490 -0.9271
  837MOL0     C12865   8.223   9.390   4.874  0.2206  0.4089  0.1489
  837MOL0     C12866   8.161   9.315   4.774 -0.0490  0.3724  0.9416
  837MOL0     C12867   8.232   9.237   4.686  0.1966  0.1105  0.3506
  837MOL0     O12868   8.172   9.177   4.573  0.2354  0.2369  0.8940
  837MOL0     C12869   8.245   9.217   4.449  0.6509 -0.8724  0.8575
  837MOL0     C12870   8.143   9.220   4.334  0.1933 -0.5673 -0.6610
  837MOL0     C12871   8.220   9.276   4.209 -0.4814  0.4716 -0.2499
  837MOL0     C12872   8.128   9.266   4.092 -0.4038 -0.6589  0.4265
  837MOL0     C12873   8.188   9.296   3.952  0.8627 -0.5872  1.0947
  837MOL0     C12874   8.250   9.176   3.875 -0.7692  0.2804  0.2225
  837MOL0     C12875   8.377   9.118   3.940  0.4774 -0.3285  0.2020
  837MOL0     C12876   8.438   9.010   3.860 -1.5530 -0.3803  0.0046
  837MOL0     N12877   8.562   9.059   3.793  0.2994  0.6299 -0.4174
  837MOL0     C12878   8.685   9.011   3.824 -0.2833 -1.5227  0.2960
  837MOL0     C12879   8.770   9.069   3.738  0.3654 -1.0770 -0.5774
  837MOL0     C12880   8.919   9.075   3.749 -1.0674  1.1377  0.0302
  837MOL0     C12881   8.986   9.206   3.817 -0.7949  0.0291 -0.7158
  837MOL0     C12882   9.135   9.240   3.787 -0.5649 -0.5523  0.6227
  837MOL0     C12883   9.235   9.139   3.856  0.1672 -0.0858 -0.0756
  837MOL0     O12884   9.208   9.009   3.813  0.6326 -0.4253 -0.1051
  837MOL0     C12885   9.241   8.895   3.892  0.2965 -0.2750 -0.2580
  837MOL0     C12886   9.197   8.775   3.842  0.2089 -0.0488 -0.9069
  837MOL0     C12887   9.224   8.655   3.913  0.4031  0.2824 -0.4351
  837MOL0     C12888   9.305   8.659   4.028  0.2822 -0.1563 -0.4778
  837MOL0     C12889   9.364   8.533   4.079 -0.3881  0.4124 -0.1810
  837MOL0     O12890   9.316   8.422   4.020  0.0436  0.4865  0.6891
  837MOL0     C12891   9.364   8.296   4.054 -0.7621 -0.4345 -0.0798
  837MOL0     C12892   9.501   8.262   4.053  0.6597  1.4584  0.7603
  837MOL0     C12893   9.533   8.132   4.070 -0.0396  0.3290 -0.1852
  837MOL0     C12894   9.443   8.029   4.096 -0.1036 -0.0712 -0.0308
  837MOL0     O12895   9.482   7.898   4.111 -0.5441 -0.3731  0.2793
  837MOL0     C12896   9.592   7.873   4.203 -0.2734  0.5870  0.4005
  837MOL0     C12897   9.578   7.750   4.298  0.3176 -0.2298 -0.3374
  837MOL0     C12898   9.511   7.804   4.437  0.3767  0.6671  1.2411
  837MOL0     C12899   9.365   7.834   4.391 -0.2880  0.1985 -0.1771
  837MOL0     C12900   9.278   7.847   4.508  1.7916  0.0300  0.0882
  837MOL0     C12901   9.301   7.952   4.620  0.1766 -0.4335 -0.1042
  837MOL0     C12902   9.269   8.089   4.583 -0.1259 -0.1962  0.3834
  837MOL0     C12903   9.316   8.194   4.680  0.0333  1.1767  0.8249
  837MOL0    Cl12904   9.197   8.199   4.820  0.5425 -0.1821 -0.0396
  837MOL0     C12905   9.315   8.064   4.102 -0.1064 -0.2341  0.7933
  837MOL0     C12906   9.278   8.199   4.086  0.2274  0.0413  0.3475
  837MOL0     O12907   9.431   8.535   4.180  0.2327  0.6667 -0.3111
  837MOL0     C12908   9.346   8.787   4.079 -1.2046  0.0079 -0.0599
  837MOL0     C12909   9.318   8.904   4.005  0.4204 -0.2243 -0.9482
  837MOL0     N12910   8.699   9.138   3.643  0.3827  0.7118  0.0448
  837MOL0     N12911   8.572   9.135   3.688  0.2308 -0.5309  0.0106
  837MOL0     C12912   8.367   9.232   4.709 -0.4293 -0.1467 -0.2847
  837MOL0     C12913   8.434   9.300   4.810 -0.1304  0.4067  0.7270
  837MOL0     C12914   8.549   9.543   5.163 -0.1711  0.2102 -1.0170
  837MOL0     C12915   8.689   9.557   5.161  0.1895  0.6691  0.1552
  837MOL0     C12916   8.753   9.651   5.247  0.7985  1.2651 -0.2987
  837MOL0     C12917   8.672   9.736   5.325  0.7087 -0.4227 -0.1909
  837MOL0     O12918   8.736   9.836   5.393  0.3178  0.0664 -0.3670
  837MOL0     C12919   8.799   9.797   5.519  0.1056 -1.0634  0.4508
  837MOL0     C12920   8.688   9.789   5.625 -0.1928 -0.7019 -0.0500
  837MOL0     C12921   8.742   9.772   5.774  0.3613 -0.1102  0.3573
  837MOL0     C12922   8.819   9.891   5.823  0.1598 -0.0403 -0.0643
  837MOL0     C12923   8.852   9.904   5.964  0.8239 -0.5054 -0.4758
  837MOL0     C12924   8.886   9.926   6.075 -0.7394  1.4332  0.0235
  837MOL0     C12925   8.529   9.737   5.304 -0.1528  0.4035  0.6406
  837MOL0     C12926   8.467   9.641   5.224  0.1633 -0.2529 -0.8699
  837MOL0     C12927   8.313   9.627   5.241 -0.2468  0.3386  1.3272
  837MOL0     H12928   8.152   9.449   4.931 -2.7663 -0.6101 -2.2316
  837MOL0     H12929   8.055   9.329   4.756 -0.4046 -1.2150  1.5663
  837MOL0     H12930   8.289   9.315   4.468  1.4005 -1.5282  2.7829
  837MOL0     H12931   8.321   9.147   4.414  1.3078  0.8339 -1.3088
  837MOL0     H12932   8.060   9.288   4.355 -0.0159 -0.6655 -1.1537
  837MOL0     H12933   8.099   9.122   4.316  2.6245 -1.6384 -1.2691
  837MOL0     H12934   8.310   9.218   4.190 -0.9031  0.6411 -3.2542
  837MOL0     H12935   8.256   9.379   4.207  1.8859 -0.2777 -2.6365
  837MOL0     H12936   8.065   9.177   4.091 -0.5268 -0.5769 -0.8711
  837MOL0     H12937   8.061   9.352   4.106 -1.3028 -1.2546 -0.1043
  837MOL0     H12938   8.116   9.344   3.886 -2.6263 -2.7859  2.9962
  837MOL0     H12939   8.269   9.368   3.968  1.1429 -1.2913  3.2146
  837MOL0     H12940   8.182   9.094   3.851  2.5025 -2.0967 -1.6833
  837MOL0     H12941   8.274   9.216   3.776  2.2169  0.2593  0.8522
  837MOL0     H12942   8.335   9.065   4.027 -1.2936 -0.6711 -0.8064
  837MOL0     H12943   8.452   9.190   3.973  0.5101 -1.2059  2.2065
  837MOL0     H12944   8.477   8.939   3.934  0.3179  0.6391  0.0576
  837MOL0     H12945   8.364   8.969   3.791 -0.5079  0.4723 -1.6816
  837MOL0     H12946   8.716   8.954   3.911  0.6009 -0.6210  0.5875
  837MOL0     H12947   8.966   8.999   3.812 -0.3380  2.1927  0.8118
  837MOL0     H12948   8.960   9.045   3.653 -0.2765 -3.1274  1.4763
  837MOL0     H12949   8.927   9.288   3.775  1.1010  1.4062 -0.8233
  837MOL0     H12950   8.967   9.205   3.925 -2.6217  3.5580 -0.8563
  837MOL0     H12951   9.156   9.340   3.828 -0.8513 -0.4289  0.4686
  837MOL0     H12952   9.150   9.235   3.679 -1.0677  1.0057  0.4474
  837MOL0     H12953   9.225   9.156   3.964 -0.6374  3.3419 -0.5476
  837MOL0     H12954   9.337   9.168   3.830  0.2005  0.8094  0.9724
  837MOL0     H12955   9.141   8.783   3.750  1.0654  2.9714 -1.2683
  837MOL0     H12956   9.193   8.557   3.879  1.1588  0.2467 -1.0585
  837MOL0     H12957   9.576   8.340   4.041 -1.7262  3.8404  0.3862
  837MOL0     H12958   9.638   8.104   4.066 -0.5838 -1.6616 -2.4206
  837MOL0     H12959   9.669   7.856   4.127 -0.8699 -0.4438  0.0004
  837MOL0     H12960   9.643   7.957   4.251  4.0543 -1.3318 -0.3434
  837MOL0     H12961   9.521   7.665   4.260 -3.1314  1.5890  0.3730
  837MOL0     H12962   9.680   7.714   4.317 -0.4500 -1.1802  2.4809
  837MOL0     H12963   9.514   7.725   4.513 -2.0541 -0.8411 -0.1005
  837MOL0     H12964   9.562   7.897   4.465 -0.8977  2.2406 -1.3007
  837MOL0     H12965   9.336   7.753   4.324  1.1621 -1.8825  1.5784
  837MOL0     H12966   9.364   7.924   4.330 -1.0239 -1.0581 -2.1011
  837MOL0     H12967   9.272   7.746   4.551 -0.9465 -0.8838 -2.0770
  837MOL0     H12968   9.175   7.852   4.471  2.8875 -2.6946 -4.1673
  837MOL0     H12969   9.233   7.939   4.705  1.1042  4.0429  1.5634
  837MOL0     H12970   9.401   7.941   4.663 -0.9429 -1.2477  2.4994
  837MOL0     H12971   9.161   8.101   4.571  0.1376  0.5084 -1.8891
  837MOL0     H12972   9.298   8.110   4.479 -1.6088 -0.2968 -0.0723
  837MOL0     H12973   9.418   8.174   4.713 -0.2694 -0.2755  0.9652
  837MOL0     H12974   9.311   8.283   4.617  2.3059 -0.7003 -2.2641
  837MOL0     H12975   9.235   7.993   4.118 -0.1209 -0.1984  0.8767
  837MOL0     H12976   9.170   8.208   4.094 -0.1733  0.0463 -3.3405
  837MOL0     H12977   9.410   8.788   4.167 -2.9840 -1.1065  1.3106
  837MOL0     H12978   9.354   9.005   4.023 -0.3834 -0.2802  1.1655
  837MOL0     H12979   8.435   9.173   4.648 -2.2178  0.0032 -2.5547
  837MOL0     H12980   8.540   9.284   4.825  0.3145 -0.7672 -2.8440
  837MOL0     H12981   8.747   9.483   5.108  1.6760 -0.2547  2.8786
  837MOL0     H12982   8.860   9.667   5.240  1.4460 -1.1550  2.3164
  837MOL0     H12983   8.866   9.876   5.554  1.2903 -1.0233 -1.7478
  837MOL0     H12984   8.867   9.713   5.502 -1.5938 -2.3845 -0.1225
  837MOL0     H12985   8.633   9.698   5.600 -2.0627 -0.8235  3.7207
  837MOL0     H12986   8.620   9.875   5.625 -0.9821 -1.1259 -3.8702
  837MOL0     H12987   8.804   9.683   5.784 -0.0422 -0.6953 -1.9445
  837MOL0     H12988   8.659   9.755   5.843  2.3959 -1.5841  2.5912
  837MOL0     H12989   8.919   9.886   5.779  0.0033 -0.4264 -0.3852
  837MOL0     H12990   8.776   9.983   5.782  0.5460  0.2094  0.0838
  837MOL0     H12991   8.927   9.939   6.173 -1.6942 -2.2005  1.0439
  837MOL0     H12992   8.479   9.804   5.374  0.1453  0.3714  0.8918
  837MOL0     H12993   8.296   9.668   5.341 -0.3184 -1.0243  1.8874
  837MOL0     H12994   8.250   9.685   5.173  0.6750 -0.1426  0.0197
  837MOL0     H12995   8.284   9.522   5.235  0.9859 -0.0664  2.0421
  838MOL0     O12996   3.629   2.070   3.596 -0.3526  0.5276 -0.0785
  838MOL0     C12997   3.563   2.002   3.518 -0.0232  0.7046 -0.4120
  838MOL0     O12998   3.501   1.884   3.552  0.0686 -0.6232  0.0135
  838MOL0     C12999   3.463   1.839   3.675 -0.1641 -0.0203  0.4487
  838MOL0     C13000   3.444   1.706   3.697  0.7647 -0.4310  0.4916
  838MOL0     C13001   3.411   1.649   3.818  0.0501 -1.0246 -0.2522
  838MOL0     C13002   3.379   1.731   3.928 -0.0638 -0.0347  0.9925
  838MOL0     O13003   3.317   1.693   4.045  0.1364  0.3607 -0.8551
  838MOL0     C13004   3.222   1.580   4.043 -0.7956  0.0437 -0.4105
  838MOL0     C13005   3.179   1.545   4.185 -0.0247  0.2263  0.2417
  838MOL0     C13006   3.294   1.524   4.283 -0.1896 -0.8412  0.5145
  838MOL0     C13007   3.396   1.421   4.231 -0.0148 -1.0443 -0.5945
  838MOL0     C13008   3.495   1.383   4.336  0.2056 -1.4954  0.3779
  838MOL0     C13009   3.600   1.285   4.299  0.0791 -0.2703 -1.1924
  838MOL0     C13010   3.656   1.227   4.428  0.4552  0.0014 -0.1291
  838MOL0     C13011   3.564   1.125   4.488  0.1196  0.1724 -0.3535
  838MOL0     N13012   3.638   1.052   4.588 -0.4195 -0.0604  0.3083
  838MOL0     C13013   3.763   1.005   4.570 -0.7017 -0.5725 -0.4721
  838MOL0     C13014   3.776   0.923   4.681 -0.3062 -0.0838 -0.0791
  838MOL0     C13015   3.902   0.850   4.713  0.6643 -0.3794  0.9373
  838MOL0     C13016   3.987   0.905   4.830 -1.0425 -0.2619  0.1097
  838MOL0     C13017   4.097   0.998   4.794 -0.4896  0.0142 -0.5962
  838MOL0     C13018   4.210   1.009   4.901 -0.5460  0.4006  0.1598
  838MOL0     O13019   4.286   0.886   4.891 -0.6054  0.6513  0.0941
  838MOL0     C13020   4.410   0.888   4.951 -0.0929 -0.6503  0.9024
  838MOL0     C13021   4.508   0.798   4.905  0.1426  0.7734 -0.0155
  838MOL0     C13022   4.635   0.797   4.952 -1.0197 -0.1142 -0.4551
  838MOL0     C13023   4.672   0.876   5.064 -0.5519 -0.4145 -1.3629
  838MOL0     C13024   4.808   0.860   5.122 -0.5648 -0.1302 -0.7974
  838MOL0     O13025   4.846   0.957   5.208  0.6553 -0.2423  0.5942
  838MOL0     C13026   4.947   0.927   5.292  0.0038  0.9437 -1.0747
  838MOL0     C13027   4.933   0.859   5.416 -0.2320  0.7646 -0.8283
  838MOL0     C13028   5.045   0.848   5.499 -0.2900  0.6034 -0.0581
  838MOL0     C13029   5.166   0.906   5.478  1.5375  0.4763 -0.0996
  838MOL0     O13030   5.259   0.887   5.579  0.3004  0.2251  1.0793
  838MOL0     C13031   5.389   0.896   5.523 -0.9564  0.4802  0.3441
  838MOL0     C13032   5.502   0.856   5.626  0.1002 -1.5344  0.4654
  838MOL0     C13033   5.545   0.972   5.708  0.1599  0.2787 -1.2295
  838MOL0     C13034   5.664   1.051   5.651 -0.5638 -0.5519 -0.7450
  838MOL0     C13035   5.707   1.154   5.753  1.0067 -0.7608 -0.2278
  838MOL0     C13036   5.798   1.089   5.867 -0.4851  0.3187 -0.3513
  838MOL0     C13037   5.845   1.199   5.965  0.3318 -0.1230  0.1277
  838MOL0     C13038   5.717   1.252   6.040  0.3740 -0.7623  0.1510
  838MOL0    Cl13039   5.778   1.297   6.202 -0.3985 -0.0791  0.0487
  838MOL0     C13040   5.173   0.976   5.357  0.5499 -0.1132  0.1060
  838MOL0     C13041   5.066   0.981   5.265  0.8406 -0.5534  0.7550
  838MOL0     O13042   4.878   0.763   5.092 -0.3539 -0.0881 -0.2577
  838MOL0     C13043   4.577   0.977   5.104 -0.6184 -0.3833  0.5842
  838MOL0     C13044   4.448   0.975   5.052  0.4929 -0.6293  0.2657
  838MOL0     N13045   3.661   0.927   4.763 -0.6334  1.1962  0.0188
  838MOL0     N13046   3.581   1.014   4.707  0.4175  0.2204  0.4996
  838MOL0     C13047   3.424   1.868   3.919  0.7980 -0.1825  0.2115
  838MOL0     C13048   3.461   1.922   3.792 -0.0801  0.3220  0.3982
  838MOL0     C13049   3.562   2.046   3.370  0.1803 -0.1024  1.3305
  838MOL0     C13050   3.461   1.985   3.284  0.3746  0.6604 -0.3324
  838MOL0     C13051   3.437   2.032   3.158 -0.1381  0.3020  0.1990
  838MOL0     C13052   3.511   2.135   3.093 -0.1083 -0.2123  0.9425
  838MOL0     O13053   3.462   2.178   2.968 -0.5983  0.0079 -0.6299
  838MOL0     C13054   3.516   2.299   2.911  0.6535  0.2219 -0.4039
  838MOL0     C13055   3.416   2.344   2.802  0.0299 -0.7945  0.6008
  838MOL0     C13056   3.459   2.479   2.742  0.8693 -0.0990 -0.1861
  838MOL0     C13057   3.581   2.460   2.642  0.0466 -0.5580  0.6091
  838MOL0     C13058   3.613   2.593   2.583 -0.3210 -0.1372 -0.7247
  838MOL0     C13059   3.633   2.706   2.538 -0.3098  0.0135 -0.3450
  838MOL0     C13060   3.604   2.197   3.173  0.1561 -0.0151  0.4096
  838MOL0     C13061   3.620   2.165   3.310 -0.2613 -0.3474  1.1564
  838MOL0     C13062   3.727   2.248   3.374 -0.0911  0.2273 -0.1907
  838MOL0     H13063   3.454   1.645   3.608  2.5136 -0.2028  0.4979
  838MOL0     H13064   3.394   1.541   3.821 -2.3824 -0.7316 -1.2945
  838MOL0     H13065   3.132   1.617   3.993 -0.5418  2.5573  0.8465
  838MOL0     H13066   3.273   1.497   3.993 -0.8245 -0.7080  0.7699
  838MOL0     H13067   3.124   1.451   4.185  0.0251  0.1734  2.0244
  838MOL0     H13068   3.098   1.612   4.215 -0.7587 -0.5943  0.1128
  838MOL0     H13069   3.261   1.497   4.384 -1.8941 -1.6019 -0.2052
  838MOL0     H13070   3.343   1.621   4.283  0.5556 -1.2043 -0.9422
  838MOL0     H13071   3.336   1.332   4.209  0.3641 -1.6419  0.7106
  838MOL0     H13072   3.443   1.446   4.135  1.9300 -3.3277 -0.3280
  838MOL0     H13073   3.534   1.475   4.380  0.8163 -0.1629 -2.6768
  838MOL0     H13074   3.422   1.340   4.406 -0.8289 -0.8745 -0.3057
  838MOL0     H13075   3.550   1.207   4.243 -1.9524 -0.2179  0.4151
  838MOL0     H13076   3.692   1.331   4.261 -0.0168  1.5743  0.6058
  838MOL0     H13077   3.667   1.307   4.501  4.5815 -0.1366 -0.3241
  838MOL0     H13078   3.752   1.187   4.392  0.3948 -2.0878  1.7892
  838MOL0     H13079   3.475   1.163   4.538 -0.4056 -0.4147 -0.8274
  838MOL0     H13080   3.526   1.064   4.406  1.9890 -0.0662 -1.0973
  838MOL0     H13081   3.849   1.016   4.504 -1.1590 -4.3448 -1.8975
  838MOL0     H13082   3.864   0.754   4.748  0.3603 -0.7601 -0.3957
  838MOL0     H13083   3.963   0.835   4.623  0.4479 -1.5638  0.9845
  838MOL0     H13084   3.926   0.947   4.910  1.0459  1.6880  0.7624
  838MOL0     H13085   4.038   0.817   4.869  0.0413 -0.1228 -0.9437
  838MOL0     H13086   4.052   1.097   4.786  0.3977  0.5511  0.6795
  838MOL0     H13087   4.142   0.974   4.698 -2.6968 -1.5889 -1.3037
  838MOL0     H13088   4.158   1.026   4.996 -2.6911  1.6411 -1.1481
  838MOL0     H13089   4.275   1.096   4.887  1.2016 -0.5146  1.9801
  838MOL0     H13090   4.488   0.744   4.813 -0.8870  3.9043 -1.7596
  838MOL0     H13091   4.708   0.729   4.908  2.0823  1.0014  2.5017
  838MOL0     H13092   4.832   0.819   5.422  1.1272 -2.8529  0.9572
  838MOL0     H13093   5.043   0.787   5.589 -2.2954 -0.3084 -0.6668
  838MOL0     H13094   5.400   0.838   5.430  2.1601  0.7833  0.4134
  838MOL0     H13095   5.407   1.001   5.499 -1.4305  0.7565  1.1634
  838MOL0     H13096   5.456   0.785   5.695 -1.8674 -0.3163  0.4705
  838MOL0     H13097   5.594   0.822   5.578  1.9523  0.1133  2.6496
  838MOL0     H13098   5.469   1.042   5.743  1.7566  0.9529  1.0749
  838MOL0     H13099   5.576   0.934   5.806  1.6059 -1.2191 -2.2102
  838MOL0     H13100   5.641   1.097   5.554  3.4949  0.8380 -1.2307
  838MOL0     H13101   5.752   0.990   5.629 -0.3335 -1.1898  1.7094
  838MOL0     H13102   5.615   1.200   5.789  0.1311 -2.6852  0.1264
  838MOL0     H13103   5.763   1.234   5.703  2.2535 -0.0071  2.1989
  838MOL0     H13104   5.754   1.005   5.921  0.1686 -1.1390 -1.9759
  838MOL0     H13105   5.883   1.047   5.811 -1.6529 -1.1783 -1.0991
  838MOL0     H13106   5.918   1.272   5.929  1.6218 -0.2801  2.2316
  838MOL0     H13107   5.908   1.144   6.036 -0.0814 -1.9540 -0.8340
  838MOL0     H13108   5.679   1.337   5.982  1.0452 -0.1766  0.5487
  838MOL0     H13109   5.639   1.177   6.058 -0.0622 -0.4003 -0.2070
  838MOL0     H13110   5.260   1.032   5.327  0.3974  0.2717  0.3748
  838MOL0     H13111   5.085   1.026   5.168  3.0566 -2.2328  0.3222
  838MOL0     H13112   4.610   1.046   5.181 -0.0034 -1.0071  0.8943
  838MOL0     H13113   4.380   1.042   5.105 -0.1197 -0.3755 -0.8217
  838MOL0     H13114   3.407   1.934   4.004 -0.7292 -0.5931  0.2426
  838MOL0     H13115   3.486   2.027   3.781  2.8099 -0.3457 -0.3750
  838MOL0     H13116   3.407   1.898   3.321  2.2990  1.0602  4.0707
  838MOL0     H13117   3.368   1.970   3.100  1.0721 -0.0485 -0.9188
  838MOL0     H13118   3.614   2.274   2.867 -1.1054  0.6003 -5.1775
  838MOL0     H13119   3.527   2.370   2.993  1.6669 -1.0357  0.5883
  838MOL0     H13120   3.320   2.347   2.855  0.8188 -2.2115  2.2289
  838MOL0     H13121   3.415   2.271   2.722 -0.0293 -0.0793 -0.0600
  838MOL0     H13122   3.486   2.538   2.830  0.9894  1.6025 -1.3152
  838MOL0     H13123   3.379   2.528   2.685 -1.0007 -1.5237  1.0857
  838MOL0     H13124   3.672   2.435   2.697 -0.6963  0.1848  2.2800
  838MOL0     H13125   3.567   2.389   2.560  0.0645  1.9127 -1.6673
  838MOL0     H13126   3.663   2.804   2.508  2.2644  0.5379  3.3022
  838MOL0     H13127   3.656   2.279   3.124 -1.4235  0.3303 -0.8004
  838MOL0     H13128   3.731   2.236   3.483 -0.0836  0.6706 -0.1389
  838MOL0     H13129   3.830   2.232   3.340 -0.4422 -1.0587 -0.6821
  838MOL0     H13130   3.693   2.351   3.356  0.7218  1.5597  4.5731
  839MOL0     O13131   9.885   4.585   6.142  0.0879 -0.0734 -0.7292
  839MOL0     C13132   9.906   4.564   6.260 -0.2625 -0.0579 -0.1347
  839MOL0     O13133  10.018   4.609   6.329  0.3308  0.0040  0.9415
  839MOL0     C13134  10.124   4.680   6.266 -0.0583 -0.3638 -1.0389
  839MOL0     C13135  10.131   4.740   6.143 -0.1650 -0.1699  1.1569
  839MOL0     C13136  10.254   4.790   6.083 -0.4472  1.4085  0.1956
  839MOL0     C13137  10.362   4.796   6.171  0.1116  0.2466 -1.2463
  839MOL0     O13138  10.489   4.845   6.126  0.0898 -0.0810 -0.5930
  839MOL0     C13139  10.497   4.960   6.039  0.4648 -0.6083 -0.3652
  839MOL0     C13140  10.536   4.940   5.887 -0.5070  0.5159  1.0999
  839MOL0     C13141  10.637   4.830   5.851  0.1324  0.0850 -0.4507
  839MOL0     C13142  10.578   4.680   5.872 -0.2219  0.5558  0.3976
  839MOL0     C13143  10.630   4.594   5.758 -0.7114  0.7913 -0.5936
  839MOL0     C13144  10.779   4.616   5.725  0.5455  1.3723 -0.0489
  839MOL0     C13145  10.820   4.498   5.634 -0.6783  0.1431 -0.4428
  839MOL0     C13146  10.775   4.527   5.490  0.7262  0.2370 -1.3752
  839MOL0     N13147  10.840   4.437   5.394 -0.4136 -0.5334  0.3351
  839MOL0     C13148  10.841   4.469   5.257  0.4358  0.3846  0.3227
  839MOL0     C13149  10.865   4.346   5.193  0.6606 -0.1406  0.3722
  839MOL0     C13150  10.896   4.321   5.045 -0.7722  0.2241 -0.5314
  839MOL0     C13151  10.982   4.188   5.022  0.2708 -1.4815 -0.6633
  839MOL0     C13152  11.116   4.196   5.079  0.0329 -0.6325  0.1333
  839MOL0     C13153  11.202   4.079   5.059  0.1081  0.2588 -0.0425
  839MOL0     O13154  11.180   4.021   4.937 -0.3418  0.5783  0.1597
  839MOL0     C13155  11.277   4.025   4.841 -1.2158  0.0709 -1.1553
  839MOL0     C13156  11.422   4.012   4.859  0.8383 -0.0466  0.2874
  839MOL0     C13157  11.503   4.051   4.759 -1.1042 -0.5459  1.2903
  839MOL0     C13158  11.465   4.089   4.632  0.0242 -0.1715 -0.5402
  839MOL0     C13159  11.561   4.119   4.524 -0.0946 -0.4744  0.7916
  839MOL0     O13160  11.695   4.116   4.567 -0.7106  0.5066  0.2224
  839MOL0     C13161  11.787   4.177   4.484  1.1304 -1.0563  0.3858
  839MOL0     C13162  11.898   4.107   4.445  0.0353  0.0713 -0.2832
  839MOL0     C13163  11.995   4.172   4.370 -0.0128  1.2341 -0.1367
  839MOL0     C13164  11.990   4.305   4.334 -0.1153  0.7714  0.9110
  839MOL0     O13165  12.070   4.377   4.251  0.5747 -0.1867  0.6975
  839MOL0     C13166  12.189   4.323   4.192 -0.3337  0.5335 -0.0098
  839MOL0     C13167  12.274   4.417   4.104 -0.5111 -0.0246  0.4407
  839MOL0     C13168  12.354   4.521   4.179 -0.0203 -0.4020 -0.2372
  839MOL0     C13169  12.271   4.617   4.274  0.3779 -0.3443  1.0127
  839MOL0     C13170  12.365   4.699   4.365  0.0485  1.0689  0.7529
  839MOL0     C13171  12.449   4.797   4.288 -0.6308 -1.0841 -0.4641
  839MOL0     C13172  12.494   4.919   4.380  0.2263  0.8857 -0.9371
  839MOL0     C13173  12.389   5.031   4.384  0.2744  1.0179  0.1054
  839MOL0    Cl13174  12.451   5.163   4.480  0.1424  0.4642 -0.5650
  839MOL0     C13175  11.871   4.374   4.363  0.1198 -0.4602  0.6145
  839MOL0     C13176  11.778   4.310   4.447  0.2789  0.2358 -1.0769
  839MOL0     O13177  11.524   4.160   4.417 -0.1051 -1.2873  0.1382
  839MOL0     C13178  11.323   4.085   4.616  0.4308  0.5958  0.1327
  839MOL0     C13179  11.237   4.059   4.719  0.3404 -0.4805  0.4029
  839MOL0     N13180  10.890   4.257   5.296  0.3721  0.2652  0.6400
  839MOL0     N13181  10.866   4.303   5.409  0.5906  0.2245 -0.5362
  839MOL0     C13182  10.360   4.744   6.301 -0.2057  0.6101  0.2008
  839MOL0     C13183  10.239   4.690   6.350  0.5543 -0.3564 -0.7091
  839MOL0     C13184   9.795   4.515   6.340  0.1718  0.8969 -0.7668
  839MOL0     C13185   9.707   4.607   6.404  0.1231  0.4624  0.2192
  839MOL0     C13186   9.604   4.566   6.483  0.1032  0.1096 -0.2655
  839MOL0     C13187   9.592   4.429   6.509  0.1255 -0.2466 -0.4746
  839MOL0     O13188   9.483   4.382   6.582 -0.4203 -0.2206  0.1903
  839MOL0     C13189   9.401   4.279   6.519 -1.4132  0.1421 -0.0894
  839MOL0     C13190   9.309   4.323   6.399  0.3348 -0.9750  0.4580
  839MOL0     C13191   9.388   4.346   6.267 -0.6366  0.4240 -0.6240
  839MOL0     C13192   9.303   4.327   6.150  0.5603  0.4374  0.2805
  839MOL0     C13193   9.391   4.329   6.029  0.0748 -0.4256  0.4301
  839MOL0     C13194   9.445   4.319   5.921 -0.5984 -0.6311  0.7713
  839MOL0     C13195   9.672   4.333   6.444  0.6701 -0.6093 -0.1095
  839MOL0     C13196   9.774   4.376   6.360 -0.0025 -0.1855  0.3378
  839MOL0     C13197   9.865   4.275   6.294 -0.8972 -0.5756  0.8321
  839MOL0     H13198  10.046   4.729   6.076  0.0918  0.4349  0.7223
  839MOL0     H13199  10.280   4.822   5.982  0.1110  1.8051  0.4543
  839MOL0     H13200  10.405   5.019   6.049  0.2517 -1.0181  0.1703
  839MOL0     H13201  10.585   5.012   6.077  0.0476 -1.5664  2.0942
  839MOL0     H13202  10.586   5.028   5.845 -0.3058 -1.6500 -3.9055
  839MOL0     H13203  10.444   4.934   5.829 -1.3633  0.4693  2.4177
  839MOL0     H13204  10.730   4.850   5.903  1.8435 -3.2421 -1.8631
  839MOL0     H13205  10.652   4.844   5.743  2.7992  2.0719  0.0847
  839MOL0     H13206  10.596   4.649   5.975 -0.6659 -0.3112  0.2242
  839MOL0     H13207  10.469   4.673   5.864  0.0345 -1.9409 -3.6398
  839MOL0     H13208  10.616   4.489   5.785  1.7601  0.4840 -0.2517
  839MOL0     H13209  10.567   4.599   5.668  0.3333 -2.6081 -1.6813
  839MOL0     H13210  10.788   4.715   5.677  2.2872  2.1024  1.6725
  839MOL0     H13211  10.835   4.618   5.818  1.3775  2.2042 -0.5489
  839MOL0     H13212  10.787   4.402   5.674  0.6862 -1.9913 -3.9079
  839MOL0     H13213  10.929   4.493   5.636 -0.5846  1.3001  2.3011
  839MOL0     H13214  10.666   4.516   5.492  0.4423  0.6467  4.8251
  839MOL0     H13215  10.799   4.628   5.456  1.7944  1.0912  1.6166
  839MOL0     H13216  10.838   4.566   5.208  0.0667 -2.0017 -5.2151
  839MOL0     H13217  10.800   4.334   4.994 -2.3782 -3.1063  1.2821
  839MOL0     H13218  10.958   4.405   5.013 -3.4985  1.4752 -3.0058
  839MOL0     H13219  10.937   4.103   5.074  2.3731 -2.0704  0.3213
  839MOL0     H13220  10.990   4.177   4.913  0.6182  0.7574 -0.9113
  839MOL0     H13221  11.120   4.223   5.185  2.0955  0.4218 -0.1610
  839MOL0     H13222  11.171   4.278   5.030 -0.4788 -1.4850 -1.9711
  839MOL0     H13223  11.185   3.993   5.124 -3.0239  0.6442 -0.1979
  839MOL0     H13224  11.301   4.116   5.089  0.0091 -0.7045  1.5949
  839MOL0     H13225  11.447   3.987   4.962 -1.0631  2.2855  1.4303
  839MOL0     H13226  11.611   4.043   4.768 -1.2835 -1.9762  2.5311
  839MOL0     H13227  11.909   4.009   4.491 -0.7284  0.8916  1.8013
  839MOL0     H13228  12.081   4.114   4.339 -0.4000  0.2353  0.5832
  839MOL0     H13229  12.251   4.299   4.278  0.0668 -1.8223 -0.8723
  839MOL0     H13230  12.160   4.236   4.131 -2.0143  0.9859  0.0966
  839MOL0     H13231  12.338   4.344   4.054  1.4758  0.3978  2.1727
  839MOL0     H13232  12.214   4.467   4.027  1.2051  3.5517  1.1946
  839MOL0     H13233  12.431   4.467   4.235  0.1151 -2.2217 -2.0221
  839MOL0     H13234  12.404   4.584   4.105  4.3982 -0.6924  2.1528
  839MOL0     H13235  12.205   4.555   4.334 -0.5291 -1.0001 -0.6197
  839MOL0     H13236  12.218   4.684   4.206  3.8012  0.3391 -1.2348
  839MOL0     H13237  12.443   4.639   4.413  3.5813  3.7316 -1.1738
  839MOL0     H13238  12.297   4.759   4.425 -3.1872  0.0762 -1.6461
  839MOL0     H13239  12.532   4.751   4.232 -1.1377 -1.4005 -0.9697
  839MOL0     H13240  12.385   4.843   4.212 -1.7385  0.6206  1.4236
  839MOL0     H13241  12.586   4.960   4.337  0.6986 -0.1107 -0.9003
  839MOL0     H13242  12.519   4.889   4.482 -1.6844 -0.0959 -0.7109
  839MOL0     H13243  12.383   5.067   4.281  1.6455  1.5546  0.1945
  839MOL0     H13244  12.292   4.994   4.418  0.8072 -0.4481  0.1319
  839MOL0     H13245  11.865   4.475   4.325 -0.8250 -1.1225 -1.0865
  839MOL0     H13246  11.688   4.362   4.479 -0.4596  0.0584 -2.7281
  839MOL0     H13247  11.270   4.111   4.524 -2.4779  0.9235  1.7923
  839MOL0     H13248  11.130   4.058   4.700  0.6580  1.3551 -1.9078
  839MOL0     H13249  10.454   4.750   6.354  1.5460 -1.9622 -2.3180
  839MOL0     H13250  10.232   4.657   6.453  1.5577  0.1572 -0.4644
  839MOL0     H13251   9.717   4.715   6.393  0.7440  0.5604  1.5867
  839MOL0     H13252   9.536   4.641   6.521 -1.3088  0.9006 -3.9574
  839MOL0     H13253   9.336   4.256   6.604  0.8016 -0.6894  1.4805
  839MOL0     H13254   9.458   4.190   6.492  0.8992  2.3689 -3.1493
  839MOL0     H13255   9.249   4.411   6.423  0.3553 -0.3969 -1.4471
  839MOL0     H13256   9.234   4.243   6.388 -1.0446  0.2391  0.7713
  839MOL0     H13257   9.460   4.265   6.258 -2.0667 -1.1339  1.1859
  839MOL0     H13258   9.445   4.439   6.274 -0.2155  0.1975 -1.0231
  839MOL0     H13259   9.246   4.234   6.153 -2.5741  2.1664 -1.1129
  839MOL0     H13260   9.244   4.417   6.133  0.0372 -0.2705 -1.9537
  839MOL0     H13261   9.488   4.311   5.823 -3.7643 -1.1154 -0.7265
  839MOL0     H13262   9.648   4.229   6.462 -1.5715 -0.0023  0.7969
  839MOL0     H13263   9.870   4.178   6.343 -0.6288 -0.6259  0.7105
  839MOL0     H13264   9.838   4.270   6.188 -1.2911  4.0431  0.4897
  839MOL0     H13265   9.963   4.323   6.302 -1.9934  1.9897  0.0562
  840MOL0     O13266   6.901   1.650   8.451 -0.3184 -0.4077  0.3848
  840MOL0     C13267   6.905   1.654   8.328 -1.1817 -0.4851 -0.5507
  840MOL0     O13268   6.943   1.553   8.248 -0.0580 -0.4146  0.0851
  840MOL0     C13269   6.983   1.439   8.298 -0.5342  0.1845 -0.4009
  840MOL0     C13270   7.076   1.419   8.396  0.3190  0.4837 -0.1066
  840MOL0     C13271   7.129   1.295   8.430  0.2458 -0.0948  0.9666
  840MOL0     C13272   7.082   1.183   8.351  0.1493  0.0928 -0.1053
  840MOL0     O13273   7.115   1.054   8.375  0.6804  0.2509 -0.0166
  840MOL0     C13274   7.244   1.023   8.436  1.1596  0.0211 -0.2606
  840MOL0     C13275   7.284   0.877   8.407 -0.5089  0.5947  0.3793
  840MOL0     C13276   7.181   0.775   8.460  0.6782 -0.2437 -0.7558
  840MOL0     C13277   7.210   0.636   8.394  0.4033 -0.7290 -0.5249
  840MOL0     C13278   7.104   0.528   8.430  1.3059 -0.2959  0.1720
  840MOL0     C13279   7.132   0.404   8.352  0.7028 -0.3635  0.3346
  840MOL0     C13280   7.254   0.320   8.378 -0.2568  0.0924  0.0763
  840MOL0     C13281   7.243   0.234   8.501 -0.1114 -0.1239  0.0004
  840MOL0     N13282   7.360   0.145   8.518 -0.3986  0.3151 -0.4763
  840MOL0     C13283   7.491   0.179   8.530  0.7495  0.3548  0.2432
  840MOL0     C13284   7.559   0.060   8.554  0.0043  0.5408  0.2014
  840MOL0     C13285   7.711   0.054   8.547  0.7819 -0.5621 -0.3562
  840MOL0     C13286   7.757  -0.043   8.441 -0.7317  0.2430  0.7320
  840MOL0     C13287   7.912  -0.061   8.461  0.3681  0.8340  0.7283
  840MOL0     C13288   7.985  -0.190   8.407 -0.5747 -0.1560 -0.4261
  840MOL0     O13289   7.934  -0.318   8.467 -0.3866 -0.3907 -0.1005
  840MOL0     C13290   8.022  -0.421   8.456 -0.2604  0.3134  0.4612
  840MOL0     C13291   8.131  -0.422   8.372 -1.5313  0.1471  0.4919
  840MOL0     C13292   8.217  -0.533   8.369 -0.0412 -0.7049  0.4505
  840MOL0     C13293   8.209  -0.629   8.470  1.0282  0.8040 -0.2367
  840MOL0     C13294   8.305  -0.726   8.496  0.1100  0.4280  0.2983
  840MOL0     O13295   8.263  -0.852   8.532  0.9091  0.5222  0.3262
  840MOL0     C13296   8.331  -0.922   8.626  0.3241 -0.2909  0.5042
  840MOL0     C13297   8.348  -1.059   8.598  0.1596  0.0041  0.5157
  840MOL0     C13298   8.418  -1.131   8.690  0.0871  0.8581 -0.0287
  840MOL0     C13299   8.457  -1.082   8.817  0.4081  0.7548  0.8255
  840MOL0     O13300   8.516  -1.165   8.908 -0.1830  0.6712 -0.0474
  840MOL0     C13301   8.623  -1.114   8.996  0.6085 -0.5158  0.9844
  840MOL0     C13302   8.696  -1.229   9.066 -0.3499  0.7436  0.3233
  840MOL0     C13303   8.752  -1.334   8.971  0.2250 -0.7079 -0.1334
  840MOL0     C13304   8.790  -1.457   9.051  0.7774  0.5425  0.3891
  840MOL0     C13305   8.878  -1.565   8.998 -0.6592  0.7370  0.5892
  840MOL0     C13306   8.926  -1.660   9.105 -0.9000 -0.1110  0.3595
  840MOL0     C13307   9.004  -1.777   9.045 -0.3020 -0.1188  0.0801
  840MOL0     C13308   9.052  -1.880   9.150  0.1791 -1.3034 -0.3327
  840MOL0    Cl13309   9.116  -2.011   9.043  0.8173  0.2251  0.0071
  840MOL0     C13310   8.433  -0.947   8.845  0.8693  0.2705  0.6353
  840MOL0     C13311   8.366  -0.869   8.752  0.1274 -0.6322 -0.1769
  840MOL0     O13312   8.421  -0.691   8.470  0.1014  1.4206  0.1858
  840MOL0     C13313   8.107  -0.616   8.562 -0.0130 -0.2125  0.5303
  840MOL0     C13314   8.008  -0.527   8.551 -0.4166 -0.2110  0.3281
  840MOL0     N13315   7.463  -0.042   8.547 -0.4916  0.2975 -0.6633
  840MOL0     N13316   7.348   0.013   8.541  0.2896 -0.6700 -0.7255
  840MOL0     C13317   6.989   1.202   8.250  1.7431  0.0395 -1.2071
  840MOL0     C13318   6.936   1.329   8.220 -0.2883  0.8157 -0.6689
  840MOL0     C13319   6.856   1.782   8.258 -0.5531  0.0897  0.2617
  840MOL0     C13320   6.862   1.903   8.314 -0.4598  0.3544 -0.2642
  840MOL0     C13321   6.822   2.022   8.254 -0.8702  0.1642  0.0741
  840MOL0     C13322   6.773   2.022   8.120 -0.5048 -0.0656  0.5585
  840MOL0     O13323   6.752   2.137   8.048 -0.1593  0.3470 -0.6648
  840MOL0     C13324   6.857   2.169   7.953  0.3341  1.2662 -0.2904
  840MOL0     C13325   6.975   2.229   8.015 -0.7569  0.4636 -0.5372
  840MOL0     C13326   7.072   2.275   7.902  0.7758  0.0940 -0.1502
  840MOL0     C13327   7.172   2.380   7.966 -0.0093 -0.1627  0.0982
  840MOL0     C13328   7.279   2.395   7.866 -0.1637 -0.0931  0.0912
  840MOL0     C13329   7.379   2.409   7.792  1.1811 -1.3929  0.1924
  840MOL0     C13330   6.768   1.893   8.057 -0.1316 -0.1453  0.3201
  840MOL0     C13331   6.792   1.777   8.126 -0.4024 -0.1026  0.2484
  840MOL0     C13332   6.758   1.644   8.063  0.2393  0.6282  0.5123
  840MOL0     H13333   7.123   1.503   8.447  1.5677  0.5986 -1.3900
  840MOL0     H13334   7.212   1.284   8.499 -0.8799 -0.3261  2.3297
  840MOL0     H13335   7.323   1.083   8.390 -0.8291  2.5135 -0.6771
  840MOL0     H13336   7.257   1.049   8.542  2.2167  4.2158 -1.2299
  840MOL0     H13337   7.378   0.868   8.462  1.0945  2.1560 -1.9149
  840MOL0     H13338   7.303   0.868   8.300 -1.7597  0.5747  0.1410
  840MOL0     H13339   7.080   0.802   8.430  0.6471 -0.9958 -1.3696
  840MOL0     H13340   7.187   0.774   8.569  1.1032 -1.8212 -0.7648
  840MOL0     H13341   7.209   0.656   8.287 -0.3199 -1.7130 -0.7207
  840MOL0     H13342   7.310   0.610   8.431 -0.6864 -2.0497  1.7019
  840MOL0     H13343   7.120   0.512   8.537  2.4080  0.9410  0.2251
  840MOL0     H13344   7.000   0.560   8.426  0.6280 -2.2623  1.0322
  840MOL0     H13345   7.040   0.348   8.373  1.7233 -1.6845  1.4037
  840MOL0     H13346   7.125   0.431   8.246  0.3327 -1.1973  0.1343
  840MOL0     H13347   7.338   0.387   8.394 -0.4120  0.2433  0.2656
  840MOL0     H13348   7.273   0.254   8.293 -0.3768 -0.6644  0.6184
  840MOL0     H13349   7.232   0.299   8.588  0.2062 -0.2876  0.1658
  840MOL0     H13350   7.152   0.173   8.501 -0.8905  1.0028 -1.0078
  840MOL0     H13351   7.531   0.279   8.516 -1.6980  1.5681  1.4152
  840MOL0     H13352   7.753   0.153   8.527 -3.0901  1.5071  0.8131
  840MOL0     H13353   7.749   0.022   8.645  2.9484  0.2393 -0.8798
  840MOL0     H13354   7.705  -0.137   8.462 -0.7640  0.2692  0.7689
  840MOL0     H13355   7.733  -0.011   8.340  2.3538  1.9928  0.4184
  840MOL0     H13356   7.927  -0.067   8.570 -2.2727 -0.6017  1.1002
  840MOL0     H13357   7.964   0.017   8.405  0.8393  0.3236  0.4339
  840MOL0     H13358   8.091  -0.182   8.431 -0.2258  2.0717 -2.3285
  840MOL0     H13359   7.961  -0.201   8.301 -3.4862 -0.5215  0.1614
  840MOL0     H13360   8.156  -0.344   8.300  3.7469  0.0270  1.7584
  840MOL0     H13361   8.301  -0.529   8.301 -1.6771  0.3586 -1.6641
  840MOL0     H13362   8.302  -1.091   8.505 -1.7510  2.3927  0.5380
  840MOL0     H13363   8.432  -1.236   8.667 -1.5931  0.1251  1.9303
  840MOL0     H13364   8.704  -1.069   8.938  1.5734 -0.5594  2.2649
  840MOL0     H13365   8.580  -1.037   9.062  0.5916 -0.2368  0.6519
  840MOL0     H13366   8.784  -1.189   9.117  0.7496 -4.2149  2.8421
  840MOL0     H13367   8.637  -1.270   9.148  3.0607  0.9803  3.1025
  840MOL0     H13368   8.674  -1.365   8.901 -1.5153  0.3698  1.2263
  840MOL0     H13369   8.843  -1.286   8.932  0.2003 -0.1306  0.5101
  840MOL0     H13370   8.700  -1.503   9.093  0.9122  0.7388  0.8961
  840MOL0     H13371   8.848  -1.415   9.133  0.7394  1.5176 -0.0786
  840MOL0     H13372   8.964  -1.516   8.951  0.9692 -1.1427  1.4845
  840MOL0     H13373   8.822  -1.611   8.916  0.2476  3.2283 -1.5927
  840MOL0     H13374   8.985  -1.595   9.169 -1.8148  0.2397  0.8525
  840MOL0     H13375   8.847  -1.705   9.166 -1.7022 -2.0867 -1.9398
  840MOL0     H13376   9.091  -1.739   8.991  1.8382 -2.4065  1.7281
  840MOL0     H13377   8.935  -1.831   8.980 -0.0090  1.4949 -1.6540
  840MOL0     H13378   9.139  -1.848   9.207  0.8400 -0.5515 -1.6996
  840MOL0     H13379   8.975  -1.923   9.215  0.0210 -2.0887 -1.0144
  840MOL0     H13380   8.442  -0.917   8.949  1.1681  3.1294 -0.1478
  840MOL0     H13381   8.334  -0.768   8.777 -2.7973 -1.1751 -1.3408
  840MOL0     H13382   8.119  -0.680   8.649  1.7631 -0.6208  0.0119
  840MOL0     H13383   7.919  -0.529   8.614 -2.1405 -0.3105 -1.9496
  840MOL0     H13384   6.952   1.112   8.203 -0.2733  1.7370 -3.0500
  840MOL0     H13385   6.861   1.349   8.144  0.3399 -3.5680 -2.7910
  840MOL0     H13386   6.910   1.910   8.411  0.3093  0.5214 -0.6485
  840MOL0     H13387   6.830   2.117   8.306 -0.7793  0.6230 -0.7746
  840MOL0     H13388   6.817   2.237   7.877 -1.8407 -1.0659 -1.4086
  840MOL0     H13389   6.884   2.083   7.890  1.6274  2.0608 -0.8687
  840MOL0     H13390   7.025   2.160   8.083 -2.6456 -3.0888 -2.4326
  840MOL0     H13391   6.931   2.317   8.062  1.1031  1.4026 -0.4677
  840MOL0     H13392   7.021   2.330   7.822 -2.7803  1.2368  2.6511
  840MOL0     H13393   7.122   2.188   7.859 -0.7020 -0.1513 -1.4536
  840MOL0     H13394   7.124   2.478   7.975 -0.7809 -0.5912  0.7245
  840MOL0     H13395   7.210   2.346   8.063  0.2254 -3.4028 -1.0150
  840MOL0     H13396   7.461   2.404   7.723 -0.1509 -3.7811 -1.3358
  840MOL0     H13397   6.733   1.908   7.956  2.1947 -0.5143 -0.6003
  840MOL0     H13398   6.722   1.567   8.132  3.8185 -1.9301 -0.1870
  840MOL0     H13399   6.687   1.665   7.983  1.8797  1.7347 -0.7363
  840MOL0     H13400   6.845   1.598   8.015 -1.2299 -3.3246  1.2478
  841MOL0     O13401   3.308  11.185   7.069 -0.0928 -0.0213 -0.3163
  841MOL0     C13402   3.203  11.244   7.053  0.3486  0.6061  1.1026
  841MOL0     O13403   3.101  11.219   6.960 -0.0939 -0.3001 -0.4399
  841MOL0     C13404   3.132  11.145   6.851 -0.1417  0.1098  0.1159
  841MOL0     C13405   3.033  11.060   6.799  0.9566  0.4637 -0.1227
  841MOL0     C13406   3.044  10.996   6.676  0.4733  0.4196  0.1478
  841MOL0     C13407   3.165  11.006   6.602  0.3308  0.3675 -0.2332
  841MOL0     O13408   3.182  10.951   6.473 -0.3530  0.6965  0.5054
  841MOL0     C13409   3.070  10.897   6.396  0.2444  0.0008 -0.9650
  841MOL0     C13410   3.095  10.875   6.250 -0.4985  0.1663 -0.2901
  841MOL0     C13411   3.162  10.731   6.239  1.4432 -0.5686  0.3161
  841MOL0     C13412   3.190  10.691   6.091 -0.1433 -0.2154 -0.4391
  841MOL0     C13413   3.219  10.535   6.073  0.2660  0.4853  0.3285
  841MOL0     C13414   3.248  10.507   5.920 -0.4945 -0.1559 -1.0975
  841MOL0     C13415   3.130  10.540   5.834  0.3241 -0.9169 -0.4610
  841MOL0     C13416   3.144  10.495   5.687 -0.2997  0.0304  0.2309
  841MOL0     N13417   3.253  10.552   5.612  0.1640 -0.3246 -0.8154
  841MOL0     C13418   3.280  10.688   5.606  0.4620 -0.0581 -0.5387
  841MOL0     C13419   3.400  10.681   5.547 -0.2036 -0.4633  0.2614
  841MOL0     C13420   3.476  10.803   5.516 -0.4175 -0.6468 -0.0512
  841MOL0     C13421   3.465  10.857   5.365 -0.6717  0.0961 -0.3923
  841MOL0     C13422   3.505  10.744   5.268  0.1110 -0.2817  0.3308
  841MOL0     C13423   3.647  10.703   5.257  0.2855 -0.1035 -0.5840
  841MOL0     O13424   3.722  10.816   5.215  0.2230  0.0982  0.1514
  841MOL0     C13425   3.845  10.827   5.267  0.4915  0.5413 -0.0470
  841MOL0     C13426   3.861  10.855   5.400 -0.6760  0.3943  0.0864
  841MOL0     C13427   3.990  10.860   5.455 -0.1858  0.7457  0.3410
  841MOL0     C13428   4.104  10.855   5.372 -0.2425  0.2056  0.6472
  841MOL0     C13429   4.231  10.833   5.440  0.5038  0.1972  0.6829
  841MOL0     O13430   4.337  10.799   5.355  1.0300  0.2421 -0.6127
  841MOL0     C13431   4.468  10.805   5.393  0.4343 -0.1838 -0.8964
  841MOL0     C13432   4.564  10.837   5.298  0.1577 -0.7744  0.1389
  841MOL0     C13433   4.699  10.834   5.339 -0.3907  0.8247  0.5527
  841MOL0     C13434   4.740  10.771   5.451 -0.5109  0.1899  0.5730
  841MOL0     O13435   4.875  10.747   5.470  0.0172  0.0300 -0.5707
  841MOL0     C13436   4.906  10.606   5.491 -0.7198 -0.5048  0.3862
  841MOL0     C13437   4.928  10.531   5.352 -0.1627  0.0078  0.0373
  841MOL0     C13438   5.080  10.503   5.334  0.2403 -1.1006  0.2371
  841MOL0     C13439   5.088  10.443   5.194 -0.2647  0.7035  0.7601
  841MOL0     C13440   5.225  10.393   5.156 -0.5630  0.3481 -0.0275
  841MOL0     C13441   5.265  10.285   5.257  0.1215  0.7922 -0.2880
  841MOL0     C13442   5.386  10.204   5.211  0.8113 -0.0250  0.0998
  841MOL0     C13443   5.510  10.286   5.219 -0.5645 -1.0542  1.6827
  841MOL0    Cl13444   5.537  10.327   5.392  0.1771 -0.5160  0.3953
  841MOL0     C13445   4.645  10.740   5.544  0.4475  1.2269  0.6447
  841MOL0     C13446   4.508  10.765   5.518 -0.1029  0.5036 -0.2380
  841MOL0     O13447   4.240  10.867   5.556  0.0606 -0.1047 -0.1250
  841MOL0     C13448   4.086  10.846   5.227 -0.0511  0.3766  0.1649
  841MOL0     C13449   3.952  10.826   5.182 -0.6930  0.5044 -0.7747
  841MOL0     N13450   3.442  10.551   5.532 -1.0218 -0.2492 -0.3718
  841MOL0     N13451   3.351  10.474   5.577 -0.3639 -0.3630 -0.6313
  841MOL0     C13452   3.275  11.082   6.655  0.1257  0.4681  0.0517
  841MOL0     C13453   3.254  11.148   6.782  0.2171  0.4252 -0.4137
  841MOL0     C13454   3.177  11.373   7.135  0.0972  0.5798  0.1579
  841MOL0     C13455   3.160  11.355   7.272  0.4089 -0.1215 -0.3318
  841MOL0     C13456   3.120  11.459   7.355 -0.0084 -0.1867  1.4158
  841MOL0     C13457   3.104  11.589   7.307  0.1161  0.4959 -0.1113
  841MOL0     O13458   3.086  11.700   7.387  0.7540  0.5421  0.5638
  841MOL0     C13459   3.037  11.701   7.525  0.2889 -0.6074 -1.1062
  841MOL0     C13460   3.155  11.716   7.626  0.6891 -0.7129  0.1108
  841MOL0     C13461   3.215  11.857   7.603 -0.0464 -0.4849 -0.2250
  841MOL0     C13462   3.336  11.863   7.705  0.6862  0.9465 -0.3490
  841MOL0     C13463   3.409  11.977   7.678  0.8346  0.4666  0.9965
  841MOL0     C13464   3.474  12.063   7.624  0.0047 -0.0144  0.4594
  841MOL0     C13465   3.113  11.603   7.172  0.3227  0.3280  1.1392
  841MOL0     C13466   3.160  11.503   7.086 -0.2562  0.0677 -0.6799
  841MOL0     C13467   3.184  11.534   6.945 -0.0674 -0.7821  0.4432
  841MOL0     H13468   2.939  11.058   6.854  2.9651  0.4895  3.5910
  841MOL0     H13469   2.975  10.915   6.653  1.2165 -0.7257  1.7352
  841MOL0     H13470   3.020  10.813   6.444 -3.7480  2.4771 -0.2627
  841MOL0     H13471   2.990  10.972   6.400 -1.8367 -2.1343 -0.2648
  841MOL0     H13472   3.152  10.962   6.217 -0.7491  0.5785  0.3447
  841MOL0     H13473   3.001  10.883   6.194  0.0184 -3.6609 -2.0220
  841MOL0     H13474   3.093  10.654   6.277 -0.1981  1.2466  1.2113
  841MOL0     H13475   3.252  10.744   6.300  1.2744  2.3543  0.0980
  841MOL0     H13476   3.108  10.727   6.028  0.7591  1.6115 -0.6556
  841MOL0     H13477   3.271  10.758   6.059 -2.1878  4.1782  2.5094
  841MOL0     H13478   3.304  10.509   6.136  1.2560  3.2365  0.2576
  841MOL0     H13479   3.134  10.473   6.102  1.0436 -0.6005  0.3297
  841MOL0     H13480   3.335  10.566   5.891  0.6311 -1.3200 -0.2346
  841MOL0     H13481   3.268  10.400   5.909 -1.3432 -0.6604  1.5578
  841MOL0     H13482   3.112  10.648   5.831  1.8088 -0.5684  1.3302
  841MOL0     H13483   3.036  10.493   5.862 -1.5995  1.3015 -2.7663
  841MOL0     H13484   3.160  10.387   5.680 -0.3435  0.1184 -2.0464
  841MOL0     H13485   3.047  10.522   5.644  0.4950  2.0373 -0.4404
  841MOL0     H13486   3.216  10.773   5.629 -0.5290 -1.0110  0.3557
  841MOL0     H13487   3.454  10.874   5.596  1.8442  1.9062 -1.5184
  841MOL0     H13488   3.575  10.761   5.531 -0.6560 -0.9400  0.7644
  841MOL0     H13489   3.360  10.877   5.346 -1.6049 -2.6730  1.1935
  841MOL0     H13490   3.520  10.951   5.358 -0.9389  0.5509  2.3694
  841MOL0     H13491   3.485  10.795   5.173  1.9777  0.0362  0.0743
  841MOL0     H13492   3.439  10.659   5.288  3.0925 -1.9914  4.4215
  841MOL0     H13493   3.653  10.635   5.172  2.2610  0.6369 -1.1054
  841MOL0     H13494   3.675  10.647   5.347  0.4410  1.1165  0.1580
  841MOL0     H13495   3.778  10.876   5.468 -3.9368  1.5896 -3.8396
  841MOL0     H13496   3.988  10.875   5.562  0.8727  1.5075  0.2736
  841MOL0     H13497   4.530  10.876   5.202  1.9140 -0.9343 -0.5701
  841MOL0     H13498   4.778  10.862   5.271 -2.5065 -0.2391 -2.5755
  841MOL0     H13499   4.997  10.606   5.550 -1.0998 -1.9675  1.0101
  841MOL0     H13500   4.831  10.552   5.549 -2.3550 -0.6534 -1.7226
  841MOL0     H13501   4.878  10.434   5.366 -1.6885  0.9885  1.8131
  841MOL0     H13502   4.882  10.586   5.269  0.5381  0.3368 -0.1375
  841MOL0     H13503   5.149  10.586   5.344  0.2278 -1.2981  2.3573
  841MOL0     H13504   5.103  10.431   5.414  4.0514 -1.1084 -0.7142
  841MOL0     H13505   5.067  10.526   5.126  2.3186  1.7334  1.0977
  841MOL0     H13506   5.014  10.363   5.187  2.2513 -1.7645  0.1204
  841MOL0     H13507   5.300  10.473   5.152 -0.3447  0.2011  0.8786
  841MOL0     H13508   5.214  10.342   5.060 -1.2209 -0.1763  0.3174
  841MOL0     H13509   5.287  10.326   5.356  2.8355  1.5568 -1.1139
  841MOL0     H13510   5.183  10.218   5.283  0.1781  0.4605 -0.9509
  841MOL0     H13511   5.362  10.159   5.114 -1.6669 -1.0485  1.0967
  841MOL0     H13512   5.402  10.118   5.277  0.2745 -0.8702 -0.8294
  841MOL0     H13513   5.600  10.233   5.186  1.1856  2.3727  0.5514
  841MOL0     H13514   5.508  10.367   5.146  2.7171 -2.1850  0.1673
  841MOL0     H13515   4.661  10.686   5.637  1.0066 -0.0720 -0.1730
  841MOL0     H13516   4.443  10.743   5.601 -1.3359 -1.0422 -1.5662
  841MOL0     H13517   4.174  10.837   5.163 -1.0823 -1.0478 -1.1158
  841MOL0     H13518   3.939  10.818   5.075 -2.4409 -3.7907 -0.4686
  841MOL0     H13519   3.376  11.084   6.614  1.3652 -0.2394  2.8200
  841MOL0     H13520   3.328  11.214   6.827 -0.9434  2.0943 -0.8485
  841MOL0     H13521   3.177  11.260   7.323  0.5666  1.1409  2.1217
  841MOL0     H13522   3.106  11.425   7.457  2.0315 -1.4340  1.3344
  841MOL0     H13523   2.973  11.613   7.537  0.2453 -0.4674 -0.2327
  841MOL0     H13524   2.969  11.786   7.533  2.0992  0.7752  0.4011
  841MOL0     H13525   3.220  11.630   7.609  2.3645  0.2189  1.5069
  841MOL0     H13526   3.116  11.717   7.728  0.1027 -0.0366 -0.1062
  841MOL0     H13527   3.156  11.945   7.629  2.8364  2.8155 -3.7016
  841MOL0     H13528   3.238  11.862   7.496 -1.7860 -2.7503 -0.7925
  841MOL0     H13529   3.304  11.879   7.808  0.1045  0.8675 -0.5146
  841MOL0     H13530   3.397  11.773   7.717 -0.3211  0.0976 -1.3712
  841MOL0     H13531   3.539  12.131   7.572  1.8273 -2.1293 -0.2315
  841MOL0     H13532   3.113  11.707   7.142 -0.4212 -0.1107 -0.4674
  841MOL0     H13533   3.181  11.637   6.910  2.8840 -1.7054 -3.1247
  841MOL0     H13534   3.283  11.508   6.907  0.9661  1.0900  1.7172
  841MOL0     H13535   3.108  11.484   6.884 -0.2856  1.0976 -0.9017
  842MOL0     O13536   9.769   9.114   0.176 -0.2089  1.2603  0.0237
  842MOL0     C13537   9.751   9.057   0.289  0.4141 -0.3431  0.4090
  842MOL0     O13538   9.785   9.121   0.403 -0.1245  0.2170  0.2461
  842MOL0     C13539   9.811   9.255   0.420 -0.2707 -0.4298  0.5880
  842MOL0     C13540   9.730   9.357   0.362 -0.3478  0.8356  0.7733
  842MOL0     C13541   9.748   9.485   0.411 -0.2340  0.4354  0.0284
  842MOL0     C13542   9.846   9.527   0.502  1.0753 -0.0824 -0.3046
  842MOL0     O13543   9.821   9.659   0.546  0.3948  0.6536  0.5842
  842MOL0     C13544   9.937   9.745   0.551  0.8689  0.4376 -0.1446
  842MOL0     C13545   9.940   9.835   0.432  0.1995  0.0089 -0.6177
  842MOL0     C13546  10.072   9.917   0.404 -1.0473  0.6514  0.8866
  842MOL0     C13547  10.098  10.021   0.525  0.0286  0.3035  0.0774
  842MOL0     C13548  10.202  10.124   0.496  0.3372  0.0667  0.7987
  842MOL0     C13549  10.319  10.113   0.602  0.1439 -0.7333 -0.1942
  842MOL0     C13550  10.443  10.190   0.560 -0.6120 -0.4801 -0.8599
  842MOL0     C13551  10.554  10.203   0.669  0.5769 -0.0883 -0.4672
  842MOL0     N13552  10.653  10.099   0.645 -0.3738 -0.2954 -0.2717
  842MOL0     C13553  10.740  10.073   0.534  0.1271 -1.0190  0.3028
  842MOL0     C13554  10.806   9.963   0.567 -0.3352 -0.1495 -1.2117
  842MOL0     C13555  10.924   9.902   0.505 -0.0264  0.5893 -0.1247
  842MOL0     C13556  11.045  10.010   0.496 -0.4876  0.0449  0.2327
  842MOL0     C13557  11.116  10.028   0.628  0.9135 -0.4341 -0.2906
  842MOL0     C13558  11.225  10.127   0.607  0.0003  0.0313  0.7887
  842MOL0     O13559  11.307  10.139   0.724  0.0609 -0.7066 -0.0256
  842MOL0     C13560  11.368  10.033   0.775  0.8030  1.7168 -0.6346
  842MOL0     C13561  11.452   9.959   0.698  0.1070 -0.2543 -1.7490
  842MOL0     C13562  11.529   9.857   0.756  0.9888  0.1633 -1.0900
  842MOL0     C13563  11.513   9.831   0.899  0.8486  0.4620 -0.5492
  842MOL0     C13564  11.614   9.742   0.964 -0.1101 -0.2098  0.3760
  842MOL0     O13565  11.736   9.734   0.894 -0.7556  1.1031 -0.4166
  842MOL0     C13566  11.832   9.644   0.934 -0.0091  0.5010 -0.5280
  842MOL0     C13567  11.807   9.502   0.929 -0.3323 -0.2843 -0.1707
  842MOL0     C13568  11.899   9.413   0.975 -0.8575  0.1909  0.2210
  842MOL0     C13569  12.022   9.459   1.042  0.2435 -0.3904 -0.2320
  842MOL0     O13570  12.120   9.377   1.097  0.5481  0.2008 -0.0033
  842MOL0     C13571  12.157   9.257   1.036 -0.3092 -0.5947 -0.2547
  842MOL0     C13572  12.309   9.250   1.038 -0.7875 -0.1029  0.1120
  842MOL0     C13573  12.380   9.356   0.951  0.3364  0.4407 -0.0011
  842MOL0     C13574  12.327   9.417   0.819  0.0272 -0.1519  0.9464
  842MOL0     C13575  12.304   9.315   0.709  0.1619 -0.5229 -0.3427
  842MOL0     C13576  12.441   9.269   0.645  0.0729 -1.0829 -0.8850
  842MOL0     C13577  12.416   9.161   0.545 -1.9256  1.1961  0.4028
  842MOL0     C13578  12.551   9.115   0.481  0.4959  0.7667  0.3912
  842MOL0    Cl13579  12.510   8.979   0.382 -0.3570 -0.6509  0.4263
  842MOL0     C13580  12.048   9.601   1.044  0.3915 -0.9260  0.0777
  842MOL0     C13581  11.948   9.694   0.997 -0.4151 -0.2806  0.1912
  842MOL0     O13582  11.595   9.692   1.077  0.2455 -0.5862  1.0791
  842MOL0     C13583  11.417   9.899   0.969  0.1736 -0.0817  0.1727
  842MOL0     C13584  11.339  10.001   0.913 -0.7046  0.6714  0.4064
  842MOL0     N13585  10.754   9.907   0.677 -0.4960 -0.3016  0.2101
  842MOL0     N13586  10.658   9.979   0.722 -0.2691  0.2539 -0.0133
  842MOL0     C13587   9.932   9.425   0.553  0.8366  0.2864  1.1335
  842MOL0     C13588   9.917   9.292   0.506  0.9431 -0.1351 -0.9750
  842MOL0     C13589   9.716   8.916   0.300  0.1720  0.8977  0.1254
  842MOL0     C13590   9.718   8.859   0.432  1.3672  1.3070 -0.0634
  842MOL0     C13591   9.675   8.728   0.456  0.6049 -0.9235  0.8585
  842MOL0     C13592   9.623   8.648   0.351  0.7801  0.4329 -0.1064
  842MOL0     O13593   9.580   8.529   0.393  0.7734 -0.2659  0.1360
  842MOL0     C13594   9.522   8.433   0.307  1.0562  0.7925 -0.1054
  842MOL0     C13595   9.548   8.285   0.345 -0.4555 -0.3957  0.5983
  842MOL0     C13596   9.468   8.188   0.254 -0.1716 -0.4228 -0.7680
  842MOL0     C13597   9.541   8.047   0.247  0.5405  0.6624 -1.0829
  842MOL0     C13598   9.446   7.961   0.176  0.0495  0.6225  0.8315
  842MOL0     C13599   9.363   7.887   0.127  0.0843  1.1327 -0.0756
  842MOL0     C13600   9.631   8.698   0.222 -0.0884 -0.4390  1.1912
  842MOL0     C13601   9.673   8.829   0.200 -0.1510  0.0807  0.8996
  842MOL0     C13602   9.691   8.876   0.057  1.0412  0.9462  0.2388
  842MOL0     H13603   9.646   9.334   0.298  1.7067 -3.3454 -0.8204
  842MOL0     H13604   9.686   9.565   0.370  0.3031  0.7487 -0.1805
  842MOL0     H13605   9.939   9.814   0.636  3.8660  0.7673 -0.3670
  842MOL0     H13606  10.022   9.676   0.559 -0.0321 -0.6828  0.1837
  842MOL0     H13607   9.856   9.904   0.424 -0.6342 -0.9773 -0.6244
  842MOL0     H13608   9.920   9.771   0.345  0.8424  0.6442 -1.2408
  842MOL0     H13609  10.070   9.976   0.312  3.7897 -2.2023 -1.4736
  842MOL0     H13610  10.157   9.850   0.389 -1.7468 -1.3087  4.5386
  842MOL0     H13611  10.002  10.071   0.541  0.3165  1.0549 -0.4812
  842MOL0     H13612  10.104   9.966   0.619  0.5749 -0.1323 -0.2037
  842MOL0     H13613  10.242  10.101   0.397  0.0185 -2.2855  1.1535
  842MOL0     H13614  10.164  10.226   0.507 -0.9651 -0.5893  2.9739
  842MOL0     H13615  10.296  10.140   0.705  3.6982 -0.5464  0.6787
  842MOL0     H13616  10.340  10.006   0.611 -0.1213 -0.9078 -1.4489
  842MOL0     H13617  10.414  10.293   0.537  1.2532  1.3203  3.6278
  842MOL0     H13618  10.488  10.138   0.475  4.2861 -0.4546  1.3849
  842MOL0     H13619  10.606  10.299   0.664 -0.1646  0.2860 -1.4264
  842MOL0     H13620  10.507  10.185   0.766 -1.1663  0.1487 -1.2178
  842MOL0     H13621  10.773  10.131   0.448  2.5091 -1.0287  1.1356
  842MOL0     H13622  10.960   9.813   0.557 -0.4855  0.3586 -0.1866
  842MOL0     H13623  10.892   9.863   0.407 -4.1178 -0.0703  1.2572
  842MOL0     H13624  11.108   9.975   0.413 -2.4328  1.0644 -1.7786
  842MOL0     H13625  11.004  10.109   0.475 -1.7463 -0.0058  2.1797
  842MOL0     H13626  11.147   9.929   0.662 -0.0435 -1.4529 -2.2495
  842MOL0     H13627  11.050  10.082   0.697 -0.4657  2.2279 -3.4634
  842MOL0     H13628  11.168  10.218   0.591  0.9471  0.4447 -0.4408
  842MOL0     H13629  11.283  10.109   0.516 -0.4221 -0.8785  0.6859
  842MOL0     H13630  11.476   9.989   0.596 -1.0984  2.0495 -1.4168
  842MOL0     H13631  11.610   9.814   0.697  2.5145  0.2570  0.8299
  842MOL0     H13632  11.714   9.473   0.880  0.6237 -1.8761 -1.1153
  842MOL0     H13633  11.886   9.305   0.968  0.3485  0.0231  0.2673
  842MOL0     H13634  12.120   9.176   1.101 -2.2116  0.6264  0.2544
  842MOL0     H13635  12.107   9.247   0.939  2.5113  1.0583 -1.9976
  842MOL0     H13636  12.330   9.269   1.144 -2.5020  2.8107  0.0089
  842MOL0     H13637  12.342   9.146   1.024  0.1244 -0.5674  4.3702
  842MOL0     H13638  12.398   9.436   1.022  0.8351 -1.1500  1.7400
  842MOL0     H13639  12.480   9.320   0.923 -0.1258 -0.1257 -0.9854
  842MOL0     H13640  12.391   9.499   0.785  1.6238 -0.7893  2.2584
  842MOL0     H13641  12.231   9.467   0.833 -0.4273 -0.4536 -0.7869
  842MOL0     H13642  12.240   9.364   0.635 -0.5502 -1.2045 -0.1953
  842MOL0     H13643  12.247   9.230   0.748 -3.6183  2.5859  1.5861
  842MOL0     H13644  12.492   9.354   0.600  0.6000 -1.3492 -0.7969
  842MOL0     H13645  12.496   9.230   0.731  0.3873  1.3875  0.1231
  842MOL0     H13646  12.350   9.198   0.466 -0.5948 -4.0703 -3.8606
  842MOL0     H13647  12.366   9.071   0.582 -3.6225  1.8237 -0.2987
  842MOL0     H13648  12.592   9.199   0.424  1.1059 -0.7955 -1.5922
  842MOL0     H13649  12.614   9.083   0.564  0.5860 -0.8294 -0.2625
  842MOL0     H13650  12.140   9.644   1.082 -0.4483  0.1899  0.9403
  842MOL0     H13651  11.965   9.801   0.984  0.6814 -0.7119 -2.5395
  842MOL0     H13652  11.390   9.873   1.071  1.3632 -0.4202  0.4234
  842MOL0     H13653  11.262  10.052   0.971 -1.0786  1.8499 -1.0629
  842MOL0     H13654  10.006   9.459   0.625  3.8295 -0.6733 -1.2768
  842MOL0     H13655   9.981   9.228   0.567  0.5930  1.5239  1.2854
  842MOL0     H13656   9.751   8.928   0.509 -0.6451  2.5395 -0.2308
  842MOL0     H13657   9.667   8.681   0.553 -3.3192 -2.1489  0.1104
  842MOL0     H13658   9.554   8.441   0.202  0.9090  0.2111 -0.1969
  842MOL0     H13659   9.416   8.456   0.291  0.7313  1.1636  2.2586
  842MOL0     H13660   9.515   8.262   0.447  0.8082 -2.3019  0.6257
  842MOL0     H13661   9.656   8.269   0.351 -0.7782 -4.2146 -1.3134
  842MOL0     H13662   9.450   8.242   0.161  0.4642  1.1972  0.0233
  842MOL0     H13663   9.373   8.175   0.307  0.5244  1.4507  1.0684
  842MOL0     H13664   9.643   8.049   0.206  1.9347  1.7655  2.1437
  842MOL0     H13665   9.556   8.008   0.348  0.5465  3.7197  0.2205
  842MOL0     H13666   9.281   7.821   0.104  1.6069 -0.5234 -1.0240
  842MOL0     H13667   9.608   8.638   0.134  3.0276 -1.1256  0.7383
  842MOL0     H13668   9.628   8.964   0.043 -1.4853 -0.4119  2.1524
  842MOL0     H13669   9.794   8.889   0.024 -0.0526  0.6558 -3.8557
  842MOL0     H13670   9.664   8.799  -0.017 -0.6653  1.2494  0.4931
  843MOL0     O13671   6.159  10.594  11.050  0.0499  0.8499 -0.1288
  843MOL0     C13672   6.081  10.603  10.950 -0.0698  1.3717 -0.3842
  843MOL0     O13673   6.041  10.725  10.894 -0.9835 -0.8278  0.3324
  843MOL0     C13674   6.120  10.841  10.908 -0.8752 -0.1433 -0.1806
  843MOL0     C13675   6.263  10.852  10.870  0.8591  0.0983 -0.2976
  843MOL0     C13676   6.327  10.977  10.895  0.4852  0.0319 -0.1273
  843MOL0     C13677   6.264  11.080  10.972 -0.3130  0.3294  0.0001
  843MOL0     O13678   6.337  11.188  10.996  0.1311  0.7188  1.4331
  843MOL0     C13679   6.280  11.307  10.934  0.4420 -0.4909 -0.6415
  843MOL0     C13680   6.370  11.430  10.969  0.4989  0.7104  0.1211
  843MOL0     C13681   6.343  11.556  10.882 -0.3083  1.4816  0.2470
  843MOL0     C13682   6.425  11.546  10.751 -0.1442  0.9981 -0.1918
  843MOL0     C13683   6.376  11.636  10.643  0.3091 -0.8254 -0.0290
  843MOL0     C13684   6.223  11.617  10.613  0.0698 -0.5036 -0.5176
  843MOL0     C13685   6.183  11.656  10.468  0.2364  0.6485 -0.4253
  843MOL0     C13686   6.188  11.808  10.446  0.1385  0.1218  0.6034
  843MOL0     N13687   6.101  11.884  10.540  0.4477  1.3446  0.1782
  843MOL0     C13688   6.120  12.008  10.591 -0.4789  0.2963 -0.2690
  843MOL0     C13689   6.006  12.052  10.645 -0.1776 -0.1737 -0.4469
  843MOL0     C13690   6.000  12.199  10.694  0.6857  0.6786  0.6220
  843MOL0     C13691   5.934  12.299  10.596 -0.4930 -0.3983  0.4552
  843MOL0     C13692   5.803  12.258  10.531  0.0629  0.9388  0.3376
  843MOL0     C13693   5.701  12.172  10.617  0.4703  0.0801  1.1277
  843MOL0     O13694   5.638  12.262  10.713 -0.6642 -0.0603 -0.0129
  843MOL0     C13695   5.569  12.188  10.813 -0.1160 -0.4529 -0.2986
  843MOL0     C13696   5.530  12.052  10.808  0.6323 -0.5568  0.3101
  843MOL0     C13697   5.444  11.995  10.898  0.7679  0.5051  0.5629
  843MOL0     C13698   5.396  12.074  11.006  0.8206  0.1893  1.1428
  843MOL0     C13699   5.299  12.016  11.103 -0.8392 -0.4037 -0.2347
  843MOL0     O13700   5.274  12.085  11.214 -0.4514 -0.7788  0.0707
  843MOL0     C13701   5.209  12.036  11.330 -0.0650 -0.0469  0.4520
  843MOL0     C13702   5.213  12.140  11.430 -0.0595 -0.3188 -1.5362
  843MOL0     C13703   5.169  12.116  11.556  0.9268  0.5213  0.3063
  843MOL0     C13704   5.106  11.993  11.588 -0.8754 -0.3821  0.4913
  843MOL0     O13705   5.062  11.963  11.717 -0.2387  0.4291  0.1991
  843MOL0     C13706   4.925  11.914  11.726  0.1409 -0.0977 -0.1526
  843MOL0     C13707   4.873  11.887  11.871 -0.1143  1.1869 -0.7866
  843MOL0     C13708   4.945  11.760  11.938  0.5159  0.2200 -0.1851
  843MOL0     C13709   4.847  11.673  12.015  1.1924 -0.3536 -0.1728
  843MOL0     C13710   4.768  11.739  12.130  0.9622  0.3054 -0.8180
  843MOL0     C13711   4.632  11.664  12.163  0.0374 -0.2736 -0.7205
  843MOL0     C13712   4.513  11.722  12.087 -0.0472  0.4523  0.0529
  843MOL0     C13713   4.390  11.733  12.170 -0.3903 -0.2264 -0.8139
  843MOL0    Cl13714   4.248  11.793  12.069 -0.8808 -0.3510  0.0974
  843MOL0     C13715   5.096  11.891  11.485  0.2127 -0.7610 -0.2238
  843MOL0     C13716   5.140  11.916  11.352 -0.3060  0.6487 -0.1522
  843MOL0     O13717   5.247  11.905  11.081 -0.7884  0.2430  0.4183
  843MOL0     C13718   5.452  12.205  11.028  0.1825  0.2334  0.2044
  843MOL0     C13719   5.534  12.261  10.926  0.1427 -0.6139 -0.3863
  843MOL0     N13720   5.922  11.942  10.645  0.3922  0.5320 -0.4029
  843MOL0     N13721   5.972  11.843  10.582 -1.0783 -0.2518  0.3216
  843MOL0     C13722   6.126  11.064  11.018 -1.0177  0.4989 -0.0114
  843MOL0     C13723   6.060  10.943  10.983 -0.9886  0.2214 -0.1040
  843MOL0     C13724   6.002  10.485  10.901 -0.7697 -0.6072  0.8841
  843MOL0     C13725   5.864  10.491  10.916  0.2593 -0.0973 -0.5655
  843MOL0     C13726   5.787  10.379  10.881 -0.5338  0.5523  0.8401
  843MOL0     C13727   5.841  10.259  10.819 -0.1822 -0.4452 -0.6167
  843MOL0     O13728   5.751  10.160  10.789  0.3095 -0.8214 -0.2950
  843MOL0     C13729   5.795  10.032  10.760 -0.6164  0.0508  0.9591
  843MOL0     C13730   5.677   9.942  10.755  0.3756 -0.5296 -0.9755
  843MOL0     C13731   5.703   9.795  10.712 -0.2155 -0.4565 -0.3221
  843MOL0     C13732   5.794   9.781  10.586 -0.6061 -0.1421 -0.2353
  843MOL0     C13733   5.720   9.828  10.471 -0.6626  1.6100 -0.2121
  843MOL0     C13734   5.656   9.886  10.384 -0.5645 -0.4038  0.1703
  843MOL0     C13735   5.979  10.263  10.805  0.0164  0.2071  0.0432
  843MOL0     C13736   6.058  10.372  10.853 -1.0164 -0.8144  0.5211
  843MOL0     C13737   6.208  10.361  10.848  0.1245  0.1604 -0.7812
  843MOL0     H13738   6.309  10.764  10.827 -2.3784 -1.6787 -0.4841
  843MOL0     H13739   6.435  10.982  10.882  0.5390  0.3772  0.4116
  843MOL0     H13740   6.262  11.299  10.827  2.1108  2.0881 -1.2003
  843MOL0     H13741   6.178  11.316  10.972  0.0700 -2.7680 -0.9371
  843MOL0     H13742   6.476  11.409  10.950  0.7850  2.3896 -0.2547
  843MOL0     H13743   6.352  11.443  11.076  1.2191  0.6199  0.2649
  843MOL0     H13744   6.385  11.647  10.924  2.2914  1.0159 -1.1255
  843MOL0     H13745   6.235  11.570  10.872 -1.1419 -3.5337 -0.6890
  843MOL0     H13746   6.529  11.571  10.775 -0.1815 -0.1339  1.3442
  843MOL0     H13747   6.433  11.442  10.718  0.5880  1.1986 -0.6544
  843MOL0     H13748   6.390  11.743  10.657 -0.1914 -0.4240 -2.3473
  843MOL0     H13749   6.438  11.606  10.559 -1.3953 -0.1326 -1.5947
  843MOL0     H13750   6.210  11.510  10.628  3.6951 -0.9130  0.8570
  843MOL0     H13751   6.155  11.652  10.691  0.6174 -2.1361  0.7392
  843MOL0     H13752   6.085  11.611  10.452  0.6295 -0.4582  0.1831
  843MOL0     H13753   6.257  11.598  10.411  0.4430 -1.1191  1.5342
  843MOL0     H13754   6.287  11.853  10.452  0.4693 -0.6707  1.3560
  843MOL0     H13755   6.154  11.833  10.345 -2.2576 -3.3301  0.4073
  843MOL0     H13756   6.209  12.065  10.565  0.6159 -3.1579 -5.6699
  843MOL0     H13757   5.933  12.190  10.779 -1.0259  1.7962 -0.5414
  843MOL0     H13758   6.102  12.234  10.712  0.6202  1.1814  0.0427
  843MOL0     H13759   5.920  12.397  10.642 -3.7939 -1.1100  1.2856
  843MOL0     H13760   6.000  12.312  10.510 -2.4411  0.1379 -1.0225
  843MOL0     H13761   5.812  12.205  10.436  1.0241 -1.6176  1.7671
  843MOL0     H13762   5.753  12.353  10.506 -0.7505  0.0551 -1.6126
  843MOL0     H13763   5.744  12.082  10.660 -2.2924 -0.5690  2.7811
  843MOL0     H13764   5.627  12.141  10.543  2.5792  1.5126 -1.8113
  843MOL0     H13765   5.557  11.988  10.725  1.9640  2.7350 -1.9908
  843MOL0     H13766   5.395  11.898  10.886 -0.6478  1.4911 -2.6181
  843MOL0     H13767   5.271  12.229  11.407  2.4261 -0.4609  3.0611
  843MOL0     H13768   5.168  12.191  11.635 -2.0443  2.9512 -1.7841
  843MOL0     H13769   4.859  11.984  11.675 -0.6924 -0.2071  0.7471
  843MOL0     H13770   4.914  11.819  11.675  0.8750 -1.7188  2.4932
  843MOL0     H13771   4.876  11.979  11.930 -3.3711  0.9496 -0.0539
  843MOL0     H13772   4.768  11.859  11.862 -0.3596 -0.8565  4.5929
  843MOL0     H13773   5.000  11.690  11.874 -0.3294 -1.6720  1.0409
  843MOL0     H13774   5.019  11.803  12.006 -0.3346  3.6755 -1.2577
  843MOL0     H13775   4.901  11.595  12.069  0.1098 -0.1311  1.3021
  843MOL0     H13776   4.776  11.625  11.947 -0.3735 -2.0605  2.4741
  843MOL0     H13777   4.757  11.848  12.126 -0.5626  0.2178  0.0443
  843MOL0     H13778   4.828  11.720  12.219 -0.8203 -1.5396  0.0694
  843MOL0     H13779   4.631  11.555  12.151 -1.7697 -0.8498  3.0952
  843MOL0     H13780   4.612  11.684  12.269  0.1192 -1.2475 -0.5108
  843MOL0     H13781   4.502  11.667  11.993 -0.8663  2.9214 -1.4165
  843MOL0     H13782   4.538  11.822  12.048 -1.2196  0.3798 -0.9914
  843MOL0     H13783   4.365  11.642  12.226  3.1397 -0.0046  1.4612
  843MOL0     H13784   4.406  11.795  12.259  1.8341  1.9094 -2.5587
  843MOL0     H13785   5.063  11.790  11.505  0.6007 -1.0984 -1.1941
  843MOL0     H13786   5.153  11.835  11.281 -2.3115 -1.2871  1.5095
  843MOL0     H13787   5.416  12.265  11.111 -1.5149  1.3858 -1.3049
  843MOL0     H13788   5.547  12.369  10.932 -3.0320 -0.0540 -1.3120
  843MOL0     H13789   6.075  11.139  11.078  2.7131  2.1010  1.4594
  843MOL0     H13790   5.960  10.930  11.023  0.0636 -0.3968  2.4989
  843MOL0     H13791   5.820  10.583  10.953 -0.6287  0.3059 -2.5134
  843MOL0     H13792   5.679  10.370  10.891 -0.8756  0.0059 -2.3095
  843MOL0     H13793   5.868   9.985  10.827  1.1476  2.2435  0.7113
  843MOL0     H13794   5.843  10.044  10.662  1.5562 -1.1420  1.8086
  843MOL0     H13795   5.607  10.001  10.695  0.6961 -0.5304 -1.3509
  843MOL0     H13796   5.635   9.930  10.855 -1.6828 -4.4078 -2.1051
  843MOL0     H13797   5.605   9.751  10.691 -0.0332 -0.7519 -0.5587
  843MOL0     H13798   5.732   9.731  10.796 -0.7991  2.3278  2.1647
  843MOL0     H13799   5.880   9.848  10.596  0.9361 -2.1991  0.9474
  843MOL0     H13800   5.831   9.679  10.579  2.9619  1.1144 -1.9933
  843MOL0     H13801   5.608   9.924  10.296  1.5762 -0.5103 -1.1233
  843MOL0     H13802   6.031  10.170  10.782 -1.9415 -0.8913 -0.2307
  843MOL0     H13803   6.228  10.281  10.775 -1.1273  1.7977 -3.0607
  843MOL0     H13804   6.261  10.443  10.799  0.3853  0.0884 -0.6226
  843MOL0     H13805   6.256  10.347  10.945  1.8310  3.1854 -1.0592
  844MOL0     O13806   8.941   4.405   3.052  0.0842  0.8450 -0.3158
  844MOL0     C13807   8.888   4.366   3.155 -0.3046  0.2994  0.5625
  844MOL0     O13808   8.768   4.298   3.148  0.2360 -0.0211  0.2129
  844MOL0     C13809   8.732   4.225   3.036  0.3950  1.5987 -0.4055
  844MOL0     C13810   8.608   4.240   2.986 -1.6109 -0.9555  0.4236
  844MOL0     C13811   8.567   4.187   2.866  0.1410 -0.1129 -0.6267
  844MOL0     C13812   8.653   4.107   2.786  0.6770 -0.4298  0.0646
  844MOL0     O13813   8.613   4.070   2.661  0.1403  0.1461 -0.0833
  844MOL0     C13814   8.616   3.930   2.642  0.1481 -0.1050  0.4068
  844MOL0     C13815   8.631   3.890   2.502  0.4042 -0.2767  0.0340
  844MOL0     C13816   8.768   3.911   2.446  0.2616  0.5259  0.3940
  844MOL0     C13817   8.781   3.886   2.309 -0.7614 -0.3652  0.7593
  844MOL0     C13818   8.932   3.918   2.269  1.1532  0.4273 -0.5812
  844MOL0     C13819   8.954   3.876   2.125  0.5732 -0.1297  0.0294
  844MOL0     C13820   9.100   3.874   2.080 -0.6844  0.5197  0.2167
  844MOL0     C13821   9.151   4.018   2.047  0.5378  0.6473 -0.5808
  844MOL0     N13822   9.288   4.026   1.992 -0.4454  0.0589  0.3783
  844MOL0     C13823   9.380   3.924   1.971  0.0204 -0.5821  0.1705
  844MOL0     C13824   9.466   3.961   1.872 -0.7316 -0.6179 -0.2086
  844MOL0     C13825   9.586   3.885   1.828 -0.8033 -0.3003  0.3217
  844MOL0     C13826   9.671   3.941   1.716 -0.9590  0.2714  0.5191
  844MOL0     C13827   9.744   3.826   1.641  0.2283 -0.4251 -0.3581
  844MOL0     C13828   9.772   3.856   1.491 -0.5111 -1.2377 -0.3433
  844MOL0     O13829   9.656   3.866   1.404 -0.6228 -0.1690 -0.6857
  844MOL0     C13830   9.564   3.766   1.402 -0.0844 -0.2209 -0.3874
  844MOL0     C13831   9.427   3.782   1.436 -0.8024 -0.4937  0.4247
  844MOL0     C13832   9.339   3.683   1.434 -0.3278 -0.1937 -0.3330
  844MOL0     C13833   9.367   3.555   1.371 -0.1045  0.1247 -0.1173
  844MOL0     C13834   9.266   3.455   1.354  1.2387  0.7474  1.3639
  844MOL0     O13835   9.133   3.483   1.396 -0.8823  0.0871 -0.2528
  844MOL0     C13836   9.029   3.425   1.334  0.2513 -1.0762 -1.3806
  844MOL0     C13837   8.915   3.411   1.418 -0.0509 -0.5986 -0.3740
  844MOL0     C13838   8.798   3.348   1.363  0.0749  0.3186 -0.0443
  844MOL0     C13839   8.785   3.328   1.225 -0.2429  1.0376 -0.7988
  844MOL0     O13840   8.671   3.263   1.187  0.5178 -1.0018 -0.1330
  844MOL0     C13841   8.618   3.282   1.052  0.3591  0.5065 -0.0514
  844MOL0     C13842   8.595   3.133   0.991 -0.2128 -0.1717  0.6852
  844MOL0     C13843   8.547   3.135   0.852 -0.0751  1.1074 -0.0561
  844MOL0     C13844   8.537   2.994   0.799 -0.3512 -0.2539  0.4102
  844MOL0     C13845   8.563   2.994   0.647 -0.8554 -0.1689  0.0532
  844MOL0     C13846   8.453   3.043   0.561 -0.1724 -0.6105 -0.4720
  844MOL0     C13847   8.468   2.980   0.429 -0.6323 -0.5162  0.0343
  844MOL0     C13848   8.362   3.025   0.327  0.3563  0.3484 -0.5510
  844MOL0    Cl13849   8.216   2.921   0.330  0.1767  0.6931 -0.0459
  844MOL0     C13850   8.896   3.348   1.143  0.9672  0.3592 -0.1584
  844MOL0     C13851   9.021   3.401   1.198  0.1113 -0.1759  0.4006
  844MOL0     O13852   9.300   3.355   1.285  0.6757  0.0788  0.3981
  844MOL0     C13853   9.503   3.533   1.342 -0.5948  0.0501  0.0075
  844MOL0     C13854   9.598   3.636   1.355 -0.9421 -0.1508 -0.4804
  844MOL0     N13855   9.433   4.091   1.847 -0.5476 -0.5094 -0.1084
  844MOL0     N13856   9.334   4.127   1.923 -0.5409 -0.2431  0.1277
  844MOL0     C13857   8.780   4.090   2.828 -0.2825  0.7114 -0.0210
  844MOL0     C13858   8.819   4.141   2.956  0.3704  0.4039  0.6859
  844MOL0     C13859   8.962   4.386   3.283  0.0996  0.5261 -0.5297
  844MOL0     C13860   9.101   4.362   3.282  0.7265  0.5237  0.9375
  844MOL0     C13861   9.174   4.376   3.399  0.7335  0.5913 -0.3861
  844MOL0     C13862   9.112   4.385   3.522  0.5482 -0.9245  1.3716
  844MOL0     O13863   9.185   4.397   3.636  0.6638  0.3715  0.0986
  844MOL0     C13864   9.319   4.375   3.655 -0.3998 -0.4534  0.5765
  844MOL0     C13865   9.354   4.391   3.794 -0.8399  0.0128  0.0507
  844MOL0     C13866   9.498   4.435   3.821 -1.3259  0.6984 -0.4298
  844MOL0     C13867   9.523   4.428   3.972  1.5711 -0.3986 -0.1272
  844MOL0     C13868   9.579   4.537   4.055 -0.4125  0.2627  0.0631
  844MOL0     C13869   9.595   4.647   4.102  1.5948  0.2361  0.0845
  844MOL0     C13870   8.974   4.391   3.530 -1.0937 -0.0282 -1.0789
  844MOL0     C13871   8.900   4.386   3.415  0.5531 -0.7369 -0.7349
  844MOL0     C13872   8.753   4.414   3.421 -0.7375  1.0556 -0.5283
  844MOL0     H13873   8.532   4.301   3.034  2.2575  2.5148  2.9617
  844MOL0     H13874   8.472   4.204   2.817 -0.0145  0.6596 -0.0736
  844MOL0     H13875   8.703   3.888   2.693 -2.6834 -2.5163  3.6662
  844MOL0     H13876   8.522   3.885   2.676  0.9600 -0.3931  2.4043
  844MOL0     H13877   8.561   3.938   2.433  0.7254  2.3784  1.4441
  844MOL0     H13878   8.610   3.784   2.486  2.5133 -0.4725 -1.7440
  844MOL0     H13879   8.841   3.845   2.494 -0.6784 -1.6593 -1.0597
  844MOL0     H13880   8.783   4.019   2.456 -1.0467  0.7444  0.1427
  844MOL0     H13881   8.761   3.781   2.285  0.1758 -0.8861  2.1026
  844MOL0     H13882   8.715   3.956   2.256  2.0084  2.1315  0.3297
  844MOL0     H13883   8.952   4.024   2.285 -0.2290  0.1331  4.9050
  844MOL0     H13884   9.003   3.860   2.328 -1.1371 -2.6049 -0.5533
  844MOL0     H13885   8.913   3.774   2.121 -1.2386  0.5925 -2.9909
  844MOL0     H13886   8.887   3.935   2.063  1.1984 -1.5623 -2.0976
  844MOL0     H13887   9.115   3.815   1.989  5.1218  0.5382  0.8042
  844MOL0     H13888   9.169   3.828   2.152  1.7981  3.9865  0.2791
  844MOL0     H13889   9.093   4.059   1.964  0.5505 -1.2206 -1.5801
  844MOL0     H13890   9.128   4.086   2.129 -3.3434  0.3498 -1.2331
  844MOL0     H13891   9.387   3.830   2.024  1.8369 -1.0661 -0.8766
  844MOL0     H13892   9.661   3.863   1.906  0.4917  1.5902 -0.3318
  844MOL0     H13893   9.553   3.785   1.798 -0.4574  0.0635 -1.3369
  844MOL0     H13894   9.598   3.984   1.646 -0.6774 -0.0588  0.0142
  844MOL0     H13895   9.737   4.016   1.761 -1.6097  1.6670 -0.7456
  844MOL0     H13896   9.680   3.737   1.639 -2.8596  1.6648 -1.3274
  844MOL0     H13897   9.838   3.799   1.689  0.6574  0.8404 -0.4732
  844MOL0     H13898   9.839   3.783   1.444 -0.1161 -2.4681  2.0080
  844MOL0     H13899   9.834   3.945   1.483  0.6429 -1.9965 -0.0165
  844MOL0     H13900   9.402   3.885   1.461  1.2191 -0.1226  1.1148
  844MOL0     H13901   9.235   3.696   1.463  0.2509  1.3582  1.2043
  844MOL0     H13902   8.929   3.424   1.525 -0.4573  1.6480 -0.5294
  844MOL0     H13903   8.722   3.332   1.440 -0.0420  1.9868  0.2193
  844MOL0     H13904   8.525   3.337   1.036  0.6082  0.3367 -2.5095
  844MOL0     H13905   8.686   3.337   0.986  0.0184  0.3829 -0.5130
  844MOL0     H13906   8.694   3.088   0.980 -0.1761  0.1849 -0.7220
  844MOL0     H13907   8.535   3.063   1.050  0.9519 -1.0601  0.8484
  844MOL0     H13908   8.446   3.176   0.851 -1.0615 -1.0915  1.0600
  844MOL0     H13909   8.618   3.182   0.783 -2.0469  1.5350 -1.8838
  844MOL0     H13910   8.439   2.946   0.805  0.2513 -1.3189  2.7083
  844MOL0     H13911   8.605   2.928   0.853 -0.4475  1.5710  2.9387
  844MOL0     H13912   8.575   2.887   0.625  1.1939 -0.0486  0.4564
  844MOL0     H13913   8.655   3.043   0.615  0.9446 -2.7471  0.9016
  844MOL0     H13914   8.357   3.019   0.608  0.4702 -1.3043  0.5127
  844MOL0     H13915   8.473   3.150   0.556  2.3066 -0.9193  1.1952
  844MOL0     H13916   8.485   2.874   0.445 -0.5131 -0.0736  3.4199
  844MOL0     H13917   8.562   3.021   0.389 -1.5577  0.7679 -0.9430
  844MOL0     H13918   8.340   3.130   0.353 -0.9200  0.1272 -0.6424
  844MOL0     H13919   8.406   3.013   0.228 -0.1450  0.6331 -0.8184
  844MOL0     H13920   8.893   3.300   1.046  2.7239 -1.8521  0.7986
  844MOL0     H13921   9.103   3.412   1.127  0.4031 -1.1512  0.5641
  844MOL0     H13922   9.548   3.443   1.302  0.1530  1.4554 -2.5084
  844MOL0     H13923   9.699   3.600   1.339 -0.7348 -1.3976  2.8565
  844MOL0     H13924   8.863   4.060   2.764  0.2826  2.7961 -0.3423
  844MOL0     H13925   8.921   4.121   2.987  2.1495  2.9467 -2.8017
  844MOL0     H13926   9.155   4.355   3.188  0.1120  2.2714  0.4109
  844MOL0     H13927   9.283   4.380   3.398  0.8521 -1.1249  0.9574
  844MOL0     H13928   9.376   4.448   3.596 -1.9945  3.4869  3.4309
  844MOL0     H13929   9.339   4.275   3.617 -0.5438 -0.9782  1.8575
  844MOL0     H13930   9.335   4.300   3.852 -0.6813 -1.2513 -1.7939
  844MOL0     H13931   9.289   4.466   3.841 -0.4951 -0.3072  1.0799
  844MOL0     H13932   9.528   4.532   3.781  1.7068  0.1766  0.3590
  844MOL0     H13933   9.559   4.365   3.763 -2.0155 -0.1671 -0.1382
  844MOL0     H13934   9.426   4.417   4.022  3.3177 -1.2842  3.4269
  844MOL0     H13935   9.579   4.336   3.989  2.0601  0.3642  3.0940
  844MOL0     H13936   9.586   4.735   4.162 -0.3308 -0.3429  0.7090
  844MOL0     H13937   8.942   4.421   3.629  0.5036 -2.0048  0.1037
  844MOL0     H13938   8.702   4.448   3.331  0.7240 -0.3134 -1.9155
  844MOL0     H13939   8.693   4.326   3.444 -0.0303  0.8855  0.8151
  844MOL0     H13940   8.736   4.474   3.512 -2.1239  0.4270 -0.3402
  845MOL0     O13941   3.880   1.070   2.373  0.0849 -0.5143  0.0093
  845MOL0     C13942   3.931   0.969   2.413  0.2304 -0.3059  0.4137
  845MOL0     O13943   3.888   0.843   2.394 -0.7258 -0.8263 -0.3665
  845MOL0     C13944   3.758   0.815   2.358  0.5914 -0.1055 -0.3059
  845MOL0     C13945   3.703   0.863   2.238 -0.5365 -0.2870 -0.8002
  845MOL0     C13946   3.574   0.847   2.201  0.8753 -0.1459 -0.0798
  845MOL0     C13947   3.484   0.783   2.289 -0.2323 -0.0214  0.2716
  845MOL0     O13948   3.348   0.771   2.269 -0.2735 -0.9757 -0.3507
  845MOL0     C13949   3.301   0.769   2.140 -0.3594  1.2418 -0.5972
  845MOL0     C13950   3.296   0.627   2.083  0.4557 -0.4773 -0.5752
  845MOL0     C13951   3.230   0.617   1.950 -0.1883  0.3328 -0.4020
  845MOL0     C13952   3.267   0.477   1.892 -0.1421 -0.5351 -0.1285
  845MOL0     C13953   3.420   0.460   1.852 -0.4416 -0.0943 -1.5124
  845MOL0     C13954   3.461   0.348   1.754 -1.1319 -0.2868 -0.2984
  845MOL0     C13955   3.375   0.339   1.627 -0.5367  0.6749 -0.3416
  845MOL0     C13956   3.404   0.450   1.514  0.6082 -0.2120  0.2264
  845MOL0     N13957   3.312   0.563   1.515  0.4508 -0.7979  0.4113
  845MOL0     C13958   3.178   0.553   1.475 -0.3221  0.6978 -0.4558
  845MOL0     C13959   3.125   0.675   1.507  1.0904  0.4993  0.9407
  845MOL0     C13960   2.973   0.708   1.498 -0.3534  0.4320 -0.5724
  845MOL0     C13961   2.945   0.854   1.436 -0.9979  0.3108  0.1845
  845MOL0     C13962   2.805   0.896   1.464  0.1116  0.2839 -0.1010
  845MOL0     C13963   2.786   0.936   1.612  0.7925  0.0290 -1.0092
  845MOL0     O13964   2.881   1.026   1.681  0.7780 -0.2944  0.9902
  845MOL0     C13965   2.907   1.002   1.812  0.5706 -1.1684 -0.2283
  845MOL0     C13966   2.913   0.876   1.871 -0.4747 -0.4079 -0.0726
  845MOL0     C13967   2.931   0.872   2.004  0.5545  0.0303  0.0781
  845MOL0     C13968   2.938   0.984   2.088  0.1869  0.2001  1.4816
  845MOL0     C13969   2.936   0.961   2.234 -0.4123  0.1999  0.0325
  845MOL0     O13970   2.932   0.836   2.281 -0.0359  0.3705  0.2220
  845MOL0     C13971   2.930   0.826   2.421 -0.5224  0.0036 -0.0986
  845MOL0     C13972   3.056   0.807   2.489 -0.0591 -0.8100  0.4255
  845MOL0     C13973   3.059   0.789   2.625  0.8708 -1.0026  0.1743
  845MOL0     C13974   2.936   0.784   2.702 -0.1838 -0.0008  0.0267
  845MOL0     O13975   2.913   0.771   2.839 -0.2760  0.3568 -0.3562
  845MOL0     C13976   3.019   0.767   2.938 -0.3780 -1.1324 -0.1541
  845MOL0     C13977   2.942   0.722   3.070 -0.0833  0.6758 -0.3505
  845MOL0     C13978   2.914   0.567   3.079  0.2206 -1.2698 -0.0532
  845MOL0     C13979   3.002   0.512   3.192  0.7007  0.2417  0.8009
  845MOL0     C13980   2.918   0.519   3.325 -0.1303  0.0619  0.0897
  845MOL0     C13981   2.987   0.423   3.418 -0.1607 -1.1302 -0.0584
  845MOL0     C13982   2.902   0.391   3.541 -0.1145  0.1802 -1.0079
  845MOL0     C13983   2.956   0.284   3.634  0.8743 -0.8178  0.3934
  845MOL0    Cl13984   2.933   0.121   3.571  0.0704  0.1966  0.3499
  845MOL0     C13985   2.816   0.807   2.627  0.3289 -0.6411  0.2379
  845MOL0     C13986   2.810   0.830   2.493  0.6254  0.1090 -0.9076
  845MOL0     O13987   2.949   1.068   2.299  0.3004  0.1293 -0.2514
  845MOL0     C13988   2.926   1.112   2.034 -0.2224  0.7041 -0.2129
  845MOL0     C13989   2.903   1.120   1.895 -0.0666  0.3369 -0.3510
  845MOL0     N13990   3.228   0.763   1.548  0.8887 -0.8162 -0.7124
  845MOL0     N13991   3.346   0.693   1.549 -0.0260 -0.9271 -0.1348
  845MOL0     C13992   3.531   0.739   2.417  1.3251 -0.4245  0.6639
  845MOL0     C13993   3.669   0.765   2.450  0.4336  0.0047 -0.3046
  845MOL0     C13994   4.061   0.980   2.472 -0.3766  0.1001 -0.5988
  845MOL0     C13995   4.174   1.008   2.395 -0.2741 -0.6756 -0.1784
  845MOL0     C13996   4.301   1.036   2.457 -0.6900  0.1472 -0.1588
  845MOL0     C13997   4.314   1.026   2.597 -0.1792  0.3134  0.2056
  845MOL0     O13998   4.438   1.041   2.648 -1.0270 -0.6792  0.4059
  845MOL0     C13999   4.444   1.071   2.787 -0.4656 -0.5580 -0.0099
  845MOL0     C14000   4.573   1.140   2.828  0.8386 -0.3543  1.2093
  845MOL0     C14001   4.565   1.179   2.976 -0.4493  0.2236  0.3065
  845MOL0     C14002   4.719   1.204   3.014 -0.4127 -0.0886 -0.3119
  845MOL0     C14003   4.733   1.274   3.140 -0.2000 -0.7920  0.3604
  845MOL0     C14004   4.782   1.311   3.245 -0.1477  0.9790 -0.4202
  845MOL0     C14005   4.191   0.997   2.670 -0.7183 -0.3426 -0.1284
  845MOL0     C14006   4.074   0.976   2.613  0.4152 -1.2238 -0.1909
  845MOL0     C14007   3.963   0.964   2.717  0.2505  0.7012  0.4206
  845MOL0     H14008   3.760   0.927   2.170 -0.3703  3.3864  2.4454
  845MOL0     H14009   3.546   0.890   2.105 -1.3692  1.4301  1.1789
  845MOL0     H14010   3.202   0.815   2.143  0.3058  2.7135  1.7936
  845MOL0     H14011   3.352   0.833   2.067 -1.8762 -0.0641 -2.9100
  845MOL0     H14012   3.244   0.570   2.161  0.0306  3.4297  2.2534
  845MOL0     H14013   3.398   0.587   2.081  0.1745 -1.2324 -0.3571
  845MOL0     H14014   3.273   0.697   1.888 -0.4634  0.4212 -0.4779
  845MOL0     H14015   3.125   0.639   1.969  0.6356  1.4839  3.9732
  845MOL0     H14016   3.235   0.399   1.962 -1.9243  2.1154  2.2493
  845MOL0     H14017   3.211   0.466   1.798 -1.6012 -1.7697  0.8327
  845MOL0     H14018   3.443   0.552   1.798 -0.1344  0.6850 -0.1144
  845MOL0     H14019   3.481   0.464   1.943 -0.7734 -4.6353 -0.8589
  845MOL0     H14020   3.563   0.372   1.722 -2.2276  0.9844 -3.1127
  845MOL0     H14021   3.469   0.252   1.806  0.6384 -0.3599 -0.6282
  845MOL0     H14022   3.270   0.344   1.657 -1.1472  2.5081 -2.5004
  845MOL0     H14023   3.384   0.240   1.581 -0.1904  0.4474  0.2013
  845MOL0     H14024   3.511   0.475   1.511  0.7192 -0.7610 -0.5468
  845MOL0     H14025   3.374   0.408   1.418  0.3359  0.6005 -0.0538
  845MOL0     H14026   3.113   0.482   1.425 -0.5556  0.3727  0.3102
  845MOL0     H14027   2.921   0.637   1.433  0.1327  0.1887 -0.7036
  845MOL0     H14028   2.922   0.687   1.592  0.8745  1.0682  0.2622
  845MOL0     H14029   3.015   0.926   1.480  0.3205 -1.0626  0.4562
  845MOL0     H14030   2.970   0.849   1.329  1.0090 -0.3959  0.6321
  845MOL0     H14031   2.727   0.822   1.443  1.9374 -2.8344  3.0028
  845MOL0     H14032   2.782   0.980   1.398  2.5534  2.1550  1.2771
  845MOL0     H14033   2.755   0.841   1.657 -3.0737  1.4294 -0.3463
  845MOL0     H14034   2.690   0.988   1.618  0.7207 -0.2258  0.1943
  845MOL0     H14035   2.914   0.786   1.812  0.9533  0.6521 -1.7637
  845MOL0     H14036   2.929   0.770   2.041 -0.3660  0.1648  0.4203
  845MOL0     H14037   3.148   0.803   2.430  0.3733  1.9801  0.7839
  845MOL0     H14038   3.148   0.753   2.675  1.8192 -1.1755 -1.5884
  845MOL0     H14039   3.100   0.700   2.908  0.4431 -0.1611 -0.1536
  845MOL0     H14040   3.048   0.870   2.962  0.5823 -1.6152  0.8110
  845MOL0     H14041   3.001   0.739   3.161  0.5584 -2.6558 -0.0291
  845MOL0     H14042   2.848   0.779   3.073  0.2970  1.3946 -1.5094
  845MOL0     H14043   2.812   0.539   3.105 -0.1758  0.3189  0.2268
  845MOL0     H14044   2.937   0.524   2.981  0.1921  2.1865 -1.7346
  845MOL0     H14045   3.094   0.569   3.207 -0.3517  1.8283  1.5265
  845MOL0     H14046   3.018   0.406   3.171 -1.6753 -0.1517  0.6384
  845MOL0     H14047   2.818   0.481   3.303 -0.0433 -1.5916  2.2992
  845MOL0     H14048   2.904   0.620   3.365 -2.5111  0.5480 -1.7480
  845MOL0     H14049   3.002   0.328   3.366  0.3426  0.0441 -2.1307
  845MOL0     H14050   3.083   0.462   3.453 -1.3770  1.1009  1.0201
  845MOL0     H14051   2.802   0.353   3.516  1.0182 -1.3520 -3.5568
  845MOL0     H14052   2.892   0.489   3.589  2.0347  0.2057 -0.5218
  845MOL0     H14053   3.060   0.300   3.662  0.6777  1.6823 -0.0799
  845MOL0     H14054   2.904   0.290   3.731  4.5349 -1.5386  2.5704
  845MOL0     H14055   2.727   0.826   2.687 -0.4109 -0.5460 -0.8634
  845MOL0     H14056   2.716   0.845   2.442 -0.8599 -1.4381  1.1870
  845MOL0     H14057   2.943   1.202   2.093 -0.4789  0.0336  0.9348
  845MOL0     H14058   2.902   1.215   1.843 -0.6707 -1.0017 -3.0170
  845MOL0     H14059   3.462   0.700   2.491  0.1776  1.6749  0.8073
  845MOL0     H14060   3.712   0.732   2.544 -0.3208 -1.1580 -0.3451
  845MOL0     H14061   4.166   1.024   2.288 -2.8522 -0.5399 -0.0293
  845MOL0     H14062   4.390   1.044   2.396 -2.1891 -0.9789 -2.6970
  845MOL0     H14063   4.432   0.976   2.839 -1.2153 -0.9645 -0.9115
  845MOL0     H14064   4.364   1.142   2.810  1.3778  1.3795  0.7970
  845MOL0     H14065   4.567   1.233   2.770 -0.2392 -2.1458 -1.8154
  845MOL0     H14066   4.660   1.083   2.794 -0.8774 -0.7087 -3.3689
  845MOL0     H14067   4.535   1.085   3.024  3.2678 -2.9151 -2.8702
  845MOL0     H14068   4.500   1.266   2.991  2.4333  2.2815  1.8843
  845MOL0     H14069   4.772   1.110   3.028 -2.0574 -0.8250  1.3301
  845MOL0     H14070   4.766   1.258   2.931  0.2445 -0.5470 -0.2380
  845MOL0     H14071   4.817   1.344   3.341 -0.1139 -1.1833  0.3507
  845MOL0     H14072   4.188   1.010   2.778  0.7676  3.1585 -0.3701
  845MOL0     H14073   3.980   0.931   2.820  0.9007 -0.5209 -0.0582
  845MOL0     H14074   3.907   1.058   2.725 -0.4001  0.5690 -2.0172
  845MOL0     H14075   3.914   0.874   2.680  0.5706  0.7437 -0.1076
  846MOL0     O14076   0.650   1.899   9.491  1.0359  0.6813  0.6273
  846MOL0     C14077   0.669   1.775   9.499 -0.6766 -0.1354  0.6413
  846MOL0     O14078   0.632   1.697   9.601 -0.5691  0.5916  0.4601
  846MOL0     C14079   0.583   1.746   9.716  0.0727 -0.3271  0.0881
  846MOL0     C14080   0.451   1.774   9.734  0.4324 -0.5236  0.6610
  846MOL0     C14081   0.402   1.824   9.854 -0.5056  0.4161  0.0856
  846MOL0     C14082   0.494   1.853   9.949  0.0119 -0.4570 -1.1399
  846MOL0     O14083   0.454   1.901  10.070 -0.4743  0.2882  0.0115
  846MOL0     C14084   0.319   1.922  10.113  0.7393 -0.3008 -0.0011
  846MOL0     C14085   0.324   2.014  10.241 -0.7248 -0.5517  0.4669
  846MOL0     C14086   0.306   1.955  10.371 -0.4194  0.5350  0.0823
  846MOL0     C14087   0.257   2.045  10.485 -1.1439 -0.3865 -0.0023
  846MOL0     C14088   0.191   1.949  10.594 -0.7117 -1.4352  0.1525
  846MOL0     C14089   0.289   1.852  10.651  0.1378  1.4250  0.2818
  846MOL0     C14090   0.218   1.772  10.766 -0.1336  0.1633 -0.5448
  846MOL0     C14091   0.314   1.662  10.819  0.4268 -0.3674  0.5868
  846MOL0     N14092   0.274   1.622  10.959 -0.6935 -0.4350  0.2730
  846MOL0     C14093   0.344   1.648  11.079 -0.3418 -0.1733  0.5225
  846MOL0     C14094   0.277   1.558  11.160 -0.2698  0.0992 -0.3740
  846MOL0     C14095   0.294   1.547  11.308 -0.1442  0.2465 -0.3315
  846MOL0     C14096   0.306   1.687  11.368  0.4173  1.2318  0.1865
  846MOL0     C14097   0.318   1.694  11.523  0.0690 -0.8108 -0.4978
  846MOL0     C14098   0.338   1.842  11.568  0.3259  0.0175  0.1513
  846MOL0     O14099   0.442   1.902  11.480  0.3134  0.1209 -0.1236
  846MOL0     C14100   0.574   1.895  11.513 -0.7652  1.1883  0.5685
  846MOL0     C14101   0.635   1.833  11.617 -0.1971  0.4336 -0.0436
  846MOL0     C14102   0.770   1.819  11.635 -0.4334 -0.7498 -0.6878
  846MOL0     C14103   0.856   1.886  11.550 -0.3995 -0.5428  0.4541
  846MOL0     C14104   1.002   1.871  11.580 -0.5315  0.3330  0.2382
  846MOL0     O14105   1.048   1.769  11.660  0.2511  0.0257  0.7084
  846MOL0     C14106   1.178   1.736  11.660 -1.1029 -1.0284  0.1975
  846MOL0     C14107   1.240   1.721  11.785  0.1029 -0.5220  0.3852
  846MOL0     C14108   1.366   1.672  11.792  0.3564  0.7004 -0.2072
  846MOL0     C14109   1.439   1.647  11.679  0.5325 -0.2959  0.0501
  846MOL0     O14110   1.573   1.608  11.681 -0.2778  0.4161 -0.1154
  846MOL0     C14111   1.661   1.712  11.694 -0.8988 -0.1882 -0.3054
  846MOL0     C14112   1.728   1.742  11.558 -0.0384 -0.2842 -0.1214
  846MOL0     C14113   1.807   1.622  11.502 -0.6189  0.2633  0.3322
  846MOL0     C14114   1.830   1.627  11.351 -0.0691  0.6265  0.9637
  846MOL0     C14115   1.927   1.507  11.328 -0.4144 -0.9744 -0.3428
  846MOL0     C14116   1.930   1.472  11.183 -0.4078  0.1709  0.1587
  846MOL0     C14117   1.996   1.331  11.170  0.1000  0.5427  0.1717
  846MOL0     C14118   2.005   1.296  11.023  0.0849 -0.3941  0.3960
  846MOL0    Cl14119   1.842   1.229  10.973 -0.4028  0.0211  0.2872
  846MOL0     C14120   1.383   1.665  11.553 -0.1559  0.1663 -0.6710
  846MOL0     C14121   1.253   1.704  11.547  0.2607 -0.7349  0.2407
  846MOL0     O14122   1.073   1.953  11.527  0.2196 -0.1000 -0.4823
  846MOL0     C14123   0.803   1.966  11.452  0.1586  0.2219 -0.6636
  846MOL0     C14124   0.662   1.977  11.436 -0.2815  0.4423  0.4261
  846MOL0     N14125   0.179   1.489  11.100  0.1999 -0.1566  0.6641
  846MOL0     N14126   0.173   1.533  10.975 -0.7843  0.1515  0.3562
  846MOL0     C14127   0.629   1.822   9.942  0.1241  1.0787 -0.3325
  846MOL0     C14128   0.675   1.766   9.822  0.7027 -0.1811  0.0905
  846MOL0     C14129   0.725   1.708   9.376 -0.4404  0.1930 -0.4584
  846MOL0     C14130   0.826   1.776   9.304 -0.3307  0.7012 -0.2091
  846MOL0     C14131   0.888   1.723   9.190  0.0845 -0.0762  0.5248
  846MOL0     C14132   0.853   1.599   9.142 -0.3924 -0.2119 -0.3471
  846MOL0     O14133   0.910   1.554   9.015 -0.3751 -0.6015 -0.1150
  846MOL0     C14134   0.878   1.418   8.961  0.4948 -0.2587  0.2965
  846MOL0     C14135   0.955   1.305   9.020  0.5584 -0.6473  0.2422
  846MOL0     C14136   0.952   1.188   8.923 -0.2513 -0.1171 -0.6669
  846MOL0     C14137   0.994   1.068   8.995  0.0619 -0.1688 -0.1771
  846MOL0     C14138   1.023   0.942   8.919 -0.9226 -0.3458 -0.2078
  846MOL0     C14139   1.048   0.838   8.859  0.6933  0.5915 -0.1721
  846MOL0     C14140   0.754   1.529   9.215  0.1317 -0.2250 -0.4110
  846MOL0     C14141   0.700   1.572   9.337  0.5190 -1.0701  0.1835
  846MOL0     C14142   0.607   1.473   9.409  0.5186 -0.5063  1.1231
  846MOL0     H14143   0.383   1.762   9.650  0.3957  0.5546  0.5193
  846MOL0     H14144   0.298   1.834   9.882  0.1293  1.9184  2.1414
  846MOL0     H14145   0.266   1.983  10.039  0.9031  1.6107  1.3589
  846MOL0     H14146   0.270   1.825  10.115  1.9825 -1.0214 -1.7985
  846MOL0     H14147   0.237   2.078  10.224  1.5073  2.5540 -0.0903
  846MOL0     H14148   0.415   2.072  10.228 -0.4912 -0.7489  1.2009
  846MOL0     H14149   0.407   1.917  10.389 -0.4290  1.3779  2.2809
  846MOL0     H14150   0.234   1.875  10.355  0.3358 -0.0972 -0.2009
  846MOL0     H14151   0.334   2.111  10.524 -0.6995 -2.4766  2.9467
  846MOL0     H14152   0.179   2.112  10.446 -0.9059  1.9656  3.1563
  846MOL0     H14153   0.166   2.016  10.676  2.0372  0.4871 -0.4406
  846MOL0     H14154   0.112   1.894  10.541  1.8988 -3.5852 -1.8313
  846MOL0     H14155   0.329   1.778  10.581 -1.5458  1.1132 -0.3911
  846MOL0     H14156   0.377   1.913  10.674  0.9741  1.9650 -3.7572
  846MOL0     H14157   0.120   1.728  10.744  0.8308 -0.5269 -4.0329
  846MOL0     H14158   0.212   1.839  10.852 -0.0019 -2.3946  1.5655
  846MOL0     H14159   0.313   1.582  10.744 -0.6319  0.6980 -0.5637
  846MOL0     H14160   0.417   1.700  10.827  0.2253  0.0477  1.3011
  846MOL0     H14161   0.428   1.710  11.106  1.3758 -2.1247 -0.0785
  846MOL0     H14162   0.206   1.501  11.354  0.7522  0.4686  1.7171
  846MOL0     H14163   0.385   1.497  11.339 -0.0546  0.3627 -0.4034
  846MOL0     H14164   0.387   1.735  11.312  1.6660 -0.0038  0.8594
  846MOL0     H14165   0.208   1.726  11.339 -0.6297 -1.8963 -0.7891
  846MOL0     H14166   0.398   1.634  11.567 -2.0481 -1.5623  2.6250
  846MOL0     H14167   0.231   1.660  11.581 -0.1772 -0.0528 -0.4037
  846MOL0     H14168   0.356   1.848  11.676  0.8517  1.6378  0.0034
  846MOL0     H14169   0.249   1.896  11.534  2.0555  1.0690 -3.0919
  846MOL0     H14170   0.577   1.769  11.684  2.7716 -0.4795  1.8439
  846MOL0     H14171   0.803   1.755  11.716 -0.2350 -3.0891 -2.5026
  846MOL0     H14172   1.193   1.780  11.864 -0.6658  2.2837 -1.9545
  846MOL0     H14173   1.406   1.660  11.892  1.7480 -0.3079 -0.8520
  846MOL0     H14174   1.623   1.802  11.743 -1.9000  0.2142 -1.7587
  846MOL0     H14175   1.741   1.667  11.754  1.3056 -1.7186 -4.0306
  846MOL0     H14176   1.651   1.775  11.488 -0.2421  3.4756  1.6114
  846MOL0     H14177   1.796   1.827  11.564  0.7023 -0.9503  2.1330
  846MOL0     H14178   1.907   1.619  11.548 -0.4256 -1.5131 -0.1587
  846MOL0     H14179   1.756   1.540  11.553 -1.1700  0.0515 -0.5504
  846MOL0     H14180   1.878   1.721  11.321 -0.8349  1.6163  2.6774
  846MOL0     H14181   1.729   1.610  11.313  1.1060 -2.7804 -1.0886
  846MOL0     H14182   1.886   1.423  11.385 -1.0180 -0.8439 -0.5709
  846MOL0     H14183   2.028   1.531  11.363 -1.6539  2.3391  1.4106
  846MOL0     H14184   1.826   1.465  11.150  0.1353  0.8095 -1.8182
  846MOL0     H14185   1.992   1.542  11.126 -1.1013  3.1166  2.6785
  846MOL0     H14186   1.930   1.254  11.210  0.7471 -1.7644 -2.8265
  846MOL0     H14187   2.091   1.346  11.223 -1.7256  2.8142  3.0686
  846MOL0     H14188   2.041   1.384  10.969  2.8090 -2.1158 -0.8172
  846MOL0     H14189   2.082   1.218  11.021 -1.4139 -1.9155 -0.0292
  846MOL0     H14190   1.444   1.663  11.463  0.6975  0.0312 -0.1052
  846MOL0     H14191   1.205   1.715  11.450  3.3121 -2.8373 -1.6926
  846MOL0     H14192   0.875   2.020  11.391 -0.7961  0.5579 -1.5321
  846MOL0     H14193   0.632   2.044  11.357 -3.0036  1.0085  1.7904
  846MOL0     H14194   0.695   1.834  10.027 -0.2558  2.6325 -0.2333
  846MOL0     H14195   0.779   1.738   9.809  0.8507 -1.1215  2.7146
  846MOL0     H14196   0.861   1.874   9.335 -1.9162  2.2070 -2.8255
  846MOL0     H14197   0.969   1.778   9.143  1.2610 -1.5818  0.7019
  846MOL0     H14198   0.885   1.418   8.852  0.0578 -1.4544  0.2521
  846MOL0     H14199   0.771   1.399   8.978 -0.0915  2.4407  0.1429
  846MOL0     H14200   0.910   1.278   9.116  2.3396  1.3095  1.7491
  846MOL0     H14201   1.057   1.339   9.041  0.4963  0.8387 -1.5931
  846MOL0     H14202   1.016   1.211   8.838 -1.9283  1.8809 -1.4788
  846MOL0     H14203   0.847   1.180   8.894 -0.7787 -2.0785  1.4666
  846MOL0     H14204   1.094   1.082   9.036 -0.5172 -1.7675  1.9556
  846MOL0     H14205   0.920   1.040   9.071  0.4334 -2.7294 -0.6374
  846MOL0     H14206   1.060   0.753   8.795  1.7257  1.6729 -1.4560
  846MOL0     H14207   0.712   1.434   9.183 -0.9821 -1.1678  3.3207
  846MOL0     H14208   0.608   1.386   9.343  3.6104  1.3804 -1.5866
  846MOL0     H14209   0.633   1.444   9.510 -1.6291 -4.5108  0.7173
  846MOL0     H14210   0.507   1.517   9.400  0.8500 -0.0919 -1.0688
  847MOL0     O14211   4.371   1.664   1.505  0.4282 -0.1937  1.1800
  847MOL0     C14212   4.307   1.752   1.565 -0.3910  1.2401  0.4343
  847MOL0     O14213   4.349   1.811   1.679 -0.4914 -0.4128 -0.1769
  847MOL0     C14214   4.456   1.767   1.753  0.7913 -0.7936 -0.5436
  847MOL0     C14215   4.517   1.645   1.760 -0.1325  0.2650  0.1419
  847MOL0     C14216   4.610   1.606   1.854  0.5047  0.6056 -0.1839
  847MOL0     C14217   4.655   1.705   1.944 -0.7060 -0.1690 -0.8201
  847MOL0     O14218   4.755   1.680   2.043  0.0765  0.0577  1.3104
  847MOL0     C14219   4.805   1.791   2.124 -1.1188  1.3754 -0.7544
  847MOL0     C14220   4.940   1.764   2.196  0.6846 -0.0479  0.4282
  847MOL0     C14221   5.066   1.781   2.109 -0.2223  0.4842 -0.2720
  847MOL0     C14222   5.077   1.667   2.001  0.5483  0.0066 -0.5565
  847MOL0     C14223   5.173   1.692   1.887  0.1530  0.1055 -0.4368
  847MOL0     C14224   5.176   1.572   1.791  0.8892  0.4968 -0.1944
  847MOL0     C14225   5.274   1.617   1.679  0.1538 -0.1134  0.3539
  847MOL0     C14226   5.307   1.511   1.564  0.1489  1.2179 -0.1858
  847MOL0     N14227   5.382   1.389   1.615  0.7634  0.7053 -0.1598
  847MOL0     C14228   5.322   1.286   1.683 -0.3796 -0.1294  1.4037
  847MOL0     C14229   5.421   1.206   1.723 -0.5291  0.8849  0.5217
  847MOL0     C14230   5.414   1.075   1.801 -0.0389 -0.0293  0.0109
  847MOL0     C14231   5.345   0.969   1.719 -0.0001  0.5026 -0.0839
  847MOL0     C14232   5.362   0.819   1.773  0.3879 -0.2111 -0.3784
  847MOL0     C14233   5.303   0.808   1.913 -0.0550  0.7196 -0.5839
  847MOL0     O14234   5.159   0.787   1.903 -0.3253 -0.3038  0.2352
  847MOL0     C14235   5.077   0.759   2.005  0.1329  0.0804  0.4303
  847MOL0     C14236   4.936   0.772   1.976  0.2581 -0.5275 -0.4530
  847MOL0     C14237   4.840   0.749   2.080  0.5535 -1.2751  1.1032
  847MOL0     C14238   4.876   0.695   2.201 -0.3917  0.7420 -0.9255
  847MOL0     C14239   4.782   0.664   2.297  0.3020 -0.0420 -0.1849
  847MOL0     O14240   4.672   0.589   2.268 -0.1849  0.0625  0.0840
  847MOL0     C14241   4.571   0.576   2.356  0.2836 -0.3136 -0.1540
  847MOL0     C14242   4.491   0.467   2.355 -0.1294 -0.1962  0.6302
  847MOL0     C14243   4.374   0.461   2.416  1.1841  0.0671  0.1338
  847MOL0     C14244   4.319   0.557   2.497 -0.4422 -0.3595  1.2531
  847MOL0     O14245   4.190   0.559   2.552  0.2548 -0.0965  0.0047
  847MOL0     C14246   4.082   0.514   2.479 -0.1809 -0.2760  0.5828
  847MOL0     C14247   3.947   0.521   2.550  0.2193  0.3538  0.0076
  847MOL0     C14248   3.904   0.403   2.630  0.4466  0.3249  0.1653
  847MOL0     C14249   3.758   0.424   2.687 -0.0134  0.1273 -0.1627
  847MOL0     C14250   3.706   0.313   2.763 -0.0294 -0.6436 -0.1589
  847MOL0     C14251   3.747   0.322   2.909 -0.9128  0.2866  0.0673
  847MOL0     C14252   3.669   0.215   2.981 -0.0393 -0.5467 -0.6150
  847MOL0     C14253   3.759   0.143   3.077 -0.0293 -0.0911  0.2008
  847MOL0    Cl14254   3.840   0.241   3.202  0.3728 -0.3719 -0.6324
  847MOL0     C14255   4.403   0.667   2.514 -0.9693  1.1074 -0.4567
  847MOL0     C14256   4.526   0.672   2.447 -0.1363 -0.6007  0.5055
  847MOL0     O14257   4.815   0.695   2.408 -0.0685 -0.2413 -0.1281
  847MOL0     C14258   5.019   0.684   2.231 -0.3034  0.2271  0.6634
  847MOL0     C14259   5.121   0.716   2.129  0.6532  0.3432 -0.3523
  847MOL0     N14260   5.541   1.260   1.671  0.2981  0.3860  0.4759
  847MOL0     N14261   5.514   1.373   1.618 -0.9772  0.2218  0.6450
  847MOL0     C14262   4.600   1.835   1.943  0.5129 -0.1494 -0.4416
  847MOL0     C14263   4.498   1.860   1.851  0.2404 -0.2283  0.9719
  847MOL0     C14264   4.200   1.827   1.500 -0.2332  0.2022  0.5185
  847MOL0     C14265   4.167   1.956   1.555  0.9653  0.0844 -0.6098
  847MOL0     C14266   4.071   2.038   1.492 -0.5121 -0.7549  0.3595
  847MOL0     C14267   3.999   2.004   1.381  0.2355  0.7590 -0.4314
  847MOL0     O14268   3.895   2.075   1.331 -0.5380 -0.4206  0.1900
  847MOL0     C14269   3.805   2.156   1.408 -0.4128  0.3017  0.0686
  847MOL0     C14270   3.682   2.073   1.427 -0.1761 -0.7280  0.0182
  847MOL0     C14271   3.690   1.986   1.554  0.7815 -0.4241 -0.4599
  847MOL0     C14272   3.599   1.874   1.578  1.0619 -0.1393  0.8234
  847MOL0     C14273   3.628   1.783   1.692 -0.3632  0.2567  0.4735
  847MOL0     C14274   3.653   1.703   1.769  0.5556 -0.3317 -0.4286
  847MOL0     C14275   4.027   1.876   1.332 -0.9569  0.4244 -0.3105
  847MOL0     C14276   4.126   1.790   1.382  0.6134 -1.2648 -0.4716
  847MOL0     C14277   4.135   1.654   1.310 -0.6027 -0.6955  0.3322
  847MOL0     H14278   4.494   1.564   1.691 -1.8728  2.6435 -2.2783
  847MOL0     H14279   4.633   1.500   1.859 -0.3021 -0.0550 -5.2251
  847MOL0     H14280   4.844   1.874   2.064  1.8037 -0.3206 -1.4259
  847MOL0     H14281   4.733   1.816   2.203 -1.5855 -4.5192  1.2055
  847MOL0     H14282   4.921   1.669   2.246  1.0439 -1.1966 -1.5344
  847MOL0     H14283   4.942   1.846   2.269 -0.4920  2.0324 -1.7341
  847MOL0     H14284   5.159   1.774   2.166 -0.5887  0.1442  0.2967
  847MOL0     H14285   5.060   1.881   2.064 -0.6493  0.9227  0.7202
  847MOL0     H14286   5.087   1.571   2.053 -0.7122  0.6517  0.9648
  847MOL0     H14287   4.979   1.662   1.953 -1.5835 -1.4777  3.4385
  847MOL0     H14288   5.141   1.782   1.835 -2.8298  1.3412  3.1295
  847MOL0     H14289   5.267   1.721   1.934 -1.9457  0.9175  3.6884
  847MOL0     H14290   5.235   1.491   1.833  3.2302  2.7443  1.0657
  847MOL0     H14291   5.074   1.533   1.776  0.5851  1.5697 -1.0816
  847MOL0     H14292   5.365   1.652   1.728 -0.3929  0.6909  0.8125
  847MOL0     H14293   5.246   1.708   1.625  6.0813  1.8262 -0.1828
  847MOL0     H14294   5.209   1.474   1.533 -1.1704  0.7973  3.8297
  847MOL0     H14295   5.373   1.555   1.489  2.4093  0.5340  1.3044
  847MOL0     H14296   5.215   1.270   1.681 -0.4275  0.0830  2.0746
  847MOL0     H14297   5.512   1.038   1.832  0.8452  0.4843 -1.9742
  847MOL0     H14298   5.358   1.101   1.891 -1.8147 -0.8933 -0.7792
  847MOL0     H14299   5.243   1.006   1.705  0.1737 -0.0267 -4.1060
  847MOL0     H14300   5.393   0.971   1.621  2.5195  3.5637  1.0496
  847MOL0     H14301   5.470   0.806   1.781  0.1715 -0.8334  2.3404
  847MOL0     H14302   5.314   0.754   1.699  1.2911  1.8136 -2.8825
  847MOL0     H14303   5.321   0.891   1.982 -4.3917  1.2335  0.2163
  847MOL0     H14304   5.337   0.711   1.950 -0.0306  0.9510  0.0149
  847MOL0     H14305   4.907   0.824   1.886  0.9066  2.1852  0.8021
  847MOL0     H14306   4.733   0.768   2.070  0.8978  0.6152  0.7871
  847MOL0     H14307   4.522   0.402   2.274 -2.4837  0.2454 -0.7211
  847MOL0     H14308   4.307   0.382   2.382 -0.2416  0.7378  1.2724
  847MOL0     H14309   4.064   0.591   2.403  0.1460  1.1015  1.8488
  847MOL0     H14310   4.094   0.409   2.451  0.9797  0.2429 -0.9766
  847MOL0     H14311   3.942   0.611   2.611  3.1989 -1.0573  2.6126
  847MOL0     H14312   3.874   0.525   2.469  0.3336  0.0314 -0.1143
  847MOL0     H14313   3.905   0.315   2.565  1.0315 -0.2506  0.9322
  847MOL0     H14314   3.965   0.389   2.720  0.0207  0.6358  0.5051
  847MOL0     H14315   3.698   0.434   2.596  1.2561 -4.0632 -1.6648
  847MOL0     H14316   3.732   0.519   2.736 -1.1698  0.5049 -1.4293
  847MOL0     H14317   3.749   0.226   2.711  1.8051  1.2081 -1.9367
  847MOL0     H14318   3.597   0.322   2.750 -0.1410  0.0970  1.1404
  847MOL0     H14319   3.855   0.306   2.906 -1.3584 -4.0534 -2.7630
  847MOL0     H14320   3.718   0.418   2.951 -1.0952 -0.3183  1.3794
  847MOL0     H14321   3.625   0.136   2.919 -0.9390 -1.1240  0.7068
  847MOL0     H14322   3.582   0.264   3.027  2.2365  1.8021  1.5084
  847MOL0     H14323   3.697   0.069   3.130  0.8052 -2.4913 -1.9539
  847MOL0     H14324   3.838   0.085   3.030  1.3989  0.6046  1.6589
  847MOL0     H14325   4.389   0.751   2.582 -0.4463  0.0105  1.0719
  847MOL0     H14326   4.599   0.748   2.475 -1.1638  1.0649 -1.1620
  847MOL0     H14327   5.040   0.657   2.334 -0.9818  2.5061  1.4745
  847MOL0     H14328   5.227   0.703   2.151  0.4035  0.9318  1.3403
  847MOL0     H14329   4.631   1.921   2.001 -1.5069  0.6859 -0.5070
  847MOL0     H14330   4.437   1.950   1.853  0.5165 -0.0335  0.6610
  847MOL0     H14331   4.218   2.000   1.640  0.3027  0.8703 -0.6063
  847MOL0     H14332   4.060   2.137   1.536 -0.0666 -0.8409  0.6597
  847MOL0     H14333   3.766   2.239   1.348 -0.5049  1.2981  1.4460
  847MOL0     H14334   3.843   2.201   1.501  2.3331  0.9601 -1.2628
  847MOL0     H14335   3.661   2.009   1.341  2.1161  0.4471 -1.5073
  847MOL0     H14336   3.606   2.151   1.419  2.9789  2.5500 -0.4950
  847MOL0     H14337   3.689   2.053   1.641  2.0595 -2.0093  0.8571
  847MOL0     H14338   3.789   1.939   1.550  1.4855  1.0754 -3.5171
  847MOL0     H14339   3.502   1.919   1.602  1.2800  0.2525  0.9886
  847MOL0     H14340   3.588   1.819   1.485 -0.8617  3.4971 -1.3651
  847MOL0     H14341   3.697   1.636   1.839  0.7705  0.3586  0.1121
  847MOL0     H14342   3.969   1.843   1.247  2.1085  2.9882 -3.7488
  847MOL0     H14343   4.082   1.646   1.215 -1.0363  1.4867  0.3276
  847MOL0     H14344   4.241   1.642   1.285 -0.6271 -2.5574  0.9965
  847MOL0     H14345   4.097   1.580   1.381  1.7612 -0.3691  2.0738
  848MOL0     O14346   0.670   9.391   8.726 -0.6983  0.0766 -0.2272
  848MOL0     C14347   0.566   9.454   8.693 -0.1489  0.9240 -0.0248
  848MOL0     O14348   0.456   9.396   8.631 -0.9066  0.1174  0.2496
  848MOL0     C14349   0.467   9.266   8.604  0.1365 -0.4771  0.9580
  848MOL0     C14350   0.447   9.174   8.700  1.0621 -0.9156 -2.0578
  848MOL0     C14351   0.454   9.031   8.681 -0.6610  1.2617  0.7480
  848MOL0     C14352   0.487   8.982   8.553  0.0721  0.9410 -0.0463
  848MOL0     O14353   0.510   8.850   8.534 -0.1092 -0.5644 -0.5029
  848MOL0     C14354   0.470   8.788   8.410 -0.1692  1.1937  0.8539
  848MOL0     C14355   0.456   8.640   8.441  0.0403  0.5719  0.5771
  848MOL0     C14356   0.454   8.544   8.318 -0.2564  0.4663  0.0317
  848MOL0     C14357   0.591   8.548   8.251 -0.5187  0.7683  0.2894
  848MOL0     C14358   0.612   8.444   8.138 -0.7175 -0.4689 -0.7257
  848MOL0     C14359   0.742   8.466   8.065  0.6471 -1.1370  0.2264
  848MOL0     C14360   0.761   8.354   7.963 -0.3734 -0.9601 -0.3398
  848MOL0     C14361   0.883   8.378   7.866 -1.0303 -0.2107 -0.1481
  848MOL0     N14362   1.012   8.391   7.946  0.4799  0.2663 -0.2107
  848MOL0     C14363   1.069   8.296   8.031 -0.7512 -0.0506  1.7904
  848MOL0     C14364   1.185   8.356   8.074 -0.4866 -0.3185  0.3298
  848MOL0     C14365   1.273   8.307   8.189  0.0486 -0.4063 -0.4286
  848MOL0     C14366   1.405   8.232   8.150  0.4148  1.5433 -0.4622
  848MOL0     C14367   1.389   8.084   8.098  1.2767  0.0859  0.0174
  848MOL0     C14368   1.521   8.044   8.030 -0.5491  0.0435 -0.1669
  848MOL0     O14369   1.488   7.923   7.948  0.7732 -0.8022  0.0221
  848MOL0     C14370   1.591   7.855   7.880 -0.4111 -0.3212 -0.7128
  848MOL0     C14371   1.724   7.894   7.886  0.5450 -0.9107  0.0846
  848MOL0     C14372   1.816   7.813   7.824 -0.0690 -0.1374 -0.2342
  848MOL0     C14373   1.783   7.693   7.752 -0.0848  0.4077  0.1117
  848MOL0     C14374   1.897   7.605   7.716  0.3094 -0.4091  0.2931
  848MOL0     O14375   1.852   7.480   7.712 -0.3514  0.3399 -0.0677
  848MOL0     C14376   1.958   7.385   7.699 -0.8715 -0.2313 -0.6248
  848MOL0     C14377   1.999   7.323   7.579  0.6324  0.3124  0.2972
  848MOL0     C14378   2.099   7.220   7.583  0.0805 -0.1174 -0.0961
  848MOL0     C14379   2.154   7.179   7.703  0.1272 -0.3097  0.0911
  848MOL0     O14380   2.238   7.068   7.709  0.4995 -0.6325  0.6073
  848MOL0     C14381   2.340   7.032   7.610 -0.3260  0.0680 -0.0346
  848MOL0     C14382   2.456   6.968   7.676  0.3875  0.0335 -1.1505
  848MOL0     C14383   2.401   6.842   7.747 -1.2371  1.4108  0.3051
  848MOL0     C14384   2.357   6.724   7.657 -0.3202 -0.6003  1.0986
  848MOL0     C14385   2.296   6.605   7.720  1.0304  0.0378 -0.2984
  848MOL0     C14386   2.396   6.506   7.777 -0.4283 -0.1271  0.2184
  848MOL0     C14387   2.336   6.390   7.854 -0.5926 -0.5287 -0.8857
  848MOL0     C14388   2.415   6.261   7.869  0.4043  0.3679 -0.5155
  848MOL0    Cl14389   2.574   6.307   7.937  0.0416 -0.0480  0.5357
  848MOL0     C14390   2.112   7.234   7.822  1.2133  0.3009  0.5949
  848MOL0     C14391   2.019   7.340   7.821  0.8590 -0.3447  0.0016
  848MOL0     O14392   2.016   7.648   7.722  0.6560 -0.1743  0.6296
  848MOL0     C14393   1.651   7.652   7.747  0.0514 -0.8201  0.4918
  848MOL0     C14394   1.551   7.728   7.814 -0.3879 -0.1810  1.4264
  848MOL0     N14395   1.196   8.474   8.011 -0.4254 -0.2658  0.7142
  848MOL0     N14396   1.094   8.492   7.934 -0.4687 -1.3272  0.4484
  848MOL0     C14397   0.505   9.080   8.446  0.6018  0.4891  0.1892
  848MOL0     C14398   0.482   9.217   8.478 -0.3093  0.6914 -0.8825
  848MOL0     C14399   0.559   9.597   8.729 -0.1270 -0.6802  0.6847
  848MOL0     C14400   0.477   9.693   8.660 -0.5300 -0.0526  0.9293
  848MOL0     C14401   0.479   9.837   8.691 -0.3481  0.1691  0.1962
  848MOL0     C14402   0.547   9.875   8.801  0.6153 -0.8144  0.4114
  848MOL0     O14403   0.547  10.015   8.833 -1.5181  0.5948 -0.5523
  848MOL0     C14404   0.488  10.117   8.750 -0.3131  0.4031 -0.3861
  848MOL0     C14405   0.550  10.255   8.791  0.2334  0.4775  0.7221
  848MOL0     C14406   0.506  10.284   8.938 -0.5792 -0.7074  0.4492
  848MOL0     C14407   0.573  10.410   8.986 -1.6347 -0.2501  1.0252
  848MOL0     C14408   0.723  10.410   8.976  0.3436 -0.6713 -0.0542
  848MOL0     C14409   0.843  10.397   8.963  0.4530  0.7740 -0.0401
  848MOL0     C14410   0.624   9.792   8.865  0.3582  0.8164  0.0759
  848MOL0     C14411   0.640   9.659   8.826  0.0595 -1.1554 -0.3314
  848MOL0     C14412   0.753   9.591   8.914  0.7211  0.2264  0.2183
  848MOL0     H14413   0.421   9.207   8.800  0.8988  2.3300 -3.0272
  848MOL0     H14414   0.447   8.955   8.758 -0.7652 -0.0607 -0.5223
  848MOL0     H14415   0.367   8.820   8.390 -0.9928  0.2929  3.2948
  848MOL0     H14416   0.535   8.821   8.328 -1.8693  1.0212 -0.6329
  848MOL0     H14417   0.362   8.628   8.496 -1.3509  2.2478 -1.2797
  848MOL0     H14418   0.541   8.611   8.503 -0.5759  1.8497  2.0766
  848MOL0     H14419   0.376   8.588   8.254 -2.2777  0.0216  2.0517
  848MOL0     H14420   0.424   8.441   8.341 -0.7727 -0.3939 -3.8198
  848MOL0     H14421   0.603   8.647   8.208  0.7510 -0.1533 -1.6286
  848MOL0     H14422   0.670   8.525   8.323  3.5490  0.1350 -3.8860
  848MOL0     H14423   0.612   8.346   8.187  2.3577 -0.1351  0.1137
  848MOL0     H14424   0.526   8.450   8.070 -1.3811  0.8080  0.1653
  848MOL0     H14425   0.738   8.557   8.004 -1.3233 -2.9143 -2.4935
  848MOL0     H14426   0.821   8.476   8.140  0.3447  0.9351  0.3291
  848MOL0     H14427   0.674   8.331   7.901 -0.7899 -0.0852 -0.1092
  848MOL0     H14428   0.778   8.259   8.013  1.9726 -2.5386 -3.7358
  848MOL0     H14429   0.894   8.287   7.806 -2.7455  1.2911 -2.9304
  848MOL0     H14430   0.862   8.465   7.805  0.5034 -0.0172 -0.4477
  848MOL0     H14431   1.026   8.205   8.072 -1.9041 -1.5539 -2.2393
  848MOL0     H14432   1.302   8.392   8.252  0.1199 -0.8699  0.1797
  848MOL0     H14433   1.221   8.248   8.266  3.9871 -0.5231  2.4399
  848MOL0     H14434   1.468   8.278   8.074  1.2238  0.0822 -0.7061
  848MOL0     H14435   1.470   8.222   8.237  1.6094  0.1875 -1.4826
  848MOL0     H14436   1.321   8.090   8.012 -0.1481 -0.7649  1.0505
  848MOL0     H14437   1.354   8.007   8.167  1.4718 -0.1837 -0.1799
  848MOL0     H14438   1.587   8.017   8.113 -0.5376 -2.0150 -0.7940
  848MOL0     H14439   1.551   8.124   7.963  1.3877 -1.3239 -1.0251
  848MOL0     H14440   1.769   7.979   7.935  0.1107  0.1232 -1.2347
  848MOL0     H14441   1.921   7.820   7.851  0.7535 -2.4588 -2.4953
  848MOL0     H14442   1.951   7.341   7.483  1.8445  1.5788 -0.0983
  848MOL0     H14443   2.104   7.173   7.485 -1.0389  3.0043 -1.8105
  848MOL0     H14444   2.279   6.957   7.560 -2.2003  0.0020  2.1898
  848MOL0     H14445   2.369   7.114   7.543 -2.0268 -0.1764 -1.1157
  848MOL0     H14446   2.529   6.942   7.599  0.0448  1.2770 -1.9133
  848MOL0     H14447   2.504   7.039   7.744 -3.0776  2.0230 -0.5299
  848MOL0     H14448   2.481   6.801   7.809 -1.5412  0.0369 -0.1597
  848MOL0     H14449   2.317   6.869   7.812 -0.6620 -0.6799  2.0300
  848MOL0     H14450   2.444   6.701   7.594 -0.4933 -0.3133  0.7509
  848MOL0     H14451   2.277   6.767   7.597 -0.1696 -0.9696  0.6324
  848MOL0     H14452   2.231   6.553   7.649  1.1533  0.3200 -0.6211
  848MOL0     H14453   2.231   6.648   7.797  2.3755  0.5489  0.5826
  848MOL0     H14454   2.445   6.450   7.697  1.5297 -1.8783  2.4899
  848MOL0     H14455   2.460   6.558   7.849 -0.1215 -2.5431  1.7834
  848MOL0     H14456   2.233   6.375   7.822 -1.5801  2.1786  0.6736
  848MOL0     H14457   2.335   6.429   7.956  1.7835 -0.1256 -0.9463
  848MOL0     H14458   2.376   6.190   7.942  0.9435  0.7250  0.1279
  848MOL0     H14459   2.433   6.208   7.775 -0.9338 -1.2866  0.1009
  848MOL0     H14460   2.136   7.190   7.918  2.4555 -0.4737 -0.0452
  848MOL0     H14461   1.997   7.388   7.916  0.1766 -2.9026  1.2227
  848MOL0     H14462   1.621   7.562   7.696 -1.6676 -1.4186  2.4367
  848MOL0     H14463   1.450   7.692   7.828  0.3140 -1.9026  2.3954
  848MOL0     H14464   0.525   9.046   8.345 -2.9677 -1.3595 -0.0553
  848MOL0     H14465   0.488   9.292   8.401 -2.9682  1.1502 -0.7146
  848MOL0     H14466   0.421   9.652   8.576  1.9688 -1.8059  0.0174
  848MOL0     H14467   0.407   9.901   8.640  1.3862  1.6902 -0.4463
  848MOL0     H14468   0.381  10.107   8.768 -0.0599 -0.9432  0.5472
  848MOL0     H14469   0.509  10.103   8.644  0.9880 -0.3109 -0.0636
  848MOL0     H14470   0.508  10.323   8.717  0.1295  1.1473  1.3884
  848MOL0     H14471   0.659  10.255   8.779  0.4605 -2.3699  1.8611
  848MOL0     H14472   0.535  10.206   9.008 -0.6668  1.8337  3.5185
  848MOL0     H14473   0.397  10.297   8.942 -0.5046  1.1118 -1.4480
  848MOL0     H14474   0.529  10.489   8.924  0.8929  0.0479 -0.5252
  848MOL0     H14475   0.558  10.416   9.094  1.8971  0.4668  1.5944
  848MOL0     H14476   0.946  10.378   8.942  0.1242 -1.9015  0.4707
  848MOL0     H14477   0.680   9.836   8.946 -1.0666  2.2542  0.3349
  848MOL0     H14478   0.787   9.652   8.998 -2.3151 -1.8208  3.2245
  848MOL0     H14479   0.723   9.502   8.970  1.3056 -0.2795 -0.2550
  848MOL0     H14480   0.837   9.557   8.852 -0.0339 -0.6686 -0.3422
  849MOL0     O14481   5.068   7.932   7.066 -0.4941  0.6817  0.5633
  849MOL0     C14482   5.075   7.806   7.071 -0.3659 -1.0416 -0.3739
  849MOL0     O14483   5.138   7.731   6.976  0.6518  0.2208 -0.2312
  849MOL0     C14484   5.087   7.747   6.853  0.5775  0.4416  0.0035
  849MOL0     C14485   4.950   7.765   6.824  0.3014  0.9652  0.3808
  849MOL0     C14486   4.921   7.784   6.686  0.8703  0.2005 -0.3666
  849MOL0     C14487   5.009   7.770   6.587 -0.4234  0.2056  0.6690
  849MOL0     O14488   4.974   7.808   6.464  0.3782  0.2698  0.1297
  849MOL0     C14489   4.847   7.879   6.428  0.0003  0.1748  0.9348
  849MOL0     C14490   4.845   7.911   6.277  0.3288  0.1468 -0.3632
  849MOL0     C14491   4.975   7.964   6.202 -0.6203 -0.3595  0.8014
  849MOL0     C14492   5.028   8.093   6.264 -1.0342 -0.5884  1.0063
  849MOL0     C14493   4.939   8.221   6.250 -0.4421  0.3369 -1.2776
  849MOL0     C14494   4.835   8.233   6.358  0.7125  0.9193 -0.7308
  849MOL0     C14495   4.721   8.341   6.344  0.1237  0.5698 -0.8151
  849MOL0     C14496   4.687   8.402   6.474 -0.6770 -0.3310  0.2875
  849MOL0     N14497   4.556   8.467   6.488  0.7562  0.3698 -0.0724
  849MOL0     C14498   4.457   8.385   6.535 -0.4057 -0.4070 -0.7414
  849MOL0     C14499   4.350   8.473   6.519  0.8468  0.1778 -0.9893
  849MOL0     C14500   4.213   8.446   6.560 -0.5236 -1.0540  1.1308
  849MOL0     C14501   4.183   8.439   6.711 -0.0526 -0.1603  0.3448
  849MOL0     C14502   4.028   8.445   6.736 -0.8799 -0.5180  0.3187
  849MOL0     C14503   3.951   8.342   6.665  0.6463 -0.1028  0.2532
  849MOL0     O14504   4.023   8.219   6.667  0.1993  1.1345 -0.9773
  849MOL0     C14505   3.969   8.130   6.581  0.6285  0.3977  0.4237
  849MOL0     C14506   4.006   8.124   6.458  0.1267  0.5642  0.8391
  849MOL0     C14507   3.973   8.011   6.374 -0.0551  0.4866  0.6828
  849MOL0     C14508   3.886   7.902   6.420  0.0289 -1.0081 -0.1103
  849MOL0     C14509   3.842   7.786   6.344 -0.4708  0.1488  0.2796
  849MOL0     O14510   3.771   7.685   6.407  0.0051 -0.3507  0.5309
  849MOL0     C14511   3.725   7.578   6.341  0.5558  0.7948  0.4668
  849MOL0     C14512   3.682   7.577   6.203 -0.1866  0.5886  0.0059
  849MOL0     C14513   3.637   7.455   6.137 -0.6385 -0.2125  0.4636
  849MOL0     C14514   3.621   7.335   6.212  0.1577  0.3758  0.0296
  849MOL0     O14515   3.584   7.210   6.163  0.8689 -0.7312 -0.3251
  849MOL0     C14516   3.527   7.196   6.029 -0.5601 -0.6319  1.3698
  849MOL0     C14517   3.500   7.049   6.008  0.3840 -0.4877  0.5484
  849MOL0     C14518   3.591   6.944   6.077  0.6381  0.4701 -0.2123
  849MOL0     C14519   3.546   6.902   6.211 -0.7942  0.1111 -0.0008
  849MOL0     C14520   3.595   6.765   6.233 -0.0329  1.1133 -1.0037
  849MOL0     C14521   3.583   6.714   6.378  0.3613 -0.0228 -0.6014
  849MOL0     C14522   3.436   6.663   6.398  0.8864 -0.4944  0.4432
  849MOL0     C14523   3.419   6.608   6.540  0.8120  0.3748  0.0976
  849MOL0    Cl14524   3.485   6.458   6.537  1.1078 -0.2335 -0.0034
  849MOL0     C14525   3.666   7.339   6.338 -0.3969 -0.1592  0.3059
  849MOL0     C14526   3.711   7.456   6.410 -0.1480 -0.0885  0.1666
  849MOL0     O14527   3.865   7.794   6.228  0.2867  0.1184 -0.4256
  849MOL0     C14528   3.837   7.921   6.556 -0.3731  0.4451  0.0250
  849MOL0     C14529   3.879   8.038   6.629 -0.2787  0.3608  0.2223
  849MOL0     N14530   4.393   8.594   6.462  0.1538  0.4728  0.3084
  849MOL0     N14531   4.525   8.589   6.440 -0.9314 -0.3442  1.3180
  849MOL0     C14532   5.143   7.729   6.619  0.0980 -0.9676  0.3450
  849MOL0     C14533   5.181   7.719   6.756  0.0643  1.1802 -1.0159
  849MOL0     C14534   5.066   7.765   7.201 -1.1335 -0.5970 -0.5703
  849MOL0     C14535   5.159   7.674   7.256  0.9988 -0.6222  0.0649
  849MOL0     C14536   5.151   7.645   7.390  0.5050 -0.6872  0.0430
  849MOL0     C14537   5.045   7.694   7.475 -0.0570 -0.5872  0.2751
  849MOL0     O14538   5.042   7.648   7.605 -0.0968 -0.1724  0.0361
  849MOL0     C14539   4.954   7.722   7.696  0.2451  0.7994 -0.1966
  849MOL0     C14540   5.004   7.693   7.836  0.7034 -0.2735 -0.2394
  849MOL0     C14541   4.899   7.690   7.951  0.7438  0.0797 -0.1655
  849MOL0     C14542   4.805   7.568   7.958  0.9611 -0.3853 -0.1278
  849MOL0     C14543   4.860   7.435   7.968  0.1691 -0.8895 -0.8343
  849MOL0     C14544   4.896   7.325   7.987  0.7732  0.6704 -0.1971
  849MOL0     C14545   4.939   7.769   7.413 -0.2711  1.1103 -0.5037
  849MOL0     C14546   4.946   7.796   7.277 -0.6308 -0.0781 -1.0197
  849MOL0     C14547   4.824   7.859   7.229  1.0994 -1.0619 -0.0409
  849MOL0     H14548   4.877   7.781   6.903  0.7704 -2.5399  1.6934
  849MOL0     H14549   4.815   7.797   6.674 -0.1787 -3.7490  2.3518
  849MOL0     H14550   4.759   7.822   6.457 -0.1351  0.2120  0.6044
  849MOL0     H14551   4.851   7.970   6.489  2.2717 -0.7223  2.2334
  849MOL0     H14552   4.757   7.973   6.258  0.1813  0.4453  1.1547
  849MOL0     H14553   4.818   7.819   6.224  0.5219 -0.3562  0.4032
  849MOL0     H14554   4.941   7.995   6.103 -1.1531  1.7106  1.5708
  849MOL0     H14555   5.047   7.883   6.191 -0.3852  0.1309 -1.9016
  849MOL0     H14556   5.045   8.069   6.369 -2.3293  1.7249  1.8248
  849MOL0     H14557   5.116   8.123   6.207 -0.6279 -2.2377  0.7170
  849MOL0     H14558   5.014   8.301   6.249  0.5588 -0.5217  0.6782
  849MOL0     H14559   4.890   8.219   6.152  0.6871 -0.9028 -1.8385
  849MOL0     H14560   4.776   8.143   6.380  1.0148  0.8057 -0.3578
  849MOL0     H14561   4.894   8.261   6.446 -0.0829  2.5482 -0.6812
  849MOL0     H14562   4.628   8.291   6.313  0.9998 -3.2978  2.0373
  849MOL0     H14563   4.753   8.415   6.270  1.4907 -0.0814 -0.9053
  849MOL0     H14564   4.697   8.320   6.546 -3.6249 -0.2133  0.9520
  849MOL0     H14565   4.763   8.478   6.495  0.0906 -0.7295 -0.9051
  849MOL0     H14566   4.482   8.287   6.574  2.5729  0.4556 -0.2490
  849MOL0     H14567   4.148   8.520   6.512 -1.0106 -0.6447  2.3671
  849MOL0     H14568   4.189   8.354   6.505  0.4323 -0.4620 -0.3304
  849MOL0     H14569   4.230   8.351   6.756  3.0669  1.1501 -0.0798
  849MOL0     H14570   4.242   8.518   6.759  1.8737 -0.7120 -0.9970
  849MOL0     H14571   3.985   8.536   6.694 -0.3746  1.4402  3.6583
  849MOL0     H14572   4.004   8.435   6.842  2.0062  1.9311  1.3571
  849MOL0     H14573   3.931   8.372   6.562 -0.4606 -2.8863 -0.4591
  849MOL0     H14574   3.864   8.329   6.730 -0.3160 -0.4318 -1.0566
  849MOL0     H14575   4.066   8.200   6.409  0.9342  0.9610  2.3655
  849MOL0     H14576   4.016   7.998   6.276 -2.2291  1.2734 -0.4323
  849MOL0     H14577   3.698   7.660   6.135  1.3035 -0.1410 -0.5806
  849MOL0     H14578   3.609   7.455   6.032 -0.2109  1.7563  0.3240
  849MOL0     H14579   3.424   7.230   6.024 -2.8117 -6.2228 -4.9635
  849MOL0     H14580   3.596   7.245   5.960 -1.7806  2.1806  2.0351
  849MOL0     H14581   3.399   7.025   6.041  1.8174  0.5587  7.0918
  849MOL0     H14582   3.513   7.031   5.901  0.8788  0.1812  0.4815
  849MOL0     H14583   3.607   6.858   6.011 -6.7240  1.3227 -4.1350
  849MOL0     H14584   3.689   6.993   6.078  0.3522  1.0419  0.2314
  849MOL0     H14585   3.437   6.894   6.219 -0.8057 -0.1725 -0.4268
  849MOL0     H14586   3.596   6.961   6.288  0.6546 -1.7802  0.5889
  849MOL0     H14587   3.699   6.763   6.200 -0.7402 -1.0348 -3.3953
  849MOL0     H14588   3.539   6.703   6.163 -2.4641 -0.0562  1.7475
  849MOL0     H14589   3.650   6.629   6.399 -1.3689 -1.4029 -0.4723
  849MOL0     H14590   3.608   6.795   6.447  2.0289 -1.7469  0.9552
  849MOL0     H14591   3.399   6.599   6.317  0.3987  1.1803 -0.7207
  849MOL0     H14592   3.371   6.750   6.385  1.2538 -0.5479 -2.5557
  849MOL0     H14593   3.488   6.664   6.604  0.4846  0.4367  0.4032
  849MOL0     H14594   3.317   6.601   6.579  1.8780 -1.3094  2.9083
  849MOL0     H14595   3.651   7.249   6.396  0.6336  0.1155  1.0319
  849MOL0     H14596   3.754   7.450   6.509  0.1233  0.3336  0.0777
  849MOL0     H14597   3.770   7.852   6.607  0.3087 -4.1466 -4.4353
  849MOL0     H14598   3.838   8.045   6.729 -0.3574  1.5776  0.1180
  849MOL0     H14599   5.223   7.717   6.547  0.4275 -1.3097  0.7612
  849MOL0     H14600   5.286   7.708   6.780 -0.5269  1.2069  1.9626
  849MOL0     H14601   5.228   7.618   7.193 -1.8638 -3.8338 -0.4958
  849MOL0     H14602   5.223   7.574   7.428  2.0264  0.8119  0.0536
  849MOL0     H14603   4.853   7.682   7.707  1.6479 -2.6235  1.6699
  849MOL0     H14604   4.955   7.827   7.666 -1.0811  0.1242 -3.0124
  849MOL0     H14605   5.076   7.773   7.851 -1.9323  2.0315  1.0547
  849MOL0     H14606   5.052   7.595   7.839  0.1245 -0.5419  1.9284
  849MOL0     H14607   4.841   7.782   7.954  0.9512  0.2110 -0.1342
  849MOL0     H14608   4.951   7.702   8.046  1.7921  0.6687 -0.7880
  849MOL0     H14609   4.747   7.578   8.051  0.5058  2.9517 -0.6489
  849MOL0     H14610   4.725   7.569   7.883 -0.6566 -0.8830  1.5105
  849MOL0     H14611   4.945   7.234   8.013  1.5117  1.4315  1.1853
  849MOL0     H14612   4.849   7.806   7.460  0.0909 -0.0930  1.2449
  849MOL0     H14613   4.857   7.961   7.203  1.8545 -0.8711  1.5099
  849MOL0     H14614   4.788   7.810   7.138  0.6510  0.9008 -0.9845
  849MOL0     H14615   4.738   7.871   7.294  0.8994  2.3915 -0.7183
  850MOL0     O14616   7.613   9.594   1.595 -0.8120  0.6625  0.1584
  850MOL0     C14617   7.659   9.499   1.535  0.9199 -0.3804 -0.0454
  850MOL0     O14618   7.621   9.366   1.553 -0.1509  0.4621  0.7683
  850MOL0     C14619   7.568   9.345   1.678  0.8460 -0.0699 -0.4267
  850MOL0     C14620   7.633   9.393   1.801  0.2782  0.1693 -0.4929
  850MOL0     C14621   7.561   9.379   1.923  0.9212 -0.3173  0.0844
  850MOL0     C14622   7.427   9.330   1.930 -0.2882 -1.0700 -0.4540
  850MOL0     O14623   7.371   9.308   2.054  0.1075  0.8290  0.6019
  850MOL0     C14624   7.227   9.298   2.069  0.4866  0.8440  0.1329
  850MOL0     C14625   7.162   9.429   2.024  0.1393 -0.3888 -0.4455
  850MOL0     C14626   7.015   9.449   2.030 -0.0431 -0.0235 -0.0308
  850MOL0     C14627   6.957   9.447   2.177  0.1747 -0.6373 -0.4459
  850MOL0     C14628   6.810   9.447   2.174 -0.3049  1.1461  0.9171
  850MOL0     C14629   6.766   9.591   2.198  0.5232 -0.2152  0.6060
  850MOL0     C14630   6.607   9.610   2.180 -0.0481 -0.2241  1.2423
  850MOL0     C14631   6.558   9.735   2.097 -0.5298 -0.1179  0.2725
  850MOL0     N14632   6.571   9.865   2.166 -0.0305  0.5825 -0.0424
  850MOL0     C14633   6.508   9.890   2.285 -0.2218  0.1260 -0.4930
  850MOL0     C14634   6.560  10.006   2.332 -0.3168  0.4398  0.0647
  850MOL0     C14635   6.534  10.080   2.461 -0.2586 -0.3667 -0.5313
  850MOL0     C14636   6.653  10.141   2.536  0.0124  0.9663  0.4975
  850MOL0     C14637   6.611  10.271   2.624 -0.0451 -1.2365  0.5572
  850MOL0     C14638   6.539  10.231   2.757  0.6343  0.3686  0.1806
  850MOL0     O14639   6.413  10.169   2.723 -0.7545  0.2094  0.1224
  850MOL0     C14640   6.329  10.248   2.652  0.4424 -0.3515 -0.5338
  850MOL0     C14641   6.227  10.189   2.575 -0.1272 -0.2934 -0.5173
  850MOL0     C14642   6.148  10.269   2.495 -0.5680  0.0253  0.5152
  850MOL0     C14643   6.161  10.412   2.488 -0.4006  0.6206 -0.3177
  850MOL0     C14644   6.089  10.490   2.397  0.5096  0.3687 -0.5901
  850MOL0     O14645   6.164  10.602   2.353  0.5543  0.2662  0.0737
  850MOL0     C14646   6.128  10.678   2.253  0.3993 -0.0632  0.2402
  850MOL0     C14647   6.157  10.819   2.269  1.2846  0.1340 -0.2531
  850MOL0     C14648   6.143  10.895   2.150  0.4587 -0.5085 -0.6209
  850MOL0     C14649   6.081  10.847   2.035 -0.5901  0.5171  0.7820
  850MOL0     O14650   6.088  10.901   1.914 -0.4420 -0.0226  0.2789
  850MOL0     C14651   5.962  10.944   1.857  0.1736 -0.1209  0.3303
  850MOL0     C14652   5.981  11.095   1.826 -0.3883 -0.0166 -0.3377
  850MOL0     C14653   6.071  11.127   1.704  0.2716  0.2130  0.0436
  850MOL0     C14654   6.219  11.132   1.753 -0.9601 -0.2990  0.8990
  850MOL0     C14655   6.305  11.199   1.643 -0.6252 -1.4938  0.4090
  850MOL0     C14656   6.311  11.119   1.517  0.2346 -0.1935 -0.5523
  850MOL0     C14657   6.417  11.170   1.408  0.0943 -0.0126  0.3370
  850MOL0     C14658   6.555  11.113   1.445 -0.1671 -0.5319 -0.2658
  850MOL0    Cl14659   6.665  11.183   1.328 -0.4143 -0.0833 -0.2191
  850MOL0     C14660   6.040  10.713   2.024  0.0228  0.8789 -0.3833
  850MOL0     C14661   6.071  10.632   2.135  0.6642 -0.0216  0.9525
  850MOL0     O14662   5.974  10.466   2.366  0.0120 -1.3618 -0.0467
  850MOL0     C14663   6.244  10.470   2.582 -0.3998  0.8240  0.6121
  850MOL0     C14664   6.317  10.389   2.661  0.1155 -1.0012 -0.9363
  850MOL0     N14665   6.656  10.053   2.238 -0.2151 -0.1389 -0.0011
  850MOL0     N14666   6.672   9.959   2.149 -0.1810 -0.3806  0.0214
  850MOL0     C14667   7.365   9.278   1.808 -0.0671  0.2888 -0.1733
  850MOL0     C14668   7.441   9.288   1.687  0.6469  1.2913  0.8253
  850MOL0     C14669   7.770   9.524   1.435 -0.4519 -1.0888  0.0711
  850MOL0     C14670   7.797   9.410   1.350 -1.0662 -1.4052 -0.0313
  850MOL0     C14671   7.895   9.426   1.251 -0.8226 -0.3834 -0.6096
  850MOL0     C14672   7.967   9.548   1.236 -0.5148  0.5463  0.4805
  850MOL0     O14673   8.048   9.554   1.122 -0.1219  0.2065 -0.8082
  850MOL0     C14674   8.070   9.675   1.060  0.2710 -0.0376 -0.2013
  850MOL0     C14675   8.106   9.649   0.912 -1.5756 -0.4166  0.3006
  850MOL0     C14676   7.999   9.585   0.829  0.4370  0.1307  0.3272
  850MOL0     C14677   7.868   9.660   0.807 -1.0276 -0.6414 -0.1577
  850MOL0     C14678   7.776   9.625   0.920  0.4913 -0.4613  0.3646
  850MOL0     C14679   7.697   9.592   1.006  0.8435  0.7395  0.7284
  850MOL0     C14680   7.952   9.650   1.322  0.4972  1.0175 -0.3979
  850MOL0     C14681   7.842   9.643   1.419 -0.3043 -0.0238  0.2905
  850MOL0     C14682   7.831   9.759   1.518 -0.9024 -1.0978  0.1565
  850MOL0     H14683   7.733   9.430   1.817  1.1848 -2.3090 -0.0065
  850MOL0     H14684   7.600   9.421   2.015 -0.4189  3.1526 -0.7722
  850MOL0     H14685   7.175   9.222   2.010  2.5566  2.2814 -3.8939
  850MOL0     H14686   7.209   9.273   2.174  0.9547 -3.7293 -0.6804
  850MOL0     H14687   7.189   9.426   1.918  0.9198  1.0825 -0.3160
  850MOL0     H14688   7.202   9.521   2.068 -0.4132 -1.5806  2.8441
  850MOL0     H14689   6.972   9.373   1.964 -0.1403  2.1938 -2.6622
  850MOL0     H14690   6.984   9.545   1.990 -1.8037 -1.7548 -3.2338
  850MOL0     H14691   7.005   9.361   2.226 -0.9278 -0.1979  1.5114
  850MOL0     H14692   7.002   9.533   2.227 -1.9216 -0.2434  0.8699
  850MOL0     H14693   6.781   9.410   2.075  3.5816 -2.4523  0.8709
  850MOL0     H14694   6.766   9.383   2.251  1.5907 -5.8089 -2.9101
  850MOL0     H14695   6.804   9.618   2.297  0.2744 -0.9548  0.9035
  850MOL0     H14696   6.812   9.660   2.125  0.6608  1.1478  1.9254
  850MOL0     H14697   6.574   9.619   2.284 -3.6242  0.6626  0.1657
  850MOL0     H14698   6.575   9.516   2.134  2.0573 -0.4281  0.1006
  850MOL0     H14699   6.609   9.736   2.001 -0.2322  0.3018  0.4331
  850MOL0     H14700   6.451   9.716   2.081 -1.1272  1.9978  1.3112
  850MOL0     H14701   6.442   9.819   2.334  0.9090  0.3653  1.4707
  850MOL0     H14702   6.464  10.160   2.436  0.7626  0.4577 -0.8562
  850MOL0     H14703   6.492  10.012   2.536  5.1477 -2.2831  1.2938
  850MOL0     H14704   6.712  10.070   2.594  1.7007  3.6165  2.2450
  850MOL0     H14705   6.735  10.168   2.468  1.2512 -1.2958  1.0051
  850MOL0     H14706   6.546  10.339   2.568 -1.0361 -1.1803  1.7362
  850MOL0     H14707   6.697  10.338   2.640 -1.8174  1.6286 -0.9912
  850MOL0     H14708   6.517  10.317   2.821 -0.3440 -0.6102  1.1905
  850MOL0     H14709   6.609  10.173   2.817 -3.1209 -1.4555  3.2134
  850MOL0     H14710   6.225  10.080   2.573 -0.6764 -0.3199  0.5595
  850MOL0     H14711   6.068  10.227   2.435 -0.3793 -1.3944  1.2089
  850MOL0     H14712   6.189  10.859   2.365  0.9254  1.9185 -0.8518
  850MOL0     H14713   6.178  10.997   2.164 -3.0551  0.8454 -0.5888
  850MOL0     H14714   5.946  10.896   1.760  2.6518 -2.5444  0.9939
  850MOL0     H14715   5.881  10.911   1.923  0.0135 -2.8202 -1.0791
  850MOL0     H14716   5.885  11.137   1.795 -0.1536  2.4263  1.8566
  850MOL0     H14717   6.001  11.143   1.922 -0.0641  1.2628 -1.0189
  850MOL0     H14718   6.050  11.069   1.614 -0.5888  2.1464 -1.0591
  850MOL0     H14719   6.045  11.231   1.684 -0.0109  0.2908  0.7849
  850MOL0     H14720   6.262  11.032   1.762  3.1116  0.9777 -1.6419
  850MOL0     H14721   6.228  11.188   1.846 -0.3772 -0.0354  0.6859
  850MOL0     H14722   6.404  11.198   1.690 -0.3258  2.1913  0.1831
  850MOL0     H14723   6.287  11.304   1.620  0.4620 -0.6839  2.8915
  850MOL0     H14724   6.339  11.020   1.553  3.0170  0.9701  0.8570
  850MOL0     H14725   6.209  11.119   1.478  1.1134 -0.6700 -2.9978
  850MOL0     H14726   6.422  11.279   1.397  0.1455 -0.2624 -3.4311
  850MOL0     H14727   6.391  11.134   1.308  0.6494 -1.4855  0.7005
  850MOL0     H14728   6.581  11.128   1.551 -2.7663 -2.3916  0.7281
  850MOL0     H14729   6.556  11.004   1.444  2.4432 -1.0703  6.1657
  850MOL0     H14730   6.005  10.658   1.937 -1.6901 -2.0863  1.9918
  850MOL0     H14731   6.051  10.526   2.127  2.3574 -0.2421 -3.5723
  850MOL0     H14732   6.256  10.578   2.585  0.2193  0.8272 -1.0601
  850MOL0     H14733   6.382  10.455   2.718 -1.4347  1.1610 -1.5234
  850MOL0     H14734   7.275   9.219   1.822 -0.2195  0.9513  1.8643
  850MOL0     H14735   7.387   9.246   1.603 -1.2241  3.3032  0.9061
  850MOL0     H14736   7.753   9.311   1.358 -1.7454 -1.2298 -1.3895
  850MOL0     H14737   7.903   9.342   1.182  0.6258 -2.5629  2.0428
  850MOL0     H14738   8.155   9.717   1.114 -0.6104 -1.9288  2.8518
  850MOL0     H14739   7.987   9.747   1.061 -1.0149 -1.4182 -1.5770
  850MOL0     H14740   8.186   9.576   0.903 -0.1991  1.0822 -0.0273
  850MOL0     H14741   8.137   9.742   0.864  0.2542 -0.6737  0.9022
  850MOL0     H14742   7.980   9.487   0.873  0.5701 -1.1130 -2.1601
  850MOL0     H14743   8.048   9.573   0.732  0.9631  0.4410  0.5513
  850MOL0     H14744   7.888   9.767   0.809  1.9063 -1.1177  0.8053
  850MOL0     H14745   7.822   9.623   0.715 -0.3258 -2.1103  0.0508
  850MOL0     H14746   7.633   9.555   1.083 -0.3937 -1.3434 -1.1687
  850MOL0     H14747   7.998   9.746   1.300 -3.2227  2.5521 -2.4042
  850MOL0     H14748   7.811   9.733   1.622  3.4069  0.4991  1.6215
  850MOL0     H14749   7.921   9.821   1.526 -2.1476  1.2574 -2.3864
  850MOL0     H14750   7.743   9.816   1.491 -1.3005 -0.4838  2.5094
  851MOL0     O14751   0.961   6.908   2.157 -0.2269  1.0128 -0.2958
  851MOL0     C14752   1.013   6.847   2.254 -0.0635  0.3921  0.2411
  851MOL0     O14753   0.966   6.739   2.321  0.2436 -0.0984  0.0476
  851MOL0     C14754   0.831   6.713   2.326  1.4997  0.0511  0.1304
  851MOL0     C14755   0.722   6.799   2.295  0.2529  0.7367 -0.1092
  851MOL0     C14756   0.582   6.756   2.301 -0.2245  0.2016  0.0485
  851MOL0     C14757   0.556   6.629   2.329 -0.2881 -0.5430 -0.6264
  851MOL0     O14758   0.432   6.576   2.325  0.2651 -0.2870 -0.4941
  851MOL0     C14759   0.353   6.590   2.202  0.1908 -0.3477 -0.0890
  851MOL0     C14760   0.228   6.491   2.184  0.4477  0.2838  0.0968
  851MOL0     C14761   0.264   6.350   2.255  0.2044 -0.0609  0.5565
  851MOL0     C14762   0.156   6.246   2.227  0.2411  0.1795  0.9162
  851MOL0     C14763   0.195   6.112   2.296 -1.0482  0.3201 -0.0122
  851MOL0     C14764   0.176   6.117   2.444  0.0826  0.5711 -0.5018
  851MOL0     C14765   0.184   5.977   2.502  0.6636 -0.6938  0.6714
  851MOL0     C14766   0.333   5.938   2.517  0.3924 -0.2348  0.2325
  851MOL0     N14767   0.407   6.016   2.620  0.2086  0.6595  0.9496
  851MOL0     C14768   0.527   6.074   2.594 -0.1311  0.2294  0.1600
  851MOL0     C14769   0.526   6.189   2.663 -0.2742  0.2242  0.6572
  851MOL0     C14770   0.627   6.293   2.666 -0.6311  0.4553  0.3095
  851MOL0     C14771   0.722   6.277   2.792  1.0916  0.0479 -0.4287
  851MOL0     C14772   0.816   6.400   2.788  0.8559 -0.4871 -0.6223
  851MOL0     C14773   0.884   6.418   2.924 -0.1962  0.6122 -0.8983
  851MOL0     O14774   0.970   6.525   2.920  0.0281  0.1877 -0.6083
  851MOL0     C14775   1.064   6.539   3.025  0.5276  0.3221 -0.1423
  851MOL0     C14776   1.137   6.656   3.027 -0.3489 -0.8704  0.5987
  851MOL0     C14777   1.236   6.685   3.122 -1.5332 -0.5137 -0.5234
  851MOL0     C14778   1.280   6.580   3.209 -0.1816 -0.3922  0.5225
  851MOL0     C14779   1.375   6.596   3.308  0.1091 -0.2728  0.6588
  851MOL0     O14780   1.471   6.685   3.273 -0.4645 -0.2329 -0.3810
  851MOL0     C14781   1.518   6.757   3.374  0.4959 -0.2009 -0.9024
  851MOL0     C14782   1.652   6.747   3.399 -0.2569 -0.3134 -0.2808
  851MOL0     C14783   1.703   6.812   3.512  0.4500  0.7598  0.4881
  851MOL0     C14784   1.617   6.898   3.587 -0.4581 -0.2573  0.6399
  851MOL0     O14785   1.658   6.983   3.685  0.1265  0.0289 -0.2376
  851MOL0     C14786   1.791   7.042   3.674 -0.6902 -0.2206  0.1357
  851MOL0     C14787   1.822   7.148   3.781  0.6731  0.6142  1.2996
  851MOL0     C14788   1.732   7.269   3.758 -0.1460  0.9668  0.5635
  851MOL0     C14789   1.741   7.383   3.866 -0.5949  0.2251  0.5657
  851MOL0     C14790   1.642   7.340   3.976  0.5151  0.0044  0.4710
  851MOL0     C14791   1.665   7.420   4.108 -0.2950  0.0935 -0.2708
  851MOL0     C14792   1.620   7.562   4.083  0.0385  0.5616  1.1365
  851MOL0     C14793   1.594   7.633   4.214  0.4396 -0.9435 -0.2133
  851MOL0    Cl14794   1.711   7.768   4.243  0.3024  0.0006  0.1982
  851MOL0     C14795   1.485   6.903   3.561  0.4192  0.3076  0.0399
  851MOL0     C14796   1.428   6.851   3.446  0.2879  0.1878 -1.1789
  851MOL0     O14797   1.348   6.558   3.423 -0.7950  0.1066  0.4252
  851MOL0     C14798   1.220   6.457   3.194  0.3566 -0.3637  0.2874
  851MOL0     C14799   1.112   6.436   3.116  0.5867  0.5913  0.1886
  851MOL0     N14800   0.418   6.188   2.750 -0.9802 -0.0580 -0.5595
  851MOL0     N14801   0.344   6.079   2.722  0.2609 -0.2039  0.0205
  851MOL0     C14802   0.664   6.543   2.358 -1.0296 -0.1927  0.7530
  851MOL0     C14803   0.801   6.579   2.355 -0.5628 -0.1797 -0.0943
  851MOL0     C14804   1.143   6.900   2.283 -0.4674  0.4337  0.4921
  851MOL0     C14805   1.151   7.023   2.348 -0.2842 -0.9471 -0.2970
  851MOL0     C14806   1.274   7.083   2.391  0.2764 -0.0465  0.0808
  851MOL0     C14807   1.397   7.017   2.360  0.2399 -0.4800 -0.3392
  851MOL0     O14808   1.528   7.061   2.390 -0.2612 -0.0888  0.7283
  851MOL0     C14809   1.534   7.190   2.443 -0.4186 -0.3517  0.6631
  851MOL0     C14810   1.675   7.238   2.428 -0.1767 -0.3259  0.0057
  851MOL0     C14811   1.716   7.313   2.302  0.6037 -0.5766 -0.6534
  851MOL0     C14812   1.702   7.226   2.175 -0.0169  0.8468 -0.6040
  851MOL0     C14813   1.812   7.137   2.168  0.1188 -0.0688 -0.3066
  851MOL0     C14814   1.891   7.047   2.149  0.7777 -0.4402 -1.1090
  851MOL0     C14815   1.387   6.892   2.300 -0.0785 -0.6108  0.0214
  851MOL0     C14816   1.259   6.834   2.259 -1.1298  0.1707  0.9415
  851MOL0     C14817   1.268   6.700   2.192 -0.5123 -0.6785 -0.2536
  851MOL0     H14818   0.727   6.905   2.273  0.6554  0.4267 -1.6730
  851MOL0     H14819   0.510   6.827   2.262 -0.3665  0.0361  0.0070
  851MOL0     H14820   0.308   6.690   2.208  2.0036  0.5244 -0.5175
  851MOL0     H14821   0.420   6.596   2.115  0.1750  2.5401 -0.0047
  851MOL0     H14822   0.212   6.477   2.076  0.1755  2.9517 -0.2643
  851MOL0     H14823   0.145   6.538   2.235 -0.6741 -2.1516  0.6707
  851MOL0     H14824   0.279   6.372   2.361 -0.8858  3.4999  0.1196
  851MOL0     H14825   0.353   6.315   2.201 -0.2826 -2.3995  1.1975
  851MOL0     H14826   0.059   6.290   2.249 -0.7440  1.2839 -4.2775
  851MOL0     H14827   0.144   6.222   2.121  2.7954 -0.8425  0.7718
  851MOL0     H14828   0.137   6.032   2.250 -3.1744  2.1004 -0.6154
  851MOL0     H14829   0.302   6.099   2.278 -1.2044  0.7750 -1.3310
  851MOL0     H14830   0.250   6.183   2.490 -2.8256  1.4442  3.5338
  851MOL0     H14831   0.080   6.163   2.470 -1.4101 -1.3984 -2.1638
  851MOL0     H14832   0.146   5.906   2.429  0.7032 -0.3919  0.3553
  851MOL0     H14833   0.132   5.971   2.598 -0.9217 -1.5100 -0.1969
  851MOL0     H14834   0.333   5.831   2.538  3.9736 -1.2128 -3.6040
  851MOL0     H14835   0.390   5.944   2.424  3.0609  0.7580  1.8211
  851MOL0     H14836   0.597   6.042   2.517  2.0835  3.4462  0.6172
  851MOL0     H14837   0.681   6.284   2.572  0.5460 -0.1964  1.0287
  851MOL0     H14838   0.570   6.387   2.663 -2.2262 -0.4846 -0.2336
  851MOL0     H14839   0.653   6.270   2.875  0.7289  0.1191 -0.7226
  851MOL0     H14840   0.773   6.180   2.797 -1.7518 -1.4669  2.4015
  851MOL0     H14841   0.750   6.487   2.780  0.0691 -0.6612  2.5360
  851MOL0     H14842   0.884   6.402   2.702  0.5813  1.3941 -0.8321
  851MOL0     H14843   0.940   6.327   2.944  0.6871  1.2129 -0.5555
  851MOL0     H14844   0.806   6.435   2.999 -1.1585 -0.3019 -1.6647
  851MOL0     H14845   1.119   6.734   2.953  0.3026 -0.9544  0.3480
  851MOL0     H14846   1.279   6.785   3.129  0.9419 -1.5115 -0.4238
  851MOL0     H14847   1.725   6.686   3.346  0.5684 -0.2401  0.7482
  851MOL0     H14848   1.809   6.806   3.537  0.9491 -0.9314 -1.7231
  851MOL0     H14849   1.865   6.961   3.677 -0.1123  0.0981 -2.5632
  851MOL0     H14850   1.802   7.097   3.580  1.0411 -0.9669 -0.1499
  851MOL0     H14851   1.802   7.119   3.884 -1.7584 -1.8680  0.2495
  851MOL0     H14852   1.928   7.174   3.780  0.1292  3.1901  0.2049
  851MOL0     H14853   1.751   7.307   3.657 -0.2503 -1.0538 -0.2791
  851MOL0     H14854   1.626   7.244   3.760 -0.1842  1.1765  2.7565
  851MOL0     H14855   1.720   7.480   3.822 -1.2418  0.3187  1.0646
  851MOL0     H14856   1.844   7.383   3.905  0.2550  1.6853 -1.5485
  851MOL0     H14857   1.644   7.234   4.003 -1.9306 -0.2459 -0.0701
  851MOL0     H14858   1.542   7.353   3.933 -0.1751 -1.4044  1.5724
  851MOL0     H14859   1.605   7.373   4.186  2.5281 -0.2715  1.8468
  851MOL0     H14860   1.765   7.407   4.150 -1.8421 -2.2122  3.0840
  851MOL0     H14861   1.531   7.563   4.019  1.2564 -1.1907 -0.7250
  851MOL0     H14862   1.688   7.627   4.028 -2.1448  2.0413  0.0505
  851MOL0     H14863   1.493   7.675   4.212 -0.3949 -2.7584 -3.4671
  851MOL0     H14864   1.609   7.562   4.296  2.1066  1.5360  1.7775
  851MOL0     H14865   1.435   6.970   3.631  0.9561  0.3308  0.4039
  851MOL0     H14866   1.323   6.850   3.419 -0.7268 -2.2234  2.0731
  851MOL0     H14867   1.255   6.375   3.257  3.2353 -0.8353 -1.7621
  851MOL0     H14868   1.063   6.339   3.127 -0.6881  1.1422 -0.4370
  851MOL0     H14869   0.642   6.438   2.370  0.8894 -0.8342 -0.6693
  851MOL0     H14870   0.868   6.495   2.371 -2.2071 -1.4832  0.3190
  851MOL0     H14871   1.054   7.069   2.367 -0.1659 -0.4941 -0.7629
  851MOL0     H14872   1.276   7.181   2.437  2.0379  0.7487 -1.5521
  851MOL0     H14873   1.504   7.209   2.546 -0.0287  3.6073  0.2162
  851MOL0     H14874   1.461   7.251   2.389 -1.5966 -0.5629  1.9614
  851MOL0     H14875   1.742   7.154   2.449 -1.1504 -0.7046  1.7856
  851MOL0     H14876   1.684   7.313   2.507 -0.2585 -0.0378 -0.2561
  851MOL0     H14877   1.818   7.350   2.313  0.0898  1.1897 -1.4280
  851MOL0     H14878   1.646   7.397   2.293 -1.0695 -1.9652 -1.2359
  851MOL0     H14879   1.611   7.168   2.154  0.3570 -1.1799  2.6178
  851MOL0     H14880   1.724   7.306   2.104  3.1260  1.7239  1.2084
  851MOL0     H14881   1.970   6.976   2.140  1.6936  0.5439 -1.0283
  851MOL0     H14882   1.484   6.861   2.265 -1.1168 -0.2994 -3.5067
  851MOL0     H14883   1.216   6.622   2.247  1.6434 -1.2967  1.0146
  851MOL0     H14884   1.233   6.696   2.088  2.6307 -1.6509 -1.3883
  851MOL0     H14885   1.373   6.670   2.184 -0.3979 -0.0262 -1.6090
  852MOL0     O14886   8.613   4.072   0.763  0.1401 -0.6107 -0.5048
  852MOL0     C14887   8.696   3.996   0.815  1.3613  0.0909 -0.4005
  852MOL0     O14888   8.815   3.954   0.751  0.5672  0.1996 -0.4738
  852MOL0     C14889   8.839   4.031   0.639 -0.5594 -0.5316  0.0168
  852MOL0     C14890   8.907   4.154   0.651  0.0281  0.6418  0.6216
  852MOL0     C14891   8.911   4.238   0.538  0.5321 -0.0070 -0.5512
  852MOL0     C14892   8.860   4.197   0.412  0.9546  0.4356 -0.4677
  852MOL0     O14893   8.862   4.267   0.297  0.3576 -0.1437 -0.2626
  852MOL0     C14894   8.964   4.365   0.268  0.1451  0.7175 -0.8991
  852MOL0     C14895   8.974   4.373   0.118 -0.0991  0.8745 -0.3121
  852MOL0     C14896   8.837   4.438   0.070 -1.0424  0.1064  0.3312
  852MOL0     C14897   8.819   4.469  -0.084  0.6024 -0.7338 -0.2101
  852MOL0     C14898   8.914   4.580  -0.131  0.7607 -0.2601  0.7518
  852MOL0     C14899   8.888   4.713  -0.056  0.7803  0.5290  0.1104
  852MOL0     C14900   8.741   4.756  -0.066 -0.7892 -0.8772  0.4740
  852MOL0     C14901   8.698   4.770  -0.212  0.6242  0.7688  1.1070
  852MOL0     N14902   8.568   4.840  -0.217  0.6928  0.0267  0.3033
  852MOL0     C14903   8.551   4.971  -0.252  0.8405  0.3321  0.4449
  852MOL0     C14904   8.421   4.999  -0.214 -0.7534  0.0541 -0.4863
  852MOL0     C14905   8.362   5.131  -0.205 -0.8026  0.6872  0.3742
  852MOL0     C14906   8.313   5.168  -0.352  1.0782 -0.4150  0.1087
  852MOL0     C14907   8.229   5.295  -0.348  0.1429 -0.7764 -0.4668
  852MOL0     C14908   8.069   5.277  -0.331 -0.2459  0.3168  1.0496
  852MOL0     O14909   8.036   5.172  -0.230 -0.3956 -0.0220 -0.3422
  852MOL0     C14910   8.043   5.191  -0.095 -0.7588 -0.7808  0.9811
  852MOL0     C14911   8.035   5.316  -0.029 -0.6180 -0.0704  0.1947
  852MOL0     C14912   8.025   5.315   0.112  0.4398  0.6107 -0.3051
  852MOL0     C14913   8.018   5.204   0.199 -0.6434  0.0549  0.0954
  852MOL0     C14914   7.998   5.220   0.351  0.3587  1.1353  0.7366
  852MOL0     O14915   7.971   5.112   0.422  0.1510 -0.1275  0.0733
  852MOL0     C14916   7.928   5.119   0.552  0.4865 -0.3155  0.1354
  852MOL0     C14917   8.012   5.074   0.653 -0.6435 -0.3223 -0.9038
  852MOL0     C14918   7.971   5.080   0.794  0.1223 -0.1249  0.5258
  852MOL0     C14919   7.846   5.149   0.830  0.1723  0.5986  1.2086
  852MOL0     O14920   7.796   5.173   0.957 -0.1515 -0.1246 -0.6546
  852MOL0     C14921   7.884   5.129   1.065 -0.2336  0.1538 -0.2140
  852MOL0     C14922   7.846   5.199   1.194  0.2048  0.2288 -0.7577
  852MOL0     C14923   7.724   5.148   1.263  0.0727  0.7129  0.5050
  852MOL0     C14924   7.595   5.187   1.196  0.0397 -0.2042  0.3913
  852MOL0     C14925   7.550   5.330   1.220  0.8692  0.2311 -0.1530
  852MOL0     C14926   7.421   5.353   1.142 -0.5501 -1.0878  0.8102
  852MOL0     C14927   7.392   5.500   1.128 -0.7650 -0.2314  0.1552
  852MOL0     C14928   7.270   5.520   1.043 -0.0828 -0.4919 -0.3065
  852MOL0    Cl14929   7.222   5.689   1.021  0.0259 -0.2990  0.5049
  852MOL0     C14930   7.770   5.195   0.723  0.5449 -0.3372 -0.3743
  852MOL0     C14931   7.814   5.180   0.590  0.0307 -0.7501  0.4805
  852MOL0     O14932   8.032   5.329   0.389  0.7533  0.1721  0.0088
  852MOL0     C14933   8.042   5.087   0.125 -0.9665  0.1423 -0.5196
  852MOL0     C14934   8.053   5.081  -0.015  0.3285 -0.2912 -0.2187
  852MOL0     N14935   8.365   4.886  -0.148  0.3795  0.0733  0.0092
  852MOL0     N14936   8.456   4.792  -0.153 -0.3289  0.2312  0.2667
  852MOL0     C14937   8.807   4.064   0.397 -0.0577 -0.3066  0.1229
  852MOL0     C14938   8.793   3.984   0.516 -0.7741 -0.0107  0.7720
  852MOL0     C14939   8.644   3.933   0.949 -0.5130 -1.0324  1.2814
  852MOL0     C14940   8.716   3.829   1.004  0.8843 -0.5067 -1.2654
  852MOL0     C14941   8.677   3.764   1.130 -0.0587  0.2632  0.7654
  852MOL0     C14942   8.567   3.808   1.200 -0.1200 -0.3643  0.9547
  852MOL0     O14943   8.516   3.757   1.314 -1.0431 -0.5717 -1.0330
  852MOL0     C14944   8.579   3.636   1.368  0.3384 -0.2758 -0.0552
  852MOL0     C14945   8.472   3.563   1.446  0.1506  0.1079  0.7196
  852MOL0     C14946   8.425   3.622   1.583 -0.5517  0.6668  0.0412
  852MOL0     C14947   8.372   3.505   1.671 -0.7101 -0.1308  0.5262
  852MOL0     C14948   8.252   3.429   1.621  0.5497 -0.6064 -0.2020
  852MOL0     C14949   8.175   3.349   1.569  1.1626 -0.6339 -0.1710
  852MOL0     C14950   8.491   3.918   1.155 -0.5590 -0.1250  0.1692
  852MOL0     C14951   8.529   3.974   1.025 -0.8146  1.0685 -0.4459
  852MOL0     C14952   8.442   4.075   0.982  0.9097 -0.0599 -0.3654
  852MOL0     H14953   8.944   4.195   0.745  5.0716 -0.1470 -0.7565
  852MOL0     H14954   8.942   4.341   0.552 -0.1498 -0.1578  3.2756
  852MOL0     H14955   8.940   4.466   0.302 -0.6093 -0.0575  1.0058
  852MOL0     H14956   9.066   4.340   0.298 -1.8807 -3.1102  4.4252
  852MOL0     H14957   8.996   4.274   0.078 -0.7891  0.0853  1.1514
  852MOL0     H14958   9.052   4.449   0.103  0.9313  1.0270  4.2233
  852MOL0     H14959   8.813   4.527   0.128 -0.4931  2.3196 -2.6210
  852MOL0     H14960   8.756   4.373   0.105  1.6571 -2.0456  3.1929
  852MOL0     H14961   8.831   4.383  -0.150  2.2577  1.0448 -2.3524
  852MOL0     H14962   8.713   4.495  -0.097  1.0944  1.0307 -0.8810
  852MOL0     H14963   9.017   4.548  -0.112  0.5760 -0.5076  1.3733
  852MOL0     H14964   8.899   4.597  -0.238 -1.2334 -0.9107  0.8858
  852MOL0     H14965   8.921   4.710   0.048 -2.3141  2.1213  1.2652
  852MOL0     H14966   8.958   4.780  -0.107  2.3737 -0.3211  1.1094
  852MOL0     H14967   8.750   4.857  -0.025 -2.4681  0.0588 -1.3141
  852MOL0     H14968   8.690   4.688   0.003  0.9053 -2.4939  0.2169
  852MOL0     H14969   8.774   4.835  -0.256  0.6081  0.2537  0.3024
  852MOL0     H14970   8.698   4.672  -0.260 -1.6973  1.7522 -1.1587
  852MOL0     H14971   8.618   5.052  -0.277 -0.0769  1.7427  2.3439
  852MOL0     H14972   8.294   5.114  -0.122  2.3297 -0.1690  2.9914
  852MOL0     H14973   8.430   5.209  -0.170  2.4009 -0.9040 -1.6707
  852MOL0     H14974   8.404   5.178  -0.411  0.7578  2.7652 -0.0356
  852MOL0     H14975   8.250   5.092  -0.399  1.5380 -1.1572  0.6764
  852MOL0     H14976   8.242   5.348  -0.443 -1.3833 -2.8087 -1.9036
  852MOL0     H14977   8.250   5.363  -0.265 -0.8712 -0.4056 -0.5027
  852MOL0     H14978   8.032   5.248  -0.430  2.4438  0.7534 -0.1674
  852MOL0     H14979   8.026   5.376  -0.312  1.7662  1.0825  1.8420
  852MOL0     H14980   8.055   5.411  -0.076  0.3816  0.4629  1.6290
  852MOL0     H14981   8.014   5.415   0.152 -0.4263  0.5514 -0.3733
  852MOL0     H14982   8.113   5.043   0.629 -0.3040  0.0361  0.0135
  852MOL0     H14983   8.040   5.026   0.860 -1.0293 -3.9062 -1.0877
  852MOL0     H14984   7.892   5.022   1.087 -1.9684  0.2404  0.9860
  852MOL0     H14985   7.982   5.175   1.053 -1.1179  2.0518 -0.4986
  852MOL0     H14986   7.932   5.180   1.259  0.6709  1.9399 -0.8329
  852MOL0     H14987   7.852   5.307   1.180  0.0091  0.4672  0.8148
  852MOL0     H14988   7.740   5.040   1.260 -0.0873  0.6865  0.6587
  852MOL0     H14989   7.741   5.184   1.365  3.0901  2.0361 -0.3576
  852MOL0     H14990   7.514   5.123   1.234 -2.4262  1.8305 -1.1441
  852MOL0     H14991   7.605   5.157   1.091  0.4120 -0.1219  0.4046
  852MOL0     H14992   7.631   5.386   1.173  0.3482 -0.6715 -2.2567
  852MOL0     H14993   7.534   5.341   1.328 -2.2798 -3.4100 -0.0029
  852MOL0     H14994   7.429   5.306   1.043  1.6351 -3.0881  1.8350
  852MOL0     H14995   7.342   5.298   1.195 -2.2076 -1.4926 -1.8551
  852MOL0     H14996   7.472   5.561   1.087 -0.6580 -0.1793  0.4400
  852MOL0     H14997   7.380   5.544   1.227 -1.8135  0.3414 -0.2116
  852MOL0     H14998   7.297   5.473   0.948  1.8377  0.5725 -0.3329
  852MOL0     H14999   7.189   5.453   1.075 -0.1485 -0.8517 -1.1880
  852MOL0     H15000   7.679   5.252   0.738  1.3281  0.2820  2.8417
  852MOL0     H15001   7.756   5.226   0.511 -1.5785 -3.6135 -0.1512
  852MOL0     H15002   8.046   4.987   0.168  0.0152 -0.2060 -1.3920
  852MOL0     H15003   8.073   4.990  -0.071 -0.2528 -1.1100  0.8618
  852MOL0     H15004   8.794   4.037   0.292  2.0163 -2.4985  0.3356
  852MOL0     H15005   8.748   3.886   0.509 -1.0445  0.2275 -1.7688
  852MOL0     H15006   8.811   3.799   0.959  1.6631 -0.2449  0.1262
  852MOL0     H15007   8.746   3.684   1.152 -0.9602 -0.3477  1.4094
  852MOL0     H15008   8.665   3.654   1.433 -0.0705 -2.5046  1.2131
  852MOL0     H15009   8.619   3.573   1.288 -1.9531 -0.9623 -0.7454
  852MOL0     H15010   8.515   3.463   1.448  0.1250  0.0704 -0.0865
  852MOL0     H15011   8.386   3.552   1.379 -1.0478  0.1744  2.2079
  852MOL0     H15012   8.346   3.691   1.551  0.8735  2.7700  0.9012
  852MOL0     H15013   8.511   3.669   1.630  3.3908 -2.8963 -2.7505
  852MOL0     H15014   8.438   3.418   1.677 -0.0579 -0.1010 -3.6571
  852MOL0     H15015   8.353   3.555   1.767  3.3105  3.0949 -0.0725
  852MOL0     H15016   8.091   3.289   1.538 -0.9361 -1.8135  6.2303
  852MOL0     H15017   8.396   3.956   1.189  0.8808  3.0909  0.9601
  852MOL0     H15018   8.494   4.168   0.959 -1.5185  1.7987  1.0537
  852MOL0     H15019   8.382   4.044   0.896 -0.0074  1.8752 -0.4812
  852MOL0     H15020   8.364   4.102   1.054  0.0584  0.7370 -1.5356
  853MOL0     O15021   9.576   5.200   7.547 -0.0019  0.4013 -0.1103
  853MOL0     C15022   9.461   5.206   7.499  0.7803 -0.2599  0.1906
  853MOL0     O15023   9.425   5.280   7.382 -0.7111  0.3449 -0.2875
  853MOL0     C15024   9.523   5.308   7.283  0.2935  0.1829 -0.8491
  853MOL0     C15025   9.504   5.243   7.168 -0.1239  0.7470  0.7424
  853MOL0     C15026   9.590   5.267   7.059 -0.0372  0.8868 -0.1934
  853MOL0     C15027   9.695   5.352   7.086  0.5439 -1.0467  0.0788
  853MOL0     O15028   9.776   5.388   6.979 -0.0470 -0.1568 -0.5238
  853MOL0     C15029   9.915   5.397   7.001  0.3184  0.1715 -0.1359
  853MOL0     C15030   9.996   5.411   6.869  0.3768  0.0759 -0.3165
  853MOL0     C15031  10.148   5.399   6.899 -0.0992  0.1528  0.2763
  853MOL0     C15032  10.234   5.446   6.780  0.9264  0.9547 -0.2600
  853MOL0     C15033  10.373   5.472   6.834 -0.0590 -1.0238 -0.3460
  853MOL0     C15034  10.494   5.472   6.744  0.6623  0.9013  0.5957
  853MOL0     C15035  10.621   5.502   6.821  0.3549  0.0595  0.0120
  853MOL0     C15036  10.738   5.482   6.729  0.7904 -0.9932  1.0933
  853MOL0     N15037  10.867   5.513   6.787  0.2422 -0.0222 -0.4777
  853MOL0     C15038  10.951   5.426   6.845  0.9964 -0.3980  0.1106
  853MOL0     C15039  11.027   5.504   6.926 -0.2787 -0.4352 -0.4346
  853MOL0     C15040  11.131   5.450   7.013  0.7657  0.0890  0.1649
  853MOL0     C15041  11.075   5.351   7.120 -0.0642  0.0511 -0.6101
  853MOL0     C15042  11.178   5.295   7.209 -0.1297  0.3271  0.4345
  853MOL0     C15043  11.273   5.184   7.143 -0.1349  0.5647  0.0851
  853MOL0     O15044  11.207   5.054   7.148 -0.3389  0.2975 -0.4149
  853MOL0     C15045  11.289   4.943   7.117 -1.1046  0.4509  0.7256
  853MOL0     C15046  11.232   4.820   7.130 -0.8348 -0.1280 -0.9671
  853MOL0     C15047  11.296   4.705   7.110 -0.3006  0.6224 -0.1227
  853MOL0     C15048  11.423   4.709   7.047 -1.0089 -0.0246  0.1783
  853MOL0     C15049  11.491   4.585   7.000  0.1843 -0.1414  0.5098
  853MOL0     O15050  11.460   4.469   7.067 -0.1755  1.1379  0.6751
  853MOL0     C15051  11.522   4.355   7.018  0.4532  0.9396 -0.2669
  853MOL0     C15052  11.640   4.297   7.075 -0.5163 -0.5201 -0.2473
  853MOL0     C15053  11.692   4.178   7.027  0.1101  0.6357  0.2631
  853MOL0     C15054  11.632   4.105   6.924 -0.6288 -0.0144 -0.0403
  853MOL0     O15055  11.683   3.992   6.883  0.3798  0.0873  0.5508
  853MOL0     C15056  11.712   3.880   6.973 -0.3798 -0.8207  1.0321
  853MOL0     C15057  11.637   3.741   6.951 -0.0668  0.3011 -0.6138
  853MOL0     C15058  11.607   3.711   6.807 -0.2139 -0.7043 -0.0846
  853MOL0     C15059  11.726   3.695   6.718 -0.7806  1.1724  0.1485
  853MOL0     C15060  11.677   3.693   6.570  0.1467  0.0281  0.2944
  853MOL0     C15061  11.785   3.690   6.462  0.2334 -0.4680  0.3943
  853MOL0     C15062  11.717   3.728   6.324  0.5296 -1.2121 -0.5123
  853MOL0     C15063  11.824   3.731   6.207 -0.2333 -0.0537 -0.0806
  853MOL0    Cl15064  11.752   3.772   6.056  0.4785 -0.0009 -0.5207
  853MOL0     C15065  11.511   4.161   6.871  0.5643 -0.2802 -0.0226
  853MOL0     C15066  11.455   4.287   6.908 -0.3609 -0.2413  0.1973
  853MOL0     O15067  11.566   4.598   6.907  0.2861  0.1127 -0.2401
  853MOL0     C15068  11.489   4.834   7.033  0.6378 -0.2477  0.2444
  853MOL0     C15069  11.419   4.951   7.073 -0.4379  0.3590 -0.3254
  853MOL0     N15070  10.988   5.637   6.913 -0.1417 -0.3201 -0.6288
  853MOL0     N15071  10.892   5.642   6.821 -0.3140  0.9339 -1.2189
  853MOL0     C15072   9.721   5.416   7.209 -0.4604  0.1355 -0.4254
  853MOL0     C15073   9.623   5.393   7.308 -0.0545  0.1858 -0.7982
  853MOL0     C15074   9.348   5.136   7.567  0.2868 -1.6959  0.2034
  853MOL0     C15075   9.229   5.129   7.490 -0.1143 -0.1054  0.3233
  853MOL0     C15076   9.110   5.082   7.544  0.8464  0.1688  0.5564
  853MOL0     C15077   9.114   5.023   7.671  0.9079  0.7215  0.2059
  853MOL0     O15078   8.996   4.979   7.715  0.7857  0.1539  0.0118
  853MOL0     C15079   8.993   4.935   7.855 -0.0595 -1.0933  0.4446
  853MOL0     C15080   8.880   4.838   7.886 -0.0203 -0.1599  0.1902
  853MOL0     C15081   8.889   4.815   8.044 -0.6165 -0.4009 -0.3050
  853MOL0     C15082   8.759   4.844   8.122 -0.2912  0.4470 -0.1423
  853MOL0     C15083   8.685   4.970   8.082 -0.2042 -0.6083 -0.3866
  853MOL0     C15084   8.630   5.074   8.051 -0.0571 -0.0321 -0.3051
  853MOL0     C15085   9.239   5.023   7.743  0.4713  0.2373  0.6215
  853MOL0     C15086   9.355   5.067   7.683 -0.3702  0.1958  0.0728
  853MOL0     C15087   9.483   5.037   7.762 -0.3634 -0.0957 -0.8623
  853MOL0     H15088   9.423   5.171   7.159  0.5085  0.0829  0.3260
  853MOL0     H15089   9.593   5.220   6.961 -1.2275  0.1957  0.0766
  853MOL0     H15090   9.932   5.491   7.054 -2.1168  0.5017  0.1828
  853MOL0     H15091   9.950   5.313   7.061  2.1861  1.6925  1.0161
  853MOL0     H15092   9.969   5.512   6.837  1.7550  1.3900  2.3424
  853MOL0     H15093   9.957   5.344   6.792 -1.2047  1.9926 -1.2651
  853MOL0     H15094  10.190   5.303   6.932  2.4940  1.3326  0.6366
  853MOL0     H15095  10.160   5.475   6.977  3.0825 -0.8054  0.8751
  853MOL0     H15096  10.239   5.373   6.698  0.5213 -0.0044  0.5606
  853MOL0     H15097  10.183   5.537   6.745 -1.1085 -0.8213 -2.2323
  853MOL0     H15098  10.363   5.566   6.889  1.3100 -2.0175  1.7694
  853MOL0     H15099  10.393   5.393   6.907 -0.3107 -0.3780  0.4346
  853MOL0     H15100  10.502   5.376   6.692  1.3033  1.2059  0.1083
  853MOL0     H15101  10.483   5.545   6.663 -1.3273  0.3244  0.2870
  853MOL0     H15102  10.639   5.428   6.900 -4.2735 -0.8289  0.5283
  853MOL0     H15103  10.622   5.607   6.850  0.6787  0.0971 -0.1346
  853MOL0     H15104  10.747   5.377   6.700 -1.4235 -1.3598  1.5377
  853MOL0     H15105  10.726   5.543   6.639  0.8949 -0.6805  1.2879
  853MOL0     H15106  10.945   5.319   6.830  0.8473 -0.5267  0.9896
  853MOL0     H15107  11.197   5.395   6.945 -0.1295 -0.6579 -0.1287
  853MOL0     H15108  11.184   5.535   7.055  0.9351  0.0953 -0.0558
  853MOL0     H15109  11.001   5.402   7.182  2.5648  2.0785  1.0753
  853MOL0     H15110  11.043   5.257   7.072  0.8407  0.8215 -2.8497
  853MOL0     H15111  11.124   5.240   7.287 -0.1034 -2.9612 -1.6771
  853MOL0     H15112  11.240   5.376   7.250  0.5364  0.7492 -1.3292
  853MOL0     H15113  11.365   5.172   7.200 -2.1623 -2.4230  3.1209
  853MOL0     H15114  11.303   5.208   7.041 -2.5040 -0.9891 -1.0674
  853MOL0     H15115  11.136   4.800   7.176 -0.7876  0.9935 -0.3287
  853MOL0     H15116  11.246   4.613   7.138 -0.3599  1.1888  1.8258
  853MOL0     H15117  11.679   4.337   7.167  0.1153 -0.3491 -0.5883
  853MOL0     H15118  11.785   4.131   7.057 -1.3496 -2.0111  0.8709
  853MOL0     H15119  11.816   3.852   6.952  0.5786  3.7549 -1.7370
  853MOL0     H15120  11.690   3.920   7.072 -3.9706  0.3793 -0.1006
  853MOL0     H15121  11.686   3.668   7.016  1.3177  2.1185  0.5161
  853MOL0     H15122  11.533   3.751   6.983 -0.0728 -1.2135 -0.0732
  853MOL0     H15123  11.556   3.615   6.819  0.6972 -1.1561  0.3496
  853MOL0     H15124  11.538   3.786   6.767 -1.7355  0.5795  4.4084
  853MOL0     H15125  11.786   3.609   6.748 -1.4674  1.1269  1.4664
  853MOL0     H15126  11.785   3.787   6.720 -1.6976  1.7687  0.2558
  853MOL0     H15127  11.622   3.782   6.537  2.0717 -0.1953 -4.2514
  853MOL0     H15128  11.620   3.601   6.559  0.2176  0.0432 -0.1972
  853MOL0     H15129  11.860   3.762   6.496 -0.8529 -0.5940  3.4112
  853MOL0     H15130  11.844   3.598   6.461  1.7883  0.2961  4.0776
  853MOL0     H15131  11.667   3.825   6.327 -1.4029 -2.1339 -1.3391
  853MOL0     H15132  11.637   3.658   6.300 -1.4872 -0.7204  3.8854
  853MOL0     H15133  11.908   3.796   6.234  0.4259  0.1290 -2.3457
  853MOL0     H15134  11.854   3.626   6.197 -2.4017 -0.8369  0.8619
  853MOL0     H15135  11.461   4.105   6.793  0.1755 -0.9490  0.6828
  853MOL0     H15136  11.370   4.335   6.862 -0.1252 -0.1212 -0.1179
  853MOL0     H15137  11.591   4.839   6.996  0.9902  1.2500  1.3450
  853MOL0     H15138  11.461   5.051   7.068 -0.1421  0.2106 -0.8915
  853MOL0     H15139   9.807   5.476   7.238 -1.6054  0.1320  3.6470
  853MOL0     H15140   9.628   5.433   7.409  6.8190 -0.9284 -0.1857
  853MOL0     H15141   9.226   5.184   7.396  0.6151  1.5208  1.2072
  853MOL0     H15142   9.014   5.091   7.494  0.4136  1.8270  1.6071
  853MOL0     H15143   8.982   5.028   7.912  1.1993 -0.0172 -0.9869
  853MOL0     H15144   9.076   4.867   7.879 -0.4705 -2.1555 -0.9844
  853MOL0     H15145   8.899   4.742   7.838 -1.1182 -0.7613  0.9232
  853MOL0     H15146   8.788   4.886   7.850  1.7611  1.5384 -2.4804
  853MOL0     H15147   8.968   4.876   8.089 -0.3681 -2.3868  2.1442
  853MOL0     H15148   8.914   4.710   8.057  0.7305  0.1514  2.2185
  853MOL0     H15149   8.690   4.760   8.117  0.5350 -0.6443  3.8606
  853MOL0     H15150   8.787   4.856   8.227 -1.0243  2.3406 -0.1143
  853MOL0     H15151   8.571   5.158   8.021 -2.3112 -0.3411  2.7831
  853MOL0     H15152   9.239   4.990   7.846 -2.2142 -1.7709  0.1039
  853MOL0     H15153   9.455   4.974   7.846 -0.4209 -0.4150 -1.1167
  853MOL0     H15154   9.552   4.974   7.705 -0.3841 -0.8827 -0.0184
  853MOL0     H15155   9.516   5.134   7.800  0.5050  0.1446 -2.1747
  854MOL0     O15156   2.088   2.570   7.786 -0.1720 -0.4477 -0.2536
  854MOL0     C15157   2.203   2.581   7.753  0.3825 -1.3420 -0.3426
  854MOL0     O15158   2.243   2.641   7.642 -0.6600 -0.0122  0.5535
  854MOL0     C15159   2.156   2.713   7.572 -0.3575 -0.1815 -0.1338
  854MOL0     C15160   2.080   2.811   7.637  0.7202 -0.2795 -0.1490
  854MOL0     C15161   1.998   2.903   7.558 -0.7544  0.5430 -1.2269
  854MOL0     C15162   1.975   2.871   7.419  0.3816 -0.2450 -0.0493
  854MOL0     O15163   1.900   2.958   7.341  0.2546 -0.4021 -0.5335
  854MOL0     C15164   1.971   3.025   7.236  0.3968 -0.0268 -0.4934
  854MOL0     C15165   1.924   3.170   7.229  0.4995  0.1542 -0.1206
  854MOL0     C15166   1.781   3.189   7.183 -0.1861 -0.1372  0.0629
  854MOL0     C15167   1.744   3.342   7.172 -0.5949 -0.5965 -0.4386
  854MOL0     C15168   1.605   3.348   7.129 -0.3657 -0.2186 -0.4939
  854MOL0     C15169   1.577   3.486   7.069  0.3325  0.8159  0.8970
  854MOL0     C15170   1.428   3.500   7.059  1.4790 -0.6080  0.1559
  854MOL0     C15171   1.387   3.635   7.000 -0.7256  0.3449  0.2947
  854MOL0     N15172   1.243   3.637   6.964 -0.0088  1.0787  0.0041
  854MOL0     C15173   1.140   3.627   7.056  0.4696  0.2633 -0.0718
  854MOL0     C15174   1.037   3.635   6.982 -1.7253  0.2870 -0.0905
  854MOL0     C15175   0.904   3.632   7.049  0.1328  0.0208 -0.8044
  854MOL0     C15176   0.829   3.761   7.063  0.3210 -0.6902  0.7667
  854MOL0     C15177   0.705   3.762   7.158 -0.3024  0.3779  0.4146
  854MOL0     C15178   0.627   3.895   7.160  0.1226 -0.3446  0.2933
  854MOL0     O15179   0.494   3.870   7.211 -0.3713  0.1051 -0.2339
  854MOL0     C15180   0.422   3.970   7.275 -0.9318 -0.2544 -0.1940
  854MOL0     C15181   0.299   3.931   7.312  0.4287  0.5194 -0.0143
  854MOL0     C15182   0.221   4.027   7.382  0.5642 -0.0211  0.3430
  854MOL0     C15183   0.256   4.165   7.390 -0.4981  0.0801 -0.4810
  854MOL0     C15184   0.161   4.266   7.429 -0.6235 -0.6641 -0.0950
  854MOL0     O15185   0.206   4.391   7.469  0.0483  0.3455  0.3669
  854MOL0     C15186   0.110   4.491   7.484  0.8936 -0.5165 -0.2691
  854MOL0     C15187  -0.000   4.488   7.572  0.0538 -0.5301 -0.3501
  854MOL0     C15188  -0.082   4.603   7.581  0.5846  0.4214  0.0625
  854MOL0     C15189  -0.061   4.721   7.508 -0.3315 -0.5851  0.0869
  854MOL0     O15190  -0.138   4.837   7.507  0.0535 -0.4385  0.0026
  854MOL0     C15191  -0.272   4.823   7.551  0.3170 -0.6866  0.5971
  854MOL0     C15192  -0.281   4.844   7.697  0.0186  0.1350 -0.1953
  854MOL0     C15193  -0.335   4.985   7.739 -1.3408  0.6409  0.6571
  854MOL0     C15194  -0.476   5.033   7.665 -0.6631  0.3278 -0.0465
  854MOL0     C15195  -0.531   5.163   7.712 -0.6044 -0.9337  0.0541
  854MOL0     C15196  -0.451   5.287   7.662  0.0619  1.8731  0.3833
  854MOL0     C15197  -0.522   5.414   7.715  0.5649 -1.2051  0.7646
  854MOL0     C15198  -0.531   5.526   7.602 -0.5597 -0.0157 -0.0204
  854MOL0    Cl15199  -0.695   5.525   7.540  0.3921  0.0969 -0.5422
  854MOL0     C15200   0.045   4.724   7.423 -0.0470  0.3100  0.5916
  854MOL0     C15201   0.133   4.609   7.421 -0.3351  0.4972  0.0707
  854MOL0     O15202   0.044   4.227   7.427  0.3950 -0.3169  0.3764
  854MOL0     C15203   0.386   4.193   7.352 -0.0274 -0.7418 -0.1233
  854MOL0     C15204   0.463   4.101   7.289 -0.4980 -0.6730 -0.6706
  854MOL0     N15205   1.064   3.627   6.842 -0.7688 -0.6060 -0.7148
  854MOL0     N15206   1.196   3.627   6.836 -0.1410  1.2086  0.1544
  854MOL0     C15207   2.056   2.770   7.369  0.6217  0.4911 -0.1283
  854MOL0     C15208   2.143   2.687   7.436 -0.7535  0.0413  0.1634
  854MOL0     C15209   2.301   2.501   7.833 -0.1055  0.1404  1.5954
  854MOL0     C15210   2.421   2.466   7.764  0.0869 -0.4651  0.0492
  854MOL0     C15211   2.522   2.405   7.833 -0.9939 -0.1235 -0.8499
  854MOL0     C15212   2.518   2.372   7.966 -0.1024 -0.0878 -0.0975
  854MOL0     O15213   2.604   2.290   8.029 -0.5903  0.4853  0.2742
  854MOL0     C15214   2.718   2.233   7.960  0.0690 -1.3047  0.8857
  854MOL0     C15215   2.667   2.111   7.892  0.1572 -0.4869  0.5806
  854MOL0     C15216   2.788   2.025   7.842 -0.2993  0.2538  0.2102
  854MOL0     C15217   2.863   2.054   7.706 -0.6496 -0.1148 -0.5923
  854MOL0     C15218   2.923   2.189   7.723  0.2942  0.0407  0.6834
  854MOL0     C15219   2.967   2.296   7.729  0.5476  0.2203 -0.8861
  854MOL0     C15220   2.402   2.418   8.037 -0.3285 -0.5680  0.0841
  854MOL0     C15221   2.297   2.485   7.973 -0.6281  0.4582  0.3495
  854MOL0     C15222   2.188   2.539   8.056 -0.1611 -1.3089  0.5992
  854MOL0     H15223   2.083   2.843   7.740  0.9431  1.6188 -0.6993
  854MOL0     H15224   1.945   2.981   7.611  1.3070  2.2851 -1.6048
  854MOL0     H15225   2.080   3.034   7.249  0.2662  1.2532 -0.1365
  854MOL0     H15226   1.947   2.969   7.145 -1.0449  0.4104 -0.4015
  854MOL0     H15227   1.969   3.217   7.140 -1.1232 -0.0222 -1.0725
  854MOL0     H15228   1.954   3.228   7.317  1.0157 -0.1010 -0.1226
  854MOL0     H15229   1.706   3.147   7.251 -2.8059  0.8545 -2.0014
  854MOL0     H15230   1.788   3.151   7.081  4.2699  0.9733 -0.2183
  854MOL0     H15231   1.756   3.386   7.272  2.1561  1.2965 -1.4851
  854MOL0     H15232   1.813   3.399   7.109 -3.6109 -0.1732 -3.6519
  854MOL0     H15233   1.589   3.274   7.050  1.5362 -2.0530  0.7067
  854MOL0     H15234   1.543   3.326   7.217 -4.4796 -2.1572 -3.5614
  854MOL0     H15235   1.614   3.556   7.143 -2.9081  2.6084  1.0263
  854MOL0     H15236   1.623   3.494   6.970 -1.8043 -1.5020 -0.4136
  854MOL0     H15237   1.383   3.489   7.158  3.2854 -3.3388  0.7938
  854MOL0     H15238   1.377   3.424   6.998  1.1652 -1.9054  1.9304
  854MOL0     H15239   1.411   3.720   7.065  1.9101 -0.3773  0.3660
  854MOL0     H15240   1.442   3.647   6.907 -2.2114  0.7411 -0.5645
  854MOL0     H15241   1.150   3.624   7.164  1.2321  0.4136 -0.1285
  854MOL0     H15242   0.829   3.569   7.000 -0.2561  1.4943 -2.2068
  854MOL0     H15243   0.916   3.605   7.154  2.2268  1.9710 -0.4716
  854MOL0     H15244   0.894   3.841   7.100 -0.3961 -1.0284  2.9293
  854MOL0     H15245   0.800   3.804   6.966  0.0230  1.5555  1.7750
  854MOL0     H15246   0.735   3.745   7.262  0.3141 -0.9047  0.0466
  854MOL0     H15247   0.631   3.685   7.133 -0.9754  0.8451  0.9341
  854MOL0     H15248   0.612   3.918   7.054  1.1924 -1.0202 -0.0229
  854MOL0     H15249   0.681   3.985   7.193 -0.7912  0.1120  0.5644
  854MOL0     H15250   0.260   3.831   7.303 -2.5469  1.6949 -1.7512
  854MOL0     H15251   0.121   3.991   7.403  1.4387 -2.5826  0.4592
  854MOL0     H15252  -0.003   4.399   7.634  2.0105 -0.9322 -0.7740
  854MOL0     H15253  -0.160   4.600   7.657 -1.5032 -0.8243 -2.0062
  854MOL0     H15254  -0.333   4.887   7.487  0.5863 -1.6812 -0.6918
  854MOL0     H15255  -0.320   4.727   7.531 -3.5299  1.1940 -0.1230
  854MOL0     H15256  -0.334   4.760   7.743 -1.8967  1.2572 -0.2493
  854MOL0     H15257  -0.182   4.831   7.740 -0.9151 -3.2883  1.2599
  854MOL0     H15258  -0.346   4.987   7.848 -2.4696  1.0762  0.5461
  854MOL0     H15259  -0.260   5.058   7.705  0.7662 -1.5616  0.2945
  854MOL0     H15260  -0.558   4.962   7.677  0.1768 -0.6446  0.0870
  854MOL0     H15261  -0.464   5.039   7.557 -1.0994 -0.3155 -0.1325
  854MOL0     H15262  -0.537   5.163   7.822  2.8692 -4.1145  0.4395
  854MOL0     H15263  -0.629   5.192   7.673 -0.7172  1.2870  1.7569
  854MOL0     H15264  -0.345   5.274   7.688  0.6713  0.6971 -2.3685
  854MOL0     H15265  -0.460   5.277   7.553 -3.5961 -0.0176  0.7109
  854MOL0     H15266  -0.468   5.457   7.800  0.4063 -1.2927  0.9121
  854MOL0     H15267  -0.620   5.394   7.759  1.0752 -0.8114  2.1290
  854MOL0     H15268  -0.516   5.626   7.645 -0.4120  0.4730 -1.1784
  854MOL0     H15269  -0.464   5.501   7.519 -1.6670 -2.3218 -0.3038
  854MOL0     H15270   0.069   4.802   7.351 -1.2499 -1.0918 -1.4166
  854MOL0     H15271   0.219   4.636   7.362 -1.5313  4.2069 -0.2590
  854MOL0     H15272   0.408   4.300   7.354 -1.8993 -0.0131 -4.8688
  854MOL0     H15273   0.557   4.136   7.248  0.5195 -2.8671 -0.3529
  854MOL0     H15274   2.036   2.739   7.267  0.7402 -0.1086  0.0258
  854MOL0     H15275   2.206   2.615   7.386  0.5531  0.0558  1.7045
  854MOL0     H15276   2.444   2.479   7.659  3.0654 -2.1369  0.3997
  854MOL0     H15277   2.609   2.390   7.770  0.3471  1.8413  0.4463
  854MOL0     H15278   2.800   2.211   8.029  1.6053 -2.2443 -1.1185
  854MOL0     H15279   2.753   2.299   7.880 -4.1363 -1.1906 -1.1935
  854MOL0     H15280   2.600   2.125   7.807 -1.1178 -1.3591  1.4035
  854MOL0     H15281   2.611   2.057   7.969  2.3503  2.3016  4.4718
  854MOL0     H15282   2.752   1.922   7.847  0.3356  0.0217  0.1255
  854MOL0     H15283   2.872   2.038   7.912  2.4954 -1.1937 -2.5854
  854MOL0     H15284   2.939   1.977   7.687  0.0191  0.5993 -0.8373
  854MOL0     H15285   2.791   2.040   7.625 -0.1719 -0.5376 -0.9540
  854MOL0     H15286   3.002   2.395   7.705 -1.3658  1.0848 -0.3098
  854MOL0     H15287   2.396   2.390   8.142  1.8347  0.9102  0.6694
  854MOL0     H15288   2.153   2.640   8.032 -0.3014 -0.8354  2.5936
  854MOL0     H15289   2.108   2.464   8.053  1.8025 -3.7827  3.5514
  854MOL0     H15290   2.214   2.538   8.162 -3.3492 -2.5205  1.4760
  855MOL0     O15291   1.142   1.037   5.989  0.0764 -0.1058 -0.3282
  855MOL0     C15292   1.132   0.970   5.886  0.2875 -0.7285  0.2222
  855MOL0     O15293   1.238   0.895   5.833  1.1004  0.7265  0.0643
  855MOL0     C15294   1.373   0.908   5.878 -0.5662 -0.3311 -0.7516
  855MOL0     C15295   1.456   0.827   5.801 -0.2304  0.3408 -0.0420
  855MOL0     C15296   1.590   0.815   5.826 -0.5401 -0.5251 -0.1239
  855MOL0     C15297   1.648   0.893   5.932  0.1799  0.1797  0.2633
  855MOL0     O15298   1.777   0.882   5.962  0.5319  0.1483  0.1717
  855MOL0     C15299   1.861   0.986   5.911  0.4138  0.9365 -0.2231
  855MOL0     C15300   1.858   1.116   6.001 -0.0841  1.0474  0.1343
  855MOL0     C15301   1.925   1.089   6.139 -0.4037  0.1210 -0.9568
  855MOL0     C15302   1.830   1.065   6.256 -0.2909  0.0842 -1.1233
  855MOL0     C15303   1.894   1.043   6.397 -0.0642 -1.1982 -0.1969
  855MOL0     C15304   2.010   0.946   6.416  0.5746  0.1900 -1.1626
  855MOL0     C15305   1.963   0.807   6.393 -0.3123 -0.6959  0.7264
  855MOL0     C15306   1.959   0.721   6.514  0.0731  0.0231  0.9392
  855MOL0     N15307   1.937   0.589   6.464 -0.0655 -0.2319 -1.4572
  855MOL0     C15308   2.024   0.483   6.441 -0.0770  0.0857  0.9401
  855MOL0     C15309   1.944   0.377   6.406  0.0770 -0.4826  0.8216
  855MOL0     C15310   1.973   0.232   6.384  0.1812  0.0061 -0.5290
  855MOL0     C15311   1.967   0.200   6.233 -0.0665 -0.3299  0.1091
  855MOL0     C15312   2.024   0.069   6.190  0.0930 -0.5715  0.2845
  855MOL0     C15313   2.174   0.075   6.165 -0.5640  0.7871  0.0019
  855MOL0     O15314   2.192   0.131   6.042  0.0803  0.3071 -0.8987
  855MOL0     C15315   2.208   0.048   5.940  0.1091 -0.4577  0.3900
  855MOL0     C15316   2.114   0.024   5.845  0.1527 -0.6545  0.1878
  855MOL0     C15317   2.143  -0.035   5.722 -0.1932 -0.7479  0.5435
  855MOL0     C15318   2.270  -0.081   5.694 -0.0677 -0.5615 -0.8221
  855MOL0     C15319   2.296  -0.150   5.561 -0.1911 -0.2895 -1.2469
  855MOL0     O15320   2.180  -0.198   5.492  0.3902  0.2468  0.6551
  855MOL0     C15321   2.195  -0.270   5.371 -0.8580  0.2955  0.7087
  855MOL0     C15322   2.125  -0.384   5.358  0.2225 -0.8868 -0.4409
  855MOL0     C15323   2.142  -0.464   5.247  0.5427 -0.3262 -0.4612
  855MOL0     C15324   2.226  -0.433   5.141 -0.1365  0.2568  0.1426
  855MOL0     O15325   2.230  -0.510   5.025 -0.3972 -0.1428 -0.7027
  855MOL0     C15326   2.270  -0.439   4.899 -0.2312  0.2851  0.6537
  855MOL0     C15327   2.200  -0.510   4.784  0.9975  0.0502 -0.1257
  855MOL0     C15328   2.179  -0.449   4.645  0.2741 -0.4465 -1.1122
  855MOL0     C15329   2.310  -0.391   4.590 -0.1856  0.7566  0.0185
  855MOL0     C15330   2.402  -0.512   4.552  0.1154  1.0813 -0.5814
  855MOL0     C15331   2.548  -0.471   4.527 -0.4589  0.9294 -0.5676
  855MOL0     C15332   2.639  -0.579   4.473 -0.2856  0.1516 -1.1824
  855MOL0     C15333   2.784  -0.551   4.523 -0.2345 -0.0292 -0.1260
  855MOL0    Cl15334   2.889  -0.648   4.434 -0.6392  0.1904  0.9773
  855MOL0     C15335   2.305  -0.312   5.155 -0.1826  0.4436  0.4189
  855MOL0     C15336   2.287  -0.230   5.270 -0.6585 -0.4970 -0.2048
  855MOL0     O15337   2.411  -0.169   5.530  0.3226  0.2357  0.4684
  855MOL0     C15338   2.375  -0.043   5.785  0.6169 -0.9253 -0.5558
  855MOL0     C15339   2.341   0.017   5.909  0.3837 -0.3362  1.1451
  855MOL0     N15340   1.812   0.418   6.406 -0.1572 -0.2657 -0.4448
  855MOL0     N15341   1.809   0.543   6.443 -0.5058 -0.5684 -0.2637
  855MOL0     C15342   1.561   0.973   6.009  0.3950  0.4992 -0.4313
  855MOL0     C15343   1.424   0.985   5.985 -0.4629  0.2921  0.6212
  855MOL0     C15344   1.002   0.996   5.801 -0.3924 -0.4780 -0.5760
  855MOL0     C15345   0.935   1.116   5.812  0.2902  0.1584  0.3069
  855MOL0     C15346   0.824   1.140   5.725  0.5323 -0.7376  0.4865
  855MOL0     C15347   0.769   1.039   5.646 -0.5721 -0.0733  0.6552
  855MOL0     O15348   0.656   1.070   5.565  0.2119  0.2096  0.5720
  855MOL0     C15349   0.577   0.962   5.505 -0.4408 -0.0588 -0.1890
  855MOL0     C15350   0.543   0.983   5.359  1.2294  0.9067  0.4028
  855MOL0     C15351   0.444   0.880   5.307 -0.4011  0.5860  0.4064
  855MOL0     C15352   0.448   0.888   5.154 -0.5322  0.1616  1.1047
  855MOL0     C15353   0.309   0.869   5.093 -0.3479 -0.0556 -0.0041
  855MOL0     C15354   0.201   0.857   5.055  0.1799  0.1546 -0.4482
  855MOL0     C15355   0.843   0.927   5.638  0.2448  0.6929 -0.1511
  855MOL0     C15356   0.951   0.895   5.720  0.0878 -0.2986  0.6568
  855MOL0     C15357   1.010   0.759   5.698  0.2779  0.0795  0.4075
  855MOL0     H15358   1.399   0.774   5.724  0.7463 -2.4726  1.0495
  855MOL0     H15359   1.656   0.757   5.762 -2.2604 -1.3801 -1.2018
  855MOL0     H15360   1.963   0.946   5.905  1.0411  2.2618  1.0192
  855MOL0     H15361   1.818   1.009   5.813  1.3225  2.0928 -0.3713
  855MOL0     H15362   1.763   1.169   5.998 -0.2218  0.9074  1.3371
  855MOL0     H15363   1.928   1.183   5.949  1.3234  1.7575  2.7677
  855MOL0     H15364   1.994   1.171   6.160 -0.2529  0.2196 -1.7888
  855MOL0     H15365   1.991   1.002   6.130  1.3397  1.2381  0.4552
  855MOL0     H15366   1.768   1.155   6.255 -1.5113 -0.7270 -2.4159
  855MOL0     H15367   1.765   0.979   6.237 -2.1216  0.8929  1.1442
  855MOL0     H15368   1.928   1.145   6.413 -7.1420  1.6794  0.1700
  855MOL0     H15369   1.806   1.034   6.461 -1.3936 -0.0123 -1.7756
  855MOL0     H15370   2.093   0.972   6.349 -1.2851  3.1394 -2.5562
  855MOL0     H15371   2.057   0.963   6.513  3.0684 -1.5973 -1.9753
  855MOL0     H15372   2.037   0.766   6.323  0.3819  0.5130  0.7282
  855MOL0     H15373   1.868   0.809   6.340 -0.5191 -3.5367  0.7937
  855MOL0     H15374   2.055   0.724   6.565  1.1149 -0.1421 -0.9398
  855MOL0     H15375   1.877   0.757   6.578 -0.8904 -3.3832  1.8644
  855MOL0     H15376   2.132   0.473   6.447  0.1565  0.2923 -1.8130
  855MOL0     H15377   2.063   0.198   6.436 -0.1387 -1.6558 -0.9841
  855MOL0     H15378   1.898   0.162   6.423  1.3061 -1.0914 -0.2447
  855MOL0     H15379   1.865   0.214   6.198 -0.2231 -0.3062  0.5734
  855MOL0     H15380   2.032   0.276   6.188 -2.1570  1.0366 -0.7068
  855MOL0     H15381   1.967   0.036   6.103  0.3237  0.6676 -0.3477
  855MOL0     H15382   2.001   0.001   6.274 -0.6203  0.5560  1.0227
  855MOL0     H15383   2.210  -0.028   6.169  2.0386  1.6181 -0.4092
  855MOL0     H15384   2.228   0.141   6.234 -1.6243  1.6677  0.0235
  855MOL0     H15385   2.011   0.048   5.869 -0.8675 -4.9430  0.8315
  855MOL0     H15386   2.062  -0.034   5.649 -0.9596 -1.0515  1.3834
  855MOL0     H15387   2.057  -0.406   5.439  1.5316 -2.5793  0.2445
  855MOL0     H15388   2.074  -0.549   5.243 -1.5299  1.1885  0.7259
  855MOL0     H15389   2.257  -0.330   4.895 -0.6320  0.2494 -3.2873
  855MOL0     H15390   2.376  -0.460   4.885  0.0445  2.0688 -0.2349
  855MOL0     H15391   2.237  -0.612   4.771 -1.2635 -1.3198  3.0939
  855MOL0     H15392   2.100  -0.529   4.824  1.5103 -2.4826  0.1235
  855MOL0     H15393   2.141  -0.518   4.569 -0.3996 -2.4484  0.9160
  855MOL0     H15394   2.105  -0.369   4.655 -2.8098 -2.8660 -2.7651
  855MOL0     H15395   2.356  -0.321   4.661  1.0480 -1.0176  1.0510
  855MOL0     H15396   2.297  -0.347   4.491  0.8605  0.0006 -0.4793
  855MOL0     H15397   2.369  -0.550   4.454  0.2449  1.4576 -0.7719
  855MOL0     H15398   2.404  -0.594   4.623  0.2367 -1.8250 -3.6654
  855MOL0     H15399   2.556  -0.385   4.460 -0.1154  2.3151  1.1703
  855MOL0     H15400   2.591  -0.429   4.618  0.0721  0.7797 -0.7432
  855MOL0     H15401   2.647  -0.583   4.364 -0.4932  0.8632 -1.2346
  855MOL0     H15402   2.601  -0.676   4.505  0.0942 -0.0717 -1.4089
  855MOL0     H15403   2.810  -0.446   4.512  1.4505 -0.6289 -2.8360
  855MOL0     H15404   2.795  -0.568   4.631 -0.4394 -3.2731 -0.5028
  855MOL0     H15405   2.387  -0.284   5.090 -0.1749 -2.7824 -1.1252
  855MOL0     H15406   2.343  -0.138   5.271  0.3535 -1.0576 -1.9595
  855MOL0     H15407   2.480  -0.054   5.764  0.9089  0.4381  0.0736
  855MOL0     H15408   2.427   0.040   5.972  1.6388  2.6192 -1.3844
  855MOL0     H15409   1.589   1.041   6.089 -3.7085  2.0078  0.0004
  855MOL0     H15410   1.361   1.059   6.034 -3.4520 -0.4924 -1.7238
  855MOL0     H15411   0.971   1.187   5.885 -2.6854  3.2325 -0.9063
  855MOL0     H15412   0.791   1.243   5.726 -0.0282 -0.9140  0.9914
  855MOL0     H15413   0.481   0.966   5.555 -1.3960 -0.3881 -1.9077
  855MOL0     H15414   0.614   0.863   5.534 -3.3210 -1.2134 -0.2162
  855MOL0     H15415   0.637   0.970   5.304 -0.2043 -0.6740 -1.8155
  855MOL0     H15416   0.515   1.088   5.354  0.1419  0.6798  1.2965
  855MOL0     H15417   0.340   0.886   5.338 -0.6009 -4.2057  1.5587
  855MOL0     H15418   0.478   0.782   5.344 -2.3313  0.7716  2.8860
  855MOL0     H15419   0.478   0.991   5.133 -1.1188 -0.1561 -1.6655
  855MOL0     H15420   0.526   0.822   5.114 -2.5562  0.0308 -3.1649
  855MOL0     H15421   0.105   0.850   5.007 -0.3341  1.1081  0.4006
  855MOL0     H15422   0.814   0.867   5.552  0.5964  1.9663 -1.1961
  855MOL0     H15423   1.062   0.760   5.602  0.5461 -0.4031  0.5471
  855MOL0     H15424   1.071   0.724   5.782  1.9221  1.7797 -0.0061
  855MOL0     H15425   0.930   0.685   5.687  0.3023 -0.0349  0.9497
  856MOL0     O15426   8.704   2.290   9.630  1.0756  0.9352  0.1847
  856MOL0     C15427   8.628   2.194   9.613 -0.3893  0.8623 -0.4006
  856MOL0     O15428   8.503   2.176   9.666 -0.1080  0.4573 -0.0650
  856MOL0     C15429   8.448   2.284   9.734  0.8037  0.6854  1.1316
  856MOL0     C15430   8.476   2.314   9.873  0.0405  0.9270 -0.3859
  856MOL0     C15431   8.420   2.421   9.940  0.4582  0.4742  0.6803
  856MOL0     C15432   8.331   2.495   9.865  0.0543 -0.5672 -0.5130
  856MOL0     O15433   8.261   2.596   9.919  0.2969 -1.0007  0.0974
  856MOL0     C15434   8.299   2.655  10.050 -0.2576  0.5681 -0.7963
  856MOL0     C15435   8.194   2.627  10.163  0.4816 -0.7012  0.4587
  856MOL0     C15436   8.217   2.740  10.270  0.1546 -0.1872  0.6536
  856MOL0     C15437   8.113   2.752  10.379  0.2368 -0.1666 -0.2794
  856MOL0     C15438   8.138   2.872  10.477 -0.0072 -0.6586  0.1303
  856MOL0     C15439   8.056   2.898  10.602  0.5296 -0.0730  0.3943
  856MOL0     C15440   7.909   2.893  10.576  0.1810  0.3387  0.6986
  856MOL0     C15441   7.856   3.003  10.486 -0.0313 -0.1580  0.0900
  856MOL0     N15442   7.889   3.135  10.537  0.2796  0.1579  0.1634
  856MOL0     C15443   7.833   3.191  10.661  0.2972 -0.3270 -0.2387
  856MOL0     C15444   7.910   3.305  10.668  0.1777 -0.0416  0.6741
  856MOL0     C15445   7.917   3.401  10.774  0.1888 -0.0812 -0.2533
  856MOL0     C15446   8.049   3.410  10.847 -0.9719 -0.4768 -1.2458
  856MOL0     C15447   8.092   3.272  10.913  0.1684  1.4434  0.2814
  856MOL0     C15448   8.020   3.233  11.052 -0.0454  0.4116  0.4115
  856MOL0     O15449   7.885   3.183  11.018 -0.4444  0.1301  0.3596
  856MOL0     C15450   7.871   3.043  10.990  0.2063 -0.8310 -0.6947
  856MOL0     C15451   7.978   2.956  10.944 -0.2457 -0.4843  0.2731
  856MOL0     C15452   7.964   2.816  10.922 -0.2673  0.2487 -1.2938
  856MOL0     C15453   7.833   2.763  10.940 -0.9384 -0.1827 -0.0446
  856MOL0     C15454   7.802   2.630  10.880  0.0123 -0.1847  0.3941
  856MOL0     O15455   7.888   2.584  10.785 -0.2607 -1.0468  0.1065
  856MOL0     C15456   7.889   2.457  10.746  0.2598 -0.4277 -0.6837
  856MOL0     C15457   7.828   2.340  10.805 -0.0982 -0.0969 -0.7583
  856MOL0     C15458   7.850   2.212  10.752  0.0439  0.1231 -0.9088
  856MOL0     C15459   7.925   2.197  10.640 -0.3025 -0.3172 -0.3970
  856MOL0     O15460   7.945   2.077  10.592 -0.9384  0.4779  0.2373
  856MOL0     C15461   8.076   2.022  10.610  0.0780 -0.1357 -0.1248
  856MOL0     C15462   8.064   1.872  10.629  0.6488  0.8652 -0.1981
  856MOL0     C15463   8.030   1.849  10.774 -0.4257  0.9242  0.3969
  856MOL0     C15464   7.987   1.707  10.814  0.0704  0.4331  0.3751
  856MOL0     C15465   8.102   1.624  10.868  0.4727 -0.9172 -0.6059
  856MOL0     C15466   8.159   1.648  11.011 -0.1294 -0.1291  0.5808
  856MOL0     C15467   8.065   1.601  11.118  0.1682  0.4387 -1.0177
  856MOL0     C15468   8.145   1.546  11.232  0.5063  0.2167  0.3923
  856MOL0    Cl15469   8.038   1.462  11.358  0.2552 -0.3473 -0.2018
  856MOL0     C15470   7.987   2.305  10.582 -0.2664  0.6650 -0.2924
  856MOL0     C15471   7.967   2.430  10.636  0.2640 -0.0290  0.0575
  856MOL0     O15472   7.701   2.575  10.907 -0.3100  0.6428  0.6612
  856MOL0     C15473   7.727   2.847  10.970 -0.2542  0.6800  0.1809
  856MOL0     C15474   7.752   2.980  10.999 -0.1985 -0.8917  0.5003
  856MOL0     N15475   8.005   3.317  10.563  0.6535 -0.0093 -0.1182
  856MOL0     N15476   7.980   3.218  10.479 -0.2510 -0.0901 -0.1273
  856MOL0     C15477   8.309   2.474   9.739  0.0716  0.7625 -0.1645
  856MOL0     C15478   8.384   2.382   9.664  0.0084 -1.0266 -0.1033
  856MOL0     C15479   8.691   2.066   9.558  0.5762  0.9501 -0.0968
  856MOL0     C15480   8.824   2.044   9.595  0.0490 -1.0218 -0.7621
  856MOL0     C15481   8.896   1.931   9.573 -0.3455 -0.2971 -0.6859
  856MOL0     C15482   8.837   1.825   9.506 -0.3744  0.3777 -1.2226
  856MOL0     O15483   8.925   1.714   9.490  0.4943 -0.3795 -0.6559
  856MOL0     C15484   8.864   1.588   9.455 -0.5426 -0.7316  0.4462
  856MOL0     C15485   8.869   1.583   9.301  0.8981 -0.2106  0.4006
  856MOL0     C15486   9.020   1.597   9.232  0.6884  0.1651 -0.2325
  856MOL0     C15487   9.026   1.524   9.095  0.7568  0.4618  0.3104
  856MOL0     C15488   8.917   1.560   9.002 -0.1829  0.1338 -0.8578
  856MOL0     C15489   8.826   1.590   8.927 -0.2370 -0.6543  0.4958
  856MOL0     C15490   8.710   1.850   9.448  0.2315  0.8851 -0.0613
  856MOL0     C15491   8.634   1.970   9.472 -0.1216 -0.4732  0.6521
  856MOL0     C15492   8.497   1.984   9.398 -1.2163  0.8560  1.2818
  856MOL0     H15493   8.535   2.247   9.934  2.1967  1.8616 -1.3199
  856MOL0     H15494   8.425   2.437  10.047  0.1573 -2.8927  1.3172
  856MOL0     H15495   8.403   2.662  10.085 -1.9700  1.8558  5.3031
  856MOL0     H15496   8.278   2.760  10.027  0.3567  0.5248 -1.6063
  856MOL0     H15497   8.217   2.531  10.210  1.8585  0.6288  2.6993
  856MOL0     H15498   8.090   2.634  10.131 -0.0954  1.0284  2.4855
  856MOL0     H15499   8.220   2.829  10.207  2.5247 -1.8489 -1.7611
  856MOL0     H15500   8.315   2.737  10.318  1.0216 -0.7735 -1.0634
  856MOL0     H15501   8.008   2.755  10.351 -0.0503  2.5340  0.7660
  856MOL0     H15502   8.112   2.659  10.436  2.8464  1.0923  2.0822
  856MOL0     H15503   8.244   2.868  10.504 -0.1016  2.0954  1.2285
  856MOL0     H15504   8.127   2.962  10.416 -1.5065  0.6605  2.2171
  856MOL0     H15505   8.087   2.825  10.678  1.2085 -3.2213 -2.6712
  856MOL0     H15506   8.094   2.993  10.640  0.7555  0.4058 -0.9618
  856MOL0     H15507   7.866   2.895  10.677  0.7686  0.4309  0.9496
  856MOL0     H15508   7.884   2.792  10.540  0.7751 -0.2408  1.8476
  856MOL0     H15509   7.872   3.005  10.378  1.3322  0.5044  0.2776
  856MOL0     H15510   7.748   2.999  10.504  0.1167 -2.6937  0.8159
  856MOL0     H15511   7.762   3.157  10.736  0.3886 -0.1733 -0.0823
  856MOL0     H15512   7.904   3.505  10.742 -1.3555 -0.2292 -0.1752
  856MOL0     H15513   7.836   3.377  10.843 -0.3856 -1.2169 -1.2880
  856MOL0     H15514   8.132   3.438  10.780  2.4095  2.7478  3.6392
  856MOL0     H15515   8.042   3.485  10.927 -1.6773 -2.1296  0.2954
  856MOL0     H15516   8.201   3.283  10.922  0.5465  0.2613 -2.0622
  856MOL0     H15517   8.091   3.194  10.837  2.5285  0.0094  1.5722
  856MOL0     H15518   8.010   3.325  11.111  1.5060  0.9226 -0.0753
  856MOL0     H15519   8.071   3.165  11.120 -2.9670 -0.8113  1.5607
  856MOL0     H15520   8.075   3.003  10.938 -0.0155 -0.5590  2.5208
  856MOL0     H15521   8.052   2.760  10.892 -1.0558 -1.9332  0.2140
  856MOL0     H15522   7.771   2.337  10.897  3.5178 -0.3071  1.6879
  856MOL0     H15523   7.804   2.123  10.793 -0.7811  0.9372 -0.0106
  856MOL0     H15524   8.145   2.043  10.528 -1.1818  0.3101 -1.1040
  856MOL0     H15525   8.137   2.064  10.690 -0.8257  1.3000 -0.1586
  856MOL0     H15526   7.988   1.820  10.571  1.6035 -0.1370 -0.5744
  856MOL0     H15527   8.155   1.825  10.593 -1.3148 -2.6509 -0.9855
  856MOL0     H15528   8.112   1.885  10.836 -0.1736  3.2693 -1.1538
  856MOL0     H15529   7.947   1.915  10.800 -2.0321  0.3091 -2.7165
  856MOL0     H15530   7.938   1.663  10.726 -1.8748  2.5683  0.2986
  856MOL0     H15531   7.913   1.712  10.894  1.8896 -0.2114  2.1676
  856MOL0     H15532   8.176   1.630  10.788 -0.2356  0.7116 -1.1831
  856MOL0     H15533   8.079   1.517  10.872 -3.8012 -0.1354  1.3825
  856MOL0     H15534   8.258   1.601  11.010  0.1938  0.5302  0.5395
  856MOL0     H15535   8.180   1.755  11.018 -2.6673  0.5742 -1.2149
  856MOL0     H15536   8.000   1.526  11.071  0.4513 -1.5541  1.5232
  856MOL0     H15537   8.005   1.679  11.166  1.1084  1.1367 -0.9572
  856MOL0     H15538   8.218   1.469  11.204  0.9174 -1.2748  4.7657
  856MOL0     H15539   8.187   1.637  11.277 -3.2063  1.5506  1.5263
  856MOL0     H15540   8.044   2.310  10.489  2.2498 -0.7273  1.0485
  856MOL0     H15541   7.993   2.523  10.586 -0.4234  1.3433  2.0980
  856MOL0     H15542   7.621   2.829  10.955  0.0078  0.7441 -2.2100
  856MOL0     H15543   7.662   3.026  11.037 -0.2235 -2.3428  2.3780
  856MOL0     H15544   8.246   2.542   9.683 -1.4962  0.8808  1.6810
  856MOL0     H15545   8.361   2.368   9.559  0.6169  1.2236 -0.5940
  856MOL0     H15546   8.891   2.125   9.623  3.4860 -3.1588 -2.0573
  856MOL0     H15547   8.995   1.925   9.618 -1.5995  0.8615  2.5226
  856MOL0     H15548   8.761   1.589   9.492 -0.7963 -2.6683 -0.1027
  856MOL0     H15549   8.930   1.515   9.503  1.2173 -0.2315 -1.1062
  856MOL0     H15550   8.797   1.652   9.257  0.1785 -1.7493 -0.9511
  856MOL0     H15551   8.823   1.486   9.278 -1.2856  0.4671  1.6513
  856MOL0     H15552   9.110   1.576   9.290  1.0539  1.8495 -0.1450
  856MOL0     H15553   9.032   1.704   9.214 -2.0926  0.3773 -1.3718
  856MOL0     H15554   9.118   1.557   9.046 -0.1171  0.1643 -1.6070
  856MOL0     H15555   9.031   1.415   9.107 -1.8086  0.5099  3.2224
  856MOL0     H15556   8.764   1.641   8.856  0.8624 -1.2211 -0.9146
  856MOL0     H15557   8.666   1.770   9.389  2.5285 -0.6708  0.2170
  856MOL0     H15558   8.514   1.988   9.290 -0.7496  1.4833  1.3700
  856MOL0     H15559   8.417   1.915   9.425 -1.5321  1.2018  1.2459
  856MOL0     H15560   8.464   2.088   9.409 -0.8052  1.3590 -1.5227
  857MOL0     O15561   3.648   5.536   3.132  1.6162 -0.2676 -0.3201
  857MOL0     C15562   3.548   5.468   3.119  0.4360 -0.8399 -0.0027
  857MOL0     O15563   3.422   5.516   3.079 -0.3799  1.0249  0.8199
  857MOL0     C15564   3.409   5.647   3.054  0.3056 -0.3845  0.1967
  857MOL0     C15565   3.465   5.712   2.939  0.8646 -0.2861  0.0864
  857MOL0     C15566   3.464   5.850   2.928 -0.3284 -0.5924 -0.8023
  857MOL0     C15567   3.426   5.930   3.035  0.8798 -0.9183 -1.0388
  857MOL0     O15568   3.433   6.066   3.041 -0.3258 -0.3429 -0.6430
  857MOL0     C15569   3.566   6.111   3.023 -0.5539 -0.2236 -0.8789
  857MOL0     C15570   3.597   6.247   3.105 -0.1309 -0.3812  0.3314
  857MOL0     C15571   3.488   6.348   3.049 -0.1309 -0.2927 -0.4723
  857MOL0     C15572   3.516   6.490   3.093 -0.0692  0.1380  0.5316
  857MOL0     C15573   3.422   6.576   3.020  0.0431  0.1536  1.3429
  857MOL0     C15574   3.278   6.527   3.033  1.3587 -0.2729  1.3248
  857MOL0     C15575   3.193   6.654   3.046 -0.1305 -0.7166 -0.1425
  857MOL0     C15576   3.176   6.716   3.177  0.5392  0.3872 -0.1283
  857MOL0     N15577   3.120   6.860   3.175 -0.6833  0.6112  0.0061
  857MOL0     C15578   3.012   6.897   3.115  0.4978 -0.2034  0.9872
  857MOL0     C15579   2.988   7.026   3.131  0.0996 -0.5132 -0.5760
  857MOL0     C15580   2.880   7.122   3.075  0.6858  0.4208  0.6675
  857MOL0     C15581   2.780   7.053   2.977  1.0178 -0.4966  0.8935
  857MOL0     C15582   2.833   7.058   2.833 -0.3829  0.7904 -0.2802
  857MOL0     C15583   2.900   7.188   2.782 -0.3518  0.3452  0.1957
  857MOL0     O15584   2.903   7.171   2.630  0.5369 -0.2186 -0.5694
  857MOL0     C15585   2.998   7.256   2.586 -1.0859 -0.6871  0.3039
  857MOL0     C15586   2.984   7.391   2.597  0.0215  1.0656 -0.1622
  857MOL0     C15587   3.064   7.475   2.521 -0.0528 -0.6843 -0.0577
  857MOL0     C15588   3.171   7.429   2.432  0.2111  0.5279 -0.3183
  857MOL0     C15589   3.249   7.519   2.346 -0.0365 -0.1122  0.7911
  857MOL0     O15590   3.221   7.650   2.372  0.7211  0.0354  0.0792
  857MOL0     C15591   3.255   7.760   2.293 -0.7779 -0.4099  0.2236
  857MOL0     C15592   3.330   7.751   2.174  1.3180  0.2195  0.6304
  857MOL0     C15593   3.354   7.868   2.099 -0.7058  0.7260 -0.7533
  857MOL0     C15594   3.316   8.002   2.141 -0.3170  0.1816  0.2988
  857MOL0     O15595   3.363   8.108   2.061  0.0218  0.1851  0.6995
  857MOL0     C15596   3.377   8.239   2.113 -0.2661  0.3179  0.8488
  857MOL0     C15597   3.526   8.275   2.087 -0.2607  0.3508  0.0054
  857MOL0     C15598   3.545   8.336   1.940  0.1575 -0.0501 -1.5836
  857MOL0     C15599   3.520   8.243   1.823 -0.0216  0.2198 -0.5097
  857MOL0     C15600   3.568   8.306   1.685 -0.0731  0.4399 -0.4068
  857MOL0     C15601   3.501   8.444   1.661  0.0293 -0.0555  0.0187
  857MOL0     C15602   3.496   8.484   1.517 -0.3074 -0.4305 -0.2014
  857MOL0     C15603   3.459   8.631   1.495  0.6514  0.4382  0.3098
  857MOL0    Cl15604   3.594   8.739   1.542  0.0460 -0.2409  0.0920
  857MOL0     C15605   3.256   8.003   2.270  0.3107  0.2784 -0.2846
  857MOL0     C15606   3.222   7.888   2.340  1.2998 -0.5662  0.4828
  857MOL0     O15607   3.326   7.469   2.265  0.0404 -0.3268  0.0316
  857MOL0     C15608   3.191   7.289   2.428  0.1468  0.1522  0.3602
  857MOL0     C15609   3.099   7.209   2.505 -0.1869 -0.6293  0.9331
  857MOL0     N15610   3.099   7.070   3.213  0.8156  0.8008  0.7408
  857MOL0     N15611   3.179   6.970   3.229 -0.4255  0.5637  0.0053
  857MOL0     C15612   3.370   5.875   3.146 -0.2780 -0.2605  0.3311
  857MOL0     C15613   3.359   5.732   3.153 -0.5897  0.0701 -0.7388
  857MOL0     C15614   3.563   5.328   3.151  0.7339 -0.4758  0.0413
  857MOL0     C15615   3.451   5.242   3.131 -0.6794 -0.1602 -0.4861
  857MOL0     C15616   3.463   5.102   3.149  1.0951 -0.1344 -0.6322
  857MOL0     C15617   3.576   5.049   3.204 -0.4630 -0.3064  0.3407
  857MOL0     O15618   3.569   4.915   3.238 -0.3231 -0.6124  0.8048
  857MOL0     C15619   3.683   4.854   3.311  0.2161 -0.6289 -0.1228
  857MOL0     C15620   3.657   4.698   3.298 -0.3922  0.4208 -0.0788
  857MOL0     C15621   3.532   4.658   3.368 -0.3284 -0.4301  0.6867
  857MOL0     C15622   3.469   4.520   3.317 -0.5241  0.0827 -0.9866
  857MOL0     C15623   3.561   4.413   3.294  0.3486 -0.2401  0.6184
  857MOL0     C15624   3.643   4.328   3.288 -0.2543 -0.6450  1.1721
  857MOL0     C15625   3.692   5.124   3.220 -0.0350 -0.9363 -0.3015
  857MOL0     C15626   3.685   5.263   3.196  0.4079 -0.1174 -1.1354
  857MOL0     C15627   3.815   5.327   3.213 -0.6842 -0.1952 -0.4150
  857MOL0     H15628   3.514   5.657   2.860 -3.4532  0.4623 -3.5509
  857MOL0     H15629   3.514   5.895   2.842  1.7243  2.6389  1.8396
  857MOL0     H15630   3.627   6.034   3.072 -0.0850  0.9075  0.3808
  857MOL0     H15631   3.590   6.125   2.918 -0.8340  1.6279 -0.7217
  857MOL0     H15632   3.697   6.288   3.093  0.4085 -2.0232 -1.0362
  857MOL0     H15633   3.574   6.237   3.212 -2.2390  1.5245  0.1347
  857MOL0     H15634   3.387   6.323   3.081 -1.2331  2.5289 -1.4702
  857MOL0     H15635   3.486   6.356   2.940  0.3908  2.2181 -0.3507
  857MOL0     H15636   3.507   6.499   3.202  1.4662  0.1224  0.6860
  857MOL0     H15637   3.615   6.528   3.064  0.0117  1.5106  2.3874
  857MOL0     H15638   3.432   6.683   3.042 -1.5152  0.8718 -1.0547
  857MOL0     H15639   3.448   6.574   2.914  0.2133 -2.7894  1.3747
  857MOL0     H15640   3.245   6.472   2.945 -0.3690  2.3427  0.2113
  857MOL0     H15641   3.262   6.471   3.126 -1.6587 -3.0687 -0.6695
  857MOL0     H15642   3.097   6.620   3.008 -0.6387 -0.5819  0.9765
  857MOL0     H15643   3.237   6.727   2.977  1.6138  1.5369  3.0889
  857MOL0     H15644   3.109   6.647   3.229  1.7399 -3.1619 -2.9226
  857MOL0     H15645   3.270   6.712   3.232  0.5340 -3.1219 -0.1815
  857MOL0     H15646   2.957   6.825   3.055  3.6745 -2.5419  0.6100
  857MOL0     H15647   2.829   7.152   3.167  3.0765  0.8620  1.9134
  857MOL0     H15648   2.925   7.213   3.034  1.8820 -1.4147 -2.4124
  857MOL0     H15649   2.762   6.947   2.997  2.0801 -0.6577  1.0495
  857MOL0     H15650   2.692   7.118   2.976  2.2337  1.2110 -0.2854
  857MOL0     H15651   2.749   7.026   2.770 -0.8121 -0.5627  0.9090
  857MOL0     H15652   2.903   6.975   2.817  0.0123  1.0022  0.3474
  857MOL0     H15653   2.998   7.195   2.829 -1.0383  1.2866  1.5599
  857MOL0     H15654   2.835   7.272   2.805  0.7177  0.9180  1.2212
  857MOL0     H15655   2.910   7.433   2.664 -1.7378 -0.4797 -1.0710
  857MOL0     H15656   3.034   7.579   2.519 -0.2375 -0.7302  0.3388
  857MOL0     H15657   3.354   7.653   2.135 -0.6712  0.3788 -1.2537
  857MOL0     H15658   3.411   7.850   2.009  3.8756 -0.9191  2.1422
  857MOL0     H15659   3.309   8.317   2.077 -0.8968 -0.5452  0.1283
  857MOL0     H15660   3.370   8.230   2.222 -0.3404 -0.2271  0.8026
  857MOL0     H15661   3.559   8.351   2.157 -0.3417  3.8715 -3.4211
  857MOL0     H15662   3.590   8.186   2.093  3.1397  2.6264  0.0556
  857MOL0     H15663   3.477   8.420   1.922 -0.1204 -0.2469 -1.4665
  857MOL0     H15664   3.647   8.376   1.943  0.8516 -1.7039  1.9059
  857MOL0     H15665   3.413   8.219   1.821 -0.3442  1.0076  2.3049
  857MOL0     H15666   3.570   8.149   1.845  0.0389  0.3686  0.0129
  857MOL0     H15667   3.539   8.235   1.608 -0.8288  0.8730 -0.5224
  857MOL0     H15668   3.676   8.322   1.691 -0.2454  1.1784  1.8054
  857MOL0     H15669   3.395   8.432   1.687  0.2415 -0.7893  0.5724
  857MOL0     H15670   3.542   8.520   1.729  1.4064 -1.3611  0.7155
  857MOL0     H15671   3.416   8.429   1.467  0.7116 -1.9148 -0.2734
  857MOL0     H15672   3.590   8.467   1.464 -1.2742 -0.9633 -1.7947
  857MOL0     H15673   3.444   8.649   1.388  1.1426  0.9396  0.3171
  857MOL0     H15674   3.367   8.659   1.546  1.4228  1.9937  0.9101
  857MOL0     H15675   3.206   8.093   2.302 -0.0620  0.8530 -2.3303
  857MOL0     H15676   3.163   7.899   2.430 -1.9294 -1.2235 -1.4058
  857MOL0     H15677   3.260   7.245   2.356  2.2147  2.0776  1.0294
  857MOL0     H15678   3.097   7.102   2.491 -2.0155 -0.4259 -0.8269
  857MOL0     H15679   3.372   5.925   3.242  2.7769 -3.2236  2.0174
  857MOL0     H15680   3.335   5.689   3.250  2.0651 -1.8545 -0.8165
  857MOL0     H15681   3.363   5.289   3.088 -0.0825  0.1910 -1.3322
  857MOL0     H15682   3.378   5.039   3.124  0.5951 -0.0451  0.7519
  857MOL0     H15683   3.688   4.888   3.415  2.9925  1.6885 -0.8721
  857MOL0     H15684   3.780   4.869   3.263  0.3798  4.3822  1.1811
  857MOL0     H15685   3.741   4.642   3.339 -0.1259  0.4251 -0.6138
  857MOL0     H15686   3.665   4.667   3.193 -1.3067  3.2468 -1.0744
  857MOL0     H15687   3.460   4.737   3.343  1.0589  0.5285 -0.4852
  857MOL0     H15688   3.552   4.658   3.475  2.6902 -3.0892  0.2642
  857MOL0     H15689   3.416   4.487   3.406  4.2568  0.8687  2.5619
  857MOL0     H15690   3.408   4.531   3.227 -0.3962 -0.8778 -1.2019
  857MOL0     H15691   3.723   4.258   3.294  0.1036 -0.5665 -1.6507
  857MOL0     H15692   3.781   5.091   3.274  0.2272 -0.7003 -0.5824
  857MOL0     H15693   3.895   5.254   3.196  2.1720  2.3770  1.0727
  857MOL0     H15694   3.837   5.400   3.134  1.1329  1.4858  1.5198
  857MOL0     H15695   3.838   5.354   3.316 -0.4652 -1.5341 -0.0850
  858MOL0     O15696  10.671   4.021   4.516  0.4007  0.2128  0.5638
  858MOL0     C15697  10.788   4.028   4.492  0.5383  0.1401  0.2646
  858MOL0     O15698  10.880   3.973   4.573  0.0246 -0.5084  0.4695
  858MOL0     C15699  10.828   3.912   4.689  0.5340 -0.4334  0.8496
  858MOL0     C15700  10.818   3.772   4.706  0.2987  0.7072  0.2490
  858MOL0     C15701  10.792   3.715   4.832  0.9492  0.0514 -0.2726
  858MOL0     C15702  10.754   3.806   4.943  0.2084 -0.4795 -0.3219
  858MOL0     O15703  10.727   3.754   5.065 -0.4358  0.4833  0.1076
  858MOL0     C15704  10.820   3.662   5.114 -0.1396  0.0132  0.4097
  858MOL0     C15705  10.807   3.643   5.270  0.3323 -0.4791  0.6621
  858MOL0     C15706  10.812   3.772   5.359  0.7576 -0.0789  0.0291
  858MOL0     C15707  10.946   3.858   5.355  0.4856 -0.5328 -0.3443
  858MOL0     C15708  10.950   3.972   5.455 -0.3449 -1.0891 -1.3208
  858MOL0     C15709  10.941   3.924   5.602 -0.2520 -0.6281  0.1670
  858MOL0     C15710  10.914   4.046   5.694  1.5194  0.5785 -0.2921
  858MOL0     C15711  10.939   4.003   5.845 -0.6969 -0.0039  0.4256
  858MOL0     N15712  10.886   4.098   5.945  1.2998 -0.0589 -0.0494
  858MOL0     C15713  10.760   4.146   5.947 -0.2239  0.1034  1.1714
  858MOL0     C15714  10.769   4.218   6.066  0.0884 -0.0518 -0.7310
  858MOL0     C15715  10.661   4.320   6.106  0.1160 -0.0279 -0.2134
  858MOL0     C15716  10.612   4.296   6.254  0.0332 -0.4582 -0.1302
  858MOL0     C15717  10.527   4.420   6.293 -0.4183  0.4560 -1.4258
  858MOL0     C15718  10.473   4.417   6.430  0.4563  0.2707  1.0515
  858MOL0     O15719  10.581   4.424   6.523 -0.1373  0.3806  0.0212
  858MOL0     C15720  10.556   4.438   6.655 -0.7843  0.6927 -0.5954
  858MOL0     C15721  10.574   4.557   6.716  0.9400 -0.0363  0.3717
  858MOL0     C15722  10.549   4.561   6.853 -0.3834 -1.1090  0.5747
  858MOL0     C15723  10.505   4.443   6.929  0.2219  0.1607 -0.2132
  858MOL0     C15724  10.455   4.457   7.065 -0.2800 -0.5587  0.7476
  858MOL0     O15725  10.456   4.336   7.142 -0.3185  0.5363  0.0126
  858MOL0     C15726  10.406   4.328   7.274  1.6963  0.2823  0.0174
  858MOL0     C15727  10.303   4.408   7.328 -0.2465  0.8768 -0.6296
  858MOL0     C15728  10.267   4.380   7.463  0.8869 -0.5020  0.7569
  858MOL0     C15729  10.314   4.277   7.539 -0.2444  1.0484 -0.6844
  858MOL0     O15730  10.264   4.248   7.659 -0.0419 -0.5121 -0.5166
  858MOL0     C15731  10.244   4.120   7.710  0.6498 -0.5029  0.4605
  858MOL0     C15732  10.141   4.120   7.824  0.4173  0.3357  0.4390
  858MOL0     C15733  10.005   4.146   7.760 -0.2795 -0.1068  0.5688
  858MOL0     C15734   9.887   4.101   7.856  0.3671  0.3488  0.7349
  858MOL0     C15735   9.747   4.085   7.792 -0.1152 -0.3760  0.8224
  858MOL0     C15736   9.705   4.215   7.722  0.6820  0.2140  0.1614
  858MOL0     C15737   9.574   4.216   7.645 -0.5330  0.8902 -0.4260
  858MOL0     C15738   9.448   4.198   7.719  0.5300 -0.7778  0.2175
  858MOL0    Cl15739   9.423   4.015   7.734  0.5652  0.0422 -0.3714
  858MOL0     C15740  10.407   4.194   7.473  0.0959 -0.3363  0.2624
  858MOL0     C15741  10.453   4.223   7.347  0.2598 -0.1525 -0.3029
  858MOL0     O15742  10.429   4.562   7.106  0.7451 -0.5365  0.1830
  858MOL0     C15743  10.502   4.323   6.858  0.1286 -0.1330 -0.5059
  858MOL0     C15744  10.529   4.321   6.722  0.5922 -0.0527 -0.8215
  858MOL0     N15745  10.895   4.216   6.119  0.1494 -0.4674  0.4976
  858MOL0     N15746  10.964   4.145   6.043  0.0120 -0.1671  0.0044
  858MOL0     C15747  10.767   3.943   4.920 -0.1546  0.3762  0.6881
  858MOL0     C15748  10.802   3.996   4.795 -0.1130  0.8758 -0.0075
  858MOL0     C15749  10.848   4.078   4.368  0.3322  0.0699  0.1954
  858MOL0     C15750  10.926   3.985   4.294 -0.7974  0.3865 -0.3524
  858MOL0     C15751  10.975   4.033   4.173  0.6743 -0.1641  0.1643
  858MOL0     C15752  10.950   4.165   4.121  0.0234 -0.2647  0.0418
  858MOL0     O15753  11.010   4.194   3.999  0.2156 -0.3769 -0.9452
  858MOL0     C15754  10.998   4.322   3.934 -0.3925 -0.2587  0.0653
  858MOL0     C15755  11.131   4.343   3.862  0.3677 -0.1926  0.9080
  858MOL0     C15756  11.137   4.441   3.736 -0.8884  0.3233 -0.2753
  858MOL0     C15757  11.110   4.583   3.777 -0.3709 -0.2652  0.6868
  858MOL0     C15758  11.148   4.670   3.667  0.5012 -0.1512 -0.1386
  858MOL0     C15759  11.194   4.746   3.588 -0.8492 -0.0806 -0.9348
  858MOL0     C15760  10.885   4.252   4.203 -0.2063 -0.2852  0.0652
  858MOL0     C15761  10.827   4.213   4.324  0.0755  0.2864 -0.8979
  858MOL0     C15762  10.748   4.315   4.407 -0.5572  0.7508 -0.0476
  858MOL0     H15763  10.837   3.704   4.624  1.0273  0.8905  0.2575
  858MOL0     H15764  10.796   3.607   4.841 -0.0913 -0.0340 -0.7347
  858MOL0     H15765  10.787   3.567   5.069 -1.6732  1.2211 -1.1531
  858MOL0     H15766  10.922   3.696   5.098 -0.0994  0.5036  1.6457
  858MOL0     H15767  10.874   3.560   5.295 -0.2155 -1.2720 -0.3918
  858MOL0     H15768  10.714   3.591   5.296  0.3105 -1.1369 -0.6155
  858MOL0     H15769  10.794   3.742   5.463  2.2619  1.3072  0.7386
  858MOL0     H15770  10.725   3.830   5.328  0.8049  1.5644  2.6536
  858MOL0     H15771  11.026   3.786   5.375 -1.0860 -2.1283  0.4937
  858MOL0     H15772  10.973   3.906   5.261  0.5170  0.2166  0.0338
  858MOL0     H15773  11.037   4.035   5.432 -3.6581  2.4107 -6.6251
  858MOL0     H15774  10.862   4.035   5.439 -0.7829 -1.1871  0.5479
  858MOL0     H15775  10.867   3.843   5.612  3.0248 -3.7866  0.9671
  858MOL0     H15776  11.044   3.889   5.610  1.2548  2.4286 -3.4180
  858MOL0     H15777  10.808   4.062   5.674  0.3540 -4.9681 -0.2141
  858MOL0     H15778  10.974   4.135   5.673 -1.9671  3.5628  1.3287
  858MOL0     H15779  10.889   3.907   5.861  0.9505 -0.6453  2.1200
  858MOL0     H15780  11.048   3.991   5.841 -0.6202  0.7859 -3.1108
  858MOL0     H15781  10.674   4.141   5.882  0.5975  3.7075 -0.4621
  858MOL0     H15782  10.691   4.424   6.087  0.1777 -0.0238 -0.0976
  858MOL0     H15783  10.575   4.309   6.040  0.1036  1.3401 -0.4564
  858MOL0     H15784  10.549   4.208   6.243  3.6316 -3.2753 -0.0596
  858MOL0     H15785  10.690   4.279   6.329  0.4579  2.3144  0.1823
  858MOL0     H15786  10.444   4.434   6.223  0.1149  0.2780 -2.1071
  858MOL0     H15787  10.592   4.508   6.297 -3.6754  3.0515 -1.7063
  858MOL0     H15788  10.419   4.322   6.439  1.4897 -0.5852 -1.0586
  858MOL0     H15789  10.412   4.507   6.442 -2.4361 -0.7943 -3.2624
  858MOL0     H15790  10.608   4.641   6.657  0.7352 -1.0354 -1.2356
  858MOL0     H15791  10.559   4.664   6.886  4.0036 -0.2339 -2.5905
  858MOL0     H15792  10.261   4.482   7.260 -2.4078  1.1355  0.8847
  858MOL0     H15793  10.197   4.452   7.503  0.3870 -0.5936  0.0599
  858MOL0     H15794  10.206   4.050   7.634 -2.7262  1.1962  0.4227
  858MOL0     H15795  10.335   4.068   7.741 -0.6294 -2.4098  1.1858
  858MOL0     H15796  10.141   4.018   7.863  3.4257  0.5341  1.2184
  858MOL0     H15797  10.151   4.194   7.904 -0.2377  1.1504 -0.2221
  858MOL0     H15798  10.001   4.254   7.743 -0.1636 -0.4175 -1.7871
  858MOL0     H15799   9.987   4.084   7.672 -1.4713  0.7559  0.1801
  858MOL0     H15800   9.896   4.163   7.946  2.1763 -0.6233  1.2817
  858MOL0     H15801   9.911   4.005   7.903  3.0291  0.6519  0.1969
  858MOL0     H15802   9.680   4.050   7.871  1.5020 -1.9895  1.5482
  858MOL0     H15803   9.756   4.005   7.718  1.6364 -0.6642  1.2993
  858MOL0     H15804   9.698   4.283   7.808  0.0493  1.6541 -0.9796
  858MOL0     H15805   9.784   4.230   7.648 -1.2387 -0.5090 -2.1414
  858MOL0     H15806   9.580   4.140   7.566  0.3109  1.3501 -0.8262
  858MOL0     H15807   9.579   4.311   7.591  2.6718 -0.1579 -2.2928
  858MOL0     H15808   9.458   4.251   7.814  1.2130  0.4975 -0.5467
  858MOL0     H15809   9.370   4.254   7.668 -0.1702 -1.8184  0.1161
  858MOL0     H15810  10.459   4.119   7.532  2.2582  1.3157  0.6039
  858MOL0     H15811  10.519   4.147   7.306 -3.2184 -3.2591 -0.6386
  858MOL0     H15812  10.484   4.227   6.905  0.0378  0.9339  1.7791
  858MOL0     H15813  10.506   4.236   6.659 -0.8061  1.2438 -2.1743
  858MOL0     H15814  10.744   4.008   5.004 -1.8129  0.3247  0.2951
  858MOL0     H15815  10.780   4.102   4.784 -2.2805  0.6209  1.3940
  858MOL0     H15816  10.972   3.895   4.334 -2.3996 -0.3212 -0.0211
  858MOL0     H15817  11.039   3.964   4.119  0.2378  0.0040 -0.5941
  858MOL0     H15818  10.972   4.402   4.003 -1.6505  1.1652 -1.9195
  858MOL0     H15819  10.919   4.324   3.858  0.8578 -0.7198 -1.3116
  858MOL0     H15820  11.155   4.247   3.815  2.1268 -0.2643  1.8694
  858MOL0     H15821  11.209   4.378   3.930  0.9240 -0.0329  0.2014
  858MOL0     H15822  11.059   4.403   3.671 -0.4598 -0.7850 -0.1571
  858MOL0     H15823  11.235   4.432   3.689  0.4964  0.4320  2.3798
  858MOL0     H15824  11.007   4.602   3.806 -0.4027 -4.6649  4.5730
  858MOL0     H15825  11.173   4.608   3.863 -1.4630  0.9461  1.1742
  858MOL0     H15826  11.233   4.825   3.526  1.7645  1.4317  2.3426
  858MOL0     H15827  10.868   4.351   4.163 -4.0380 -0.4672  0.8287
  858MOL0     H15828  10.797   4.332   4.503 -2.2147  2.5088  0.5592
  858MOL0     H15829  10.736   4.411   4.355  0.6320  1.3152  0.6763
  858MOL0     H15830  10.648   4.272   4.422  0.5654 -2.3005 -0.6917
  859MOL0     O15831   3.575   1.712   0.381 -0.2890  0.4770 -0.0867
  859MOL0     C15832   3.604   1.594   0.350 -0.1331  0.3963 -0.5581
  859MOL0     O15833   3.717   1.552   0.289  0.1729  0.2286  0.3472
  859MOL0     C15834   3.835   1.618   0.294  0.3733 -0.8319 -0.2015
  859MOL0     C15835   3.941   1.579   0.203  0.9520 -1.1925 -0.1024
  859MOL0     C15836   4.070   1.624   0.225 -1.4012 -0.8273  0.1723
  859MOL0     C15837   4.094   1.721   0.312 -0.1714 -0.9519 -0.0783
  859MOL0     O15838   4.218   1.771   0.326  0.0467  0.2970  0.3647
  859MOL0     C15839   4.326   1.676   0.362  0.0666 -0.4506 -0.5591
  859MOL0     C15840   4.458   1.758   0.351 -0.3345  0.6545  0.5549
  859MOL0     C15841   4.474   1.866   0.451 -0.3562  0.6964 -0.1599
  859MOL0     C15842   4.602   1.942   0.437 -0.6623 -0.5184  0.4858
  859MOL0     C15843   4.634   2.031   0.556  0.7953  1.3382 -0.0351
  859MOL0     C15844   4.533   2.149   0.574 -0.0864  0.6052  0.2719
  859MOL0     C15845   4.597   2.251   0.670 -0.5285 -0.1761 -0.4443
  859MOL0     C15846   4.733   2.314   0.607  0.7503  0.3481 -0.6479
  859MOL0     N15847   4.725   2.358   0.463 -0.1746 -0.2099  0.2850
  859MOL0     C15848   4.647   2.464   0.416  0.9021  0.7034  0.0356
  859MOL0     C15849   4.634   2.420   0.289  0.2704 -0.8086 -0.4498
  859MOL0     C15850   4.535   2.466   0.189 -0.3082 -0.1375 -0.2784
  859MOL0     C15851   4.381   2.440   0.225  1.1694  0.9687  0.5676
  859MOL0     C15852   4.297   2.567   0.221  0.3725 -0.6690 -0.4568
  859MOL0     C15853   4.164   2.546   0.295  0.3192  0.2679 -0.7731
  859MOL0     O15854   4.063   2.464   0.231 -0.2132 -1.1892  0.1925
  859MOL0     C15855   3.998   2.397   0.332 -0.1505 -0.2277  0.7853
  859MOL0     C15856   3.948   2.453   0.453  0.6842 -0.0189  0.3028
  859MOL0     C15857   3.876   2.378   0.540  0.5357  0.2487 -1.1394
  859MOL0     C15858   3.840   2.247   0.522 -0.1934  0.9039  0.2585
  859MOL0     C15859   3.771   2.162   0.628  0.8370  0.2490  0.7011
  859MOL0     O15860   3.734   2.220   0.743  0.7954  0.3039  0.2437
  859MOL0     C15861   3.678   2.135   0.836  0.8101 -0.2301  0.0173
  859MOL0     C15862   3.746   2.128   0.950 -0.3120  0.7852 -0.0108
  859MOL0     C15863   3.702   2.051   1.056  0.2852  0.5326  0.2257
  859MOL0     C15864   3.578   1.989   1.051  1.1656  0.4489 -0.4891
  859MOL0     O15865   3.531   1.920   1.159  0.3714  0.9702 -0.6995
  859MOL0     C15866   3.401   1.853   1.151  0.2351  1.0885  0.2707
  859MOL0     C15867   3.380   1.799   1.292  0.0603  0.0826 -0.0377
  859MOL0     C15868   3.243   1.731   1.300 -0.7725  1.2277  0.3894
  859MOL0     C15869   3.212   1.666   1.428  0.1080  0.0986 -0.9556
  859MOL0     C15870   3.066   1.619   1.439 -0.6046 -0.1882 -0.5474
  859MOL0     C15871   3.032   1.503   1.353  0.4480  1.7689  0.0664
  859MOL0     C15872   2.884   1.450   1.377 -0.8383 -0.2885 -0.3508
  859MOL0     C15873   2.879   1.323   1.474  0.8671 -0.5513  0.2436
  859MOL0    Cl15874   2.887   1.370   1.645 -0.3421  0.2764 -0.5282
  859MOL0     C15875   3.501   1.999   0.935 -0.0646  0.3000  0.1335
  859MOL0     C15876   3.556   2.062   0.823 -0.1260  0.6834 -0.8476
  859MOL0     O15877   3.747   2.041   0.598 -0.3957 -0.1822  1.2036
  859MOL0     C15878   3.893   2.190   0.403  1.0975 -0.4261 -1.0305
  859MOL0     C15879   3.972   2.267   0.311  0.1309  0.5745  1.0949
  859MOL0     N15880   4.714   2.314   0.263  0.5865  0.3564  0.4153
  859MOL0     N15881   4.776   2.276   0.366  0.6618 -0.3382  0.0232
  859MOL0     C15882   3.991   1.782   0.372 -1.2674  0.3341 -0.5928
  859MOL0     C15883   3.861   1.728   0.378  0.5762  0.0970  0.3249
  859MOL0     C15884   3.496   1.496   0.367 -0.6877  0.5539  0.8841
  859MOL0     C15885   3.365   1.539   0.348  0.0328 -0.4789 -0.5153
  859MOL0     C15886   3.256   1.450   0.337 -0.5342 -0.8937  0.7952
  859MOL0     C15887   3.266   1.315   0.363 -0.4482 -0.9453 -0.5274
  859MOL0     O15888   3.148   1.245   0.372  0.5811 -0.0957  0.3746
  859MOL0     C15889   3.150   1.156   0.482 -0.4851 -0.4276 -1.0447
  859MOL0     C15890   3.016   1.079   0.501 -0.6222  0.2098 -0.1176
  859MOL0     C15891   2.902   1.172   0.539 -0.3863 -0.0134 -0.2659
  859MOL0     C15892   2.766   1.095   0.571  0.6334 -1.4851  0.5259
  859MOL0     C15893   2.747   1.078   0.722  0.3769 -0.7667  0.4894
  859MOL0     C15894   2.742   1.048   0.838 -0.4516  0.2358 -0.4349
  859MOL0     C15895   3.389   1.269   0.380 -0.6481  0.9628  0.1175
  859MOL0     C15896   3.507   1.352   0.374  0.4691  0.0147  0.1492
  859MOL0     C15897   3.642   1.288   0.386  0.2369 -0.1317 -0.2627
  859MOL0     H15898   3.914   1.512   0.122 -1.9730  1.4087 -1.4985
  859MOL0     H15899   4.150   1.579   0.166 -0.7790  1.1446 -0.5637
  859MOL0     H15900   4.317   1.644   0.466  1.4314 -0.1544 -0.3275
  859MOL0     H15901   4.317   1.584   0.305 -0.6521 -1.1791  0.6808
  859MOL0     H15902   4.461   1.790   0.246 -0.2413 -3.2694 -0.7770
  859MOL0     H15903   4.544   1.698   0.381 -1.9668 -0.6361  2.9418
  859MOL0     H15904   4.463   1.833   0.555  1.9406  2.5448  0.7361
  859MOL0     H15905   4.390   1.935   0.439 -2.3002 -1.7717 -1.9657
  859MOL0     H15906   4.685   1.870   0.436  0.2682  0.3844  3.0761
  859MOL0     H15907   4.612   2.006   0.349  0.0825 -1.3705 -0.0622
  859MOL0     H15908   4.629   1.967   0.645  1.0163 -3.8515 -3.3590
  859MOL0     H15909   4.733   2.069   0.528  2.0847 -2.2600 -0.8751
  859MOL0     H15910   4.504   2.193   0.478 -1.4143  0.0181  0.3886
  859MOL0     H15911   4.437   2.100   0.594 -1.4165 -0.6926 -6.7963
  859MOL0     H15912   4.621   2.208   0.767  0.7445  0.6755 -0.3559
  859MOL0     H15913   4.519   2.327   0.683 -0.1671  0.3802 -1.3831
  859MOL0     H15914   4.782   2.389   0.670  0.0295 -0.2317  0.6340
  859MOL0     H15915   4.808   2.234   0.608 -1.5521 -1.9638  1.7200
  859MOL0     H15916   4.591   2.542   0.466  0.1232  3.0439 -3.9689
  859MOL0     H15917   4.530   2.572   0.164 -2.4107 -0.1317 -0.0444
  859MOL0     H15918   4.557   2.415   0.095  0.8531 -1.1346  0.5081
  859MOL0     H15919   4.340   2.372   0.149  3.0902 -1.1245  1.2788
  859MOL0     H15920   4.365   2.378   0.313  1.3440 -1.4240 -0.9810
  859MOL0     H15921   4.259   2.596   0.123 -0.3306 -0.0317 -0.0009
  859MOL0     H15922   4.361   2.647   0.261 -1.6075  0.1499  1.2507
  859MOL0     H15923   4.129   2.649   0.305  1.3174  0.3968  2.8450
  859MOL0     H15924   4.186   2.505   0.394 -0.4161 -0.5465 -0.9280
  859MOL0     H15925   3.956   2.556   0.485 -3.0199  0.1949  0.9448
  859MOL0     H15926   3.856   2.416   0.640  2.1473  1.7281 -1.3230
  859MOL0     H15927   3.840   2.181   0.939 -0.1361  0.3122 -0.9601
  859MOL0     H15928   3.760   2.057   1.148  1.4156  2.2236 -0.5504
  859MOL0     H15929   3.323   1.923   1.118 -1.2997  0.4646  2.3348
  859MOL0     H15930   3.410   1.767   1.084  1.2803  2.6010 -1.6426
  859MOL0     H15931   3.460   1.730   1.320  1.5833  1.7687 -0.0295
  859MOL0     H15932   3.377   1.875   1.371  0.1535 -1.4849  1.5185
  859MOL0     H15933   3.174   1.814   1.283  0.8315  2.5634  0.1822
  859MOL0     H15934   3.226   1.658   1.220  1.1744  0.7973  0.3403
  859MOL0     H15935   3.227   1.745   1.502 -0.8694  1.6254 -2.3247
  859MOL0     H15936   3.272   1.576   1.447  1.1336  1.4350  2.8932
  859MOL0     H15937   3.000   1.704   1.416 -3.4851 -1.7943  1.1652
  859MOL0     H15938   3.043   1.599   1.544 -0.1751 -3.2762 -0.9683
  859MOL0     H15939   3.040   1.530   1.247 -1.0583 -1.7013 -1.0694
  859MOL0     H15940   3.098   1.422   1.383  0.7293  2.7342  2.2424
  859MOL0     H15941   2.853   1.404   1.282  0.3877 -2.4393  0.2334
  859MOL0     H15942   2.821   1.532   1.413 -0.7473 -0.5988  0.5362
  859MOL0     H15943   2.784   1.275   1.449  1.5622 -1.5590 -0.6019
  859MOL0     H15944   2.956   1.248   1.454 -0.6852 -2.3867  0.8352
  859MOL0     H15945   3.410   1.942   0.922 -0.9118  1.6469 -0.0175
  859MOL0     H15946   3.495   2.072   0.733  0.7566 -1.5856 -1.7806
  859MOL0     H15947   3.853   2.092   0.379 -3.4524  0.5453  1.2871
  859MOL0     H15948   4.007   2.211   0.225  1.0511  4.2899 -1.1533
  859MOL0     H15949   4.009   1.862   0.443  1.0881 -3.4275  3.6142
  859MOL0     H15950   3.788   1.783   0.437  0.5869  1.3231 -0.7499
  859MOL0     H15951   3.330   1.641   0.337 -2.5490 -1.3239 -0.8324
  859MOL0     H15952   3.162   1.502   0.322  0.6452  0.9182 -0.6755
  859MOL0     H15953   3.169   1.215   0.572 -2.9936  1.2934 -1.5209
  859MOL0     H15954   3.226   1.079   0.476  0.5719  0.1523  2.5079
  859MOL0     H15955   3.037   1.022   0.591 -3.5682  1.3619  1.4273
  859MOL0     H15956   2.993   1.016   0.414 -0.7604 -0.1988  0.2155
  859MOL0     H15957   2.897   1.236   0.451  3.0450 -1.9384 -2.0755
  859MOL0     H15958   2.942   1.234   0.620  1.8215  1.0297 -2.0625
  859MOL0     H15959   2.683   1.159   0.540  0.3775 -1.0807  1.9882
  859MOL0     H15960   2.751   1.004   0.512 -0.7811 -0.6248 -0.5123
  859MOL0     H15961   2.763   1.006   0.934  1.3968 -1.4553 -1.5127
  859MOL0     H15962   3.414   1.164   0.396 -0.8316  0.8090 -0.5490
  859MOL0     H15963   3.701   1.301   0.295  0.9980 -0.5899  0.1568
  859MOL0     H15964   3.690   1.329   0.475 -1.6676  1.9416 -0.0861
  859MOL0     H15965   3.630   1.179   0.392 -1.3860  0.0011 -0.5525
  860MOL0     O15966  11.358   1.906   9.823  0.0272 -0.0340 -0.7304
  860MOL0     C15967  11.476   1.933   9.795  0.4285  0.3037 -0.0444
  860MOL0     O15968  11.584   1.877   9.854 -0.4839 -0.5517  0.7752
  860MOL0     C15969  11.572   1.787   9.959  0.2604 -0.0842 -0.9916
  860MOL0     C15970  11.487   1.804  10.072 -0.1152  0.0517  0.4413
  860MOL0     C15971  11.490   1.712  10.181  1.0727 -0.7889 -0.2731
  860MOL0     C15972  11.574   1.598  10.179  0.3704 -0.5115  0.1447
  860MOL0     O15973  11.590   1.498  10.277  0.3988  0.1435 -0.7147
  860MOL0     C15974  11.659   1.548  10.386 -0.0036  0.6080 -1.0830
  860MOL0     C15975  11.678   1.449  10.493 -0.8202  0.4674 -0.0885
  860MOL0     C15976  11.540   1.395  10.553 -0.4260 -0.7863 -0.3444
  860MOL0     C15977  11.553   1.370  10.697  0.5884  0.1925  0.3557
  860MOL0     C15978  11.601   1.228  10.720 -0.2904  0.3995 -0.1608
  860MOL0     C15979  11.616   1.189  10.870 -0.6804 -0.2661  0.7926
  860MOL0     C15980  11.500   1.216  10.955 -0.2155 -0.7781 -1.2454
  860MOL0     C15981  11.549   1.216  11.104  0.3461 -0.5313 -0.1922
  860MOL0     N15982  11.525   1.088  11.169 -0.0309  0.4892 -1.2843
  860MOL0     C15983  11.403   1.033  11.201 -0.2808  1.0944  0.1825
  860MOL0     C15984  11.417   0.954  11.301 -0.0750  1.0770  0.1144
  860MOL0     C15985  11.308   0.866  11.367  0.6763 -0.8440 -0.5996
  860MOL0     C15986  11.259   0.760  11.269 -0.7955  0.2834  0.0042
  860MOL0     C15987  11.140   0.677  11.305 -0.1673  0.2111 -0.4462
  860MOL0     C15988  11.163   0.598  11.435  0.2876  0.0350  0.7131
  860MOL0     O15989  11.217   0.466  11.422 -0.3804 -0.1246 -0.0591
  860MOL0     C15990  11.326   0.452  11.507  0.2062  0.4725  0.6839
  860MOL0     C15991  11.328   0.324  11.570  0.4346 -0.2453 -0.6757
  860MOL0     C15992  11.428   0.278  11.653 -0.6693  0.3596 -0.9604
  860MOL0     C15993  11.546   0.361  11.669  0.6102  0.2908 -0.1778
  860MOL0     C15994  11.665   0.317  11.748  0.4407 -0.7344 -0.1138
  860MOL0     O15995  11.750   0.422  11.781  1.3247  0.1974  0.6987
  860MOL0     C15996  11.848   0.393  11.879  0.5820 -0.0820  1.3093
  860MOL0     C15997  11.811   0.334  12.004  0.7682 -0.2057 -0.6488
  860MOL0     C15998  11.898   0.299  12.094 -0.3330  0.4416 -0.5956
  860MOL0     C15999  12.036   0.310  12.079  0.2626 -0.0805  1.3343
  860MOL0     O16000  12.121   0.275  12.169 -1.0286 -0.1146  0.1480
  860MOL0     C16001  12.253   0.230  12.137 -0.5238 -0.3119 -0.1987
  860MOL0     C16002  12.325   0.201  12.263  0.2355  0.1575  0.1937
  860MOL0     C16003  12.376   0.327  12.335  0.0392 -0.2302  0.6107
  860MOL0     C16004  12.437   0.283  12.464 -0.0128 -0.3806  0.0226
  860MOL0     C16005  12.474   0.410  12.540  0.4433 -0.7911 -0.3732
  860MOL0     C16006  12.511   0.369  12.683  0.5567 -0.0599  0.1154
  860MOL0     C16007  12.541   0.501  12.747 -1.3847  0.3091  0.7067
  860MOL0     C16008  12.585   0.485  12.890 -0.0695 -0.2126  0.2679
  860MOL0    Cl16009  12.638   0.649  12.960  0.0335 -0.6289  0.2099
  860MOL0     C16010  12.080   0.364  11.946  0.0180 -0.2099 -0.8149
  860MOL0     C16011  11.981   0.410  11.856 -0.0205  0.8415  0.5207
  860MOL0     O16012  11.675   0.206  11.797 -0.5377 -0.0566  0.7592
  860MOL0     C16013  11.546   0.483  11.595  1.0585 -0.4954 -0.2231
  860MOL0     C16014  11.440   0.525  11.511 -1.0694 -0.2102 -0.5723
  860MOL0     N16015  11.552   0.941  11.328 -0.6658  0.2933 -0.4205
  860MOL0     N16016  11.612   1.018  11.254 -0.2908 -0.3294  0.4933
  860MOL0     C16017  11.660   1.589  10.066  0.4938 -0.7680  0.0963
  860MOL0     C16018  11.651   1.679   9.950 -0.5836  0.0414 -0.7442
  860MOL0     C16019  11.500   2.004   9.667 -0.5386  0.1906  0.4584
  860MOL0     C16020  11.386   2.014   9.586 -0.4341  0.3712 -0.0821
  860MOL0     C16021  11.398   2.075   9.457  0.4670  0.2999 -0.9052
  860MOL0     C16022  11.520   2.135   9.418  0.2692 -0.4466 -0.0258
  860MOL0     O16023  11.548   2.179   9.287  0.2044  0.1738 -1.2218
  860MOL0     C16024  11.530   2.093   9.175  0.6077 -0.1202 -0.1132
  860MOL0     C16025  11.593   2.153   9.047 -0.4139 -0.1237 -0.6834
  860MOL0     C16026  11.514   2.274   8.999 -0.6989  0.3742  0.8013
  860MOL0     C16027  11.542   2.304   8.858  0.0225 -0.7255  0.3553
  860MOL0     C16028  11.684   2.335   8.841  0.1615  0.1187  0.3229
  860MOL0     C16029  11.806   2.348   8.817 -0.1590  0.3494 -0.7680
  860MOL0     C16030  11.624   2.129   9.506 -0.9421  0.0721 -0.0111
  860MOL0     C16031  11.626   2.069   9.626  0.6948  0.3070 -0.3772
  860MOL0     C16032  11.754   2.071   9.696 -0.7803 -0.2460  0.3502
  860MOL0     H16033  11.421   1.889  10.082 -0.8898 -0.4846 -0.0675
  860MOL0     H16034  11.429   1.730  10.269  2.6641  1.9899  0.3943
  860MOL0     H16035  11.748   1.595  10.344 -0.7824  0.4769 -2.9986
  860MOL0     H16036  11.608   1.634  10.429 -0.6977  0.2339 -1.1347
  860MOL0     H16037  11.741   1.499  10.568  0.0392  0.1906 -0.6041
  860MOL0     H16038  11.742   1.366  10.462 -2.3061 -1.2897  1.3841
  860MOL0     H16039  11.515   1.303  10.499 -2.8585 -0.0132 -0.6654
  860MOL0     H16040  11.456   1.459  10.527  1.2997  1.2573 -1.1732
  860MOL0     H16041  11.601   1.456  10.744 -2.5552  1.0143  2.3863
  860MOL0     H16042  11.449   1.370  10.733 -0.0408  1.0531 -1.3387
  860MOL0     H16043  11.533   1.155  10.673 -1.5706  0.8941  0.8576
  860MOL0     H16044  11.700   1.218  10.675  0.0471  1.7081  0.2560
  860MOL0     H16045  11.634   1.081  10.871  3.6911  0.2763 -0.1589
  860MOL0     H16046  11.708   1.239  10.900  0.9248 -3.7377  2.2217
  860MOL0     H16047  11.414   1.150  10.942 -1.9042  1.2824 -1.0602
  860MOL0     H16048  11.466   1.319  10.943  0.0566 -0.6678 -1.0946
  860MOL0     H16049  11.657   1.237  11.106 -0.0243  1.6270  1.8576
  860MOL0     H16050  11.506   1.299  11.160  2.9573  0.6988  0.1509
  860MOL0     H16051  11.309   1.072  11.163 -1.8203 -1.2422  1.3503
  860MOL0     H16052  11.372   0.827  11.446 -0.1850 -0.4926  0.2879
  860MOL0     H16053  11.224   0.925  11.404  2.1363  0.7478  0.3144
  860MOL0     H16054  11.226   0.812  11.178 -0.8913  0.9193  0.3964
  860MOL0     H16055  11.340   0.690  11.245 -1.4184  0.4048 -2.8307
  860MOL0     H16056  11.122   0.605  11.224 -1.4412 -0.9544  0.8280
  860MOL0     H16057  11.043   0.723  11.325  0.8066  1.8094  0.8052
  860MOL0     H16058  11.061   0.584  11.470 -0.1979  1.5043 -0.0160
  860MOL0     H16059  11.208   0.665  11.509 -1.1061  0.0417  1.5905
  860MOL0     H16060  11.242   0.261  11.552 -0.0430 -0.2003  1.2315
  860MOL0     H16061  11.428   0.179  11.698  1.4557  1.1745  1.0788
  860MOL0     H16062  11.706   0.325  12.031 -0.1434  1.9296 -3.0335
  860MOL0     H16063  11.869   0.281  12.197  1.9113  0.9620  0.1738
  860MOL0     H16064  12.244   0.140  12.077  2.1999  0.2296 -1.5786
  860MOL0     H16065  12.316   0.305  12.088 -1.1215  1.5801  1.7647
  860MOL0     H16066  12.262   0.144  12.333  0.7524 -1.8380 -0.8793
  860MOL0     H16067  12.415   0.140  12.249  1.2266  1.5662  0.2754
  860MOL0     H16068  12.446   0.391  12.280  0.5350 -0.1209  1.3494
  860MOL0     H16069  12.287   0.389  12.351 -2.3246 -3.2703  0.1772
  860MOL0     H16070  12.529   0.223  12.470 -0.0148 -0.2655  3.0542
  860MOL0     H16071  12.354   0.242  12.523 -1.3960 -0.1007 -1.6733
  860MOL0     H16072  12.386   0.475  12.542 -0.2929 -1.7545  2.1358
  860MOL0     H16073  12.556   0.463  12.490 -0.6915  1.2025 -0.2295
  860MOL0     H16074  12.425   0.319  12.726  0.7561 -0.4089  0.1121
  860MOL0     H16075  12.599   0.304  12.680  0.3544 -0.3294 -2.8638
  860MOL0     H16076  12.452   0.563  12.733 -1.3317 -0.2135 -2.9907
  860MOL0     H16077  12.620   0.556  12.696 -0.1711 -0.4599  1.6970
  860MOL0     H16078  12.504   0.436  12.944 -0.5543 -1.4958 -1.5243
  860MOL0     H16079  12.672   0.419  12.891  1.3799  1.5632 -1.1377
  860MOL0     H16080  12.183   0.370  11.913  0.4515  0.8967  0.6294
  860MOL0     H16081  11.998   0.442  11.753 -2.9129  1.8375  0.2597
  860MOL0     H16082  11.633   0.547  11.592  0.0790  0.8395 -1.1078
  860MOL0     H16083  11.468   0.606  11.444 -1.1852  1.7583  1.5980
  860MOL0     H16084  11.724   1.502  10.058 -0.5352 -1.4729 -0.7607
  860MOL0     H16085  11.703   1.667   9.855 -2.2113  1.5679 -1.9021
  860MOL0     H16086  11.294   1.961   9.610  1.8578 -3.2787  1.6104
  860MOL0     H16087  11.328   2.059   9.377 -0.3646 -0.4746 -0.0455
  860MOL0     H16088  11.424   2.076   9.159  0.9379 -2.1618 -0.3723
  860MOL0     H16089  11.571   1.994   9.197 -0.7242 -0.7563 -0.4480
  860MOL0     H16090  11.600   2.073   8.973 -1.2637 -0.9202  0.0617
  860MOL0     H16091  11.691   2.192   9.075 -1.5325  1.3276  1.5519
  860MOL0     H16092  11.546   2.359   9.060  0.3968  0.7116 -0.1939
  860MOL0     H16093  11.408   2.253   9.009 -0.4401 -1.9166 -0.5260
  860MOL0     H16094  11.521   2.221   8.790  0.4712 -1.4374  1.0697
  860MOL0     H16095  11.462   2.372   8.829 -2.0736 -3.6215 -1.1804
  860MOL0     H16096  11.911   2.368   8.814 -0.2478  1.3271  0.9809
  860MOL0     H16097  11.710   2.182   9.467 -0.1181 -0.0759  1.5182
  860MOL0     H16098  11.839   2.099   9.634 -0.5422  1.6522  1.4815
  860MOL0     H16099  11.738   2.144   9.776 -1.1869  0.6903 -0.5593
  860MOL0     H16100  11.786   1.978   9.746  3.0947 -0.4414 -2.0921
  861MOL0     O16101   7.763   1.549   3.851 -0.3046  0.4299  0.8325
  861MOL0     C16102   7.664   1.624   3.823  0.1660 -0.5773  1.2756
  861MOL0     O16103   7.678   1.753   3.807  0.2088  0.0498  0.2044
  861MOL0     C16104   7.805   1.808   3.805 -0.1476 -0.4449 -0.1391
  861MOL0     C16105   7.844   1.884   3.691 -0.2497  0.2376  0.6876
  861MOL0     C16106   7.968   1.954   3.688 -0.0315  0.0718  0.0740
  861MOL0     C16107   8.060   1.944   3.806  0.5785 -0.6680  0.4174
  861MOL0     O16108   8.183   1.997   3.826 -0.3039  0.6261 -0.0990
  861MOL0     C16109   8.220   2.106   3.747 -0.0127 -0.0888  0.7077
  861MOL0     C16110   8.316   2.210   3.814 -0.6859 -0.4086 -0.4913
  861MOL0     C16111   8.231   2.331   3.869 -0.0741  0.0006 -0.3521
  861MOL0     C16112   8.320   2.439   3.912 -0.5096  0.7252 -0.1090
  861MOL0     C16113   8.245   2.553   3.976  0.0048 -0.0811 -0.3726
  861MOL0     C16114   8.346   2.652   4.035  0.0438  0.6943  0.8734
  861MOL0     C16115   8.298   2.784   4.101 -0.4652 -0.2973 -0.2565
  861MOL0     C16116   8.237   2.762   4.244 -0.1132 -0.0769 -0.3490
  861MOL0     N16117   8.338   2.705   4.342 -0.0886  0.8624  0.3895
  861MOL0     C16118   8.447   2.773   4.373  0.4872  0.2788 -0.4593
  861MOL0     C16119   8.519   2.703   4.465  0.4799  0.1002 -0.0392
  861MOL0     C16120   8.647   2.733   4.528 -0.0735 -0.8717  0.8796
  861MOL0     C16121   8.757   2.698   4.424  0.8510  1.3165 -0.6216
  861MOL0     C16122   8.890   2.739   4.486  0.2390 -0.1573  1.0802
  861MOL0     C16123   9.000   2.678   4.392  0.7900  0.6943  0.9234
  861MOL0     O16124   8.993   2.757   4.273 -0.6553  0.5094 -0.4562
  861MOL0     C16125   9.096   2.741   4.192 -0.1173 -0.5791  0.6425
  861MOL0     C16126   9.118   2.860   4.116 -0.3466 -1.3245 -0.5835
  861MOL0     C16127   9.218   2.853   4.026  0.7280  0.4782  0.6696
  861MOL0     C16128   9.311   2.744   4.002  0.0130  0.9280  0.4734
  861MOL0     C16129   9.421   2.748   3.897 -0.0615  0.1252  0.0230
  861MOL0     O16130   9.441   2.851   3.814  0.0984  0.3069 -0.1168
  861MOL0     C16131   9.512   2.822   3.699 -0.4622  1.3568 -0.4537
  861MOL0     C16132   9.442   2.798   3.580  1.2261 -0.1796 -0.3205
  861MOL0     C16133   9.510   2.780   3.460  0.0550  0.5495 -0.5845
  861MOL0     C16134   9.653   2.761   3.463  0.3316 -0.3322  1.6525
  861MOL0     O16135   9.718   2.736   3.347 -0.0378 -0.0302 -0.5998
  861MOL0     C16136   9.677   2.619   3.271  0.8377 -0.1420 -0.6264
  861MOL0     C16137   9.793   2.584   3.180 -0.0572 -0.4562 -0.6959
  861MOL0     C16138   9.756   2.473   3.083 -0.7358  0.0637 -0.4363
  861MOL0     C16139   9.812   2.476   2.937  0.1027 -1.0624  0.7412
  861MOL0     C16140   9.963   2.484   2.944 -0.2361  0.5861  0.6007
  861MOL0     C16141  10.032   2.446   2.810 -0.2034  0.8537 -0.6299
  861MOL0     C16142  10.149   2.540   2.797  1.3105  0.5264 -0.7475
  861MOL0     C16143  10.198   2.525   2.649  0.0224  0.4837 -0.2344
  861MOL0    Cl16144  10.284   2.373   2.640 -0.1806 -0.9019 -0.0939
  861MOL0     C16145   9.725   2.781   3.580  0.2790  0.0161  0.0715
  861MOL0     C16146   9.650   2.808   3.689  0.1261  0.0008 -0.1597
  861MOL0     O16147   9.483   2.642   3.900 -0.8615  0.6025 -0.7304
  861MOL0     C16148   9.301   2.633   4.095  0.5657 -0.8345 -0.4322
  861MOL0     C16149   9.187   2.632   4.188  0.0315  1.3132 -0.0435
  861MOL0     N16150   8.442   2.583   4.483 -0.4333 -0.1315 -0.4114
  861MOL0     N16151   8.336   2.587   4.413  0.4561 -0.3781 -0.6854
  861MOL0     C16152   8.016   1.871   3.913  0.0121  0.1600 -0.2368
  861MOL0     C16153   7.892   1.804   3.914 -0.2546  0.5250 -0.5349
  861MOL0     C16154   7.536   1.558   3.787 -0.1381 -0.0573  0.7656
  861MOL0     C16155   7.520   1.416   3.818 -0.3491 -0.5568 -1.1506
  861MOL0     C16156   7.393   1.349   3.797 -0.1483 -0.0835  0.0838
  861MOL0     C16157   7.285   1.420   3.746  0.3362  0.0062 -0.0123
  861MOL0     O16158   7.157   1.381   3.722  0.8881 -0.1809 -0.2464
  861MOL0     C16159   7.150   1.276   3.617 -0.1960  0.1968 -0.3229
  861MOL0     C16160   7.037   1.295   3.516 -0.3172 -0.3803 -0.4479
  861MOL0     C16161   7.047   1.420   3.437 -0.5215 -0.8792  1.1265
  861MOL0     C16162   6.934   1.432   3.333 -1.2579 -0.7551  0.5312
  861MOL0     C16163   6.956   1.331   3.228  0.6287  0.0560  0.3320
  861MOL0     C16164   6.974   1.234   3.158  0.8751  0.2089  0.2708
  861MOL0     C16165   7.302   1.558   3.716  0.9376 -0.3253 -0.1879
  861MOL0     C16166   7.424   1.633   3.737  0.2467  0.6514 -0.3711
  861MOL0     C16167   7.429   1.767   3.681 -0.6301 -0.6933  1.0516
  861MOL0     H16168   7.777   1.892   3.606  2.2550  1.5513 -1.2890
  861MOL0     H16169   7.991   2.006   3.596 -0.7759  0.3722  0.0504
  861MOL0     H16170   8.275   2.067   3.661 -1.8659  2.2689 -1.7279
  861MOL0     H16171   8.123   2.157   3.736  0.3145  1.2598  3.2767
  861MOL0     H16172   8.404   2.234   3.755 -0.5198  1.5730  0.4991
  861MOL0     H16173   8.358   2.170   3.906 -2.1972  1.3282  1.0457
  861MOL0     H16174   8.167   2.298   3.952  2.9840  3.2244  3.7655
  861MOL0     H16175   8.157   2.366   3.797  0.1981  0.3865 -0.4460
  861MOL0     H16176   8.380   2.381   3.982 -2.7238 -1.8944 -0.2115
  861MOL0     H16177   8.380   2.484   3.832  1.8504  2.3386  2.3998
  861MOL0     H16178   8.184   2.602   3.899 -0.5007 -1.8489 -1.1642
  861MOL0     H16179   8.183   2.503   4.052 -0.0476  0.2014 -0.2293
  861MOL0     H16180   8.416   2.605   4.105 -1.5151  0.1336  2.1181
  861MOL0     H16181   8.407   2.679   3.948 -1.2894 -0.1501 -0.3734
  861MOL0     H16182   8.223   2.830   4.037 -1.9353  0.0797  1.6484
  861MOL0     H16183   8.364   2.870   4.119 -3.5600  2.4859 -1.2998
  861MOL0     H16184   8.204   2.862   4.272 -3.0024 -0.8006 -0.9096
  861MOL0     H16185   8.152   2.695   4.231  0.8831 -1.0235 -2.4774
  861MOL0     H16186   8.481   2.864   4.325  1.2075 -0.3203 -1.1177
  861MOL0     H16187   8.664   2.830   4.577 -1.1801 -0.2584  0.0970
  861MOL0     H16188   8.655   2.672   4.618  1.3479 -0.3666  1.1265
  861MOL0     H16189   8.737   2.591   4.410  0.2080  1.7148 -3.2571
  861MOL0     H16190   8.732   2.756   4.334 -1.3827  2.7905  0.8457
  861MOL0     H16191   8.894   2.710   4.592  1.6529 -0.0722  1.0725
  861MOL0     H16192   8.913   2.846   4.491  4.2689 -0.6815 -1.7143
  861MOL0     H16193   8.983   2.574   4.365 -0.7967  0.4323  2.7264
  861MOL0     H16194   9.091   2.699   4.451 -0.0111 -0.8602  2.8259
  861MOL0     H16195   9.064   2.953   4.130  1.6795 -0.2002  0.1361
  861MOL0     H16196   9.217   2.933   3.953 -2.8047  0.3300  0.3962
  861MOL0     H16197   9.333   2.793   3.583  0.8953  3.9273 -0.1901
  861MOL0     H16198   9.463   2.776   3.362 -2.8288  0.9848  0.6786
  861MOL0     H16199   9.645   2.530   3.326  2.3558  0.1246  0.7487
  861MOL0     H16200   9.592   2.650   3.210 -0.0549  1.4280  1.3225
  861MOL0     H16201   9.825   2.665   3.113 -0.9097 -0.4503 -1.1167
  861MOL0     H16202   9.880   2.559   3.242  1.0072  0.2219 -1.8696
  861MOL0     H16203   9.781   2.378   3.132  1.8253  1.9050  2.1798
  861MOL0     H16204   9.649   2.478   3.060 -0.1630 -0.2377 -3.6515
  861MOL0     H16205   9.776   2.566   2.887 -1.1519 -3.1948 -2.4559
  861MOL0     H16206   9.778   2.394   2.874 -1.1233  1.6878 -2.4431
  861MOL0     H16207  10.001   2.415   3.021 -0.6707  1.3454  1.5225
  861MOL0     H16208   9.994   2.581   2.985  3.1371 -1.2747  2.9469
  861MOL0     H16209  10.061   2.340   2.815  0.5300  1.1058  3.1245
  861MOL0     H16210   9.955   2.461   2.734  0.5765  1.7945 -1.2588
  861MOL0     H16211  10.217   2.507   2.877  2.7729 -0.1177 -2.1802
  861MOL0     H16212  10.124   2.645   2.812  1.3969  0.1226  3.1828
  861MOL0     H16213  10.113   2.518   2.581  0.7836 -0.1222 -1.1490
  861MOL0     H16214  10.257   2.612   2.617  0.8003  1.1195  2.6231
  861MOL0     H16215   9.827   2.747   3.594  0.0942 -1.7428 -2.2048
  861MOL0     H16216   9.711   2.822   3.778 -0.9962 -2.1812  1.0400
  861MOL0     H16217   9.372   2.553   4.114 -0.3151 -1.1953  1.6637
  861MOL0     H16218   9.171   2.551   4.259  1.8160  0.7228 -0.2632
  861MOL0     H16219   8.097   1.846   3.981  0.2461 -1.0908 -0.9397
  861MOL0     H16220   7.856   1.739   3.993 -0.2107  0.6812 -0.3862
  861MOL0     H16221   7.604   1.365   3.865 -0.0535  1.5434  0.7784
  861MOL0     H16222   7.391   1.241   3.806 -1.5170  0.0735  2.3346
  861MOL0     H16223   7.133   1.185   3.675 -1.1188  0.3471 -0.3486
  861MOL0     H16224   7.241   1.281   3.556 -0.9575 -0.4136 -1.5427
  861MOL0     H16225   6.939   1.292   3.564 -0.5128 -2.3953 -0.8623
  861MOL0     H16226   7.034   1.206   3.453  0.5770  1.5676 -3.4423
  861MOL0     H16227   7.145   1.424   3.389 -0.0253 -2.1897  1.9661
  861MOL0     H16228   7.048   1.509   3.501 -4.5811 -0.6238  1.0704
  861MOL0     H16229   6.837   1.413   3.381 -2.0689  0.8282 -0.4071
  861MOL0     H16230   6.918   1.530   3.288  1.0348 -0.9272 -0.8016
  861MOL0     H16231   6.991   1.154   3.089  3.8484  0.1116  0.9581
  861MOL0     H16232   7.213   1.605   3.677  0.3464 -2.1461 -1.1543
  861MOL0     H16233   7.444   1.838   3.762  1.9623 -0.5145  0.5207
  861MOL0     H16234   7.505   1.779   3.603 -2.4757 -0.3784 -0.7669
  861MOL0     H16235   7.339   1.789   3.624 -0.7559 -1.0392  1.1113
  862MOL0     O16236   3.849   1.780   7.321  0.2502 -0.1439  0.6306
  862MOL0     C16237   3.843   1.788   7.195 -0.4427 -0.1401  0.3943
  862MOL0     O16238   3.742   1.855   7.121 -0.0539 -0.8097  0.6757
  862MOL0     C16239   3.644   1.941   7.167 -0.6510  0.0876 -0.1500
  862MOL0     C16240   3.533   1.973   7.078 -0.5043 -0.8554 -0.2765
  862MOL0     C16241   3.431   2.055   7.127 -0.0763  0.2849 -0.3360
  862MOL0     C16242   3.427   2.103   7.259  1.0054  0.0209  0.0265
  862MOL0     O16243   3.325   2.185   7.315  0.2709  0.2167  0.2071
  862MOL0     C16244   3.185   2.171   7.276 -0.4722 -0.1241 -0.8559
  862MOL0     C16245   3.095   2.250   7.368 -0.5036 -0.2356 -0.5384
  862MOL0     C16246   2.949   2.215   7.324  0.6536 -0.1142  1.2887
  862MOL0     C16247   2.909   2.075   7.326  0.7812  0.3897  0.3225
  862MOL0     C16248   2.759   2.069   7.278 -0.3974 -0.4302 -0.5242
  862MOL0     C16249   2.680   1.941   7.317 -0.9105 -0.3479 -0.1099
  862MOL0     C16250   2.539   1.935   7.252 -0.6782 -1.1925  0.7376
  862MOL0     C16251   2.550   1.902   7.100 -0.0555 -0.8199  0.4858
  862MOL0     N16252   2.478   1.996   7.022  0.5455 -0.9124  0.1500
  862MOL0     C16253   2.373   1.968   6.949  0.2778 -0.8197 -0.1114
  862MOL0     C16254   2.339   2.088   6.886  0.3395  0.8036 -0.5846
  862MOL0     C16255   2.221   2.101   6.812  1.0545  0.2163  0.9149
  862MOL0     C16256   2.104   1.999   6.835  1.2102  0.6414 -0.0107
  862MOL0     C16257   2.051   1.980   6.975 -0.3686  0.3548 -0.2656
  862MOL0     C16258   1.956   1.863   6.989 -0.4528 -0.1623 -0.0894
  862MOL0     O16259   1.992   1.737   6.937 -0.7186  1.3690 -1.1062
  862MOL0     C16260   2.117   1.691   6.972 -0.2264 -0.8079 -0.0617
  862MOL0     C16261   2.155   1.690   7.102  0.1150 -0.3535  0.0167
  862MOL0     C16262   2.278   1.635   7.141 -0.0193 -0.0035  1.0427
  862MOL0     C16263   2.367   1.585   7.043  0.2178 -0.2972  0.3030
  862MOL0     C16264   2.498   1.518   7.079  0.1701 -0.3742 -0.3294
  862MOL0     O16265   2.531   1.531   7.207 -0.2730 -0.2025  0.6148
  862MOL0     C16266   2.639   1.467   7.251 -0.0624  0.0709 -0.1587
  862MOL0     C16267   2.761   1.541   7.269  0.0306  0.1092  0.9000
  862MOL0     C16268   2.878   1.480   7.317  0.8756  0.3990  0.9632
  862MOL0     C16269   2.872   1.346   7.365  0.1936 -0.5989 -0.4638
  862MOL0     O16270   2.974   1.272   7.420 -1.2002 -0.0054  0.4247
  862MOL0     C16271   3.091   1.344   7.462  0.6111 -0.0441  0.3361
  862MOL0     C16272   3.159   1.254   7.567  0.7155 -0.2116  0.8470
  862MOL0     C16273   3.287   1.321   7.636 -0.1199 -0.5547  0.0087
  862MOL0     C16274   3.347   1.239   7.748  0.6579 -1.0287  0.0309
  862MOL0     C16275   3.378   1.093   7.739  0.6012 -0.1932 -0.6649
  862MOL0     C16276   3.464   1.057   7.613  0.2816  0.1826 -0.3398
  862MOL0     C16277   3.561   0.937   7.645 -0.0579 -0.3225  0.4250
  862MOL0     C16278   3.653   0.903   7.527  0.8242 -0.3817  0.5480
  862MOL0    Cl16279   3.752   0.757   7.547  0.4686 -0.0520  0.3425
  862MOL0     C16280   2.751   1.273   7.350  0.7976 -1.2937 -0.9732
  862MOL0     C16281   2.633   1.344   7.304  0.4959 -0.7147  0.6531
  862MOL0     O16282   2.560   1.460   6.989  0.7193 -0.3236 -0.1291
  862MOL0     C16283   2.321   1.580   6.908  0.6163 -1.5439 -0.0853
  862MOL0     C16284   2.196   1.630   6.873  0.5389 -0.4039  0.3947
  862MOL0     N16285   2.418   2.194   6.937 -0.2629  0.1066 -0.3448
  862MOL0     N16286   2.507   2.127   7.001 -0.3289  0.1412 -0.4793
  862MOL0     C16287   3.544   2.091   7.330 -0.3494 -0.0553  0.6209
  862MOL0     C16288   3.646   2.007   7.294 -0.3225 -0.4332  0.5841
  862MOL0     C16289   3.963   1.724   7.121  0.6876 -0.8077 -0.2930
  862MOL0     C16290   4.072   1.687   7.206 -0.5090 -0.6011  0.0753
  862MOL0     C16291   4.174   1.601   7.163  0.4514  0.3088  0.1150
  862MOL0     C16292   4.180   1.569   7.032 -0.8424 -0.5909  0.4461
  862MOL0     O16293   4.285   1.496   6.977 -0.8428 -0.1823  0.0427
  862MOL0     C16294   4.376   1.431   7.064  0.0332  0.3327  0.3311
  862MOL0     C16295   4.433   1.299   6.995  1.0502  0.0142  0.5892
  862MOL0     C16296   4.539   1.225   7.074  0.2963 -0.1740  0.0524
  862MOL0     C16297   4.678   1.292   7.064 -0.3805  0.1716  0.0126
  862MOL0     C16298   4.756   1.237   6.958  0.5645  0.9746 -0.1068
  862MOL0     C16299   4.815   1.183   6.867 -0.9308  0.1018 -0.5927
  862MOL0     C16300   4.089   1.616   6.947  0.8914 -0.2969  0.3811
  862MOL0     C16301   3.973   1.689   6.990 -0.3771  0.9215  0.2498
  862MOL0     C16302   3.860   1.696   6.892 -0.9203 -0.0377  0.4050
  862MOL0     H16303   3.527   1.918   6.985  3.0402 -1.0974 -0.5140
  862MOL0     H16304   3.351   2.084   7.060 -0.0050 -2.1861 -1.5718
  862MOL0     H16305   3.170   2.207   7.174 -1.6867  0.7060 -0.4096
  862MOL0     H16306   3.160   2.064   7.282  3.4233 -1.1222  1.6902
  862MOL0     H16307   3.118   2.357   7.364  1.2863 -0.6374 -2.2534
  862MOL0     H16308   3.111   2.227   7.474  2.4612  1.4347 -0.5114
  862MOL0     H16309   2.930   2.234   7.218 -3.1232 -1.1196  1.6583
  862MOL0     H16310   2.878   2.278   7.378 -0.6971 -1.2001  0.8274
  862MOL0     H16311   2.962   2.010   7.257 -0.6424  0.7010 -1.1270
  862MOL0     H16312   2.915   2.030   7.426 -0.0893  2.0433  1.1769
  862MOL0     H16313   2.713   2.158   7.322  3.3946  1.0561  0.8002
  862MOL0     H16314   2.765   2.080   7.169  3.6442 -1.1511 -0.5134
  862MOL0     H16315   2.737   1.857   7.279 -0.2677 -1.7018  3.4455
  862MOL0     H16316   2.677   1.943   7.426 -0.4679  1.2137 -0.1001
  862MOL0     H16317   2.490   2.032   7.264 -0.6142 -0.8768 -1.2403
  862MOL0     H16318   2.476   1.856   7.296 -1.5346 -0.2676  1.2000
  862MOL0     H16319   2.658   1.897   7.082 -0.1020 -3.0981  0.5924
  862MOL0     H16320   2.500   1.805   7.091 -1.6838 -0.1850  2.0742
  862MOL0     H16321   2.339   1.865   6.946 -0.1935 -0.8895  3.2580
  862MOL0     H16322   2.183   2.203   6.822 -0.6735 -0.3273  0.2890
  862MOL0     H16323   2.240   2.099   6.704 -3.2062 -0.8542  0.0093
  862MOL0     H16324   2.015   2.039   6.785  0.3989 -2.1773 -1.0116
  862MOL0     H16325   2.119   1.900   6.792  0.5508  1.0845 -1.3075
  862MOL0     H16326   1.990   2.063   7.011 -0.4645 -1.1173  3.3463
  862MOL0     H16327   2.130   1.977   7.050 -0.0455  2.4470 -0.4799
  862MOL0     H16328   1.864   1.908   6.952  0.3099  0.4890 -1.2802
  862MOL0     H16329   1.931   1.859   7.095  0.1624 -2.8467  0.0316
  862MOL0     H16330   2.081   1.728   7.171 -0.9222 -1.3187 -0.5271
  862MOL0     H16331   2.301   1.628   7.247  3.2710 -0.1392  0.4141
  862MOL0     H16332   2.762   1.643   7.234 -0.7117 -1.2964 -3.9159
  862MOL0     H16333   2.969   1.536   7.296  0.6496 -0.1934 -1.9948
  862MOL0     H16334   3.149   1.371   7.373 -2.6974  3.3048 -1.0494
  862MOL0     H16335   3.060   1.438   7.507 -1.2574 -0.0049 -0.9446
  862MOL0     H16336   3.093   1.241   7.653  2.0824 -0.0010  1.9488
  862MOL0     H16337   3.195   1.165   7.515  0.5287 -0.2291  0.7441
  862MOL0     H16338   3.358   1.348   7.558 -1.3619  0.2348 -0.8812
  862MOL0     H16339   3.253   1.417   7.677  1.4854 -0.6418  1.6738
  862MOL0     H16340   3.282   1.243   7.836 -1.9165 -2.2197 -1.6943
  862MOL0     H16341   3.440   1.290   7.774  0.2260 -0.1334 -0.1255
  862MOL0     H16342   3.294   1.023   7.741  0.2950 -0.0159 -3.3511
  862MOL0     H16343   3.435   1.074   7.830 -0.5492 -0.0133  0.1252
  862MOL0     H16344   3.409   1.025   7.525  0.6842  0.7999 -0.8223
  862MOL0     H16345   3.526   1.143   7.584  0.3182  0.2420 -0.0853
  862MOL0     H16346   3.495   0.851   7.659 -1.2023 -0.1699 -3.1283
  862MOL0     H16347   3.625   0.949   7.733  2.6204 -1.4801 -1.2321
  862MOL0     H16348   3.584   0.904   7.442 -0.9713  4.6520  1.6855
  862MOL0     H16349   3.713   0.994   7.511  1.5343 -0.9783 -0.2781
  862MOL0     H16350   2.748   1.176   7.398  0.8093 -1.1633 -0.7013
  862MOL0     H16351   2.541   1.288   7.311  1.3460 -2.2070  0.2982
  862MOL0     H16352   2.387   1.533   6.836  2.8626 -1.4270  1.7902
  862MOL0     H16353   2.160   1.622   6.771  0.4861  3.9085 -0.1141
  862MOL0     H16354   3.544   2.139   7.427  1.8218 -1.4213  1.3565
  862MOL0     H16355   3.736   1.977   7.347  0.1769  0.1727  0.0876
  862MOL0     H16356   4.084   1.724   7.308  0.1082  0.5980 -0.4063
  862MOL0     H16357   4.234   1.562   7.246  0.2814  1.8886  1.0340
  862MOL0     H16358   4.319   1.392   7.149  1.5160  0.8766  1.6239
  862MOL0     H16359   4.459   1.494   7.096 -0.1446  0.2162  1.0369
  862MOL0     H16360   4.472   1.329   6.897 -1.2342  1.3037 -0.0109
  862MOL0     H16361   4.359   1.221   6.975  2.9137 -1.8202  0.5062
  862MOL0     H16362   4.531   1.118   7.053 -0.6468  0.0193 -0.6783
  862MOL0     H16363   4.509   1.230   7.179 -1.8834  1.0695 -0.5710
  862MOL0     H16364   4.669   1.401   7.065  0.2215  0.2194  0.9809
  862MOL0     H16365   4.726   1.268   7.158  3.2864 -0.9327 -1.9553
  862MOL0     H16366   4.858   1.125   6.787 -2.8471  3.1250 -4.1374
  862MOL0     H16367   4.092   1.591   6.841 -2.0725  0.0381  0.1311
  862MOL0     H16368   3.880   1.610   6.828 -1.9621  0.7237 -1.0122
  862MOL0     H16369   3.760   1.686   6.936 -1.2364  1.3418  0.0594
  862MOL0     H16370   3.861   1.788   6.832 -0.5074  0.1713  0.7266
  863MOL0     O16371   6.112   4.752   6.473  0.7724  0.3295  0.4985
  863MOL0     C16372   6.042   4.787   6.373  0.2431  0.0224 -0.7337
  863MOL0     O16373   5.911   4.751   6.351  0.0737  0.5252  0.6880
  863MOL0     C16374   5.858   4.634   6.402  0.1729 -0.0771  0.3301
  863MOL0     C16375   5.714   4.630   6.394  0.1933  0.4597 -0.2834
  863MOL0     C16376   5.636   4.512   6.418  0.1117 -0.8869  0.1889
  863MOL0     C16377   5.706   4.395   6.462 -0.4572 -0.5681 -0.2087
  863MOL0     O16378   5.641   4.275   6.484  0.3007  0.9600 -0.7436
  863MOL0     C16379   5.500   4.267   6.448  0.3865  0.5239  0.5251
  863MOL0     C16380   5.461   4.120   6.483  1.0832 -0.9663  0.4068
  863MOL0     C16381   5.309   4.102   6.494 -0.6358 -0.5768  0.5647
  863MOL0     C16382   5.261   3.968   6.558  0.1292 -0.5862  0.3153
  863MOL0     C16383   5.256   3.970   6.714 -0.0925 -0.5244  0.6026
  863MOL0     C16384   5.151   3.870   6.768  0.6030  0.5519  0.7167
  863MOL0     C16385   5.014   3.937   6.757 -0.2988 -0.0145  1.1799
  863MOL0     C16386   4.918   3.843   6.828  0.1628 -0.3249 -0.2670
  863MOL0     N16387   4.789   3.907   6.867  0.2948 -1.2124 -0.7855
  863MOL0     C16388   4.764   4.038   6.898  0.6960  0.0561  0.6343
  863MOL0     C16389   4.635   4.039   6.943 -0.5249 -1.3149 -0.9781
  863MOL0     C16390   4.567   4.173   6.973  0.6439  0.7803 -0.0766
  863MOL0     C16391   4.446   4.200   6.889  1.0169 -0.5921  0.9611
  863MOL0     C16392   4.401   4.343   6.875 -0.3557 -1.2338 -0.1419
  863MOL0     C16393   4.398   4.424   6.999 -0.3786 -0.1671 -0.9979
  863MOL0     O16394   4.309   4.534   6.979 -0.2016  0.1848 -0.0692
  863MOL0     C16395   4.233   4.581   7.084 -0.2044  0.4918  1.2605
  863MOL0     C16396   4.131   4.661   7.036  0.9908  0.1108 -0.1028
  863MOL0     C16397   4.046   4.721   7.130 -0.7550  0.8110  0.4386
  863MOL0     C16398   4.079   4.731   7.269 -0.3607  1.2329  0.3789
  863MOL0     C16399   4.003   4.797   7.370 -0.2623  0.6458 -0.3126
  863MOL0     O16400   4.055   4.802   7.505 -0.1148 -0.8475  0.0878
  863MOL0     C16401   3.973   4.844   7.607 -0.4667 -0.8308 -1.4804
  863MOL0     C16402   3.899   4.965   7.601 -0.5884 -0.1512  0.0361
  863MOL0     C16403   3.827   5.010   7.711  0.7549  0.0444  0.2876
  863MOL0     C16404   3.841   4.946   7.832 -0.2557 -0.6277  1.4280
  863MOL0     O16405   3.746   4.999   7.909 -0.0645  0.7822 -0.5186
  863MOL0     C16406   3.744   4.971   8.049  1.3755  0.4568  0.2267
  863MOL0     C16407   3.643   5.069   8.121 -0.7659 -0.0594  0.4642
  863MOL0     C16408   3.497   5.043   8.094 -0.2707 -0.0003 -0.4129
  863MOL0     C16409   3.432   4.964   8.213  0.2564 -0.0827  0.4170
  863MOL0     C16410   3.281   4.940   8.184  0.5845 -0.8519  0.3355
  863MOL0     C16411   3.250   4.823   8.107 -0.1114  0.9896  1.0836
  863MOL0     C16412   3.106   4.840   8.047 -0.4887  0.4880  0.2562
  863MOL0     C16413   3.057   4.705   7.991 -0.2728 -1.2144 -0.0872
  863MOL0    Cl16414   3.169   4.688   7.850  0.1684  0.1152 -0.6996
  863MOL0     C16415   3.916   4.833   7.848 -0.7953 -0.3239  0.5027
  863MOL0     C16416   3.994   4.787   7.738 -1.2378 -0.1312 -0.6014
  863MOL0     O16417   3.898   4.838   7.328  1.1052 -0.8235 -0.4562
  863MOL0     C16418   4.193   4.658   7.305  0.9400 -0.7368  1.1520
  863MOL0     C16419   4.265   4.576   7.222 -0.5808  0.4830 -0.0137
  863MOL0     N16420   4.587   3.915   6.933 -0.6209 -0.1084  0.4098
  863MOL0     N16421   4.672   3.835   6.888 -0.4764 -0.7186  0.4861
  863MOL0     C16422   5.849   4.399   6.477 -0.1949 -0.2549 -0.6488
  863MOL0     C16423   5.927   4.523   6.456 -0.8474 -0.0755 -0.7321
  863MOL0     C16424   6.093   4.886   6.281 -0.2339  0.0173  1.2106
  863MOL0     C16425   6.005   4.971   6.204 -0.9013 -0.2862  0.0899
  863MOL0     C16426   6.040   5.076   6.131 -0.3498 -1.0012  0.3109
  863MOL0     C16427   6.178   5.100   6.108  0.5475  0.0533 -0.7383
  863MOL0     O16428   6.220   5.186   6.012 -0.2225  0.5720 -0.7645
  863MOL0     C16429   6.133   5.291   5.978  0.2817 -0.9603 -0.0144
  863MOL0     C16430   6.222   5.377   5.894  0.4090 -0.0665  0.7805
  863MOL0     C16431   6.177   5.520   5.859 -0.6512 -0.1921  0.4187
  863MOL0     C16432   6.092   5.508   5.729 -0.5827 -0.0372 -0.9023
  863MOL0     C16433   6.040   5.632   5.685  0.9086 -1.1545  0.5682
  863MOL0     C16434   6.018   5.741   5.637 -0.0208  0.1059  0.2571
  863MOL0     C16435   6.266   5.016   6.177 -0.2995  0.3397  1.7183
  863MOL0     C16436   6.230   4.907   6.253  0.5334  0.4481 -0.5728
  863MOL0     C16437   6.345   4.831   6.313  0.0862 -0.0574  0.0014
  863MOL0     H16438   5.663   4.705   6.334 -0.3070 -1.0038 -1.7809
  863MOL0     H16439   5.528   4.520   6.411  0.0678  2.3604  2.3907
  863MOL0     H16440   5.440   4.328   6.516  0.5212  2.1416 -0.7338
  863MOL0     H16441   5.478   4.292   6.344 -3.4245 -1.8725  0.5942
  863MOL0     H16442   5.502   4.094   6.581  1.6661 -7.0581 -1.0887
  863MOL0     H16443   5.513   4.058   6.409 -2.5148  0.1015 -3.3720
  863MOL0     H16444   5.260   4.105   6.396  0.6395 -0.2640 -0.0741
  863MOL0     H16445   5.270   4.187   6.550 -3.3994 -1.3224 -0.0635
  863MOL0     H16446   5.160   3.954   6.520 -1.0054 -0.1613  2.9969
  863MOL0     H16447   5.330   3.889   6.526  4.3359  3.8132 -3.2722
  863MOL0     H16448   5.351   3.940   6.759  0.9688  0.7020 -0.7480
  863MOL0     H16449   5.251   4.072   6.752  1.5330 -0.4349  0.6474
  863MOL0     H16450   5.141   3.778   6.711 -1.0802  0.7121  0.6771
  863MOL0     H16451   5.169   3.868   6.876 -0.6059 -0.4538  0.9283
  863MOL0     H16452   4.981   3.948   6.654 -3.4469  1.1192  2.1863
  863MOL0     H16453   5.009   4.036   6.805 -3.5898  1.0441 -0.9910
  863MOL0     H16454   4.894   3.762   6.759 -1.2411  0.2858 -0.5358
  863MOL0     H16455   4.965   3.806   6.920  0.3440 -1.2537 -0.7197
  863MOL0     H16456   4.835   4.121   6.899  2.1416 -0.9886 -2.4781
  863MOL0     H16457   4.548   4.173   7.080  2.9333  2.1022  0.4114
  863MOL0     H16458   4.647   4.245   6.955  2.3351 -1.3375 -1.6608
  863MOL0     H16459   4.464   4.169   6.786  0.1352  1.6794  0.0512
  863MOL0     H16460   4.366   4.134   6.924  1.5036 -0.7048  1.8999
  863MOL0     H16461   4.295   4.333   6.849 -0.9599 -0.9849  2.0069
  863MOL0     H16462   4.464   4.398   6.805 -1.8896  0.7551 -0.0607
  863MOL0     H16463   4.499   4.452   7.033 -1.6068  1.0745  2.0479
  863MOL0     H16464   4.380   4.367   7.091  1.3502  1.1352  0.2402
  863MOL0     H16465   4.110   4.662   6.930  1.0106  2.6734 -0.1385
  863MOL0     H16466   3.959   4.775   7.093 -0.1770  2.5790  1.5296
  863MOL0     H16467   3.883   5.030   7.516  0.2715  1.8053  1.2812
  863MOL0     H16468   3.766   5.099   7.698 -1.1478 -1.5980 -3.5868
  863MOL0     H16469   3.716   4.869   8.077 -0.1188  1.7173  4.1221
  863MOL0     H16470   3.842   4.989   8.094  0.9137 -1.8799  2.3886
  863MOL0     H16471   3.655   5.071   8.230 -2.6126  0.4125  0.7013
  863MOL0     H16472   3.661   5.173   8.093 -2.3976  0.3188  0.7085
  863MOL0     H16473   3.440   5.134   8.072 -3.4251 -2.2132 -2.2654
  863MOL0     H16474   3.476   4.987   8.002  0.8948 -1.2594  0.0597
  863MOL0     H16475   3.428   5.037   8.295 -1.5325 -0.8290  1.0525
  863MOL0     H16476   3.480   4.871   8.245 -0.5469 -0.7726 -0.3124
  863MOL0     H16477   3.246   5.028   8.128 -0.0236 -1.4337 -0.2149
  863MOL0     H16478   3.221   4.939   8.276 -1.1988  1.0781 -0.6929
  863MOL0     H16479   3.317   4.804   8.023  0.1133 -0.5097  1.5833
  863MOL0     H16480   3.271   4.737   8.171 -2.5303  0.2050  0.9017
  863MOL0     H16481   3.092   4.911   7.964  1.0584  2.7690  1.8658
  863MOL0     H16482   3.043   4.871   8.131 -3.2868  0.6036 -1.7221
  863MOL0     H16483   3.065   4.620   8.060 -2.6912 -0.3527  1.3848
  863MOL0     H16484   2.953   4.707   7.958 -0.4916 -1.9725  0.5062
  863MOL0     H16485   3.925   4.790   7.947  3.1276 -1.6508 -0.2273
  863MOL0     H16486   4.056   4.699   7.753 -1.1924  0.2514  1.7404
  863MOL0     H16487   4.227   4.669   7.408 -0.9838 -2.2253  2.0028
  863MOL0     H16488   4.361   4.543   7.260 -0.9054  1.4491  1.7362
  863MOL0     H16489   5.912   4.318   6.510  1.9593  2.0439  1.2369
  863MOL0     H16490   6.034   4.527   6.470 -0.9773 -0.6199  0.5981
  863MOL0     H16491   5.897   4.971   6.222 -0.5309  0.6187  2.9079
  863MOL0     H16492   5.958   5.118   6.074 -0.5516 -0.6772  0.8296
  863MOL0     H16493   6.099   5.348   6.065 -2.3432 -2.4239  0.0226
  863MOL0     H16494   6.044   5.266   5.918 -0.6719 -0.3098  1.0887
  863MOL0     H16495   6.242   5.328   5.799  0.1100  0.3922  0.4761
  863MOL0     H16496   6.318   5.384   5.947  2.2183  3.4477 -2.4812
  863MOL0     H16497   6.267   5.582   5.850 -0.4723 -0.1320  2.2676
  863MOL0     H16498   6.108   5.559   5.934 -2.3963 -1.5844 -0.3654
  863MOL0     H16499   6.153   5.458   5.653 -1.3456 -3.9719  0.8574
  863MOL0     H16500   6.000   5.452   5.748  0.1624 -1.7232 -2.0239
  863MOL0     H16501   6.013   5.841   5.598 -2.0085  0.3209  0.9612
  863MOL0     H16502   6.373   5.033   6.164  0.2876 -2.9571  1.2165
  863MOL0     H16503   6.442   4.871   6.285  0.1722 -1.2213 -1.4706
  863MOL0     H16504   6.332   4.827   6.421  1.2139  0.6001  0.1768
  863MOL0     H16505   6.343   4.730   6.271 -0.6281  0.3223 -0.9138
  864MOL0     O16506   4.470   5.467   6.490  0.6204  0.4029 -0.2031
  864MOL0     C16507   4.519   5.376   6.431 -0.5447  0.5519  1.0633
  864MOL0     O16508   4.468   5.327   6.311 -0.0212 -0.6245 -0.0742
  864MOL0     C16509   4.340   5.281   6.320  0.0513 -1.0092  1.2772
  864MOL0     C16510   4.328   5.151   6.346  0.2989 -0.3703  0.2680
  864MOL0     C16511   4.205   5.084   6.345  0.3397  0.2462  0.4890
  864MOL0     C16512   4.089   5.159   6.333 -0.1674 -0.4600  0.2654
  864MOL0     O16513   3.968   5.098   6.329 -0.1067  1.0970 -1.0694
  864MOL0     C16514   3.933   5.014   6.443  0.3759  0.3792 -0.4379
  864MOL0     C16515   3.781   5.014   6.469  0.1041  0.6722  0.5073
  864MOL0     C16516   3.717   5.027   6.332 -0.3147  0.4776  0.8175
  864MOL0     C16517   3.563   5.006   6.359  0.9682 -0.7189  0.8805
  864MOL0     C16518   3.479   4.977   6.237  0.3898 -1.5865  0.8049
  864MOL0     C16519   3.451   5.092   6.151  0.1860 -0.0370 -0.6125
  864MOL0     C16520   3.313   5.150   6.203 -0.0271  0.5214 -0.5539
  864MOL0     C16521   3.272   5.264   6.106  1.3213 -1.1014 -0.5589
  864MOL0     N16522   3.272   5.238   5.972  0.9988  0.8521  0.6511
  864MOL0     C16523   3.213   5.121   5.915 -0.3779 -0.4106 -0.4840
  864MOL0     C16524   3.259   5.125   5.782 -0.4464  0.9953  1.0801
  864MOL0     C16525   3.230   5.018   5.683  0.2135  0.6546  1.1364
  864MOL0     C16526   3.084   4.991   5.640 -1.6397 -0.5386  0.6409
  864MOL0     C16527   3.048   4.864   5.570  1.4939  0.4484 -0.3425
  864MOL0     C16528   2.902   4.862   5.550  0.0170  0.2944  0.0036
  864MOL0     O16529   2.873   4.737   5.485  0.4283  0.4872  0.4668
  864MOL0     C16530   2.786   4.756   5.374  0.1761 -0.3627 -0.2841
  864MOL0     C16531   2.840   4.733   5.242  0.6787 -0.3661  0.1684
  864MOL0     C16532   2.741   4.735   5.135 -0.5450  0.3997 -0.8828
  864MOL0     C16533   2.603   4.764   5.161 -0.9270  0.5351  0.0235
  864MOL0     C16534   2.511   4.780   5.044  0.1493 -0.0387  0.4624
  864MOL0     O16535   2.395   4.852   5.060  0.1402 -0.2639  0.2628
  864MOL0     C16536   2.310   4.859   4.953 -0.8948 -0.0404 -0.7648
  864MOL0     C16537   2.183   4.788   4.950 -0.2640  0.3482 -0.0526
  864MOL0     C16538   2.093   4.803   4.846  0.6206  0.2390  0.8772
  864MOL0     C16539   2.135   4.871   4.729  0.4676 -0.7319  1.3546
  864MOL0     O16540   2.039   4.897   4.635  0.7786  0.0491 -0.1540
  864MOL0     C16541   2.082   4.907   4.501  1.0498  0.1306  0.5696
  864MOL0     C16542   1.971   4.835   4.421 -0.6757 -0.0154  0.3429
  864MOL0     C16543   1.952   4.691   4.465 -0.4510  0.7669 -0.6100
  864MOL0     C16544   2.014   4.581   4.380 -0.1627  0.5497  1.0946
  864MOL0     C16545   2.102   4.484   4.461 -0.1422 -0.6067  0.0393
  864MOL0     C16546   2.216   4.544   4.541  0.6820 -0.2769  0.2271
  864MOL0     C16547   2.304   4.435   4.580  0.0638  0.2730 -1.1950
  864MOL0     C16548   2.418   4.474   4.680  0.4199  0.7971 -0.0283
  864MOL0    Cl16549   2.521   4.606   4.631 -0.2776  0.2953 -0.1531
  864MOL0     C16550   2.260   4.927   4.725  0.1209 -0.1852 -0.5961
  864MOL0     C16551   2.347   4.927   4.834  0.8025  0.3380 -0.1381
  864MOL0     O16552   2.540   4.711   4.952 -0.9321 -0.0016 -0.1384
  864MOL0     C16553   2.562   4.795   5.293  0.8076 -0.6340 -0.0391
  864MOL0     C16554   2.655   4.789   5.401 -0.1433 -0.0161 -0.6107
  864MOL0     N16555   3.327   5.241   5.762 -0.2071 -0.6958  0.8041
  864MOL0     N16556   3.335   5.310   5.874 -0.6862  0.3870  0.5594
  864MOL0     C16557   4.104   5.295   6.299  0.0779 -0.1545 -0.1895
  864MOL0     C16558   4.227   5.361   6.282 -0.1947 -0.1193  0.3802
  864MOL0     C16559   4.671   5.350   6.445 -0.1344  0.4348 -0.8716
  864MOL0     C16560   4.729   5.257   6.350  0.5557 -0.3301 -0.2247
  864MOL0     C16561   4.858   5.207   6.375  0.3811  0.1450 -1.2320
  864MOL0     C16562   4.936   5.240   6.493 -0.1772  1.3540 -0.1262
  864MOL0     O16563   5.048   5.169   6.531  0.1765  0.1148  0.2702
  864MOL0     C16564   5.128   5.113   6.433  0.1615 -0.4760  0.0372
  864MOL0     C16565   5.249   5.060   6.512 -0.4370 -0.8175  0.4195
  864MOL0     C16566   5.355   5.169   6.501 -0.5246 -0.7074  0.3798
  864MOL0     C16567   5.493   5.133   6.545  0.1308 -0.9883 -0.4072
  864MOL0     C16568   5.572   5.073   6.438  0.2925 -0.4552 -0.8327
  864MOL0     C16569   5.651   5.029   6.351  0.8210 -0.5364 -0.3819
  864MOL0     C16570   4.880   5.333   6.582 -0.6442  0.9129 -0.1085
  864MOL0     C16571   4.757   5.401   6.552 -0.1463  0.6469 -0.8917
  864MOL0     C16572   4.706   5.497   6.660  0.1024  0.0404  1.4498
  864MOL0     H16573   4.416   5.088   6.356  0.8097  0.2096 -0.4195
  864MOL0     H16574   4.208   4.979   6.370  1.6666  0.7400  2.6730
  864MOL0     H16575   3.967   4.917   6.406  4.5933  1.7041 -0.5276
  864MOL0     H16576   4.002   5.029   6.526  3.0578  1.3524 -2.6740
  864MOL0     H16577   3.739   5.086   6.539  0.0850 -1.5913  2.9820
  864MOL0     H16578   3.758   4.914   6.509 -0.3488 -0.3787 -2.1720
  864MOL0     H16579   3.757   4.959   6.256 -2.3785 -0.3633  0.4181
  864MOL0     H16580   3.725   5.125   6.283 -0.6577  0.8047  1.3995
  864MOL0     H16581   3.543   4.909   6.405 -0.0288 -0.7849  0.3328
  864MOL0     H16582   3.512   5.088   6.410 -1.1367 -1.1153 -0.4626
  864MOL0     H16583   3.536   4.909   6.173 -0.8403  0.3769 -2.5808
  864MOL0     H16584   3.382   4.941   6.272 -0.4368 -0.4878 -0.2810
  864MOL0     H16585   3.529   5.166   6.130 -0.0202 -0.5199 -3.4429
  864MOL0     H16586   3.421   5.043   6.058 -0.9516 -0.7788  0.1147
  864MOL0     H16587   3.327   5.189   6.304  1.6294 -1.8662  0.2317
  864MOL0     H16588   3.234   5.075   6.202 -0.5024  1.0170 -0.6128
  864MOL0     H16589   3.171   5.296   6.130  1.9205  2.6576 -2.2998
  864MOL0     H16590   3.324   5.356   6.134 -0.3965 -0.4817  0.7192
  864MOL0     H16591   3.161   5.041   5.967  0.8349 -1.4098 -0.7450
  864MOL0     H16592   3.274   5.058   5.592  0.3783  1.3752  1.5230
  864MOL0     H16593   3.277   4.923   5.710 -1.6196 -0.5737  0.2334
  864MOL0     H16594   3.030   5.015   5.732 -1.0900 -1.8713  1.3377
  864MOL0     H16595   3.053   5.068   5.568 -1.9967 -2.0669 -0.9194
  864MOL0     H16596   3.081   4.794   5.648  2.1945  2.8159  1.6347
  864MOL0     H16597   3.099   4.852   5.474 -0.1685  0.5329 -1.2805
  864MOL0     H16598   2.870   4.949   5.493 -1.1472 -0.2595 -0.2079
  864MOL0     H16599   2.846   4.868   5.644  1.3338  2.8651  0.7326
  864MOL0     H16600   2.947   4.721   5.233  0.4411 -0.6558 -3.4644
  864MOL0     H16601   2.781   4.719   5.036  0.3762  0.3272 -0.5050
  864MOL0     H16602   2.165   4.738   5.045 -0.6505  2.9624  1.3512
  864MOL0     H16603   1.993   4.761   4.851  0.5294  0.2719 -0.3387
  864MOL0     H16604   2.080   5.012   4.472 -1.5048 -0.7233 -3.1422
  864MOL0     H16605   2.176   4.853   4.481  1.1428 -0.5682  2.6052
  864MOL0     H16606   1.874   4.887   4.420 -3.1832 -4.2526  0.2604
  864MOL0     H16607   2.006   4.840   4.318 -0.4474  2.1040  0.4737
  864MOL0     H16608   1.989   4.675   4.566 -1.3861 -1.5582 -0.5697
  864MOL0     H16609   1.845   4.669   4.457 -0.7028  1.9106 -0.6439
  864MOL0     H16610   2.082   4.625   4.306 -1.2441  3.0492  1.4948
  864MOL0     H16611   1.921   4.534   4.347 -0.2218 -0.2231  2.3234
  864MOL0     H16612   2.149   4.415   4.390  2.8102  0.1917  1.0753
  864MOL0     H16613   2.023   4.442   4.524 -5.8317  5.6702 -1.7266
  864MOL0     H16614   2.273   4.611   4.476  0.4024  1.9366  2.1371
  864MOL0     H16615   2.180   4.599   4.628 -0.2570  1.8535 -1.4273
  864MOL0     H16616   2.350   4.405   4.485 -0.1639  3.1176 -2.3087
  864MOL0     H16617   2.246   4.354   4.624  2.0090 -1.0115 -0.8360
  864MOL0     H16618   2.375   4.518   4.770  1.3676  0.2744  0.6966
  864MOL0     H16619   2.480   4.384   4.690 -0.0528  0.5030  0.3115
  864MOL0     H16620   2.283   5.002   4.650  1.4297  0.1226  0.0829
  864MOL0     H16621   2.443   4.976   4.827  3.2707 -3.6815  1.4067
  864MOL0     H16622   2.464   4.833   5.321  1.9785  0.9391  2.2915
  864MOL0     H16623   2.630   4.829   5.499  2.1723 -1.8566  0.8448
  864MOL0     H16624   4.005   5.338   6.288  0.6855  0.6210 -4.3687
  864MOL0     H16625   4.231   5.464   6.250 -1.4005  0.8009  2.9344
  864MOL0     H16626   4.677   5.214   6.264 -2.4519 -0.1043  1.3468
  864MOL0     H16627   4.901   5.148   6.294  1.2514 -0.3116 -0.4499
  864MOL0     H16628   5.164   5.173   6.349  0.4198  0.5620  0.8646
  864MOL0     H16629   5.079   5.027   6.386 -2.0289  0.2176  0.9268
  864MOL0     H16630   5.287   4.967   6.468 -2.8831 -0.6183 -2.4552
  864MOL0     H16631   5.218   5.046   6.616 -2.9453  1.2209  0.0648
  864MOL0     H16632   5.301   5.242   6.562 -3.2723 -2.3339  0.0665
  864MOL0     H16633   5.363   5.216   6.402 -1.1426  0.1265  0.7072
  864MOL0     H16634   5.540   5.230   6.565 -2.0998  0.4009 -1.5109
  864MOL0     H16635   5.487   5.068   6.632 -1.2324  0.1216  0.3637
  864MOL0     H16636   5.713   4.980   6.279 -0.1433 -1.1172 -0.8432
  864MOL0     H16637   4.943   5.352   6.668  0.5200 -3.1180  0.1492
  864MOL0     H16638   4.782   5.510   6.738  0.4144 -1.2232  1.3717
  864MOL0     H16639   4.681   5.594   6.616 -1.9895 -1.0637  0.0230
  864MOL0     H16640   4.611   5.451   6.688 -0.4753  0.2178 -0.1166
  865MOL0     O16641   9.109   6.013   8.064 -0.2687  1.0243 -0.5846
  865MOL0     C16642   8.998   5.971   8.025  0.4316  0.3877 -0.8257
  865MOL0     O16643   8.896   5.932   8.096  0.2229 -0.0488 -0.2324
  865MOL0     C16644   8.909   5.941   8.238  0.5886 -1.1460  0.0297
  865MOL0     C16645   9.013   5.878   8.314 -0.6281  0.0639  1.2706
  865MOL0     C16646   9.018   5.888   8.456  0.4362 -0.0906  0.4172
  865MOL0     C16647   8.905   5.951   8.524  0.0449  0.3654 -0.2304
  865MOL0     O16648   8.898   5.962   8.658  0.1565  0.3273 -0.3837
  865MOL0     C16649   9.004   5.964   8.746  1.3533 -0.3119 -0.3794
  865MOL0     C16650   8.992   6.110   8.814  0.2604 -0.3901  0.4870
  865MOL0     C16651   9.125   6.173   8.860  0.3148 -0.2056  0.4076
  865MOL0     C16652   9.093   6.299   8.935  0.1967 -0.1653  0.3031
  865MOL0     C16653   9.206   6.380   8.975 -0.7532  0.1461 -0.2167
  865MOL0     C16654   9.160   6.529   9.024 -0.6900  0.0547  0.0542
  865MOL0     C16655   9.263   6.611   9.097  0.6190 -0.0634 -0.3467
  865MOL0     C16656   9.204   6.723   9.183 -0.5346 -0.2750 -0.3765
  865MOL0     N16657   9.167   6.841   9.113  0.4449  0.4694  0.1187
  865MOL0     C16658   9.244   6.928   9.038 -0.4839 -0.1952 -0.5903
  865MOL0     C16659   9.163   7.017   8.974  0.8330  0.2713  0.9802
  865MOL0     C16660   9.208   7.120   8.868  0.2559 -0.9349 -0.0864
  865MOL0     C16661   9.262   7.244   8.937 -0.4656 -0.2897  0.4650
  865MOL0     C16662   9.348   7.333   8.834 -0.0585  1.0318  0.0471
  865MOL0     C16663   9.400   7.463   8.890  0.8127  0.5704 -0.2279
  865MOL0     O16664   9.295   7.559   8.903  0.4384  1.0774 -0.0144
  865MOL0     C16665   9.263   7.647   8.804  1.1826  0.2368 -0.1361
  865MOL0     C16666   9.285   7.620   8.666 -0.7428  0.2654 -0.2581
  865MOL0     C16667   9.231   7.701   8.574  0.1525  0.4766  0.4418
  865MOL0     C16668   9.150   7.813   8.607 -0.4351 -0.4008  1.1107
  865MOL0     C16669   9.086   7.900   8.503 -0.4527  0.0070 -1.0186
  865MOL0     O16670   9.094   7.870   8.377 -0.4172 -0.3302 -0.7275
  865MOL0     C16671   9.019   7.933   8.285 -0.2117  0.1125  0.1503
  865MOL0     C16672   8.884   7.907   8.286  0.3198 -0.2733 -0.0278
  865MOL0     C16673   8.797   7.978   8.201 -0.0055 -0.3882  0.2722
  865MOL0     C16674   8.850   8.079   8.113  0.8117  0.6062 -0.0001
  865MOL0     O16675   8.778   8.161   8.028  0.4391  0.6778 -1.0086
  865MOL0     C16676   8.645   8.139   7.999 -0.3448  0.1286 -0.4095
  865MOL0     C16677   8.582   8.258   7.931 -0.1860 -0.2373  0.0129
  865MOL0     C16678   8.554   8.227   7.782  0.5820 -0.1054  0.7002
  865MOL0     C16679   8.682   8.217   7.698 -0.2909 -0.3954  0.0064
  865MOL0     C16680   8.647   8.157   7.564 -0.2025 -0.8327  0.6163
  865MOL0     C16681   8.566   8.243   7.473 -0.3554 -0.9176 -0.4499
  865MOL0     C16682   8.561   8.187   7.327 -0.0315 -1.5929 -0.1160
  865MOL0     C16683   8.461   8.270   7.241  0.0850  0.2278  0.1591
  865MOL0    Cl16684   8.290   8.264   7.308 -0.2068 -0.2914  0.1616
  865MOL0     C16685   8.995   8.085   8.101  0.0586 -0.4794  0.3798
  865MOL0     C16686   9.075   8.014   8.184 -0.3733 -0.2207 -0.7954
  865MOL0     O16687   9.025   7.994   8.556  0.4486  0.4072 -0.5743
  865MOL0     C16688   9.137   7.832   8.745  1.1125 -0.3002  0.0097
  865MOL0     C16689   9.188   7.760   8.848  0.0050  0.2791  0.1507
  865MOL0     N16690   9.032   6.979   9.005 -0.6658 -0.3211 -0.1271
  865MOL0     N16691   9.043   6.874   9.086 -0.3574 -0.3098  0.4347
  865MOL0     C16692   8.807   6.008   8.448 -0.2962 -0.8497 -0.4339
  865MOL0     C16693   8.807   6.004   8.309 -0.3804 -0.1213  0.4318
  865MOL0     C16694   8.974   5.959   7.871 -0.1422 -0.3355  0.3266
  865MOL0     C16695   8.857   5.900   7.834 -0.1612 -0.0255 -0.3461
  865MOL0     C16696   8.831   5.884   7.696 -0.2120  1.1769 -0.5297
  865MOL0     C16697   8.923   5.916   7.602 -1.2241 -1.2749  0.1062
  865MOL0     O16698   8.916   5.900   7.468  0.7153 -0.0531 -1.2414
  865MOL0     C16699   8.783   5.862   7.414 -0.4854 -0.2127 -0.0059
  865MOL0     C16700   8.769   5.881   7.260  0.6823  0.0858 -0.1805
  865MOL0     C16701   8.762   6.027   7.223  1.1354 -0.6975  0.0566
  865MOL0     C16702   8.711   6.046   7.076  0.0145  0.5620  0.0426
  865MOL0     C16703   8.790   5.954   6.986  0.6040  0.5784  0.3219
  865MOL0     C16704   8.860   5.869   6.927  0.8098  0.8757 -0.1824
  865MOL0     C16705   9.048   5.975   7.639  0.4566 -0.3341  0.0503
  865MOL0     C16706   9.067   6.005   7.770 -0.6007  0.2932  0.1081
  865MOL0     C16707   9.203   6.077   7.784  0.3320  0.1401  0.2553
  865MOL0     H16708   9.085   5.822   8.256 -0.9144  3.1041 -2.4053
  865MOL0     H16709   9.090   5.826   8.509  1.5297  0.4197 -0.4148
  865MOL0     H16710   8.996   5.886   8.822  3.3859 -1.2725 -1.0761
  865MOL0     H16711   9.099   5.974   8.694  0.7447  1.6296 -1.2378
  865MOL0     H16712   8.928   6.092   8.901 -2.0062 -0.4089 -1.1119
  865MOL0     H16713   8.942   6.178   8.745 -2.7574 -2.1755  0.7450
  865MOL0     H16714   9.183   6.194   8.769 -0.5845 -1.8729 -0.6101
  865MOL0     H16715   9.187   6.103   8.916  0.2253  0.3919  1.2743
  865MOL0     H16716   9.022   6.355   8.873  0.4284 -1.4219 -1.1620
  865MOL0     H16717   9.051   6.267   9.031 -0.6526 -2.0906 -0.6323
  865MOL0     H16718   9.260   6.334   9.058 -0.5526 -0.1587 -0.5159
  865MOL0     H16719   9.260   6.403   8.883  0.3002 -0.8883  0.1182
  865MOL0     H16720   9.125   6.587   8.938  3.0514 -1.5288 -2.8182
  865MOL0     H16721   9.086   6.512   9.102 -0.0642  2.7986  1.3554
  865MOL0     H16722   9.330   6.650   9.019 -0.8965  0.4546 -1.4214
  865MOL0     H16723   9.330   6.544   9.152  0.9819  0.1432 -0.5346
  865MOL0     H16724   9.124   6.688   9.249  0.4379 -1.8290  0.0482
  865MOL0     H16725   9.278   6.756   9.256 -0.2718 -2.1655  0.2747
  865MOL0     H16726   9.347   6.911   9.005 -0.1445  0.3068  0.1907
  865MOL0     H16727   9.301   7.087   8.819  0.1860 -2.4791  0.7470
  865MOL0     H16728   9.129   7.148   8.798 -0.6159 -1.8603  0.4932
  865MOL0     H16729   9.175   7.303   8.967 -0.7071 -0.2383 -0.3008
  865MOL0     H16730   9.318   7.209   9.024  2.0642 -0.8128 -1.2543
  865MOL0     H16731   9.290   7.357   8.745  0.3053  2.8997  0.2707
  865MOL0     H16732   9.435   7.279   8.795  0.0316  1.1494  0.0836
  865MOL0     H16733   9.478   7.497   8.821  1.3950 -1.1346 -0.4723
  865MOL0     H16734   9.458   7.440   8.980 -1.6280 -2.7181  0.7097
  865MOL0     H16735   9.355   7.543   8.636  0.9619  1.9206 -0.6802
  865MOL0     H16736   9.262   7.683   8.472 -3.0078 -0.8511 -0.4211
  865MOL0     H16737   8.849   7.830   8.353  1.3296  1.9251  3.2991
  865MOL0     H16738   8.689   7.970   8.200  0.0430 -1.2930  0.8836
  865MOL0     H16739   8.649   8.042   7.949  5.1927 -2.4527  3.8372
  865MOL0     H16740   8.592   8.126   8.094  1.3285  2.4191  0.9412
  865MOL0     H16741   8.486   8.274   7.981  0.3506  1.3837  0.5980
  865MOL0     H16742   8.636   8.352   7.944  2.7151 -2.0389  2.2459
  865MOL0     H16743   8.497   8.134   7.786 -1.7006  1.2490  1.0755
  865MOL0     H16744   8.484   8.297   7.737  1.5706 -0.2613 -1.1755
  865MOL0     H16745   8.754   8.147   7.742 -0.8912 -1.2132 -0.2840
  865MOL0     H16746   8.726   8.317   7.690 -2.2781  0.4397 -1.3133
  865MOL0     H16747   8.597   8.062   7.583 -1.7828 -0.5895 -1.8587
  865MOL0     H16748   8.747   8.155   7.520 -0.2286 -0.7559  0.5537
  865MOL0     H16749   8.474   8.263   7.529  3.0707  4.2932  4.4074
  865MOL0     H16750   8.603   8.343   7.453 -0.6826 -0.9889 -1.4387
  865MOL0     H16751   8.560   8.078   7.323  0.2641 -1.6393  0.8450
  865MOL0     H16752   8.661   8.214   7.291  0.1978 -0.4054  1.3374
  865MOL0     H16753   8.494   8.374   7.241  0.8829 -0.0048 -0.7531
  865MOL0     H16754   8.456   8.245   7.134  0.6034  0.7081  0.0197
  865MOL0     H16755   9.028   8.129   8.007  0.2367 -3.5694 -1.1214
  865MOL0     H16756   9.182   8.020   8.200 -0.7456 -0.4401  2.5374
  865MOL0     H16757   9.083   7.917   8.783 -1.1559 -0.7350 -2.0020
  865MOL0     H16758   9.163   7.776   8.952 -1.2923  1.0653 -0.2491
  865MOL0     H16759   8.731   6.055   8.511  0.7558 -1.2357  1.1973
  865MOL0     H16760   8.727   6.036   8.243  1.0114  1.7360 -0.4469
  865MOL0     H16761   8.788   5.870   7.912 -0.9816  1.5254 -0.4301
  865MOL0     H16762   8.741   5.828   7.674  2.1707 -3.2620 -0.1966
  865MOL0     H16763   8.706   5.918   7.468  2.2716  4.0392 -0.0098
  865MOL0     H16764   8.767   5.754   7.428 -1.0565 -0.2791 -1.0721
  865MOL0     H16765   8.669   5.842   7.239  0.2125  0.9055  0.4669
  865MOL0     H16766   8.846   5.822   7.210  0.5284  0.6200 -1.0716
  865MOL0     H16767   8.859   6.076   7.237  0.1866  1.2894  0.1496
  865MOL0     H16768   8.699   6.087   7.291 -0.4498 -1.5820 -0.5934
  865MOL0     H16769   8.604   6.030   7.058  0.6362  0.2079 -4.6613
  865MOL0     H16770   8.727   6.150   7.049 -1.1781  0.8843  0.4994
  865MOL0     H16771   8.925   5.804   6.870  1.1328  0.6078  0.4819
  865MOL0     H16772   9.128   6.003   7.572 -0.3430  3.0939  0.3277
  865MOL0     H16773   9.167   6.173   7.824 -1.7361 -1.0590  1.5017
  865MOL0     H16774   9.261   6.018   7.855 -1.1852 -6.1022 -2.9430
  865MOL0     H16775   9.253   6.097   7.689  1.5935 -0.4479  0.7852
  866MOL0     O16776   8.084   3.459   8.160  0.3659  0.4824 -0.8981
  866MOL0     C16777   7.979   3.498   8.213  0.4714  0.0285  0.7790
  866MOL0     O16778   7.861   3.513   8.145  0.3503 -0.4486 -0.5173
  866MOL0     C16779   7.860   3.505   8.010  0.1863 -0.5318  0.0765
  866MOL0     C16780   7.929   3.602   7.939  0.2316 -0.2758  0.3588
  866MOL0     C16781   7.927   3.601   7.801  1.1652  0.3590  0.5190
  866MOL0     C16782   7.838   3.512   7.726  0.7096  0.8944 -0.9928
  866MOL0     O16783   7.819   3.526   7.592 -1.0135  1.1375 -0.4064
  866MOL0     C16784   7.855   3.418   7.498 -0.7350  0.2309 -0.4872
  866MOL0     C16785   7.999   3.367   7.496 -0.6175  0.7665  0.4717
  866MOL0     C16786   8.107   3.471   7.449  0.0955  0.3823  0.8906
  866MOL0     C16787   8.247   3.418   7.423  0.4611  0.1465  1.3865
  866MOL0     C16788   8.338   3.514   7.359 -0.3762 -0.3775 -0.5879
  866MOL0     C16789   8.477   3.471   7.335  0.6223 -0.0006 -1.1457
  866MOL0     C16790   8.566   3.572   7.247  0.3370 -0.1632  0.6508
  866MOL0     C16791   8.557   3.720   7.300  0.8063  0.8639  0.6329
  866MOL0     N16792   8.670   3.792   7.234 -0.1082  0.8089 -0.2509
  866MOL0     C16793   8.659   3.850   7.116 -0.1980 -1.2220 -1.0667
  866MOL0     C16794   8.788   3.895   7.095 -0.3088  0.3493 -0.0362
  866MOL0     C16795   8.835   3.933   6.959 -0.8140  0.7840  0.3310
  866MOL0     C16796   8.829   4.086   6.936 -0.0596 -0.1011  0.2718
  866MOL0     C16797   8.692   4.132   6.886  0.0364  0.2116  0.3974
  866MOL0     C16798   8.682   4.110   6.737 -0.3036 -0.2181 -0.2805
  866MOL0     O16799   8.541   4.133   6.726  0.2043 -0.1884 -0.2975
  866MOL0     C16800   8.500   4.106   6.599  0.4969 -0.3646  0.4810
  866MOL0     C16801   8.356   4.096   6.577 -0.9958 -0.0146 -0.3704
  866MOL0     C16802   8.311   4.070   6.447  0.8551  0.6252 -0.2904
  866MOL0     C16803   8.394   4.045   6.330 -0.0791 -0.1498  0.1098
  866MOL0     C16804   8.334   4.006   6.198  0.0928 -1.6373  0.4990
  866MOL0     O16805   8.200   4.017   6.174  0.2103  0.5977 -0.0825
  866MOL0     C16806   8.153   3.991   6.046 -0.2041 -0.2762  0.3457
  866MOL0     C16807   8.028   3.936   6.032 -0.2088  0.8315 -0.5237
  866MOL0     C16808   7.975   3.914   5.903 -1.1833  2.0577  0.0127
  866MOL0     C16809   8.042   3.957   5.785  0.3385 -0.5914  0.3293
  866MOL0     O16810   7.989   3.947   5.664  0.1258 -0.2563 -0.4703
  866MOL0     C16811   8.057   4.005   5.554 -0.1564  0.0131  0.1144
  866MOL0     C16812   7.976   3.990   5.423 -0.2847 -0.4151 -0.3843
  866MOL0     C16813   8.047   4.037   5.301  1.0906 -0.3616 -0.4760
  866MOL0     C16814   7.962   4.024   5.180 -0.0701 -0.5509 -0.1957
  866MOL0     C16815   8.017   4.078   5.062  0.2539 -0.0772  0.1469
  866MOL0     C16816   8.153   4.019   5.034  0.0678 -0.6709  0.8137
  866MOL0     C16817   8.194   4.050   4.890 -0.2914  0.3276 -0.0952
  866MOL0     C16818   8.216   4.202   4.879  0.7661  0.1346  0.2313
  866MOL0    Cl16819   8.278   4.260   4.716 -0.0878  0.1717 -0.4394
  866MOL0     C16820   8.166   4.027   5.802  0.3803 -0.0042 -0.2907
  866MOL0     C16821   8.217   4.042   5.930 -0.2450 -0.3872 -0.5598
  866MOL0     O16822   8.423   3.980   6.115  0.4328 -0.1491 -0.3178
  866MOL0     C16823   8.527   4.057   6.355  0.5776 -0.2690 -0.4945
  866MOL0     C16824   8.571   4.084   6.482 -0.4872 -0.4682 -0.5437
  866MOL0     N16825   8.861   3.882   7.210  0.1533 -0.3247  0.5057
  866MOL0     N16826   8.793   3.807   7.287 -0.3345 -0.6532 -0.1525
  866MOL0     C16827   7.762   3.417   7.802  0.3079  0.2732  0.7014
  866MOL0     C16828   7.782   3.409   7.940  0.2358  0.7480  0.5918
  866MOL0     C16829   7.976   3.537   8.367  0.2993  0.3951  1.0283
  866MOL0     C16830   8.072   3.468   8.437 -0.3553 -0.3634 -0.2348
  866MOL0     C16831   8.081   3.489   8.575 -0.0432  0.2802 -0.0604
  866MOL0     C16832   7.987   3.565   8.651 -0.1327 -0.7277  0.6100
  866MOL0     O16833   8.000   3.579   8.786  0.3059  0.3496 -0.1983
  866MOL0     C16834   7.903   3.674   8.862 -0.4074  0.9936  0.3783
  866MOL0     C16835   7.930   3.667   9.016  0.0666 -0.3387  0.3509
  866MOL0     C16836   7.818   3.754   9.093  0.2774 -0.4555  0.2023
  866MOL0     C16837   7.874   3.833   9.211  0.0907  0.2216  0.6506
  866MOL0     C16838   7.879   3.738   9.325 -0.4502  1.0496 -0.8368
  866MOL0     C16839   7.911   3.649   9.406 -0.3302  0.5582  0.1375
  866MOL0     C16840   7.880   3.622   8.572  0.4789  1.0008  0.3941
  866MOL0     C16841   7.877   3.605   8.432  0.7575  0.0948  0.4914
  866MOL0     C16842   7.768   3.673   8.351  0.9830  0.2413  0.3495
  866MOL0     H16843   7.977   3.688   7.986  0.1132  0.4283 -0.7787
  866MOL0     H16844   7.988   3.672   7.747  1.4155  0.6148  1.1209
  866MOL0     H16845   7.784   3.338   7.519  1.1151 -0.3761  5.0345
  866MOL0     H16846   7.836   3.457   7.398  2.1833  1.3652 -0.6979
  866MOL0     H16847   7.999   3.288   7.420 -0.9708 -1.2627  2.4667
  866MOL0     H16848   8.028   3.322   7.591  1.6086  0.3832 -0.3406
  866MOL0     H16849   8.109   3.559   7.515 -1.9337 -0.3476  2.0203
  866MOL0     H16850   8.073   3.522   7.358 -0.0702  1.4673  1.5380
  866MOL0     H16851   8.291   3.389   7.519  0.4492 -0.2977  1.2596
  866MOL0     H16852   8.253   3.332   7.355  2.6343  1.2288  0.1083
  866MOL0     H16853   8.298   3.547   7.263 -2.2051 -0.6359  0.0576
  866MOL0     H16854   8.337   3.598   7.428 -1.2131 -1.4244  0.7203
  866MOL0     H16855   8.524   3.447   7.431 -1.1617 -2.5828 -0.8264
  866MOL0     H16856   8.483   3.378   7.278  0.1476  0.2231 -1.5701
  866MOL0     H16857   8.539   3.553   7.142 -3.4705 -0.7519  1.6068
  866MOL0     H16858   8.673   3.554   7.264  0.5554  2.7456  3.2989
  866MOL0     H16859   8.464   3.774   7.281  1.4271  1.8280  0.2617
  866MOL0     H16860   8.579   3.729   7.407  0.3142  1.2981  0.7026
  866MOL0     H16861   8.576   3.844   7.047 -0.2047  0.6891 -1.2913
  866MOL0     H16862   8.935   3.888   6.948 -2.3780 -3.2150  0.9157
  866MOL0     H16863   8.778   3.880   6.882 -0.6753  1.4330 -0.2390
  866MOL0     H16864   8.845   4.133   7.034  1.3199  0.5982 -0.2537
  866MOL0     H16865   8.906   4.115   6.864 -1.9477  0.3570 -1.6804
  866MOL0     H16866   8.685   4.240   6.904  1.5324  0.6991 -1.6073
  866MOL0     H16867   8.609   4.078   6.932  0.0252  1.3064  1.7609
  866MOL0     H16868   8.714   4.009   6.709  2.6610  0.3504  0.7351
  866MOL0     H16869   8.744   4.184   6.685  0.4825 -2.0934 -2.1834
  866MOL0     H16870   8.289   4.113   6.662 -0.4768  1.2154 -0.1923
  866MOL0     H16871   8.204   4.062   6.434  0.4376 -0.7333  2.9880
  866MOL0     H16872   7.965   3.901   6.112 -2.3393  2.7788 -1.2542
  866MOL0     H16873   7.880   3.864   5.887  0.5533 -1.8090  0.5347
  866MOL0     H16874   8.073   4.110   5.580 -4.7497  0.3639  2.4729
  866MOL0     H16875   8.149   3.949   5.532  2.2702  3.7717 -0.2478
  866MOL0     H16876   7.951   3.883   5.424  1.4137 -0.8568 -1.1559
  866MOL0     H16877   7.887   4.052   5.437 -0.6725 -1.0172 -0.1458
  866MOL0     H16878   8.079   4.141   5.311  0.3062  0.0143 -1.5875
  866MOL0     H16879   8.139   3.980   5.286  0.2814 -1.4117 -1.6611
  866MOL0     H16880   7.867   4.077   5.192  0.5207  0.4145  0.4495
  866MOL0     H16881   7.940   3.921   5.154 -2.6157  0.4538 -2.4964
  866MOL0     H16882   8.023   4.186   5.077  0.6117 -0.0560 -0.1235
  866MOL0     H16883   7.944   4.050   4.985 -0.6481 -0.6436  1.1777
  866MOL0     H16884   8.225   4.069   5.099  0.6403 -0.8456  0.3213
  866MOL0     H16885   8.154   3.910   5.029  0.3403 -0.6239 -2.2864
  866MOL0     H16886   8.111   4.021   4.827 -2.1430 -0.6567  2.6048
  866MOL0     H16887   8.284   3.995   4.861 -0.4017  0.4753 -0.7323
  866MOL0     H16888   8.133   4.264   4.912  2.8496  1.5406  3.3787
  866MOL0     H16889   8.300   4.224   4.946  2.6888  0.7132 -2.2202
  866MOL0     H16890   8.221   4.072   5.720  0.3280 -2.2193 -1.6277
  866MOL0     H16891   8.310   4.098   5.939  0.1972 -1.1570 -0.1932
  866MOL0     H16892   8.602   4.045   6.278 -1.0531  0.9792 -2.4069
  866MOL0     H16893   8.680   4.077   6.484 -0.3279  1.5985  0.5966
  866MOL0     H16894   7.699   3.340   7.759  1.4673  0.8451 -2.2664
  866MOL0     H16895   7.726   3.329   7.987  0.7324 -0.0633 -0.1869
  866MOL0     H16896   8.153   3.412   8.391 -2.4619 -1.5587 -2.7739
  866MOL0     H16897   8.157   3.453   8.644  1.8645 -1.0045 -2.6561
  866MOL0     H16898   7.799   3.644   8.850 -0.1509  0.1517  0.1693
  866MOL0     H16899   7.912   3.777   8.826 -1.4059  1.8942  2.5116
  866MOL0     H16900   8.028   3.715   9.025  0.1357 -0.6596  1.5336
  866MOL0     H16901   7.930   3.568   9.063  1.5537  0.1465  1.4642
  866MOL0     H16902   7.728   3.696   9.117 -0.1070 -1.3798 -2.9750
  866MOL0     H16903   7.784   3.823   9.016  2.1378 -0.5952 -0.7846
  866MOL0     H16904   7.976   3.864   9.184 -1.0522  3.0331 -0.8925
  866MOL0     H16905   7.823   3.922   9.248  0.2750  0.3851  0.5172
  866MOL0     H16906   7.952   3.581   9.478 -1.1328  1.4002  1.4419
  866MOL0     H16907   7.801   3.683   8.615  1.9784  2.2289  1.5105
  866MOL0     H16908   7.712   3.615   8.277  2.4111  0.1569 -0.7102
  866MOL0     H16909   7.697   3.707   8.427  0.8292  0.0193  0.3052
  866MOL0     H16910   7.786   3.762   8.289 -1.4854  1.7590  1.6703
  867MOL0     O16911   1.698   1.077   8.793  0.5421 -0.4940  0.1523
  867MOL0     C16912   1.652   1.148   8.707  0.1154  0.1842  0.6903
  867MOL0     O16913   1.539   1.115   8.631 -0.3360  0.1539 -0.5732
  867MOL0     C16914   1.512   0.982   8.605  0.5788 -0.6167  0.0848
  867MOL0     C16915   1.404   0.928   8.672  0.6092  0.4291 -0.0772
  867MOL0     C16916   1.386   0.792   8.685  0.2013  0.1552 -0.4534
  867MOL0     C16917   1.475   0.707   8.626 -0.2979  0.1039 -0.2785
  867MOL0     O16918   1.458   0.573   8.647 -0.7721  0.1741  0.6856
  867MOL0     C16919   1.545   0.486   8.582 -0.6277  0.5164 -0.4574
  867MOL0     C16920   1.501   0.462   8.435 -0.9534  0.2669  1.5764
  867MOL0     C16921   1.355   0.437   8.404  0.4428 -0.0316 -0.7373
  867MOL0     C16922   1.344   0.400   8.259  0.2933 -0.4133  0.2370
  867MOL0     C16923   1.193   0.396   8.212 -0.1285  0.2170 -0.3206
  867MOL0     C16924   1.169   0.358   8.066 -0.6824 -0.0760 -0.3241
  867MOL0     C16925   1.104   0.217   8.053  0.0464 -0.1893  0.0250
  867MOL0     C16926   1.196   0.104   8.097 -0.3201 -0.0695 -1.4003
  867MOL0     N16927   1.142  -0.020   8.050  0.1316 -0.3121 -1.0338
  867MOL0     C16928   1.014  -0.062   8.090 -0.0385 -0.6115  0.3040
  867MOL0     C16929   1.010  -0.199   8.079  0.6056  0.9724 -0.0862
  867MOL0     C16930   0.885  -0.290   8.063 -0.2888 -0.4102  0.8120
  867MOL0     C16931   0.885  -0.393   8.179 -0.4823 -1.0803  0.0727
  867MOL0     C16932   1.018  -0.476   8.190 -1.1157  0.2408 -0.7169
  867MOL0     C16933   1.028  -0.590   8.080  0.5583 -0.4740  0.2439
  867MOL0     O16934   1.101  -0.703   8.121 -0.0828 -0.2610  0.7711
  867MOL0     C16935   1.225  -0.702   8.170 -0.4322  0.8224 -0.6185
  867MOL0     C16936   1.315  -0.592   8.146 -0.6090  0.0115  0.1089
  867MOL0     C16937   1.442  -0.598   8.192 -0.0631 -0.5909  0.5291
  867MOL0     C16938   1.492  -0.718   8.262  0.2061 -0.1926  0.1628
  867MOL0     C16939   1.630  -0.729   8.314  0.4570 -1.1303 -0.0927
  867MOL0     O16940   1.657  -0.825   8.407  0.7826  0.2629  0.2930
  867MOL0     C16941   1.779  -0.814   8.454 -0.2229 -0.2595 -0.7320
  867MOL0     C16942   1.814  -0.731   8.557 -0.4583 -0.0362 -1.3740
  867MOL0     C16943   1.945  -0.733   8.609  0.8081 -0.4964 -0.0781
  867MOL0     C16944   2.047  -0.817   8.565  0.7632  0.1624  0.4044
  867MOL0     O16945   2.166  -0.830   8.623 -0.0092 -0.2553 -0.1105
  867MOL0     C16946   2.197  -0.750   8.740 -0.4530 -0.3783 -0.1298
  867MOL0     C16947   2.348  -0.757   8.774  0.0310  0.3784  0.3269
  867MOL0     C16948   2.383  -0.696   8.913 -0.9536 -0.1520 -0.6838
  867MOL0     C16949   2.540  -0.729   8.939  0.3088  0.4077 -0.1247
  867MOL0     C16950   2.592  -0.708   9.079 -0.3492 -0.1049 -0.5062
  867MOL0     C16951   2.728  -0.771   9.098  0.0577  0.7289  0.4136
  867MOL0     C16952   2.792  -0.741   9.232 -0.5809  0.2280 -0.0781
  867MOL0     C16953   2.720  -0.813   9.347 -0.2063  0.3153 -0.2513
  867MOL0    Cl16954   2.737  -0.990   9.315 -0.0364  0.2559  0.5169
  867MOL0     C16955   2.009  -0.906   8.458  0.7734 -0.2781 -0.3421
  867MOL0     C16956   1.882  -0.904   8.408  1.1090  0.0727 -0.0179
  867MOL0     O16957   1.701  -0.637   8.285  0.4131 -0.2917  0.5180
  867MOL0     C16958   1.398  -0.826   8.275 -0.5127  0.0226  1.1003
  867MOL0     C16959   1.272  -0.819   8.232  0.5559  0.1049 -0.5522
  867MOL0     N16960   1.126  -0.237   8.021  0.5845 -0.4838  0.2936
  867MOL0     N16961   1.208  -0.133   8.010 -0.9954  0.3070 -0.3263
  867MOL0     C16962   1.575   0.764   8.542  0.1907  0.2135 -0.9827
  867MOL0     C16963   1.602   0.902   8.534 -0.7828 -0.8602  0.3493
  867MOL0     C16964   1.680   1.289   8.704  0.8189  0.7591  0.6625
  867MOL0     C16965   1.727   1.350   8.825 -0.5723  0.7774  1.0169
  867MOL0     C16966   1.799   1.475   8.825 -0.0299 -0.2278  0.9492
  867MOL0     C16967   1.821   1.542   8.709  0.2469 -0.7199  0.3144
  867MOL0     O16968   1.889   1.660   8.686  0.2270 -0.4677 -0.1844
  867MOL0     C16969   1.960   1.736   8.790 -0.5539  0.4452 -0.4181
  867MOL0     C16970   2.099   1.689   8.815 -0.6611 -0.0892  0.6945
  867MOL0     C16971   2.204   1.677   8.702  0.2728 -0.0933 -0.3783
  867MOL0     C16972   2.171   1.578   8.590  0.7082  0.1838 -0.0589
  867MOL0     C16973   2.283   1.590   8.499 -0.8250 -0.2336 -0.3300
  867MOL0     C16974   2.382   1.576   8.429  0.5076 -0.3240 -0.1348
  867MOL0     C16975   1.770   1.492   8.594 -0.0356 -0.3961 -0.3341
  867MOL0     C16976   1.707   1.359   8.581 -0.1242 -0.7964 -0.5607
  867MOL0     C16977   1.675   1.295   8.445  0.7704 -0.4518  0.7537
  867MOL0     H16978   1.351   0.995   8.739  0.5706  0.5564 -0.2337
  867MOL0     H16979   1.310   0.747   8.748 -0.1750  2.9189  1.2106
  867MOL0     H16980   1.654   0.500   8.581 -0.5574 -0.0179 -0.2166
  867MOL0     H16981   1.527   0.392   8.635 -1.0999  1.2698  0.7637
  867MOL0     H16982   1.544   0.364   8.410  1.5896  1.9291 -1.2915
  867MOL0     H16983   1.543   0.541   8.372 -0.5703 -1.4167 -0.3836
  867MOL0     H16984   1.300   0.530   8.423  0.2739 -0.3571  0.4982
  867MOL0     H16985   1.309   0.355   8.460 -1.9542  1.2795 -0.6428
  867MOL0     H16986   1.386   0.481   8.199  0.9469 -1.6618 -1.0766
  867MOL0     H16987   1.392   0.305   8.230 -1.1555 -0.3466 -2.7392
  867MOL0     H16988   1.124   0.338   8.274 -0.9016  3.8135  2.5420
  867MOL0     H16989   1.158   0.499   8.220  1.0511  0.8707 -2.5702
  867MOL0     H16990   1.108   0.433   8.016  0.4248  0.4664 -0.8980
  867MOL0     H16991   1.266   0.350   8.017 -1.9592  0.2110 -3.0401
  867MOL0     H16992   1.088   0.196   7.947 -0.2072  0.9612 -0.1771
  867MOL0     H16993   1.016   0.220   8.118  2.4788  3.7246  3.6998
  867MOL0     H16994   1.298   0.112   8.059 -0.8081  0.8095 -2.6000
  867MOL0     H16995   1.201   0.114   8.206  0.1144  1.1689 -1.5156
  867MOL0     H16996   0.926  -0.008   8.124 -1.5990 -2.1854 -1.0247
  867MOL0     H16997   0.786  -0.244   8.056  0.3970  1.0824  0.7430
  867MOL0     H16998   0.906  -0.341   7.968  0.5916  1.9669 -0.3421
  867MOL0     H16999   0.854  -0.333   8.266  2.9169  3.7222 -1.6107
  867MOL0     H17000   0.802  -0.460   8.156 -0.4308 -1.7190  1.6530
  867MOL0     H17001   1.024  -0.523   8.288  2.1466  3.4865  0.8558
  867MOL0     H17002   1.110  -0.416   8.197 -0.3761 -0.5892 -2.4667
  867MOL0     H17003   1.078  -0.560   7.987 -0.7816 -0.1543 -0.4025
  867MOL0     H17004   0.927  -0.624   8.056  1.0264 -1.8062  0.0773
  867MOL0     H17005   1.280  -0.503   8.094 -0.8379 -0.7631 -1.0942
  867MOL0     H17006   1.494  -0.503   8.188 -0.5467  0.0691  5.1386
  867MOL0     H17007   1.734  -0.674   8.602  0.1733 -2.1710  2.9375
  867MOL0     H17008   1.964  -0.658   8.685 -0.9245 -0.8902  0.7968
  867MOL0     H17009   2.182  -0.642   8.738 -1.1635 -0.3360  2.9267
  867MOL0     H17010   2.138  -0.776   8.828 -2.2487 -2.3206 -1.7919
  867MOL0     H17011   2.381  -0.859   8.755 -0.8739  0.4950 -2.2932
  867MOL0     H17012   2.400  -0.694   8.701  2.4135  2.3223  3.4125
  867MOL0     H17013   2.381  -0.587   8.899  2.2582  0.3374  1.4066
  867MOL0     H17014   2.310  -0.733   8.985  0.9049 -0.6456  1.0350
  867MOL0     H17015   2.601  -0.676   8.865 -3.0253  2.9802 -1.3058
  867MOL0     H17016   2.552  -0.836   8.919  3.4466  0.8402 -0.9853
  867MOL0     H17017   2.519  -0.754   9.147 -1.7501  2.4376 -0.1480
  867MOL0     H17018   2.596  -0.601   9.101 -0.5184  0.1562 -1.6957
  867MOL0     H17019   2.734  -0.880   9.089  2.7919  0.8642 -0.2891
  867MOL0     H17020   2.791  -0.724   9.023 -3.6434  3.7016 -1.1743
  867MOL0     H17021   2.786  -0.635   9.259  0.2859  1.3953 -3.9058
  867MOL0     H17022   2.898  -0.766   9.230  0.2426  2.9527  2.3705
  867MOL0     H17023   2.764  -0.778   9.441 -2.7006 -0.1945  1.2081
  867MOL0     H17024   2.615  -0.794   9.371 -0.1391  0.7468 -0.2862
  867MOL0     H17025   2.075  -0.986   8.428  0.6933 -1.2624  1.9094
  867MOL0     H17026   1.841  -0.956   8.322  0.4486  1.7148 -0.7371
  867MOL0     H17027   1.426  -0.909   8.339  1.5737  0.6134  1.0568
  867MOL0     H17028   1.221  -0.914   8.249 -2.9228  1.6897 -1.2833
  867MOL0     H17029   1.646   0.699   8.492 -1.2181 -3.4956  1.4331
  867MOL0     H17030   1.682   0.948   8.477 -1.7387  1.9749  1.1391
  867MOL0     H17031   1.715   1.307   8.924 -1.0137 -0.0851  0.5970
  867MOL0     H17032   1.835   1.499   8.925 -1.6746 -1.2121  1.8223
  867MOL0     H17033   1.899   1.741   8.881 -0.5127  6.9197 -0.2503
  867MOL0     H17034   1.963   1.840   8.756 -1.9996 -0.8923 -5.5223
  867MOL0     H17035   2.078   1.585   8.842  1.3611 -1.5643 -2.7469
  867MOL0     H17036   2.139   1.754   8.894 -4.1885 -0.3943  2.9628
  867MOL0     H17037   2.300   1.650   8.748  0.1861 -0.3659 -0.3574
  867MOL0     H17038   2.226   1.775   8.658 -0.0232  1.7319  3.1965
  867MOL0     H17039   2.163   1.477   8.630 -1.3291  0.1120 -0.5576
  867MOL0     H17040   2.078   1.606   8.539  1.5403 -0.9865 -2.4079
  867MOL0     H17041   2.462   1.542   8.366  0.3353 -0.6165 -0.2001
  867MOL0     H17042   1.786   1.549   8.503 -2.1966  0.6181 -0.1424
  867MOL0     H17043   1.759   1.237   8.406  0.8682  0.9975 -1.3100
  867MOL0     H17044   1.579   1.242   8.437  0.6153 -0.0390 -0.2082
  867MOL0     H17045   1.675   1.382   8.380 -0.7418 -0.5378  0.5851
  868MOL0     O17046   5.108   9.213   8.656  0.9078  0.3448 -0.1135
  868MOL0     C17047   5.175   9.113   8.655  0.5953 -0.5701  0.0276
  868MOL0     O17048   5.267   9.082   8.552  0.2815 -0.3748  0.3478
  868MOL0     C17049   5.240   9.114   8.423 -0.6205 -0.7971  0.7816
  868MOL0     C17050   5.113   9.115   8.357  0.8086 -0.7001  1.2029
  868MOL0     C17051   5.106   9.159   8.223  0.0590 -1.3951 -0.1680
  868MOL0     C17052   5.223   9.192   8.158 -0.6356 -0.0779 -0.0323
  868MOL0     O17053   5.212   9.215   8.020 -0.1480  0.0265  0.4890
  868MOL0     C17054   5.206   9.362   7.991  0.1334  0.3493 -0.3862
  868MOL0     C17055   5.315   9.427   7.900 -0.1356  0.6174  0.1550
  868MOL0     C17056   5.265   9.478   7.759  0.5892 -1.0529  0.0398
  868MOL0     C17057   5.257   9.370   7.652  0.5989  0.5688 -0.5517
  868MOL0     C17058   5.250   9.420   7.506  0.0654 -0.0424 -0.4473
  868MOL0     C17059   5.125   9.492   7.473 -0.8522 -0.5298  0.8526
  868MOL0     C17060   4.990   9.436   7.515  0.0580 -0.3356  0.0432
  868MOL0     C17061   4.962   9.290   7.492 -0.0718  0.7379  0.5339
  868MOL0     N17062   4.852   9.246   7.570  0.3697  0.5081  1.1761
  868MOL0     C17063   4.723   9.291   7.535  0.2827  0.3047 -0.1308
  868MOL0     C17064   4.640   9.260   7.634 -0.4819 -0.1900 -0.9077
  868MOL0     C17065   4.486   9.277   7.647 -1.0160  0.8353 -0.1468
  868MOL0     C17066   4.437   9.266   7.783  1.3159  0.3092  0.2148
  868MOL0     C17067   4.287   9.312   7.785 -0.9541  0.3729  0.1159
  868MOL0     C17068   4.209   9.254   7.904 -1.0027  0.5811 -0.0931
  868MOL0     O17069   4.194   9.110   7.911  0.6541 -0.3308  1.1565
  868MOL0     C17070   4.127   9.040   8.014  0.2978 -0.0692  0.6947
  868MOL0     C17071   4.131   8.896   8.022 -0.4196 -0.7045 -0.0992
  868MOL0     C17072   4.058   8.821   8.109 -0.0341 -0.5610  0.7265
  868MOL0     C17073   3.995   8.891   8.214 -0.6212  0.4360 -0.2030
  868MOL0     C17074   3.943   8.815   8.331 -0.1623  1.5114  0.0992
  868MOL0     O17075   3.885   8.883   8.436  0.0929 -1.0328  0.1932
  868MOL0     C17076   3.779   8.847   8.517 -0.7028 -0.0481  1.3040
  868MOL0     C17077   3.713   8.953   8.579 -1.0370 -0.6589 -0.7946
  868MOL0     C17078   3.620   8.920   8.671  0.1100 -0.4617 -0.6167
  868MOL0     C17079   3.557   8.799   8.695  0.4105 -0.0712  0.0518
  868MOL0     O17080   3.456   8.790   8.785 -0.0843  0.7923  0.2475
  868MOL0     C17081   3.403   8.656   8.819 -0.3550 -0.5715  0.9511
  868MOL0     C17082   3.299   8.681   8.928 -0.1463 -0.2656  1.1447
  868MOL0     C17083   3.251   8.536   8.951 -0.0237 -0.6055 -0.1333
  868MOL0     C17084   3.130   8.520   9.043 -0.2867  1.4600  0.2845
  868MOL0     C17085   2.989   8.568   9.009 -0.3468  0.8062 -0.4722
  868MOL0     C17086   2.938   8.544   8.871  0.4572  0.1152  0.1367
  868MOL0     C17087   2.885   8.403   8.847 -1.0123 -0.7823 -1.0373
  868MOL0     C17088   2.859   8.358   8.702 -0.6351 -0.1837 -0.9098
  868MOL0    Cl17089   3.010   8.332   8.615  0.0082  0.1066 -0.4038
  868MOL0     C17090   3.616   8.692   8.615  0.9309  0.4329 -1.0102
  868MOL0     C17091   3.726   8.714   8.529 -0.4169  0.0116  0.1244
  868MOL0     O17092   3.941   8.696   8.325 -0.3451  0.7449  0.6219
  868MOL0     C17093   3.979   9.034   8.208  0.7764  0.8607  0.5682
  868MOL0     C17094   4.049   9.105   8.108 -0.1426 -0.3228  0.0290
  868MOL0     N17095   4.718   9.184   7.728  0.2817 -0.2440 -0.4210
  868MOL0     N17096   4.840   9.183   7.691  0.0824 -0.3618  1.0353
  868MOL0     C17097   5.348   9.193   8.222 -1.2409 -0.5201 -0.1238
  868MOL0     C17098   5.353   9.145   8.349  0.3389 -1.5558 -0.2445
  868MOL0     C17099   5.173   9.025   8.771 -0.3275 -0.5369 -0.1744
  868MOL0     C17100   5.244   9.058   8.892 -0.6910  0.9238  0.2603
  868MOL0     C17101   5.267   8.963   8.995 -0.0587 -0.8760  0.4364
  868MOL0     C17102   5.198   8.847   8.993 -0.3687 -0.5311  0.7100
  868MOL0     O17103   5.209   8.753   9.087 -0.3155  0.4644  0.1446
  868MOL0     C17104   5.276   8.776   9.213 -0.4711 -0.0676 -0.0859
  868MOL0     C17105   5.222   8.698   9.326 -0.1748 -0.1136 -0.4361
  868MOL0     C17106   5.076   8.758   9.347 -0.6542  0.7231 -0.7406
  868MOL0     C17107   4.995   8.703   9.467  0.2621 -0.1712 -0.3696
  868MOL0     C17108   4.960   8.565   9.431  1.3585 -0.3548 -0.2845
  868MOL0     C17109   4.939   8.445   9.394  0.0517  0.1305  0.0650
  868MOL0     C17110   5.121   8.822   8.878 -0.9476 -0.3890 -0.2874
  868MOL0     C17111   5.115   8.904   8.767  0.0412 -0.4120 -0.5133
  868MOL0     C17112   5.038   8.864   8.644 -0.6498 -0.0222  0.5016
  868MOL0     H17113   5.020   9.085   8.403  0.2702 -0.5695  0.2309
  868MOL0     H17114   5.018   9.142   8.162 -0.0825 -1.1663 -0.0303
  868MOL0     H17115   5.112   9.372   7.936 -0.2407  1.6443  0.4456
  868MOL0     H17116   5.181   9.423   8.078  2.9124  1.7563 -0.4658
  868MOL0     H17117   5.387   9.350   7.872  0.6428  1.7877 -1.2418
  868MOL0     H17118   5.378   9.495   7.958  0.4414  0.1038  0.1289
  868MOL0     H17119   5.337   9.557   7.737  3.2288 -3.1275  0.7526
  868MOL0     H17120   5.166   9.524   7.766  0.6084 -1.1446  0.9970
  868MOL0     H17121   5.334   9.294   7.663 -1.3234 -1.9346 -3.0141
  868MOL0     H17122   5.165   9.317   7.679  1.5843 -1.6999 -1.4557
  868MOL0     H17123   5.325   9.496   7.486  1.0808 -0.7640  0.5022
  868MOL0     H17124   5.251   9.334   7.438 -2.1830  0.5202 -1.3009
  868MOL0     H17125   5.126   9.593   7.516 -2.1304 -1.3247  2.8578
  868MOL0     H17126   5.126   9.501   7.364 -0.1350  1.0257  0.9523
  868MOL0     H17127   4.917   9.506   7.475 -0.3222 -0.1679  1.0031
  868MOL0     H17128   4.982   9.455   7.622 -0.1348 -1.0482  0.1620
  868MOL0     H17129   4.947   9.272   7.386  0.5838 -3.1275  0.9260
  868MOL0     H17130   5.048   9.229   7.523 -0.5265 -0.7170 -0.9142
  868MOL0     H17131   4.691   9.344   7.446  0.6955  2.3742  0.8946
  868MOL0     H17132   4.455   9.361   7.584 -3.9905 -0.6751 -0.8950
  868MOL0     H17133   4.437   9.196   7.592 -1.6778  0.9468  0.2518
  868MOL0     H17134   4.442   9.164   7.820  1.6980  0.7581  1.4463
  868MOL0     H17135   4.493   9.339   7.842 -0.7674  0.5950  1.9382
  868MOL0     H17136   4.247   9.267   7.694 -0.5857  0.9804 -0.3518
  868MOL0     H17137   4.281   9.421   7.785  0.4062  0.6277 -4.3325
  868MOL0     H17138   4.108   9.293   7.906 -1.0197  0.6358 -1.3045
  868MOL0     H17139   4.260   9.299   7.990  1.9238  0.6017 -1.7043
  868MOL0     H17140   4.180   8.849   7.938 -2.8192 -2.9493 -0.3730
  868MOL0     H17141   4.045   8.714   8.098 -3.4141 -0.0122 -2.9822
  868MOL0     H17142   3.753   9.053   8.565  1.0876 -1.2341  0.5937
  868MOL0     H17143   3.586   9.002   8.734 -1.5274 -0.2260 -1.7294
  868MOL0     H17144   3.361   8.610   8.730  2.5180  0.4066 -1.0667
  868MOL0     H17145   3.479   8.588   8.859 -0.9991 -2.8852 -1.4918
  868MOL0     H17146   3.334   8.720   9.024  0.3151 -1.9533  1.6967
  868MOL0     H17147   3.217   8.739   8.885  0.4077 -2.0807 -2.8148
  868MOL0     H17148   3.231   8.487   8.855  0.1483  0.3060 -0.6500
  868MOL0     H17149   3.336   8.485   8.998  0.7794  1.4640  0.7593
  868MOL0     H17150   3.158   8.550   9.144 -1.4412  1.6899  0.5512
  868MOL0     H17151   3.123   8.413   9.064  0.3020  1.2946 -0.3123
  868MOL0     H17152   2.968   8.673   9.033 -1.1771  0.6781 -0.5827
  868MOL0     H17153   2.922   8.516   9.078  1.2651 -0.7125  0.0195
  868MOL0     H17154   2.852   8.612   8.864  1.4198  1.4841  1.0607
  868MOL0     H17155   3.011   8.575   8.796 -2.1321  3.2763 -1.3462
  868MOL0     H17156   2.796   8.400   8.912  0.7007  0.5668  1.5649
  868MOL0     H17157   2.951   8.333   8.899 -0.6352  0.0710 -0.3370
  868MOL0     H17158   2.803   8.265   8.692 -1.8290  0.5450 -1.1500
  868MOL0     H17159   2.798   8.437   8.657 -2.0371  0.3311  1.6680
  868MOL0     H17160   3.593   8.586   8.625  1.5921  0.3024 -0.8545
  868MOL0     H17161   3.783   8.634   8.481  0.3927  0.3578  0.4868
  868MOL0     H17162   3.931   9.098   8.282 -0.1973  1.1384 -0.2814
  868MOL0     H17163   4.040   9.213   8.111  2.5065  0.0066 -1.3753
  868MOL0     H17164   5.449   9.220   8.195 -1.2247 -0.2486  0.1990
  868MOL0     H17165   5.449   9.147   8.401  0.3937  1.2517 -0.3400
  868MOL0     H17166   5.294   9.154   8.896  0.9263  0.4065 -3.6594
  868MOL0     H17167   5.328   8.992   9.080 -0.2897  3.5775 -0.6625
  868MOL0     H17168   5.260   8.881   9.240 -2.0043  0.0728 -1.4281
  868MOL0     H17169   5.383   8.754   9.223  0.0214  2.6739  2.1816
  868MOL0     H17170   5.288   8.715   9.411 -0.1805  0.0843 -0.4713
  868MOL0     H17171   5.223   8.593   9.294  2.6808 -0.2455 -0.1187
  868MOL0     H17172   5.028   8.746   9.250  1.8493  1.1804 -2.1449
  868MOL0     H17173   5.094   8.862   9.377  3.4123 -0.1098  0.4474
  868MOL0     H17174   5.048   8.691   9.562  0.5601  1.4173 -0.3057
  868MOL0     H17175   4.908   8.764   9.491 -0.5683 -1.7784  0.9373
  868MOL0     H17176   4.942   8.346   9.352  2.4489  1.1836 -2.5549
  868MOL0     H17177   5.082   8.722   8.866 -0.3793 -0.6454 -0.0063
  868MOL0     H17178   4.977   8.773   8.650 -2.5287  1.0363 -1.2317
  868MOL0     H17179   4.964   8.944   8.636  0.6283  1.6640  3.7742
  868MOL0     H17180   5.100   8.859   8.554  0.2615  0.5246  1.0902
  869MOL0     O17181  10.608   8.182   6.459  0.4837 -0.6293 -0.1570
  869MOL0     C17182  10.560   8.294   6.475 -0.8443 -0.2297  0.1671
  869MOL0     O17183  10.590   8.399   6.386  1.0013  0.2414  0.0102
  869MOL0     C17184  10.671   8.385   6.279  0.7529  0.7659  0.1585
  869MOL0     C17185  10.654   8.276   6.189  0.5718 -1.9341  0.4687
  869MOL0     C17186  10.734   8.259   6.078 -0.3151  0.6587 -0.5025
  869MOL0     C17187  10.820   8.358   6.048  0.1201 -0.5011  0.3240
  869MOL0     O17188  10.874   8.345   5.922  0.2822 -0.0811 -0.7900
  869MOL0     C17189  10.993   8.419   5.883 -1.0558  1.0125 -0.1405
  869MOL0     C17190  10.965   8.563   5.840 -0.2419  0.4922  0.3679
  869MOL0     C17191  10.961   8.559   5.682 -0.4497 -0.0507 -0.7038
  869MOL0     C17192  10.920   8.699   5.622 -0.3404  0.5471  0.3145
  869MOL0     C17193  10.926   8.713   5.468  0.3996 -0.1927  0.2421
  869MOL0     C17194  10.823   8.639   5.392  0.5116  0.7878  0.5433
  869MOL0     C17195  10.851   8.651   5.250 -0.5913  0.1332 -0.8007
  869MOL0     C17196  10.911   8.523   5.199  0.8055 -0.1744  0.3783
  869MOL0     N17197  10.965   8.537   5.062 -0.1274 -0.8079 -0.0193
  869MOL0     C17198  10.912   8.515   4.937  0.9437 -0.0676 -0.5477
  869MOL0     C17199  10.987   8.590   4.851 -0.7770  0.9812 -0.3459
  869MOL0     C17200  10.962   8.607   4.703 -0.1719 -0.1950 -0.6160
  869MOL0     C17201  10.888   8.732   4.687 -0.4813  0.1203 -0.1614
  869MOL0     C17202  10.733   8.719   4.684  1.0229 -0.5104  0.1736
  869MOL0     C17203  10.660   8.693   4.810  0.0171 -0.3026 -0.4079
  869MOL0     O17204  10.513   8.732   4.796 -0.1617  0.0358 -0.8596
  869MOL0     C17205  10.434   8.728   4.910 -0.0593  0.4931 -0.4420
  869MOL0     C17206  10.464   8.668   5.040  0.0072 -0.2518  1.3363
  869MOL0     C17207  10.370   8.672   5.142  0.3722  0.5492 -0.1534
  869MOL0     C17208  10.240   8.723   5.122  0.1842 -0.5686  0.6731
  869MOL0     C17209  10.154   8.737   5.247  0.8826 -0.6280  0.1452
  869MOL0     O17210  10.217   8.722   5.365 -0.2409  0.6749 -0.4256
  869MOL0     C17211  10.145   8.744   5.480  0.0452 -0.4078 -0.6138
  869MOL0     C17212  10.187   8.848   5.573  1.0445 -0.1484  0.2528
  869MOL0     C17213  10.124   8.856   5.699  0.2199 -0.9621 -0.6255
  869MOL0     C17214  10.019   8.769   5.733  0.3084  0.2028 -0.1196
  869MOL0     O17215   9.970   8.776   5.858 -0.8449 -0.0579 -0.2028
  869MOL0     C17216   9.833   8.735   5.889  0.0020  0.0222  0.4244
  869MOL0     C17217   9.798   8.764   6.041 -0.3650  0.3509 -0.0061
  869MOL0     C17218   9.895   8.684   6.134  0.6365 -0.2632 -0.9277
  869MOL0     C17219   9.859   8.697   6.277 -0.5015  0.6004 -1.1806
  869MOL0     C17220   9.976   8.626   6.357 -0.1883  0.0835 -0.1080
  869MOL0     C17221   9.955   8.649   6.514 -0.5481 -0.8852  0.7148
  869MOL0     C17222  10.047   8.563   6.600 -1.1170  0.9692  0.1125
  869MOL0     C17223   9.968   8.523   6.722 -0.1192  0.4224 -0.5001
  869MOL0    Cl17224   9.877   8.663   6.783  0.0761  0.0697  0.1718
  869MOL0     C17225   9.987   8.666   5.644  0.2075  0.4166 -0.3398
  869MOL0     C17226  10.040   8.657   5.518  0.0080 -0.2274 -1.2685
  869MOL0     O17227  10.032   8.770   5.241  0.1441  0.6207 -0.4745
  869MOL0     C17228  10.213   8.783   5.003 -1.1873 -0.6228  1.0255
  869MOL0     C17229  10.306   8.784   4.895 -0.3303  0.4740 -0.6279
  869MOL0     N17230  11.100   8.638   4.915 -0.1311  0.3221 -0.5205
  869MOL0     N17231  11.076   8.617   5.042  0.6525 -0.7922  0.3824
  869MOL0     C17232  10.847   8.458   6.139  1.0458  0.4733  0.1129
  869MOL0     C17233  10.769   8.477   6.249 -1.2496 -0.3204 -0.7059
  869MOL0     C17234  10.486   8.308   6.605 -0.0948  0.2089 -0.0906
  869MOL0     C17235  10.482   8.199   6.695 -0.0271  0.3350 -0.7493
  869MOL0     C17236  10.406   8.203   6.806 -0.5739  1.1342 -1.1998
  869MOL0     C17237  10.340   8.317   6.852  0.7591  0.7256  0.3740
  869MOL0     O17238  10.252   8.310   6.958  1.1032  0.0078  0.5231
  869MOL0     C17239  10.321   8.303   7.082  0.8375 -0.5983  0.1414
  869MOL0     C17240  10.225   8.359   7.185 -0.5741  0.1361  0.4044
  869MOL0     C17241  10.209   8.512   7.181  0.4153 -0.0864  0.0252
  869MOL0     C17242  10.074   8.556   7.234  0.4433  0.2624  0.6204
  869MOL0     C17243  10.071   8.545   7.377 -0.1537 -0.2583 -0.2806
  869MOL0     C17244  10.049   8.539   7.499 -0.1646 -0.3188  0.0942
  869MOL0     C17245  10.354   8.432   6.778 -0.9195 -0.1698  0.6910
  869MOL0     C17246  10.423   8.427   6.656  0.4900 -0.5888 -0.0031
  869MOL0     C17247  10.427   8.551   6.581 -0.5818 -0.9298  0.9952
  869MOL0     H17248  10.572   8.207   6.203 -0.3523 -1.4902 -2.2316
  869MOL0     H17249  10.727   8.172   6.013  0.7895  0.7316 -0.7463
  869MOL0     H17250  11.071   8.406   5.959 -1.4698  2.0658  0.4778
  869MOL0     H17251  11.051   8.367   5.806 -0.1077  0.2387  1.0448
  869MOL0     H17252  11.046   8.621   5.882  1.6189 -1.7732  0.1081
  869MOL0     H17253  10.878   8.611   5.886 -0.2108  1.4541 -0.5472
  869MOL0     H17254  10.902   8.481   5.634  3.7431 -1.8599 -3.5711
  869MOL0     H17255  11.066   8.555   5.650 -0.0031 -0.9337  0.7975
  869MOL0     H17256  10.817   8.716   5.657 -0.5762 -0.6711  0.2372
  869MOL0     H17257  10.977   8.783   5.663  0.2353  1.4262 -2.1601
  869MOL0     H17258  10.923   8.820   5.447  0.7553  0.0946  1.5973
  869MOL0     H17259  11.028   8.681   5.442  0.3686 -0.6544  0.6797
  869MOL0     H17260  10.816   8.533   5.418 -2.7310  0.4275 -1.2895
  869MOL0     H17261  10.723   8.677   5.410 -0.0768 -1.5838  3.0090
  869MOL0     H17262  10.914   8.740   5.239 -0.9572  0.5585  0.3617
  869MOL0     H17263  10.764   8.671   5.186 -0.1634 -2.5660 -2.3938
  869MOL0     H17264  10.992   8.494   5.266  1.3969  0.2955 -0.1190
  869MOL0     H17265  10.834   8.446   5.198  0.0519  0.4800  2.6867
  869MOL0     H17266  10.823   8.456   4.917  0.5766 -0.0839  1.0192
  869MOL0     H17267  11.060   8.614   4.655  1.2834 -0.5273  2.0905
  869MOL0     H17268  10.905   8.523   4.662 -2.2228  0.5570  0.5242
  869MOL0     H17269  10.914   8.807   4.762 -3.0026 -1.5950  2.6243
  869MOL0     H17270  10.927   8.757   4.587 -1.5355 -2.0503 -1.1743
  869MOL0     H17271  10.706   8.633   4.622 -0.9369 -0.8001  1.3685
  869MOL0     H17272  10.690   8.801   4.626  1.9675 -1.3516 -1.8069
  869MOL0     H17273  10.702   8.756   4.889 -2.4147 -1.3303  1.8532
  869MOL0     H17274  10.684   8.589   4.834  0.1347 -0.5183 -1.4371
  869MOL0     H17275  10.565   8.629   5.054  0.5438  0.3017 -0.7144
  869MOL0     H17276  10.393   8.645   5.244  3.5245  2.1649 -0.3083
  869MOL0     H17277  10.266   8.917   5.545  0.9077  0.3154  0.9720
  869MOL0     H17278  10.160   8.936   5.762 -1.0176  1.7014 -3.0846
  869MOL0     H17279   9.765   8.779   5.816 -2.5709  0.2656  2.7898
  869MOL0     H17280   9.834   8.627   5.872  2.1046  0.2220 -1.0202
  869MOL0     H17281   9.816   8.871   6.051  2.3479 -0.0253  0.0578
  869MOL0     H17282   9.693   8.746   6.066 -0.6256  4.2919  2.5016
  869MOL0     H17283   9.880   8.584   6.093 -1.7617 -0.8261  1.0650
  869MOL0     H17284   9.999   8.711   6.117  0.0934  1.6686 -1.4624
  869MOL0     H17285   9.764   8.648   6.301 -0.8503 -0.4526 -4.2935
  869MOL0     H17286   9.855   8.804   6.299  3.8628  0.7610 -0.2893
  869MOL0     H17287  10.077   8.660   6.334  2.0595 -3.2001  3.5650
  869MOL0     H17288   9.984   8.521   6.326 -2.9676  0.1072 -1.2338
  869MOL0     H17289   9.980   8.754   6.532  0.8479 -0.6773 -1.9537
  869MOL0     H17290   9.853   8.633   6.549 -0.3103 -4.7860  0.0252
  869MOL0     H17291  10.141   8.608   6.632  1.5078 -1.6098 -3.2210
  869MOL0     H17292  10.066   8.470   6.544  0.6238 -0.6510  3.1433
  869MOL0     H17293   9.902   8.439   6.695  0.1272  0.0648 -0.0036
  869MOL0     H17294  10.028   8.482   6.804 -2.0351 -0.9257  0.3075
  869MOL0     H17295   9.904   8.600   5.664  2.3564 -2.9087 -1.5103
  869MOL0     H17296  10.003   8.578   5.453 -2.7322 -2.1188  2.2596
  869MOL0     H17297  10.126   8.847   4.988  1.0649  2.2831 -0.6974
  869MOL0     H17298  10.282   8.822   4.796  2.1391 -0.0519 -1.4912
  869MOL0     H17299  10.901   8.547   6.110  1.2897  1.3951  3.0731
  869MOL0     H17300  10.789   8.555   6.321  1.1467 -1.5988  0.1339
  869MOL0     H17301  10.524   8.109   6.652  0.2083  0.6295 -1.1394
  869MOL0     H17302  10.399   8.120   6.876  0.5206  1.5001 -0.6419
  869MOL0     H17303  10.416   8.355   7.067  0.7453 -0.6046 -0.5038
  869MOL0     H17304  10.341   8.202   7.117 -1.4625 -0.9419  0.6207
  869MOL0     H17305  10.259   8.334   7.285  1.5429 -1.9465 -0.7412
  869MOL0     H17306  10.132   8.305   7.168 -0.5031  0.7518 -2.4499
  869MOL0     H17307  10.209   8.552   7.079 -0.8564 -0.9714 -0.3415
  869MOL0     H17308  10.287   8.568   7.234 -0.3491  1.1097 -0.0694
  869MOL0     H17309  10.067   8.663   7.216 -2.1454  0.4796  2.3458
  869MOL0     H17310   9.996   8.498   7.184 -2.3135  1.6295  3.0195
  869MOL0     H17311  10.007   8.539   7.598 -1.2170  2.0975 -0.2730
  869MOL0     H17312  10.312   8.522   6.821  0.2002  0.1422  1.1721
  869MOL0     H17313  10.520   8.584   6.535 -1.7173 -2.2335 -2.5849
  869MOL0     H17314  10.364   8.539   6.492 -1.6561  3.8325  0.8405
  869MOL0     H17315  10.385   8.638   6.632 -0.5031  1.1811 -2.2440
  870MOL0     O17316   6.141  10.030  10.589  0.0560 -0.4734  0.6323
  870MOL0     C17317   6.246  10.007  10.530 -0.0683 -0.2664  0.3525
  870MOL0     O17318   6.348   9.930  10.573  0.4271 -0.3495 -1.0609
  870MOL0     C17319   6.300   9.832  10.660 -0.7597  0.0599  0.3444
  870MOL0     C17320   6.361   9.806  10.785 -0.7497  0.1059  0.6493
  870MOL0     C17321   6.308   9.703  10.868  0.2857  0.5716  1.0852
  870MOL0     C17322   6.199   9.629  10.826 -0.9529  0.4825 -0.4663
  870MOL0     O17323   6.154   9.545  10.923 -0.3402 -0.2941  0.4676
  870MOL0     C17324   6.014   9.565  10.939 -0.6688  0.4135 -0.2219
  870MOL0     C17325   5.968   9.489  11.062  0.2528  0.7767 -0.3848
  870MOL0     C17326   5.948   9.340  11.026  0.5773  0.1975  0.1496
  870MOL0     C17327   5.934   9.249  11.156 -0.2135 -0.4007 -0.4923
  870MOL0     C17328   5.914   9.094  11.142 -0.3408 -0.5465  0.3739
  870MOL0     C17329   5.761   9.053  11.136 -0.0238  0.0278  0.3645
  870MOL0     C17330   5.766   8.913  11.085 -0.6741  0.2974 -0.5334
  870MOL0     C17331   5.624   8.844  11.094  0.5071  0.0907 -0.7605
  870MOL0     N17332   5.631   8.695  11.087 -0.4558  0.6789 -0.2614
  870MOL0     C17333   5.678   8.610  11.187  0.3346 -0.0179 -0.4665
  870MOL0     C17334   5.641   8.486  11.160 -0.3106  0.1241  0.5848
  870MOL0     C17335   5.686   8.370  11.248 -1.4734  0.1176  0.9659
  870MOL0     C17336   5.557   8.285  11.275  0.0220 -0.0977 -0.3913
  870MOL0     C17337   5.593   8.189  11.388 -0.0569  0.8509  0.4082
  870MOL0     C17338   5.484   8.116  11.459  0.4699  0.1256 -0.3417
  870MOL0     O17339   5.514   7.993  11.521  0.1795 -0.0617  0.1534
  870MOL0     C17340   5.405   7.918  11.567 -1.5067  0.8025 -0.9516
  870MOL0     C17341   5.430   7.776  11.580  0.0798  0.5819  0.5023
  870MOL0     C17342   5.329   7.683  11.592 -0.0989 -0.5855 -0.8281
  870MOL0     C17343   5.200   7.731  11.606 -1.1633 -0.2467 -0.2526
  870MOL0     C17344   5.085   7.654  11.643  1.0187  0.6250  0.2520
  870MOL0     O17345   4.956   7.704  11.637  1.0278 -0.4162  0.7240
  870MOL0     C17346   4.864   7.624  11.689  0.1922 -0.6443 -0.2879
  870MOL0     C17347   4.866   7.577  11.821  0.3740 -0.2677  0.0118
  870MOL0     C17348   4.769   7.490  11.865  0.4670  0.1823  0.2688
  870MOL0     C17349   4.663   7.448  11.793  1.3740 -0.7226  0.1289
  870MOL0     O17350   4.561   7.370  11.845 -0.5699  0.1953 -0.5417
  870MOL0     C17351   4.434   7.384  11.791  0.4809  0.0239  0.6252
  870MOL0     C17352   4.326   7.302  11.873  0.4578  0.1178 -0.1772
  870MOL0     C17353   4.320   7.147  11.850  0.3059 -0.0519 -0.3870
  870MOL0     C17354   4.400   7.068  11.957 -0.6959 -0.1185 -0.1761
  870MOL0     C17355   4.367   6.911  11.935 -0.4221  0.8858  0.2847
  870MOL0     C17356   4.223   6.875  11.967  1.3974  0.8326  0.2549
  870MOL0     C17357   4.176   6.740  11.909 -0.1052 -0.1028  0.5691
  870MOL0     C17358   4.027   6.711  11.946 -0.5751 -0.2843  0.5481
  870MOL0    Cl17359   3.979   6.757  12.106  0.1739 -0.4489 -0.0970
  870MOL0     C17360   4.657   7.500  11.663 -0.6004  0.4539  0.6286
  870MOL0     C17361   4.760   7.576  11.607  0.1834 -0.7303  0.1183
  870MOL0     O17362   5.115   7.536  11.681 -0.1478  0.7761  0.1423
  870MOL0     C17363   5.167   7.868  11.585  0.5130  0.4880  0.1353
  870MOL0     C17364   5.271   7.954  11.569  0.1440 -0.8671  0.0362
  870MOL0     N17365   5.567   8.485  11.044 -0.7399 -1.5014  0.2450
  870MOL0     N17366   5.575   8.612  10.995  0.1722 -0.0850 -0.1081
  870MOL0     C17367   6.141   9.644  10.702 -0.1891 -0.0950 -0.5588
  870MOL0     C17368   6.194   9.746  10.619 -0.2470  0.0667 -0.9776
  870MOL0     C17369   6.267  10.050  10.391  0.4358  0.2684  1.0568
  870MOL0     C17370   6.396  10.096  10.344 -0.5018 -0.1326  0.8000
  870MOL0     C17371   6.406  10.168  10.224 -0.1685  0.1773 -0.2898
  870MOL0     C17372   6.301  10.176  10.134 -0.6776  0.4554  0.1640
  870MOL0     O17373   6.328  10.249  10.021 -0.1271 -0.0043  0.6757
  870MOL0     C17374   6.226  10.266   9.922 -0.9469  0.2611 -0.1084
  870MOL0     C17375   6.168  10.398   9.957 -0.7452 -0.4174  0.2107
  870MOL0     C17376   6.131  10.466   9.829  0.4570 -0.1380 -0.2399
  870MOL0     C17377   6.015  10.563   9.832  0.1663 -0.9670 -0.4555
  870MOL0     C17378   6.035  10.683   9.922 -0.3259 -0.6236  0.1186
  870MOL0     C17379   6.064  10.785   9.986 -0.4394  0.9012  0.2561
  870MOL0     C17380   6.178  10.120  10.172 -0.7557  0.0886 -0.5372
  870MOL0     C17381   6.165  10.054  10.294  0.2884 -0.0605  0.4813
  870MOL0     C17382   6.033   9.994  10.321  0.0784  1.1362  0.3568
  870MOL0     H17383   6.446   9.860  10.825 -0.5310  0.4177 -0.2193
  870MOL0     H17384   6.357   9.680  10.963  1.0628 -0.2394  0.5095
  870MOL0     H17385   5.992   9.672  10.945 -0.9338  0.2980  1.0888
  870MOL0     H17386   5.958   9.528  10.852 -0.7636  2.7229 -1.2077
  870MOL0     H17387   5.871   9.533  11.088  0.9020  1.5268  0.8545
  870MOL0     H17388   6.032   9.509  11.148  0.0700  2.9614 -0.7023
  870MOL0     H17389   6.043   9.305  10.984  0.2680  0.8644 -1.1555
  870MOL0     H17390   5.869   9.329  10.952 -2.8231  1.4172  3.3125
  870MOL0     H17391   6.022   9.268  11.219  1.1319  2.3538 -2.9387
  870MOL0     H17392   5.842   9.288  11.202  0.2634 -1.0918  1.0962
  870MOL0     H17393   5.957   9.067  11.045  1.7180  1.1440  0.7382
  870MOL0     H17394   5.950   9.047  11.234 -0.6859  0.2063  0.8982
  870MOL0     H17395   5.710   9.056  11.233 -2.3882 -2.1278 -0.6972
  870MOL0     H17396   5.700   9.122  11.078  1.5319  0.3309 -0.9844
  870MOL0     H17397   5.825   8.857  11.157 -0.5246 -0.7697 -1.4618
  870MOL0     H17398   5.796   8.907  10.980 -2.3317 -1.3340 -0.9662
  870MOL0     H17399   5.576   8.868  11.190  0.9302  2.0333 -0.9996
  870MOL0     H17400   5.552   8.889  11.025 -0.5590  0.2034  0.3838
  870MOL0     H17401   5.726   8.644  11.278  2.0007  1.7561 -1.9199
  870MOL0     H17402   5.764   8.316  11.193 -1.7455  0.5068  0.1770
  870MOL0     H17403   5.725   8.417  11.338 -0.4808  0.2689  0.4719
  870MOL0     H17404   5.483   8.355  11.314 -1.3162  0.3106 -3.4306
  870MOL0     H17405   5.524   8.236  11.184  0.8772  0.3217 -0.9465
  870MOL0     H17406   5.630   8.258  11.464 -1.3858  3.9003 -1.5272
  870MOL0     H17407   5.673   8.119  11.361 -3.2156 -2.7037 -0.7462
  870MOL0     H17408   5.419   8.088  11.375  2.2377 -0.5668 -1.5248
  870MOL0     H17409   5.434   8.189  11.524  0.7093  1.9878 -2.1539
  870MOL0     H17410   5.531   7.742  11.562 -0.4610 -0.5645 -0.5267
  870MOL0     H17411   5.356   7.578  11.585  1.1553 -0.3792  0.4531
  870MOL0     H17412   4.941   7.610  11.892  0.5371 -0.3162 -0.1346
  870MOL0     H17413   4.776   7.459  11.969 -0.5777  4.4220  1.8313
  870MOL0     H17414   4.400   7.487  11.782 -0.9766 -0.5817 -1.6772
  870MOL0     H17415   4.430   7.348  11.687 -0.5929 -1.3418  1.1114
  870MOL0     H17416   4.344   7.333  11.976 -1.8866  3.4916 -0.6219
  870MOL0     H17417   4.224   7.339  11.856  0.9699  2.4412  1.2596
  870MOL0     H17418   4.212   7.131  11.858  0.1900  1.0879  0.6568
  870MOL0     H17419   4.357   7.115  11.753 -0.5502 -1.5479 -0.2560
  870MOL0     H17420   4.376   7.097  12.059  3.7137  2.5450  0.3726
  870MOL0     H17421   4.505   7.091  11.938 -1.3804  1.9136 -1.8329
  870MOL0     H17422   4.435   6.858  12.003 -1.8432 -3.6405 -1.4501
  870MOL0     H17423   4.390   6.868  11.837 -2.4549 -0.6591  0.4160
  870MOL0     H17424   4.203   6.876  12.075  2.7434 -1.5736  0.5867
  870MOL0     H17425   4.145   6.948  11.945 -0.0270 -0.6409  0.2726
  870MOL0     H17426   4.238   6.656  11.940  1.2690 -1.0618 -4.0630
  870MOL0     H17427   4.193   6.754  11.802  0.4830  1.8468  0.8701
  870MOL0     H17428   3.968   6.764  11.871  3.5994  2.5282 -1.1463
  870MOL0     H17429   4.004   6.608  11.920  2.9210 -0.4338 -2.8559
  870MOL0     H17430   4.584   7.467  11.590  0.7473 -0.0978 -0.5159
  870MOL0     H17431   4.757   7.606  11.503 -0.3604  2.3799  0.9316
  870MOL0     H17432   5.066   7.906  11.587  1.2814  2.7172 -0.6916
  870MOL0     H17433   5.249   8.059  11.556  1.3194 -0.5016  0.8218
  870MOL0     H17434   6.056   9.588  10.663  1.1984 -1.5090 -1.6728
  870MOL0     H17435   6.145   9.777  10.528  2.0532  0.4473 -2.1692
  870MOL0     H17436   6.485  10.101  10.406 -0.0263  1.4752  0.0384
  870MOL0     H17437   6.502  10.213  10.201  0.8258 -1.1956  0.8945
  870MOL0     H17438   6.153  10.186   9.910  0.1665 -0.5083 -2.2077
  870MOL0     H17439   6.286  10.263   9.831  1.7750 -2.0474  1.5908
  870MOL0     H17440   6.242  10.463  10.005 -0.8700 -1.4631  1.9309
  870MOL0     H17441   6.076  10.384  10.015 -0.6743  0.5317  0.5834
  870MOL0     H17442   6.095  10.396   9.754 -3.9379 -1.0690  2.3762
  870MOL0     H17443   6.217  10.522   9.790  0.0058  0.8971  0.2082
  870MOL0     H17444   5.993  10.598   9.730  0.0737  1.7318  0.3917
  870MOL0     H17445   5.920  10.521   9.868 -0.0523  2.0158  3.0902
  870MOL0     H17446   6.065  10.883  10.029 -1.7919  1.5155 -1.0067
  870MOL0     H17447   6.081  10.132  10.127 -2.7839 -2.4647  2.6611
  870MOL0     H17448   5.981   9.967  10.229 -1.7147  1.9075  1.0837
  870MOL0     H17449   6.040   9.899  10.375 -1.3100  1.1110  0.5482
  870MOL0     H17450   5.965  10.067  10.367 -2.8788  0.2587 -2.2163
  871MOL0     O17451   0.818   3.039  10.747  0.2649  0.2403 -0.0066
  871MOL0     C17452   0.821   3.026  10.623  0.6348  0.1917 -0.3565
  871MOL0     O17453   0.869   3.116  10.539  0.1155  0.2811  0.9160
  871MOL0     C17454   0.924   3.233  10.598  0.7565  0.2630  0.1491
  871MOL0     C17455   0.837   3.317  10.670  0.4817 -0.5303 -0.2265
  871MOL0     C17456   0.896   3.419  10.744 -0.1078 -0.4105  0.4815
  871MOL0     C17457   1.036   3.447  10.728  0.4927 -0.1822  0.7171
  871MOL0     O17458   1.095   3.553  10.790  0.7164  0.3353 -0.4481
  871MOL0     C17459   1.067   3.579  10.930  0.3979  0.5586 -0.2779
  871MOL0     C17460   1.158   3.511  11.037 -0.8153 -0.6585 -1.0779
  871MOL0     C17461   1.100   3.504  11.182  0.0338 -0.1661  0.1835
  871MOL0     C17462   1.105   3.359  11.257 -0.1451 -0.2827 -0.5433
  871MOL0     C17463   1.088   3.364  11.408  0.1132  0.2798  0.5454
  871MOL0     C17464   0.956   3.440  11.428 -0.1747  0.0041  0.1281
  871MOL0     C17465   0.929   3.446  11.580 -0.0293 -0.3918  0.6152
  871MOL0     C17466   0.785   3.501  11.607  0.4008 -0.3692  0.1560
  871MOL0     N17467   0.751   3.470  11.747 -0.5302  0.1743  0.4714
  871MOL0     C17468   0.724   3.568  11.839 -0.3524  0.1289  1.1073
  871MOL0     C17469   0.677   3.502  11.947 -0.6591 -0.3629  0.3106
  871MOL0     C17470   0.658   3.563  12.086  0.3369 -0.2161  0.5426
  871MOL0     C17471   0.509   3.580  12.119 -0.4641 -0.0993 -0.8304
  871MOL0     C17472   0.436   3.452  12.153  1.2856 -0.2916 -0.1129
  871MOL0     C17473   0.279   3.474  12.146 -0.4183  1.3529 -0.1746
  871MOL0     O17474   0.228   3.538  12.266 -0.2160 -0.0815  0.4233
  871MOL0     C17475   0.211   3.470  12.389  1.3972 -0.9517  0.3631
  871MOL0     C17476   0.232   3.333  12.409  1.1203  0.4549  0.5518
  871MOL0     C17477   0.202   3.266  12.529  0.4696 -0.1999 -0.0629
  871MOL0     C17478   0.129   3.331  12.627  0.9547  0.5820 -0.2714
  871MOL0     C17479   0.067   3.253  12.738  0.2776  0.9224  0.3730
  871MOL0     O17480   0.006   3.330  12.825 -0.0575  0.0883  0.1267
  871MOL0     C17481  -0.037   3.277  12.944 -0.2605 -0.2096  0.5255
  871MOL0     C17482  -0.153   3.321  13.002  0.5234 -0.3384 -0.1735
  871MOL0     C17483  -0.205   3.262  13.127  0.3749 -0.2603  0.7278
  871MOL0     C17484  -0.144   3.154  13.178 -0.1731  0.2046  0.3371
  871MOL0     O17485  -0.186   3.093  13.288 -0.2754 -0.3598 -0.6536
  871MOL0     C17486  -0.268   3.173  13.382  0.0542  0.8081 -0.7700
  871MOL0     C17487  -0.419   3.160  13.359  0.4262  1.0792  0.4526
  871MOL0     C17488  -0.485   3.226  13.482  0.3210 -0.0826 -0.6671
  871MOL0     C17489  -0.590   3.299  13.405 -0.1640 -0.9999 -0.6128
  871MOL0     C17490  -0.697   3.354  13.507  0.8707  0.1258  1.7108
  871MOL0     C17491  -0.746   3.499  13.491  0.7828  0.1490 -0.0349
  871MOL0     C17492  -0.892   3.525  13.550 -0.1232  0.6806  0.4517
  871MOL0     C17493  -0.913   3.676  13.577 -0.0547  1.1097  0.2866
  871MOL0    Cl17494  -0.947   3.751  13.421  0.1621  0.5012 -0.3950
  871MOL0     C17495  -0.024   3.105  13.119  0.7634  0.5561  0.5023
  871MOL0     C17496   0.026   3.168  13.005 -0.1701  0.6358 -1.0093
  871MOL0     O17497   0.073   3.127  12.729  0.1285 -0.2075 -0.3362
  871MOL0     C17498   0.109   3.470  12.611  0.2168  0.2276  1.1514
  871MOL0     C17499   0.154   3.538  12.495  0.6048  0.3766 -0.3513
  871MOL0     N17500   0.680   3.367  11.920  0.4004  0.7673 -0.5988
  871MOL0     N17501   0.713   3.350  11.794 -0.4370 -0.1852 -0.4124
  871MOL0     C17502   1.114   3.370  10.642 -0.0337  0.5337  0.9582
  871MOL0     C17503   1.061   3.262  10.584 -0.0003 -0.2429  0.9132
  871MOL0     C17504   0.763   2.906  10.569  0.3287  0.2054 -0.1174
  871MOL0     C17505   0.689   2.815  10.655  0.1000  0.8242 -0.1536
  871MOL0     C17506   0.626   2.699  10.613 -1.4187  0.0242  0.3741
  871MOL0     C17507   0.632   2.667  10.481 -0.0302 -0.4711 -0.1975
  871MOL0     O17508   0.556   2.549  10.448 -0.1301 -0.1107  0.0347
  871MOL0     C17509   0.592   2.481  10.318 -0.5537 -0.1474 -0.4897
  871MOL0     C17510   0.549   2.343  10.345 -0.3482 -0.1390 -0.2076
  871MOL0     C17511   0.632   2.278  10.465  0.6851 -0.0309  0.0612
  871MOL0     C17512   0.758   2.209  10.401  1.2453  0.0049 -0.9874
  871MOL0     C17513   0.725   2.085  10.326  0.9387 -0.2154 -0.1917
  871MOL0     C17514   0.687   1.990  10.260  0.2087 -0.3866 -0.6400
  871MOL0     C17515   0.710   2.742  10.398 -0.1390  0.1038  0.6059
  871MOL0     C17516   0.778   2.857  10.439  0.3493 -0.0392  0.3205
  871MOL0     C17517   0.836   2.937  10.330  1.2719  0.2473  0.1690
  871MOL0     H17518   0.734   3.294  10.693  0.1333  0.3888 -0.7981
  871MOL0     H17519   0.836   3.481  10.809 -0.9094  0.3210 -0.8879
  871MOL0     H17520   1.066   3.686  10.955 -1.9549  1.0095 -1.9882
  871MOL0     H17521   0.968   3.542  10.959  1.7734 -2.3754  1.1664
  871MOL0     H17522   1.245   3.577  11.040 -2.0151  0.9547 -0.2085
  871MOL0     H17523   1.177   3.408  11.006  0.5634 -1.1922  1.2812
  871MOL0     H17524   0.996   3.538  11.178 -0.2901 -1.0635  0.6724
  871MOL0     H17525   1.147   3.581  11.244 -0.5716  0.0863  0.3385
  871MOL0     H17526   1.031   3.286  11.225 -1.5389 -0.5230  2.7843
  871MOL0     H17527   1.205   3.318  11.242 -0.8198 -2.0428 -0.4711
  871MOL0     H17528   1.078   3.259  11.437 -0.4368 -0.4002 -1.8920
  871MOL0     H17529   1.179   3.407  11.450  2.1980 -1.3450 -2.0242
  871MOL0     H17530   0.972   3.544  11.398 -1.0463  0.7301  2.0106
  871MOL0     H17531   0.875   3.393  11.371 -0.5007  2.2594 -1.3579
  871MOL0     H17532   1.002   3.512  11.629 -1.4782  0.2110  2.0446
  871MOL0     H17533   0.941   3.347  11.625 -2.1336 -1.2279 -0.4936
  871MOL0     H17534   0.789   3.610  11.602 -1.3137 -0.2660  0.3110
  871MOL0     H17535   0.708   3.465  11.538  0.3776  0.8266 -0.4597
  871MOL0     H17536   0.754   3.671  11.829  4.0176 -1.0984 -0.9357
  871MOL0     H17537   0.706   3.507  12.167  1.3140  1.9515  1.5680
  871MOL0     H17538   0.702   3.663  12.088 -2.5393  1.1767 -0.4525
  871MOL0     H17539   0.489   3.640  12.208  0.7155  2.5534 -2.2246
  871MOL0     H17540   0.468   3.620  12.026  1.6264 -0.2794 -1.8971
  871MOL0     H17541   0.465   3.417  12.253  1.0983 -2.0323 -0.6291
  871MOL0     H17542   0.467   3.376  12.080  1.4558 -2.7340  2.3326
  871MOL0     H17543   0.230   3.377  12.132  0.2720  1.2871 -2.5985
  871MOL0     H17544   0.237   3.534  12.065 -0.8653 -0.5908 -1.4441
  871MOL0     H17545   0.287   3.272  12.339 -1.7316 -0.5083 -1.0261
  871MOL0     H17546   0.223   3.159  12.527 -0.9990 -0.5116 -0.1351
  871MOL0     H17547  -0.206   3.401  12.951  0.2153 -0.7276 -0.4706
  871MOL0     H17548  -0.295   3.312  13.162  0.4657 -0.8112  1.7948
  871MOL0     H17549  -0.240   3.139  13.482  0.6202  0.0299 -1.1787
  871MOL0     H17550  -0.246   3.280  13.393 -0.5117  0.6593  3.9760
  871MOL0     H17551  -0.451   3.196  13.261  0.0560  2.1438  0.9543
  871MOL0     H17552  -0.441   3.053  13.369 -0.7804  1.1673 -0.9959
  871MOL0     H17553  -0.534   3.156  13.550  2.2224 -2.7044 -1.7966
  871MOL0     H17554  -0.423   3.305  13.526  1.4047 -1.1164 -0.2986
  871MOL0     H17555  -0.645   3.242  13.330 -1.1029 -0.0457 -0.6732
  871MOL0     H17556  -0.539   3.381  13.354  0.2561 -1.5307 -1.0444
  871MOL0     H17557  -0.673   3.325  13.609  2.7420  0.8855  1.5223
  871MOL0     H17558  -0.789   3.295  13.510  1.8567 -1.4331  2.2245
  871MOL0     H17559  -0.676   3.569  13.539 -2.6268  1.6384  3.2754
  871MOL0     H17560  -0.759   3.537  13.389 -1.9833 -1.0293 -0.1882
  871MOL0     H17561  -0.895   3.459  13.637  0.9998  1.4824  1.1155
  871MOL0     H17562  -0.973   3.503  13.478 -0.5138  2.4322  0.3126
  871MOL0     H17563  -1.010   3.685  13.629  0.2115 -0.7195  1.1589
  871MOL0     H17564  -0.828   3.729  13.622  1.0076  0.0768 -0.4631
  871MOL0     H17565   0.028   3.030  13.178  1.2333  1.3723  1.1523
  871MOL0     H17566   0.116   3.123  12.964 -0.8842 -0.9430 -0.8889
  871MOL0     H17567   0.055   3.525  12.688 -0.4803  2.0755 -0.5564
  871MOL0     H17568   0.127   3.642  12.479 -1.5975 -0.2943 -1.4003
  871MOL0     H17569   1.221   3.382  10.624 -0.2533 -1.3850 -2.2408
  871MOL0     H17570   1.123   3.199  10.521 -3.1453 -2.5350 -0.1977
  871MOL0     H17571   0.666   2.838  10.759 -2.5528 -3.0784  0.3152
  871MOL0     H17572   0.565   2.632  10.674 -2.5635 -1.5174 -2.2479
  871MOL0     H17573   0.695   2.490  10.284 -1.1077 -3.2031 -3.5568
  871MOL0     H17574   0.536   2.536  10.242  2.2786  2.7329 -0.6851
  871MOL0     H17575   0.566   2.283  10.255  4.9005  1.9787 -0.9543
  871MOL0     H17576   0.446   2.352  10.380  0.9385  0.2672  4.0694
  871MOL0     H17577   0.567   2.203  10.512 -0.1935  1.7271  1.7513
  871MOL0     H17578   0.657   2.357  10.536 -1.5090  1.6994 -0.9853
  871MOL0     H17579   0.809   2.288  10.344 -2.2331  4.4147  1.3759
  871MOL0     H17580   0.813   2.181  10.491 -0.5678 -0.2427  0.0890
  871MOL0     H17581   0.658   1.898  10.214 -0.7939 -1.2838  1.6413
  871MOL0     H17582   0.720   2.712  10.294  2.8332  4.4976 -0.6710
  871MOL0     H17583   0.772   3.024  10.310  1.3809  0.0322 -1.2548
  871MOL0     H17584   0.934   2.981  10.352  1.2687  0.7986 -0.8305
  871MOL0     H17585   0.840   2.883  10.235  2.8127  2.8808 -1.3871
  872MOL0     O17586   3.371   9.673  10.580 -0.4235 -0.9480  0.1995
  872MOL0     C17587   3.486   9.664  10.535 -0.1109  0.4901 -0.2568
  872MOL0     O17588   3.548   9.749  10.440  0.6038 -0.7649 -0.4544
  872MOL0     C17589   3.477   9.865  10.418 -0.1404 -1.3211  0.1522
  872MOL0     C17590   3.535   9.988  10.453 -0.7075  1.0218 -0.4568
  872MOL0     C17591   3.476  10.102  10.407 -0.1305 -1.0329  0.3410
  872MOL0     C17592   3.362  10.104  10.321 -0.0687  0.5858 -0.1414
  872MOL0     O17593   3.296  10.213  10.275 -0.3864 -0.8111 -0.0498
  872MOL0     C17594   3.347  10.343  10.325 -0.5064 -0.4294  0.0254
  872MOL0     C17595   3.302  10.466  10.234  0.2319 -0.0403 -0.8011
  872MOL0     C17596   3.336  10.596  10.297  0.2907 -0.6986 -0.3542
  872MOL0     C17597   3.488  10.612  10.346  0.1693  0.4369  0.2417
  872MOL0     C17598   3.498  10.723  10.449  0.0907  0.1488  1.2082
  872MOL0     C17599   3.454  10.857  10.388 -1.0197 -0.9165  1.5925
  872MOL0     C17600   3.328  10.909  10.442 -0.9516  0.2892  0.2846
  872MOL0     C17601   3.288  11.045  10.405 -0.0861  0.2899  1.2570
  872MOL0     N17602   3.386  11.154  10.451 -0.7908 -1.1807 -0.7336
  872MOL0     C17603   3.387  11.197  10.584 -0.2360 -0.6835 -0.0752
  872MOL0     C17604   3.457  11.314  10.571  0.4261  0.1915  0.0753
  872MOL0     C17605   3.465  11.419  10.670  0.2735  0.3295  0.4700
  872MOL0     C17606   3.565  11.415  10.779  1.0678 -0.9004  0.0441
  872MOL0     C17607   3.573  11.521  10.885 -0.0247  0.0094 -1.0063
  872MOL0     C17608   3.454  11.525  10.980  0.6937 -0.5624 -1.2008
  872MOL0     O17609   3.407  11.405  11.021  0.0520 -0.4655  0.0749
  872MOL0     C17610   3.456  11.348  11.139  0.1695  0.2093 -0.1793
  872MOL0     C17611   3.562  11.394  11.214  0.5098  0.5846  0.2527
  872MOL0     C17612   3.617  11.328  11.320 -0.2068  0.0682 -0.7936
  872MOL0     C17613   3.550  11.202  11.372 -0.4955 -0.6813 -0.1950
  872MOL0     C17614   3.611  11.129  11.485 -0.0376  0.3925  0.2315
  872MOL0     O17615   3.578  11.000  11.498 -0.3604  0.3176 -0.5725
  872MOL0     C17616   3.641  10.923  11.593  0.4833 -0.1669 -0.6829
  872MOL0     C17617   3.599  10.937  11.730  0.4708 -0.0394  1.2741
  872MOL0     C17618   3.646  10.866  11.832 -0.3102  0.6150 -0.0978
  872MOL0     C17619   3.731  10.757  11.803 -0.4306 -0.1380 -0.3833
  872MOL0     O17620   3.758  10.669  11.899 -0.2338  0.4879 -0.1265
  872MOL0     C17621   3.892  10.627  11.920  0.3375 -0.4654 -0.6396
  872MOL0     C17622   3.880  10.474  11.926  0.6384 -1.1824 -0.8927
  872MOL0     C17623   4.022  10.425  11.932 -0.5593 -0.0036  0.2573
  872MOL0     C17624   4.089  10.400  11.801 -0.7679  0.3776  1.2225
  872MOL0     C17625   4.233  10.347  11.814 -0.0367  0.5942  0.1521
  872MOL0     C17626   4.233  10.198  11.860  0.0471 -0.3544  0.5773
  872MOL0     C17627   4.373  10.148  11.834  0.0517  0.0927  0.0846
  872MOL0     C17628   4.415  10.031  11.917  0.0960  0.5977 -0.0276
  872MOL0    Cl17629   4.363   9.875  11.850  0.3863 -0.2332  0.1008
  872MOL0     C17630   3.773  10.731  11.671  0.4038 -0.0487 -0.6242
  872MOL0     C17631   3.738  10.817  11.573 -0.0460 -0.9988 -0.1507
  872MOL0     O17632   3.688  11.199  11.548 -0.5506 -0.0181  1.1210
  872MOL0     C17633   3.441  11.164  11.310  0.1919 -0.4288  0.1813
  872MOL0     C17634   3.392  11.241  11.196 -0.7363 -0.5270 -0.5150
  872MOL0     N17635   3.509  11.322  10.444 -0.4511  0.5222  0.8289
  872MOL0     N17636   3.468  11.231  10.374  0.9167 -0.4930 -0.0550
  872MOL0     C17637   3.307   9.983  10.289 -0.0902  0.4263 -0.0616
  872MOL0     C17638   3.368   9.864  10.333 -0.9210 -0.7928  0.9390
  872MOL0     C17639   3.572   9.559  10.601 -0.2960 -0.9138 -0.3453
  872MOL0     C17640   3.521   9.503  10.726  0.8305 -0.5741 -0.5236
  872MOL0     C17641   3.597   9.409  10.796  0.4199  0.1049  0.4710
  872MOL0     C17642   3.724   9.364  10.766  0.4008  0.4987  0.2472
  872MOL0     O17643   3.793   9.267  10.832  0.0959 -0.2610 -0.5232
  872MOL0     C17644   3.939   9.266  10.823 -0.3957  0.0318 -0.3700
  872MOL0     C17645   4.003   9.168  10.917  0.5354  0.5114  0.0218
  872MOL0     C17646   3.964   9.183  11.070 -0.2297 -0.3109 -0.8319
  872MOL0     C17647   4.092   9.206  11.158  0.2165 -0.8409 -0.3061
  872MOL0     C17648   4.179   9.319  11.120 -0.5583 -0.6163 -0.5538
  872MOL0     C17649   4.256   9.399  11.088  0.7064 -0.4504  0.1543
  872MOL0     C17650   3.769   9.422  10.643 -0.2736  0.3251  0.9068
  872MOL0     C17651   3.704   9.517  10.563 -0.5501  0.4061 -0.1034
  872MOL0     C17652   3.777   9.564  10.435  0.3068  1.1059  0.0882
  872MOL0     H17653   3.620  10.003  10.519 -1.2965 -1.2755  0.9317
  872MOL0     H17654   3.532  10.194  10.417  1.7218 -1.8850 -1.4626
  872MOL0     H17655   3.332  10.363  10.432  0.9285  0.8000  0.0282
  872MOL0     H17656   3.453  10.350  10.299  0.0490 -1.3322  1.8455
  872MOL0     H17657   3.195  10.450  10.216 -0.0877  1.2570 -0.1822
  872MOL0     H17658   3.355  10.450  10.140  0.5701 -2.7481 -0.2393
  872MOL0     H17659   3.276  10.597  10.388 -0.5834  0.5623 -0.9111
  872MOL0     H17660   3.302  10.681  10.236  1.5788 -0.4580 -0.7609
  872MOL0     H17661   3.526  10.525  10.400 -0.3070  1.6814  2.7525
  872MOL0     H17662   3.559  10.619  10.263  1.2003 -2.3600  0.7536
  872MOL0     H17663   3.427  10.694  10.526  0.8245 -3.6525  0.6321
  872MOL0     H17664   3.596  10.731  10.496  1.0304 -1.5018 -0.3798
  872MOL0     H17665   3.532  10.920  10.431 -1.3038  1.8685 -1.5621
  872MOL0     H17666   3.468  10.868  10.280 -1.2157  3.0264  1.8284
  872MOL0     H17667   3.342  10.910  10.551  0.5020 -0.2145  0.1332
  872MOL0     H17668   3.247  10.840  10.418 -1.5038  0.5694  1.2947
  872MOL0     H17669   3.299  11.066  10.299 -3.6423  3.7766  1.3512
  872MOL0     H17670   3.184  11.053  10.439 -1.3567 -0.4624 -2.0682
  872MOL0     H17671   3.333  11.162  10.672  0.4138  2.5172  1.7573
  872MOL0     H17672   3.482  11.513  10.616  0.0628  0.1406  0.0672
  872MOL0     H17673   3.374  11.425  10.729  1.8212  1.0733  2.9437
  872MOL0     H17674   3.559  11.319  10.831 -1.9868 -0.3907  0.8619
  872MOL0     H17675   3.663  11.420  10.732  1.4447  0.6800  0.9221
  872MOL0     H17676   3.591  11.624  10.852 -0.6662  0.2830 -0.5148
  872MOL0     H17677   3.654  11.481  10.948  1.2064  1.6468 -1.4634
  872MOL0     H17678   3.380  11.586  10.927  1.7497  1.5754 -0.3615
  872MOL0     H17679   3.478  11.592  11.063 -1.7475  2.2833 -2.5994
  872MOL0     H17680   3.624  11.480  11.189  1.6273 -0.6689 -1.5682
  872MOL0     H17681   3.705  11.380  11.358  1.2247 -2.7911  0.1446
  872MOL0     H17682   3.549  11.031  11.753  2.3105  1.3987 -0.2023
  872MOL0     H17683   3.608  10.891  11.930  2.2306 -0.1715  1.1574
  872MOL0     H17684   3.960  10.654  11.838  1.6340  4.5163  1.6977
  872MOL0     H17685   3.940  10.672  12.007  1.6539  2.5073 -2.7180
  872MOL0     H17686   3.825  10.456  12.019  0.4498  2.1373 -0.2502
  872MOL0     H17687   3.822  10.426  11.846  1.0017 -4.2759  0.5695
  872MOL0     H17688   4.090  10.495  11.982 -0.9474  0.5742 -0.0218
  872MOL0     H17689   4.010  10.328  11.982 -3.2166  0.4055  0.5595
  872MOL0     H17690   4.082  10.490  11.739 -2.4346  1.6863  3.1751
  872MOL0     H17691   4.026  10.319  11.761 -1.8987  1.4745  0.6962
  872MOL0     H17692   4.288  10.404  11.891  1.6246  0.3259 -0.7799
  872MOL0     H17693   4.289  10.366  11.722  0.0087  2.9632  0.5978
  872MOL0     H17694   4.211  10.191  11.967 -0.6147 -1.9558  0.3655
  872MOL0     H17695   4.155  10.143  11.805 -1.3252  0.6049  1.4947
  872MOL0     H17696   4.459  10.214  11.848  0.5464 -0.4080 -0.5433
  872MOL0     H17697   4.375  10.121  11.728  1.3114 -1.6405  0.5103
  872MOL0     H17698   4.523  10.030  11.934  0.3945 -1.3516 -1.6341
  872MOL0     H17699   4.364  10.040  12.013  0.3388 -1.0556  0.2807
  872MOL0     H17700   3.822  10.640  11.637 -4.3037 -3.4800  0.7612
  872MOL0     H17701   3.770  10.804  11.471 -1.3307 -0.8866 -0.5910
  872MOL0     H17702   3.395  11.072  11.343  1.4856 -0.8464  0.8821
  872MOL0     H17703   3.300  11.197  11.158 -1.2745  1.0714 -1.1156
  872MOL0     H17704   3.213   9.973  10.235 -0.8112  2.3986  0.7217
  872MOL0     H17705   3.325   9.765  10.319 -0.4171 -1.0066  0.8616
  872MOL0     H17706   3.420   9.526  10.759 -0.6806 -1.5833 -4.0170
  872MOL0     H17707   3.556   9.382  10.892  0.5371  3.7824  1.7179
  872MOL0     H17708   3.975   9.365  10.852 -2.0096  0.7669 -0.7892
  872MOL0     H17709   3.969   9.244  10.720 -0.9901  3.0041 -1.2707
  872MOL0     H17710   4.112   9.170  10.912  0.7302 -1.0656  2.1227
  872MOL0     H17711   3.968   9.069  10.885 -0.4081  1.3392 -1.5978
  872MOL0     H17712   3.907   9.096  11.103  1.0748 -0.5749  0.8668
  872MOL0     H17713   3.902   9.273  11.075 -0.9450 -0.8867  1.2461
  872MOL0     H17714   4.055   9.219  11.260 -1.8761 -1.0022 -0.9968
  872MOL0     H17715   4.145   9.110  11.164 -2.1212 -2.1539  1.0151
  872MOL0     H17716   4.325   9.471  11.050  0.5678  0.7792  2.0657
  872MOL0     H17717   3.865   9.397  10.598 -1.8116 -0.8900 -2.0035
  872MOL0     H17718   3.808   9.668  10.443 -0.7057  1.3647  0.9172
  872MOL0     H17719   3.853   9.489  10.411 -0.4695  0.0745  0.7375
  872MOL0     H17720   3.701   9.551  10.356 -2.7912  3.3474  2.4325
  873MOL0     O17721   6.804   4.953   6.372  1.0163  1.3618  0.2584
  873MOL0     C17722   6.926   4.960   6.380  0.6183  0.0270  0.1428
  873MOL0     O17723   7.013   4.954   6.269  0.8739 -0.2968  0.1361
  873MOL0     C17724   6.956   4.900   6.154 -0.5636  0.3137  0.0193
  873MOL0     C17725   6.965   4.760   6.139 -0.9270  0.2623 -0.0237
  873MOL0     C17726   6.921   4.697   6.026 -0.9595  0.5893  0.7600
  873MOL0     C17727   6.879   4.775   5.918  0.1740  1.1890  0.1718
  873MOL0     O17728   6.852   4.684   5.810 -0.7567  0.0620  0.2118
  873MOL0     C17729   6.766   4.733   5.704 -0.2537 -0.5052 -1.1450
  873MOL0     C17730   6.712   4.627   5.610  0.2388  0.6264  0.7182
  873MOL0     C17731   6.830   4.578   5.519  0.4504  0.8632  0.1014
  873MOL0     C17732   6.792   4.522   5.384 -0.5192 -0.3075  0.0957
  873MOL0     C17733   6.918   4.466   5.323  0.2921 -0.0101 -0.7276
  873MOL0     C17734   6.898   4.409   5.187 -0.9180  0.1748 -0.3025
  873MOL0     C17735   7.032   4.366   5.121 -0.1952  0.0582  0.4993
  873MOL0     C17736   7.115   4.257   5.192  0.7604 -0.7961 -0.2023
  873MOL0     N17737   7.242   4.225   5.129 -0.1861 -0.6213 -0.4354
  873MOL0     C17738   7.347   4.315   5.095  0.5778  0.6818 -0.1661
  873MOL0     C17739   7.420   4.233   5.024 -0.2729 -0.8087  0.3563
  873MOL0     C17740   7.551   4.272   4.948  0.6072 -0.1482  0.0131
  873MOL0     C17741   7.538   4.380   4.837 -0.6763 -0.8864 -1.3797
  873MOL0     C17742   7.462   4.339   4.723 -0.2158  0.1240 -0.3977
  873MOL0     C17743   7.475   4.446   4.609  0.4244 -0.3552 -0.5766
  873MOL0     O17744   7.401   4.570   4.642 -0.1811 -0.1152 -0.1794
  873MOL0     C17745   7.262   4.558   4.634  0.0292  0.1576 -0.5640
  873MOL0     C17746   7.184   4.541   4.522 -0.3307 -0.6201 -0.5502
  873MOL0     C17747   7.047   4.517   4.529  0.1695  0.7374  0.4635
  873MOL0     C17748   6.986   4.512   4.645  0.4871 -1.3294 -0.8093
  873MOL0     C17749   6.832   4.497   4.658  0.2169  1.1640 -0.5400
  873MOL0     O17750   6.789   4.487   4.784  0.5025  0.3071  0.1335
  873MOL0     C17751   6.655   4.463   4.817  0.3050 -0.5672 -0.3494
  873MOL0     C17752   6.564   4.382   4.752 -0.0879  0.1242 -0.2887
  873MOL0     C17753   6.443   4.335   4.808 -0.6491 -0.4379  0.1524
  873MOL0     C17754   6.397   4.378   4.933 -0.1696 -0.6266  0.1745
  873MOL0     O17755   6.267   4.358   4.988  0.0871 -0.7575  0.1868
  873MOL0     C17756   6.180   4.295   4.913  0.9193 -0.6805 -0.2763
  873MOL0     C17757   6.045   4.295   4.985  0.4290  0.0836 -1.1520
  873MOL0     C17758   6.039   4.240   5.132 -0.2863 -0.7094 -0.2734
  873MOL0     C17759   6.063   4.365   5.229 -0.5814  0.0958 -0.6837
  873MOL0     C17760   6.116   4.300   5.357 -0.2063  0.8379  0.4250
  873MOL0     C17761   6.114   4.395   5.478  0.5917  0.3961 -0.1495
  873MOL0     C17762   6.249   4.405   5.542  1.3806 -0.3305 -0.5260
  873MOL0     C17763   6.229   4.489   5.666 -0.1073 -0.6670  0.3729
  873MOL0    Cl17764   6.377   4.489   5.772 -0.0466 -0.1640  0.0827
  873MOL0     C17765   6.488   4.457   5.001 -0.1485  0.4326 -0.9191
  873MOL0     C17766   6.617   4.506   4.952  0.1761 -0.0223 -0.1892
  873MOL0     O17767   6.764   4.480   4.557 -0.7527 -0.2019  0.7131
  873MOL0     C17768   7.064   4.547   4.764  0.7512 -0.4266  0.2340
  873MOL0     C17769   7.198   4.567   4.755  0.5236  1.0450 -0.2966
  873MOL0     N17770   7.371   4.103   5.020 -0.6564  0.1164  0.4512
  873MOL0     N17771   7.261   4.100   5.081  0.3385  0.5714  0.0533
  873MOL0     C17772   6.859   4.912   5.931 -0.9887 -0.2723  0.2181
  873MOL0     C17773   6.909   4.975   6.045  0.8622  0.4953  0.0879
  873MOL0     C17774   6.985   4.981   6.514 -0.1597 -0.0707 -0.1846
  873MOL0     C17775   7.107   5.049   6.525  0.0149 -0.6462 -0.6185
  873MOL0     C17776   7.165   5.067   6.652  0.8323  0.2425 -0.0672
  873MOL0     C17777   7.114   5.013   6.767  0.2900 -0.0620 -0.7925
  873MOL0     O17778   7.185   5.002   6.879 -0.4425 -0.0523  0.5553
  873MOL0     C17779   7.312   5.068   6.893 -0.0405 -0.5044  0.5624
  873MOL0     C17780   7.303   5.210   6.953  0.0169  0.5095  0.1904
  873MOL0     C17781   7.273   5.311   6.843 -0.0265 -0.1900 -0.3869
  873MOL0     C17782   7.297   5.452   6.899 -0.4137 -0.6319 -0.6392
  873MOL0     C17783   7.272   5.553   6.800 -1.3766 -1.5140  1.3391
  873MOL0     C17784   7.254   5.626   6.704  0.3428  0.2489  0.0963
  873MOL0     C17785   6.992   4.951   6.755  0.9076  0.1849  0.8387
  873MOL0     C17786   6.931   4.925   6.628 -0.2474 -0.4520  0.2707
  873MOL0     C17787   6.796   4.854   6.634 -0.2666  0.1641  0.7774
  873MOL0     H17788   7.021   4.700   6.210 -0.6552 -2.2779 -2.2109
  873MOL0     H17789   6.936   4.590   6.016 -1.8140  0.3950  1.5119
  873MOL0     H17790   6.684   4.786   5.752 -0.8042 -1.1888 -1.3138
  873MOL0     H17791   6.826   4.809   5.653  0.3092  1.6450  2.3648
  873MOL0     H17792   6.642   4.685   5.550 -1.0702 -0.7789  0.7998
  873MOL0     H17793   6.658   4.542   5.653  1.0004  0.9724  2.4718
  873MOL0     H17794   6.893   4.512   5.579  1.6856  1.8444 -0.0931
  873MOL0     H17795   6.884   4.672   5.504 -2.2636  1.9974 -4.9380
  873MOL0     H17796   6.706   4.457   5.404 -0.4857 -0.0776  1.0176
  873MOL0     H17797   6.759   4.602   5.318 -1.3200 -1.8740 -1.4919
  873MOL0     H17798   6.984   4.554   5.321 -1.4168  1.4391  1.4573
  873MOL0     H17799   6.956   4.394   5.397 -1.7388  1.2529  1.7166
  873MOL0     H17800   6.847   4.313   5.198 -1.1018  0.2224 -0.7028
  873MOL0     H17801   6.846   4.474   5.116 -1.7220 -1.2018 -1.0397
  873MOL0     H17802   7.103   4.449   5.113  0.6869 -0.8565 -1.8381
  873MOL0     H17803   6.990   4.332   5.026 -1.2285  1.7341  0.3021
  873MOL0     H17804   7.139   4.295   5.292  2.8639 -0.7373 -0.6718
  873MOL0     H17805   7.053   4.168   5.200 -2.2726  1.0187 -1.7617
  873MOL0     H17806   7.360   4.421   5.114  1.2275  0.5195  0.3166
  873MOL0     H17807   7.615   4.315   5.025  1.1186  0.3714 -0.6901
  873MOL0     H17808   7.598   4.185   4.899  0.2211 -1.1648  1.3844
  873MOL0     H17809   7.495   4.468   4.887 -1.9614 -1.6474 -1.1098
  873MOL0     H17810   7.639   4.403   4.802 -0.5551  0.6448 -0.1409
  873MOL0     H17811   7.361   4.321   4.760 -0.5991  1.7764 -0.5634
  873MOL0     H17812   7.511   4.243   4.702  1.3743 -0.5717  4.8915
  873MOL0     H17813   7.431   4.402   4.520 -2.0138  1.5336 -0.4169
  873MOL0     H17814   7.575   4.479   4.579  0.0832  3.7267  1.9647
  873MOL0     H17815   7.246   4.546   4.434  1.6305 -2.7507  0.6021
  873MOL0     H17816   6.997   4.492   4.436  0.1350  2.2088  0.0600
  873MOL0     H17817   6.594   4.346   4.654 -0.9549  0.2661 -0.6181
  873MOL0     H17818   6.383   4.274   4.740  2.0480 -4.0290  0.6905
  873MOL0     H17819   6.163   4.362   4.828  1.4952 -2.4597 -1.8805
  873MOL0     H17820   6.210   4.195   4.880  2.9706 -0.0695 -0.3854
  873MOL0     H17821   6.007   4.398   4.989  2.1602  0.7289  1.9336
  873MOL0     H17822   5.980   4.231   4.925  0.1113 -3.1825  2.3098
  873MOL0     H17823   5.934   4.210   5.143 -0.5051 -0.8192 -2.3519
  873MOL0     H17824   6.107   4.156   5.149 -2.0913 -2.2264 -0.2394
  873MOL0     H17825   5.971   4.421   5.248 -1.4192 -1.2749 -0.5750
  873MOL0     H17826   6.130   4.443   5.193 -2.4089  1.9739 -0.1891
  873MOL0     H17827   6.218   4.259   5.350 -0.2521  0.9347 -1.2368
  873MOL0     H17828   6.056   4.213   5.385 -0.4254  1.6233  2.6210
  873MOL0     H17829   6.095   4.498   5.447 -0.7489 -0.1303 -1.1395
  873MOL0     H17830   6.042   4.359   5.552 -0.2304 -1.2064 -1.6503
  873MOL0     H17831   6.321   4.459   5.479  1.5839  2.1019  1.6112
  873MOL0     H17832   6.292   4.307   5.565 -0.3146 -0.7880  0.9167
  873MOL0     H17833   6.192   4.589   5.639 -0.0171 -0.4517  1.0384
  873MOL0     H17834   6.146   4.445   5.722 -1.0471  3.1365  2.3273
  873MOL0     H17835   6.454   4.506   5.091  1.2539  2.4992 -1.4604
  873MOL0     H17836   6.669   4.587   5.001  2.3422 -1.9281  0.8747
  873MOL0     H17837   7.025   4.557   4.865 -0.2437 -0.4214 -0.1402
  873MOL0     H17838   7.256   4.586   4.844 -0.1240 -1.0965  0.6340
  873MOL0     H17839   6.804   4.960   5.851 -1.0940  2.4617  1.7960
  873MOL0     H17840   6.901   5.083   6.048  3.0634  0.7380 -0.6456
  873MOL0     H17841   7.149   5.098   6.438 -1.2752 -0.5362 -1.2070
  873MOL0     H17842   7.253   5.130   6.644 -0.9357  2.7211 -1.2018
  873MOL0     H17843   7.377   5.077   6.806  0.7908 -0.6742  1.1499
  873MOL0     H17844   7.364   5.000   6.961 -2.0600 -1.1565  1.5147
  873MOL0     H17845   7.393   5.235   7.009 -0.1388 -0.1890  0.7635
  873MOL0     H17846   7.221   5.207   7.026 -0.9868 -2.6870 -0.8891
  873MOL0     H17847   7.169   5.306   6.810 -0.2303 -1.4257  0.3940
  873MOL0     H17848   7.344   5.294   6.761  0.9521 -2.2820  0.8218
  873MOL0     H17849   7.246   5.480   6.992  0.8681  1.5917 -0.5337
  873MOL0     H17850   7.401   5.458   6.931 -0.8820 -0.0813  0.8968
  873MOL0     H17851   7.235   5.700   6.628 -0.4226 -0.6615 -0.6214
  873MOL0     H17852   6.947   4.918   6.849  2.4886  0.1559  1.6229
  873MOL0     H17853   6.718   4.930   6.628  1.1706  1.7156  1.1316
  873MOL0     H17854   6.786   4.778   6.556  3.6972  1.7117 -1.5307
  873MOL0     H17855   6.768   4.804   6.728  1.9432 -1.2487  0.7605
  874MOL0     O17856  11.089   7.978   9.176 -0.0197  0.1109 -0.6224
  874MOL0     C17857  10.968   7.970   9.212 -0.0778  0.2702 -0.8387
  874MOL0     O17858  10.915   7.868   9.290  0.3463  0.6149 -1.0332
  874MOL0     C17859  10.989   7.766   9.346  0.4485  0.2430 -1.1733
  874MOL0     C17860  10.918   7.711   9.454 -0.6012 -0.6762 -1.0914
  874MOL0     C17861  10.962   7.610   9.532  0.0402  0.6073  0.0921
  874MOL0     C17862  11.082   7.552   9.491 -0.4273  0.7260 -0.4026
  874MOL0     O17863  11.126   7.440   9.563  0.3459  0.1282 -0.0610
  874MOL0     C17864  11.167   7.328   9.478 -0.1323 -1.2460 -0.0723
  874MOL0     C17865  11.032   7.281   9.407  0.3708  0.6004  0.7257
  874MOL0     C17866  11.047   7.157   9.319 -0.1708 -0.0417 -0.4562
  874MOL0     C17867  11.094   7.210   9.183 -0.2711  0.5041  0.0371
  874MOL0     C17868  11.162   7.095   9.100  0.7099 -1.5600 -0.6914
  874MOL0     C17869  11.305   7.075   9.153  0.8039  0.3350  0.0955
  874MOL0     C17870  11.365   6.956   9.078  0.2207  0.5849  0.3236
  874MOL0     C17871  11.504   6.921   9.131 -1.4125 -0.5522 -0.2691
  874MOL0     N17872  11.606   7.027   9.132 -0.7773 -0.8532  0.1349
  874MOL0     C17873  11.653   7.090   9.246 -1.3760  0.2244  0.3318
  874MOL0     C17874  11.762   7.167   9.200 -0.6499  0.7381 -0.1577
  874MOL0     C17875  11.853   7.235   9.298  0.0376  1.6646  0.1494
  874MOL0     C17876  11.796   7.370   9.316  0.9279 -0.6688 -1.2038
  874MOL0     C17877  11.808   7.462   9.191  0.1283  0.2734  0.0502
  874MOL0     C17878  11.790   7.614   9.226 -0.5426 -0.0410 -0.1522
  874MOL0     O17879  11.655   7.658   9.225 -0.0851 -1.0106 -0.1753
  874MOL0     C17880  11.642   7.799   9.219 -0.4985 -0.0577 -0.0476
  874MOL0     C17881  11.507   7.842   9.216 -0.6469  0.2960  0.0633
  874MOL0     C17882  11.462   7.973   9.199 -1.1604 -0.4117 -0.0660
  874MOL0     C17883  11.554   8.070   9.211 -0.6778  0.2032  0.6364
  874MOL0     C17884  11.519   8.220   9.204 -0.0794 -0.0220 -1.1368
  874MOL0     O17885  11.616   8.309   9.188 -0.7394  0.5083  0.3378
  874MOL0     C17886  11.601   8.444   9.215  0.0688 -0.4960 -0.6158
  874MOL0     C17887  11.686   8.533   9.148  0.3561  0.4649 -0.8739
  874MOL0     C17888  11.702   8.670   9.181  0.5767  1.2982 -0.2091
  874MOL0     C17889  11.626   8.726   9.280 -0.5959  0.7913 -0.1120
  874MOL0     O17890  11.625   8.861   9.308 -0.2629  0.5422 -0.2190
  874MOL0     C17891  11.741   8.945   9.296  0.1973  0.0295 -0.1609
  874MOL0     C17892  11.869   8.897   9.375  0.6820  0.0273 -0.3669
  874MOL0     C17893  11.982   8.999   9.349  0.6914  0.5001  0.0376
  874MOL0     C17894  12.035   8.999   9.207 -0.3709 -1.0656 -0.3761
  874MOL0     C17895  12.148   9.101   9.177 -0.2358  0.4624  0.9849
  874MOL0     C17896  12.273   9.093   9.274  0.8139  1.1088 -0.2128
  874MOL0     C17897  12.386   9.161   9.221 -0.5105 -0.3312 -0.7163
  874MOL0     C17898  12.504   9.163   9.323 -0.6129  0.6173  0.1686
  874MOL0    Cl17899  12.651   9.198   9.229 -0.3478 -0.3167 -0.0141
  874MOL0     C17900  11.530   8.645   9.348  0.6317  0.2768  0.5687
  874MOL0     C17901  11.518   8.503   9.309 -0.1418 -0.5495 -0.0066
  874MOL0     O17902  11.398   8.244   9.213 -0.2447 -0.2131 -0.3885
  874MOL0     C17903  11.695   8.039   9.224  0.0990  0.5893 -0.0152
  874MOL0     C17904  11.738   7.908   9.225  0.0129  0.2610 -0.7882
  874MOL0     N17905  11.773   7.139   9.062  0.1940 -0.5841 -0.4575
  874MOL0     N17906  11.680   7.052   9.022 -0.6981 -0.2107 -0.2290
  874MOL0     C17907  11.170   7.611   9.387  0.0534 -0.1571 -1.0850
  874MOL0     C17908  11.123   7.728   9.325  0.0322 -0.9399 -0.7604
  874MOL0     C17909  10.865   8.075   9.161 -0.9657 -0.3890  0.2945
  874MOL0     C17910  10.726   8.052   9.168 -1.3940  0.5405  0.5124
  874MOL0     C17911  10.641   8.160   9.160  0.2957 -0.3320 -0.1125
  874MOL0     C17912  10.679   8.291   9.134 -0.3543  0.2860 -0.1251
  874MOL0     O17913  10.590   8.395   9.145 -0.3897  0.0883 -0.3034
  874MOL0     C17914  10.588   8.489   9.035 -0.1364  0.7617 -0.6293
  874MOL0     C17915  10.576   8.427   8.892 -0.3671  0.2663  0.5086
  874MOL0     C17916  10.579   8.539   8.789 -0.7622  1.2353  0.5383
  874MOL0     C17917  10.536   8.495   8.648 -0.1765 -0.1676  0.1652
  874MOL0     C17918  10.542   8.598   8.541  0.2721 -1.1453  0.1317
  874MOL0     C17919  10.547   8.699   8.475  0.0436  0.0888  0.8226
  874MOL0     C17920  10.818   8.309   9.122 -0.1855 -0.8143  0.6133
  874MOL0     C17921  10.911   8.206   9.115 -0.0500 -0.2227 -0.3663
  874MOL0     C17922  11.046   8.247   9.066  0.0489  0.2913 -0.4711
  874MOL0     H17923  10.820   7.758   9.460  1.8746  5.5234 -1.7193
  874MOL0     H17924  10.899   7.585   9.616  0.2300 -2.0094 -0.4552
  874MOL0     H17925  11.230   7.371   9.399 -1.5595 -0.0141 -0.6018
  874MOL0     H17926  11.217   7.257   9.545 -1.7228 -1.3212  1.0923
  874MOL0     H17927  10.986   7.361   9.348 -0.4216  2.4952  3.6678
  874MOL0     H17928  10.960   7.252   9.484  2.0277 -0.0337  2.0951
  874MOL0     H17929  10.957   7.099   9.295 -1.7383  2.5817 -1.2870
  874MOL0     H17930  11.123   7.101   9.373 -2.5162 -1.1683  1.9129
  874MOL0     H17931  11.015   7.260   9.126  1.8718  3.1775 -0.7648
  874MOL0     H17932  11.172   7.286   9.186  1.2823 -1.0143 -0.4481
  874MOL0     H17933  11.092   7.015   9.123 -1.4923  0.2536 -0.7428
  874MOL0     H17934  11.173   7.114   8.993  2.0990  2.2558 -0.0352
  874MOL0     H17935  11.352   7.167   9.118 -0.5982  0.1075 -2.6211
  874MOL0     H17936  11.315   7.064   9.262 -0.5445 -1.3908  0.0841
  874MOL0     H17937  11.380   6.984   8.973  3.8873  0.3749  0.6714
  874MOL0     H17938  11.298   6.870   9.063  0.1514  1.1569 -4.0692
  874MOL0     H17939  11.477   6.889   9.232 -3.2720 -0.4797 -0.7019
  874MOL0     H17940  11.537   6.831   9.079  3.1318  0.0154  1.2451
  874MOL0     H17941  11.628   7.081   9.352  1.3925 -0.2086  1.0496
  874MOL0     H17942  11.849   7.170   9.386 -4.4363 -0.2889 -1.2161
  874MOL0     H17943  11.960   7.233   9.274 -0.1865  0.1216 -0.9051
  874MOL0     H17944  11.689   7.366   9.341  0.1326  2.4977 -3.3629
  874MOL0     H17945  11.842   7.422   9.400 -0.0046  0.0976 -1.1393
  874MOL0     H17946  11.751   7.438   9.101  1.1382  2.7435 -1.3605
  874MOL0     H17947  11.915   7.466   9.165 -0.4187  2.2477 -2.3501
  874MOL0     H17948  11.847   7.679   9.159 -2.6117  1.1387 -0.8317
  874MOL0     H17949  11.828   7.638   9.325 -1.8040  0.7161  0.1657
  874MOL0     H17950  11.444   7.754   9.223  0.3904 -0.4036  0.9597
  874MOL0     H17951  11.359   7.994   9.174 -1.1038  2.4602  1.6162
  874MOL0     H17952  11.769   8.492   9.092 -0.4606 -1.2908 -0.8512
  874MOL0     H17953  11.781   8.711   9.119  0.0509 -3.7327 -4.9889
  874MOL0     H17954  11.763   8.938   9.189 -3.5832  0.7723 -1.1265
  874MOL0     H17955  11.706   9.045   9.325 -0.1262 -0.3896  0.9453
  874MOL0     H17956  11.841   8.898   9.481 -1.1141  1.2420 -0.7983
  874MOL0     H17957  11.908   8.799   9.348 -0.9459 -0.5715 -0.6746
  874MOL0     H17958  11.943   9.100   9.366  0.4282  1.6157 -5.3251
  874MOL0     H17959  12.060   8.981   9.423 -0.1668  0.1603  0.8837
  874MOL0     H17960  11.952   9.029   9.143  2.2492 -0.3366 -3.6946
  874MOL0     H17961  12.067   8.897   9.183 -0.9126 -1.0734 -1.0911
  874MOL0     H17962  12.100   9.197   9.194 -2.2727 -0.2589 -0.2628
  874MOL0     H17963  12.195   9.113   9.079  1.3329 -0.3535  1.5936
  874MOL0     H17964  12.235   9.132   9.369 -0.0646  0.5410 -0.3209
  874MOL0     H17965  12.290   8.986   9.289 -2.1593  0.8642  2.4727
  874MOL0     H17966  12.350   9.262   9.199  0.2128 -0.1851 -1.2393
  874MOL0     H17967  12.407   9.125   9.120 -2.8149 -2.2069 -0.5959
  874MOL0     H17968  12.497   9.240   9.400  4.9489  3.0239 -1.2411
  874MOL0     H17969  12.513   9.066   9.373 -0.5262  0.8734  0.6597
  874MOL0     H17970  11.460   8.676   9.425 -2.7410  1.5464 -2.7284
  874MOL0     H17971  11.438   8.444   9.355  1.1070 -1.1791  1.4687
  874MOL0     H17972  11.761   8.124   9.239 -0.1289  1.0633 -1.5414
  874MOL0     H17973  11.842   7.876   9.222 -0.8855 -3.1143 -0.4661
  874MOL0     H17974  11.268   7.573   9.362 -0.0223 -1.5783  0.6196
  874MOL0     H17975  11.182   7.773   9.245 -0.8236  2.6523  0.4051
  874MOL0     H17976  10.681   7.958   9.199  0.9880 -0.7984  0.2149
  874MOL0     H17977  10.533   8.159   9.170  0.1584  2.1428 -0.5792
  874MOL0     H17978  10.683   8.543   9.028  2.1912 -2.9381 -0.0065
  874MOL0     H17979  10.511   8.566   9.047  1.1672  2.2593 -1.3964
  874MOL0     H17980  10.484   8.369   8.884 -1.8468  2.7035 -1.6943
  874MOL0     H17981  10.668   8.370   8.879  0.2545  1.4186 -0.3146
  874MOL0     H17982  10.677   8.588   8.782 -0.5603  0.7386 -0.2741
  874MOL0     H17983  10.520   8.624   8.823 -0.6746  1.8830 -0.8567
  874MOL0     H17984  10.610   8.435   8.594 -2.4268 -0.8359 -2.4259
  874MOL0     H17985  10.444   8.435   8.638 -0.6799  0.9455 -3.0058
  874MOL0     H17986  10.538   8.791   8.420 -0.7237 -1.7533 -2.3331
  874MOL0     H17987  10.846   8.413   9.114 -2.0370 -0.2328  1.2834
  874MOL0     H17988  11.093   8.173   9.000  1.7535 -0.2414  1.2420
  874MOL0     H17989  11.054   8.352   9.036 -2.9086  0.5847 -0.4520
  874MOL0     H17990  11.109   8.246   9.155 -4.1798 -1.0216  2.8247
  875MOL0     O17991  11.072   7.275   7.369 -0.5311  0.0763 -0.4651
  875MOL0     C17992  11.033   7.308   7.481  0.4353 -0.1189 -0.6753
  875MOL0     O17993  11.068   7.251   7.595  0.1777  1.0841  0.0582
  875MOL0     C17994  11.139   7.133   7.593 -1.2414  0.2799  0.7608
  875MOL0     C17995  11.223   7.120   7.695 -0.0540 -0.0807 -0.5473
  875MOL0     C17996  11.311   7.008   7.712  0.2908 -0.1379  0.3593
  875MOL0     C17997  11.292   6.897   7.625  0.5514  0.0292 -0.6460
  875MOL0     O17998  11.360   6.783   7.641  0.6803 -0.1695  0.4015
  875MOL0     C17999  11.334   6.723   7.766 -0.0987 -1.0521 -0.4343
  875MOL0     C18000  11.283   6.578   7.764 -1.0445 -0.6821 -0.4044
  875MOL0     C18001  11.130   6.586   7.753 -0.3291 -0.4974 -0.2876
  875MOL0     C18002  11.073   6.451   7.704 -0.1282 -0.4322  1.1139
  875MOL0     C18003  11.098   6.328   7.795  0.7153  0.7803  0.6674
  875MOL0     C18004  11.063   6.196   7.725 -0.0396 -0.3962  0.9754
  875MOL0     C18005  11.177   6.140   7.637 -0.6767  0.8591  0.0058
  875MOL0     C18006  11.143   6.010   7.571  0.4820  0.3922  0.1478
  875MOL0     N18007  11.105   5.903   7.669 -0.6329  0.2259 -0.6668
  875MOL0     C18008  10.976   5.862   7.697 -0.4711 -0.2496 -0.5813
  875MOL0     C18009  10.986   5.812   7.827 -0.1007 -0.1467  0.2569
  875MOL0     C18010  10.863   5.769   7.913 -0.3758 -0.3491  0.4138
  875MOL0     C18011  10.831   5.870   8.032 -0.5108  0.9387 -0.6314
  875MOL0     C18012  10.894   6.010   8.014  0.5782 -0.0152  0.2187
  875MOL0     C18013  10.890   6.088   8.149  0.9688 -0.2404 -0.0446
  875MOL0     O18014  10.975   6.031   8.251 -0.3448 -0.1109 -0.8551
  875MOL0     C18015  11.098   6.094   8.267  0.5441 -0.5438  0.7488
  875MOL0     C18016  11.179   6.057   8.376 -0.3673  0.4818 -0.7118
  875MOL0     C18017  11.305   6.113   8.403 -0.8239 -0.1382 -0.5532
  875MOL0     C18018  11.350   6.208   8.311 -0.0904 -0.3029 -0.6267
  875MOL0     C18019  11.475   6.275   8.343 -0.9091  0.1881 -0.1883
  875MOL0     O18020  11.511   6.290   8.480  0.0340 -0.4595 -0.1548
  875MOL0     C18021  11.644   6.300   8.503 -0.4234 -0.7440 -0.5095
  875MOL0     C18022  11.726   6.396   8.439 -0.0553  0.5042  0.3471
  875MOL0     C18023  11.864   6.402   8.465 -0.0066 -0.8474 -0.1305
  875MOL0     C18024  11.922   6.331   8.567 -0.0547 -0.4499 -0.2560
  875MOL0     O18025  12.060   6.347   8.576 -0.4125 -0.5041 -0.2744
  875MOL0     C18026  12.138   6.279   8.671 -0.3427  0.8279 -0.2523
  875MOL0     C18027  12.271   6.258   8.594 -0.2260  0.2458  0.7820
  875MOL0     C18028  12.345   6.379   8.574  1.0203  0.4980 -0.2562
  875MOL0     C18029  12.479   6.347   8.492  0.3765  0.3499  0.2614
  875MOL0     C18030  12.558   6.473   8.462  0.4429  0.5934  0.2072
  875MOL0     C18031  12.659   6.450   8.342  0.2997  0.1503 -0.9972
  875MOL0     C18032  12.785   6.380   8.384 -0.3332  0.1432  0.6090
  875MOL0     C18033  12.854   6.334   8.248 -1.5783  0.3089 -0.3011
  875MOL0    Cl18034  12.909   6.459   8.130  0.1801 -0.3728 -0.6925
  875MOL0     C18035  11.835   6.248   8.648 -1.0266  0.3145 -0.1711
  875MOL0     C18036  11.698   6.234   8.617  0.7913  0.1781  0.2110
  875MOL0     O18037  11.543   6.296   8.242  0.0673 -0.4915 -0.0751
  875MOL0     C18038  11.277   6.235   8.197  0.4423  0.1554 -0.4765
  875MOL0     C18039  11.154   6.182   8.172 -0.1158 -1.1713 -0.6076
  875MOL0     N18040  11.119   5.815   7.868 -0.9713 -0.7367  0.0024
  875MOL0     N18041  11.181   5.873   7.775  0.5190 -1.2728  0.0834
  875MOL0     C18042  11.204   6.914   7.518  0.7395  1.2634  0.0666
  875MOL0     C18043  11.116   7.032   7.501 -0.5632 -0.2325 -1.2417
  875MOL0     C18044  10.969   7.435   7.492 -0.4640  0.1797  0.3360
  875MOL0     C18045  11.045   7.528   7.575  0.2672  0.1988  0.9423
  875MOL0     C18046  10.984   7.648   7.588  0.5764 -0.6765 -0.0439
  875MOL0     C18047  10.875   7.695   7.512 -0.5219 -0.5340 -0.6096
  875MOL0     O18048  10.836   7.829   7.534 -0.6537  0.1337  0.5137
  875MOL0     C18049  10.696   7.857   7.501 -0.0308  0.7388 -0.0098
  875MOL0     C18050  10.662   8.006   7.502 -1.0916  0.6761 -0.1645
  875MOL0     C18051  10.763   8.106   7.573  1.0391 -0.8706  0.2781
  875MOL0     C18052  10.693   8.254   7.562  1.0425  1.0454 -0.1056
  875MOL0     C18053  10.778   8.372   7.610 -0.0083  0.7148  0.2546
  875MOL0     C18054  10.851   8.465   7.636  0.0884  0.2780  0.7345
  875MOL0     C18055  10.816   7.599   7.430  0.5052 -0.8711  0.7610
  875MOL0     C18056  10.855   7.474   7.420  0.7867 -0.2996 -0.2202
  875MOL0     C18057  10.771   7.378   7.336  0.1731 -0.2920  0.0180
  875MOL0     H18058  11.214   7.200   7.767 -1.8772  0.1189 -0.9446
  875MOL0     H18059  11.381   7.011   7.796  0.3698  0.2641  0.2810
  875MOL0     H18060  11.432   6.730   7.815 -0.6106  0.2612  0.4580
  875MOL0     H18061  11.264   6.781   7.827  0.5439 -0.6748 -0.0300
  875MOL0     H18062  11.302   6.522   7.856  1.0091  0.7606  0.1262
  875MOL0     H18063  11.322   6.532   7.673 -1.3452 -3.1753  0.6648
  875MOL0     H18064  11.095   6.669   7.692 -2.9792 -0.1573  1.5353
  875MOL0     H18065  11.105   6.603   7.858 -3.0961 -0.3525 -0.9076
  875MOL0     H18066  10.965   6.462   7.690 -0.4007 -0.5260  2.8897
  875MOL0     H18067  11.108   6.429   7.603 -0.7041 -2.6475  1.3483
  875MOL0     H18068  11.195   6.312   7.844 -0.2524  1.0744  2.7834
  875MOL0     H18069  11.028   6.346   7.877  0.4110  1.6451  0.2215
  875MOL0     H18070  11.037   6.117   7.796  1.6513 -2.3215 -0.4251
  875MOL0     H18071  10.974   6.211   7.664  1.7485  2.0444 -1.2533
  875MOL0     H18072  11.270   6.139   7.693 -0.3895 -2.6172 -0.3253
  875MOL0     H18073  11.197   6.208   7.553  0.1127  0.9194  0.2409
  875MOL0     H18074  11.055   6.024   7.508 -0.4978  2.5682  1.8530
  875MOL0     H18075  11.234   5.977   7.521 -2.1757 -3.7965 -2.5582
  875MOL0     H18076  10.883   5.889   7.648 -1.0168 -2.4297 -0.8411
  875MOL0     H18077  10.778   5.763   7.844 -0.2136 -1.7188  0.2984
  875MOL0     H18078  10.883   5.663   7.933  1.7068 -0.5114 -1.9614
  875MOL0     H18079  10.725   5.876   8.059 -0.1142  2.0570  0.8065
  875MOL0     H18080  10.865   5.821   8.124 -1.4077  1.9666  0.2803
  875MOL0     H18081  10.835   6.062   7.938  2.6707 -0.9674 -2.2139
  875MOL0     H18082  11.000   5.998   7.993  1.1193 -0.9973  3.0720
  875MOL0     H18083  10.789   6.070   8.187  0.2842  0.5208 -1.4589
  875MOL0     H18084  10.903   6.196   8.136  2.8450 -0.0316  2.6214
  875MOL0     H18085  11.146   5.977   8.441  3.6917  0.0490  1.1624
  875MOL0     H18086  11.369   6.081   8.485  3.0334  0.3340 -3.1358
  875MOL0     H18087  11.674   6.443   8.356 -3.2968 -0.8899  1.4529
  875MOL0     H18088  11.931   6.462   8.404 -0.1522  0.0796  0.5944
  875MOL0     H18089  12.155   6.334   8.764  2.0137 -2.2527  1.3600
  875MOL0     H18090  12.090   6.184   8.698  0.3036  0.2846 -0.9476
  875MOL0     H18091  12.347   6.195   8.642  0.3509  1.6135  1.7239
  875MOL0     H18092  12.258   6.203   8.501  0.4796  0.4469  0.5598
  875MOL0     H18093  12.293   6.440   8.500  1.1365  0.7441 -0.1364
  875MOL0     H18094  12.361   6.424   8.673 -0.3752 -4.0261  2.3279
  875MOL0     H18095  12.460   6.277   8.410 -1.5655 -2.4137  2.8161
  875MOL0     H18096  12.548   6.289   8.553 -2.8134 -2.0670  1.8805
  875MOL0     H18097  12.612   6.513   8.548  1.6948  0.5483 -0.5269
  875MOL0     H18098  12.486   6.545   8.421 -0.0629  1.2752  2.2123
  875MOL0     H18099  12.602   6.381   8.279  1.5699 -2.2432  0.3096
  875MOL0     H18100  12.678   6.542   8.286 -0.5257  0.1087 -1.3468
  875MOL0     H18101  12.767   6.295   8.449 -1.4947 -2.4522 -2.8285
  875MOL0     H18102  12.849   6.449   8.441  3.2043 -2.2184 -0.1790
  875MOL0     H18103  12.942   6.273   8.269 -0.5748  2.0045  0.5816
  875MOL0     H18104  12.786   6.271   8.190 -0.1807  1.9595 -4.0678
  875MOL0     H18105  11.881   6.192   8.729  2.1574  2.0292 -0.6059
  875MOL0     H18106  11.632   6.163   8.666  0.1007  0.3870 -0.3945
  875MOL0     H18107  11.311   6.323   8.142  1.8945  0.1502  0.3854
  875MOL0     H18108  11.106   6.207   8.078  0.7081 -1.3376 -1.0914
  875MOL0     H18109  11.204   6.846   7.433 -3.5153  3.1177 -1.7249
  875MOL0     H18110  11.074   7.064   7.406 -0.1413 -0.7539 -1.6087
  875MOL0     H18111  11.132   7.504   7.635  1.8760  1.8918 -0.6037
  875MOL0     H18112  11.000   7.721   7.666  3.7828 -0.0951 -1.1188
  875MOL0     H18113  10.638   7.804   7.577  0.2925  1.0355  0.4561
  875MOL0     H18114  10.673   7.815   7.403  3.3831  2.2825 -1.6468
  875MOL0     H18115  10.567   8.022   7.554 -1.5222  0.4001 -0.8510
  875MOL0     H18116  10.652   8.030   7.396 -0.0813 -0.1823 -0.4724
  875MOL0     H18117  10.859   8.094   7.522  2.5002  1.2720  2.2992
  875MOL0     H18118  10.779   8.084   7.678 -0.1015  2.3190  1.2359
  875MOL0     H18119  10.660   8.278   7.460  0.8156 -0.2059 -0.3413
  875MOL0     H18120  10.601   8.238   7.620  1.4894 -4.0426 -0.3887
  875MOL0     H18121  10.896   8.557   7.665 -4.5940  2.2944  2.5837
  875MOL0     H18122  10.728   7.623   7.371  2.3474 -0.7117 -2.1029
  875MOL0     H18123  10.771   7.405   7.230 -0.5512  2.6159  0.6587
  875MOL0     H18124  10.798   7.273   7.347  2.3404  0.1752 -0.3217
  875MOL0     H18125  10.666   7.386   7.368  0.5168 -0.2749  1.1924
  876MOL0     O18126   9.205   2.955   5.366  0.3681 -0.0107 -0.1313
  876MOL0     C18127   9.122   2.862   5.384  0.6810  0.6354  0.2927
  876MOL0     O18128   8.986   2.885   5.383  0.2520  0.8378 -0.1629
  876MOL0     C18129   8.950   3.013   5.378  0.7473  1.7627  0.2035
  876MOL0     C18130   8.939   3.077   5.502  0.3008  0.0648  0.4872
  876MOL0     C18131   8.885   3.212   5.506 -0.8134 -0.4174 -0.3688
  876MOL0     C18132   8.829   3.265   5.392  0.6524 -0.4829  0.3138
  876MOL0     O18133   8.758   3.388   5.393 -0.6935 -0.0811 -0.7345
  876MOL0     C18134   8.839   3.504   5.438 -0.2333  0.0068  1.0612
  876MOL0     C18135   8.756   3.626   5.437  0.8141 -0.9021  1.0519
  876MOL0     C18136   8.813   3.757   5.504 -0.5574 -0.1863  0.4160
  876MOL0     C18137   8.750   3.783   5.636 -0.1799  0.0891 -0.0441
  876MOL0     C18138   8.805   3.912   5.716 -0.1017  0.9703 -1.2535
  876MOL0     C18139   8.773   3.924   5.869 -0.5132 -0.3208 -0.8060
  876MOL0     C18140   8.875   3.852   5.961 -0.2948  0.3466 -0.3426
  876MOL0     C18141   8.827   3.842   6.104  0.2990  0.2209  0.0333
  876MOL0     N18142   8.930   3.819   6.196  0.4152  1.2044 -0.4341
  876MOL0     C18143   8.955   3.684   6.239 -0.3126  0.5719  0.6069
  876MOL0     C18144   9.040   3.699   6.345  0.0033 -0.1393 -0.2096
  876MOL0     C18145   9.076   3.611   6.459  1.4380 -0.5770 -0.3247
  876MOL0     C18146   8.961   3.598   6.562 -0.5944 -1.2984  0.1962
  876MOL0     C18147   8.998   3.491   6.670  0.2490  0.3593  0.6463
  876MOL0     C18148   8.935   3.361   6.617  0.0207  0.6467  0.1027
  876MOL0     O18149   8.958   3.248   6.698  0.0563 -0.5147 -0.6322
  876MOL0     C18150   8.936   3.117   6.651  0.1068  0.6856  0.0395
  876MOL0     C18151   8.873   3.091   6.537  0.3173  0.4168 -0.4435
  876MOL0     C18152   8.870   2.958   6.480 -0.6453 -1.2684 -0.6727
  876MOL0     C18153   8.922   2.854   6.559  0.2007  0.3525 -0.5698
  876MOL0     C18154   8.940   2.716   6.515  0.0201 -0.3774 -1.1331
  876MOL0     O18155   8.969   2.618   6.608  0.0064 -0.2693 -0.1386
  876MOL0     C18156   8.992   2.494   6.554 -0.7142 -0.2105 -0.1873
  876MOL0     C18157   8.884   2.413   6.508 -0.5608 -1.3036 -0.8909
  876MOL0     C18158   8.913   2.298   6.434  0.4422 -0.4002  0.0462
  876MOL0     C18159   9.037   2.255   6.406 -0.2181  0.6954 -0.5406
  876MOL0     O18160   9.062   2.143   6.338 -0.5603  0.9640 -0.1875
  876MOL0     C18161   8.991   2.031   6.386 -0.6311  0.3276  0.0685
  876MOL0     C18162   9.077   1.910   6.361  0.2277  0.1849  0.3205
  876MOL0     C18163   9.216   1.927   6.413 -1.0165  0.6247  0.5783
  876MOL0     C18164   9.298   1.801   6.412  0.1208 -0.5520 -0.1958
  876MOL0     C18165   9.243   1.677   6.478  0.0733 -0.5326 -0.0084
  876MOL0     C18166   9.180   1.695   6.611 -0.4354 -0.2427  0.1261
  876MOL0     C18167   9.130   1.568   6.682 -1.2133 -0.8108 -0.2709
  876MOL0     C18168   9.010   1.606   6.768 -1.0543  0.6717 -0.2334
  876MOL0    Cl18169   8.856   1.631   6.667  0.2636 -0.1495  0.2949
  876MOL0     C18170   9.142   2.343   6.457  0.2477 -0.5631 -0.2425
  876MOL0     C18171   9.122   2.461   6.522  0.0413 -0.3811 -0.1562
  876MOL0     O18172   8.919   2.706   6.399  0.0699  0.5773  0.4682
  876MOL0     C18173   8.988   2.885   6.678  0.7367  0.2391  0.6196
  876MOL0     C18174   8.987   3.008   6.727  0.2287 -1.6010  0.2489
  876MOL0     N18175   9.069   3.833   6.360 -0.6420 -0.1473  0.3176
  876MOL0     N18176   9.011   3.902   6.263  0.4705 -0.6145  0.0705
  876MOL0     C18177   8.831   3.190   5.274  0.0108 -0.8652  0.7662
  876MOL0     C18178   8.889   3.069   5.267  0.5136 -0.4166  1.3775
  876MOL0     C18179   9.172   2.723   5.374 -0.7630 -0.4324 -1.0073
  876MOL0     C18180   9.070   2.622   5.377 -0.2345  0.1031  0.5643
  876MOL0     C18181   9.098   2.493   5.350 -1.3530 -0.1252 -0.4217
  876MOL0     C18182   9.231   2.446   5.345 -0.9744 -0.4192 -0.8010
  876MOL0     O18183   9.258   2.305   5.325  0.8137 -0.1512  0.1553
  876MOL0     C18184   9.333   2.250   5.425  0.0041 -0.0847  0.3147
  876MOL0     C18185   9.328   2.098   5.408 -0.3621  1.0073  0.0896
  876MOL0     C18186   9.454   2.044   5.336  0.0910  0.1408 -0.7028
  876MOL0     C18187   9.460   1.886   5.343  0.4798 -0.0255 -0.6957
  876MOL0     C18188   9.537   1.841   5.463  0.5865 -0.9352  0.6165
  876MOL0     C18189   9.589   1.821   5.567 -0.5615 -0.0398 -0.1278
  876MOL0     C18190   9.338   2.537   5.363 -0.4316 -0.2671 -0.6120
  876MOL0     C18191   9.309   2.677   5.369 -0.4948 -0.3254  0.4234
  876MOL0     C18192   9.427   2.774   5.340  0.9819  0.1154  1.0250
  876MOL0     H18193   8.983   3.026   5.587 -0.5801  1.1213  1.6110
  876MOL0     H18194   8.876   3.273   5.596  0.3488 -1.6519  0.6346
  876MOL0     H18195   8.889   3.475   5.531  2.5819 -2.2456 -0.9373
  876MOL0     H18196   8.910   3.523   5.357  1.9822 -0.7846  2.7190
  876MOL0     H18197   8.656   3.606   5.478 -0.4075 -1.9339 -2.1091
  876MOL0     H18198   8.738   3.651   5.332 -1.4311 -0.4623  1.4857
  876MOL0     H18199   8.810   3.844   5.438  0.7796  0.5413  1.2641
  876MOL0     H18200   8.920   3.749   5.527 -0.8659  0.4507  2.2508
  876MOL0     H18201   8.641   3.796   5.627 -0.2505 -1.1834 -1.2923
  876MOL0     H18202   8.768   3.692   5.693 -1.2188  1.3217  2.4134
  876MOL0     H18203   8.914   3.916   5.717 -0.0705  2.6806  2.0130
  876MOL0     H18204   8.764   4.001   5.666 -2.9668 -1.6391 -4.0003
  876MOL0     H18205   8.783   4.024   5.913 -2.6737  0.5660 -2.1841
  876MOL0     H18206   8.669   3.900   5.891  0.3429 -1.8066  2.0241
  876MOL0     H18207   8.972   3.902   5.966 -0.7575  1.1708  2.7673
  876MOL0     H18208   8.895   3.748   5.932 -0.6394  0.3278 -0.5167
  876MOL0     H18209   8.778   3.935   6.134  1.8672  1.5788 -1.4322
  876MOL0     H18210   8.752   3.763   6.100 -0.3530  0.8794 -1.3751
  876MOL0     H18211   8.884   3.604   6.220 -1.7290  1.2386  2.6816
  876MOL0     H18212   9.106   3.511   6.427  3.4080 -1.1364  2.8914
  876MOL0     H18213   9.166   3.658   6.499  1.0870  0.9452 -1.2332
  876MOL0     H18214   8.943   3.698   6.604 -2.4595 -0.9692 -1.2508
  876MOL0     H18215   8.861   3.571   6.526 -0.1384 -2.2806 -0.3765
  876MOL0     H18216   8.961   3.519   6.769  0.7356 -0.0561  0.9510
  876MOL0     H18217   9.107   3.486   6.668  0.4308  2.7258  1.6060
  876MOL0     H18218   8.980   3.334   6.521  0.0430 -5.3364  1.3633
  876MOL0     H18219   8.828   3.368   6.597  0.3311  0.4366 -1.7234
  876MOL0     H18220   8.853   3.173   6.469 -0.3271  0.6165 -0.0284
  876MOL0     H18221   8.828   2.951   6.380 -1.3498  3.6510 -0.9387
  876MOL0     H18222   8.778   2.433   6.517 -0.8679 -1.4288 -3.4938
  876MOL0     H18223   8.832   2.238   6.395 -1.6536  1.0652  1.9006
  876MOL0     H18224   8.975   2.035   6.494 -1.1186  3.2801 -0.0468
  876MOL0     H18225   8.898   2.010   6.332 -0.4519  0.8598 -0.4517
  876MOL0     H18226   9.035   1.818   6.402 -1.9900  1.8231  1.9395
  876MOL0     H18227   9.083   1.890   6.254  3.2526 -0.2355  0.4683
  876MOL0     H18228   9.274   2.002   6.359  1.4962 -0.3470  1.7559
  876MOL0     H18229   9.211   1.968   6.515  0.4616 -0.2286  1.0236
  876MOL0     H18230   9.384   1.826   6.474 -0.7548 -0.5450  1.0424
  876MOL0     H18231   9.344   1.775   6.316  1.1031 -0.5371  0.2649
  876MOL0     H18232   9.331   1.614   6.492  0.4344  0.0921  0.6108
  876MOL0     H18233   9.173   1.631   6.408 -1.6981  3.7985 -1.3949
  876MOL0     H18234   9.253   1.742   6.678  1.8602  0.5488 -2.7232
  876MOL0     H18235   9.098   1.767   6.606  0.1087  0.4032  0.3479
  876MOL0     H18236   9.206   1.519   6.743 -0.9429 -0.9421 -0.7098
  876MOL0     H18237   9.114   1.498   6.599  1.3640 -0.5339 -1.0690
  876MOL0     H18238   8.996   1.524   6.839 -0.3341 -0.8781 -1.8277
  876MOL0     H18239   9.041   1.692   6.829 -0.5500  0.1389  0.2753
  876MOL0     H18240   9.244   2.314   6.432 -0.2778 -0.0227 -3.5019
  876MOL0     H18241   9.207   2.523   6.550 -1.1224  0.5895  1.4307
  876MOL0     H18242   9.035   2.810   6.741 -1.2652  0.1500  2.1074
  876MOL0     H18243   9.041   3.020   6.820  3.3271 -1.7987 -1.3871
  876MOL0     H18244   8.792   3.229   5.180  2.2211 -1.9931 -0.7075
  876MOL0     H18245   8.893   3.027   5.167 -0.1676 -0.5568  1.4045
  876MOL0     H18246   8.966   2.648   5.391 -0.4295 -1.4065  2.3933
  876MOL0     H18247   9.009   2.431   5.344 -0.8926 -0.6766 -2.0149
  876MOL0     H18248   9.293   2.274   5.525 -1.1099  0.4825 -0.2478
  876MOL0     H18249   9.436   2.288   5.419 -0.0658  0.3814  1.6625
  876MOL0     H18250   9.240   2.064   5.351  1.5316  1.8935 -3.6765
  876MOL0     H18251   9.313   2.070   5.513  0.3202 -0.6219 -0.2117
  876MOL0     H18252   9.544   2.091   5.376 -1.4099  4.9418 -2.1703
  876MOL0     H18253   9.450   2.072   5.230 -1.8445  0.6751 -0.5386
  876MOL0     H18254   9.356   1.855   5.335  0.3621  0.3661 -0.7158
  876MOL0     H18255   9.509   1.831   5.262  2.5126 -0.9685  1.0651
  876MOL0     H18256   9.637   1.814   5.662  1.9497  0.4471 -1.2617
  876MOL0     H18257   9.438   2.505   5.337 -0.6918 -1.7654  0.1143
  876MOL0     H18258   9.417   2.821   5.242  0.7326  0.4053  1.1859
  876MOL0     H18259   9.434   2.858   5.411  2.5482  0.0943  0.9269
  876MOL0     H18260   9.524   2.723   5.341  0.2057 -1.5726 -1.3534
  877MOL0     O18261   6.648   0.609   5.931 -1.0230 -0.1024  0.3750
  877MOL0     C18262   6.527   0.591   5.922  0.2351 -1.0922 -0.2875
  877MOL0     O18263   6.440   0.561   6.021 -0.3763 -0.6835 -0.5217
  877MOL0     C18264   6.471   0.478   6.120 -0.5416 -0.7437 -1.1684
  877MOL0     C18265   6.537   0.356   6.093  0.0876  0.0016  0.5680
  877MOL0     C18266   6.577   0.282   6.197  0.8278 -0.0519 -0.3090
  877MOL0     C18267   6.535   0.307   6.331  0.0268  0.2724 -0.0396
  877MOL0     O18268   6.600   0.226   6.426  0.4965  0.4727  0.5196
  877MOL0     C18269   6.584   0.242   6.565 -1.3178 -0.3591  0.6237
  877MOL0     C18270   6.727   0.209   6.609 -0.2907  0.2061  0.4704
  877MOL0     C18271   6.753   0.062   6.587 -0.3191 -0.5648 -0.0586
  877MOL0     C18272   6.663  -0.040   6.666 -0.0535  0.1623  0.2498
  877MOL0     C18273   6.728  -0.182   6.629  0.1075 -0.6697  0.1751
  877MOL0     C18274   6.638  -0.283   6.690  0.5119  0.8787  0.5588
  877MOL0     C18275   6.689  -0.424   6.644 -0.5319 -0.2175 -0.3212
  877MOL0     C18276   6.589  -0.544   6.654  0.6589 -1.5089 -1.4317
  877MOL0     N18277   6.582  -0.581   6.792  0.3896  0.3514  0.0055
  877MOL0     C18278   6.586  -0.715   6.837  0.7401 -0.3394 -0.4454
  877MOL0     C18279   6.586  -0.704   6.971  0.1993  1.0255  1.0222
  877MOL0     C18280   6.594  -0.825   7.058  0.4118  0.3706 -0.4195
  877MOL0     C18281   6.456  -0.887   7.049  0.0029 -0.3968 -0.3258
  877MOL0     C18282   6.443  -1.006   7.148 -0.7051  0.6734 -0.9500
  877MOL0     C18283   6.297  -1.027   7.202  0.9630  1.0478  0.4387
  877MOL0     O18284   6.226  -1.106   7.114  0.1852 -0.2419 -0.3536
  877MOL0     C18285   6.170  -1.217   7.172 -0.3712  0.4045 -0.2467
  877MOL0     C18286   6.030  -1.225   7.193  0.0754  0.4435  0.3564
  877MOL0     C18287   5.972  -1.336   7.233 -0.7749 -0.5400 -0.5340
  877MOL0     C18288   6.059  -1.447   7.269  0.6935  0.6177 -0.1168
  877MOL0     C18289   5.997  -1.566   7.321  1.1683  0.3965 -0.6335
  877MOL0     O18290   6.067  -1.687   7.335 -0.6318  0.0354 -0.6540
  877MOL0     C18291   6.021  -1.764   7.434 -0.1763  0.6889  0.3835
  877MOL0     C18292   5.917  -1.861   7.421 -0.9453  0.2461 -0.1991
  877MOL0     C18293   5.887  -1.943   7.540 -0.3732  0.3074  0.5882
  877MOL0     C18294   5.950  -1.921   7.657  0.6009  0.6057  0.0831
  877MOL0     O18295   5.914  -1.990   7.771 -0.1217  0.3961 -0.5707
  877MOL0     C18296   5.795  -2.074   7.769 -0.9182 -0.0319 -0.3142
  877MOL0     C18297   5.779  -2.142   7.915 -0.4838  0.0704 -0.3094
  877MOL0     C18298   5.910  -2.214   7.953  0.6427  0.7235 -1.2976
  877MOL0     C18299   5.900  -2.259   8.095  0.1008  0.3602 -0.1025
  877MOL0     C18300   5.809  -2.375   8.121 -0.3550  0.3572  0.2845
  877MOL0     C18301   5.787  -2.402   8.271 -0.0340  0.6445 -0.0489
  877MOL0     C18302   5.704  -2.527   8.296  0.4528  0.2609  1.4585
  877MOL0     C18303   5.710  -2.562   8.443 -0.6226  0.3096  0.1597
  877MOL0    Cl18304   5.659  -2.433   8.560 -0.0865  0.3549 -0.1837
  877MOL0     C18305   6.041  -1.820   7.664  0.7683 -0.7989 -0.5468
  877MOL0     C18306   6.072  -1.739   7.560 -0.0268 -0.8509 -0.1991
  877MOL0     O18307   5.879  -1.549   7.359 -0.5328  0.1968  0.2893
  877MOL0     C18308   6.201  -1.444   7.256  0.6467 -0.2653 -0.4941
  877MOL0     C18309   6.250  -1.329   7.202  0.5098  0.3328  0.5845
  877MOL0     N18310   6.556  -0.581   7.003  0.2490 -0.0123  0.2185
  877MOL0     N18311   6.566  -0.503   6.899 -0.3123  0.5705 -0.0903
  877MOL0     C18312   6.459   0.427   6.356 -1.0626  0.9975 -0.1787
  877MOL0     C18313   6.430   0.513   6.255 -0.0634  0.1320  0.0498
  877MOL0     C18314   6.459   0.602   5.786 -0.3145  0.2214  0.1587
  877MOL0     C18315   6.323   0.633   5.780 -0.0691 -0.3220 -0.9107
  877MOL0     C18316   6.259   0.644   5.654 -0.4257  0.2822 -0.2232
  877MOL0     C18317   6.326   0.623   5.535  0.9472 -0.2430  0.7365
  877MOL0     O18318   6.279   0.628   5.410 -0.4692  0.2631 -0.0122
  877MOL0     C18319   6.158   0.693   5.380  0.5294 -0.6922 -0.1867
  877MOL0     C18320   6.074   0.610   5.280  0.5156  1.0830  1.4427
  877MOL0     C18321   6.145   0.562   5.146 -0.1408  0.6778  0.6158
  877MOL0     C18322   6.215   0.684   5.082  1.1874  0.6340 -0.1951
  877MOL0     C18323   6.252   0.634   4.945 -0.8355  0.2856 -0.1930
  877MOL0     C18324   6.282   0.590   4.837 -0.6276  0.2421 -0.1313
  877MOL0     C18325   6.470   0.603   5.547  0.6329  0.5315 -0.4069
  877MOL0     C18326   6.540   0.575   5.672 -0.3343 -0.2160  0.1400
  877MOL0     C18327   6.687   0.543   5.655 -0.4412  0.3330  0.6858
  877MOL0     H18328   6.570   0.344   5.990  1.0972  0.7102  0.7883
  877MOL0     H18329   6.651   0.205   6.180  0.5208 -0.0110 -1.9167
  877MOL0     H18330   6.546   0.341   6.593 -1.9617  1.2354 -4.8099
  877MOL0     H18331   6.511   0.168   6.599  0.6581 -0.8335  4.3037
  877MOL0     H18332   6.735   0.232   6.716 -1.4432 -3.6209  1.5249
  877MOL0     H18333   6.805   0.270   6.563  0.4037  0.3078  1.7330
  877MOL0     H18334   6.852   0.040   6.629  0.3033 -0.0275 -1.1891
  877MOL0     H18335   6.766   0.045   6.480  1.5769  1.3109 -0.1968
  877MOL0     H18336   6.668  -0.025   6.775 -3.5800 -0.6078  0.6341
  877MOL0     H18337   6.556  -0.043   6.644  0.2383 -0.1726 -1.1852
  877MOL0     H18338   6.743  -0.192   6.522 -0.1964 -0.6481  0.1290
  877MOL0     H18339   6.824  -0.184   6.683  0.7184  1.8980 -0.6661
  877MOL0     H18340   6.625  -0.277   6.798 -0.7254 -2.9703  0.7606
  877MOL0     H18341   6.535  -0.284   6.651 -0.2560 -1.2180  2.4450
  877MOL0     H18342   6.771  -0.454   6.710 -2.4376 -0.5021  2.0541
  877MOL0     H18343   6.729  -0.433   6.542  2.6168 -0.1327  0.7886
  877MOL0     H18344   6.485  -0.523   6.627  1.1192  0.4791 -1.8065
  877MOL0     H18345   6.609  -0.631   6.590  1.6942 -2.9694  0.7807
  877MOL0     H18346   6.606  -0.795   6.767 -0.4975 -0.9720 -0.1049
  877MOL0     H18347   6.669  -0.897   7.024 -0.3190 -0.0068 -1.2608
  877MOL0     H18348   6.622  -0.797   7.160  1.2849 -3.3426  0.5197
  877MOL0     H18349   6.386  -0.805   7.065 -0.4690 -0.5724 -1.3775
  877MOL0     H18350   6.439  -0.919   6.946 -1.8736 -0.9152  0.1096
  877MOL0     H18351   6.506  -0.991   7.236 -1.7386  1.0449 -0.2580
  877MOL0     H18352   6.481  -1.094   7.094 -3.4233 -3.9791  3.7750
  877MOL0     H18353   6.255  -0.927   7.216  2.2581  1.5451  1.0163
  877MOL0     H18354   6.296  -1.073   7.302 -1.5410  1.1732  0.5287
  877MOL0     H18355   5.973  -1.135   7.171  0.7121  0.4909 -1.1784
  877MOL0     H18356   5.865  -1.354   7.234 -0.7868 -0.4636  0.5352
  877MOL0     H18357   5.860  -1.863   7.328 -0.2610 -2.0250 -0.6382
  877MOL0     H18358   5.809  -2.016   7.522  1.3490 -1.1822 -1.4266
  877MOL0     H18359   5.706  -2.018   7.738  0.8960  0.6674 -5.1886
  877MOL0     H18360   5.806  -2.151   7.692  0.0576  0.4520 -0.6862
  877MOL0     H18361   5.762  -2.063   7.989 -1.0781 -0.2227 -0.1212
  877MOL0     H18362   5.701  -2.218   7.902 -1.8987  1.7595 -2.5923
  877MOL0     H18363   5.922  -2.297   7.882 -0.7930 -0.3928 -0.3029
  877MOL0     H18364   5.990  -2.141   7.942  0.5040  1.2373  0.8344
  877MOL0     H18365   5.858  -2.181   8.159 -2.4511 -1.3143  0.3781
  877MOL0     H18366   6.000  -2.289   8.129  0.0734  1.9412  1.5319
  877MOL0     H18367   5.859  -2.456   8.067  0.4280  0.3257  1.0309
  877MOL0     H18368   5.715  -2.345   8.074  0.1085  0.5014 -0.5674
  877MOL0     H18369   5.885  -2.408   8.320 -0.2199 -2.9468  0.1501
  877MOL0     H18370   5.743  -2.309   8.307  1.6574  2.4957 -2.4273
  877MOL0     H18371   5.733  -2.612   8.234  1.0745  1.9846 -0.7098
  877MOL0     H18372   5.603  -2.499   8.265  0.8019  1.5399  1.4289
  877MOL0     H18373   5.646  -2.646   8.472 -0.3311  0.7934  2.3956
  877MOL0     H18374   5.813  -2.591   8.464 -0.6088  0.9218  0.9998
  877MOL0     H18375   6.095  -1.790   7.754  0.0237 -3.2105  0.7924
  877MOL0     H18376   6.148  -1.663   7.573  2.3581 -2.9444 -0.9269
  877MOL0     H18377   6.265  -1.527   7.284  0.9765  0.8081  2.2973
  877MOL0     H18378   6.357  -1.313   7.197  0.5348  0.8658  2.1962
  877MOL0     H18379   6.428   0.458   6.456  1.3451  0.2128  0.8783
  877MOL0     H18380   6.370   0.602   6.269 -0.0747 -0.2017  2.4979
  877MOL0     H18381   6.276   0.650   5.876  2.9547 -1.5916  0.9355
  877MOL0     H18382   6.153   0.666   5.663 -0.2165  1.1814  0.1827
  877MOL0     H18383   6.167   0.790   5.331  0.7419 -2.2319 -3.4873
  877MOL0     H18384   6.091   0.717   5.463 -0.8154 -0.1882 -1.3704
  877MOL0     H18385   5.988   0.669   5.248  1.0220  1.7969  1.3854
  877MOL0     H18386   6.030   0.525   5.333  4.1478 -1.4541  0.7866
  877MOL0     H18387   6.060   0.519   5.092  0.3442  0.1515  0.2562
  877MOL0     H18388   6.210   0.475   5.158  0.2248  0.7732 -0.5538
  877MOL0     H18389   6.137   0.761   5.080  2.3862  1.9962  2.0175
  877MOL0     H18390   6.295   0.726   5.142  0.7942  0.7734  0.2390
  877MOL0     H18391   6.310   0.557   4.739 -0.9765  1.6865 -0.7488
  877MOL0     H18392   6.525   0.599   5.453 -4.0188  0.7438 -3.4724
  877MOL0     H18393   6.710   0.487   5.564  1.7628  1.0918  0.7269
  877MOL0     H18394   6.740   0.638   5.648 -0.7276  0.4775  0.4936
  877MOL0     H18395   6.747   0.493   5.732  5.0436  1.1107 -2.5291
  878MOL0     O18396   3.335   6.661   5.593  0.9884 -0.5917  0.4272
  878MOL0     C18397   3.322   6.685   5.710 -0.0894 -0.7347  0.0099
  878MOL0     O18398   3.251   6.784   5.768 -0.8078  0.0589 -0.1546
  878MOL0     C18399   3.157   6.846   5.690 -0.6353  0.9052  0.5327
  878MOL0     C18400   3.176   6.973   5.650 -0.0604  0.0239 -0.6049
  878MOL0     C18401   3.088   7.034   5.565  0.2548  0.6578  0.9257
  878MOL0     C18402   2.973   6.964   5.525  0.1552  0.6293 -0.1607
  878MOL0     O18403   2.880   7.027   5.451  1.1478  0.1114 -0.4940
  878MOL0     C18404   2.788   7.114   5.516 -0.4987 -0.3961  0.0876
  878MOL0     C18405   2.827   7.259   5.473  0.0789  0.0544 -0.2460
  878MOL0     C18406   2.740   7.363   5.555 -0.3403  1.2064 -0.2465
  878MOL0     C18407   2.713   7.494   5.481  0.4422 -1.3806  0.2392
  878MOL0     C18408   2.839   7.584   5.472  0.0446 -0.1777 -0.1947
  878MOL0     C18409   2.793   7.713   5.390 -0.0604 -0.0788  0.3167
  878MOL0     C18410   2.746   7.686   5.243 -0.3223 -0.1133 -0.6724
  878MOL0     C18411   2.689   7.815   5.197 -0.0194 -0.6580 -0.6256
  878MOL0     N18412   2.569   7.792   5.119  0.3133 -0.0915 -0.3224
  878MOL0     C18413   2.546   7.815   4.985 -0.2382 -0.0151 -0.3202
  878MOL0     C18414   2.419   7.777   4.966 -0.9220  0.6176  0.6675
  878MOL0     C18415   2.350   7.799   4.836  0.2318 -0.7739  0.0857
  878MOL0     C18416   2.273   7.687   4.779  0.8919  0.3110 -0.2401
  878MOL0     C18417   2.247   7.706   4.634  0.4254  0.9600 -0.2684
  878MOL0     C18418   2.141   7.810   4.601 -0.5783 -0.0846  0.8059
  878MOL0     O18419   2.209   7.897   4.504  0.4259  0.3486 -0.5668
  878MOL0     C18420   2.123   7.981   4.435 -0.5460  0.1416  0.2582
  878MOL0     C18421   2.173   8.065   4.333 -0.1610 -0.0576 -0.8049
  878MOL0     C18422   2.100   8.164   4.269 -0.7045  0.4126 -0.6602
  878MOL0     C18423   1.969   8.189   4.313  0.7820 -0.7888  0.2138
  878MOL0     C18424   1.898   8.296   4.239  0.1913 -0.8487 -0.7623
  878MOL0     O18425   1.763   8.296   4.239 -0.2306  0.3023 -0.2407
  878MOL0     C18426   1.688   8.393   4.173  0.7744 -0.1567  0.4618
  878MOL0     C18427   1.603   8.347   4.077  0.9158 -0.1763  0.4269
  878MOL0     C18428   1.536   8.438   3.994 -0.6057  0.5703 -0.0672
  878MOL0     C18429   1.548   8.572   4.009  0.0953 -0.6322 -0.0511
  878MOL0     O18430   1.477   8.654   3.925  0.4666  0.1671  0.4396
  878MOL0     C18431   1.462   8.783   3.965 -0.6867  0.2638 -0.5783
  878MOL0     C18432   1.372   8.861   3.876  0.7368  0.1505 -0.5953
  878MOL0     C18433   1.433   8.877   3.740 -0.0692 -0.8113  0.3904
  878MOL0     C18434   1.343   8.968   3.654 -1.0172 -0.4413 -0.5180
  878MOL0     C18435   1.391   8.981   3.511 -0.6281 -0.8544  0.0022
  878MOL0     C18436   1.362   8.866   3.420 -0.5826  0.0518 -0.2237
  878MOL0     C18437   1.396   8.915   3.275 -0.5231  0.4160 -0.5607
  878MOL0     C18438   1.415   8.816   3.163  0.0280 -0.0371 -0.1542
  878MOL0    Cl18439   1.518   8.679   3.208  0.3662 -0.6966 -0.2932
  878MOL0     C18440   1.636   8.621   4.109  0.1721 -0.8059 -0.5392
  878MOL0     C18441   1.696   8.529   4.201 -0.1374  0.4638 -0.6494
  878MOL0     O18442   1.964   8.379   4.173  0.0905 -0.5458  0.0454
  878MOL0     C18443   1.912   8.105   4.411 -0.3554  1.5509 -0.3586
  878MOL0     C18444   1.985   7.996   4.463  1.1014  0.6222  0.0649
  878MOL0     N18445   2.361   7.735   5.085  0.3029 -0.5570  0.8646
  878MOL0     N18446   2.447   7.746   5.176 -1.0502  0.3117 -0.2706
  878MOL0     C18447   2.951   6.835   5.562  0.7310 -0.4393 -0.2292
  878MOL0     C18448   3.041   6.777   5.651  0.3453  0.8511  0.1309
  878MOL0     C18449   3.437   6.643   5.792  0.2294 -1.2992 -0.5849
  878MOL0     C18450   3.567   6.705   5.782  1.3905  0.6623 -0.6473
  878MOL0     C18451   3.670   6.642   5.851 -0.0191  0.2520 -0.4207
  878MOL0     C18452   3.653   6.537   5.946 -0.8529 -0.5629 -0.3219
  878MOL0     O18453   3.760   6.496   6.027  0.2251 -1.1046  0.4662
  878MOL0     C18454   3.794   6.358   6.030 -0.0059 -0.1020  0.0229
  878MOL0     C18455   3.758   6.282   6.150  0.5722 -0.3738 -0.2058
  878MOL0     C18456   3.775   6.364   6.285  0.9786  0.6798 -1.2209
  878MOL0     C18457   3.922   6.414   6.305  0.4632 -0.8699  0.5738
  878MOL0     C18458   3.918   6.510   6.422 -1.0962  0.2127  1.0409
  878MOL0     C18459   3.900   6.586   6.518 -1.1066  0.1200  0.0478
  878MOL0     C18460   3.524   6.499   5.973  0.5359  0.1214  0.5104
  878MOL0     C18461   3.420   6.558   5.900 -0.3155  0.7076 -0.2314
  878MOL0     C18462   3.285   6.502   5.937 -0.9200 -0.0482 -0.6409
  878MOL0     H18463   3.264   7.022   5.690  0.6617  0.6864 -2.8054
  878MOL0     H18464   3.095   7.138   5.533 -4.0981  1.7156  2.6896
  878MOL0     H18465   2.689   7.080   5.483  0.0040 -1.2298 -0.6203
  878MOL0     H18466   2.793   7.091   5.623  4.9201 -0.9164  0.0136
  878MOL0     H18467   2.800   7.283   5.370  0.4949 -0.9976 -0.6205
  878MOL0     H18468   2.932   7.285   5.487  0.0953  0.4109 -1.0148
  878MOL0     H18469   2.803   7.373   5.644 -2.5666 -1.7293  1.8604
  878MOL0     H18470   2.646   7.325   5.595  0.7874 -3.9158 -1.7153
  878MOL0     H18471   2.677   7.464   5.382  0.0306 -1.7665  0.5061
  878MOL0     H18472   2.620   7.535   5.520  0.9726 -0.1264  0.2404
  878MOL0     H18473   2.871   7.608   5.574 -1.2966 -0.3543  0.2801
  878MOL0     H18474   2.916   7.535   5.411  1.6546  2.8713 -0.7947
  878MOL0     H18475   2.709   7.758   5.444 -1.6163  1.0091 -2.7928
  878MOL0     H18476   2.881   7.778   5.387  0.0394 -0.2037  0.5029
  878MOL0     H18477   2.671   7.607   5.232 -0.4595 -0.0769 -0.0340
  878MOL0     H18478   2.827   7.654   5.176 -0.7532 -0.9033 -0.8250
  878MOL0     H18479   2.644   7.868   5.282 -0.3085 -0.2724 -1.0190
  878MOL0     H18480   2.762   7.881   5.151 -1.3622  0.9928 -0.4631
  878MOL0     H18481   2.610   7.850   4.905 -1.0354 -1.1104 -1.4819
  878MOL0     H18482   2.278   7.878   4.862  1.7939  1.6998 -2.5904
  878MOL0     H18483   2.424   7.834   4.764  0.9903  0.5991  1.4558
  878MOL0     H18484   2.340   7.602   4.795  0.9742  0.7957  2.4297
  878MOL0     H18485   2.182   7.685   4.839 -1.2029  2.5255 -3.0701
  878MOL0     H18486   2.201   7.612   4.600  3.0017 -1.0820  1.4706
  878MOL0     H18487   2.340   7.709   4.576  0.9573 -4.7371 -0.3362
  878MOL0     H18488   2.130   7.867   4.694 -0.6922 -0.0307  0.7588
  878MOL0     H18489   2.043   7.771   4.573 -1.9463  2.9263  1.0333
  878MOL0     H18490   2.273   8.050   4.294  0.2851  0.4288  0.1096
  878MOL0     H18491   2.140   8.208   4.178  2.9135 -2.0679 -0.4714
  878MOL0     H18492   1.568   8.244   4.069 -1.3557  0.5382  0.4834
  878MOL0     H18493   1.462   8.393   3.928 -0.8655  0.2198  0.4531
  878MOL0     H18494   1.432   8.782   4.071 -1.9330  0.1293 -0.9137
  878MOL0     H18495   1.558   8.834   3.958  0.4080 -1.8580 -2.0438
  878MOL0     H18496   1.282   8.804   3.854  0.1492  1.0108 -0.4607
  878MOL0     H18497   1.344   8.955   3.926 -1.3037 -1.4730  1.5042
  878MOL0     H18498   1.536   8.915   3.740 -0.9663  1.9017 -0.8095
  878MOL0     H18499   1.442   8.775   3.703  1.7683 -0.7325  0.5442
  878MOL0     H18500   1.332   9.067   3.698 -0.2152  0.1962 -1.7109
  878MOL0     H18501   1.239   8.934   3.655 -1.8349  1.8707 -1.6761
  878MOL0     H18502   1.499   8.987   3.528 -0.8967  1.9068  1.3572
  878MOL0     H18503   1.358   9.080   3.477  1.1138  1.0212  3.2387
  878MOL0     H18504   1.423   8.784   3.461 -0.0895 -0.6985 -2.3427
  878MOL0     H18505   1.262   8.824   3.432  0.5413 -2.5689  0.9469
  878MOL0     H18506   1.485   8.978   3.267  0.7261 -1.0156  1.1181
  878MOL0     H18507   1.310   8.977   3.248  0.4002  2.7560  1.5986
  878MOL0     H18508   1.314   8.787   3.133  0.3814  1.0885 -2.6620
  878MOL0     H18509   1.460   8.862   3.075  2.2618 -0.5830  0.6386
  878MOL0     H18510   1.639   8.727   4.131  3.4288 -0.8463 -0.3060
  878MOL0     H18511   1.764   8.558   4.280 -0.9846 -4.0905  2.0984
  878MOL0     H18512   1.808   8.117   4.441 -0.5134  5.0574 -1.9362
  878MOL0     H18513   1.934   7.948   4.546 -1.6664  2.4306 -0.4469
  878MOL0     H18514   2.862   6.782   5.530 -0.1170  1.0130 -0.4061
  878MOL0     H18515   3.033   6.672   5.680  2.3614  0.9097  1.0071
  878MOL0     H18516   3.584   6.799   5.730  0.5705  0.2474 -1.6883
  878MOL0     H18517   3.771   6.681   5.847 -0.5883  1.7376 -1.2315
  878MOL0     H18518   3.902   6.353   6.013 -0.0901 -0.3687 -0.4681
  878MOL0     H18519   3.750   6.310   5.942 -1.6632  1.3613 -0.0122
  878MOL0     H18520   3.810   6.186   6.161  3.0576  0.6932 -1.8443
  878MOL0     H18521   3.650   6.269   6.143  0.6752 -1.1452 -0.3771
  878MOL0     H18522   3.765   6.299   6.373  2.4076  3.0698  0.8645
  878MOL0     H18523   3.705   6.448   6.294  2.3538  1.8854 -1.3431
  878MOL0     H18524   3.992   6.331   6.323  0.7130 -0.0953  3.9205
  878MOL0     H18525   3.961   6.460   6.214  1.0237 -1.2052  0.6380
  878MOL0     H18526   3.891   6.637   6.611 -1.2644  1.9508 -0.9214
  878MOL0     H18527   3.487   6.441   6.057 -1.2451  0.6114  0.0989
  878MOL0     H18528   3.237   6.498   5.839  2.0861  1.4538 -2.3085
  878MOL0     H18529   3.283   6.405   5.989 -0.7476 -0.6205 -1.6860
  878MOL0     H18530   3.254   6.584   6.002  3.6351  1.3818  0.0758
  879MOL0     O18531   2.753   0.362   7.327  0.0702  0.1430  0.7335
  879MOL0     C18532   2.718   0.478   7.315  1.1973 -0.5731 -0.5124
  879MOL0     O18533   2.759   0.557   7.208 -0.2838 -0.1345  0.4028
  879MOL0     C18534   2.826   0.501   7.094  0.3360  0.0344  0.1598
  879MOL0     C18535   2.758   0.485   6.971  0.2017  0.1696 -0.0627
  879MOL0     C18536   2.825   0.443   6.851 -0.4786  1.0260  0.2179
  879MOL0     C18537   2.962   0.405   6.860 -0.0550  0.2557 -0.6560
  879MOL0     O18538   3.014   0.366   6.747  0.6870  0.9375  0.6091
  879MOL0     C18539   3.156   0.345   6.731 -0.5251  0.0325  0.5836
  879MOL0     C18540   3.202   0.372   6.582  0.2949  0.0140  0.1934
  879MOL0     C18541   3.178   0.519   6.547  0.2752 -0.1928  0.0998
  879MOL0     C18542   3.234   0.635   6.635 -0.6594 -0.3432 -0.4355
  879MOL0     C18543   3.390   0.640   6.643 -0.3975  0.9183 -0.8372
  879MOL0     C18544   3.463   0.626   6.503 -0.2521 -0.2441  0.6929
  879MOL0     C18545   3.450   0.752   6.428 -0.2579 -0.5069  0.2928
  879MOL0     C18546   3.519   0.732   6.288 -0.6787 -0.3794 -0.5205
  879MOL0     N18547   3.560   0.859   6.231 -0.8392 -0.3444 -0.4394
  879MOL0     C18548   3.471   0.956   6.200  0.1215  0.2397  0.1782
  879MOL0     C18549   3.548   1.039   6.126 -0.1893 -0.6826  0.3583
  879MOL0     C18550   3.494   1.145   6.038 -0.2373 -0.0755 -0.4558
  879MOL0     C18551   3.490   1.283   6.100 -0.0540 -0.4130 -0.0657
  879MOL0     C18552   3.624   1.352   6.122  0.2378 -0.0955 -0.0933
  879MOL0     C18553   3.618   1.439   6.248 -0.9244 -0.0843 -0.0096
  879MOL0     O18554   3.518   1.540   6.229 -0.6049  0.1922  0.7221
  879MOL0     C18555   3.507   1.640   6.321  0.5717 -0.8669  0.0913
  879MOL0     C18556   3.553   1.638   6.451 -0.2610  0.7924  0.2677
  879MOL0     C18557   3.521   1.734   6.547 -0.5233 -0.3393  0.5238
  879MOL0     C18558   3.426   1.832   6.506  0.1443  0.1522 -0.2814
  879MOL0     C18559   3.370   1.924   6.614 -0.3376 -0.0559 -0.2830
  879MOL0     O18560   3.305   2.036   6.576  0.1946 -0.0268  0.3718
  879MOL0     C18561   3.282   2.143   6.665  0.2690  0.7665 -0.2464
  879MOL0     C18562   3.169   2.227   6.643 -0.0932  0.1192 -0.2845
  879MOL0     C18563   3.143   2.348   6.722  0.1507  0.8054  0.8777
  879MOL0     C18564   3.228   2.371   6.834 -0.0825 -0.3291 -0.0638
  879MOL0     O18565   3.217   2.465   6.939 -0.0141  0.0890  0.4353
  879MOL0     C18566   3.084   2.449   6.999 -0.2030  0.3509  0.5628
  879MOL0     C18567   3.048   2.548   7.104  0.8109  0.1996 -0.3039
  879MOL0     C18568   3.031   2.688   7.052 -1.0023  0.0714 -0.9134
  879MOL0     C18569   2.998   2.779   7.175 -0.9231  1.3636 -0.0045
  879MOL0     C18570   2.993   2.931   7.140 -0.6958  0.0343 -0.0479
  879MOL0     C18571   2.883   3.015   7.214 -0.4215  0.0593  0.1792
  879MOL0     C18572   2.939   3.161   7.227 -0.1403 -0.5183 -0.0098
  879MOL0     C18573   2.840   3.267   7.274 -0.2008  0.4235 -0.2845
  879MOL0    Cl18574   2.924   3.393   7.363 -0.2034 -0.0760 -0.1800
  879MOL0     C18575   3.339   2.283   6.855 -0.0790 -0.0236 -0.0259
  879MOL0     C18576   3.363   2.179   6.773  0.7439  1.0854  1.0108
  879MOL0     O18577   3.392   1.897   6.731 -0.0146  0.2779 -0.6185
  879MOL0     C18578   3.377   1.838   6.369 -0.2232 -0.1047 -0.6634
  879MOL0     C18579   3.422   1.745   6.283  0.3189 -0.7787  0.2235
  879MOL0     N18580   3.680   1.008   6.135  1.2444 -0.7721  0.0436
  879MOL0     N18581   3.689   0.901   6.204 -0.1077  0.1107 -0.6068
  879MOL0     C18582   3.024   0.412   6.984 -0.3433 -0.3823 -0.5282
  879MOL0     C18583   2.960   0.466   7.094  0.2081 -0.1841 -0.0553
  879MOL0     C18584   2.608   0.538   7.409  0.1952 -0.7539  0.1175
  879MOL0     C18585   2.574   0.475   7.532  0.5779  0.2525 -0.2857
  879MOL0     C18586   2.489   0.520   7.627 -0.7906  1.9113 -0.5707
  879MOL0     C18587   2.411   0.633   7.605  0.0751 -0.4547 -0.1436
  879MOL0     O18588   2.322   0.659   7.704  0.0155  0.2131 -0.2452
  879MOL0     C18589   2.341   0.783   7.771  0.0164 -0.8897 -0.4965
  879MOL0     C18590   2.343   0.760   7.928  0.2569 -0.4099 -0.7532
  879MOL0     C18591   2.204   0.702   7.969 -0.5256  0.4508  0.3917
  879MOL0     C18592   2.192   0.543   7.961 -0.9006  0.4657  0.1929
  879MOL0     C18593   2.070   0.506   7.897  0.9207 -0.2586  0.2620
  879MOL0     C18594   1.960   0.491   7.850 -0.0725  0.0579  1.0032
  879MOL0     C18595   2.436   0.706   7.490 -0.3307 -0.1493 -0.6873
  879MOL0     C18596   2.532   0.663   7.389 -0.5415  0.5707 -0.8151
  879MOL0     C18597   2.545   0.730   7.254  0.3526 -0.4210 -0.5415
  879MOL0     H18598   2.652   0.503   6.957  0.3694  0.2081 -1.3508
  879MOL0     H18599   2.782   0.419   6.754 -3.2371 -0.6157  1.7351
  879MOL0     H18600   3.212   0.417   6.790 -1.0978  1.3379 -0.4245
  879MOL0     H18601   3.178   0.240   6.752 -4.6514 -1.1489  0.0013
  879MOL0     H18602   3.166   0.300   6.508  0.8197 -0.6206  0.5467
  879MOL0     H18603   3.309   0.357   6.569  0.3285  1.7202 -1.9122
  879MOL0     H18604   3.069   0.525   6.546  0.3116  1.0644 -2.2616
  879MOL0     H18605   3.215   0.543   6.447  3.2656 -0.4893  1.0102
  879MOL0     H18606   3.191   0.726   6.593 -2.8584 -1.0222  0.2224
  879MOL0     H18607   3.194   0.625   6.736 -0.9489  1.9691 -0.2656
  879MOL0     H18608   3.418   0.737   6.686  1.2354  1.0323 -2.0630
  879MOL0     H18609   3.435   0.557   6.698 -1.2828 -0.4166 -2.0612
  879MOL0     H18610   3.571   0.625   6.516  0.6825  8.0052 -1.2002
  879MOL0     H18611   3.420   0.546   6.443  1.2027  0.5804 -1.5395
  879MOL0     H18612   3.508   0.833   6.472 -2.5654  0.8980  0.9444
  879MOL0     H18613   3.344   0.781   6.427  0.3622  2.3147  2.8273
  879MOL0     H18614   3.608   0.670   6.297 -1.4238 -1.5741 -1.1705
  879MOL0     H18615   3.451   0.680   6.220  1.5606 -0.2622 -3.0529
  879MOL0     H18616   3.364   0.968   6.215  0.3224  3.2029 -0.2433
  879MOL0     H18617   3.555   1.157   5.948 -1.8143  0.5341 -1.4845
  879MOL0     H18618   3.398   1.103   6.007  0.8110 -1.0728 -2.5210
  879MOL0     H18619   3.431   1.345   6.031 -0.0762  0.3236  0.5966
  879MOL0     H18620   3.424   1.274   6.187 -2.9048 -0.3325 -2.0533
  879MOL0     H18621   3.648   1.410   6.032 -0.2462  0.0779 -0.1146
  879MOL0     H18622   3.700   1.275   6.137 -2.4111 -3.5325 -2.4967
  879MOL0     H18623   3.712   1.492   6.265 -1.5095 -0.1637  4.6948
  879MOL0     H18624   3.598   1.380   6.338 -0.5461  1.5765  1.2051
  879MOL0     H18625   3.621   1.555   6.471 -2.4060 -1.2735 -0.5073
  879MOL0     H18626   3.571   1.722   6.642 -1.8005  2.2928  1.6384
  879MOL0     H18627   3.102   2.222   6.558 -1.0055  3.9884 -0.0110
  879MOL0     H18628   3.063   2.419   6.704  1.0779  0.9949 -3.6299
  879MOL0     H18629   3.013   2.446   6.916 -0.7254 -1.7268  1.0270
  879MOL0     H18630   3.075   2.350   7.044 -0.8800 -1.6554 -3.4641
  879MOL0     H18631   2.958   2.525   7.161  0.4304  1.5327 -0.3228
  879MOL0     H18632   3.126   2.546   7.180  3.0486  0.2237 -2.4529
  879MOL0     H18633   3.125   2.721   7.006 -1.4369  2.0576 -0.4726
  879MOL0     H18634   2.953   2.677   6.977 -1.1319 -0.2783 -0.7307
  879MOL0     H18635   3.077   2.767   7.249 -0.4578 -0.1399 -0.7072
  879MOL0     H18636   2.901   2.747   7.215 -0.0265  0.3628  1.4868
  879MOL0     H18637   2.975   2.954   7.034  2.6811  1.6301 -0.4270
  879MOL0     H18638   3.092   2.970   7.166 -1.2002  1.7045 -0.5379
  879MOL0     H18639   2.796   3.019   7.147 -1.0559 -0.1017  0.9748
  879MOL0     H18640   2.851   2.983   7.313  0.7836 -1.5671  0.0955
  879MOL0     H18641   2.970   3.203   7.130 -0.7320 -1.8227 -0.7921
  879MOL0     H18642   3.022   3.147   7.297 -0.6253  0.2863  0.7456
  879MOL0     H18643   2.780   3.300   7.189 -2.1652  1.6144  1.4485
  879MOL0     H18644   2.771   3.224   7.348 -1.1333  1.7122 -0.3629
  879MOL0     H18645   3.411   2.316   6.929  0.4424  2.1596 -1.4300
  879MOL0     H18646   3.455   2.126   6.794  0.0729 -0.5950 -0.0716
  879MOL0     H18647   3.313   1.920   6.337  0.5716 -0.4913 -3.4875
  879MOL0     H18648   3.392   1.761   6.180 -2.5778 -0.6013  1.0180
  879MOL0     H18649   3.125   0.382   7.008 -0.3721 -0.1709 -0.1308
  879MOL0     H18650   3.009   0.491   7.187 -0.3984 -0.0227  0.2275
  879MOL0     H18651   2.627   0.381   7.547  0.0633 -0.3191 -1.8474
  879MOL0     H18652   2.480   0.460   7.717 -0.0970 -0.5308 -2.0500
  879MOL0     H18653   2.271   0.861   7.741  2.2551  1.1752 -0.7398
  879MOL0     H18654   2.440   0.823   7.748  0.5229 -1.2024  0.9967
  879MOL0     H18655   2.360   0.858   7.973  0.3658  0.0020 -1.6578
  879MOL0     H18656   2.427   0.702   7.968  2.4609  0.0624 -4.2307
  879MOL0     H18657   2.130   0.759   7.912  3.1153  2.4444 -2.7435
  879MOL0     H18658   2.174   0.736   8.069  0.3809 -0.2276  0.9031
  879MOL0     H18659   2.273   0.508   7.896 -2.2007  1.6326 -2.2130
  879MOL0     H18660   2.199   0.488   8.055 -0.9284  0.5253  0.2291
  879MOL0     H18661   1.862   0.481   7.809 -1.4990  2.7800  3.4630
  879MOL0     H18662   2.388   0.800   7.463 -0.9374 -0.0074  0.7874
  879MOL0     H18663   2.646   0.759   7.226 -0.0175  2.2511  0.5864
  879MOL0     H18664   2.495   0.675   7.174 -1.3656  2.0537 -1.3065
  879MOL0     H18665   2.497   0.828   7.260  0.6765 -0.3365  1.5577
  880MOL0     O18666  11.169   2.923  10.002  0.3126 -0.4238 -0.3985
  880MOL0     C18667  11.285   2.942  10.047  0.1712  0.1174  0.3001
  880MOL0     O18668  11.325   3.054  10.125  0.1779  0.3304  0.6640
  880MOL0     C18669  11.237   3.149  10.177  0.6055  0.0660  0.6034
  880MOL0     C18670  11.281   3.268  10.216  0.0031  0.3663  0.5043
  880MOL0     C18671  11.204   3.360  10.285 -0.6954 -0.8356  0.8270
  880MOL0     C18672  11.070   3.337  10.302  0.6071 -0.8689  0.5103
  880MOL0     O18673  10.996   3.421  10.387  0.1735  0.0763 -0.1109
  880MOL0     C18674  10.961   3.548  10.328 -0.2959 -0.1356 -0.2562
  880MOL0     C18675  10.843   3.608  10.388 -0.8275 -0.2493  0.4698
  880MOL0     C18676  10.779   3.709  10.291  0.0437  1.0832 -0.7017
  880MOL0     C18677  10.862   3.822  10.236 -0.1765  0.3372 -0.7762
  880MOL0     C18678  10.782   3.898  10.126 -0.2688  0.9580  0.0239
  880MOL0     C18679  10.810   4.051  10.136 -0.1506 -0.6805 -0.9552
  880MOL0     C18680  10.726   4.135  10.028  0.2398 -0.0067 -0.5386
  880MOL0     C18681  10.780   4.115   9.889 -0.1905  0.3092  0.0556
  880MOL0     N18682  10.699   4.205   9.797 -0.8210 -0.0695 -0.7250
  880MOL0     C18683  10.765   4.308   9.723  0.1591  0.5595 -0.1619
  880MOL0     C18684  10.676   4.356   9.636  0.7390 -0.4292 -0.2079
  880MOL0     C18685  10.707   4.477   9.555  0.7700  0.1039  0.1042
  880MOL0     C18686  10.766   4.427   9.428 -0.0815  0.3995 -0.5281
  880MOL0     C18687  10.650   4.389   9.327  0.3914  0.0448 -0.3062
  880MOL0     C18688  10.528   4.481   9.314  0.1742  0.8376 -0.3985
  880MOL0     O18689  10.581   4.620   9.306 -0.0283 -0.1262  0.0008
  880MOL0     C18690  10.620   4.663   9.176  0.3913 -0.0766 -0.2235
  880MOL0     C18691  10.622   4.589   9.055  0.6496  0.5301  0.3777
  880MOL0     C18692  10.653   4.654   8.933  0.4509  0.0208  0.7905
  880MOL0     C18693  10.688   4.788   8.929  0.1037  0.2479  0.3444
  880MOL0     C18694  10.719   4.854   8.798 -0.2647 -0.6033  0.0305
  880MOL0     O18695  10.791   4.972   8.820  0.8285 -0.1041 -0.4059
  880MOL0     C18696  10.819   5.028   8.698  0.8426 -0.2885  0.3688
  880MOL0     C18697  10.957   5.037   8.656  0.5301  0.4837 -0.5039
  880MOL0     C18698  10.982   5.112   8.543 -0.0287  0.2771 -0.3588
  880MOL0     C18699  10.879   5.185   8.474  0.7064  0.3616 -0.7479
  880MOL0     O18700  10.905   5.281   8.384  0.8165 -0.2063  0.1712
  880MOL0     C18701  10.934   5.233   8.251  0.0561 -0.2645 -0.4485
  880MOL0     C18702  10.898   5.325   8.132  0.5039  0.9773 -0.4217
  880MOL0     C18703  10.753   5.317   8.112 -0.4134 -1.5406 -0.6234
  880MOL0     C18704  10.694   5.419   8.008  0.5190 -0.2233  1.3192
  880MOL0     C18705  10.545   5.436   8.020  0.5796  0.1126 -0.5585
  880MOL0     C18706  10.501   5.501   8.154 -0.1718 -0.0367  0.3332
  880MOL0     C18707  10.583   5.611   8.208  0.2561  0.5175  1.4537
  880MOL0     C18708  10.530   5.650   8.343 -1.0827  0.1102  0.0237
  880MOL0    Cl18709  10.655   5.777   8.396  0.2508 -0.2834  0.9449
  880MOL0     C18710  10.748   5.176   8.516 -0.2382  0.4320  0.1567
  880MOL0     C18711  10.723   5.104   8.629  0.6196  0.1051 -0.8151
  880MOL0     O18712  10.697   4.797   8.692 -1.0471  1.1367  0.0964
  880MOL0     C18713  10.691   4.860   9.050 -0.2485 -0.9193  0.1131
  880MOL0     C18714  10.659   4.799   9.168  0.4586 -0.2702  0.8725
  880MOL0     N18715  10.563   4.273   9.640 -0.1051 -0.5135 -0.6174
  880MOL0     N18716  10.580   4.178   9.733  0.5261 -0.1038  0.2859
  880MOL0     C18717  11.018   3.218  10.254 -0.1314  0.8276  0.5642
  880MOL0     C18718  11.101   3.122  10.191 -0.6335  0.5382  0.2829
  880MOL0     C18719  11.387   2.833  10.021 -0.2617  0.5099 -0.3691
  880MOL0     C18720  11.503   2.827  10.107 -0.3973 -0.2089  0.8335
  880MOL0     C18721  11.599   2.729  10.089 -0.2864  0.2083 -0.2313
  880MOL0     C18722  11.581   2.619  10.002  0.7358  0.4862 -0.9719
  880MOL0     O18723  11.652   2.513   9.994 -0.5594 -0.3350 -0.1265
  880MOL0     C18724  11.642   2.431  10.115 -0.8348 -0.0691  0.2802
  880MOL0     C18725  11.504   2.347  10.128 -0.8801 -0.6254  0.5288
  880MOL0     C18726  11.504   2.228  10.225  0.0425 -0.8716 -1.1160
  880MOL0     C18727  11.381   2.144  10.230  0.9526 -0.5893  0.2346
  880MOL0     C18728  11.258   2.217  10.274  0.5680  0.2815 -0.6778
  880MOL0     C18729  11.153   2.274  10.296 -0.1246 -0.3966  0.4873
  880MOL0     C18730  11.458   2.624   9.929  0.6132 -0.6308 -0.2808
  880MOL0     C18731  11.359   2.725   9.936 -0.1597 -1.3954  0.3940
  880MOL0     C18732  11.253   2.717   9.840  0.1003  0.5216  0.6516
  880MOL0     H18733  11.384   3.298  10.202 -0.6683  2.2409 -0.7685
  880MOL0     H18734  11.237   3.458  10.319 -0.6156 -0.5233 -0.1327
  880MOL0     H18735  11.044   3.619  10.325 -1.2452  1.2051  2.3277
  880MOL0     H18736  10.939   3.527  10.222  0.6804 -0.8988 -0.3272
  880MOL0     H18737  10.876   3.665  10.476 -0.5551 -1.7085  1.3374
  880MOL0     H18738  10.775   3.530  10.422 -1.1531  1.5681  4.7121
  880MOL0     H18739  10.685   3.736  10.341 -0.9163  0.7834 -2.2439
  880MOL0     H18740  10.753   3.649  10.203 -2.9464  1.7402 -0.3929
  880MOL0     H18741  10.879   3.900  10.312 -1.8342 -0.3153  0.3350
  880MOL0     H18742  10.958   3.788  10.198 -0.4755  0.2545 -1.4760
  880MOL0     H18743  10.819   3.852  10.034  0.2305  1.3055  0.0460
  880MOL0     H18744  10.676   3.870  10.128 -0.3998  1.4519  0.1939
  880MOL0     H18745  10.779   4.081  10.237 -0.0325 -2.2406 -0.4355
  880MOL0     H18746  10.916   4.079  10.136 -0.1293 -0.3036  2.5913
  880MOL0     H18747  10.733   4.241  10.052 -4.0584  0.6857 -1.5277
  880MOL0     H18748  10.619   4.111  10.025  0.1754 -1.1002  3.5313
  880MOL0     H18749  10.887   4.140   9.885 -0.5581  2.2996  1.5209
  880MOL0     H18750  10.761   4.012   9.857  1.3518  0.9766 -3.5179
  880MOL0     H18751  10.865   4.349   9.738  0.0534  0.4611  0.9224
  880MOL0     H18752  10.616   4.537   9.542  0.1456 -0.3488  2.0020
  880MOL0     H18753  10.786   4.527   9.613 -0.5833 -0.1853  2.3062
  880MOL0     H18754  10.823   4.509   9.384 -1.2079 -0.5021 -4.0334
  880MOL0     H18755  10.837   4.345   9.444 -0.6374  0.5221  3.3948
  880MOL0     H18756  10.614   4.293   9.365 -1.9128  1.5526  1.6405
  880MOL0     H18757  10.694   4.380   9.227  0.9807  1.2885 -0.1820
  880MOL0     H18758  10.467   4.474   9.404 -0.6886  0.9627 -0.9663
  880MOL0     H18759  10.459   4.451   9.235  2.0886 -2.6666 -0.9709
  880MOL0     H18760  10.607   4.481   9.049  2.2736  0.3460 -1.3674
  880MOL0     H18761  10.651   4.589   8.846 -1.3659  0.3176  0.5764
  880MOL0     H18762  11.035   4.995   8.719 -3.1624 -4.1519  1.5669
  880MOL0     H18763  11.086   5.123   8.513  0.5875  1.4227  1.9763
  880MOL0     H18764  11.042   5.214   8.246 -0.3426 -2.9595  0.0069
  880MOL0     H18765  10.891   5.133   8.239  0.0122 -0.5423  1.7159
  880MOL0     H18766  10.933   5.422   8.168 -2.1578  1.1166  2.1725
  880MOL0     H18767  10.943   5.286   8.041 -3.5613 -0.1383 -2.1983
  880MOL0     H18768  10.732   5.213   8.083 -0.0065 -1.4535 -1.2466
  880MOL0     H18769  10.709   5.328   8.212 -0.8264 -4.7018 -0.3280
  880MOL0     H18770  10.711   5.367   7.912  0.4709  1.6076  0.2815
  880MOL0     H18771  10.753   5.511   7.999  1.1157 -0.6586  0.5420
  880MOL0     H18772  10.503   5.336   8.016 -0.6381  0.6297 -1.1337
  880MOL0     H18773  10.505   5.492   7.935  2.0762  0.1175 -1.3091
  880MOL0     H18774  10.403   5.545   8.132 -1.0623 -0.6440  2.8002
  880MOL0     H18775  10.498   5.425   8.232 -1.7269 -0.1205  0.2174
  880MOL0     H18776  10.585   5.698   8.142  0.9173  0.1061  0.9213
  880MOL0     H18777  10.686   5.574   8.213  0.1080 -0.2586 -0.5928
  880MOL0     H18778  10.424   5.677   8.337 -2.3110 -4.1418 -1.4529
  880MOL0     H18779  10.529   5.570   8.417 -0.8733  0.6837  0.6557
  880MOL0     H18780  10.679   5.241   8.464 -0.7957  1.0599  1.5976
  880MOL0     H18781  10.617   5.106   8.654  0.7775  0.6511 -0.1760
  880MOL0     H18782  10.708   4.967   9.061 -0.9795 -0.7709 -0.1166
  880MOL0     H18783  10.636   4.856   9.258 -0.9116  0.4018  0.1386
  880MOL0     H18784  10.912   3.199  10.272 -0.3628  1.7599  0.2262
  880MOL0     H18785  11.057   3.028  10.159 -0.0884  1.1170 -2.4198
  880MOL0     H18786  11.525   2.901  10.183 -1.1160  1.6979 -0.7314
  880MOL0     H18787  11.693   2.746  10.141 -0.0121 -0.4290 -0.5107
  880MOL0     H18788  11.630   2.489  10.206 -0.0346 -0.4739  0.6501
  880MOL0     H18789  11.722   2.359  10.134 -1.3893 -0.4634  1.2022
  880MOL0     H18790  11.482   2.298  10.032  1.2844  0.6909 -0.7158
  880MOL0     H18791  11.416   2.410  10.141 -0.7805 -0.3185 -0.2258
  880MOL0     H18792  11.510   2.258  10.330  0.0785 -0.4825 -1.2238
  880MOL0     H18793  11.593   2.168  10.202  1.4848  1.4787 -2.1033
  880MOL0     H18794  11.350   2.096  10.136  0.6758 -2.2839  1.1626
  880MOL0     H18795  11.406   2.066  10.301 -1.3395 -2.8973 -1.2959
  880MOL0     H18796  11.065   2.330  10.316 -1.0602 -1.1332 -1.3272
  880MOL0     H18797  11.458   2.548   9.852  0.1705 -0.6754 -0.2408
  880MOL0     H18798  11.156   2.691   9.885 -0.2722 -1.5839 -1.1700
  880MOL0     H18799  11.234   2.807   9.781 -1.7427 -1.3182 -1.7693
  880MOL0     H18800  11.269   2.633   9.771  0.2807  1.4808 -0.5030
  881MOL0     O18801   1.474   7.759   6.818  0.4098 -0.0199  0.0267
  881MOL0     C18802   1.430   7.683   6.737  0.2418  0.1963 -0.0243
  881MOL0     O18803   1.509   7.622   6.645 -0.6762 -0.3271  0.6071
  881MOL0     C18804   1.646   7.641   6.644 -0.4648 -1.0058 -0.0505
  881MOL0     C18805   1.704   7.764   6.612 -0.3428  0.4700  0.2296
  881MOL0     C18806   1.838   7.790   6.595  0.3343  0.0340 -0.3221
  881MOL0     C18807   1.932   7.678   6.602 -0.1897 -0.6707 -0.4309
  881MOL0     O18808   2.062   7.697   6.572 -1.0861 -0.7080 -0.2573
  881MOL0     C18809   2.147   7.627   6.661 -0.4290  0.4820 -0.7335
  881MOL0     C18810   2.287   7.700   6.636  0.3878 -0.1590 -0.5260
  881MOL0     C18811   2.403   7.650   6.728  0.2076  0.5417  0.4925
  881MOL0     C18812   2.527   7.749   6.716 -0.6686 -1.4566 -0.4214
  881MOL0     C18813   2.643   7.695   6.809 -0.3222  0.5878  0.1040
  881MOL0     C18814   2.766   7.783   6.795  0.4116  0.0936 -0.3600
  881MOL0     C18815   2.888   7.737   6.884 -0.3155  0.4200 -0.8705
  881MOL0     C18816   2.867   7.777   7.030 -0.3603 -0.4582  0.1345
  881MOL0     N18817   2.863   7.932   7.053 -0.3305  0.4295 -0.1775
  881MOL0     C18818   2.975   8.009   7.036  0.3049 -0.3789  0.5634
  881MOL0     C18819   2.929   8.134   7.060 -0.8468 -0.7753  0.2433
  881MOL0     C18820   3.011   8.258   7.078  0.0079 -0.5051  0.5058
  881MOL0     C18821   3.048   8.273   7.228 -0.7209 -0.5813  0.1754
  881MOL0     C18822   3.130   8.405   7.251  0.2424  1.1630 -0.4034
  881MOL0     C18823   3.254   8.425   7.168 -0.3558  1.0232 -0.2050
  881MOL0     O18824   3.302   8.545   7.219 -0.3571 -0.7853  0.2631
  881MOL0     C18825   3.438   8.579   7.210 -1.1960 -0.5061  0.5799
  881MOL0     C18826   3.485   8.693   7.271  0.2147 -0.1540  0.9689
  881MOL0     C18827   3.622   8.723   7.272  1.2316  0.2985 -0.2689
  881MOL0     C18828   3.711   8.647   7.196 -1.4667 -0.0201 -0.3952
  881MOL0     C18829   3.855   8.685   7.192  0.2749 -0.4610  0.6372
  881MOL0     O18830   3.937   8.598   7.116 -0.6090 -0.5157  0.3338
  881MOL0     C18831   4.076   8.632   7.105  0.5668  0.2438  0.7790
  881MOL0     C18832   4.173   8.550   7.172  0.0273 -0.6920  0.1052
  881MOL0     C18833   4.305   8.564   7.131 -0.3779 -0.0697 -0.2977
  881MOL0     C18834   4.344   8.650   7.024 -0.2863  0.7162 -0.6640
  881MOL0     O18835   4.476   8.655   6.981 -0.9771 -0.0078 -0.4124
  881MOL0     C18836   4.503   8.622   6.845 -0.5516  0.4236 -0.7289
  881MOL0     C18837   4.638   8.680   6.811 -0.8542 -0.5729 -0.4901
  881MOL0     C18838   4.772   8.616   6.862 -0.6374 -0.1130  0.5307
  881MOL0     C18839   4.887   8.640   6.763  0.1416 -0.5221 -0.4546
  881MOL0     C18840   5.027   8.604   6.827 -0.6048 -0.6766 -0.2523
  881MOL0     C18841   5.038   8.460   6.872 -0.4528  0.8776  0.2845
  881MOL0     C18842   5.031   8.363   6.749 -0.0811 -0.7435  0.0936
  881MOL0     C18843   5.129   8.250   6.768  0.1930 -0.3078  0.3499
  881MOL0    Cl18844   5.123   8.156   6.610 -0.3056 -0.3457 -0.4695
  881MOL0     C18845   4.248   8.725   6.971  1.1140 -0.2039  0.1868
  881MOL0     C18846   4.114   8.730   7.011 -0.4456 -0.3198  0.0499
  881MOL0     O18847   3.891   8.783   7.254  0.2658 -0.0188 -0.7956
  881MOL0     C18848   3.668   8.536   7.125  0.5035  0.0386  0.4412
  881MOL0     C18849   3.528   8.504   7.138  0.2593  0.8615 -0.7794
  881MOL0     N18850   2.796   8.133   7.089  0.3780 -0.1191 -0.2820
  881MOL0     N18851   2.754   8.006   7.063  0.7736  0.1588 -0.1531
  881MOL0     C18852   1.876   7.550   6.601 -0.4076 -1.2090 -0.7500
  881MOL0     C18853   1.735   7.534   6.620  0.2610  0.5655 -0.2971
  881MOL0     C18854   1.281   7.650   6.751 -0.2372  1.5089 -0.5761
  881MOL0     C18855   1.210   7.709   6.859 -0.3589 -0.2625 -0.2045
  881MOL0     C18856   1.073   7.698   6.865 -0.3985 -0.1819 -0.0211
  881MOL0     C18857   1.000   7.627   6.766 -0.0617 -0.8871  0.2067
  881MOL0     O18858   0.866   7.614   6.774 -0.1005  0.1732 -0.2748
  881MOL0     C18859   0.816   7.485   6.812 -0.6274  0.3812 -0.7380
  881MOL0     C18860   0.702   7.449   6.720 -0.3215  0.6843  0.3851
  881MOL0     C18861   0.595   7.378   6.797  0.2566 -0.9562 -0.5410
  881MOL0     C18862   0.517   7.289   6.699 -0.7967  0.2744 -0.3798
  881MOL0     C18863   0.449   7.351   6.584 -0.7985  0.1140 -0.7668
  881MOL0     C18864   0.427   7.400   6.473  0.5153  0.3798 -0.1731
  881MOL0     C18865   1.067   7.563   6.665 -0.3398 -0.1928 -0.2771
  881MOL0     C18866   1.209   7.571   6.657 -0.6734 -0.3554  0.6081
  881MOL0     C18867   1.277   7.510   6.537  0.8590 -0.9019  0.2062
  881MOL0     H18868   1.636   7.849   6.607  0.5064  1.1678  0.2428
  881MOL0     H18869   1.857   7.894   6.572 -0.7468  0.4209  0.4736
  881MOL0     H18870   2.119   7.630   6.766 -4.4357  0.9475 -1.6423
  881MOL0     H18871   2.161   7.524   6.627  0.4587  0.5395 -0.5627
  881MOL0     H18872   2.267   7.807   6.639 -1.1863 -0.4080 -1.2034
  881MOL0     H18873   2.320   7.683   6.533  2.7220  4.1360 -0.7094
  881MOL0     H18874   2.432   7.550   6.696  0.4715 -0.1104  2.5946
  881MOL0     H18875   2.362   7.645   6.830  0.2776  0.4866  0.5175
  881MOL0     H18876   2.567   7.744   6.614  0.4318 -0.3605 -0.0677
  881MOL0     H18877   2.500   7.853   6.736  1.2177 -0.3542 -2.9794
  881MOL0     H18878   2.616   7.680   6.914 -2.3668 -0.6542 -0.5523
  881MOL0     H18879   2.670   7.595   6.774 -1.4180  1.4213 -3.5907
  881MOL0     H18880   2.797   7.802   6.691  0.4331  0.4552 -0.2900
  881MOL0     H18881   2.738   7.883   6.830 -0.5153  0.2552 -1.5014
  881MOL0     H18882   2.987   7.766   6.846  0.3330 -0.4236  0.0927
  881MOL0     H18883   2.885   7.628   6.870  1.1281  0.1433  0.5741
  881MOL0     H18884   2.786   7.722   7.079  1.9423 -1.2052  3.4087
  881MOL0     H18885   2.949   7.738   7.091  1.2138  4.2634  1.4317
  881MOL0     H18886   3.071   7.967   7.010  0.2193 -1.2748  1.6183
  881MOL0     H18887   3.092   8.258   7.005 -1.3443 -0.0784 -1.0633
  881MOL0     H18888   2.956   8.349   7.050 -0.5575 -0.9739  0.0693
  881MOL0     H18889   2.967   8.262   7.300 -0.6259 -0.8859  0.2371
  881MOL0     H18890   3.113   8.187   7.250  0.6714  0.0054 -1.4182
  881MOL0     H18891   3.159   8.404   7.357  0.2754 -0.8964 -0.3917
  881MOL0     H18892   3.070   8.488   7.211 -0.4404  1.0094  0.2687
  881MOL0     H18893   3.228   8.440   7.063 -1.1418  3.9203  0.3099
  881MOL0     H18894   3.316   8.336   7.177 -1.8910  0.0165  1.1567
  881MOL0     H18895   3.411   8.744   7.331 -0.6214  2.9099 -2.3028
  881MOL0     H18896   3.660   8.798   7.341  0.9366 -0.0240  0.2591
  881MOL0     H18897   4.131   8.477   7.241  2.3413 -2.5887 -0.3920
  881MOL0     H18898   4.375   8.487   7.164 -1.7759 -1.0394  0.5400
  881MOL0     H18899   4.497   8.514   6.831 -1.8283 -0.0598  2.6557
  881MOL0     H18900   4.423   8.663   6.783 -2.2013 -0.2219  0.8873
  881MOL0     H18901   4.643   8.694   6.703 -2.1724 -0.1629 -0.5149
  881MOL0     H18902   4.649   8.783   6.848  1.0905 -0.7544 -0.4299
  881MOL0     H18903   4.798   8.659   6.959 -0.4986  0.9493  0.0349
  881MOL0     H18904   4.762   8.508   6.876  0.7776 -0.1146  1.8434
  881MOL0     H18905   4.875   8.747   6.745 -2.6165 -0.7312 -0.3438
  881MOL0     H18906   4.886   8.594   6.663 -3.5071  2.7760 -2.2393
  881MOL0     H18907   5.044   8.664   6.917 -1.0423  0.0612 -0.6459
  881MOL0     H18908   5.101   8.628   6.750  0.6340  0.8659  1.3252
  881MOL0     H18909   5.140   8.458   6.912  0.6868  2.6474 -2.2783
  881MOL0     H18910   4.972   8.434   6.956  0.6136 -0.8628  0.6247
  881MOL0     H18911   5.066   8.406   6.654  0.1375  0.4479  0.6848
  881MOL0     H18912   4.932   8.317   6.739 -0.1047 -0.3071 -2.3344
  881MOL0     H18913   5.227   8.286   6.799  0.8422 -1.1582 -0.6855
  881MOL0     H18914   5.085   8.188   6.847  0.4059  0.8010  1.3757
  881MOL0     H18915   4.270   8.788   6.885  0.3527 -1.8495 -1.2984
  881MOL0     H18916   4.051   8.786   6.943 -0.6835  1.1852  1.4545
  881MOL0     H18917   3.734   8.473   7.067 -1.7423 -2.0299 -0.0201
  881MOL0     H18918   3.500   8.418   7.077  1.9772 -0.4945  0.2360
  881MOL0     H18919   1.939   7.461   6.600 -0.3453 -1.1727 -2.1722
  881MOL0     H18920   1.705   7.430   6.629 -3.8274  1.3979 -2.0150
  881MOL0     H18921   1.253   7.769   6.939  1.4965 -0.2490 -1.1814
  881MOL0     H18922   1.014   7.751   6.939 -0.9849 -0.7397 -0.0701
  881MOL0     H18923   0.785   7.475   6.917  0.8666  4.0370  0.2063
  881MOL0     H18924   0.902   7.419   6.797 -1.5189 -0.8347 -0.6254
  881MOL0     H18925   0.741   7.376   6.648 -0.3627 -0.2576  1.2845
  881MOL0     H18926   0.673   7.541   6.670 -1.0528  2.7540  4.2641
  881MOL0     H18927   0.533   7.452   6.848  3.1675  0.9659  0.5118
  881MOL0     H18928   0.634   7.313   6.877 -1.5609  1.5868  2.6566
  881MOL0     H18929   0.578   7.210   6.654  0.5801  0.5042  0.9923
  881MOL0     H18930   0.443   7.246   6.767  1.0400  3.9717  4.6602
  881MOL0     H18931   0.395   7.453   6.386  3.5054  2.7734  0.0511
  881MOL0     H18932   1.006   7.509   6.593  0.7501 -0.3374 -1.1164
  881MOL0     H18933   1.336   7.589   6.488 -0.4855  0.5054  0.7680
  881MOL0     H18934   1.340   7.428   6.572  0.7101 -1.1698 -0.1490
  881MOL0     H18935   1.199   7.481   6.467  1.8585 -3.7235  0.1293
  882MOL0     O18936   1.248   2.580   1.506  0.2472 -0.7987  0.2073
  882MOL0     C18937   1.167   2.500   1.463 -0.4532  0.6704 -0.2218
  882MOL0     O18938   1.059   2.453   1.538 -0.6176 -0.1492  0.2637
  882MOL0     C18939   1.051   2.481   1.665  0.0084 -0.4806  0.1251
  882MOL0     C18940   0.933   2.541   1.706 -1.0572 -0.4421 -0.8769
  882MOL0     C18941   0.912   2.584   1.835  0.3921  0.4279 -0.4676
  882MOL0     C18942   1.022   2.558   1.928 -0.2611 -0.2534 -0.4224
  882MOL0     O18943   1.028   2.583   2.059  0.3201 -0.2490  0.2220
  882MOL0     C18944   1.001   2.718   2.092  0.9970 -0.3536  0.2768
  882MOL0     C18945   1.123   2.797   2.107  0.1985  0.1564 -0.2226
  882MOL0     C18946   1.118   2.936   2.156  0.1219  0.2700 -0.0345
  882MOL0     C18947   1.054   3.032   2.053  0.0779 -0.5047 -0.8171
  882MOL0     C18948   1.156   3.063   1.935  0.7756 -0.2643  0.6039
  882MOL0     C18949   1.249   3.183   1.957  0.7135 -0.3062 -0.1754
  882MOL0     C18950   1.330   3.193   1.833  0.3384 -0.3127  0.0618
  882MOL0     C18951   1.397   3.328   1.816  0.1087 -1.3393  0.3769
  882MOL0     N18952   1.500   3.346   1.920  0.7676  0.3788 -0.7813
  882MOL0     C18953   1.559   3.254   2.013 -0.2872 -0.1836  0.0264
  882MOL0     C18954   1.623   3.335   2.100  0.0257  0.1568  0.1942
  882MOL0     C18955   1.704   3.308   2.224  0.4177 -0.3552 -0.9452
  882MOL0     C18956   1.644   3.173   2.296 -0.3066  0.5416 -0.1348
  882MOL0     C18957   1.514   3.212   2.366 -0.0238 -0.2568  0.4814
  882MOL0     C18958   1.442   3.094   2.432 -0.1573  0.3221 -0.6681
  882MOL0     O18959   1.304   3.102   2.433 -0.4568  0.0965 -1.0253
  882MOL0     C18960   1.246   3.002   2.515 -0.1166 -0.6591 -0.1514
  882MOL0     C18961   1.120   3.031   2.573  0.9055  1.0323  0.8213
  882MOL0     C18962   1.052   2.944   2.659 -0.8791 -0.7188 -0.5861
  882MOL0     C18963   1.112   2.829   2.701 -0.5649 -0.0350 -0.1476
  882MOL0     C18964   1.047   2.717   2.792 -1.2035 -0.2783  0.3930
  882MOL0     O18965   1.097   2.594   2.784  0.7109 -0.2614 -0.5015
  882MOL0     C18966   1.047   2.494   2.863 -0.1331  0.5965  1.1853
  882MOL0     C18967   1.097   2.470   2.987 -0.3181  0.6186 -0.6966
  882MOL0     C18968   1.050   2.362   3.067  0.3589 -0.5321  0.4293
  882MOL0     C18969   0.949   2.278   3.020  0.0222  0.5327  0.8182
  882MOL0     O18970   0.913   2.179   3.112 -0.5444 -0.7649  0.5298
  882MOL0     C18971   0.776   2.129   3.100  0.3099 -0.2404 -0.2712
  882MOL0     C18972   0.740   2.069   3.231 -0.4927  0.2429 -1.7388
  882MOL0     C18973   0.591   2.040   3.242 -0.4840  0.4286  0.5229
  882MOL0     C18974   0.495   2.162   3.221  1.1966 -0.4255 -0.4261
  882MOL0     C18975   0.353   2.120   3.270 -0.6001  1.4992 -0.4667
  882MOL0     C18976   0.241   2.230   3.265  0.0020  0.1877 -0.0442
  882MOL0     C18977   0.268   2.334   3.381  0.2577 -0.0025 -1.5916
  882MOL0     C18978   0.245   2.482   3.325  0.3114  1.0176  0.0356
  882MOL0    Cl18979   0.073   2.511   3.277  0.0521  0.1191 -0.3169
  882MOL0     C18980   0.910   2.292   2.881  0.6172  0.0945 -0.0534
  882MOL0     C18981   0.954   2.398   2.799  0.7849 -1.0351 -0.2256
  882MOL0     O18982   0.951   2.754   2.863  0.1159 -0.2514  0.1723
  882MOL0     C18983   1.240   2.793   2.643  0.8204 -1.2922 -0.1037
  882MOL0     C18984   1.311   2.884   2.565 -0.6714  0.1854 -0.5981
  882MOL0     N18985   1.594   3.469   2.067  0.2893  0.6817  0.5479
  882MOL0     N18986   1.528   3.475   1.959 -0.0434  0.0649 -0.1479
  882MOL0     C18987   1.137   2.479   1.895 -0.7866  0.3572  0.3616
  882MOL0     C18988   1.155   2.448   1.762  0.8273  0.5047  0.1930
  882MOL0     C18989   1.164   2.462   1.320  0.2562 -0.1388  0.0457
  882MOL0     C18990   1.065   2.371   1.266  0.3471 -0.9837  0.3487
  882MOL0     C18991   1.062   2.328   1.134 -0.3872 -0.3276 -0.1777
  882MOL0     C18992   1.158   2.374   1.047  0.7372 -0.2480  0.6800
  882MOL0     O18993   1.142   2.335   0.913 -0.3345 -0.7312 -0.0557
  882MOL0     C18994   1.031   2.395   0.851  0.5636 -0.0968 -0.1813
  882MOL0     C18995   0.958   2.293   0.761  0.3468 -0.8168 -0.4907
  882MOL0     C18996   0.856   2.370   0.671  0.3014  0.3049  0.4827
  882MOL0     C18997   0.750   2.268   0.629  0.9229 -0.3302 -0.5187
  882MOL0     C18998   0.682   2.206   0.750 -0.9148  0.4895  0.7664
  882MOL0     C18999   0.622   2.134   0.822 -0.2833 -0.7407 -0.4714
  882MOL0     C19000   1.253   2.466   1.091 -0.1335  1.3533  0.4690
  882MOL0     C19001   1.257   2.516   1.219  0.3597  0.4344 -0.4684
  882MOL0     C19002   1.366   2.624   1.246 -0.7294 -0.9628 -0.0628
  882MOL0     H19003   0.863   2.579   1.632  0.2060  1.9523 -0.9537
  882MOL0     H19004   0.830   2.647   1.869 -0.2582 -0.4704 -0.3280
  882MOL0     H19005   0.933   2.766   2.022 -0.5320  0.8446  2.4593
  882MOL0     H19006   0.951   2.726   2.189 -0.7890 -0.9962 -0.5478
  882MOL0     H19007   1.178   2.799   2.012  0.1617 -1.1908 -0.2861
  882MOL0     H19008   1.197   2.745   2.169  0.8674 -1.8009 -2.5315
  882MOL0     H19009   1.214   2.980   2.184 -0.9022  4.3365 -2.1664
  882MOL0     H19010   1.048   2.946   2.239 -0.9157 -2.0227 -0.5314
  882MOL0     H19011   0.957   2.996   2.017 -0.0947  0.5029 -1.3871
  882MOL0     H19012   1.029   3.124   2.105  0.5911  0.5214 -2.3018
  882MOL0     H19013   1.206   2.977   1.889  0.4314  0.0054 -0.2877
  882MOL0     H19014   1.093   3.092   1.851  0.6255 -2.3894 -0.0775
  882MOL0     H19015   1.184   3.270   1.968 -1.3517 -1.5280 -1.9508
  882MOL0     H19016   1.311   3.174   2.047 -1.9371 -0.2490  1.7707
  882MOL0     H19017   1.266   3.166   1.749  0.4354 -1.4503  0.3324
  882MOL0     H19018   1.407   3.115   1.841  0.1868 -0.3375  6.0332
  882MOL0     H19019   1.447   3.325   1.719  0.9762  0.3113  0.7334
  882MOL0     H19020   1.323   3.409   1.818  0.7701 -0.6412  3.8053
  882MOL0     H19021   1.554   3.145   2.013  0.9922 -0.2922  2.2978
  882MOL0     H19022   1.807   3.279   2.197  1.0849  0.6956  0.3742
  882MOL0     H19023   1.708   3.395   2.289 -1.2685 -1.0074  0.0962
  882MOL0     H19024   1.632   3.091   2.224  2.9799 -0.0206 -0.1939
  882MOL0     H19025   1.710   3.132   2.374  1.0606  1.1386 -0.9341
  882MOL0     H19026   1.436   3.243   2.295 -0.2339 -1.7428  0.0365
  882MOL0     H19027   1.527   3.292   2.439  1.2571 -1.8010  2.0172
  882MOL0     H19028   1.479   3.082   2.534  1.4213  1.0202 -1.1427
  882MOL0     H19029   1.463   3.005   2.371 -1.8327  0.3832 -1.4025
  882MOL0     H19030   1.062   3.120   2.550 -1.8627 -1.1173 -1.2230
  882MOL0     H19031   0.957   2.981   2.696  1.3220  2.3640  2.6265
  882MOL0     H19032   1.182   2.526   3.025 -0.0088  0.7396 -1.5419
  882MOL0     H19033   1.103   2.344   3.159  3.5545  2.6980 -0.5259
  882MOL0     H19034   0.704   2.205   3.069 -0.8123 -2.2379 -2.9754
  882MOL0     H19035   0.762   2.064   3.012  0.7708  1.4779 -1.6817
  882MOL0     H19036   0.804   1.984   3.256 -0.1490  1.0119  0.2566
  882MOL0     H19037   0.766   2.142   3.308  0.0713 -0.9561 -0.7539
  882MOL0     H19038   0.566   1.956   3.176 -3.1941 -1.5182  3.6917
  882MOL0     H19039   0.586   2.003   3.345 -0.3530  1.6731  0.9885
  882MOL0     H19040   0.487   2.181   3.113  1.3259  0.4640 -0.2837
  882MOL0     H19041   0.539   2.253   3.261 -1.4448 -0.3357  2.7210
  882MOL0     H19042   0.362   2.085   3.374 -0.9730  0.9833 -0.6034
  882MOL0     H19043   0.322   2.035   3.208 -2.2275  2.9442 -1.7384
  882MOL0     H19044   0.246   2.270   3.163  1.7774  2.2212  0.7689
  882MOL0     H19045   0.150   2.174   3.287 -0.8916  0.7743 -1.9803
  882MOL0     H19046   0.372   2.334   3.415  0.6873 -2.8503 -2.6345
  882MOL0     H19047   0.205   2.308   3.467  1.5848 -2.2387 -1.2362
  882MOL0     H19048   0.274   2.548   3.407 -0.4719  0.1836  1.0119
  882MOL0     H19049   0.323   2.496   3.250  3.4175  0.8635  3.0169
  882MOL0     H19050   0.851   2.217   2.829  0.9424  0.3619 -0.8310
  882MOL0     H19051   0.912   2.409   2.700  2.4625 -0.4369 -0.9010
  882MOL0     H19052   1.286   2.707   2.690  0.1047 -1.5764  0.0880
  882MOL0     H19053   1.413   2.861   2.536  0.4277  0.8089  2.4082
  882MOL0     H19054   1.206   2.436   1.966 -2.6137 -0.1406  1.9197
  882MOL0     H19055   1.235   2.388   1.719 -0.4094 -0.5622 -0.6760
  882MOL0     H19056   1.003   2.319   1.339 -3.9750  3.0085  0.0329
  882MOL0     H19057   0.988   2.254   1.104 -0.1634 -0.2563 -0.9258
  882MOL0     H19058   1.056   2.480   0.787 -3.6074  1.2588 -0.3506
  882MOL0     H19059   0.956   2.418   0.927 -2.9750 -2.9261 -2.4654
  882MOL0     H19060   0.916   2.229   0.839 -1.3610  1.0795  0.2215
  882MOL0     H19061   1.031   2.232   0.707 -0.5162 -2.6763  0.3545
  882MOL0     H19062   0.898   2.406   0.577  0.8646 -0.7795  0.3055
  882MOL0     H19063   0.806   2.446   0.732  0.8593  0.6830  0.4697
  882MOL0     H19064   0.682   2.327   0.568  0.3105  1.0861  1.4295
  882MOL0     H19065   0.788   2.187   0.565  1.8786 -0.2226 -0.1094
  882MOL0     H19066   0.566   2.061   0.876  0.6471 -1.0114  0.1614
  882MOL0     H19067   1.307   2.526   1.019 -0.1004 -1.3167 -1.9147
  882MOL0     H19068   1.453   2.585   1.299 -0.5496 -1.4663 -0.7078
  882MOL0     H19069   1.390   2.674   1.152  0.1563  0.3287  0.8166
  882MOL0     H19070   1.324   2.707   1.302 -3.1386 -0.8330 -1.8868
  883MOL0     O19071   0.950   2.464  10.531  0.7754  0.0942  0.0802
  883MOL0     C19072   1.036   2.519  10.596 -0.5967  0.1311  0.3344
  883MOL0     O19073   1.031   2.556  10.726  0.7551  0.6723  0.7749
  883MOL0     C19074   0.940   2.483  10.799 -0.3708  0.8707  0.0945
  883MOL0     C19075   0.806   2.480  10.787 -0.1702  0.3482  0.0273
  883MOL0     C19076   0.716   2.408  10.870 -0.0391 -0.3785 -0.1197
  883MOL0     C19077   0.786   2.342  10.976  0.2535  0.3004  0.6257
  883MOL0     O19078   0.726   2.268  11.077  0.3041 -0.2908  0.1235
  883MOL0     C19079   0.597   2.321  11.118  0.6011 -0.8267  0.2873
  883MOL0     C19080   0.624   2.456  11.183 -0.0209  0.6059  0.0859
  883MOL0     C19081   0.730   2.452  11.284 -0.2479 -0.2305  0.1899
  883MOL0     C19082   0.791   2.584  11.308 -0.1896 -0.0351  1.7059
  883MOL0     C19083   0.891   2.584  11.426 -0.1563 -0.0808  0.4716
  883MOL0     C19084   0.941   2.733  11.436 -0.0083  0.8800 -0.8507
  883MOL0     C19085   1.052   2.727  11.553  0.1701  0.5155  0.5565
  883MOL0     C19086   1.084   2.879  11.600 -0.1338  0.3225 -0.2068
  883MOL0     N19087   1.217   2.866  11.662 -0.1904 -0.0940 -0.3159
  883MOL0     C19088   1.240   2.832  11.795 -0.0346  0.2944 -0.3868
  883MOL0     C19089   1.368   2.824  11.803  0.1298  1.2132  0.7838
  883MOL0     C19090   1.447   2.811  11.930  0.4946  0.3882 -0.2331
  883MOL0     C19091   1.581   2.884  11.928  0.8604  0.7477  0.4776
  883MOL0     C19092   1.650   2.880  12.068 -0.0239 -0.4072 -0.5704
  883MOL0     C19093   1.774   2.968  12.077 -0.1553 -0.6382  0.4411
  883MOL0     O19094   1.749   3.106  12.039 -0.6350 -0.1537  0.4280
  883MOL0     C19095   1.662   3.178  12.123  0.5016  0.5601  0.2056
  883MOL0     C19096   1.562   3.254  12.075  0.1139 -0.3489 -0.0461
  883MOL0     C19097   1.471   3.328  12.149 -0.1001  0.3855 -0.1223
  883MOL0     C19098   1.491   3.325  12.284  0.1620  0.6423 -0.8090
  883MOL0     C19099   1.397   3.399  12.372 -0.6813 -0.4410  0.4144
  883MOL0     O19100   1.384   3.363  12.509  0.6043  0.0176  0.0309
  883MOL0     C19101   1.336   3.457  12.595  0.4422  0.3382  0.0203
  883MOL0     C19102   1.275   3.403  12.709  0.1316  0.2552 -0.7827
  883MOL0     C19103   1.194   3.477  12.802  0.1316 -0.1220 -0.3308
  883MOL0     C19104   1.169   3.611  12.772  0.4358 -0.0881 -0.7280
  883MOL0     O19105   1.086   3.663  12.871 -0.2688 -0.1557 -0.5866
  883MOL0     C19106   1.034   3.798  12.864  0.1186  0.7809  0.2191
  883MOL0     C19107   0.905   3.795  12.942  0.6354 -0.1152 -0.0964
  883MOL0     C19108   0.819   3.914  12.915  0.6247  0.7570 -0.1100
  883MOL0     C19109   0.695   3.887  12.818 -0.5825  0.1415  0.0700
  883MOL0     C19110   0.621   4.014  12.781  1.2219  0.0968 -1.4435
  883MOL0     C19111   0.479   4.026  12.846  0.0364 -0.1158  0.4451
  883MOL0     C19112   0.398   4.163  12.822 -0.1376 -0.6148 -0.3344
  883MOL0     C19113   0.450   4.294  12.872  0.3128 -0.4169 -0.4504
  883MOL0    Cl19114   0.336   4.435  12.853  0.1573  0.3611 -0.4113
  883MOL0     C19115   1.237   3.678  12.666  0.1390  0.3746 -0.5152
  883MOL0     C19116   1.321   3.601  12.578 -0.1162  0.3091 -0.5059
  883MOL0     O19117   1.333   3.492  12.309  0.1284 -0.5180 -0.1178
  883MOL0     C19118   1.592   3.254  12.342  0.0320 -0.9025  1.0488
  883MOL0     C19119   1.676   3.178  12.258 -0.3364 -1.1612 -0.3855
  883MOL0     N19120   1.422   2.817  11.670  0.1586 -0.0742 -0.0196
  883MOL0     N19121   1.330   2.852  11.583  1.2675  0.2702 -0.3217
  883MOL0     C19122   0.918   2.338  10.988  0.3416 -0.6247  0.0363
  883MOL0     C19123   1.002   2.409  10.901 -0.5424  0.6972  0.1555
  883MOL0     C19124   1.177   2.511  10.536  0.8653  0.9728  0.2348
  883MOL0     C19125   1.284   2.515  10.620  0.8616  0.0352  0.3985
  883MOL0     C19126   1.413   2.524  10.568 -0.2489 -0.0047 -0.0724
  883MOL0     C19127   1.431   2.548  10.431 -0.4453  0.3663 -0.1246
  883MOL0     O19128   1.562   2.565  10.383 -0.0148  0.4597  0.6523
  883MOL0     C19129   1.652   2.638  10.468 -0.3469  0.1947 -0.2711
  883MOL0     C19130   1.619   2.786  10.459  0.9494 -0.0144 -0.6762
  883MOL0     C19131   1.618   2.854  10.322  0.8635 -1.0452  0.2870
  883MOL0     C19132   1.739   2.813  10.238 -1.4346 -0.2247 -0.8712
  883MOL0     C19133   1.744   2.891  10.112  0.7406 -0.6896  0.7117
  883MOL0     C19134   1.728   2.935  10.000  0.5023  0.0270 -0.3536
  883MOL0     C19135   1.331   2.550  10.338  0.9751  0.4466 -0.9524
  883MOL0     C19136   1.200   2.516  10.394  0.4608 -0.5183 -0.3679
  883MOL0     C19137   1.094   2.493  10.283  0.6152  0.0698 -0.1525
  883MOL0     H19138   0.763   2.530  10.701 -1.0306 -0.6847 -0.1705
  883MOL0     H19139   0.609   2.411  10.856 -0.1489 -0.8161  0.5683
  883MOL0     H19140   0.525   2.337  11.037  2.7300  0.7351 -1.4223
  883MOL0     H19141   0.548   2.252  11.187  0.2529  0.8593  1.8017
  883MOL0     H19142   0.534   2.492  11.234  0.8423  0.5202  1.7273
  883MOL0     H19143   0.637   2.542  11.116  1.2229  0.7848  0.5220
  883MOL0     H19144   0.805   2.374  11.276 -0.3880 -0.3616  0.1561
  883MOL0     H19145   0.670   2.442  11.375 -2.0369  3.3544 -0.4079
  883MOL0     H19146   0.849   2.592  11.215 -2.7655 -1.5373 -0.1712
  883MOL0     H19147   0.723   2.669  11.318  2.5406  2.4273  0.8920
  883MOL0     H19148   0.837   2.563  11.519 -1.9478  2.1941  0.0163
  883MOL0     H19149   0.974   2.516  11.406  0.0733 -0.3865  2.2536
  883MOL0     H19150   0.968   2.765  11.335 -1.3035  2.0515 -0.8656
  883MOL0     H19151   0.850   2.788  11.459 -2.4779 -3.6038  1.3533
  883MOL0     H19152   1.136   2.665  11.520  3.7794  5.3147 -0.3293
  883MOL0     H19153   1.009   2.679  11.642  0.1972 -1.6456 -0.5453
  883MOL0     H19154   1.084   2.944  11.512 -1.3820  3.2279  1.8240
  883MOL0     H19155   1.014   2.913  11.676  1.9836  3.3598  0.5642
  883MOL0     H19156   1.158   2.822  11.865 -0.3312 -1.9639 -0.9855
  883MOL0     H19157   1.378   2.849  12.006 -2.9339  0.4820 -3.1294
  883MOL0     H19158   1.468   2.707  11.952 -0.1052  0.3797  0.3290
  883MOL0     H19159   1.650   2.839  11.856  1.7499  2.2691  0.3155
  883MOL0     H19160   1.552   2.985  11.896  1.0375 -0.1164 -2.7150
  883MOL0     H19161   1.673   2.776  12.093  3.6738  0.8370  2.1344
  883MOL0     H19162   1.579   2.919  12.141  0.6459 -0.5625  0.1797
  883MOL0     H19163   1.859   2.927  12.021  3.2633  1.2078  3.8295
  883MOL0     H19164   1.807   2.963  12.181 -2.0493  0.0820  1.1294
  883MOL0     H19165   1.554   3.251  11.967  0.3028 -0.9200 -0.0484
  883MOL0     H19166   1.393   3.397  12.117  1.6103  2.2317 -0.4707
  883MOL0     H19167   1.295   3.302  12.744  2.4013  1.6640  2.5085
  883MOL0     H19168   1.159   3.440  12.898  2.5352  0.8207  0.9920
  883MOL0     H19169   1.101   3.875  12.903 -0.7156  2.3676 -1.3270
  883MOL0     H19170   1.018   3.823  12.759  0.6798 -0.9195 -0.3192
  883MOL0     H19171   0.857   3.702  12.910 -1.1735  1.2583 -1.5928
  883MOL0     H19172   0.934   3.787  13.048  1.3232  1.2863 -0.1547
  883MOL0     H19173   0.794   3.956  13.012  2.4271 -1.2483  1.3449
  883MOL0     H19174   0.880   3.995  12.874 -0.7604  1.5343 -0.6988
  883MOL0     H19175   0.625   3.819  12.867  0.7356 -1.0141  0.4372
  883MOL0     H19176   0.740   3.842  12.729  2.7497  1.8313  0.7332
  883MOL0     H19177   0.602   3.995  12.674  3.6837  1.7747 -2.2654
  883MOL0     H19178   0.681   4.104  12.796  2.1004 -0.9069  2.0613
  883MOL0     H19179   0.424   3.939  12.812  2.6284 -2.2116  1.2391
  883MOL0     H19180   0.488   4.018  12.955 -0.6227 -1.8850  0.3899
  883MOL0     H19181   0.298   4.149  12.864  0.7941 -0.9126  1.9198
  883MOL0     H19182   0.388   4.171  12.713  1.7577 -1.2788 -0.5875
  883MOL0     H19183   0.478   4.280  12.977 -0.3686 -3.0669 -0.5634
  883MOL0     H19184   0.544   4.322  12.823  1.2601  2.5650  2.6004
  883MOL0     H19185   1.232   3.785  12.644  2.7780  0.8634  0.8808
  883MOL0     H19186   1.363   3.649  12.490  0.5015 -1.9077 -1.4868
  883MOL0     H19187   1.604   3.246  12.449 -0.5431  1.7404  1.3829
  883MOL0     H19188   1.758   3.127  12.307  0.7547 -1.9821 -2.8896
  883MOL0     H19189   0.960   2.280  11.069  0.9848 -2.4183 -1.5078
  883MOL0     H19190   1.107   2.392  10.925 -0.8856 -0.1439  1.1089
  883MOL0     H19191   1.262   2.501  10.726 -1.8018  0.7192 -0.0001
  883MOL0     H19192   1.490   2.521  10.645  0.3359  1.4768 -0.5553
  883MOL0     H19193   1.751   2.603  10.435 -0.0873 -1.5402  2.0932
  883MOL0     H19194   1.651   2.607  10.573 -3.2343 -2.0006 -0.8240
  883MOL0     H19195   1.700   2.838  10.510 -0.9001  3.4765 -0.9884
  883MOL0     H19196   1.528   2.804  10.517  1.9093 -1.5757  1.4565
  883MOL0     H19197   1.610   2.962  10.338 -0.9986 -1.3757  2.0916
  883MOL0     H19198   1.527   2.823  10.269  0.6722 -3.7800  1.9675
  883MOL0     H19199   1.835   2.830  10.286 -1.6404 -1.5691  0.0628
  883MOL0     H19200   1.730   2.706  10.215 -1.3021 -1.0745  2.4910
  883MOL0     H19201   1.726   2.975   9.901 -0.0201 -1.5611 -1.0177
  883MOL0     H19202   1.354   2.575  10.235 -0.2578 -1.2727 -1.6887
  883MOL0     H19203   1.029   2.580  10.296  0.6219  0.3062 -1.5478
  883MOL0     H19204   1.135   2.492  10.181  1.1654 -1.7678  0.0402
  883MOL0     H19205   1.038   2.399  10.285 -1.6464  1.3579  0.7209
  884MOL0     O19206   3.505   2.953   6.203  0.0563 -1.2435 -0.2711
  884MOL0     C19207   3.449   3.023   6.293 -0.3217  0.4760 -0.9822
  884MOL0     O19208   3.327   3.073   6.300  0.3279 -0.3724  0.4048
  884MOL0     C19209   3.248   3.069   6.187 -0.3304 -0.6148  0.2426
  884MOL0     C19210   3.118   3.024   6.207  0.7217  0.1704 -0.1419
  884MOL0     C19211   3.031   2.997   6.102  0.7632  0.1192  0.3289
  884MOL0     C19212   3.078   3.002   5.970 -1.0007 -0.0002  0.4991
  884MOL0     O19213   2.985   2.982   5.872  0.6579  0.4351  0.3110
  884MOL0     C19214   3.022   3.005   5.736 -0.7432  0.2437 -1.0981
  884MOL0     C19215   2.896   3.015   5.646  0.3153 -0.3008  0.4421
  884MOL0     C19216   2.922   3.077   5.505 -0.2792 -0.2455 -0.1351
  884MOL0     C19217   2.811   3.165   5.465  0.1152 -0.2283 -0.4015
  884MOL0     C19218   2.838   3.213   5.318 -1.0982  0.0124 -0.0752
  884MOL0     C19219   2.707   3.236   5.245  0.6253  0.5054 -0.5070
  884MOL0     C19220   2.722   3.320   5.115  0.0317 -0.4999 -0.2373
  884MOL0     C19221   2.590   3.369   5.067  1.0838  0.5089  0.8249
  884MOL0     N19222   2.584   3.430   4.927  0.2400  0.5253 -0.7397
  884MOL0     C19223   2.619   3.553   4.888 -1.1606 -0.4767 -0.1544
  884MOL0     C19224   2.632   3.537   4.757 -1.2012 -0.1901  0.1093
  884MOL0     C19225   2.671   3.658   4.666  0.7115  0.0462 -1.4561
  884MOL0     C19226   2.649   3.636   4.520  0.0077 -0.7399  0.8450
  884MOL0     C19227   2.507   3.614   4.477  0.7775 -0.1681  0.3441
  884MOL0     C19228   2.508   3.578   4.332  0.4492 -0.5099  0.0321
  884MOL0     O19229   2.373   3.591   4.270 -0.0460 -0.7275 -0.2501
  884MOL0     C19230   2.344   3.711   4.214  1.0707  0.6630  0.3761
  884MOL0     C19231   2.431   3.821   4.202  0.5609 -0.5860 -1.2044
  884MOL0     C19232   2.394   3.931   4.130  0.6889  0.0492 -0.4713
  884MOL0     C19233   2.269   3.937   4.053 -0.4675 -0.3472  0.1016
  884MOL0     C19234   2.225   4.055   3.976 -0.8792  1.8126 -0.7125
  884MOL0     O19235   2.279   4.179   4.011  0.2254  0.3509  0.7960
  884MOL0     C19236   2.259   4.284   3.917 -0.2477  0.3390 -0.6314
  884MOL0     C19237   2.143   4.317   3.845  0.7813 -0.2817 -0.4522
  884MOL0     C19238   2.144   4.421   3.750 -0.0546  0.4410  0.1826
  884MOL0     C19239   2.259   4.510   3.736 -0.0322 -0.0395 -1.1117
  884MOL0     O19240   2.283   4.620   3.654  0.2275  0.6261 -0.0304
  884MOL0     C19241   2.180   4.673   3.575 -0.2261  0.5520  0.2530
  884MOL0     C19242   2.188   4.619   3.432 -0.4287  0.7523  0.2872
  884MOL0     C19243   2.077   4.656   3.337  0.7087  1.1150  0.3545
  884MOL0     C19244   2.117   4.658   3.190 -0.3479 -0.2634 -0.0091
  884MOL0     C19245   2.005   4.679   3.098  0.2605  0.5737 -0.0561
  884MOL0     C19246   1.919   4.801   3.129  0.1233  0.1410  0.0667
  884MOL0     C19247   1.829   4.847   3.013  0.5571 -0.0761  0.5105
  884MOL0     C19248   1.692   4.785   2.996 -0.8425  0.9940  0.3697
  884MOL0    Cl19249   1.613   4.838   2.853  0.3167 -0.1943  0.1937
  884MOL0     C19250   2.375   4.479   3.810 -0.6010 -0.2362  0.6071
  884MOL0     C19251   2.365   4.376   3.905  0.1486  0.0584  0.1230
  884MOL0     O19252   2.147   4.027   3.891  0.4319 -0.4702 -0.1111
  884MOL0     C19253   2.181   3.826   4.071 -0.5858  0.2012  0.7348
  884MOL0     C19254   2.217   3.722   4.153  0.3657 -0.9087 -0.6545
  884MOL0     N19255   2.581   3.415   4.711  0.7488 -0.6608 -0.8986
  884MOL0     N19256   2.555   3.351   4.821 -0.6829 -0.1542  0.1044
  884MOL0     C19257   3.207   3.083   5.942 -0.0901  0.7258  0.1407
  884MOL0     C19258   3.284   3.104   6.051  0.1446 -0.2067  0.1674
  884MOL0     C19259   3.533   3.051   6.420  1.5085 -0.0067 -0.7168
  884MOL0     C19260   3.632   2.958   6.441 -0.7822  1.6836 -0.5274
  884MOL0     C19261   3.689   2.952   6.563 -0.2897 -0.1894  0.4504
  884MOL0     C19262   3.679   3.053   6.657 -0.1236 -0.3855  0.4817
  884MOL0     O19263   3.759   3.035   6.770 -0.6079 -0.2269  0.4376
  884MOL0     C19264   3.709   3.082   6.899  0.0944 -0.3984 -0.3257
  884MOL0     C19265   3.825   3.028   6.989  0.5339 -1.2116 -0.1030
  884MOL0     C19266   3.796   3.075   7.140 -0.0960 -0.7885 -0.2335
  884MOL0     C19267   3.835   3.213   7.189 -0.1248  0.1096  1.0265
  884MOL0     C19268   3.977   3.243   7.151  0.2364  0.4028 -0.1612
  884MOL0     C19269   4.092   3.262   7.117 -0.1842  0.9961 -0.1616
  884MOL0     C19270   3.603   3.165   6.625  0.1578  0.6201 -0.6387
  884MOL0     C19271   3.525   3.166   6.510 -0.6808 -0.2918  0.3745
  884MOL0     C19272   3.444   3.296   6.481 -0.1572  0.4178 -0.4218
  884MOL0     H19273   3.095   3.011   6.312  1.8738  0.6054  0.1730
  884MOL0     H19274   2.932   2.954   6.105 -0.0298  1.7667 -0.7971
  884MOL0     H19275   3.093   3.088   5.726  2.3282 -1.7610  1.7694
  884MOL0     H19276   3.080   2.923   5.694  2.1757  2.9861 -2.8520
  884MOL0     H19277   2.812   3.068   5.692  0.3721  0.0584  0.1386
  884MOL0     H19278   2.864   2.912   5.631  0.2296 -0.0508 -1.2960
  884MOL0     H19279   2.943   2.993   5.439 -1.0452 -0.1339 -0.5373
  884MOL0     H19280   3.017   3.131   5.501 -2.4129  3.8583 -1.7457
  884MOL0     H19281   2.719   3.107   5.472 -0.9840  1.0507 -2.8460
  884MOL0     H19282   2.814   3.258   5.523  5.2189 -0.8109  0.7404
  884MOL0     H19283   2.909   3.296   5.316  0.0537 -0.9479 -2.0359
  884MOL0     H19284   2.877   3.124   5.268 -2.8651 -1.5962  1.2163
  884MOL0     H19285   2.663   3.139   5.223  2.2256  0.1094 -2.2339
  884MOL0     H19286   2.647   3.291   5.318 -0.1753  2.3180 -2.4278
  884MOL0     H19287   2.769   3.254   5.041 -3.5284 -1.2139 -2.0381
  884MOL0     H19288   2.788   3.402   5.145  0.1250 -0.6417 -0.0476
  884MOL0     H19289   2.542   3.271   5.060  2.8907 -0.3022 -1.2269
  884MOL0     H19290   2.536   3.428   5.141  0.4181 -3.4307  3.8073
  884MOL0     H19291   2.622   3.642   4.951 -2.5086  0.9216 -1.9729
  884MOL0     H19292   2.607   3.743   4.691  0.9336  1.0211 -3.9325
  884MOL0     H19293   2.776   3.675   4.691  1.0963 -2.5160 -1.0295
  884MOL0     H19294   2.692   3.720   4.466 -0.5887  0.5563  2.2935
  884MOL0     H19295   2.709   3.546   4.502 -1.6021 -2.2155  2.4461
  884MOL0     H19296   2.433   3.690   4.504 -1.5120 -2.0859 -0.2193
  884MOL0     H19297   2.457   3.526   4.518 -2.7732  0.3703 -2.3683
  884MOL0     H19298   2.535   3.472   4.327  3.3473  0.1191  0.6883
  884MOL0     H19299   2.581   3.623   4.265  2.3677 -1.6780  1.2406
  884MOL0     H19300   2.534   3.830   4.236 -0.4444  1.0615  1.7416
  884MOL0     H19301   2.467   4.009   4.114 -0.2921  0.9480 -0.7337
  884MOL0     H19302   2.059   4.255   3.874  0.0371  2.4685  4.4859
  884MOL0     H19303   2.068   4.443   3.676 -2.8966 -3.1526  1.7195
  884MOL0     H19304   2.080   4.651   3.615 -1.3284  2.0326 -1.4932
  884MOL0     H19305   2.193   4.782   3.573 -3.7581  1.1560  1.3497
  884MOL0     H19306   2.288   4.648   3.398 -0.1709  3.0142  2.6407
  884MOL0     H19307   2.170   4.511   3.436 -3.8393  1.1916 -0.1520
  884MOL0     H19308   2.004   4.576   3.351  1.6888 -0.1122 -1.2429
  884MOL0     H19309   2.040   4.749   3.380 -0.6956 -0.3950  2.6685
  884MOL0     H19310   2.176   4.571   3.158 -1.3493 -1.6158  1.6113
  884MOL0     H19311   2.188   4.741   3.184 -0.1811 -0.4182 -0.1846
  884MOL0     H19312   1.941   4.592   3.082  1.0391  0.3280 -2.1103
  884MOL0     H19313   2.049   4.699   3.000  0.4323  0.4024 -0.0149
  884MOL0     H19314   1.869   4.799   3.226  0.3876  0.5450  0.2174
  884MOL0     H19315   1.982   4.890   3.140 -0.4242  0.5038  0.3168
  884MOL0     H19316   1.882   4.816   2.923  0.9583 -0.8823  1.0221
  884MOL0     H19317   1.811   4.955   3.000 -0.4667 -0.5772 -4.6567
  884MOL0     H19318   1.696   4.675   2.997 -1.1734  0.9139  3.4442
  884MOL0     H19319   1.636   4.814   3.085 -2.6800 -1.3303  0.0666
  884MOL0     H19320   2.459   4.547   3.806  1.4506 -2.5654  1.5110
  884MOL0     H19321   2.446   4.373   3.978 -1.2328  1.6968  1.8191
  884MOL0     H19322   2.111   3.815   3.988  0.2142  0.3120  0.0297
  884MOL0     H19323   2.170   3.624   4.159  2.3252 -1.9052 -0.6489
  884MOL0     H19324   3.239   3.131   5.850  1.1229 -0.4969 -0.0951
  884MOL0     H19325   3.377   3.157   6.034 -0.4756  0.0037 -3.1161
  884MOL0     H19326   3.655   2.879   6.371  1.7037  0.8839  1.0320
  884MOL0     H19327   3.748   2.863   6.584 -0.1490 -0.2521 -0.1787
  884MOL0     H19328   3.610   3.044   6.925 -0.8230  1.3966 -0.9630
  884MOL0     H19329   3.703   3.192   6.903 -0.5561 -0.3836 -1.3050
  884MOL0     H19330   3.918   3.068   6.949  0.9261 -1.6731  0.3377
  884MOL0     H19331   3.818   2.919   6.979  0.3789 -1.0180 -3.3678
  884MOL0     H19332   3.843   2.995   7.198  1.7600 -1.7406 -2.8555
  884MOL0     H19333   3.688   3.077   7.156 -0.2453  4.8252 -0.0087
  884MOL0     H19334   3.773   3.293   7.149 -0.5526  0.3799  2.2022
  884MOL0     H19335   3.810   3.213   7.295 -1.3617 -0.5821  0.7563
  884MOL0     H19336   4.189   3.263   7.072 -1.4071 -0.7824 -3.1114
  884MOL0     H19337   3.607   3.247   6.696  0.2916  1.3007 -1.4017
  884MOL0     H19338   3.406   3.328   6.383 -1.3152 -0.9517 -0.4513
  884MOL0     H19339   3.359   3.310   6.548  2.5061  0.4846  3.2666
  884MOL0     H19340   3.523   3.362   6.518  2.5970 -1.8243 -1.8649
  885MOL0     O19341   3.870   9.557   6.329  0.7452  0.2525  1.0414
  885MOL0     C19342   3.907   9.442   6.300  0.2591 -0.6286  0.2658
  885MOL0     O19343   3.884   9.334   6.388  0.2252  0.2597  0.1361
  885MOL0     C19344   3.782   9.349   6.480  0.3958 -0.3242  0.1085
  885MOL0     C19345   3.791   9.289   6.601  0.1503 -0.7019 -1.2206
  885MOL0     C19346   3.694   9.300   6.706 -0.5866 -0.4655  0.3098
  885MOL0     C19347   3.574   9.360   6.674  0.9856  0.0240 -0.6284
  885MOL0     O19348   3.494   9.379   6.783  0.3760  0.3049 -0.3802
  885MOL0     C19349   3.360   9.426   6.763 -0.1397 -0.2244  0.1836
  885MOL0     C19350   3.300   9.484   6.884  1.0731 -0.3867 -0.2272
  885MOL0     C19351   3.313   9.388   7.009 -0.2107  0.1523  0.2723
  885MOL0     C19352   3.298   9.443   7.149  0.1513  0.2482 -0.0453
  885MOL0     C19353   3.286   9.343   7.263 -0.0492 -0.4982  0.0070
  885MOL0     C19354   3.386   9.229   7.252  1.5255  0.3697 -0.0855
  885MOL0     C19355   3.388   9.145   7.377  0.2306  0.1672 -0.3868
  885MOL0     C19356   3.272   9.045   7.391 -0.4709 -0.4560  0.3490
  885MOL0     N19357   3.268   8.967   7.511 -0.4644 -0.0800 -0.1726
  885MOL0     C19358   3.203   9.019   7.621  0.1905 -0.8984 -0.0814
  885MOL0     C19359   3.241   8.941   7.724  0.9381 -0.1196 -0.0376
  885MOL0     C19360   3.183   8.917   7.859  0.3290 -0.2618  0.2174
  885MOL0     C19361   3.116   8.777   7.849  0.0899 -0.4590 -1.0400
  885MOL0     C19362   3.084   8.722   7.988  0.8734 -0.1795 -0.0814
  885MOL0     C19363   2.990   8.606   7.998 -0.3189  0.0357 -0.7777
  885MOL0     O19364   2.843   8.630   7.985 -0.2579  0.7461  0.2003
  885MOL0     C19365   2.760   8.638   8.090  0.5188 -1.2779  0.4949
  885MOL0     C19366   2.625   8.618   8.069  0.3004  0.8857 -0.0548
  885MOL0     C19367   2.540   8.650   8.176  0.7690 -0.0655  0.5214
  885MOL0     C19368   2.588   8.663   8.304 -0.1868 -1.2484  0.7127
  885MOL0     C19369   2.501   8.650   8.423 -0.2893  0.3227  0.0870
  885MOL0     O19370   2.551   8.677   8.542  0.1904 -0.8758  0.0456
  885MOL0     C19371   2.484   8.636   8.655  0.4722  1.1472 -0.4681
  885MOL0     C19372   2.346   8.615   8.675  0.0244 -0.9183 -0.6372
  885MOL0     C19373   2.312   8.582   8.802  0.1614 -0.1389  0.2308
  885MOL0     C19374   2.401   8.582   8.913 -0.5830  0.7409  1.4681
  885MOL0     O19375   2.348   8.538   9.031  0.3884 -0.6052  1.4667
  885MOL0     C19376   2.285   8.407   9.034 -0.4283 -0.8178  0.4441
  885MOL0     C19377   2.154   8.415   9.121  0.4304  0.5973  0.0127
  885MOL0     C19378   2.121   8.278   9.164  0.7923  0.0027 -0.4474
  885MOL0     C19379   1.970   8.258   9.196 -0.7601  0.0989 -0.6072
  885MOL0     C19380   1.956   8.109   9.241  0.4687  0.0935 -0.0336
  885MOL0     C19381   1.802   8.083   9.261 -0.4455 -0.1951 -0.0998
  885MOL0     C19382   1.780   8.124   9.406  0.6968 -0.3648 -0.6500
  885MOL0     C19383   1.716   8.015   9.500  1.1378 -0.6533 -0.2844
  885MOL0    Cl19384   1.732   8.054   9.677 -0.4799 -0.8399  0.3853
  885MOL0     C19385   2.535   8.603   8.898 -0.8337 -0.4524  0.3839
  885MOL0     C19386   2.571   8.638   8.763  0.7325 -0.5395  1.0976
  885MOL0     O19387   2.403   8.578   8.399 -0.5152 -0.2215 -0.0283
  885MOL0     C19388   2.724   8.683   8.327 -0.2519  0.7270  0.3631
  885MOL0     C19389   2.812   8.672   8.222 -0.1982  1.0656 -0.0755
  885MOL0     N19390   3.350   8.869   7.683 -0.1157 -0.0420  0.5961
  885MOL0     N19391   3.365   8.881   7.553  0.0226  0.3887  0.3878
  885MOL0     C19392   3.559   9.421   6.549  0.1522  0.6026  0.3702
  885MOL0     C19393   3.667   9.423   6.453  0.4270 -0.3854 -1.2460
  885MOL0     C19394   4.002   9.428   6.185  0.2408 -0.2607 -0.3198
  885MOL0     C19395   4.130   9.375   6.213 -0.5676  1.2162 -0.0879
  885MOL0     C19396   4.232   9.393   6.123 -0.1584  0.2679 -1.1182
  885MOL0     C19397   4.205   9.442   5.997 -0.4680  0.0735  1.0318
  885MOL0     O19398   4.320   9.443   5.910  0.7364 -1.4384 -0.5720
  885MOL0     C19399   4.353   9.557   5.821 -0.6030 -0.3228  0.9108
  885MOL0     C19400   4.356   9.684   5.912  0.7077  0.3499 -0.9638
  885MOL0     C19401   4.426   9.800   5.855 -0.0570  0.0102 -0.2725
  885MOL0     C19402   4.346   9.856   5.739  0.1148  0.8054 -0.1091
  885MOL0     C19403   4.395   9.830   5.608  0.4546  0.4447  1.1040
  885MOL0     C19404   4.419   9.804   5.498  0.6045  0.5062  0.4431
  885MOL0     C19405   4.079   9.489   5.962 -0.3986 -0.8786 -0.0408
  885MOL0     C19406   3.972   9.489   6.058 -0.3164 -0.2519 -1.0021
  885MOL0     C19407   3.822   9.512   6.031 -0.2909 -0.3826  0.1333
  885MOL0     H19408   3.894   9.259   6.621  0.5101  0.7942 -0.6452
  885MOL0     H19409   3.711   9.259   6.805  0.1005 -2.4791 -0.5654
  885MOL0     H19410   3.366   9.497   6.680 -1.4797  1.3377  1.3570
  885MOL0     H19411   3.296   9.342   6.734 -0.4476  0.8284 -2.4873
  885MOL0     H19412   3.196   9.511   6.866  0.4772 -4.6815 -5.6766
  885MOL0     H19413   3.359   9.573   6.911 -0.0731  0.1892  0.4760
  885MOL0     H19414   3.415   9.350   7.003 -0.6486 -0.9392 -0.8573
  885MOL0     H19415   3.249   9.302   6.990 -0.0789  0.4149 -1.6296
  885MOL0     H19416   3.390   9.497   7.171  1.8873 -3.1834  2.1945
  885MOL0     H19417   3.209   9.507   7.149 -0.2082 -0.2350 -0.4753
  885MOL0     H19418   3.315   9.401   7.351 -0.8551 -1.3571  0.8597
  885MOL0     H19419   3.189   9.295   7.275 -0.5447  0.0615 -1.5251
  885MOL0     H19420   3.369   9.166   7.165 -0.2591  0.3978  0.2053
  885MOL0     H19421   3.483   9.272   7.228  0.9927  3.4617  2.5757
  885MOL0     H19422   3.384   9.213   7.462 -2.3343 -0.8807  0.4311
  885MOL0     H19423   3.485   9.097   7.387 -1.0826 -2.8941 -1.0948
  885MOL0     H19424   3.175   9.089   7.366  1.0080  1.7482 -1.9186
  885MOL0     H19425   3.280   8.971   7.311  0.0539  0.7765 -0.7823
  885MOL0     H19426   3.131   9.100   7.622  1.8019  0.7724  4.2798
  885MOL0     H19427   3.270   8.899   7.923  1.1547 -2.5517 -1.4452
  885MOL0     H19428   3.118   8.996   7.898 -2.2978 -1.8298 -0.7226
  885MOL0     H19429   3.022   8.790   7.793  0.8946 -0.2257 -2.3838
  885MOL0     H19430   3.168   8.701   7.790  2.7254 -0.1672  0.7604
  885MOL0     H19431   3.039   8.798   8.053 -2.1819 -3.7307  2.3368
  885MOL0     H19432   3.171   8.684   8.043 -0.7306 -2.9292  0.7459
  885MOL0     H19433   3.011   8.566   8.097  1.2689  2.3459 -0.1017
  885MOL0     H19434   3.015   8.522   7.932  2.1424 -2.3658  2.8434
  885MOL0     H19435   2.578   8.599   7.973  2.3457  0.9119 -1.1174
  885MOL0     H19436   2.436   8.647   8.142  0.7284  3.9081 -0.2375
  885MOL0     H19437   2.261   8.628   8.609  0.6429 -0.2366 -1.3137
  885MOL0     H19438   2.206   8.583   8.826 -0.5532 -0.2184 -2.6288
  885MOL0     H19439   2.271   8.371   8.932  3.3804  2.0371 -1.3525
  885MOL0     H19440   2.356   8.333   9.073  3.0783  1.8228 -0.4281
  885MOL0     H19441   2.172   8.482   9.205  3.4904 -0.4954  0.3584
  885MOL0     H19442   2.065   8.451   9.067  0.4544 -1.1060 -1.2540
  885MOL0     H19443   2.134   8.206   9.083  1.0295 -0.0338 -0.3790
  885MOL0     H19444   2.187   8.250   9.247  2.2434 -1.2530 -1.9481
  885MOL0     H19445   1.914   8.268   9.102 -3.9734 -1.5378  0.9270
  885MOL0     H19446   1.928   8.328   9.268 -3.1021  0.2454 -1.9828
  885MOL0     H19447   2.016   8.085   9.330  2.4724  0.6547 -1.1757
  885MOL0     H19448   1.990   8.052   9.154 -1.3201  2.8129 -2.7132
  885MOL0     H19449   1.741   8.149   9.199 -0.7157  0.1921  0.5772
  885MOL0     H19450   1.789   7.976   9.240 -0.8700 -0.2081  0.2170
  885MOL0     H19451   1.704   8.203   9.406  0.2030 -0.7689  1.3969
  885MOL0     H19452   1.870   8.173   9.447 -0.7791  1.0165  1.1330
  885MOL0     H19453   1.613   7.990   9.473 -0.7516  2.5921  3.0171
  885MOL0     H19454   1.775   7.923   9.488 -1.4873 -2.3367 -1.4316
  885MOL0     H19455   2.600   8.599   8.984  0.6297  2.3409 -0.4561
  885MOL0     H19456   2.674   8.665   8.744 -0.2180  2.3582 -0.5206
  885MOL0     H19457   2.746   8.706   8.430 -0.3454  0.1682  0.5088
  885MOL0     H19458   2.919   8.688   8.230  0.2750 -1.9409  1.1338
  885MOL0     H19459   3.478   9.484   6.513  0.2214 -0.4823 -1.8323
  885MOL0     H19460   3.641   9.472   6.359  1.6483  2.1672 -0.3324
  885MOL0     H19461   4.155   9.319   6.302  0.0632  1.1955 -0.2752
  885MOL0     H19462   4.334   9.370   6.154 -0.9836  0.9701  2.5082
  885MOL0     H19463   4.278   9.580   5.744  2.3898 -0.5565 -2.3412
  885MOL0     H19464   4.451   9.545   5.775 -2.0356 -1.9152 -2.0351
  885MOL0     H19465   4.389   9.667   6.015  1.5061 -4.2115 -1.7605
  885MOL0     H19466   4.252   9.715   5.925  0.4654  0.2538 -2.4717
  885MOL0     H19467   4.527   9.764   5.832 -0.1765  0.6580 -1.9669
  885MOL0     H19468   4.445   9.879   5.929  1.4593 -0.0966 -0.5075
  885MOL0     H19469   4.241   9.827   5.746  0.1148  1.1369  2.2341
  885MOL0     H19470   4.355   9.965   5.738  1.5563  0.7269  0.8937
  885MOL0     H19471   4.426   9.794   5.391  0.9938  0.2388  0.4928
  885MOL0     H19472   4.056   9.519   5.860 -0.3346 -3.1376 -0.7690
  885MOL0     H19473   3.758   9.506   6.120  2.7374 -5.5989  2.4490
  885MOL0     H19474   3.831   9.620   6.016  3.0685 -0.9310 -3.2621
  885MOL0     H19475   3.781   9.456   5.947  0.7149 -0.9601  0.0113
  886MOL0     O19476   7.090   7.279   9.042 -0.8356 -0.2222 -0.6869
  886MOL0     C19477   6.990   7.358   9.038 -0.3561 -0.2446  1.1427
  886MOL0     O19478   6.867   7.332   9.072  0.3071 -0.7874  0.6269
  886MOL0     C19479   6.842   7.199   9.095 -0.0231  0.2827  0.3620
  886MOL0     C19480   6.883   7.092   9.013  0.1769 -0.3087  0.2627
  886MOL0     C19481   6.862   6.955   9.058  0.4518 -0.6859  0.4541
  886MOL0     C19482   6.791   6.930   9.167  0.7624 -0.2265  0.5979
  886MOL0     O19483   6.793   6.796   9.201 -0.5142  0.3300  0.2431
  886MOL0     C19484   6.688   6.739   9.289  1.1145 -0.2215 -0.4507
  886MOL0     C19485   6.602   6.636   9.221 -0.4373 -0.5154 -0.4992
  886MOL0     C19486   6.682   6.514   9.162  0.5597  0.4377 -0.1182
  886MOL0     C19487   6.604   6.434   9.052 -0.0778 -0.3209  0.3117
  886MOL0     C19488   6.460   6.385   9.067 -0.0478 -0.4000  0.1166
  886MOL0     C19489   6.429   6.288   8.948  0.5141 -0.3282  0.4735
  886MOL0     C19490   6.399   6.366   8.822 -0.1195 -0.4394  0.1509
  886MOL0     C19491   6.330   6.268   8.731  0.4009  0.7764  0.1777
  886MOL0     N19492   6.302   6.325   8.600  0.0832 -0.7022  0.5423
  886MOL0     C19493   6.390   6.318   8.495  0.3750  0.2953  0.0024
  886MOL0     C19494   6.318   6.365   8.385 -0.3455  0.2714 -0.1856
  886MOL0     C19495   6.372   6.401   8.250  0.9071  0.0782 -0.2675
  886MOL0     C19496   6.366   6.283   8.152  0.1031  0.1225 -0.1896
  886MOL0     C19497   6.227   6.222   8.122  0.7633 -0.1440 -0.4083
  886MOL0     C19498   6.238   6.065   8.100  0.0374 -0.8666 -0.8976
  886MOL0     O19499   6.263   5.993   8.218 -0.8731 -0.0513 -0.9387
  886MOL0     C19500   6.282   5.853   8.219 -1.0494 -0.2237 -0.6062
  886MOL0     C19501   6.282   5.767   8.103  0.1959 -0.5375  0.6769
  886MOL0     C19502   6.320   5.631   8.118  0.4943 -1.9037  0.4210
  886MOL0     C19503   6.339   5.585   8.246 -0.3812  0.0730 -1.6985
  886MOL0     C19504   6.368   5.426   8.261  0.1144 -0.4267 -0.8663
  886MOL0     O19505   6.470   5.393   8.360  0.3913  1.0350  0.2355
  886MOL0     C19506   6.495   5.256   8.374  1.4809  0.0590  0.9466
  886MOL0     C19507   6.568   5.170   8.285 -0.2087 -0.4288 -0.1215
  886MOL0     C19508   6.594   5.035   8.320  0.6710 -0.9356  1.0298
  886MOL0     C19509   6.537   4.980   8.437  0.6411 -0.7301 -0.6086
  886MOL0     O19510   6.592   4.863   8.494  0.2563 -0.2567 -0.4011
  886MOL0     C19511   6.521   4.765   8.560 -0.6530  0.8400 -0.3503
  886MOL0     C19512   6.457   4.676   8.458 -0.0718 -0.4777  0.1182
  886MOL0     C19513   6.365   4.563   8.513 -0.1481 -0.6606 -0.1049
  886MOL0     C19514   6.462   4.461   8.580  0.4287 -0.0537  0.3986
  886MOL0     C19515   6.380   4.336   8.615  0.3616  0.0362  0.0249
  886MOL0     C19516   6.325   4.335   8.758  0.3595  0.5511 -0.2006
  886MOL0     C19517   6.442   4.334   8.864  0.6470 -0.2128 -0.2683
  886MOL0     C19518   6.546   4.229   8.836 -0.4417 -0.0285 -1.1503
  886MOL0    Cl19519   6.464   4.064   8.832  0.0669  0.1571 -0.1713
  886MOL0     C19520   6.458   5.064   8.517  0.7607 -0.0037 -0.4650
  886MOL0     C19521   6.433   5.197   8.482 -0.7245  0.6418 -0.4842
  886MOL0     O19522   6.302   5.343   8.202 -0.1207  0.5090 -0.5158
  886MOL0     C19523   6.346   5.665   8.363 -0.2689 -0.5043  0.2436
  886MOL0     C19524   6.317   5.796   8.351  0.6527 -0.4983  0.9214
  886MOL0     N19525   6.196   6.383   8.427  0.0397  0.0545  0.1941
  886MOL0     N19526   6.174   6.342   8.551 -0.3072 -0.2572  0.6198
  886MOL0     C19527   6.749   7.037   9.251 -0.1479 -0.4900  0.5339
  886MOL0     C19528   6.773   7.165   9.210  0.6566 -0.5885 -0.1573
  886MOL0     C19529   7.023   7.491   8.991 -0.4707 -0.9668 -0.6472
  886MOL0     C19530   7.119   7.506   8.884  0.2338 -0.3987 -1.2466
  886MOL0     C19531   7.140   7.633   8.833  0.1032  0.1017 -0.5854
  886MOL0     C19532   7.061   7.746   8.873 -0.4895  0.2972  1.5470
  886MOL0     O19533   7.070   7.871   8.817 -0.2266  0.4774 -0.1552
  886MOL0     C19534   7.142   7.897   8.699 -0.2428  0.7526 -0.2211
  886MOL0     C19535   7.090   8.003   8.607  0.2332 -0.2806  0.3339
  886MOL0     C19536   6.962   7.950   8.537 -0.8098  0.3674 -1.5392
  886MOL0     C19537   6.878   8.059   8.476  0.5166  0.7284 -0.5627
  886MOL0     C19538   6.951   8.122   8.376  0.0593  1.1868  0.5264
  886MOL0     C19539   7.000   8.184   8.288 -0.9119  0.5290  1.2081
  886MOL0     C19540   6.974   7.723   8.971 -0.3784 -1.2671 -0.8427
  886MOL0     C19541   6.950   7.602   9.033  0.0390 -0.6300 -0.3217
  886MOL0     C19542   6.868   7.598   9.173 -0.2113  0.3899 -0.2819
  886MOL0     H19543   6.948   7.107   8.927  1.3184  3.0602  1.5250
  886MOL0     H19544   6.903   6.874   8.998 -1.6359  1.0893 -3.8160
  886MOL0     H19545   6.712   6.685   9.380 -4.3618 -0.4174  1.2509
  886MOL0     H19546   6.628   6.818   9.334 -1.8753 -3.5726  1.9498
  886MOL0     H19547   6.528   6.672   9.149 -1.7140 -4.1343 -1.1875
  886MOL0     H19548   6.535   6.586   9.291 -0.2927 -2.8309 -1.8964
  886MOL0     H19549   6.706   6.457   9.252 -0.0887 -1.9213 -1.3356
  886MOL0     H19550   6.771   6.553   9.111  0.7480  0.8825  0.5468
  886MOL0     H19551   6.626   6.490   8.961  0.2671  0.0376  0.6123
  886MOL0     H19552   6.664   6.343   9.037 -0.8904 -0.6458 -1.1483
  886MOL0     H19553   6.462   6.341   9.167  2.9227  0.0349  0.3525
  886MOL0     H19554   6.390   6.469   9.071 -1.3901 -1.5222  2.8989
  886MOL0     H19555   6.515   6.222   8.931  3.6126  3.4795 -0.0897
  886MOL0     H19556   6.338   6.236   8.980  0.5642 -0.5362  0.2819
  886MOL0     H19557   6.465   6.443   8.782 -2.2355  0.5914 -1.5430
  886MOL0     H19558   6.321   6.436   8.855 -0.1760 -0.2691 -0.3372
  886MOL0     H19559   6.401   6.188   8.713 -0.1449  0.4691 -0.6933
  886MOL0     H19560   6.237   6.232   8.778 -0.2463  2.4713  0.2737
  886MOL0     H19561   6.497   6.303   8.498  0.1420 -1.8727  3.2992
  886MOL0     H19562   6.314   6.479   8.201 -1.0519 -1.5566 -0.7102
  886MOL0     H19563   6.473   6.438   8.269  0.8415 -0.6669  1.7599
  886MOL0     H19564   6.420   6.303   8.059  2.9268 -3.2644  0.4937
  886MOL0     H19565   6.437   6.210   8.192  1.4715  1.0311 -0.8849
  886MOL0     H19566   6.184   6.256   8.027 -1.4877 -2.0976 -0.1757
  886MOL0     H19567   6.154   6.258   8.195  3.5471 -1.0402  3.1151
  886MOL0     H19568   6.321   6.056   8.028  0.4175 -0.7932 -0.4712
  886MOL0     H19569   6.142   6.028   8.062  0.1803 -0.8864 -1.2465
  886MOL0     H19570   6.238   5.803   8.010  0.9436 -2.7876 -0.6366
  886MOL0     H19571   6.322   5.560   8.036  1.4989  1.0298 -2.3040
  886MOL0     H19572   6.608   5.211   8.193  1.0757  0.6485  0.8886
  886MOL0     H19573   6.666   4.971   8.269 -1.1169 -0.0369 -2.9225
  886MOL0     H19574   6.580   4.709   8.633 -2.8037 -0.8467  0.2027
  886MOL0     H19575   6.449   4.818   8.624  0.2131  0.7318  0.7317
  886MOL0     H19576   6.385   4.727   8.392 -0.0906 -0.9384 -0.2248
  886MOL0     H19577   6.529   4.639   8.385  1.1697  0.8967  0.5941
  886MOL0     H19578   6.288   4.596   8.584 -1.0236 -2.3133 -0.2399
  886MOL0     H19579   6.319   4.507   8.431 -2.4557 -0.4861  0.9788
  886MOL0     H19580   6.514   4.501   8.668  0.7440  0.8870 -0.1972
  886MOL0     H19581   6.538   4.427   8.510  0.4703 -0.5812  0.6962
  886MOL0     H19582   6.445   4.249   8.603  0.2278 -0.0330 -0.2164
  886MOL0     H19583   6.301   4.319   8.542  0.8802 -0.4741 -0.4342
  886MOL0     H19584   6.270   4.430   8.761  0.7687  0.8043 -0.6467
  886MOL0     H19585   6.258   4.249   8.764  0.0096  0.8215 -0.1532
  886MOL0     H19586   6.398   4.308   8.961 -1.6878  0.6584 -1.0075
  886MOL0     H19587   6.494   4.429   8.874 -1.4617  1.0302 -0.4318
  886MOL0     H19588   6.613   4.236   8.751 -1.6157 -0.0000 -2.1023
  886MOL0     H19589   6.617   4.220   8.919  0.0796 -2.4617 -1.7678
  886MOL0     H19590   6.441   5.040   8.621 -0.3171  0.1763 -0.5910
  886MOL0     H19591   6.376   5.254   8.554  0.5032  1.3035 -0.0056
  886MOL0     H19592   6.359   5.630   8.465 -0.6977  2.3219  1.3645
  886MOL0     H19593   6.310   5.865   8.434 -0.4062 -0.7738  1.0674
  886MOL0     H19594   6.701   7.019   9.347  1.0233 -1.6599  0.9336
  886MOL0     H19595   6.742   7.241   9.282  0.0476  0.2764 -1.2973
  886MOL0     H19596   7.163   7.419   8.836 -0.3893 -0.5452 -1.5602
  886MOL0     H19597   7.196   7.640   8.741 -0.2079  1.8144 -0.6703
  886MOL0     H19598   7.145   7.807   8.636 -1.1381 -1.4522  2.6919
  886MOL0     H19599   7.241   7.923   8.738  0.6388 -2.1947 -0.2408
  886MOL0     H19600   7.165   8.039   8.536  0.2012  2.5312  1.5953
  886MOL0     H19601   7.057   8.091   8.663 -0.1857  0.9924 -1.8193
  886MOL0     H19602   6.892   7.896   8.602  0.4903  0.8854  0.3772
  886MOL0     H19603   6.982   7.873   8.461 -0.6237 -1.8341  0.5982
  886MOL0     H19604   6.800   8.014   8.414 -1.0516  2.3284  0.1598
  886MOL0     H19605   6.847   8.132   8.552  0.8193  0.3621 -0.0830
  886MOL0     H19606   7.042   8.248   8.213 -2.2995  1.6445  1.3618
  886MOL0     H19607   6.914   7.810   8.995  2.5201  1.8738 -3.9219
  886MOL0     H19608   6.945   7.576   9.247 -0.4384 -0.1970 -0.2206
  886MOL0     H19609   6.836   7.701   9.193 -2.3469 -0.3535  0.3366
  886MOL0     H19610   6.779   7.536   9.181 -0.7416  1.2576  0.8374
  887MOL0     O19611   6.107   6.592   6.721 -0.4273 -0.9245 -0.2194
  887MOL0     C19612   6.070   6.602   6.611  0.3557 -0.4178 -0.1972
  887MOL0     O19613   6.106   6.696   6.520  0.4176 -0.2792  1.2976
  887MOL0     C19614   6.185   6.799   6.562 -0.7887 -0.0500 -0.4103
  887MOL0     C19615   6.321   6.794   6.589 -1.0943 -0.4004 -0.2084
  887MOL0     C19616   6.403   6.909   6.617  0.4650  0.4781 -0.4914
  887MOL0     C19617   6.342   7.033   6.630 -0.4752  0.2276  0.1634
  887MOL0     O19618   6.419   7.146   6.667 -0.5692  0.0896  0.1055
  887MOL0     C19619   6.376   7.202   6.795  0.0068  0.2049 -0.0605
  887MOL0     C19620   6.302   7.326   6.770  0.0157  0.5122 -0.4314
  887MOL0     C19621   6.263   7.393   6.909 -0.2936  0.3803  0.3157
  887MOL0     C19622   6.380   7.440   6.989  1.0114  0.2733 -0.1924
  887MOL0     C19623   6.340   7.536   7.101 -0.1355 -0.6579 -0.0711
  887MOL0     C19624   6.305   7.685   7.065 -0.4385  1.0470 -0.0620
  887MOL0     C19625   6.262   7.760   7.191  1.2113 -0.6762  1.1661
  887MOL0     C19626   6.233   7.914   7.174 -0.3940 -0.0296 -0.5443
  887MOL0     N19627   6.139   7.948   7.070  0.0265  0.5226 -0.0956
  887MOL0     C19628   6.011   7.897   7.063 -0.0482  1.0230 -0.3057
  887MOL0     C19629   5.962   7.957   6.950 -0.2917  1.2900  0.3024
  887MOL0     C19630   5.827   7.929   6.894  0.5997 -0.2177  0.2311
  887MOL0     C19631   5.814   7.842   6.780 -0.7711 -1.2174  0.1737
  887MOL0     C19632   5.872   7.694   6.807 -0.7423 -0.0532  0.2937
  887MOL0     C19633   5.783   7.574   6.748  0.3797 -0.4046  0.1277
  887MOL0     O19634   5.812   7.432   6.788 -0.0880 -0.4207  0.1527
  887MOL0     C19635   5.755   7.391   6.911 -0.4576 -1.5679 -0.1501
  887MOL0     C19636   5.714   7.475   7.021 -0.3806  0.8308  0.2590
  887MOL0     C19637   5.668   7.420   7.136 -0.6764 -0.2623 -0.9087
  887MOL0     C19638   5.659   7.278   7.147  1.2546 -0.4298 -0.4675
  887MOL0     C19639   5.593   7.229   7.262  0.2000  0.6986 -0.4984
  887MOL0     O19640   5.608   7.301   7.379 -0.4308 -0.2016 -0.9907
  887MOL0     C19641   5.563   7.250   7.496 -0.3194  0.2066  0.2509
  887MOL0     C19642   5.425   7.259   7.536  0.4969 -0.2386  0.3252
  887MOL0     C19643   5.380   7.213   7.659  0.2325 -0.0283  0.7331
  887MOL0     C19644   5.473   7.169   7.753 -0.4022 -0.1482  0.2305
  887MOL0     O19645   5.432   7.140   7.874  0.4697  0.3781  0.2530
  887MOL0     C19646   5.523   7.177   7.981 -0.4419  0.1196 -0.1563
  887MOL0     C19647   5.457   7.211   8.115  0.0241  0.0859 -0.0511
  887MOL0     C19648   5.345   7.122   8.158  0.2886 -0.1245 -0.3587
  887MOL0     C19649   5.390   6.994   8.242  0.3785  0.1581  0.5362
  887MOL0     C19650   5.269   6.944   8.329  0.5622 -0.2977 -0.0349
  887MOL0     C19651   5.267   6.796   8.384 -0.6690 -0.1403  0.4669
  887MOL0     C19652   5.389   6.770   8.475 -0.3533  0.2381 -0.0190
  887MOL0     C19653   5.387   6.635   8.534  0.9255 -0.7445  0.5978
  887MOL0    Cl19654   5.538   6.608   8.623 -0.4090  0.1270  0.1481
  887MOL0     C19655   5.603   7.143   7.705 -0.0294 -0.6576  0.0179
  887MOL0     C19656   5.642   7.174   7.576 -0.2740  0.0472 -1.0486
  887MOL0     O19657   5.545   7.115   7.255  0.3874  0.1215  0.8891
  887MOL0     C19658   5.684   7.204   7.040 -0.2960 -0.0501  1.1225
  887MOL0     C19659   5.748   7.259   6.924 -0.5918  0.7975 -0.6641
  887MOL0     N19660   6.057   8.048   6.901  0.9722 -0.4440 -0.6297
  887MOL0     N19661   6.163   8.035   6.967 -0.3805 -0.7211 -0.4220
  887MOL0     C19662   6.211   7.042   6.594  1.2955  0.8481  0.6454
  887MOL0     C19663   6.132   6.929   6.565  0.0380  0.2137 -0.0673
  887MOL0     C19664   5.973   6.505   6.568 -0.5095  0.1509 -0.5211
  887MOL0     C19665   5.957   6.488   6.431 -0.0089 -0.8764  0.1447
  887MOL0     C19666   5.852   6.405   6.390 -0.2406  0.0927 -0.2017
  887MOL0     C19667   5.765   6.340   6.472  0.0136  0.1283  0.0148
  887MOL0     O19668   5.678   6.249   6.418  0.2305 -0.1164  1.2210
  887MOL0     C19669   5.556   6.221   6.486 -0.8112  0.7674  0.4952
  887MOL0     C19670   5.467   6.111   6.423  0.3164 -0.6537  0.1616
  887MOL0     C19671   5.529   5.968   6.435 -0.5827 -0.0996 -0.4738
  887MOL0     C19672   5.438   5.864   6.375  0.2522 -0.7118 -0.8529
  887MOL0     C19673   5.395   5.887   6.242  0.3647  1.4184  0.6553
  887MOL0     C19674   5.358   5.904   6.130 -0.1537 -0.0331  0.1378
  887MOL0     C19675   5.784   6.359   6.605  0.4601 -0.6153 -0.6348
  887MOL0     C19676   5.881   6.441   6.656  0.5270 -0.0875  0.1791
  887MOL0     C19677   5.883   6.440   6.801  0.0855 -0.2181 -0.0401
  887MOL0     H19678   6.367   6.700   6.563 -0.8447  0.2654 -2.3401
  887MOL0     H19679   6.509   6.897   6.639 -0.3810 -1.3132  3.5830
  887MOL0     H19680   6.309   7.130   6.842  3.8557 -3.0071  1.1265
  887MOL0     H19681   6.458   7.217   6.866 -0.7583  0.0373  0.8782
  887MOL0     H19682   6.204   7.321   6.722 -0.0074 -1.5556 -0.2480
  887MOL0     H19683   6.371   7.396   6.722  1.9956 -0.4114  0.9121
  887MOL0     H19684   6.197   7.325   6.964  0.8043 -0.9193  0.0851
  887MOL0     H19685   6.201   7.477   6.878 -2.0746 -1.2621 -0.7750
  887MOL0     H19686   6.439   7.359   7.034 -0.9410 -2.5939 -2.3919
  887MOL0     H19687   6.444   7.500   6.925  1.4293  1.2326  1.0827
  887MOL0     H19688   6.256   7.495   7.156 -1.5001  1.4061 -0.4871
  887MOL0     H19689   6.422   7.534   7.174  0.6067  1.5945 -0.7476
  887MOL0     H19690   6.395   7.730   7.023  1.0834 -2.2502 -0.6725
  887MOL0     H19691   6.223   7.683   6.993 -1.7942 -0.1640  1.4301
  887MOL0     H19692   6.343   7.754   7.264  1.2585  1.4439  1.3329
  887MOL0     H19693   6.172   7.715   7.234 -0.4893  2.2389  0.9156
  887MOL0     H19694   6.188   7.951   7.266 -0.0012 -0.2358 -0.2650
  887MOL0     H19695   6.327   7.967   7.152  0.4458 -2.0667 -2.2727
  887MOL0     H19696   5.968   7.823   7.129  2.4725 -1.7563 -1.5506
  887MOL0     H19697   5.764   7.884   6.970  0.8933  1.3625  1.4582
  887MOL0     H19698   5.780   8.026   6.872  2.1897  0.9695  1.7694
  887MOL0     H19699   5.714   7.843   6.736 -0.5984  1.8513 -0.3535
  887MOL0     H19700   5.884   7.886   6.708  0.9594  0.2761  2.6103
  887MOL0     H19701   5.899   7.680   6.912  0.9669 -1.8798 -0.3226
  887MOL0     H19702   5.975   7.698   6.770 -0.3622  3.1366  1.4402
  887MOL0     H19703   5.791   7.581   6.639 -2.6957  1.4894 -0.0848
  887MOL0     H19704   5.678   7.597   6.769  0.4647  0.4207 -0.2918
  887MOL0     H19705   5.721   7.583   7.016  1.6808  0.8348  2.0151
  887MOL0     H19706   5.627   7.484   7.213  1.1818  2.4997 -2.0894
  887MOL0     H19707   5.354   7.293   7.462 -1.2977 -1.7274  1.2766
  887MOL0     H19708   5.278   7.232   7.689 -0.2200  0.1011 -0.8083
  887MOL0     H19709   5.597   7.098   7.999  1.1004  1.6901  0.7069
  887MOL0     H19710   5.585   7.263   7.952  3.4620 -1.7958  1.7345
  887MOL0     H19711   5.528   7.218   8.198 -0.6728  2.2260  0.4255
  887MOL0     H19712   5.422   7.313   8.102 -1.9574 -0.8629 -3.5086
  887MOL0     H19713   5.283   7.171   8.234  1.3559 -0.3279  0.6649
  887MOL0     H19714   5.279   7.110   8.071  1.1095  1.1949 -1.2033
  887MOL0     H19715   5.471   7.014   8.312 -0.5240 -0.7730  1.8959
  887MOL0     H19716   5.414   6.920   8.164 -3.2053  0.7577 -1.3888
  887MOL0     H19717   5.176   6.957   8.272 -0.3409  0.0192  1.4466
  887MOL0     H19718   5.260   7.004   8.419 -2.1997  1.1651 -1.1423
  887MOL0     H19719   5.177   6.770   8.441 -0.3875  0.6809  1.3001
  887MOL0     H19720   5.268   6.727   8.299  0.6029  0.3798  0.0395
  887MOL0     H19721   5.392   6.846   8.554  1.0320  1.0018 -0.7698
  887MOL0     H19722   5.478   6.791   8.416 -2.2378  1.0564 -2.7899
  887MOL0     H19723   5.296   6.623   8.594 -0.8742  0.0807 -1.8064
  887MOL0     H19724   5.379   6.560   8.455 -3.4979  0.2202 -0.1158
  887MOL0     H19725   5.682   7.096   7.762  0.3061 -0.1453 -0.0214
  887MOL0     H19726   5.744   7.155   7.543  0.0892  0.6352 -0.2829
  887MOL0     H19727   5.650   7.101   7.040 -1.9249  0.4459  2.3642
  887MOL0     H19728   5.812   7.206   6.854  1.4954  1.4520  0.6527
  887MOL0     H19729   6.165   7.139   6.609  1.0343  0.8158  0.0553
  887MOL0     H19730   6.028   6.950   6.542  0.6128  1.0337 -2.1736
  887MOL0     H19731   6.026   6.528   6.357 -2.6275 -1.5771 -2.8537
  887MOL0     H19732   5.852   6.384   6.284 -0.1925  3.3823 -0.9754
  887MOL0     H19733   5.506   6.316   6.508  1.5571  2.8443 -2.2675
  887MOL0     H19734   5.575   6.173   6.583  3.6578 -0.4883 -0.7523
  887MOL0     H19735   5.444   6.149   6.323 -0.5876  1.1356  1.0050
  887MOL0     H19736   5.371   6.104   6.474 -1.1053  0.4877 -2.2268
  887MOL0     H19737   5.532   5.945   6.542 -0.0255 -2.7454 -0.9924
  887MOL0     H19738   5.630   5.964   6.393 -0.5110  0.8630 -0.4175
  887MOL0     H19739   5.487   5.767   6.385  0.1677 -0.5857  1.2791
  887MOL0     H19740   5.354   5.861   6.446  1.8611 -0.4399  1.1611
  887MOL0     H19741   5.318   5.923   6.032  1.2205  0.1143 -0.4220
  887MOL0     H19742   5.704   6.318   6.666 -0.7587  1.7514 -0.5427
  887MOL0     H19743   5.983   6.445   6.846 -0.7933 -0.1176  2.0220
  887MOL0     H19744   5.815   6.517   6.839  0.4519  0.7808 -1.3618
  887MOL0     H19745   5.851   6.346   6.849 -0.5787 -0.8711 -1.6701
  888MOL0     O19746   2.293   1.097   5.768 -0.3951  0.2733 -0.4021
  888MOL0     C19747   2.303   1.198   5.703  0.2836 -0.1690  0.6606
  888MOL0     O19748   2.289   1.199   5.559 -0.4900  0.4254 -0.0246
  888MOL0     C19749   2.263   1.088   5.479  0.3979  0.8586  0.3297
  888MOL0     C19750   2.278   0.953   5.518 -0.2650  0.1662  0.2104
  888MOL0     C19751   2.219   0.859   5.439 -0.2551  0.7308  1.0059
  888MOL0     C19752   2.158   0.882   5.315  0.4670 -0.5133 -0.0863
  888MOL0     O19753   2.124   0.764   5.248  0.0702 -1.3625 -0.1397
  888MOL0     C19754   2.134   0.759   5.101 -0.2054  0.3212  0.1094
  888MOL0     C19755   1.992   0.744   5.038  0.5138 -0.4470  0.3471
  888MOL0     C19756   1.904   0.637   5.094 -0.2197  0.3312 -0.3194
  888MOL0     C19757   1.785   0.607   5.009  1.0886  0.1972  0.0982
  888MOL0     C19758   1.672   0.509   5.069 -0.4574 -0.3082  0.5564
  888MOL0     C19759   1.559   0.483   4.972  1.2964  0.6027  0.4268
  888MOL0     C19760   1.463   0.377   5.033  0.4303  0.1683 -0.7844
  888MOL0     C19761   1.327   0.353   4.968  0.6896 -0.4534  0.0305
  888MOL0     N19762   1.230   0.300   5.065  0.0957  0.1424 -0.8748
  888MOL0     C19763   1.145   0.385   5.129 -0.2375 -0.6118 -0.3235
  888MOL0     C19764   1.109   0.306   5.237  0.1969 -1.1896 -0.0903
  888MOL0     C19765   1.034   0.354   5.361 -1.5777  0.8404  0.6576
  888MOL0     C19766   0.934   0.473   5.336  0.3990  0.9844  0.3366
  888MOL0     C19767   0.839   0.492   5.452  0.3337 -0.1277 -0.1930
  888MOL0     C19768   0.741   0.611   5.424  0.3817  0.3366  0.8821
  888MOL0     O19769   0.808   0.713   5.347  0.3887  0.0852 -0.4537
  888MOL0     C19770   0.799   0.726   5.207  0.9560 -0.5496 -1.0471
  888MOL0     C19771   0.864   0.843   5.159  0.5558  0.3042  0.1662
  888MOL0     C19772   0.880   0.871   5.027  0.5738 -0.3608  0.5970
  888MOL0     C19773   0.820   0.787   4.928  0.4489  0.4569  0.2126
  888MOL0     C19774   0.826   0.815   4.785  0.8337  0.4135  0.9360
  888MOL0     O19775   0.756   0.733   4.708  0.5608 -0.5140  0.3790
  888MOL0     C19776   0.736   0.756   4.579  0.3918 -0.4201  0.7021
  888MOL0     C19777   0.805   0.680   4.480 -0.9915 -0.5907 -0.1302
  888MOL0     C19778   0.806   0.721   4.347  0.2455 -0.3851 -0.1913
  888MOL0     C19779   0.732   0.836   4.303  0.0267  1.3653  0.2432
  888MOL0     O19780   0.726   0.866   4.169 -0.5458 -0.3593 -0.5097
  888MOL0     C19781   0.851   0.848   4.102 -0.9291 -0.3207  0.0439
  888MOL0     C19782   0.871   0.939   3.983 -1.0940 -0.2976 -0.4689
  888MOL0     C19783   0.941   1.082   4.015 -0.8094 -0.6662  0.1911
  888MOL0     C19784   0.873   1.153   4.132  0.4159  0.4851 -0.0790
  888MOL0     C19785   0.943   1.270   4.200 -0.6427 -0.0284 -0.2119
  888MOL0     C19786   0.861   1.321   4.321 -0.0792 -0.8531 -0.3163
  888MOL0     C19787   0.915   1.438   4.410  0.1570  0.3564  0.4682
  888MOL0     C19788   1.045   1.429   4.476 -0.3963 -0.8841 -0.9114
  888MOL0    Cl19789   1.091   1.267   4.551  0.2424 -0.2015 -0.0555
  888MOL0     C19790   0.659   0.910   4.399  0.3881 -0.0430 -0.1093
  888MOL0     C19791   0.657   0.878   4.536 -0.4653  1.0251  0.0147
  888MOL0     O19792   0.888   0.918   4.751  0.4173  0.2355  0.4315
  888MOL0     C19793   0.757   0.666   4.981 -0.7331 -0.2274  0.1521
  888MOL0     C19794   0.735   0.648   5.115 -0.2992 -0.3780 -0.8884
  888MOL0     N19795   1.152   0.183   5.216 -0.7703  0.3540 -0.7381
  888MOL0     N19796   1.228   0.172   5.114 -0.3618  0.0352 -0.3593
  888MOL0     C19797   2.153   1.017   5.274  0.6755 -0.6040  0.6021
  888MOL0     C19798   2.214   1.118   5.356 -1.0442  0.9018  0.8726
  888MOL0     C19799   2.309   1.333   5.766  0.1079 -0.2258  0.6796
  888MOL0     C19800   2.241   1.442   5.701  0.2534  0.1047  0.3316
  888MOL0     C19801   2.242   1.568   5.755  1.2819 -0.0558  0.5692
  888MOL0     C19802   2.302   1.600   5.879 -0.9244  0.3878 -0.6884
  888MOL0     O19803   2.279   1.718   5.945  0.0882  0.1893  0.3788
  888MOL0     C19804   2.292   1.836   5.867 -1.0237 -1.1799  0.9605
  888MOL0     C19805   2.282   1.969   5.957 -0.3806  0.0715  0.1504
  888MOL0     C19806   2.301   1.958   6.113 -0.0518 -0.4285  1.1195
  888MOL0     C19807   2.168   1.921   6.173 -0.1240 -0.8315  0.8941
  888MOL0     C19808   2.161   1.930   6.312 -0.7784  0.8553  0.5774
  888MOL0     C19809   2.146   1.943   6.429  0.0986 -0.4746  1.0460
  888MOL0     C19810   2.351   1.492   5.948 -1.0454 -0.4759 -0.0258
  888MOL0     C19811   2.350   1.357   5.898 -0.0651 -0.9005 -0.2300
  888MOL0     C19812   2.414   1.252   5.986  0.2848  0.5141 -0.6413
  888MOL0     H19813   2.320   0.923   5.614 -0.6376  0.9054  0.6122
  888MOL0     H19814   2.227   0.753   5.461 -1.9880  0.3380 -0.0877
  888MOL0     H19815   2.195   0.838   5.055 -1.7816  0.5427 -1.7813
  888MOL0     H19816   2.185   0.665   5.075 -1.9212 -0.1144 -2.0285
  888MOL0     H19817   1.999   0.732   4.930  0.5137  2.5963 -0.0695
  888MOL0     H19818   1.932   0.835   5.036 -1.2424 -1.4969 -2.8519
  888MOL0     H19819   1.874   0.662   5.196  0.2802 -1.6293  0.3479
  888MOL0     H19820   1.956   0.545   5.122  3.1134  2.3840  0.9244
  888MOL0     H19821   1.751   0.707   4.979 -1.5194  0.5861  3.6236
  888MOL0     H19822   1.822   0.563   4.916 -0.9787 -2.3217  0.3834
  888MOL0     H19823   1.719   0.410   5.076 -2.7413 -1.5123 -0.0801
  888MOL0     H19824   1.641   0.531   5.171 -0.5793 -3.8831  1.4191
  888MOL0     H19825   1.500   0.574   4.959  1.9356  1.4530  2.8421
  888MOL0     H19826   1.587   0.453   4.871 -1.1374  0.7377 -0.3566
  888MOL0     H19827   1.443   0.394   5.139  2.1082 -0.7661 -0.2726
  888MOL0     H19828   1.528   0.289   5.026  0.2305  0.1155 -2.2388
  888MOL0     H19829   1.302   0.440   4.906 -0.1089 -2.0526 -1.9952
  888MOL0     H19830   1.344   0.272   4.896  1.8386  0.7697 -1.1380
  888MOL0     H19831   1.116   0.490   5.130 -0.0733 -0.5484  1.6431
  888MOL0     H19832   0.983   0.267   5.403 -1.5472 -0.8914 -2.6309
  888MOL0     H19833   1.101   0.395   5.438 -0.4661  0.8932 -0.3193
  888MOL0     H19834   0.997   0.561   5.319  0.8036  0.4613 -1.0246
  888MOL0     H19835   0.884   0.457   5.240  3.7562  0.4870 -1.5104
  888MOL0     H19836   0.898   0.520   5.539 -1.0486 -0.2955  0.8303
  888MOL0     H19837   0.772   0.407   5.464 -1.0109  0.9374  0.0502
  888MOL0     H19838   0.706   0.640   5.524  0.2669 -1.1606  1.3025
  888MOL0     H19839   0.653   0.577   5.370  0.5571  2.3925 -0.8360
  888MOL0     H19840   0.923   0.902   5.228  1.8569 -0.5246 -0.1959
  888MOL0     H19841   0.940   0.956   4.994 -0.1108  1.7449  4.2643
  888MOL0     H19842   0.866   0.591   4.493  1.6947  1.2440  0.8993
  888MOL0     H19843   0.839   0.650   4.272  0.0681 -3.0634  2.1319
  888MOL0     H19844   0.940   0.858   4.165 -0.5401 -0.1493 -0.5228
  888MOL0     H19845   0.840   0.745   4.068 -4.0106 -0.1858  0.3403
  888MOL0     H19846   0.932   0.897   3.902  3.6704  4.6189  0.0118
  888MOL0     H19847   0.779   0.958   3.927 -0.4655 -3.3465 -2.8146
  888MOL0     H19848   1.045   1.071   4.045 -0.1942  3.0053 -0.1196
  888MOL0     H19849   0.940   1.152   3.930  0.2183 -2.0932 -1.0535
  888MOL0     H19850   0.872   1.073   4.206 -0.4491  0.1662 -0.4278
  888MOL0     H19851   0.774   1.191   4.108 -0.3454 -0.8145  0.8425
  888MOL0     H19852   0.923   1.350   4.128 -1.3627 -1.5221 -1.7597
  888MOL0     H19853   1.045   1.257   4.235 -1.8187 -1.1769  3.1327
  888MOL0     H19854   0.764   1.358   4.288  0.9638  0.4255 -2.1313
  888MOL0     H19855   0.850   1.236   4.388  0.7984 -0.4405  0.3772
  888MOL0     H19856   0.854   1.453   4.500  2.5620  0.9201  2.1288
  888MOL0     H19857   0.893   1.530   4.356 -4.2404 -0.9843 -0.4668
  888MOL0     H19858   1.118   1.447   4.397 -0.7596  2.8688 -0.5827
  888MOL0     H19859   1.046   1.511   4.548  0.1433  0.5670 -2.5000
  888MOL0     H19860   0.608   0.993   4.351 -1.3498 -0.1357  1.4699
  888MOL0     H19861   0.615   0.936   4.618 -2.3230 -1.2026  0.7687
  888MOL0     H19862   0.713   0.586   4.923  1.5836 -0.5834 -1.2363
  888MOL0     H19863   0.675   0.569   5.159  0.7704  0.2951  2.0035
  888MOL0     H19864   2.097   1.047   5.187  0.5194  0.9882  1.2240
  888MOL0     H19865   2.213   1.220   5.321  1.6177  1.4530  2.1423
  888MOL0     H19866   2.183   1.437   5.609  0.7736  0.5551 -0.0262
  888MOL0     H19867   2.176   1.649   5.725  0.9938 -0.7729 -0.8230
  888MOL0     H19868   2.215   1.839   5.790  1.2982  1.0143 -1.5148
  888MOL0     H19869   2.386   1.862   5.818 -1.1325  1.6679  2.0633
  888MOL0     H19870   2.187   2.013   5.925  0.7257  2.9148  0.4806
  888MOL0     H19871   2.349   2.047   5.922 -1.4413  1.3394  0.8458
  888MOL0     H19872   2.338   2.058   6.136  1.3684 -0.7528  0.3560
  888MOL0     H19873   2.383   1.897   6.152  0.1899  0.9538  2.8735
  888MOL0     H19874   2.078   1.974   6.141  1.4349  1.6492  0.2830
  888MOL0     H19875   2.150   1.814   6.162  1.0509 -1.1098  1.5639
  888MOL0     H19876   2.117   1.948   6.532 -0.6026  0.4773  0.8185
  888MOL0     H19877   2.393   1.511   6.046  0.9747 -0.6481 -0.8069
  888MOL0     H19878   2.501   1.206   5.939 -0.1605  0.8872 -1.8780
  888MOL0     H19879   2.447   1.301   6.078 -0.1044 -1.1145  0.4025
  888MOL0     H19880   2.347   1.171   6.015  0.7794  0.4397  0.3184
  889MOL0     O19881   3.928   2.138   8.811  0.1466 -0.3671  0.7190
  889MOL0     C19882   3.933   2.139   8.687 -0.0601 -0.6582 -0.0790
  889MOL0     O19883   3.828   2.129   8.601  0.3170 -0.4978 -0.2134
  889MOL0     C19884   3.716   2.073   8.666 -0.0783 -0.0585  0.0757
  889MOL0     C19885   3.708   1.936   8.685  0.2366  0.0008 -0.2934
  889MOL0     C19886   3.592   1.887   8.759 -0.8671 -0.5412  0.3401
  889MOL0     C19887   3.486   1.977   8.801  0.5053  0.3630  0.2198
  889MOL0     O19888   3.361   1.931   8.840 -0.7821 -0.0370  0.9147
  889MOL0     C19889   3.373   1.818   8.931 -0.3412 -0.9310  0.1854
  889MOL0     C19890   3.227   1.806   8.970  1.3788  0.2185  0.5961
  889MOL0     C19891   3.177   1.666   9.019 -0.1360 -0.1051  0.0300
  889MOL0     C19892   3.187   1.556   8.908  0.0742 -0.0856 -0.5095
  889MOL0     C19893   3.134   1.418   8.960  0.0397 -0.0766  0.3869
  889MOL0     C19894   3.187   1.366   9.091  0.7848 -0.3824  0.1068
  889MOL0     C19895   3.166   1.223   9.108  0.1648  0.0716  0.3453
  889MOL0     C19896   3.018   1.195   9.131  0.2101 -0.0438 -0.2004
  889MOL0     N19897   2.957   1.276   9.237 -0.1268  0.4040 -0.2549
  889MOL0     C19898   2.885   1.394   9.223  0.1420  0.4128  0.7917
  889MOL0     C19899   2.857   1.444   9.346 -0.1613 -0.5172 -0.2317
  889MOL0     C19900   2.761   1.565   9.366 -0.7666 -0.3640  0.2253
  889MOL0     C19901   2.839   1.696   9.399 -0.0386 -1.5033 -0.0485
  889MOL0     C19902   2.950   1.721   9.301  0.0241  0.5007 -0.1059
  889MOL0     C19903   3.034   1.845   9.340  0.3812  0.0998 -0.4837
  889MOL0     O19904   2.955   1.967   9.353  0.0479  0.1678  0.7550
  889MOL0     C19905   2.932   2.038   9.245  0.1179  0.0902  0.6563
  889MOL0     C19906   2.984   2.163   9.239 -0.4154  0.0350 -0.0958
  889MOL0     C19907   2.963   2.242   9.122  0.9600  0.6738  0.9963
  889MOL0     C19908   2.889   2.186   9.011  0.1514  0.4365  0.7730
  889MOL0     C19909   2.875   2.265   8.885  0.3059  0.5818  0.3269
  889MOL0     O19910   2.873   2.408   8.895  0.7275 -0.8305 -0.0296
  889MOL0     C19911   2.908   2.465   8.779  0.2551 -1.4084  0.6151
  889MOL0     C19912   2.827   2.551   8.706  0.4252  0.6495  0.5556
  889MOL0     C19913   2.868   2.621   8.586 -0.5889 -0.6645  0.1850
  889MOL0     C19914   3.005   2.605   8.548 -0.6203  0.4046  0.2888
  889MOL0     O19915   3.073   2.673   8.454 -0.8636  0.3544  1.1984
  889MOL0     C19916   3.007   2.690   8.324  0.1448  0.3849  0.2910
  889MOL0     C19917   3.115   2.731   8.209  0.5158 -0.6571 -1.0143
  889MOL0     C19918   3.042   2.767   8.080  0.4779 -1.4537 -0.0036
  889MOL0     C19919   3.151   2.805   7.973  1.1496 -0.5533 -1.2278
  889MOL0     C19920   3.099   2.841   7.837  1.0326  0.4664 -0.7263
  889MOL0     C19921   3.032   2.736   7.755  0.0762  0.1630  0.2862
  889MOL0     C19922   2.981   2.803   7.627 -0.3414  1.4068 -0.1248
  889MOL0     C19923   2.901   2.719   7.524  0.0023  0.1547  0.8868
  889MOL0    Cl19924   2.994   2.582   7.462  0.1944  0.0286  0.1185
  889MOL0     C19925   3.085   2.506   8.614 -0.0909 -0.1783  0.0340
  889MOL0     C19926   3.032   2.445   8.730  0.3151  0.0634  0.8348
  889MOL0     O19927   2.878   2.194   8.782 -0.1403 -0.8103  0.2914
  889MOL0     C19928   2.838   2.055   9.010 -0.0065 -0.6970  0.4652
  889MOL0     C19929   2.863   1.985   9.133  0.4446  0.9291  0.2039
  889MOL0     N19930   2.919   1.366   9.435 -0.0661 -0.1800 -0.9642
  889MOL0     N19931   2.981   1.267   9.370 -0.5021  0.0408 -0.2215
  889MOL0     C19932   3.498   2.105   8.767 -0.4486 -0.2270 -0.1506
  889MOL0     C19933   3.613   2.156   8.703 -0.5286  0.6239  0.4282
  889MOL0     C19934   4.054   2.195   8.625  0.1528  1.2564  0.4939
  889MOL0     C19935   4.073   2.332   8.646  0.3597 -0.1691 -0.7125
  889MOL0     C19936   4.163   2.395   8.560 -0.4552 -0.0473  0.2598
  889MOL0     C19937   4.247   2.323   8.477 -0.4488  0.3029  0.1774
  889MOL0     O19938   4.351   2.385   8.408 -0.5445 -0.0277  0.2506
  889MOL0     C19939   4.406   2.497   8.470  0.6217  0.1181  0.4153
  889MOL0     C19940   4.510   2.542   8.360 -0.1487  0.1658  0.1894
  889MOL0     C19941   4.454   2.617   8.231  0.7003 -0.1738 -0.0739
  889MOL0     C19942   4.307   2.569   8.182  0.2414 -0.3399  0.4024
  889MOL0     C19943   4.261   2.684   8.090 -0.5834  0.1292 -0.4375
  889MOL0     C19944   4.247   2.788   8.026 -0.0967 -0.3166 -0.1944
  889MOL0     C19945   4.237   2.178   8.467  0.0637  0.3593 -0.1006
  889MOL0     C19946   4.128   2.119   8.528  1.3733  0.3834 -0.3298
  889MOL0     C19947   4.100   1.976   8.488 -0.0899 -0.6568  0.0113
  889MOL0     H19948   3.791   1.869   8.668  0.2995 -0.1059  0.4400
  889MOL0     H19949   3.576   1.783   8.787 -1.3268 -0.3292  0.8954
  889MOL0     H19950   3.403   1.732   8.871 -0.6372 -0.0452 -1.2703
  889MOL0     H19951   3.433   1.828   9.022 -3.4369 -0.3621  2.3274
  889MOL0     H19952   3.164   1.848   8.891  0.3914  0.8176  1.6825
  889MOL0     H19953   3.211   1.886   9.043  3.6644  2.4868 -1.2020
  889MOL0     H19954   3.071   1.673   9.048 -0.3964 -4.9357  1.1577
  889MOL0     H19955   3.224   1.636   9.113  0.9881 -0.9773 -0.7960
  889MOL0     H19956   3.129   1.594   8.824 -1.0094  0.4290  0.4358
  889MOL0     H19957   3.288   1.553   8.865  0.0697  0.8961 -0.5960
  889MOL0     H19958   3.025   1.408   8.961  0.0534 -0.2183  0.5227
  889MOL0     H19959   3.156   1.341   8.885 -1.5654 -0.8637  0.6741
  889MOL0     H19960   3.295   1.384   9.089  1.0994 -1.9482 -3.1324
  889MOL0     H19961   3.140   1.425   9.170 -1.9469  0.7502 -2.1967
  889MOL0     H19962   3.215   1.191   9.201 -1.3127  0.5590  1.3391
  889MOL0     H19963   3.190   1.155   9.026 -0.7806 -0.3307  0.3808
  889MOL0     H19964   2.964   1.199   9.035  1.2398 -2.2066 -0.9418
  889MOL0     H19965   3.018   1.090   9.161  1.9121 -1.0657 -3.3001
  889MOL0     H19966   2.837   1.425   9.131 -0.2714 -1.3616  0.3854
  889MOL0     H19967   2.704   1.585   9.274  0.5094  2.4310 -0.0746
  889MOL0     H19968   2.686   1.550   9.444  0.9329 -0.5496  1.9058
  889MOL0     H19969   2.770   1.779   9.384 -1.9599 -3.2921 -1.8400
  889MOL0     H19970   2.881   1.695   9.500  2.5070 -0.0889 -1.0031
  889MOL0     H19971   2.920   1.728   9.196 -0.4053  0.0712 -0.0192
  889MOL0     H19972   3.017   1.635   9.300  0.2442  0.6397  0.9387
  889MOL0     H19973   3.122   1.860   9.277  0.4735  0.3709 -0.2915
  889MOL0     H19974   3.072   1.830   9.441  0.4520 -1.7555 -0.7511
  889MOL0     H19975   3.038   2.209   9.321  1.3163  1.8639 -2.1421
  889MOL0     H19976   3.009   2.340   9.123  2.7123 -0.0860 -0.5505
  889MOL0     H19977   2.727   2.566   8.746 -0.9633 -1.6555 -1.7803
  889MOL0     H19978   2.811   2.691   8.525  2.4345  1.4733 -0.4340
  889MOL0     H19979   2.963   2.592   8.300  2.8365 -0.9819  0.4980
  889MOL0     H19980   2.928   2.763   8.339  0.0324  0.1268  1.0139
  889MOL0     H19981   3.184   2.809   8.242  1.3768 -1.7012 -0.2962
  889MOL0     H19982   3.165   2.635   8.193  1.1918 -0.7200  1.1250
  889MOL0     H19983   2.983   2.682   8.044  0.4401 -1.1283 -0.7385
  889MOL0     H19984   2.966   2.845   8.095  0.0328 -1.7312 -0.7474
  889MOL0     H19985   3.227   2.728   7.955  2.1382  0.4242 -1.3926
  889MOL0     H19986   3.189   2.901   8.009 -0.4380 -0.3609  0.0301
  889MOL0     H19987   3.187   2.880   7.786  0.6092  1.8183 -0.4668
  889MOL0     H19988   3.017   2.914   7.841 -0.3270 -1.0157 -0.1916
  889MOL0     H19989   3.095   2.650   7.730 -1.2235 -0.3154 -1.5639
  889MOL0     H19990   2.945   2.700   7.809 -2.1422  1.8882 -1.8840
  889MOL0     H19991   3.075   2.833   7.580  1.7229 -0.1020  2.7353
  889MOL0     H19992   2.918   2.890   7.646  2.3479  3.2505  0.9205
  889MOL0     H19993   2.809   2.679   7.569 -1.9935  0.1421 -2.8095
  889MOL0     H19994   2.875   2.798   7.452  1.5951  1.5637  1.7926
  889MOL0     H19995   3.189   2.488   8.587 -0.2130  2.1946 -2.4720
  889MOL0     H19996   3.094   2.371   8.779 -0.3367 -1.3695 -0.4302
  889MOL0     H19997   2.791   2.009   8.923 -1.2462 -1.7118  1.6355
  889MOL0     H19998   2.816   1.888   9.131  1.2429  0.5331  0.3163
  889MOL0     H19999   3.430   2.185   8.793  0.4593 -0.0524  1.9174
  889MOL0     H20000   3.625   2.258   8.670  0.3464  0.2587 -0.4102
  889MOL0     H20001   4.015   2.395   8.711  1.2997  1.7709 -1.6718
  889MOL0     H20002   4.156   2.503   8.556 -0.1841 -0.0031  0.8698
  889MOL0     H20003   4.450   2.465   8.565  1.6989  0.6638  0.1259
  889MOL0     H20004   4.338   2.580   8.489  0.5181 -0.8781  6.1263
  889MOL0     H20005   4.565   2.454   8.326  0.2539  1.1005 -1.7680
  889MOL0     H20006   4.578   2.614   8.407 -0.7571 -0.9819  3.0173
  889MOL0     H20007   4.530   2.598   8.155  1.9997  0.7260  0.9525
  889MOL0     H20008   4.449   2.724   8.253  1.5617 -0.4832  1.7961
  889MOL0     H20009   4.307   2.475   8.126  1.1006  0.6959 -1.4376
  889MOL0     H20010   4.241   2.569   8.269  0.5789 -1.9883  0.6863
  889MOL0     H20011   4.214   2.869   7.963 -0.7212 -2.6403 -3.0908
  889MOL0     H20012   4.292   2.129   8.388  2.2341 -1.9144  2.6142
  889MOL0     H20013   4.191   1.940   8.440 -0.3995  0.6782 -1.6799
  889MOL0     H20014   4.073   1.928   8.582  0.9182  2.0962  1.8225
  889MOL0     H20015   4.022   1.972   8.410  0.0501  3.3053 -0.5306
  890MOL0     O20016   3.480   4.093   4.733  0.3981  0.1005 -0.0637
  890MOL0     C20017   3.389   4.067   4.805 -0.0982  0.1931  1.2404
  890MOL0     O20018   3.262   4.115   4.792 -0.0814 -0.0632  0.2798
  890MOL0     C20019   3.224   4.172   4.674  0.4953 -0.4133 -0.4921
  890MOL0     C20020   3.263   4.311   4.678  0.2013 -0.1878  0.8868
  890MOL0     C20021   3.199   4.387   4.578  0.0892  0.4116 -0.2010
  890MOL0     C20022   3.105   4.331   4.492 -0.8713  0.0125 -0.0840
  890MOL0     O20023   3.055   4.400   4.391  0.1878  0.1028  0.4310
  890MOL0     C20024   3.040   4.541   4.406  0.6134 -0.1878  0.7054
  890MOL0     C20025   2.979   4.602   4.276  0.1010 -0.1581  0.2121
  890MOL0     C20026   2.962   4.752   4.271 -0.4647 -0.6408 -0.5841
  890MOL0     C20027   3.095   4.829   4.275  0.3872 -0.1579 -0.1811
  890MOL0     C20028   3.083   4.969   4.210 -0.3317 -0.6315  0.0823
  890MOL0     C20029   3.099   4.950   4.057  1.1419 -0.8549 -0.5395
  890MOL0     C20030   3.133   5.082   4.000 -0.6452  0.0962  0.1472
  890MOL0     C20031   3.102   5.117   3.853 -0.7232  0.0630 -0.0587
  890MOL0     N20032   2.965   5.118   3.822  0.0335  0.1443 -0.3317
  890MOL0     C20033   2.880   5.013   3.783 -0.1573 -0.2884 -0.0735
  890MOL0     C20034   2.755   5.073   3.774 -0.2819  0.8095  0.9658
  890MOL0     C20035   2.634   4.996   3.748  0.6798 -0.6423 -0.8788
  890MOL0     C20036   2.583   5.008   3.605  0.5668  0.2979 -0.4877
  890MOL0     C20037   2.477   4.901   3.564 -0.4623  0.3181 -0.3311
  890MOL0     C20038   2.407   4.939   3.431  0.1593 -0.1033  0.8669
  890MOL0     O20039   2.507   4.933   3.326  0.1318 -1.1230  0.3503
  890MOL0     C20040   2.471   5.016   3.228 -0.2294 -0.6755 -0.1038
  890MOL0     C20041   2.360   5.022   3.151  1.0040  0.4953 -1.1696
  890MOL0     C20042   2.340   5.115   3.049 -0.2829 -0.4716  0.3890
  890MOL0     C20043   2.442   5.204   3.018 -0.0611 -0.2256  0.7268
  890MOL0     C20044   2.440   5.305   2.892  0.3757  1.3928 -0.0768
  890MOL0     O20045   2.565   5.363   2.849  0.9993 -0.0921 -0.1996
  890MOL0     C20046   2.571   5.426   2.726  0.0133 -0.2622 -0.0801
  890MOL0     C20047   2.663   5.391   2.618  0.7700  0.6735  0.8711
  890MOL0     C20048   2.663   5.472   2.501  0.0454  0.5927 -0.4975
  890MOL0     C20049   2.581   5.588   2.490 -1.0047 -0.3171  0.3293
  890MOL0     O20050   2.588   5.679   2.385  0.1120  0.1106 -0.4494
  890MOL0     C20051   2.706   5.755   2.380  0.3438  0.8512  0.1374
  890MOL0     C20052   2.685   5.887   2.308  1.1821 -0.5196  0.6061
  890MOL0     C20053   2.597   5.993   2.395 -0.4971  0.7728  0.1928
  890MOL0     C20054   2.592   6.127   2.320  0.5906  0.8277 -1.3505
  890MOL0     C20055   2.540   6.248   2.410 -0.4138  0.4368 -0.4351
  890MOL0     C20056   2.392   6.215   2.430  0.0695  0.3510  0.3106
  890MOL0     C20057   2.309   6.333   2.482 -0.0676 -0.5518 -1.0023
  890MOL0     C20058   2.242   6.431   2.379  0.4889  0.3500 -0.0789
  890MOL0    Cl20059   2.103   6.518   2.465 -0.4064 -0.0728 -0.1189
  890MOL0     C20060   2.503   5.619   2.589 -0.0435  0.4211 -0.5507
  890MOL0     C20061   2.491   5.537   2.703 -1.0954  0.4958  0.2007
  890MOL0     O20062   2.339   5.307   2.830 -0.6073  0.5084  0.5550
  890MOL0     C20063   2.564   5.196   3.091  0.1975 -0.8076 -1.0217
  890MOL0     C20064   2.569   5.104   3.196 -0.1846  0.0926  0.5316
  890MOL0     N20065   2.767   5.212   3.795  0.3103  0.9371  0.2815
  890MOL0     N20066   2.892   5.235   3.824  0.2223 -0.3661 -0.3656
  890MOL0     C20067   3.087   4.188   4.502  1.6306 -0.3404  0.3389
  890MOL0     C20068   3.139   4.109   4.594 -0.9906  0.4583  0.5704
  890MOL0     C20069   3.423   3.968   4.910 -0.5041 -0.4298  0.2250
  890MOL0     C20070   3.559   3.904   4.919  0.4859  0.0376  0.2928
  890MOL0     C20071   3.596   3.821   5.030  0.3190  0.4415  0.0229
  890MOL0     C20072   3.504   3.779   5.117  0.5576 -0.4034 -0.4999
  890MOL0     O20073   3.552   3.679   5.209  0.5265 -0.5749 -0.2316
  890MOL0     C20074   3.473   3.658   5.332 -0.4910  0.6459 -0.4613
  890MOL0     C20075   3.544   3.627   5.466 -0.3339 -0.4422 -0.5370
  890MOL0     C20076   3.658   3.522   5.436 -0.1598  0.8397  0.9457
  890MOL0     C20077   3.738   3.475   5.563 -0.1829 -0.3889 -0.1116
  890MOL0     C20078   3.884   3.442   5.530 -0.3666 -0.4142  0.7131
  890MOL0     C20079   4.000   3.404   5.516 -0.3670  0.1164 -0.0691
  890MOL0     C20080   3.374   3.832   5.102 -0.7292  0.1432 -0.2476
  890MOL0     C20081   3.332   3.928   5.009  0.0627 -0.4160 -0.4258
  890MOL0     C20082   3.193   3.982   5.021 -0.1928 -0.4093 -0.4417
  890MOL0     H20083   3.331   4.361   4.746  2.8548 -4.6051  1.9222
  890MOL0     H20084   3.239   4.488   4.576  1.9336 -0.2666 -0.4251
  890MOL0     H20085   2.982   4.582   4.490 -0.1340  2.5835 -1.0108
  890MOL0     H20086   3.141   4.584   4.410  0.9894 -1.0015  0.0859
  890MOL0     H20087   2.884   4.555   4.251 -0.5749  2.2428 -2.2657
  890MOL0     H20088   3.042   4.574   4.191 -0.9269  1.2819 -1.0896
  890MOL0     H20089   2.905   4.774   4.362  0.3000  2.2279 -0.7091
  890MOL0     H20090   2.897   4.786   4.191 -0.3322  3.4385  0.8249
  890MOL0     H20091   3.121   4.841   4.380 -0.9651 -3.1928  0.5757
  890MOL0     H20092   3.173   4.768   4.229  0.6034  0.8299 -1.2033
  890MOL0     H20093   2.991   5.020   4.239  0.9394  1.7147  0.2485
  890MOL0     H20094   3.157   5.038   4.252 -0.8551  0.8333 -1.3118
  890MOL0     H20095   3.180   4.886   4.022  2.9157  1.2237 -0.4035
  890MOL0     H20096   3.002   4.923   4.013  0.5110  0.4192  0.0094
  890MOL0     H20097   3.242   5.090   3.995 -0.1239 -0.7597  5.0667
  890MOL0     H20098   3.100   5.166   4.062  1.2090  0.7937  0.2404
  890MOL0     H20099   3.146   5.214   3.826 -1.3954  1.0433  2.0818
  890MOL0     H20100   3.144   5.048   3.780  1.7886  1.8465 -0.4492
  890MOL0     H20101   2.902   4.910   3.758  0.6368 -0.2275  0.3479
  890MOL0     H20102   2.649   4.889   3.763  0.9050 -0.4281  0.5000
  890MOL0     H20103   2.552   5.024   3.815 -0.2536 -2.4095 -1.2270
  890MOL0     H20104   2.524   5.098   3.588  0.3469 -0.0316 -1.5720
  890MOL0     H20105   2.670   5.001   3.539 -0.2458 -3.2447 -1.4273
  890MOL0     H20106   2.413   4.894   3.653 -1.6634 -0.6789 -1.2474
  890MOL0     H20107   2.522   4.803   3.549 -0.4651  0.6071 -2.4659
  890MOL0     H20108   2.366   5.040   3.439  0.1095 -0.2298  2.4301
  890MOL0     H20109   2.323   4.872   3.410  0.5001  0.3695 -2.4801
  890MOL0     H20110   2.278   4.956   3.177  0.1682  1.0846 -2.2112
  890MOL0     H20111   2.248   5.127   2.992 -2.4094  2.8853  4.0227
  890MOL0     H20112   2.725   5.302   2.627 -3.2776 -2.3277  2.3217
  890MOL0     H20113   2.732   5.461   2.417  1.3921 -1.0755  0.7503
  890MOL0     H20114   2.749   5.785   2.477  2.0282  3.4049 -1.2817
  890MOL0     H20115   2.782   5.693   2.332 -2.0218  0.6959 -3.7999
  890MOL0     H20116   2.776   5.944   2.283  0.9212 -0.5993 -0.5889
  890MOL0     H20117   2.630   5.866   2.216 -3.5204  1.4664  2.6539
  890MOL0     H20118   2.497   5.950   2.392  0.1716 -0.8213 -2.6714
  890MOL0     H20119   2.636   6.022   2.493 -1.1780 -0.1684  0.7551
  890MOL0     H20120   2.540   6.113   2.225 -0.5364  2.1875 -0.9548
  890MOL0     H20121   2.694   6.161   2.297  2.2616 -0.2911  3.2065
  890MOL0     H20122   2.556   6.347   2.367 -0.7558  0.6463 -0.0803
  890MOL0     H20123   2.587   6.243   2.509 -1.5978 -3.9141  0.1418
  890MOL0     H20124   2.350   6.199   2.330 -0.2553 -1.5453  0.7231
  890MOL0     H20125   2.371   6.131   2.496 -3.1536 -0.1440 -1.1165
  890MOL0     H20126   2.376   6.384   2.552  1.4562 -1.6667 -1.5975
  890MOL0     H20127   2.224   6.287   2.532  0.1583 -3.9513 -3.4473
  890MOL0     H20128   2.316   6.496   2.332  2.0337 -0.6326  0.8901
  890MOL0     H20129   2.204   6.375   2.293  0.1618  2.2119 -1.1956
  890MOL0     H20130   2.468   5.721   2.601 -0.2604  0.4347 -1.2375
  890MOL0     H20131   2.417   5.569   2.777 -3.1500 -0.9538 -1.1341
  890MOL0     H20132   2.655   5.250   3.064  0.5324 -0.7594  0.1566
  890MOL0     H20133   2.658   5.103   3.258  0.2567  3.6167  0.1509
  890MOL0     H20134   3.038   4.148   4.414  3.0257  0.7262 -0.9834
  890MOL0     H20135   3.147   4.001   4.596  2.5570  0.4160 -3.0967
  890MOL0     H20136   3.631   3.912   4.839 -1.3144 -1.7289 -1.6085
  890MOL0     H20137   3.699   3.787   5.034  0.1528 -0.2796  4.9750
  890MOL0     H20138   3.418   3.567   5.308  0.5575 -0.5981  1.5714
  890MOL0     H20139   3.398   3.736   5.347  0.7809  2.5869 -3.2599
  890MOL0     H20140   3.470   3.591   5.538 -0.4520 -1.2988 -1.0703
  890MOL0     H20141   3.597   3.714   5.507  0.1497 -0.9337 -0.0980
  890MOL0     H20142   3.727   3.564   5.363  2.1918 -0.9395  2.0273
  890MOL0     H20143   3.624   3.435   5.378  1.6559  0.9188 -0.3160
  890MOL0     H20144   3.737   3.551   5.642  0.0219 -1.0895  0.5749
  890MOL0     H20145   3.694   3.387   5.611 -3.4222  1.0798 -0.1374
  890MOL0     H20146   4.093   3.351   5.526 -0.5695 -0.0596  1.0521
  890MOL0     H20147   3.312   3.792   5.182  2.0393 -1.3244  1.2940
  890MOL0     H20148   3.131   3.976   4.932  1.7057  0.9500 -1.9594
  890MOL0     H20149   3.136   3.935   5.101 -1.5360 -2.7555 -2.6257
  890MOL0     H20150   3.199   4.086   5.055  1.1568 -0.5683 -0.1235
  891MOL0     O20151   2.536   1.455   4.184 -0.4801  0.1943  0.4963
  891MOL0     C20152   2.524   1.374   4.088 -0.6281  0.4376  0.1313
  891MOL0     O20153   2.481   1.243   4.088  0.4697 -0.1605 -0.0791
  891MOL0     C20154   2.466   1.182   4.214  0.0030 -1.4517  0.0236
  891MOL0     C20155   2.565   1.200   4.318 -0.1003 -0.1951  0.1856
  891MOL0     C20156   2.544   1.143   4.443  0.3022  0.0618  0.5746
  891MOL0     C20157   2.445   1.053   4.467  0.5374 -0.3715  0.3468
  891MOL0     O20158   2.433   0.983   4.587 -0.3124  0.6399  0.4439
  891MOL0     C20159   2.558   0.959   4.661  0.1584  0.8937 -0.3485
  891MOL0     C20160   2.553   0.852   4.765 -0.4556  0.5222 -0.2243
  891MOL0     C20161   2.518   0.923   4.893  0.8094 -1.1439 -0.4032
  891MOL0     C20162   2.486   0.830   5.008  0.7404 -0.2900 -0.6252
  891MOL0     C20163   2.614   0.731   5.027 -0.7661  0.6646  0.9059
  891MOL0     C20164   2.628   0.667   5.161  0.2367 -0.4146 -0.4859
  891MOL0     C20165   2.511   0.561   5.174  0.4321 -0.0449  0.2898
  891MOL0     C20166   2.536   0.465   5.295  0.5615  0.2949  0.0619
  891MOL0     N20167   2.433   0.369   5.319 -0.1297  0.7751 -0.6521
  891MOL0     C20168   2.308   0.403   5.379 -0.0941  0.1604 -0.4506
  891MOL0     C20169   2.249   0.283   5.406 -0.4792 -0.8221  0.2982
  891MOL0     C20170   2.113   0.259   5.462  0.0303  0.6297  0.3294
  891MOL0     C20171   2.033   0.143   5.407 -0.3531 -0.9893  1.2125
  891MOL0     C20172   1.978   0.181   5.260  0.1003  1.0238  0.2171
  891MOL0     C20173   1.864   0.076   5.218  0.8802  0.0163  0.7707
  891MOL0     O20174   1.846   0.082   5.071  0.7666 -0.7685 -0.0247
  891MOL0     C20175   1.725   0.035   5.029  0.5778  0.5996  0.6200
  891MOL0     C20176   1.660  -0.074   5.082 -0.0736  0.2950 -0.8731
  891MOL0     C20177   1.540  -0.122   5.034  0.4625  0.4516  0.5920
  891MOL0     C20178   1.476  -0.063   4.921 -0.4330 -0.1304 -0.7355
  891MOL0     C20179   1.337  -0.116   4.879  0.5121 -0.9392  0.1622
  891MOL0     O20180   1.273  -0.216   4.948  0.2581  1.3176 -0.3221
  891MOL0     C20181   1.160  -0.267   4.915  0.1002 -0.1235  0.2240
  891MOL0     C20182   1.120  -0.299   4.776  0.1095 -0.8524 -0.5452
  891MOL0     C20183   0.998  -0.369   4.756 -0.2235 -0.6105  0.7570
  891MOL0     C20184   0.921  -0.406   4.863  0.5354 -0.2770 -0.2759
  891MOL0     O20185   0.813  -0.480   4.829  0.2031  0.6097 -0.3030
  891MOL0     C20186   0.740  -0.543   4.940 -0.2222 -0.2528  0.1793
  891MOL0     C20187   0.828  -0.647   5.014  0.5897  1.4549 -0.0103
  891MOL0     C20188   0.892  -0.762   4.927 -0.1170  0.6399 -0.0533
  891MOL0     C20189   0.995  -0.848   4.984 -0.3427  0.0545  0.8443
  891MOL0     C20190   1.040  -0.952   4.875  0.2888 -0.0235 -0.6665
  891MOL0     C20191   0.927  -1.057   4.835  0.5217 -0.1259 -0.1689
  891MOL0     C20192   0.957  -1.153   4.727 -1.2762 -0.2064  0.3209
  891MOL0     C20193   1.093  -1.238   4.744 -0.0798  0.0262  0.8151
  891MOL0    Cl20194   1.094  -1.335   4.892  0.4472 -0.2819  0.1764
  891MOL0     C20195   0.955  -0.363   4.993 -0.2040  0.1150 -0.2913
  891MOL0     C20196   1.073  -0.296   5.018  0.0941  0.3750  0.6359
  891MOL0     O20197   1.281  -0.048   4.787 -0.6700  0.2900 -0.2276
  891MOL0     C20198   1.554   0.032   4.855  0.5741 -0.1764 -0.2220
  891MOL0     C20199   1.671   0.069   4.904 -0.3868 -0.2248 -0.6154
  891MOL0     N20200   2.338   0.182   5.376  0.6439  0.4123  0.0508
  891MOL0     N20201   2.443   0.235   5.309 -0.1871  0.6223  0.0705
  891MOL0     C20202   2.350   1.032   4.368 -0.0161 -0.8042 -0.0515
  891MOL0     C20203   2.353   1.098   4.246 -0.3160 -0.6719 -0.5067
  891MOL0     C20204   2.584   1.422   3.953 -0.1298  0.3762 -0.4994
  891MOL0     C20205   2.566   1.341   3.843  0.1212  0.9894 -0.1804
  891MOL0     C20206   2.631   1.359   3.715  0.0055 -0.0223 -0.4183
  891MOL0     C20207   2.703   1.464   3.688 -0.5330  0.1359  0.5511
  891MOL0     O20208   2.758   1.487   3.565 -0.9804 -0.6612  0.0719
  891MOL0     C20209   2.698   1.596   3.492 -0.5431  0.8601  1.1872
  891MOL0     C20210   2.804   1.595   3.373  0.2923 -0.6285 -0.8600
  891MOL0     C20211   2.861   1.460   3.328 -0.8838  0.4944 -0.0739
  891MOL0     C20212   2.940   1.495   3.207 -0.7027 -0.3743  0.4633
  891MOL0     C20213   2.854   1.520   3.087 -0.7138 -0.4186  0.0445
  891MOL0     C20214   2.772   1.532   2.995  0.2417  0.7304  0.2228
  891MOL0     C20215   2.739   1.540   3.805 -0.5500 -0.5620 -0.0307
  891MOL0     C20216   2.678   1.523   3.934  0.0966 -0.1224  0.1717
  891MOL0     C20217   2.720   1.625   4.045 -0.4716  0.0117 -0.3971
  891MOL0     H20218   2.654   1.257   4.291 -2.4455  2.4113 -2.8542
  891MOL0     H20219   2.629   1.157   4.509  0.1787 -1.0791  0.9968
  891MOL0     H20220   2.624   0.928   4.579  0.3283  1.9286 -0.6246
  891MOL0     H20221   2.608   1.054   4.687 -0.0351  0.6069  1.1753
  891MOL0     H20222   2.645   0.794   4.777 -0.6882  0.0293 -0.7688
  891MOL0     H20223   2.478   0.784   4.724 -0.2060  1.3776 -2.1971
  891MOL0     H20224   2.428   0.982   4.871  1.3689 -1.3408 -3.7915
  891MOL0     H20225   2.602   0.989   4.912  0.2526 -0.5620  0.0561
  891MOL0     H20226   2.469   0.887   5.099  0.2310 -2.5523  0.7676
  891MOL0     H20227   2.393   0.777   4.987 -1.0567 -0.7016  6.2287
  891MOL0     H20228   2.615   0.647   4.957 -4.1314 -1.4412  3.1003
  891MOL0     H20229   2.703   0.782   4.988 -2.0300  2.7668  0.5945
  891MOL0     H20230   2.731   0.630   5.156  0.5142  0.4369 -1.6595
  891MOL0     H20231   2.625   0.738   5.244 -0.1746 -2.8239  1.6740
  891MOL0     H20232   2.496   0.502   5.083  0.3381 -1.1519  1.0009
  891MOL0     H20233   2.420   0.616   5.198  0.8399  1.0454 -0.5758
  891MOL0     H20234   2.637   0.424   5.288  2.2472  3.8244  1.1383
  891MOL0     H20235   2.540   0.528   5.384 -1.1868  0.2913  0.1772
  891MOL0     H20236   2.265   0.499   5.407  1.0815  0.7529 -0.5804
  891MOL0     H20237   2.107   0.256   5.571 -0.7942 -1.0480  0.2584
  891MOL0     H20238   2.048   0.344   5.437 -1.3201  0.3312  2.5155
  891MOL0     H20239   2.094   0.052   5.400 -0.8812 -1.2395 -3.4765
  891MOL0     H20240   1.952   0.129   5.479 -0.8537  2.0469  1.3403
  891MOL0     H20241   2.062   0.175   5.190 -0.6912  0.4589 -0.7090
  891MOL0     H20242   1.934   0.281   5.261 -0.9625  0.5621  0.3543
  891MOL0     H20243   1.773   0.104   5.271  1.9994 -1.5310  3.7591
  891MOL0     H20244   1.896  -0.026   5.244  0.0766 -0.2371  0.7865
  891MOL0     H20245   1.698  -0.128   5.169  0.0967 -1.6127 -2.0672
  891MOL0     H20246   1.500  -0.194   5.105  2.6323 -0.8821  0.5412
  891MOL0     H20247   1.179  -0.275   4.688 -2.2553 -1.8671 -2.5306
  891MOL0     H20248   0.969  -0.416   4.662 -0.0176 -3.3607  1.9665
  891MOL0     H20249   0.694  -0.464   5.001  0.1400 -0.7285  1.0880
  891MOL0     H20250   0.652  -0.597   4.903 -2.6119  3.9639 -0.9728
  891MOL0     H20251   0.914  -0.601   5.063  1.4039  2.3357 -2.1522
  891MOL0     H20252   0.770  -0.689   5.097 -0.2692  1.9999 -0.3186
  891MOL0     H20253   0.808  -0.823   4.893  0.9150 -0.1944 -1.2435
  891MOL0     H20254   0.933  -0.716   4.836  0.4019 -0.7421 -0.5529
  891MOL0     H20255   0.967  -0.906   5.073  2.1252 -1.8982  0.4660
  891MOL0     H20256   1.079  -0.781   4.999  1.0791 -1.0241 -1.7168
  891MOL0     H20257   1.125  -1.015   4.904 -0.0358 -0.0600  0.2383
  891MOL0     H20258   1.060  -0.901   4.781 -4.0225 -0.0022 -1.7829
  891MOL0     H20259   0.900  -1.112   4.925 -0.3518  2.2118  1.0866
  891MOL0     H20260   0.840  -0.997   4.804  0.8559  1.5461  1.8767
  891MOL0     H20261   0.956  -1.094   4.634  0.5155 -0.1437  0.2989
  891MOL0     H20262   0.873  -1.222   4.717 -1.1748 -0.1006 -1.6535
  891MOL0     H20263   1.081  -1.310   4.662 -3.1823  1.1261  0.1640
  891MOL0     H20264   1.184  -1.178   4.737 -1.4820  2.3479  1.3664
  891MOL0     H20265   0.903  -0.388   5.085  0.3737 -0.6193 -0.1578
  891MOL0     H20266   1.098  -0.278   5.122 -2.3507 -1.1138  1.5638
  891MOL0     H20267   1.516   0.072   4.761 -1.0573  1.6360  1.1494
  891MOL0     H20268   1.744   0.126   4.847  3.1390 -4.7382 -1.2637
  891MOL0     H20269   2.259   0.975   4.383 -1.6490  1.0375 -2.2013
  891MOL0     H20270   2.289   1.085   4.159  2.4217 -1.7345 -2.4924
  891MOL0     H20271   2.518   1.245   3.856  0.3079  1.0022  0.6796
  891MOL0     H20272   2.626   1.292   3.631  2.9431 -0.6493 -0.2107
  891MOL0     H20273   2.694   1.689   3.548 -0.2868  1.8164 -0.3119
  891MOL0     H20274   2.601   1.572   3.448  0.8116 -0.3604 -1.3985
  891MOL0     H20275   2.892   1.652   3.403  0.6040 -0.4041 -2.1412
  891MOL0     H20276   2.771   1.649   3.284 -0.7948 -0.8060 -0.5869
  891MOL0     H20277   2.785   1.384   3.307 -0.2470  0.4407 -2.5670
  891MOL0     H20278   2.918   1.404   3.403 -0.1310 -4.1651 -3.6524
  891MOL0     H20279   3.006   1.581   3.216  1.7306 -1.8382 -1.6541
  891MOL0     H20280   3.010   1.415   3.180  1.9731  1.9073  0.2519
  891MOL0     H20281   2.689   1.542   2.927 -1.4564 -2.6439  1.5773
  891MOL0     H20282   2.817   1.612   3.783 -1.6646  0.1327 -1.9431
  891MOL0     H20283   2.811   1.680   4.018 -0.6055 -0.4158 -1.7833
  891MOL0     H20284   2.643   1.700   4.062 -1.2950 -1.3034  2.0215
  891MOL0     H20285   2.741   1.571   4.138 -0.3948  3.6166  1.8861
  892MOL0     O20286  10.343   3.937   6.108 -0.2163 -0.7061  0.3998
  892MOL0     C20287  10.465   3.924   6.101  0.1978 -0.6094  0.0817
  892MOL0     O20288  10.524   3.918   5.981  0.0301 -0.2684 -1.0006
  892MOL0     C20289  10.461   3.868   5.864 -0.1598  0.4551  0.0847
  892MOL0     C20290  10.318   3.853   5.833  0.1138  0.1929 -1.1739
  892MOL0     C20291  10.278   3.781   5.729 -0.3763 -0.1712 -0.0213
  892MOL0     C20292  10.364   3.732   5.632 -0.5332  0.5008  0.7113
  892MOL0     O20293  10.312   3.661   5.526  0.7040 -0.0770 -0.2029
  892MOL0     C20294  10.368   3.672   5.400 -0.0702  0.0443  0.7479
  892MOL0     C20295  10.310   3.792   5.333  0.4026 -0.3385  0.1296
  892MOL0     C20296  10.377   3.839   5.210  1.2528 -0.0584  0.8968
  892MOL0     C20297  10.393   3.730   5.108  0.2198 -1.4365 -0.0114
  892MOL0     C20298  10.257   3.701   5.033  0.3105 -0.0925  0.7717
  892MOL0     C20299  10.291   3.634   4.901  1.1673 -0.4996 -1.6879
  892MOL0     C20300  10.338   3.713   4.786  0.1229  0.2241  0.2283
  892MOL0     C20301  10.420   3.642   4.681  1.0212  0.9211 -0.3372
  892MOL0     N20302  10.340   3.578   4.573  0.5884  0.5493 -0.8019
  892MOL0     C20303  10.275   3.657   4.483 -0.0037  0.0039  0.9380
  892MOL0     C20304  10.198   3.568   4.405 -0.5023  0.0654  0.6555
  892MOL0     C20305  10.098   3.594   4.294 -0.2573  1.6092 -0.2037
  892MOL0     C20306  10.137   3.707   4.199 -0.0106 -0.4740 -1.0643
  892MOL0     C20307  10.017   3.787   4.150 -0.5249 -0.1917 -0.4191
  892MOL0     C20308   9.960   3.868   4.269 -0.7948  0.8506  0.3325
  892MOL0     O20309  10.036   3.979   4.298  0.1610 -0.3778 -0.9348
  892MOL0     C20310  10.067   4.001   4.433 -0.1259  0.2864  0.8073
  892MOL0     C20311   9.973   4.005   4.536  0.0669 -0.2194  0.3486
  892MOL0     C20312  10.006   4.021   4.675 -0.3939  1.0861 -0.7143
  892MOL0     C20313  10.134   4.052   4.700 -0.2245 -0.1752  0.1584
  892MOL0     C20314  10.175   4.091   4.836  0.5492  0.3917 -0.4199
  892MOL0     O20315  10.306   4.118   4.863  0.7130 -0.0787 -0.1099
  892MOL0     C20316  10.353   4.155   4.990  0.7268 -0.2401 -0.2814
  892MOL0     C20317  10.479   4.125   5.030  0.4286 -0.2901 -0.9170
  892MOL0     C20318  10.526   4.164   5.153 -0.1348 -0.5820 -0.2004
  892MOL0     C20319  10.443   4.219   5.252 -0.2508  0.7843  0.3583
  892MOL0     O20320  10.477   4.242   5.380 -0.4006 -0.0747  0.4095
  892MOL0     C20321  10.537   4.133   5.455 -0.2807 -0.1904 -0.8969
  892MOL0     C20322  10.546   4.168   5.608  0.3173 -0.1560  0.0566
  892MOL0     C20323  10.405   4.210   5.659 -0.4756 -0.5754  0.6887
  892MOL0     C20324  10.390   4.233   5.814 -0.1208  0.1975  0.0991
  892MOL0     C20325  10.244   4.244   5.863 -0.4527 -0.2688 -0.2842
  892MOL0     C20326  10.192   4.395   5.856  0.4495  0.6059  0.1384
  892MOL0     C20327  10.053   4.438   5.907  0.3811  0.1544  0.0886
  892MOL0     C20328   9.941   4.382   5.825  0.6513  0.7979 -0.5088
  892MOL0    Cl20329   9.926   4.475   5.681  0.1164  0.0041 -0.1858
  892MOL0     C20330  10.312   4.250   5.215 -0.4294 -0.4484  0.4753
  892MOL0     C20331  10.267   4.223   5.086 -0.0887  1.2217  1.3488
  892MOL0     O20332  10.090   4.077   4.920 -0.3034 -0.2056  0.2840
  892MOL0     C20333  10.224   4.052   4.596 -0.6499  0.3492 -1.0143
  892MOL0     C20334  10.195   4.026   4.463 -0.8934  0.4699  0.2582
  892MOL0     N20335  10.206   3.450   4.483  0.4384  0.4607  0.0977
  892MOL0     N20336  10.290   3.455   4.587 -0.6447 -0.3367  0.3094
  892MOL0     C20337  10.506   3.735   5.661 -0.1907 -0.2586 -0.5969
  892MOL0     C20338  10.549   3.804   5.779 -0.0697  0.2677 -0.6741
  892MOL0     C20339  10.551   3.914   6.220  0.0058  0.4489 -0.2414
  892MOL0     C20340  10.689   3.914   6.211 -0.2775  0.5377 -0.1109
  892MOL0     C20341  10.762   3.881   6.317 -0.7086  1.3892  0.7344
  892MOL0     C20342  10.712   3.890   6.440 -0.2835  0.0328 -0.0719
  892MOL0     O20343  10.796   3.863   6.542  1.3804  1.1201  1.6294
  892MOL0     C20344  10.844   3.989   6.599 -0.0998 -0.2797  0.6674
  892MOL0     C20345  10.748   4.022   6.714  0.1992  1.0109  1.1481
  892MOL0     C20346  10.746   3.917   6.823  0.1950  0.1232  0.3531
  892MOL0     C20347  10.638   3.932   6.928 -0.3715  0.0556 -0.5934
  892MOL0     C20348  10.671   4.048   7.017  0.7028 -0.1699 -0.3162
  892MOL0     C20349  10.698   4.144   7.087  1.0738 -0.2176  0.0901
  892MOL0     C20350  10.576   3.895   6.458  0.9814 -0.0365 -0.2071
  892MOL0     C20351  10.488   3.898   6.347 -0.6057 -0.2909 -0.3803
  892MOL0     C20352  10.341   3.882   6.375  0.2127 -0.2569  0.3186
  892MOL0     H20353  10.240   3.892   5.898 -0.0161  1.5210 -2.0809
  892MOL0     H20354  10.171   3.766   5.714 -0.1827 -0.7415 -0.9318
  892MOL0     H20355  10.477   3.670   5.403  0.1476 -1.1099 -2.7500
  892MOL0     H20356  10.329   3.586   5.343  1.5473 -0.2784  0.0703
  892MOL0     H20357  10.303   3.872   5.407  0.8521 -2.1987  2.3234
  892MOL0     H20358  10.205   3.777   5.305 -0.1522  3.1408 -0.0890
  892MOL0     H20359  10.474   3.879   5.239  1.6771 -1.6531  1.8292
  892MOL0     H20360  10.324   3.927   5.171 -0.8804 -2.5937 -2.5036
  892MOL0     H20361  10.472   3.772   5.044  1.1800 -1.4319  1.1367
  892MOL0     H20362  10.422   3.634   5.150 -1.2327 -2.3876 -1.0931
  892MOL0     H20363  10.199   3.641   5.103 -1.4030  1.2184  0.5582
  892MOL0     H20364  10.200   3.790   5.003  0.2813 -0.1819  0.5622
  892MOL0     H20365  10.364   3.556   4.926  0.1658 -1.3290 -1.3217
  892MOL0     H20366  10.203   3.573   4.879 -1.3977  2.5022 -0.3856
  892MOL0     H20367  10.399   3.798   4.820  0.0503  0.3308  0.0928
  892MOL0     H20368  10.256   3.767   4.738 -0.2927 -0.0783  0.5948
  892MOL0     H20369  10.485   3.717   4.635  1.2197 -0.4466 -2.4717
  892MOL0     H20370  10.486   3.573   4.734  1.2579  2.3450  1.2786
  892MOL0     H20371  10.295   3.763   4.471  2.5502 -0.3872  1.1544
  892MOL0     H20372  10.084   3.506   4.230  0.2086  3.7550 -3.4858
  892MOL0     H20373   9.998   3.602   4.336  1.4249  2.1290  4.2232
  892MOL0     H20374  10.200   3.781   4.249 -1.0497 -1.2070  1.5001
  892MOL0     H20375  10.204   3.669   4.121  1.0491  0.1009 -0.4575
  892MOL0     H20376   9.939   3.718   4.117 -0.8298  1.5303 -3.7531
  892MOL0     H20377  10.047   3.856   4.070 -0.0051  0.2851  0.1762
  892MOL0     H20378   9.939   3.815   4.362  2.4622 -0.3306  0.5101
  892MOL0     H20379   9.863   3.909   4.236 -0.1450  0.5669 -2.1465
  892MOL0     H20380   9.866   4.008   4.517  0.0499 -1.5999  0.1658
  892MOL0     H20381   9.932   4.010   4.754  2.0816  3.5811  2.1971
  892MOL0     H20382  10.537   4.054   4.972  0.3626 -0.8832 -0.2677
  892MOL0     H20383  10.628   4.135   5.178 -0.7724 -1.0576  2.0661
  892MOL0     H20384  10.471   4.045   5.449 -0.1488 -0.4323  0.6622
  892MOL0     H20385  10.633   4.103   5.413  1.8908 -0.0525  3.4363
  892MOL0     H20386  10.588   4.074   5.646 -0.3334 -0.3646  0.2797
  892MOL0     H20387  10.629   4.236   5.630 -0.1917  1.3081 -2.2298
  892MOL0     H20388  10.366   4.303   5.615 -0.3387  0.8415  3.3631
  892MOL0     H20389  10.337   4.134   5.618  0.7388 -0.6045 -1.4243
  892MOL0     H20390  10.445   4.323   5.844 -3.2847  2.0535  0.7655
  892MOL0     H20391  10.428   4.139   5.856  0.0443 -1.4818 -3.4338
  892MOL0     H20392  10.239   4.234   5.972 -1.3276 -1.3214 -0.4149
  892MOL0     H20393  10.177   4.167   5.825 -0.5897  0.8348 -2.4197
  892MOL0     H20394  10.266   4.450   5.915  1.9353  1.9393 -2.7370
  892MOL0     H20395  10.199   4.419   5.750  3.0855  2.5734  0.6467
  892MOL0     H20396  10.058   4.547   5.907 -0.6545  0.2044 -0.0112
  892MOL0     H20397  10.056   4.408   6.012  2.3430  0.4756  0.1798
  892MOL0     H20398   9.955   4.275   5.807  0.6368  0.6978  0.0658
  892MOL0     H20399   9.847   4.392   5.879  0.1437 -0.1712 -1.1918
  892MOL0     H20400  10.242   4.301   5.281  1.3841  2.1689  0.5047
  892MOL0     H20401  10.170   4.264   5.057  0.1177  0.2473 -0.9716
  892MOL0     H20402  10.330   4.069   4.609 -0.6384 -0.3482 -0.1405
  892MOL0     H20403  10.267   4.021   4.382 -0.7058 -2.4296  0.4984
  892MOL0     H20404  10.583   3.701   5.592  1.1427  3.7887 -1.3706
  892MOL0     H20405  10.651   3.808   5.814 -1.0810  1.3421  2.5516
  892MOL0     H20406  10.735   3.930   6.114 -0.0959  1.8943  0.1689
  892MOL0     H20407  10.870   3.883   6.312 -0.7699  2.1498 -1.1385
  892MOL0     H20408  10.852   4.066   6.522 -0.7873 -1.2473 -0.4052
  892MOL0     H20409  10.941   3.988   6.648  0.5585  2.6250 -0.3957
  892MOL0     H20410  10.648   4.010   6.672  1.5225 -2.8011 -1.4464
  892MOL0     H20411  10.784   4.112   6.765  0.4918  1.6817 -0.1915
  892MOL0     H20412  10.842   3.928   6.874 -0.0205 -2.6194  1.4774
  892MOL0     H20413  10.733   3.817   6.780 -0.2501 -0.1076  1.0113
  892MOL0     H20414  10.543   3.947   6.877 -1.0927  1.0917  0.9623
  892MOL0     H20415  10.636   3.836   6.981  1.7975 -0.2271 -0.9244
  892MOL0     H20416  10.722   4.237   7.135  0.3130 -1.3055  2.7307
  892MOL0     H20417  10.532   3.881   6.556 -1.2184  5.6603 -0.0280
  892MOL0     H20418  10.333   3.862   6.482  0.0988  0.6206  0.4866
  892MOL0     H20419  10.269   3.964   6.361  1.1208  0.5175  0.0834
  892MOL0     H20420  10.307   3.796   6.316  0.2210  1.2379 -2.0328
  893MOL0     O20421   8.110   3.162   3.553  0.2235  0.1616  0.5502
  893MOL0     C20422   8.000   3.209   3.524  0.0042  0.4932  1.0259
  893MOL0     O20423   7.978   3.331   3.480  0.1516  0.4104 -0.1682
  893MOL0     C20424   8.099   3.405   3.473 -0.4968 -0.0553 -0.3142
  893MOL0     C20425   8.144   3.447   3.353 -0.0086  0.2508 -0.7469
  893MOL0     C20426   8.264   3.506   3.340  0.0401 -0.2286 -0.5644
  893MOL0     C20427   8.346   3.527   3.461  0.2796  0.3269  0.4084
  893MOL0     O20428   8.467   3.594   3.441 -0.6614  0.3320 -0.7976
  893MOL0     C20429   8.568   3.568   3.533  0.4206  0.8794 -0.1910
  893MOL0     C20430   8.707   3.579   3.467  0.5782  0.0824 -0.5812
  893MOL0     C20431   8.793   3.672   3.552 -0.6808 -0.2247 -0.2897
  893MOL0     C20432   8.737   3.817   3.526 -0.6510  0.1041  0.3467
  893MOL0     C20433   8.835   3.931   3.559 -1.1599 -0.1069  0.4090
  893MOL0     C20434   8.966   3.922   3.477  0.2113  0.0103 -0.3434
  893MOL0     C20435   8.962   3.942   3.321  0.2091  0.5284  0.1338
  893MOL0     C20436   9.090   3.897   3.256 -0.0509  0.4492 -0.9153
  893MOL0     N20437   9.088   3.910   3.109 -1.1065 -0.9927 -0.4166
  893MOL0     C20438   9.153   4.004   3.031 -0.1432  0.5966 -1.6002
  893MOL0     C20439   9.135   3.950   2.903 -0.0297 -0.4044  0.6775
  893MOL0     C20440   9.182   4.022   2.784  0.1041  0.9088  0.5544
  893MOL0     C20441   9.176   3.941   2.657 -0.2537  0.6167 -0.3284
  893MOL0     C20442   9.255   4.006   2.544 -0.0251 -0.0479 -0.5217
  893MOL0     C20443   9.296   3.914   2.433  0.4028 -0.4763 -0.8439
  893MOL0     O20444   9.399   3.821   2.474 -0.0558 -0.5269  0.2666
  893MOL0     C20445   9.528   3.866   2.449  0.8563 -0.2956  0.1303
  893MOL0     C20446   9.565   3.879   2.323  0.3428  0.2428  0.0612
  893MOL0     C20447   9.700   3.917   2.293  0.9294  0.7848  0.7138
  893MOL0     C20448   9.796   3.934   2.388 -0.2707  0.5168  0.3954
  893MOL0     C20449   9.935   3.957   2.348 -1.0245  0.7637  0.1990
  893MOL0     O20450   9.958   3.968   2.221 -0.5276 -0.3868 -0.1614
  893MOL0     C20451  10.085   4.002   2.171 -0.1295  0.4112  0.9496
  893MOL0     C20452  10.080   4.090   2.064 -0.2208  0.2990  0.0822
  893MOL0     C20453  10.192   4.139   2.001  0.3350 -0.9252  0.5861
  893MOL0     C20454  10.322   4.095   2.034  0.2742  0.0895  0.9331
  893MOL0     O20455  10.434   4.126   1.965  0.4400 -0.6268  0.0080
  893MOL0     C20456  10.449   4.265   1.915 -0.5447  0.0137  0.2311
  893MOL0     C20457  10.463   4.359   2.041 -0.0057  0.2386  0.6685
  893MOL0     C20458  10.492   4.504   1.994  0.1253  0.4429  0.8295
  893MOL0     C20459  10.438   4.605   2.093  0.5098 -0.6382  0.0948
  893MOL0     C20460  10.499   4.745   2.076  0.7868 -0.2773  0.0740
  893MOL0     C20461  10.471   4.840   2.198 -0.9071  0.3957  0.0877
  893MOL0     C20462  10.485   4.997   2.172  0.1140  0.2406 -0.0469
  893MOL0     C20463  10.483   5.074   2.299 -0.9441  0.0099 -0.2871
  893MOL0    Cl20464  10.652   5.070   2.373 -0.8148  0.4141 -0.0370
  893MOL0     C20465  10.330   3.991   2.125 -0.5891  0.3243 -0.5133
  893MOL0     C20466  10.209   3.947   2.193 -0.1328  0.3965 -0.1164
  893MOL0     O20467  10.017   3.965   2.439  0.2302 -0.6914  0.5713
  893MOL0     C20468   9.753   3.916   2.518  0.6032 -0.4177 -0.1797
  893MOL0     C20469   9.619   3.891   2.555 -0.2196  0.4703 -0.3983
  893MOL0     N20470   9.047   3.852   2.909 -1.0859  0.3790 -0.5687
  893MOL0     N20471   9.024   3.815   3.037  0.7017  0.3017 -0.3839
  893MOL0     C20472   8.292   3.501   3.587  0.3244  0.9750  0.1874
  893MOL0     C20473   8.174   3.428   3.590  0.1627 -0.8367  0.9225
  893MOL0     C20474   7.886   3.117   3.521  0.1580  0.9793  0.2638
  893MOL0     C20475   7.777   3.135   3.607  0.2533  0.5075  0.2099
  893MOL0     C20476   7.661   3.056   3.598 -0.0243 -0.6368  0.5455
  893MOL0     C20477   7.647   2.963   3.502 -0.1219 -0.2367 -0.0103
  893MOL0     O20478   7.529   2.896   3.487 -0.2552  0.0530  0.6137
  893MOL0     C20479   7.496   2.822   3.610 -1.0699 -0.5258 -0.2280
  893MOL0     C20480   7.403   2.703   3.569 -0.1854  0.2265  0.0990
  893MOL0     C20481   7.296   2.666   3.674  0.2725 -0.1632  0.1674
  893MOL0     C20482   7.231   2.529   3.666  0.1255  1.0551  0.4689
  893MOL0     C20483   7.109   2.514   3.744  0.1955  0.3569 -0.2322
  893MOL0     C20484   6.999   2.497   3.796 -0.6400 -0.4293  1.0130
  893MOL0     C20485   7.759   2.952   3.415 -0.1931 -0.0724 -0.0650
  893MOL0     C20486   7.871   3.025   3.416  0.7633 -0.1081 -0.4189
  893MOL0     C20487   7.972   2.993   3.308 -0.8412 -0.5644  0.5755
  893MOL0     H20488   8.095   3.421   3.259  0.6059  0.1806 -1.0565
  893MOL0     H20489   8.311   3.547   3.252 -1.0931  3.0246  0.2131
  893MOL0     H20490   8.574   3.635   3.619  2.3388 -1.5734  1.7585
  893MOL0     H20491   8.552   3.466   3.570 -0.7455  0.9775 -0.3924
  893MOL0     H20492   8.712   3.621   3.366  3.4225 -1.5920 -1.2266
  893MOL0     H20493   8.750   3.479   3.467 -3.5631 -1.9457 -0.8389
  893MOL0     H20494   8.890   3.662   3.502 -1.1020 -1.0738 -0.9588
  893MOL0     H20495   8.792   3.644   3.657  1.0745 -0.6752 -0.3593
  893MOL0     H20496   8.722   3.831   3.418  3.6500 -0.0651 -0.4378
  893MOL0     H20497   8.642   3.838   3.576 -0.0660 -0.6214  1.8048
  893MOL0     H20498   8.793   4.030   3.536  2.1343  0.8455 -2.3954
  893MOL0     H20499   8.864   3.921   3.664  2.3697 -0.9473 -0.5189
  893MOL0     H20500   9.025   4.000   3.526  1.0610 -2.0097  2.0691
  893MOL0     H20501   9.019   3.831   3.506 -3.4571 -1.7111  1.6122
  893MOL0     H20502   8.941   4.049   3.312 -0.1140  0.5178  0.7072
  893MOL0     H20503   8.884   3.878   3.280  3.2403 -2.6484 -1.1814
  893MOL0     H20504   9.182   3.942   3.296 -0.5183  0.9417 -0.3842
  893MOL0     H20505   9.101   3.793   3.287  0.0599  0.7237  0.0001
  893MOL0     H20506   9.229   4.079   3.049  0.3284 -0.2351  0.0602
  893MOL0     H20507   9.113   4.107   2.776 -0.7274  0.2272  0.3619
  893MOL0     H20508   9.280   4.057   2.818 -0.5602  1.0024  2.5438
  893MOL0     H20509   9.224   3.845   2.674 -2.3288 -1.2018 -3.6212
  893MOL0     H20510   9.075   3.916   2.625 -0.4571  0.4872  0.3994
  893MOL0     H20511   9.334   4.069   2.586  0.6422 -0.8658 -0.5230
  893MOL0     H20512   9.190   4.078   2.492 -2.0570 -0.2988  1.5051
  893MOL0     H20513   9.328   3.979   2.351  1.6330  1.1958  0.8733
  893MOL0     H20514   9.219   3.846   2.396 -0.2942 -0.5788  0.7089
  893MOL0     H20515   9.507   3.866   2.232  2.6855  0.7580 -1.5883
  893MOL0     H20516   9.732   3.930   2.191  0.4787 -1.1172  0.2892
  893MOL0     H20517   9.987   4.135   2.033  1.1718  2.2543 -1.5264
  893MOL0     H20518  10.186   4.194   1.907  0.8953 -2.7886 -0.5962
  893MOL0     H20519  10.541   4.265   1.856 -0.1808 -1.1524  0.7671
  893MOL0     H20520  10.379   4.298   1.838 -1.9870 -0.5389  1.2591
  893MOL0     H20521  10.367   4.352   2.095 -0.4576  2.8877  0.3545
  893MOL0     H20522  10.544   4.311   2.097  0.7241 -0.4219 -0.9149
  893MOL0     H20523  10.601   4.502   1.997  0.1356 -2.4771  1.8619
  893MOL0     H20524  10.464   4.529   1.892  1.1525 -0.9674  0.1654
  893MOL0     H20525  10.452   4.584   2.200  3.0697  1.0995  0.1834
  893MOL0     H20526  10.332   4.606   2.064  0.7098  1.3366 -0.7169
  893MOL0     H20527  10.443   4.788   1.993 -1.6231 -2.2140  0.5805
  893MOL0     H20528  10.607   4.733   2.060  1.7244 -2.1778  5.6275
  893MOL0     H20529  10.368   4.817   2.226 -1.9696 -0.1935 -3.7718
  893MOL0     H20530  10.544   4.801   2.270  2.2258  1.3219 -2.3318
  893MOL0     H20531  10.395   5.024   2.116  2.2498  0.8409 -3.4372
  893MOL0     H20532  10.563   5.024   2.101  0.2261 -1.2530 -0.5423
  893MOL0     H20533  10.443   5.175   2.296 -0.5754  0.2396 -4.7656
  893MOL0     H20534  10.418   5.014   2.364 -0.9011 -0.4715 -0.6832
  893MOL0     H20535  10.429   3.950   2.141 -0.0670  0.6881 -2.5339
  893MOL0     H20536  10.212   3.869   2.268  0.0122 -2.3793 -2.8128
  893MOL0     H20537   9.825   3.911   2.599 -0.7815  0.9409  1.1903
  893MOL0     H20538   9.589   3.871   2.657 -0.8971  1.1111 -0.4676
  893MOL0     H20539   8.346   3.513   3.680  1.1239  0.7206 -0.2383
  893MOL0     H20540   8.135   3.406   3.689 -0.3775  1.0274  1.1787
  893MOL0     H20541   7.782   3.218   3.675 -0.1166  0.0657  0.7837
  893MOL0     H20542   7.570   3.097   3.642 -1.0120 -1.1910 -0.9276
  893MOL0     H20543   7.443   2.884   3.683 -0.5016 -0.3033 -0.0026
  893MOL0     H20544   7.591   2.781   3.647 -0.7657 -0.1614 -0.6021
  893MOL0     H20545   7.471   2.619   3.552 -0.2569 -0.1641  1.5489
  893MOL0     H20546   7.350   2.726   3.476  2.1030 -0.3842 -1.4323
  893MOL0     H20547   7.217   2.741   3.677 -1.8277 -2.2069 -1.1326
  893MOL0     H20548   7.336   2.665   3.776 -3.6381  1.5327  1.8964
  893MOL0     H20549   7.200   2.510   3.563  0.6858 -0.5757  0.5711
  893MOL0     H20550   7.297   2.447   3.699  1.1322  0.8500 -1.8553
  893MOL0     H20551   6.903   2.497   3.843 -0.3055  2.9010  1.9624
  893MOL0     H20552   7.740   2.886   3.330 -1.6615  0.6917 -0.3668
  893MOL0     H20553   7.986   2.885   3.299  0.8716 -0.2656 -0.8549
  893MOL0     H20554   7.919   3.008   3.214 -1.4700 -1.4183  0.7780
  893MOL0     H20555   8.070   3.041   3.319 -0.2190 -1.4990 -0.6427
  894MOL0     O20556   2.949   1.136   4.640 -0.1247 -0.1153  0.5630
  894MOL0     C20557   2.951   1.144   4.516 -0.3839  0.3883 -0.6930
  894MOL0     O20558   2.882   1.241   4.444  0.2042 -0.2228  0.0132
  894MOL0     C20559   2.810   1.347   4.502  0.1817 -0.7769 -0.9638
  894MOL0     C20560   2.750   1.358   4.632 -0.4861 -0.4336  0.4399
  894MOL0     C20561   2.679   1.476   4.674  0.5678  0.2200  0.2496
  894MOL0     C20562   2.661   1.578   4.579 -1.1960 -0.3052  0.1011
  894MOL0     O20563   2.608   1.697   4.624  0.0885 -0.0382 -0.7497
  894MOL0     C20564   2.473   1.720   4.568 -0.4327 -1.7124  0.5800
  894MOL0     C20565   2.398   1.849   4.608 -0.0397  0.4093 -0.2576
  894MOL0     C20566   2.427   1.888   4.755  0.0862 -0.0549 -0.1071
  894MOL0     C20567   2.393   1.774   4.855 -0.6077 -0.2852 -0.0423
  894MOL0     C20568   2.418   1.826   5.002  1.2274  0.3829  0.0189
  894MOL0     C20569   2.570   1.853   5.022  0.3006 -0.2848  1.1357
  894MOL0     C20570   2.657   1.727   4.996 -0.0555  0.2862 -0.2069
  894MOL0     C20571   2.755   1.673   5.103  0.1218  0.2704  0.5808
  894MOL0     N20572   2.803   1.782   5.183  0.4805  0.1577  0.0433
  894MOL0     C20573   2.763   1.826   5.312  0.2328  0.4022  0.1184
  894MOL0     C20574   2.838   1.940   5.338 -0.3170  0.3782  1.2861
  894MOL0     C20575   2.803   2.028   5.448 -0.8758  0.5625 -0.1409
  894MOL0     C20576   2.686   2.121   5.419  0.8593  1.1291 -0.0286
  894MOL0     C20577   2.546   2.063   5.447 -0.3448  0.1682  0.5851
  894MOL0     C20578   2.529   2.050   5.596  0.2412  0.5850  0.4638
  894MOL0     O20579   2.388   2.009   5.620 -0.7201 -0.5001 -0.2077
  894MOL0     C20580   2.289   2.107   5.612 -0.4756 -1.0058 -1.0594
  894MOL0     C20581   2.307   2.245   5.603 -0.2997 -1.0057  0.4129
  894MOL0     C20582   2.204   2.337   5.634  0.1073 -1.0383 -0.0985
  894MOL0     C20583   2.070   2.297   5.633 -0.3757 -0.4351 -0.4492
  894MOL0     C20584   1.960   2.400   5.659 -0.1434 -0.1276  0.0863
  894MOL0     O20585   1.834   2.355   5.653 -0.4432 -0.0786 -0.8886
  894MOL0     C20586   1.725   2.443   5.670 -0.3918 -0.4407 -0.2514
  894MOL0     C20587   1.615   2.393   5.742  0.4079 -0.3493 -0.4714
  894MOL0     C20588   1.501   2.469   5.749  0.1212  0.1432 -0.5214
  894MOL0     C20589   1.485   2.599   5.696  0.8619  0.6233  0.9120
  894MOL0     O20590   1.365   2.677   5.709  0.1955 -0.2018  0.3808
  894MOL0     C20591   1.285   2.664   5.824 -0.4088  0.1071  0.4959
  894MOL0     C20592   1.179   2.765   5.820 -0.7854 -0.5521 -0.9390
  894MOL0     C20593   1.093   2.760   5.697 -0.6517 -0.2932  1.0485
  894MOL0     C20594   0.974   2.860   5.698  0.3454 -0.3959  0.0076
  894MOL0     C20595   0.941   2.919   5.557  0.1835 -0.7981 -0.1635
  894MOL0     C20596   1.044   3.014   5.491  0.9558 -0.3315  0.7174
  894MOL0     C20597   0.998   3.019   5.336  0.2830  0.0731 -0.6091
  894MOL0     C20598   1.078   3.126   5.268  0.5983 -1.1437 -0.7233
  894MOL0    Cl20599   1.257   3.091   5.250  0.0144  0.0323 -0.0204
  894MOL0     C20600   1.598   2.645   5.630 -0.2482 -1.1791 -0.6950
  894MOL0     C20601   1.716   2.573   5.615 -0.3162 -0.3964 -0.9583
  894MOL0     O20602   1.989   2.511   5.707 -0.7620  0.1626 -0.5469
  894MOL0     C20603   2.044   2.158   5.612 -0.2289 -0.0239 -0.4452
  894MOL0     C20604   2.154   2.065   5.610 -0.1031  0.4276  0.4230
  894MOL0     N20605   2.929   1.948   5.233 -0.4406 -0.7758  0.4948
  894MOL0     N20606   2.892   1.873   5.140 -0.2942  0.3289  0.0811
  894MOL0     C20607   2.718   1.561   4.453  0.3022 -0.7172 -0.5447
  894MOL0     C20608   2.801   1.455   4.416  0.6076 -0.1884  0.7707
  894MOL0     C20609   3.045   1.068   4.442  1.1266  0.7439  0.1982
  894MOL0     C20610   3.109   1.141   4.336 -0.3230 -0.2125  0.6698
  894MOL0     C20611   3.221   1.084   4.276  0.1865  0.2626  0.3718
  894MOL0     C20612   3.262   0.951   4.320  0.2137 -0.1087 -0.3185
  894MOL0     O20613   3.365   0.888   4.257  0.5177 -1.0571 -0.2001
  894MOL0     C20614   3.408   0.937   4.139 -0.8120 -0.6958 -0.2719
  894MOL0     C20615   3.495   0.833   4.078  0.4419 -0.1372 -0.2427
  894MOL0     C20616   3.629   0.807   4.152  0.4731  0.5985  0.7488
  894MOL0     C20617   3.681   0.673   4.104  0.4229 -0.1934 -0.3911
  894MOL0     C20618   3.617   0.559   4.173  0.3325 -0.7005  0.7974
  894MOL0     C20619   3.568   0.478   4.246 -0.4983  0.4026  0.4421
  894MOL0     C20620   3.191   0.881   4.416 -0.1076 -0.9328 -0.3119
  894MOL0     C20621   3.083   0.933   4.480  0.6137 -0.3125 -0.1090
  894MOL0     C20622   3.026   0.848   4.595  0.3833 -0.1919  0.4964
  894MOL0     H20623   2.757   1.283   4.710  0.9784  0.5228  1.2901
  894MOL0     H20624   2.636   1.484   4.773  1.7766  0.7488  0.7454
  894MOL0     H20625   2.475   1.718   4.458 -4.2047  3.4936  0.0448
  894MOL0     H20626   2.408   1.641   4.605 -1.9597  0.4249  2.7615
  894MOL0     H20627   2.291   1.835   4.587 -0.0335  2.0711 -1.5689
  894MOL0     H20628   2.428   1.936   4.548 -0.0591  1.5357  1.2965
  894MOL0     H20629   2.375   1.983   4.772  1.6796  0.7486  0.4196
  894MOL0     H20630   2.535   1.903   4.762  0.4309 -1.6800 -1.3143
  894MOL0     H20631   2.286   1.756   4.839 -1.1540  2.0580  0.6446
  894MOL0     H20632   2.437   1.677   4.829 -2.0415 -0.6686 -1.1538
  894MOL0     H20633   2.355   1.913   5.016  1.2334  0.5660 -1.0098
  894MOL0     H20634   2.381   1.754   5.076  3.8177  0.0025  1.0747
  894MOL0     H20635   2.608   1.926   4.950 -4.0440 -0.1456 -1.3360
  894MOL0     H20636   2.570   1.898   5.122 -0.4054 -1.3084  1.6085
  894MOL0     H20637   2.701   1.728   4.896 -4.1947 -1.3520 -2.3050
  894MOL0     H20638   2.579   1.651   4.989  0.4023 -0.0970 -1.1903
  894MOL0     H20639   2.704   1.587   5.149 -4.5524  0.5693 -3.2538
  894MOL0     H20640   2.833   1.619   5.050 -1.0072 -2.2536  1.3088
  894MOL0     H20641   2.684   1.782   5.372  0.1653  4.7783  3.7015
  894MOL0     H20642   2.788   1.965   5.536 -3.8549 -1.7404 -2.1097
  894MOL0     H20643   2.886   2.099   5.461  1.7137 -1.7535 -2.5628
  894MOL0     H20644   2.710   2.220   5.458  0.9039  3.0274 -4.2359
  894MOL0     H20645   2.682   2.146   5.312 -3.7516 -0.9998 -0.6010
  894MOL0     H20646   2.523   1.970   5.394  0.8334  0.7859 -1.0894
  894MOL0     H20647   2.478   2.134   5.398  0.7547  3.1960  3.0523
  894MOL0     H20648   2.566   2.139   5.649  0.4342  1.0953 -0.5096
  894MOL0     H20649   2.585   1.962   5.626  0.5272  0.3661 -0.6587
  894MOL0     H20650   2.404   2.289   5.585 -0.7498 -0.4191 -0.7396
  894MOL0     H20651   2.238   2.438   5.653 -0.1728 -0.8041 -0.7903
  894MOL0     H20652   1.632   2.296   5.789 -0.3354  0.4517  1.6026
  894MOL0     H20653   1.416   2.420   5.795 -0.4452  0.3042 -1.3744
  894MOL0     H20654   1.240   2.564   5.825  0.8253 -0.4736  0.2261
  894MOL0     H20655   1.349   2.672   5.913  2.7075  3.0864 -1.7820
  894MOL0     H20656   1.117   2.742   5.906 -1.5291  0.8751 -1.0658
  894MOL0     H20657   1.229   2.862   5.830  1.5442 -1.8469  1.0605
  894MOL0     H20658   1.163   2.778   5.615  2.2270 -2.6702  2.7681
  894MOL0     H20659   1.059   2.656   5.685  3.4786 -1.9167  1.7506
  894MOL0     H20660   0.996   2.945   5.763  2.9858 -0.0305 -1.2148
  894MOL0     H20661   0.885   2.805   5.730 -0.2596 -0.7351 -2.1133
  894MOL0     H20662   0.848   2.975   5.566  0.1199 -0.4305 -2.5550
  894MOL0     H20663   0.932   2.839   5.483  2.8934 -0.6900 -0.7098
  894MOL0     H20664   1.033   3.105   5.552  3.6579 -0.8304  2.0719
  894MOL0     H20665   1.149   2.990   5.510  1.2900  2.4908  3.1623
  894MOL0     H20666   0.891   3.037   5.326  0.4155  0.2099 -1.9223
  894MOL0     H20667   1.018   2.922   5.288 -2.8592 -0.1047 -1.7943
  894MOL0     H20668   1.029   3.136   5.171 -0.2382  0.9948 -0.1324
  894MOL0     H20669   1.059   3.228   5.303 -1.5087 -0.4217 -3.6141
  894MOL0     H20670   1.611   2.747   5.594  3.5425 -1.2872  0.0135
  894MOL0     H20671   1.808   2.611   5.571  0.3884 -0.1890  0.6194
  894MOL0     H20672   1.939   2.133   5.605 -0.5266  0.8819  0.4931
  894MOL0     H20673   2.129   1.960   5.601  0.3139  0.2224  1.5451
  894MOL0     H20674   2.703   1.646   4.387 -2.4968  0.0197  0.8778
  894MOL0     H20675   2.841   1.450   4.315  0.0795  1.0382  0.4762
  894MOL0     H20676   3.068   1.234   4.299  1.3872  1.3484  2.4816
  894MOL0     H20677   3.275   1.135   4.197  1.3260 -0.7168  0.5008
  894MOL0     H20678   3.484   1.011   4.166  2.4962 -2.9680 -2.5840
  894MOL0     H20679   3.334   0.975   4.067 -0.8602 -0.8915 -0.3277
  894MOL0     H20680   3.518   0.864   3.976 -2.7500  1.4217 -0.6016
  894MOL0     H20681   3.436   0.744   4.054 -4.1234  2.5242  0.0255
  894MOL0     H20682   3.619   0.785   4.259  2.1897 -4.1013  0.1499
  894MOL0     H20683   3.706   0.884   4.141 -1.3258  2.7537  2.3047
  894MOL0     H20684   3.658   0.666   3.997 -0.8472 -0.2219 -0.1297
  894MOL0     H20685   3.790   0.681   4.109  0.5133  0.3085 -2.2806
  894MOL0     H20686   3.541   0.403   4.317  0.3886 -0.3082  0.0509
  894MOL0     H20687   3.214   0.777   4.433  2.5449 -0.1388  1.5395
  894MOL0     H20688   2.934   0.795   4.570  1.9567 -4.0322  1.9859
  894MOL0     H20689   3.107   0.789   4.641  2.6060  1.7722 -0.6974
  894MOL0     H20690   2.991   0.909   4.679  1.8958 -1.8632  2.4597
  895MOL0     O20691   7.526   6.914   3.479 -0.0135  0.7391  0.0215
  895MOL0     C20692   7.463   6.860   3.385  0.2258 -0.6704  0.4429
  895MOL0     O20693   7.503   6.859   3.249  0.2162  0.0306  0.3408
  895MOL0     C20694   7.576   6.956   3.196  0.2129 -0.4137  0.1459
  895MOL0     C20695   7.571   7.090   3.240  0.2386  0.2193 -0.0977
  895MOL0     C20696   7.639   7.191   3.168  0.3494  0.1981  0.1844
  895MOL0     C20697   7.726   7.160   3.058  0.8310  0.8462 -0.5971
  895MOL0     O20698   7.809   7.244   2.986  0.3354  0.2818 -0.9036
  895MOL0     C20699   7.854   7.350   3.057 -0.8768  0.3192 -0.2868
  895MOL0     C20700   7.945   7.443   2.970 -0.0292 -0.6063 -1.3621
  895MOL0     C20701   7.995   7.570   3.043  0.5496 -0.9621 -0.3994
  895MOL0     C20702   8.118   7.527   3.134  0.2480  0.2247 -0.7513
  895MOL0     C20703   8.181   7.645   3.211 -0.2228 -0.2808  0.3301
  895MOL0     C20704   8.289   7.602   3.308 -0.2011  0.6511  0.4364
  895MOL0     C20705   8.361   7.720   3.370 -0.8014 -1.8601 -0.3338
  895MOL0     C20706   8.506   7.681   3.426  0.3871 -0.6921 -0.0389
  895MOL0     N20707   8.568   7.807   3.492 -0.5160 -0.3004 -0.0722
  895MOL0     C20708   8.576   7.934   3.438 -0.1569 -0.0897 -0.5122
  895MOL0     C20709   8.608   8.021   3.540  0.5843  0.0839 -0.3598
  895MOL0     C20710   8.644   8.176   3.509  0.3344  0.9573 -0.2137
  895MOL0     C20711   8.525   8.263   3.481  0.1632 -0.6129 -0.3042
  895MOL0     C20712   8.443   8.292   3.610  0.3024  0.5099  0.1923
  895MOL0     C20713   8.339   8.403   3.591  0.0886 -0.3145  0.4152
  895MOL0     O20714   8.398   8.527   3.646 -0.0233  0.4909 -0.3232
  895MOL0     C20715   8.317   8.635   3.635 -0.8068 -0.1775 -0.8728
  895MOL0     C20716   8.354   8.733   3.549  0.3274 -0.7796  0.5072
  895MOL0     C20717   8.272   8.847   3.532 -0.5515 -0.6898 -0.1650
  895MOL0     C20718   8.154   8.868   3.613 -0.8080 -0.0221 -1.4953
  895MOL0     C20719   8.066   8.982   3.594 -0.9935  0.4200 -0.1974
  895MOL0     O20720   8.094   9.054   3.477 -0.2070 -0.5265 -1.4568
  895MOL0     C20721   8.004   9.140   3.423  0.4759  0.4763 -0.0450
  895MOL0     C20722   7.865   9.138   3.453 -0.3484 -0.1922  0.1858
  895MOL0     C20723   7.785   9.231   3.401 -0.4329 -0.5773  0.2977
  895MOL0     C20724   7.828   9.346   3.327 -0.0980  0.5775  0.7936
  895MOL0     O20725   7.758   9.449   3.280  0.4081  0.3075  0.4013
  895MOL0     C20726   7.611   9.442   3.258 -0.1704  0.1414  0.0457
  895MOL0     C20727   7.596   9.432   3.099 -0.3005 -0.3085 -0.0323
  895MOL0     C20728   7.561   9.280   3.076  0.4838 -0.4029  0.0610
  895MOL0     C20729   7.578   9.248   2.925  1.0492  0.6708 -0.3729
  895MOL0     C20730   7.561   9.095   2.913  0.4596  0.2503 -0.3969
  895MOL0     C20731   7.560   9.050   2.762 -0.0019 -0.1159 -0.2947
  895MOL0     C20732   7.528   8.901   2.757  0.4558 -0.3631  0.1539
  895MOL0     C20733   7.514   8.847   2.619 -0.5566  0.6595 -0.1207
  895MOL0    Cl20734   7.653   8.841   2.511 -0.3685  0.0978 -0.0762
  895MOL0     C20735   7.967   9.354   3.298 -0.9492  1.1061 -1.3324
  895MOL0     C20736   8.056   9.247   3.341  0.9667  0.1061  0.0390
  895MOL0     O20737   7.992   9.010   3.689  0.4529 -0.0345  0.3492
  895MOL0     C20738   8.130   8.776   3.727 -0.2367 -0.2367 -0.6678
  895MOL0     C20739   8.210   8.660   3.727  0.1295  0.1946 -0.1109
  895MOL0     N20740   8.631   7.946   3.654 -0.1188  0.2210 -0.5850
  895MOL0     N20741   8.602   7.823   3.624  1.0977 -0.2206  0.3292
  895MOL0     C20742   7.735   7.025   3.022  0.7849 -0.7952 -0.7646
  895MOL0     C20743   7.659   6.926   3.093 -0.0200  0.0949 -0.7433
  895MOL0     C20744   7.347   6.780   3.426  0.5484  0.6281 -0.7923
  895MOL0     C20745   7.309   6.671   3.351  1.5245  0.6658 -0.0840
  895MOL0     C20746   7.199   6.598   3.399  0.0866  0.0739 -0.8667
  895MOL0     C20747   7.120   6.623   3.505  1.6567  0.0352 -0.5305
  895MOL0     O20748   7.006   6.537   3.508 -0.0640  0.4617 -0.3415
  895MOL0     C20749   6.934   6.538   3.627 -1.4442  0.0832 -0.1616
  895MOL0     C20750   7.011   6.468   3.744  0.2046  0.4359  0.1081
  895MOL0     C20751   7.040   6.323   3.706 -0.3017  0.7853  0.2479
  895MOL0     C20752   7.088   6.243   3.826  0.1162  1.0372 -0.2889
  895MOL0     C20753   7.069   6.093   3.815 -0.8598 -0.3628 -0.1987
  895MOL0     C20754   7.038   5.976   3.810  0.1370  0.4545 -0.2181
  895MOL0     C20755   7.156   6.734   3.572 -0.3620 -0.2487 -0.3562
  895MOL0     C20756   7.271   6.807   3.548  0.2901  0.4161 -0.4148
  895MOL0     C20757   7.301   6.922   3.643  0.3960  0.5922  0.5667
  895MOL0     H20758   7.509   7.124   3.322 -1.0361 -1.5379 -0.2908
  895MOL0     H20759   7.632   7.288   3.215 -1.9793  0.9724 -1.6015
  895MOL0     H20760   7.775   7.406   3.107  1.6195  3.8656  0.0868
  895MOL0     H20761   7.915   7.315   3.142  0.3181  4.3200  0.7218
  895MOL0     H20762   7.891   7.471   2.879 -1.9154  2.2050  0.4498
  895MOL0     H20763   8.029   7.375   2.954 -1.5984 -3.1796  0.4743
  895MOL0     H20764   7.922   7.632   3.096  3.6202 -0.3605  3.6322
  895MOL0     H20765   8.031   7.648   2.975 -1.1124 -0.7778 -1.1106
  895MOL0     H20766   8.081   7.464   3.215  1.3741 -1.4152 -1.4658
  895MOL0     H20767   8.191   7.472   3.074  1.3633  2.6156 -1.7130
  895MOL0     H20768   8.234   7.712   3.142 -1.9303  0.5692 -0.2050
  895MOL0     H20769   8.109   7.708   3.264 -2.4341 -2.6110  0.2181
  895MOL0     H20770   8.255   7.548   3.397 -3.0501  1.4323 -0.0949
  895MOL0     H20771   8.369   7.549   3.255  1.0038  1.1201  1.7134
  895MOL0     H20772   8.305   7.751   3.458 -0.7523 -1.5558 -0.4072
  895MOL0     H20773   8.366   7.803   3.299 -5.1755  0.5880  1.7873
  895MOL0     H20774   8.492   7.592   3.488 -1.3483 -0.9547 -0.7493
  895MOL0     H20775   8.569   7.644   3.345 -2.6997 -1.4334 -2.2820
  895MOL0     H20776   8.558   7.961   3.334 -0.5538  0.5296 -0.2859
  895MOL0     H20777   8.700   8.224   3.590 -1.2775 -1.0922  2.2607
  895MOL0     H20778   8.704   8.173   3.418  0.3295 -0.2862 -0.1971
  895MOL0     H20779   8.576   8.351   3.443  4.6906 -2.2744  1.2653
  895MOL0     H20780   8.450   8.245   3.403 -1.9831  1.6049  1.1033
  895MOL0     H20781   8.507   8.300   3.698 -0.9925 -4.2515  1.8995
  895MOL0     H20782   8.393   8.196   3.626 -2.4145  1.9950  1.2084
  895MOL0     H20783   8.254   8.374   3.653  0.5994 -2.1945  0.2783
  895MOL0     H20784   8.298   8.396   3.490 -0.0754 -5.4496  0.5883
  895MOL0     H20785   8.443   8.719   3.488 -0.2891  0.0439 -0.6137
  895MOL0     H20786   8.310   8.927   3.469  2.7533 -0.3699  2.0144
  895MOL0     H20787   7.819   9.058   3.512 -1.6229 -0.2531 -0.8441
  895MOL0     H20788   7.681   9.214   3.424  0.4059 -4.1568  2.2198
  895MOL0     H20789   7.553   9.365   3.311  1.4113 -1.0597  0.1324
  895MOL0     H20790   7.575   9.542   3.282  4.3248  1.9765  0.1082
  895MOL0     H20791   7.522   9.505   3.065  2.9713  2.1589 -2.5265
  895MOL0     H20792   7.691   9.463   3.056 -0.0473  1.6430  1.7540
  895MOL0     H20793   7.625   9.204   3.122 -0.2323 -1.6492 -0.9302
  895MOL0     H20794   7.459   9.259   3.110 -0.4738  1.0294 -1.7408
  895MOL0     H20795   7.667   9.290   2.878 -0.4718  5.2537  0.3967
  895MOL0     H20796   7.495   9.298   2.875  0.5638  0.1473 -0.1096
  895MOL0     H20797   7.470   9.062   2.963  0.1509 -1.0306 -1.7404
  895MOL0     H20798   7.650   9.051   2.959 -0.2556 -1.4970 -0.6303
  895MOL0     H20799   7.487   9.106   2.703 -1.9901 -2.1070  0.1522
  895MOL0     H20800   7.660   9.066   2.720  1.2294 -3.9012  0.7880
  895MOL0     H20801   7.431   8.880   2.803  0.1184 -0.0200 -0.3862
  895MOL0     H20802   7.610   8.852   2.812  3.6302  1.7708 -2.2866
  895MOL0     H20803   7.468   8.749   2.609  2.9567 -1.0678 -0.9580
  895MOL0     H20804   7.435   8.909   2.575  0.2466  2.3080  0.6605
  895MOL0     H20805   8.004   9.438   3.240 -3.1620  2.7493 -0.5177
  895MOL0     H20806   8.162   9.259   3.318  0.3827  1.9779 -1.9400
  895MOL0     H20807   8.045   8.784   3.793 -0.0991  0.7369 -0.5902
  895MOL0     H20808   8.214   8.583   3.804  1.4688  1.9827  1.6913
  895MOL0     H20809   7.809   7.010   2.944 -0.0526 -2.3767 -1.2983
  895MOL0     H20810   7.674   6.819   3.080  0.0468  0.0595 -0.3856
  895MOL0     H20811   7.363   6.636   3.264  0.2346 -1.2693 -0.1701
  895MOL0     H20812   7.173   6.512   3.338 -0.3882  1.0087 -2.0335
  895MOL0     H20813   6.843   6.478   3.615 -1.4328  0.3385 -1.7600
  895MOL0     H20814   6.900   6.638   3.652 -3.0763 -0.3494 -0.5216
  895MOL0     H20815   6.954   6.470   3.837  0.9537  0.5330  0.5719
  895MOL0     H20816   7.105   6.516   3.771  0.1948  1.0283 -0.8755
  895MOL0     H20817   7.118   6.318   3.629  0.0969 -1.5196  0.7310
  895MOL0     H20818   6.959   6.269   3.657  0.6749 -1.7916  1.2858
  895MOL0     H20819   7.195   6.247   3.847  0.3777 -0.4893 -1.1994
  895MOL0     H20820   7.039   6.274   3.919 -2.7451  1.7291 -1.8974
  895MOL0     H20821   7.014   5.874   3.831  2.0668  0.0365  0.1888
  895MOL0     H20822   7.111   6.762   3.667 -0.4435  1.7897 -0.9344
  895MOL0     H20823   7.216   6.949   3.707  0.0637  2.1482 -0.4598
  895MOL0     H20824   7.382   6.897   3.713  1.2795 -1.0018 -0.9741
  895MOL0     H20825   7.330   7.016   3.595  1.6207 -0.1034 -0.0808
  896MOL0     O20826   8.619   3.979   8.828  0.5464 -0.3624 -0.0705
  896MOL0     C20827   8.602   4.056   8.740  0.4497 -0.9492  0.2313
  896MOL0     O20828   8.525   4.165   8.743  0.7157  0.7046 -0.2029
  896MOL0     C20829   8.488   4.216   8.867 -0.3446  0.2220 -0.5651
  896MOL0     C20830   8.356   4.191   8.934 -0.2877  0.0832 -0.3977
  896MOL0     C20831   8.330   4.262   9.050  1.0695 -0.4542  0.9124
  896MOL0     C20832   8.421   4.350   9.113 -0.3755  0.7223  0.2094
  896MOL0     O20833   8.383   4.436   9.208  0.1061 -0.2609 -0.7569
  896MOL0     C20834   8.299   4.377   9.313  0.7320  0.8827 -0.3690
  896MOL0     C20835   8.293   4.469   9.430  0.1391  0.5849 -0.6574
  896MOL0     C20836   8.200   4.590   9.394 -0.3657 -0.0354  0.2658
  896MOL0     C20837   8.139   4.655   9.513 -0.2776 -0.2841 -0.7290
  896MOL0     C20838   8.059   4.777   9.464  1.6709  0.6848 -1.6589
  896MOL0     C20839   8.142   4.879   9.379  0.3286 -0.6262  0.1398
  896MOL0     C20840   8.088   5.022   9.384 -0.4783  0.2797 -0.1074
  896MOL0     C20841   8.133   5.095   9.515 -0.2498  0.0016 -0.1288
  896MOL0     N20842   8.041   5.191   9.573 -0.1270 -0.7091  0.0888
  896MOL0     C20843   7.955   5.262   9.495 -0.4309 -0.3349  0.0234
  896MOL0     C20844   7.893   5.364   9.568  0.4144  0.5359 -0.7855
  896MOL0     C20845   7.813   5.493   9.547  0.6355 -0.0776 -0.6551
  896MOL0     C20846   7.679   5.467   9.479  0.2069  0.1273  0.3912
  896MOL0     C20847   7.578   5.370   9.558 -0.5572  0.5876  0.2398
  896MOL0     C20848   7.438   5.376   9.510  0.0517 -0.2106  0.3106
  896MOL0     O20849   7.357   5.295   9.581  0.5874  0.5586  0.9573
  896MOL0     C20850   7.219   5.314   9.601 -0.2179 -0.2530 -0.5992
  896MOL0     C20851   7.160   5.392   9.507  0.8870  0.3787  0.2040
  896MOL0     C20852   7.018   5.406   9.512  0.5713 -0.3627  0.5153
  896MOL0     C20853   6.945   5.345   9.625 -0.6373  0.8045  0.9105
  896MOL0     C20854   6.805   5.343   9.635 -0.8363  0.1606 -1.7586
  896MOL0     O20855   6.752   5.322   9.764 -0.2541  0.4793  0.3252
  896MOL0     C20856   6.614   5.317   9.788  0.5534  0.2035  0.3997
  896MOL0     C20857   6.555   5.208   9.865  0.5287 -0.6847  0.2788
  896MOL0     C20858   6.419   5.215   9.910 -0.8294 -0.1022 -0.3611
  896MOL0     C20859   6.342   5.329   9.890 -0.5214 -0.4478  0.7543
  896MOL0     O20860   6.218   5.346   9.929  0.8011  0.0794  0.1105
  896MOL0     C20861   6.125   5.234   9.892  0.0252 -0.5360  0.3374
  896MOL0     C20862   6.026   5.188   9.999  0.1021  0.1687  0.2817
  896MOL0     C20863   5.926   5.297  10.033  0.4609  0.3871  0.0110
  896MOL0     C20864   5.812   5.249  10.132 -0.0499 -0.2682 -0.4993
  896MOL0     C20865   5.687   5.322  10.125 -0.2940  0.5539 -0.4336
  896MOL0     C20866   5.587   5.279  10.242 -0.2739  0.3465 -0.6578
  896MOL0     C20867   5.448   5.353  10.233 -0.5651 -0.0177  0.1549
  896MOL0     C20868   5.354   5.327  10.112  0.8873  0.1917  0.3197
  896MOL0    Cl20869   5.332   5.152  10.081 -0.1568  0.2386  0.1401
  896MOL0     C20870   6.398   5.429   9.801  0.0615 -0.4629 -0.5885
  896MOL0     C20871   6.527   5.420   9.748  0.4895 -0.7028  0.3019
  896MOL0     O20872   6.744   5.343   9.533 -0.4964 -0.1058  0.0819
  896MOL0     C20873   7.024   5.275   9.724 -0.8236 -1.1041 -0.3146
  896MOL0     C20874   7.163   5.256   9.715  0.1257  0.0958  0.5255
  896MOL0     N20875   7.944   5.342   9.698  0.4658  0.2261  1.0136
  896MOL0     N20876   8.033   5.244   9.698  0.1514 -0.3076  0.8244
  896MOL0     C20877   8.546   4.365   9.053  0.0336  0.2581  0.4982
  896MOL0     C20878   8.574   4.299   8.937 -0.8491 -1.5994  0.0523
  896MOL0     C20879   8.661   4.041   8.604  0.1831 -0.2742 -0.9160
  896MOL0     C20880   8.591   4.093   8.493 -0.1550  0.1646 -0.2678
  896MOL0     C20881   8.630   4.067   8.362 -1.1460  0.1953  0.0507
  896MOL0     C20882   8.743   3.995   8.336  0.0058  0.4602  0.3313
  896MOL0     O20883   8.790   3.995   8.213  0.5100 -0.1486  0.6602
  896MOL0     C20884   8.838   3.857   8.167 -0.2629  0.2470  0.5091
  896MOL0     C20885   8.751   3.800   8.055 -0.1778 -0.6771  0.4215
  896MOL0     C20886   8.823   3.685   7.995  0.9358  0.0166  0.4190
  896MOL0     C20887   8.740   3.603   7.906  0.5559  0.2269 -0.5823
  896MOL0     C20888   8.703   3.659   7.777  0.3982  0.4715  0.3810
  896MOL0     C20889   8.647   3.713   7.685 -0.7876  0.7103  0.7679
  896MOL0     C20890   8.822   3.952   8.445 -0.4539 -0.2811 -0.9827
  896MOL0     C20891   8.781   3.965   8.577  0.1252  0.0996 -0.8821
  896MOL0     C20892   8.868   3.928   8.705  0.4062  0.4343 -0.0029
  896MOL0     H20893   8.284   4.134   8.876  1.7949 -0.4937 -2.6149
  896MOL0     H20894   8.235   4.256   9.102  2.3309  2.2486  3.8903
  896MOL0     H20895   8.196   4.374   9.276  0.5151  2.7289  0.0019
  896MOL0     H20896   8.332   4.281   9.353 -3.2135 -0.7667 -0.6277
  896MOL0     H20897   8.388   4.500   9.475 -1.5266  1.1893  2.7903
  896MOL0     H20898   8.250   4.403   9.506  0.3930  0.1414 -0.8935
  896MOL0     H20899   8.113   4.560   9.334  0.3058 -0.6737 -0.4062
  896MOL0     H20900   8.252   4.655   9.323  0.5407 -1.0408 -0.0008
  896MOL0     H20901   8.068   4.585   9.558 -2.0288  1.3497 -0.8382
  896MOL0     H20902   8.209   4.688   9.590 -4.5127  3.7863  1.8824
  896MOL0     H20903   7.980   4.746   9.396  2.7679  1.0462 -3.1650
  896MOL0     H20904   8.023   4.827   9.554 -0.7759 -3.0891 -0.3039
  896MOL0     H20905   8.245   4.881   9.414 -0.4304 -0.8245  2.5563
  896MOL0     H20906   8.147   4.844   9.276  0.3634  0.2768 -0.1755
  896MOL0     H20907   7.980   5.015   9.403  0.1153 -1.9143  3.4164
  896MOL0     H20908   8.118   5.078   9.295 -1.3874  0.2949 -0.4117
  896MOL0     H20909   8.143   5.020   9.594  1.5066  0.4121  0.0940
  896MOL0     H20910   8.232   5.136   9.493  1.3542 -2.9313  1.0978
  896MOL0     H20911   7.953   5.248   9.387  1.7119  3.4879 -0.6975
  896MOL0     H20912   7.803   5.535   9.647 -2.5673  0.0398 -0.9080
  896MOL0     H20913   7.863   5.568   9.485 -1.7508  1.6941 -0.5824
  896MOL0     H20914   7.623   5.561   9.473  0.8585  0.4287 -2.6612
  896MOL0     H20915   7.692   5.420   9.381  0.6892  0.3957  0.3239
  896MOL0     H20916   7.574   5.399   9.664 -1.8384  2.2753 -0.2240
  896MOL0     H20917   7.618   5.268   9.555 -3.0922 -0.4403 -0.5797
  896MOL0     H20918   7.439   5.338   9.407 -0.0595 -2.4632  1.0812
  896MOL0     H20919   7.409   5.481   9.514 -2.2748 -0.7928  0.4065
  896MOL0     H20920   7.215   5.419   9.417 -0.2344  2.0096 -0.0596
  896MOL0     H20921   6.968   5.464   9.435  3.2008  2.1412  0.5518
  896MOL0     H20922   6.624   5.128   9.887  1.1135 -0.6912 -1.4408
  896MOL0     H20923   6.378   5.132   9.966  0.8033 -0.2013  0.7786
  896MOL0     H20924   6.072   5.259   9.800 -0.5578 -2.2849  0.1610
  896MOL0     H20925   6.184   5.152   9.852  0.2246  0.1895 -0.9074
  896MOL0     H20926   5.973   5.094   9.982 -1.7384  1.2041  0.0949
  896MOL0     H20927   6.078   5.163  10.092  1.9652 -0.1616 -0.7800
  896MOL0     H20928   5.969   5.392  10.066 -2.6742  1.9602 -0.1041
  896MOL0     H20929   5.870   5.307   9.939 -3.6719  0.9440  2.3009
  896MOL0     H20930   5.836   5.244  10.239 -2.2099  3.6096  0.3832
  896MOL0     H20931   5.787   5.146  10.105 -2.6718 -0.0279  0.6911
  896MOL0     H20932   5.644   5.317  10.024  0.8501 -0.2988 -0.8882
  896MOL0     H20933   5.713   5.426  10.146 -0.1110  0.4588 -0.1915
  896MOL0     H20934   5.558   5.173  10.246  0.9632  0.0318  0.6697
  896MOL0     H20935   5.628   5.308  10.339  1.0405 -1.0719 -0.7491
  896MOL0     H20936   5.471   5.458  10.253  0.4755 -0.4646  1.4340
  896MOL0     H20937   5.396   5.309  10.319 -0.4819  0.1775  0.3077
  896MOL0     H20938   5.254   5.360  10.142  0.3378 -0.0396 -1.2022
  896MOL0     H20939   5.384   5.381  10.022 -0.5717  2.0308  0.8727
  896MOL0     H20940   6.328   5.508   9.775 -1.4299 -1.1785  1.0386
  896MOL0     H20941   6.565   5.507   9.696 -1.8532  0.1484 -0.1358
  896MOL0     H20942   6.968   5.229   9.805  1.4458 -2.4211  0.6365
  896MOL0     H20943   7.225   5.205   9.788 -1.6586  1.1927  2.9501
  896MOL0     H20944   8.625   4.418   9.105 -1.4863 -0.4500  3.7631
  896MOL0     H20945   8.676   4.301   8.899 -0.4207  0.2919  1.1802
  896MOL0     H20946   8.495   4.143   8.503 -0.7918 -1.1384  0.2914
  896MOL0     H20947   8.570   4.105   8.280  0.5869 -0.2532 -1.4955
  896MOL0     H20948   8.835   3.785   8.249  1.3229  1.9987  2.1906
  896MOL0     H20949   8.946   3.862   8.149  0.5725  3.0665  4.8759
  896MOL0     H20950   8.730   3.873   7.977 -0.0222 -0.2510  0.7727
  896MOL0     H20951   8.656   3.773   8.103  0.0968 -0.9290  0.8241
  896MOL0     H20952   8.845   3.608   8.070 -0.4332 -1.0413 -0.2140
  896MOL0     H20953   8.920   3.713   7.954  1.0086  0.6621  1.0126
  896MOL0     H20954   8.808   3.522   7.878 -2.2543 -3.1645  1.5254
  896MOL0     H20955   8.657   3.561   7.963  1.6928 -2.4650 -0.7610
  896MOL0     H20956   8.587   3.764   7.612 -2.1651  1.9675  2.6877
  896MOL0     H20957   8.923   3.916   8.427  0.4154  1.1676  0.7831
  896MOL0     H20958   8.962   3.879   8.680 -0.7394 -1.2154 -1.2275
  896MOL0     H20959   8.894   4.020   8.759 -0.4160 -0.0131  1.1988
  896MOL0     H20960   8.811   3.861   8.769  1.6155 -0.8901 -0.2754
  897MOL0     O20961   9.335   3.007   7.436 -0.4957 -0.7634 -0.2776
  897MOL0     C20962   9.403   3.084   7.364  0.3177 -0.0747  0.0373
  897MOL0     O20963   9.386   3.098   7.232 -0.4535 -0.7716 -0.1702
  897MOL0     C20964   9.296   3.021   7.169 -0.2447 -1.0283 -0.0471
  897MOL0     C20965   9.352   2.899   7.110  0.1067  0.4600 -0.6232
  897MOL0     C20966   9.261   2.795   7.072 -0.6735 -0.5989  0.0885
  897MOL0     C20967   9.125   2.820   7.066 -0.2506 -0.1925  0.4570
  897MOL0     O20968   9.044   2.733   7.009  0.8357 -0.5424 -0.5419
  897MOL0     C20969   8.957   2.660   7.093 -0.3548 -0.4610 -0.1356
  897MOL0     C20970   8.956   2.511   7.058 -0.1458  0.1885  0.2866
  897MOL0     C20971   9.095   2.442   7.059  0.3910  0.3563 -0.5978
  897MOL0     C20972   9.071   2.298   7.005  0.1348  1.0138  0.4111
  897MOL0     C20973   9.205   2.219   7.029  0.4446  0.3599 -0.1416
  897MOL0     C20974   9.196   2.085   6.955 -1.2677 -0.4492  0.1142
  897MOL0     C20975   9.325   2.009   6.997 -0.0612  1.0546  0.2204
  897MOL0     C20976   9.318   1.867   6.937 -0.4031 -0.3285 -0.6734
  897MOL0     N20977   9.439   1.781   6.952  0.3605 -0.9287  0.1779
  897MOL0     C20978   9.480   1.695   6.860  0.5999  0.8645  0.4606
  897MOL0     C20979   9.589   1.639   6.908  0.3193 -0.5187  0.0106
  897MOL0     C20980   9.694   1.565   6.821  0.2989 -0.1636  0.0449
  897MOL0     C20981   9.675   1.556   6.663 -0.4454  0.2100  0.1309
  897MOL0     C20982   9.777   1.632   6.583  0.0291 -0.7661 -1.6853
  897MOL0     C20983   9.800   1.778   6.631 -0.3129 -0.6418  0.8935
  897MOL0     O20984   9.671   1.847   6.604 -0.1912 -0.4513 -0.3607
  897MOL0     C20985   9.648   1.980   6.639 -0.2571 -0.3623  0.5891
  897MOL0     C20986   9.522   2.021   6.662  0.2630 -0.1238 -0.0814
  897MOL0     C20987   9.478   2.161   6.669 -0.7315  0.5609  0.6425
  897MOL0     C20988   9.580   2.257   6.665  0.0668  0.4737 -0.6038
  897MOL0     C20989   9.556   2.401   6.672  0.6090 -0.1447 -0.9235
  897MOL0     O20990   9.482   2.469   6.585 -0.4786  0.0399  0.0750
  897MOL0     C20991   9.451   2.600   6.601  0.5102 -0.4057 -0.0126
  897MOL0     C20992   9.439   2.667   6.726 -0.4598 -0.5971  0.1646
  897MOL0     C20993   9.408   2.799   6.735 -0.3956 -0.7417 -0.0920
  897MOL0     C20994   9.368   2.870   6.625  1.1855  0.3789  0.2586
  897MOL0     O20995   9.344   3.002   6.655 -0.2669  0.0122 -0.0421
  897MOL0     C20996   9.336   3.096   6.548 -0.4428  0.8921  0.3482
  897MOL0     C20997   9.319   3.241   6.597 -1.3874  0.2527 -0.1882
  897MOL0     C20998   9.427   3.271   6.719 -0.3536  0.1965  0.6456
  897MOL0     C20999   9.394   3.401   6.792  1.0873 -0.2259 -1.3166
  897MOL0     C21000   9.290   3.380   6.905  1.1519  0.1020  0.2052
  897MOL0     C21001   9.279   3.508   6.976 -0.1464 -0.8591 -0.2606
  897MOL0     C21002   9.217   3.476   7.111  0.1903 -0.9902  0.0279
  897MOL0     C21003   9.135   3.595   7.143  0.6651  0.5715 -0.2460
  897MOL0    Cl21004   8.978   3.608   7.042 -0.0982 -0.1707  0.2213
  897MOL0     C21005   9.378   2.812   6.497  0.9072  0.0039  0.1269
  897MOL0     C21006   9.430   2.675   6.485  0.0102 -0.5650 -0.9066
  897MOL0     O21007   9.616   2.444   6.771  0.3402 -0.7601 -0.9719
  897MOL0     C21008   9.713   2.213   6.652 -0.1373  0.1585 -0.7055
  897MOL0     C21009   9.751   2.078   6.632  1.3282 -0.0860  0.2291
  897MOL0     N21010   9.611   1.670   7.041  1.5868 -0.2413  0.7024
  897MOL0     N21011   9.520   1.758   7.062  0.2550 -0.0630  0.5211
  897MOL0     C21012   9.071   2.940   7.123  0.3763  0.0464  0.1407
  897MOL0     C21013   9.150   3.038   7.186  0.0965  0.4246 -0.3162
  897MOL0     C21014   9.520   3.147   7.432  0.5730  0.7030  0.0954
  897MOL0     C21015   9.501   3.199   7.565  0.6678  0.7298  0.6288
  897MOL0     C21016   9.606   3.246   7.638 -0.0498  0.5804  0.8629
  897MOL0     C21017   9.734   3.241   7.587  0.3177 -0.1928 -0.4547
  897MOL0     O21018   9.845   3.285   7.648  0.2492  0.2044 -0.1054
  897MOL0     C21019   9.843   3.321   7.783 -0.0040  0.2940 -0.1657
  897MOL0     C21020   9.963   3.254   7.851  0.0606  0.2904  0.6899
  897MOL0     C21021   9.925   3.257   8.004  0.5606  0.5935  0.1520
  897MOL0     C21022   9.892   3.385   8.074 -0.0555 -0.4882 -0.2871
  897MOL0     C21023  10.000   3.489   8.067 -1.0931  0.3166  0.1501
  897MOL0     C21024  10.077   3.580   8.060 -0.7220 -0.4515  0.6746
  897MOL0     C21025   9.756   3.206   7.454 -0.2314  0.3531 -0.0439
  897MOL0     C21026   9.650   3.155   7.374 -0.3085 -1.3633  0.1549
  897MOL0     C21027   9.675   3.114   7.235  0.6715  1.2846 -0.2067
  897MOL0     H21028   9.459   2.882   7.116 -0.0620 -0.0459  1.6698
  897MOL0     H21029   9.297   2.702   7.029  4.8327  0.4495  1.6952
  897MOL0     H21030   8.979   2.667   7.200 -2.1957 -4.9371  0.7667
  897MOL0     H21031   8.857   2.704   7.085 -0.2826 -0.3238 -0.2801
  897MOL0     H21032   8.922   2.506   6.954 -0.8777 -0.4071  0.5403
  897MOL0     H21033   8.882   2.461   7.121  0.1629 -1.8741 -0.8873
  897MOL0     H21034   9.135   2.449   7.161 -0.0006 -2.7883 -0.1344
  897MOL0     H21035   9.169   2.481   6.988  2.4772 -3.7463 -0.9669
  897MOL0     H21036   8.990   2.251   7.061  3.3644 -0.6562  4.1327
  897MOL0     H21037   9.058   2.298   6.896 -0.3545  0.0400  0.4492
  897MOL0     H21038   9.297   2.277   7.021  0.0857  1.2149  1.4103
  897MOL0     H21039   9.186   2.201   7.136 -2.4041  2.6240 -0.1396
  897MOL0     H21040   9.107   2.026   6.978 -1.9576  0.0984 -1.0657
  897MOL0     H21041   9.200   2.098   6.846 -0.2062  0.1965  0.2177
  897MOL0     H21042   9.321   2.005   7.106  2.3491 -4.0733  0.4427
  897MOL0     H21043   9.417   2.061   6.969  1.4570 -1.4256  0.3306
  897MOL0     H21044   9.229   1.812   6.969 -2.5725  2.7729 -0.9185
  897MOL0     H21045   9.297   1.879   6.830 -1.0740 -0.0302 -0.5137
  897MOL0     H21046   9.442   1.688   6.759  1.1174 -1.1918  0.3660
  897MOL0     H21047   9.785   1.620   6.847 -1.6737  3.3484  0.1362
  897MOL0     H21048   9.699   1.461   6.856 -2.9312 -1.0544 -1.6572
  897MOL0     H21049   9.676   1.458   6.614  3.2319  1.4842 -2.8252
  897MOL0     H21050   9.581   1.606   6.637  0.0969  0.7687 -0.7956
  897MOL0     H21051   9.768   1.614   6.476 -3.4476 -0.0460 -1.6491
  897MOL0     H21052   9.875   1.585   6.595 -0.7660 -1.8139  1.8519
  897MOL0     H21053   9.881   1.820   6.570 -0.7871  2.7589  2.3860
  897MOL0     H21054   9.840   1.793   6.732  2.1282 -2.9649  0.4082
  897MOL0     H21055   9.450   1.941   6.647  0.9397 -0.5157 -1.4251
  897MOL0     H21056   9.373   2.187   6.670 -1.0078 -0.4959  1.7209
  897MOL0     H21057   9.437   2.611   6.818 -2.4096 -0.7969  0.0327
  897MOL0     H21058   9.396   2.852   6.829 -0.1303 -2.2060  0.8118
  897MOL0     H21059   9.427   3.092   6.487  0.9548  2.6497  2.1934
  897MOL0     H21060   9.248   3.084   6.484  1.1081  0.2966 -1.7620
  897MOL0     H21061   9.331   3.314   6.517 -3.1880  1.0981  0.2622
  897MOL0     H21062   9.214   3.242   6.628 -1.4644  0.6882 -0.4553
  897MOL0     H21063   9.428   3.187   6.789 -0.4510 -0.0692  0.3282
  897MOL0     H21064   9.523   3.280   6.668 -0.6950 -0.4952 -0.1311
  897MOL0     H21065   9.370   3.473   6.713  3.0930  0.6812 -1.1572
  897MOL0     H21066   9.485   3.437   6.841 -0.6562 -0.5504  2.5080
  897MOL0     H21067   9.315   3.306   6.982 -2.6268 -0.3497  1.2134
  897MOL0     H21068   9.187   3.353   6.880  1.7795 -2.9638  0.5607
  897MOL0     H21069   9.373   3.547   7.015 -0.1398  0.2280 -1.2937
  897MOL0     H21070   9.227   3.595   6.934  0.9675  1.1968  2.3845
  897MOL0     H21071   9.295   3.457   7.185  0.3815  0.5678  0.2626
  897MOL0     H21072   9.168   3.379   7.121 -4.3449  1.2308  2.8637
  897MOL0     H21073   9.099   3.580   7.246  0.3837 -0.9661 -0.5491
  897MOL0     H21074   9.204   3.680   7.138  4.4488 -2.2969 -1.3465
  897MOL0     H21075   9.353   2.865   6.406  2.3280  0.5654  0.0297
  897MOL0     H21076   9.457   2.645   6.384  1.5801 -0.3467 -0.5837
  897MOL0     H21077   9.789   2.290   6.645  2.7158 -2.1390  2.0868
  897MOL0     H21078   9.856   2.050   6.623  2.1249  2.1585  1.7100
  897MOL0     H21079   8.962   2.943   7.120  0.3986  0.4833 -2.7078
  897MOL0     H21080   9.107   3.124   7.237 -1.8767 -0.1594 -0.8823
  897MOL0     H21081   9.403   3.194   7.611 -0.5545 -1.3575 -1.9202
  897MOL0     H21082   9.586   3.290   7.735 -4.5493 -2.3703  1.5411
  897MOL0     H21083   9.751   3.291   7.834  0.1270  2.0618  1.1720
  897MOL0     H21084   9.859   3.427   7.799  1.9623  0.3080 -1.7974
  897MOL0     H21085  10.056   3.308   7.830 -1.1582  2.0718 -0.3845
  897MOL0     H21086   9.975   3.156   7.805  1.2267  2.1103 -3.2506
  897MOL0     H21087  10.005   3.197   8.047  0.7077 -0.5504 -1.5731
  897MOL0     H21088   9.833   3.197   8.005 -1.0830  2.9503 -0.6211
  897MOL0     H21089   9.813   3.433   8.016  1.5275 -2.1706 -4.1324
  897MOL0     H21090   9.857   3.356   8.174  0.2594 -0.9459 -0.3071
  897MOL0     H21091  10.122   3.677   8.069 -1.2689  0.1108 -1.7035
  897MOL0     H21092   9.856   3.214   7.415  0.2391  2.2252  1.3727
  897MOL0     H21093   9.781   3.091   7.220  0.0063 -1.6892 -1.2290
  897MOL0     H21094   9.625   3.019   7.211 -1.9050  2.6298 -0.4634
  897MOL0     H21095   9.643   3.182   7.157 -0.3915  1.0437  0.0107
  898MOL0     O21096   7.305   1.154   7.775  0.6914 -0.0100  0.0197
  898MOL0     C21097   7.385   1.081   7.828  0.4847  0.4969  0.5744
  898MOL0     O21098   7.435   0.962   7.768 -0.7863 -0.6711  0.3261
  898MOL0     C21099   7.383   0.944   7.646 -0.1303 -0.4112  0.2202
  898MOL0     C21100   7.274   0.854   7.627 -0.1901  0.0248 -0.5874
  898MOL0     C21101   7.208   0.850   7.505  0.1099 -1.0736  0.5613
  898MOL0     C21102   7.242   0.927   7.394 -0.2556  0.5598  0.9100
  898MOL0     O21103   7.173   0.918   7.271  0.2909  0.2922  0.2694
  898MOL0     C21104   7.152   1.038   7.195  0.4555  0.1078  0.4081
  898MOL0     C21105   7.042   1.025   7.087 -0.2144  0.3320 -0.5298
  898MOL0     C21106   6.910   0.962   7.144 -0.1447 -0.0478 -0.4720
  898MOL0     C21107   6.810   0.962   7.036 -0.1135  0.0974  1.0288
  898MOL0     C21108   6.679   0.901   7.080 -0.1838 -0.2314  0.5964
  898MOL0     C21109   6.673   0.749   7.076  0.6265  0.0298 -0.3550
  898MOL0     C21110   6.538   0.697   7.134 -0.4306  0.7702 -0.2794
  898MOL0     C21111   6.490   0.572   7.073  0.7346  0.1222  0.4556
  898MOL0     N21112   6.351   0.552   7.117 -0.2405 -0.9359 -0.6868
  898MOL0     C21113   6.292   0.443   7.186  0.2314 -0.4938  0.8024
  898MOL0     C21114   6.165   0.463   7.174  0.6135 -0.3042 -0.0402
  898MOL0     C21115   6.069   0.361   7.234 -0.7832 -1.6518  0.0002
  898MOL0     C21116   6.053   0.229   7.140 -0.7150 -0.0073 -0.7650
  898MOL0     C21117   6.026   0.254   6.996  1.1840 -0.2705  0.0094
  898MOL0     C21118   5.907   0.330   6.968 -0.2313  0.3501  0.3984
  898MOL0     O21119   5.782   0.260   6.991 -0.0703 -0.1841  0.1666
  898MOL0     C21120   5.762   0.134   6.947  0.5717 -0.0015 -0.2852
  898MOL0     C21121   5.775   0.109   6.811  0.8744 -1.1230  0.8684
  898MOL0     C21122   5.761  -0.014   6.756  0.0992 -0.4695  0.3258
  898MOL0     C21123   5.721  -0.122   6.838  0.1276 -0.0663  0.1692
  898MOL0     C21124   5.707  -0.260   6.783 -0.6064 -0.6675  0.6510
  898MOL0     O21125   5.714  -0.275   6.648 -0.7353  0.2902 -0.2972
  898MOL0     C21126   5.694  -0.409   6.605 -0.1477 -0.1161 -0.2902
  898MOL0     C21127   5.579  -0.490   6.636 -0.5130  1.0028  0.2216
  898MOL0     C21128   5.563  -0.609   6.559 -0.2201  0.3533  0.4677
  898MOL0     C21129   5.669  -0.660   6.483 -0.1095 -0.7452  0.5305
  898MOL0     O21130   5.674  -0.786   6.437 -0.8280  0.5424 -0.3826
  898MOL0     C21131   5.653  -0.889   6.534  0.1081 -0.5967  0.3347
  898MOL0     C21132   5.622  -1.019   6.459  0.0183 -0.2818 -0.5257
  898MOL0     C21133   5.592  -1.143   6.548 -0.7035 -0.1511  0.3642
  898MOL0     C21134   5.456  -1.137   6.614  0.2611 -0.9975  0.2381
  898MOL0     C21135   5.423  -1.258   6.694 -0.1570 -0.0068 -0.0003
  898MOL0     C21136   5.396  -1.388   6.615  0.1526 -0.5866 -0.0849
  898MOL0     C21137   5.398  -1.518   6.697 -0.6144 -1.0492 -1.0391
  898MOL0     C21138   5.387  -1.651   6.621 -0.1815 -0.2068  0.2090
  898MOL0    Cl21139   5.224  -1.659   6.551  0.1269  0.1697  0.1081
  898MOL0     C21140   5.778  -0.570   6.455 -0.2623  0.2065  0.0799
  898MOL0     C21141   5.782  -0.446   6.503 -0.5104  0.3685  0.0306
  898MOL0     O21142   5.709  -0.353   6.861 -0.0498 -0.0391  0.4543
  898MOL0     C21143   5.693  -0.101   6.976  0.4082  0.4331  0.2442
  898MOL0     C21144   5.703   0.031   7.026 -0.1374  0.4036  0.1274
  898MOL0     N21145   6.128   0.570   7.097  0.3129  0.4604 -0.4279
  898MOL0     N21146   6.242   0.623   7.060 -0.1542 -0.0059 -0.5066
  898MOL0     C21147   7.363   1.002   7.402 -0.4645 -0.0587 -0.3353
  898MOL0     C21148   7.429   1.012   7.525  0.7362 -0.3390  0.2267
  898MOL0     C21149   7.449   1.130   7.946  0.4085 -0.0868 -0.2906
  898MOL0     C21150   7.580   1.080   7.981  0.2726 -0.5745  1.6170
  898MOL0     C21151   7.653   1.137   8.077 -0.3437  1.1620  0.1968
  898MOL0     C21152   7.606   1.241   8.155  0.2924  0.2145  0.5017
  898MOL0     O21153   7.671   1.318   8.252 -0.0528  0.3618  0.3189
  898MOL0     C21154   7.805   1.291   8.305  0.2651  0.0562 -0.0118
  898MOL0     C21155   7.808   1.153   8.374  0.3031  0.2608 -0.7558
  898MOL0     C21156   7.686   1.154   8.480  0.4034  0.0009 -0.2443
  898MOL0     C21157   7.682   1.028   8.576 -0.1866 -0.6557  0.2337
  898MOL0     C21158   7.641   0.917   8.494 -0.7699 -0.6994 -0.3904
  898MOL0     C21159   7.610   0.815   8.431 -0.3707 -0.6198 -0.1386
  898MOL0     C21160   7.475   1.282   8.140 -0.3076  1.1465 -0.6302
  898MOL0     C21161   7.394   1.235   8.030 -0.7605 -0.3164 -0.7698
  898MOL0     C21162   7.258   1.301   8.023  0.1894 -1.2215  0.1811
  898MOL0     H21163   7.224   0.802   7.709 -1.7189 -1.5219 -2.3869
  898MOL0     H21164   7.124   0.781   7.507  0.4888 -1.5396  0.6725
  898MOL0     H21165   7.125   1.118   7.265 -0.7582 -1.2664  1.5796
  898MOL0     H21166   7.245   1.053   7.139  1.0208 -4.2085 -0.0880
  898MOL0     H21167   7.072   0.956   7.008  0.1125  0.3346 -0.4075
  898MOL0     H21168   7.023   1.124   7.046  0.5986 -0.1416 -2.1154
  898MOL0     H21169   6.872   1.020   7.228 -1.6579  0.1797 -1.2873
  898MOL0     H21170   6.930   0.862   7.184  1.8472  0.3964 -0.2516
  898MOL0     H21171   6.780   1.061   7.000  0.3614 -0.4179 -0.9276
  898MOL0     H21172   6.847   0.914   6.945  1.0331 -0.8045  1.9378
  898MOL0     H21173   6.647   0.938   7.178 -2.6001  0.8947 -0.5351
  898MOL0     H21174   6.593   0.927   7.018 -1.2538 -0.5158  1.9304
  898MOL0     H21175   6.689   0.713   6.974  0.3847  0.9612 -0.7289
  898MOL0     H21176   6.758   0.714   7.135  0.2109  1.1709  0.9629
  898MOL0     H21177   6.464   0.773   7.107  0.7402  0.9847 -3.2032
  898MOL0     H21178   6.541   0.683   7.243  3.1346 -0.0988 -0.3686
  898MOL0     H21179   6.482   0.586   6.965 -1.0276  3.5255  0.8869
  898MOL0     H21180   6.556   0.488   7.097  1.4705  1.0568  1.8696
  898MOL0     H21181   6.342   0.363   7.241  0.5428 -2.3669 -2.0159
  898MOL0     H21182   6.094   0.324   7.334 -1.4811 -0.7798  0.5086
  898MOL0     H21183   5.969   0.403   7.250 -0.8383 -2.3369  1.6806
  898MOL0     H21184   6.154   0.188   7.149 -1.5611 -1.8799  1.0000
  898MOL0     H21185   5.992   0.146   7.177 -1.5369 -0.1277 -2.3011
  898MOL0     H21186   6.012   0.163   6.937 -2.0980  1.4431 -2.1327
  898MOL0     H21187   6.110   0.292   6.937  0.6039  0.3366 -0.4249
  898MOL0     H21188   5.918   0.366   6.866 -1.2215 -0.3512  0.0305
  898MOL0     H21189   5.910   0.424   7.024  2.7023  0.0699  0.8797
  898MOL0     H21190   5.792   0.191   6.742  3.1084 -1.2464  1.1941
  898MOL0     H21191   5.787  -0.020   6.650  5.5063  1.1642  1.2392
  898MOL0     H21192   5.512  -0.461   6.716  0.3139  0.8077  0.9966
  898MOL0     H21193   5.464  -0.650   6.577 -0.5488  2.1021  3.1240
  898MOL0     H21194   5.728  -0.896   6.614 -3.0075 -0.9556  3.4881
  898MOL0     H21195   5.551  -0.869   6.570 -0.6861  3.3172 -3.2925
  898MOL0     H21196   5.538  -1.011   6.389 -0.1097 -0.6625 -0.4202
  898MOL0     H21197   5.712  -1.045   6.403 -0.3065 -0.7220 -0.8475
  898MOL0     H21198   5.604  -1.229   6.482  3.7792  1.2290 -0.9689
  898MOL0     H21199   5.670  -1.146   6.625 -1.7162 -1.5163  1.3760
  898MOL0     H21200   5.375  -1.116   6.544  0.8520  1.9104  0.2788
  898MOL0     H21201   5.455  -1.053   6.684 -0.3827 -1.3567  0.6597
  898MOL0     H21202   5.339  -1.235   6.761  0.9218 -1.7577  2.0739
  898MOL0     H21203   5.509  -1.269   6.760  2.4465 -0.0425 -3.1625
  898MOL0     H21204   5.298  -1.382   6.567 -0.5770  0.8342  1.5011
  898MOL0     H21205   5.472  -1.389   6.536  1.1346 -0.0386  0.8218
  898MOL0     H21206   5.314  -1.508   6.765  1.8169 -1.8085  2.3557
  898MOL0     H21207   5.490  -1.521   6.756 -1.1919 -1.9739 -0.1771
  898MOL0     H21208   5.468  -1.657   6.548 -0.6210 -1.7097 -0.1943
  898MOL0     H21209   5.397  -1.731   6.696  0.1724  1.6047  2.1836
  898MOL0     H21210   5.860  -0.618   6.402 -0.4984 -1.4176  1.1313
  898MOL0     H21211   5.859  -0.385   6.458  1.3603 -2.3262 -0.6845
  898MOL0     H21212   5.650  -0.182   7.034  0.7460  1.3663  1.8491
  898MOL0     H21213   5.654   0.056   7.119  2.0462  1.0362  1.1883
  898MOL0     H21214   7.399   1.052   7.312  1.7987 -2.2992 -0.7780
  898MOL0     H21215   7.518   1.074   7.523 -0.4948  1.5068 -0.0418
  898MOL0     H21216   7.609   0.989   7.930 -1.6003 -2.1075  3.0985
  898MOL0     H21217   7.754   1.102   8.097 -0.6406  0.7411  1.0378
  898MOL0     H21218   7.819   1.376   8.372 -2.1816  3.3646 -3.2890
  898MOL0     H21219   7.888   1.308   8.235  0.6562  2.7649  0.9783
  898MOL0     H21220   7.907   1.141   8.417  0.7509  1.0332 -1.5413
  898MOL0     H21221   7.798   1.076   8.297  1.3098  1.6054 -2.3149
  898MOL0     H21222   7.590   1.158   8.429 -0.6188 -2.3185  1.2871
  898MOL0     H21223   7.703   1.239   8.546  2.5034 -0.6314  0.1244
  898MOL0     H21224   7.780   1.014   8.622 -1.7020 -3.0883  3.0474
  898MOL0     H21225   7.612   1.045   8.658  2.1359  1.0509  2.0446
  898MOL0     H21226   7.565   0.737   8.372 -1.9712  0.9958 -1.1489
  898MOL0     H21227   7.429   1.347   8.214 -2.0139 -0.3362 -0.3226
  898MOL0     H21228   7.266   1.397   7.971 -0.2978 -1.1970  0.1377
  898MOL0     H21229   7.192   1.235   7.965  0.2912 -2.1193  1.0675
  898MOL0     H21230   7.225   1.336   8.121  0.3457  2.3433 -0.9051
  899MOL0     O21231   6.995   9.130   9.822 -0.2376 -0.7571 -0.3930
  899MOL0     C21232   7.100   9.194   9.793 -0.6684 -0.5478 -0.7203
  899MOL0     O21233   7.226   9.153   9.830 -0.1290 -1.3634 -0.1838
  899MOL0     C21234   7.235   9.051   9.923  0.3344 -0.6283  0.2411
  899MOL0     C21235   7.245   9.066  10.063  0.2468  0.7264 -0.0543
  899MOL0     C21236   7.265   8.951  10.145 -0.0579 -0.8142 -0.0887
  899MOL0     C21237   7.264   8.817  10.089 -0.1821 -0.5969  0.9228
  899MOL0     O21238   7.280   8.720  10.183 -0.1130  0.6627  0.7256
  899MOL0     C21239   7.256   8.585  10.142 -0.7010  0.3638 -0.3643
  899MOL0     C21240   7.232   8.498  10.263  0.6309 -0.0618  1.1224
  899MOL0     C21241   7.337   8.498  10.374  0.7482 -0.8115 -0.0833
  899MOL0     C21242   7.481   8.474  10.314 -0.5282 -0.2841 -0.2167
  899MOL0     C21243   7.578   8.446  10.430 -0.3648 -0.5478  0.2513
  899MOL0     C21244   7.620   8.585  10.498 -0.2025  0.7918 -0.0369
  899MOL0     C21245   7.713   8.578  10.624 -0.8632 -0.0371 -0.0195
  899MOL0     C21246   7.864   8.569  10.588  0.5517 -0.5282 -0.3081
  899MOL0     N21247   7.942   8.699  10.579 -0.4723  0.1337 -0.0737
  899MOL0     C21248   7.935   8.791  10.683 -0.0567 -0.0422  0.7429
  899MOL0     C21249   8.001   8.894  10.630 -0.2323  0.3839  0.0516
  899MOL0     C21250   8.010   9.019  10.702 -1.1638  0.6932 -0.1403
  899MOL0     C21251   7.881   9.076  10.760 -0.0791  0.0579 -0.4961
  899MOL0     C21252   7.764   9.097  10.656  1.0822 -0.6951 -1.3550
  899MOL0     C21253   7.659   9.181  10.712  0.6009 -1.3992 -0.8869
  899MOL0     O21254   7.525   9.124  10.684 -1.4143 -0.6063 -0.2641
  899MOL0     C21255   7.416   9.200  10.684 -0.1511  0.5395 -0.8674
  899MOL0     C21256   7.295   9.146  10.638  0.6515 -0.1845 -0.2102
  899MOL0     C21257   7.189   9.229  10.613 -0.2740  0.2023 -0.6240
  899MOL0     C21258   7.189   9.365  10.640  0.9505 -0.9734 -0.8245
  899MOL0     C21259   7.074   9.457  10.613  0.1230 -0.0214  0.1629
  899MOL0     O21260   7.092   9.584  10.658 -0.0002  0.3723  0.0882
  899MOL0     C21261   6.984   9.672  10.694 -0.2016  0.4268  0.0597
  899MOL0     C21262   7.008   9.772  10.787 -0.0065 -0.4655 -0.3136
  899MOL0     C21263   6.910   9.860  10.832  0.3952 -0.7970  0.5855
  899MOL0     C21264   6.772   9.847  10.802 -0.1405 -0.4394  0.3307
  899MOL0     O21265   6.670   9.923  10.849 -0.4777  0.7110 -0.2784
  899MOL0     C21266   6.683  10.048  10.926  0.6611  0.2311  0.9106
  899MOL0     C21267   6.550  10.094  10.997  0.5038 -0.2748  0.1369
  899MOL0     C21268   6.541  10.239  11.029  0.7365  0.1281  0.2589
  899MOL0     C21269   6.664  10.296  11.102  1.1990 -0.1586  0.3579
  899MOL0     C21270   6.649  10.434  11.160  0.0507 -0.3315 -0.1884
  899MOL0     C21271   6.767  10.508  11.230 -0.0117  0.0865 -0.6431
  899MOL0     C21272   6.758  10.650  11.282 -0.2207  0.6965  0.7568
  899MOL0     C21273   6.774  10.760  11.174 -0.5652  0.7201  0.7198
  899MOL0    Cl21274   6.665  10.758  11.031 -0.1591  0.4918 -0.7443
  899MOL0     C21275   6.737   9.739  10.721  0.4935 -0.6650 -0.4571
  899MOL0     C21276   6.844   9.655  10.667  0.6313 -0.7861 -0.0027
  899MOL0     O21277   6.975   9.421  10.548  0.0778  0.5171 -0.8386
  899MOL0     C21278   7.313   9.415  10.694  0.3524 -0.0474 -0.0364
  899MOL0     C21279   7.424   9.342  10.713  0.0585 -0.5725 -0.2919
  899MOL0     N21280   8.043   8.868  10.502  0.1470  0.4647  0.4053
  899MOL0     N21281   8.003   8.753  10.475 -0.8343  0.0340 -0.1928
  899MOL0     C21282   7.262   8.806   9.953  0.7499 -0.1375  0.5055
  899MOL0     C21283   7.244   8.920   9.867  0.5582 -0.1183 -0.8523
  899MOL0     C21284   7.091   9.307   9.693 -1.1830  0.8545 -0.2238
  899MOL0     C21285   6.984   9.383   9.710  0.6254  0.3926 -0.0501
  899MOL0     C21286   6.964   9.498   9.634  0.1225 -0.4809 -0.2987
  899MOL0     C21287   7.043   9.525   9.520  1.2021 -0.2168 -0.0864
  899MOL0     O21288   7.011   9.632   9.434 -0.0575 -0.4018 -0.1041
  899MOL0     C21289   6.937   9.595   9.322 -0.3926 -0.5784 -0.0272
  899MOL0     C21290   6.977   9.656   9.186 -0.9620  0.0597  1.0896
  899MOL0     C21291   7.021   9.805   9.181  0.6763  0.4667  1.0414
  899MOL0     C21292   7.033   9.841   9.037 -0.4499  0.5920  1.1163
  899MOL0     C21293   6.908   9.820   8.945 -0.3629 -0.6620 -0.4076
  899MOL0     C21294   6.818   9.783   8.871  0.6234  0.5561 -0.2633
  899MOL0     C21295   7.156   9.437   9.504 -0.2098 -0.4366  0.2050
  899MOL0     C21296   7.181   9.331   9.585  0.9436 -0.2136  0.8185
  899MOL0     C21297   7.311   9.256   9.555  0.7170 -0.5578 -0.5810
  899MOL0     H21298   7.254   9.164  10.108  1.7347 -0.3688  2.2894
  899MOL0     H21299   7.271   8.969  10.252  4.5146 -0.9577 -0.1254
  899MOL0     H21300   7.173   8.594  10.071  0.8548 -0.5961 -2.4120
  899MOL0     H21301   7.341   8.550  10.082 -1.5874 -0.7450 -1.0193
  899MOL0     H21302   7.220   8.393  10.237 -2.2017  0.7745 -1.5276
  899MOL0     H21303   7.131   8.524  10.296 -0.2260  1.0454 -2.0420
  899MOL0     H21304   7.322   8.428  10.457  2.7617  0.3676  1.3727
  899MOL0     H21305   7.331   8.596  10.423  2.3678 -1.1355  0.8304
  899MOL0     H21306   7.474   8.385  10.250  0.6596  0.5626 -1.5819
  899MOL0     H21307   7.521   8.554  10.250 -0.5628  1.5869  1.9852
  899MOL0     H21308   7.538   8.382  10.510 -2.2991  1.9073  1.3725
  899MOL0     H21309   7.666   8.402  10.381 -1.8337 -0.1988 -2.9245
  899MOL0     H21310   7.675   8.644  10.425  0.5602  2.6177  1.8882
  899MOL0     H21311   7.527   8.640  10.515 -2.8581 -2.6873 -1.9222
  899MOL0     H21312   7.681   8.498  10.691 -0.4872  1.3095  1.8475
  899MOL0     H21313   7.689   8.667  10.683 -4.8831 -1.7043  1.1898
  899MOL0     H21314   7.915   8.495  10.649  1.7031  0.5120  0.0298
  899MOL0     H21315   7.861   8.540  10.482 -0.1259  0.5106 -0.5921
  899MOL0     H21316   7.885   8.785  10.779 -3.0910  1.9564 -0.5466
  899MOL0     H21317   8.092   9.017  10.774 -0.4101  3.0159 -0.8611
  899MOL0     H21318   8.051   9.096  10.635  0.1089 -2.3944 -3.2229
  899MOL0     H21319   7.854   9.012  10.844 -2.7378 -0.1493 -1.4196
  899MOL0     H21320   7.917   9.168  10.809 -0.6738 -0.8348  1.7550
  899MOL0     H21321   7.728   9.000  10.619 -0.4233 -0.8922  0.4688
  899MOL0     H21322   7.804   9.145  10.566  0.1358  1.5426 -0.6514
  899MOL0     H21323   7.679   9.280  10.670  0.6849 -1.0958 -0.1448
  899MOL0     H21324   7.679   9.194  10.819 -2.5985  0.6082 -0.3960
  899MOL0     H21325   7.280   9.041  10.618 -4.1638  0.3740 -0.4957
  899MOL0     H21326   7.102   9.190  10.560 -0.8498 -0.0637  0.4869
  899MOL0     H21327   7.109   9.782  10.827 -0.0670  0.1058 -0.2952
  899MOL0     H21328   6.959   9.940  10.888  0.7317  0.5782 -1.5646
  899MOL0     H21329   6.760  10.023  11.000 -0.5546 -0.7112  1.8918
  899MOL0     H21330   6.726  10.129  10.866 -1.3395 -0.5001 -1.6898
  899MOL0     H21331   6.462  10.056  10.944  1.0868 -0.1744 -0.9311
  899MOL0     H21332   6.555  10.035  11.089 -2.7899 -1.3403 -0.2214
  899MOL0     H21333   6.519  10.309  10.947  1.8144  0.0514 -0.1195
  899MOL0     H21334   6.461  10.243  11.103  0.0308  0.1420 -0.4861
  899MOL0     H21335   6.743  10.306  11.026  1.5144  2.8598  0.9884
  899MOL0     H21336   6.694  10.221  11.177  2.7019  0.2538  0.2136
  899MOL0     H21337   6.557  10.432  11.219  0.2339 -1.6773  0.0838
  899MOL0     H21338   6.634  10.493  11.069  1.8674 -2.1897 -1.7838
  899MOL0     H21339   6.800  10.444  11.313  1.9992 -0.7660 -2.0227
  899MOL0     H21340   6.851  10.513  11.161  0.3110 -2.4140 -0.5492
  899MOL0     H21341   6.831  10.663  11.362 -0.3512  0.2538  0.9505
  899MOL0     H21342   6.666  10.666  11.338 -1.1073 -0.3398 -0.3300
  899MOL0     H21343   6.773  10.858  11.224  4.9775  2.1561 -1.3123
  899MOL0     H21344   6.867  10.766  11.117 -1.5812  2.0824 -0.9059
  899MOL0     H21345   6.632   9.720  10.700 -0.7382  3.3506  1.0846
  899MOL0     H21346   6.809   9.570  10.608  2.9835 -2.8261  1.3203
  899MOL0     H21347   7.316   9.521  10.718 -0.3211 -0.5310  2.5023
  899MOL0     H21348   7.506   9.396  10.760 -1.0158  1.5745 -0.7547
  899MOL0     H21349   7.266   8.702   9.921  0.8658 -0.1474  0.5542
  899MOL0     H21350   7.230   8.901   9.761 -0.3640 -0.5626 -0.6571
  899MOL0     H21351   6.914   9.363   9.790  0.1484 -3.2715 -1.2070
  899MOL0     H21352   6.894   9.571   9.671 -0.8434 -0.5236 -1.9479
  899MOL0     H21353   6.831   9.603   9.347  0.2170 -2.3725  3.8643
  899MOL0     H21354   6.952   9.488   9.302  0.3680 -0.6063  0.6370
  899MOL0     H21355   6.894   9.636   9.117 -2.6188  3.6352  1.8284
  899MOL0     H21356   7.059   9.594   9.150 -2.3728 -0.1075 -2.2780
  899MOL0     H21357   7.122   9.808   9.223  1.0561 -2.1981  0.5438
  899MOL0     H21358   6.958   9.877   9.234 -1.9069 -0.8078 -0.1136
  899MOL0     H21359   7.050   9.949   9.030 -2.4892  0.8742 -0.5671
  899MOL0     H21360   7.121   9.793   8.994 -0.2002  0.8446  1.3473
  899MOL0     H21361   6.737   9.744   8.812 -0.4664  0.9963  0.8776
  899MOL0     H21362   7.223   9.448   9.419 -0.9240 -3.5093 -0.8628
  899MOL0     H21363   7.370   9.261   9.648  0.5651  3.0696 -0.5616
  899MOL0     H21364   7.280   9.152   9.540  2.9865 -1.4339  0.3171
  899MOL0     H21365   7.376   9.283   9.471  1.2670 -0.4052 -0.1167
  900MOL0     O21366   8.753   2.443   8.335  0.2348  0.2325  0.3250
  900MOL0     C21367   8.818   2.420   8.438  0.4133 -0.3041 -0.3624
  900MOL0     O21368   8.946   2.378   8.446  0.6616 -0.8342 -0.3221
  900MOL0     C21369   9.001   2.331   8.329  0.3349  1.2318  0.3456
  900MOL0     C21370   9.101   2.392   8.263 -0.4718 -0.1948 -0.8981
  900MOL0     C21371   9.169   2.348   8.150 -0.2007 -0.1031 -0.5534
  900MOL0     C21372   9.142   2.222   8.101  0.7443  0.3459  0.5371
  900MOL0     O21373   9.199   2.168   7.991 -0.6910  0.2678  0.9939
  900MOL0     C21374   9.252   2.250   7.890 -0.9376 -0.0585 -0.1145
  900MOL0     C21375   9.225   2.205   7.746 -0.7593 -0.3300 -0.1944
  900MOL0     C21376   9.333   2.102   7.697  0.3877  0.9294 -0.3356
  900MOL0     C21377   9.266   2.000   7.601  0.7146 -0.1012  0.5667
  900MOL0     C21378   9.387   1.920   7.549  0.9323  0.1161 -0.1787
  900MOL0     C21379   9.311   1.801   7.483  0.0609 -0.7123  0.0574
  900MOL0     C21380   9.412   1.713   7.410  1.6242  0.0432 -0.2141
  900MOL0     C21381   9.359   1.590   7.355  0.8502 -0.0440  0.1102
  900MOL0     N21382   9.249   1.603   7.257 -0.7951 -0.6373 -0.0177
  900MOL0     C21383   9.123   1.629   7.302 -0.1727  0.4417  0.0986
  900MOL0     C21384   9.052   1.600   7.193 -0.4247 -1.0767 -0.2099
  900MOL0     C21385   8.908   1.643   7.199 -0.1353 -0.0001 -0.4112
  900MOL0     C21386   8.807   1.556   7.133 -0.1905  0.8050 -0.3670
  900MOL0     C21387   8.830   1.417   7.177  0.7873 -0.1286  0.3492
  900MOL0     C21388   8.719   1.325   7.131 -0.4285 -0.1282 -0.0814
  900MOL0     O21389   8.743   1.296   6.992  0.5532  0.0191  0.5664
  900MOL0     C21390   8.656   1.230   6.922  0.0334 -0.8085  0.9169
  900MOL0     C21391   8.696   1.208   6.791  0.0873 -0.5759  0.0331
  900MOL0     C21392   8.608   1.153   6.707  0.5631 -0.2474  0.3625
  900MOL0     C21393   8.478   1.106   6.744 -0.2837  0.2611  0.7072
  900MOL0     C21394   8.391   1.038   6.653 -0.0160  0.3941  0.8384
  900MOL0     O21395   8.275   0.991   6.715 -0.7069  0.3926  0.9367
  900MOL0     C21396   8.169   0.925   6.640 -0.6887 -0.6775  0.3856
  900MOL0     C21397   8.136   0.945   6.509  0.4101  0.1257  0.6243
  900MOL0     C21398   8.049   0.857   6.436 -0.0880 -0.9998 -0.1426
  900MOL0     C21399   7.984   0.756   6.505 -0.4982  0.2576 -0.4846
  900MOL0     O21400   7.882   0.693   6.439  0.1506  0.5578  0.0799
  900MOL0     C21401   7.932   0.572   6.380 -0.3927  0.0017 -0.5316
  900MOL0     C21402   8.031   0.582   6.256  1.4928 -0.2235 -0.0984
  900MOL0     C21403   7.971   0.684   6.152  1.0880  0.3422 -0.3885
  900MOL0     C21404   7.940   0.615   6.029  0.9961  0.3324  0.0379
  900MOL0     C21405   7.834   0.703   5.950  0.0768  0.4842 -0.4157
  900MOL0     C21406   7.874   0.714   5.803 -0.5674  0.0115 -0.1561
  900MOL0     C21407   7.761   0.771   5.713 -0.8466  0.1041  0.9036
  900MOL0     C21408   7.806   0.773   5.561  1.0464  0.0201  0.5099
  900MOL0    Cl21409   7.971   0.848   5.554  0.3073 -0.4783 -0.0730
  900MOL0     C21410   8.006   0.736   6.640 -0.1132  0.3035 -0.0156
  900MOL0     C21411   8.104   0.814   6.704  0.3589 -0.1154  0.3316
  900MOL0     O21412   8.423   1.022   6.532 -0.6676 -0.1583  0.2600
  900MOL0     C21413   8.452   1.114   6.884 -0.1871 -0.2974 -0.5078
  900MOL0     C21414   8.530   1.178   6.965 -0.6198  0.4880 -0.8300
  900MOL0     N21415   9.128   1.567   7.086  0.4212  0.2611 -0.5345
  900MOL0     N21416   9.249   1.580   7.123  0.0450 -0.7100  0.0655
  900MOL0     C21417   9.037   2.156   8.149 -0.5508  0.3555  0.0047
  900MOL0     C21418   8.967   2.199   8.264  1.4079  0.1230 -0.0534
  900MOL0     C21419   8.753   2.451   8.573 -0.4143  0.4791 -0.1620
  900MOL0     C21420   8.817   2.396   8.693  0.3355  0.5682 -0.5845
  900MOL0     C21421   8.759   2.393   8.815  0.2590  0.3650 -0.4639
  900MOL0     C21422   8.637   2.456   8.826  0.3233  0.0992 -0.3443
  900MOL0     O21423   8.590   2.460   8.956  0.1635 -0.0040 -0.5644
  900MOL0     C21424   8.453   2.445   8.983 -0.5619 -0.3859 -0.1973
  900MOL0     C21425   8.418   2.344   9.090  0.1346 -0.7231  0.2837
  900MOL0     C21426   8.470   2.381   9.232  0.3568 -0.0071 -0.2599
  900MOL0     C21427   8.628   2.401   9.234  0.2647 -0.0677 -0.2207
  900MOL0     C21428   8.703   2.278   9.208 -0.1740 -0.8356  0.6188
  900MOL0     C21429   8.765   2.176   9.196  0.3004  0.4454  0.5116
  900MOL0     C21430   8.581   2.522   8.716 -0.1128  0.5467 -1.4414
  900MOL0     C21431   8.632   2.516   8.590  0.0599  0.1004  1.0228
  900MOL0     C21432   8.557   2.590   8.472  0.3496  1.3386 -1.0311
  900MOL0     H21433   9.138   2.482   8.312 -0.2960 -0.7053 -0.0818
  900MOL0     H21434   9.237   2.421   8.107  0.5811 -1.2620 -1.3265
  900MOL0     H21435   9.220   2.355   7.888 -1.3193 -0.0544  2.6503
  900MOL0     H21436   9.356   2.243   7.921 -0.2926  0.5220 -1.9856
  900MOL0     H21437   9.224   2.294   7.682  0.3805  0.9807  1.5363
  900MOL0     H21438   9.127   2.158   7.734 -0.6923  0.1009 -3.3518
  900MOL0     H21439   9.367   2.036   7.778 -0.6122 -0.7061 -1.2048
  900MOL0     H21440   9.419   2.157   7.659  2.1336  0.4948  2.6156
  900MOL0     H21441   9.195   1.954   7.669 -2.3749  3.3943  0.0398
  900MOL0     H21442   9.214   2.033   7.511 -0.7229  1.0321  1.7730
  900MOL0     H21443   9.448   1.977   7.479 -0.0672  1.1440 -0.2441
  900MOL0     H21444   9.442   1.879   7.634 -1.3969 -0.4384  1.1594
  900MOL0     H21445   9.247   1.760   7.562 -0.9448  1.9782  0.7617
  900MOL0     H21446   9.239   1.839   7.410 -1.3283 -3.4328 -0.1368
  900MOL0     H21447   9.492   1.694   7.482  0.1819 -0.9338  1.1844
  900MOL0     H21448   9.457   1.760   7.321 -1.0221  0.2546 -1.5359
  900MOL0     H21449   9.438   1.533   7.306 -0.0404  1.2016 -2.9942
  900MOL0     H21450   9.333   1.528   7.442  0.2784 -1.0789 -0.7622
  900MOL0     H21451   9.091   1.659   7.401  1.1105  2.8314 -0.1399
  900MOL0     H21452   8.881   1.649   7.305 -0.2131  1.2393 -0.4786
  900MOL0     H21453   8.895   1.745   7.161 -1.3564  0.6533  1.5988
  900MOL0     H21454   8.706   1.589   7.158 -0.5681 -0.7375  0.2837
  900MOL0     H21455   8.807   1.541   7.024 -1.7692 -4.1425  0.0468
  900MOL0     H21456   8.830   1.413   7.287  0.8479 -0.9918  0.3224
  900MOL0     H21457   8.921   1.365   7.146  0.2620 -0.1250 -1.2444
  900MOL0     H21458   8.624   1.376   7.149  1.0060  2.0949  1.6702
  900MOL0     H21459   8.718   1.233   7.191  0.3341  1.4233  2.4577
  900MOL0     H21460   8.798   1.238   6.768 -0.5184 -0.3025 -2.7359
  900MOL0     H21461   8.630   1.137   6.602 -0.2674 -2.3381  0.4407
  900MOL0     H21462   8.190   1.023   6.457 -1.3520  0.4775 -0.7738
  900MOL0     H21463   8.023   0.890   6.336 -0.2561 -1.4726 -0.2587
  900MOL0     H21464   7.997   0.514   6.446 -1.8855 -1.1447 -0.0021
  900MOL0     H21465   7.849   0.503   6.360  0.3378 -0.6697 -1.3370
  900MOL0     H21466   8.119   0.634   6.295  2.0188 -1.9934  1.2320
  900MOL0     H21467   8.066   0.486   6.218  1.4959 -0.0123 -0.6358
  900MOL0     H21468   7.889   0.742   6.196  1.8765  0.1755  1.4042
  900MOL0     H21469   8.054   0.751   6.129  0.7064  2.8176  4.2368
  900MOL0     H21470   7.894   0.516   6.040 -0.8321  1.0379 -0.8012
  900MOL0     H21471   8.032   0.606   5.972  1.0817  1.6620 -0.0640
  900MOL0     H21472   7.825   0.803   5.993  0.5206  0.2154  0.3313
  900MOL0     H21473   7.738   0.653   5.967 -0.2568  1.6811  1.5421
  900MOL0     H21474   7.952   0.790   5.813 -1.2673  1.2098 -2.8960
  900MOL0     H21475   7.908   0.622   5.756  0.0133  0.0388  0.2000
  900MOL0     H21476   7.730   0.873   5.737  0.1606 -0.1731  3.7246
  900MOL0     H21477   7.681   0.698   5.728  1.0915 -1.8063  2.6572
  900MOL0     H21478   7.790   0.681   5.503  0.7213  1.5011 -1.8880
  900MOL0     H21479   7.732   0.845   5.525 -2.8115 -1.6779  4.1864
  900MOL0     H21480   7.948   0.661   6.692  2.5285 -2.9745 -1.4462
  900MOL0     H21481   8.133   0.784   6.804  0.1725 -1.1806  0.0710
  900MOL0     H21482   8.366   1.069   6.932 -0.8911  0.9236 -0.5940
  900MOL0     H21483   8.500   1.172   7.069 -1.3614  1.4662 -0.9707
  900MOL0     H21484   9.000   2.067   8.101  0.5889 -1.2496  1.9450
  900MOL0     H21485   8.884   2.137   8.294  0.1553  1.0485 -1.4428
  900MOL0     H21486   8.913   2.348   8.676 -1.1082 -4.3522  2.9242
  900MOL0     H21487   8.825   2.335   8.879  2.0676  1.3113 -1.3856
  900MOL0     H21488   8.404   2.420   8.889 -1.5145  0.7577 -0.0208
  900MOL0     H21489   8.419   2.540   9.024  0.6846  0.6659 -1.4710
  900MOL0     H21490   8.451   2.241   9.072 -1.6338 -1.2140 -0.3808
  900MOL0     H21491   8.310   2.344   9.077  0.3877  0.3357 -2.2309
  900MOL0     H21492   8.444   2.305   9.306  2.4619 -0.0350  0.5299
  900MOL0     H21493   8.418   2.476   9.249  1.0744  1.3590 -4.5684
  900MOL0     H21494   8.663   2.482   9.170  0.0280  1.3696  1.3991
  900MOL0     H21495   8.642   2.435   9.338  1.8598 -0.8914 -0.1258
  900MOL0     H21496   8.793   2.078   9.229  1.8830  1.3045  1.8963
  900MOL0     H21497   8.493   2.583   8.734 -0.7201 -0.7825  0.5186
  900MOL0     H21498   8.498   2.519   8.413 -0.4136 -1.6011  2.8689
  900MOL0     H21499   8.486   2.658   8.518  3.1052  1.8752  2.9868
  900MOL0     H21500   8.615   2.655   8.406  0.0154 -0.3327 -3.1177
  901MOL0     O21501   7.075   6.051   1.682  0.1521  0.0705  1.0633
  901MOL0     C21502   7.195   6.054   1.646 -0.4270 -0.5939 -0.8905
  901MOL0     O21503   7.261   5.944   1.616 -0.3169  0.1076  0.4876
  901MOL0     C21504   7.194   5.836   1.567 -0.1131  1.3933 -0.0045
  901MOL0     C21505   7.103   5.758   1.641  0.1267  0.1521 -0.0280
  901MOL0     C21506   7.027   5.653   1.592 -0.4600  0.2802 -1.0424
  901MOL0     C21507   7.060   5.611   1.466  0.5880  0.0755 -0.8400
  901MOL0     O21508   7.012   5.499   1.401 -0.6272 -1.0528  0.5723
  901MOL0     C21509   6.971   5.397   1.491 -0.5691  0.6931  1.2311
  901MOL0     C21510   6.941   5.274   1.404  0.4182 -0.9707 -0.1064
  901MOL0     C21511   6.946   5.149   1.502 -1.6179 -1.2952 -0.0137
  901MOL0     C21512   7.090   5.090   1.521  0.6983  0.1018  0.3155
  901MOL0     C21513   7.100   4.942   1.543  1.4671 -0.4556  0.6184
  901MOL0     C21514   7.233   4.912   1.581 -0.1424  0.3392 -0.7093
  901MOL0     C21515   7.329   4.918   1.445 -0.1269 -0.0815 -0.3509
  901MOL0     C21516   7.472   4.857   1.464  0.7944 -0.1674  0.6102
  901MOL0     N21517   7.470   4.713   1.487  0.7121 -0.0746 -1.1959
  901MOL0     C21518   7.485   4.618   1.387  0.5725 -1.4860 -0.5140
  901MOL0     C21519   7.506   4.503   1.447  0.1913  0.6634 -0.7216
  901MOL0     C21520   7.499   4.372   1.382 -0.2593 -0.0317 -0.4517
  901MOL0     C21521   7.352   4.329   1.360  0.3159  0.5282 -0.3395
  901MOL0     C21522   7.317   4.188   1.310  0.4334  0.7514  1.0957
  901MOL0     C21523   7.161   4.187   1.286 -1.1954  0.4498 -0.3023
  901MOL0     O21524   7.121   4.052   1.238  0.4368  0.0339  0.6384
  901MOL0     C21525   6.992   4.020   1.196  0.6306 -0.3447  0.6158
  901MOL0     C21526   6.886   4.115   1.191 -0.4070  1.2015 -0.8350
  901MOL0     C21527   6.757   4.072   1.151  0.9049 -0.4747  0.6725
  901MOL0     C21528   6.738   3.934   1.116  0.4461 -0.9731 -0.1503
  901MOL0     C21529   6.606   3.875   1.065 -0.2552 -0.0267 -0.6639
  901MOL0     O21530   6.613   3.752   1.014  0.0567  0.5286  0.1661
  901MOL0     C21531   6.502   3.712   0.939  0.1191  0.2444 -0.1574
  901MOL0     C21532   6.528   3.682   0.804 -0.2983  0.0080  0.4266
  901MOL0     C21533   6.432   3.643   0.716 -0.6111  0.0220  0.6637
  901MOL0     C21534   6.300   3.626   0.768 -0.4801 -0.9040  0.6753
  901MOL0     O21535   6.209   3.592   0.665  0.0606 -0.1497  0.1139
  901MOL0     C21536   6.085   3.523   0.695 -0.0860 -0.2377 -1.0456
  901MOL0     C21537   6.008   3.516   0.567  0.7287  0.0640  0.1866
  901MOL0     C21538   5.859   3.465   0.557  1.1071  0.2148 -0.4710
  901MOL0     C21539   5.825   3.417   0.415 -0.3457  1.2143  0.9218
  901MOL0     C21540   5.670   3.409   0.396  0.9366 -0.1035 -0.1544
  901MOL0     C21541   5.636   3.384   0.246 -0.7690 -0.2986  0.4011
  901MOL0     C21542   5.555   3.253   0.239  0.1101  0.2434  0.1571
  901MOL0     C21543   5.529   3.210   0.101  1.1309 -0.3986 -0.1750
  901MOL0    Cl21544   5.671   3.130   0.019 -0.5211  0.1835  0.1398
  901MOL0     C21545   6.265   3.669   0.901  0.3631 -0.1985 -0.5125
  901MOL0     C21546   6.368   3.710   0.987 -1.1775 -1.2582 -0.8374
  901MOL0     O21547   6.507   3.945   1.076  0.5801 -0.0350  0.4518
  901MOL0     C21548   6.850   3.845   1.117 -0.3761 -0.6854 -0.5868
  901MOL0     C21549   6.972   3.884   1.169 -0.1244 -0.4354  0.9801
  901MOL0     N21550   7.486   4.526   1.589  0.0320  0.3202 -0.5817
  901MOL0     N21551   7.468   4.647   1.610 -0.4901  0.5605  0.6946
  901MOL0     C21552   7.141   5.693   1.380 -0.0073 -0.3741 -0.5767
  901MOL0     C21553   7.197   5.808   1.434 -0.3463  0.2714  0.3843
  901MOL0     C21554   7.277   6.174   1.689 -0.4201 -0.5378 -0.1172
  901MOL0     C21555   7.228   6.279   1.770  0.1425  1.0827  0.3810
  901MOL0     C21556   7.303   6.388   1.806 -0.1378 -0.0905  0.0514
  901MOL0     C21557   7.427   6.411   1.752 -0.0288  0.8133  0.6980
  901MOL0     O21558   7.479   6.532   1.776 -0.0263  0.8298 -0.1655
  901MOL0     C21559   7.595   6.574   1.687  0.3212  0.6562 -0.2791
  901MOL0     C21560   7.591   6.725   1.668  0.4553 -0.1116  0.5774
  901MOL0     C21561   7.689   6.793   1.574 -0.9561  0.4424  0.0392
  901MOL0     C21562   7.840   6.774   1.603 -0.5232 -0.7394 -0.5029
  901MOL0     C21563   7.913   6.898   1.581  0.4532  0.1210 -0.0842
  901MOL0     C21564   7.968   7.006   1.557  0.3120  0.5684 -0.0678
  901MOL0     C21565   7.472   6.311   1.663  0.3018  0.7116 -0.3987
  901MOL0     C21566   7.404   6.194   1.632  0.1549  0.3411 -0.3138
  901MOL0     C21567   7.487   6.104   1.544  0.1414  0.3451 -0.2150
  901MOL0     H21568   7.082   5.803   1.738  1.2319  0.0002  0.3016
  901MOL0     H21569   6.960   5.608   1.664 -0.0723  1.6789  0.2519
  901MOL0     H21570   7.057   5.373   1.555  1.5297 -0.6858 -1.8542
  901MOL0     H21571   6.874   5.415   1.537 -1.0370 -0.7992  0.8646
  901MOL0     H21572   7.009   5.266   1.319 -2.5438  2.4524 -3.1705
  901MOL0     H21573   6.840   5.276   1.363  1.1469 -0.8479 -1.9726
  901MOL0     H21574   6.889   5.073   1.448  0.3364 -2.8004 -0.0689
  901MOL0     H21575   6.899   5.173   1.598 -1.2235  3.4871 -0.7861
  901MOL0     H21576   7.128   5.102   1.418  1.2644  4.2586  0.8375
  901MOL0     H21577   7.163   5.140   1.584  1.8483 -3.5843  2.2275
  901MOL0     H21578   7.041   4.910   1.629  1.7773 -1.6741  0.3954
  901MOL0     H21579   7.056   4.882   1.463 -0.8439 -0.5116  1.8636
  901MOL0     H21580   7.269   4.965   1.670 -1.0038 -0.6600  0.2740
  901MOL0     H21581   7.223   4.813   1.628 -0.4509  0.6084 -0.1997
  901MOL0     H21582   7.343   5.024   1.422  2.6378 -0.1348  0.6754
  901MOL0     H21583   7.279   4.856   1.370 -1.1946  0.4028 -0.0633
  901MOL0     H21584   7.510   4.891   1.367 -5.0691 -1.5713 -2.6421
  901MOL0     H21585   7.511   4.900   1.557  0.4667 -0.1320  0.7278
  901MOL0     H21586   7.478   4.648   1.283 -1.7561  0.9100  0.2206
  901MOL0     H21587   7.544   4.382   1.282  0.2723  0.7142 -0.1399
  901MOL0     H21588   7.558   4.293   1.430  1.5138 -1.4752 -4.4973
  901MOL0     H21589   7.299   4.344   1.455  0.7549  2.6960 -0.3949
  901MOL0     H21590   7.300   4.402   1.298 -1.4515  0.7551  1.3072
  901MOL0     H21591   7.356   4.108   1.373  3.3975  0.5121 -0.8226
  901MOL0     H21592   7.360   4.173   1.210  0.4326 -1.1548  1.3537
  901MOL0     H21593   7.137   4.267   1.217 -0.2755  0.6141 -0.4453
  901MOL0     H21594   7.107   4.210   1.378  0.2792  2.3895  0.1357
  901MOL0     H21595   6.921   4.214   1.218  0.0198  0.5164  1.3698
  901MOL0     H21596   6.682   4.150   1.145 -0.5197 -1.8868 -1.2611
  901MOL0     H21597   6.623   3.692   0.752 -0.0291  0.7059  1.0267
  901MOL0     H21598   6.448   3.621   0.611 -2.4618 -0.1898  0.3926
  901MOL0     H21599   6.113   3.421   0.725  3.0639  1.0963  1.0924
  901MOL0     H21600   6.033   3.575   0.776  0.3040 -3.1934  1.3012
  901MOL0     H21601   6.011   3.616   0.521  3.3144  0.5865  1.3470
  901MOL0     H21602   6.064   3.444   0.508 -1.1379  1.3474 -3.5127
  901MOL0     H21603   5.836   3.381   0.623 -0.1714 -2.4038 -3.9250
  901MOL0     H21604   5.791   3.547   0.579  0.0861 -0.3295 -1.4835
  901MOL0     H21605   5.869   3.322   0.385  0.2529  1.9131 -0.4776
  901MOL0     H21606   5.861   3.492   0.344 -1.2034 -0.5402 -1.5062
  901MOL0     H21607   5.619   3.502   0.423 -1.6175 -1.7562  1.1720
  901MOL0     H21608   5.639   3.322   0.454 -1.2614 -1.9153 -3.7108
  901MOL0     H21609   5.573   3.467   0.212 -2.0604 -1.8033 -1.0646
  901MOL0     H21610   5.728   3.380   0.186 -0.1050 -1.9160  1.4542
  901MOL0     H21611   5.457   3.267   0.287 -0.2256  3.4351 -1.1910
  901MOL0     H21612   5.609   3.176   0.296  2.1887 -0.5906 -2.7529
  901MOL0     H21613   5.457   3.128   0.107  2.2219 -1.3762 -0.1874
  901MOL0     H21614   5.491   3.292   0.040  1.1149 -0.2210  0.0711
  901MOL0     H21615   6.161   3.672   0.930 -0.0489  1.5572 -2.0090
  901MOL0     H21616   6.360   3.734   1.093  1.3125 -4.7050  0.2974
  901MOL0     H21617   6.846   3.744   1.077 -0.4322  0.3177 -3.3838
  901MOL0     H21618   7.041   3.800   1.177  1.9543  1.0938 -0.0124
  901MOL0     H21619   7.146   5.661   1.276  2.2964 -0.8856 -0.3647
  901MOL0     H21620   7.261   5.861   1.365  1.2351 -4.8637 -2.6112
  901MOL0     H21621   7.125   6.269   1.802 -0.0049 -0.3180 -0.4614
  901MOL0     H21622   7.249   6.461   1.866 -1.3570  0.4094 -1.5910
  901MOL0     H21623   7.587   6.516   1.595 -5.1197  2.1305 -1.0594
  901MOL0     H21624   7.684   6.548   1.745  0.0487  0.1042 -0.0976
  901MOL0     H21625   7.589   6.775   1.765  0.6371  3.4767 -1.1168
  901MOL0     H21626   7.492   6.754   1.633  1.3622  0.4532 -1.6960
  901MOL0     H21627   7.668   6.899   1.590  1.9130  0.9577  1.0414
  901MOL0     H21628   7.661   6.763   1.473 -0.4171 -2.0277  0.5499
  901MOL0     H21629   7.854   6.747   1.708  0.4126  1.1624 -0.0896
  901MOL0     H21630   7.885   6.692   1.547 -1.2909 -0.0334 -2.1940
  901MOL0     H21631   8.030   7.088   1.527  0.2497 -0.0563 -2.0734
  901MOL0     H21632   7.573   6.314   1.623  0.4473 -0.0388 -0.1132
  901MOL0     H21633   7.434   6.095   1.448 -2.5074 -0.9042  1.2725
  901MOL0     H21634   7.593   6.125   1.526  1.5542 -2.9575  3.0941
  901MOL0     H21635   7.490   6.010   1.598 -0.9290  0.0082 -0.7213
  902MOL0     O21636   3.843   2.742   4.778 -0.9416 -0.0791 -0.5237
  902MOL0     C21637   3.734   2.788   4.756 -0.5562  0.4981 -0.1244
  902MOL0     O21638   3.636   2.728   4.685  0.1810  0.5184 -0.2990
  902MOL0     C21639   3.660   2.604   4.622 -0.2489  0.6778  0.8955
  902MOL0     C21640   3.584   2.486   4.639 -0.3167  0.0749 -0.3435
  902MOL0     C21641   3.624   2.364   4.589  0.0196  0.0461  0.1591
  902MOL0     C21642   3.727   2.359   4.496 -0.6535  0.3849  0.1282
  902MOL0     O21643   3.766   2.222   4.482 -0.1835 -0.3851  0.8111
  902MOL0     C21644   3.900   2.200   4.450  1.0299 -0.1271 -0.3575
  902MOL0     C21645   3.897   2.162   4.310 -0.0450 -0.5293  0.2769
  902MOL0     C21646   4.038   2.148   4.246  0.2394 -0.1309 -0.6847
  902MOL0     C21647   4.033   2.091   4.105  0.0113 -0.0284 -0.5365
  902MOL0     C21648   4.039   1.936   4.115 -0.4987  0.2912  0.5098
  902MOL0     C21649   4.005   1.874   3.980  0.2314 -0.5247  0.3203
  902MOL0     C21650   3.858   1.879   3.946 -0.2397  0.2872  0.0138
  902MOL0     C21651   3.830   1.837   3.802  0.0236  0.4773  0.9508
  902MOL0     N21652   3.906   1.726   3.740 -0.1461  0.1087 -0.3640
  902MOL0     C21653   3.856   1.599   3.724 -0.1731 -0.3720  0.6216
  902MOL0     C21654   3.958   1.525   3.671  0.2701 -0.4021 -0.1341
  902MOL0     C21655   3.964   1.386   3.607  0.4819 -0.9004  0.6969
  902MOL0     C21656   3.942   1.389   3.453  0.3089 -0.5683  0.3008
  902MOL0     C21657   3.818   1.458   3.408 -0.2500  0.2535  0.6865
  902MOL0     C21658   3.689   1.374   3.410 -0.2366  0.9392 -0.2633
  902MOL0     O21659   3.595   1.459   3.472 -0.1966  0.6515 -0.4350
  902MOL0     C21660   3.529   1.394   3.566  0.8087 -0.7274  0.8177
  902MOL0     C21661   3.396   1.392   3.552 -0.2844 -0.1862 -0.4266
  902MOL0     C21662   3.304   1.342   3.651 -0.0172  0.1276  0.0002
  902MOL0     C21663   3.357   1.284   3.763  0.7198  0.4442 -0.5940
  902MOL0     C21664   3.262   1.223   3.861  0.0575  1.5061 -0.5630
  902MOL0     O21665   3.138   1.175   3.817 -0.1036  0.5034 -0.4285
  902MOL0     C21666   3.064   1.132   3.925  0.2517  0.3557 -1.0921
  902MOL0     C21667   2.958   1.207   3.973 -0.2510  0.5397 -0.4014
  902MOL0     C21668   2.871   1.159   4.076 -0.3142  0.2187 -1.1168
  902MOL0     C21669   2.878   1.023   4.121 -1.1494 -0.6524  0.0212
  902MOL0     O21670   2.775   0.971   4.196 -0.2808  0.0960 -0.3847
  902MOL0     C21671   2.771   0.832   4.215 -0.0932 -0.1080 -0.2903
  902MOL0     C21672   2.656   0.781   4.294  0.8341  0.1800  0.3114
  902MOL0     C21673   2.689   0.653   4.368  0.6498 -1.0664  0.2340
  902MOL0     C21674   2.558   0.596   4.442  0.8074 -0.1907 -1.1646
  902MOL0     C21675   2.595   0.470   4.520 -1.2825  0.4862 -0.5187
  902MOL0     C21676   2.469   0.412   4.577 -0.0591 -0.0527  1.5361
  902MOL0     C21677   2.409   0.489   4.684  0.9131 -0.6169 -0.1103
  902MOL0     C21678   2.323   0.402   4.762 -0.3621 -0.1008  0.6795
  902MOL0    Cl21679   2.213   0.506   4.863 -0.1196 -0.4050 -0.3871
  902MOL0     C21680   2.987   0.946   4.075  0.8066 -0.7864  1.0767
  902MOL0     C21681   3.076   0.996   3.971  0.1524 -0.3290 -0.7875
  902MOL0     O21682   3.320   1.194   3.967  1.4068 -0.3886  0.5967
  902MOL0     C21683   3.500   1.299   3.784  0.0282 -0.1844  0.3641
  902MOL0     C21684   3.577   1.355   3.688 -0.0113 -0.0621  0.6967
  902MOL0     N21685   4.071   1.604   3.665  0.2555 -0.1137  0.3711
  902MOL0     N21686   4.030   1.724   3.698 -0.8379 -0.9515 -0.0038
  902MOL0     C21687   3.782   2.476   4.457  0.1935 -0.3022  0.5062
  902MOL0     C21688   3.754   2.606   4.519 -0.9440  0.6438  0.2193
  902MOL0     C21689   3.699   2.922   4.803 -0.2928  0.9222 -1.1403
  902MOL0     C21690   3.782   2.976   4.903 -1.1464 -0.7349  0.1054
  902MOL0     C21691   3.763   3.104   4.952  0.4333  0.0542  0.1595
  902MOL0     C21692   3.657   3.180   4.912 -0.4238 -0.2168  0.7719
  902MOL0     O21693   3.637   3.309   4.948  0.1849 -1.0764 -0.9265
  902MOL0     C21694   3.705   3.373   5.053  0.0701  0.2834 -0.2932
  902MOL0     C21695   3.807   3.477   5.000 -0.3388 -0.0594 -0.3691
  902MOL0     C21696   3.886   3.567   5.096  0.1054 -0.2925  0.9971
  902MOL0     C21697   3.991   3.515   5.188  1.2351 -0.6524 -0.4692
  902MOL0     C21698   4.112   3.507   5.119 -0.2481  0.3617 -0.6838
  902MOL0     C21699   4.219   3.500   5.057  0.7853 -0.0870  0.3618
  902MOL0     C21700   3.572   3.120   4.817  0.5645 -0.7912  0.3642
  902MOL0     C21701   3.591   2.997   4.763  0.4722 -0.1140 -0.0970
  902MOL0     C21702   3.501   2.962   4.654 -0.9171  0.3245  0.1648
  902MOL0     H21703   3.500   2.489   4.708 -0.4922 -0.8139 -0.5089
  902MOL0     H21704   3.583   2.281   4.646 -1.5264  0.7996  0.1702
  902MOL0     H21705   3.965   2.282   4.481 -0.1454 -0.0870  2.2201
  902MOL0     H21706   3.936   2.117   4.512  2.9408  1.5129  0.8370
  902MOL0     H21707   3.835   2.237   4.261  0.5133  0.2954  0.8126
  902MOL0     H21708   3.841   2.068   4.302  3.3210 -3.2303  4.3387
  902MOL0     H21709   4.102   2.091   4.313  2.5751  0.8487 -1.9723
  902MOL0     H21710   4.072   2.251   4.235 -3.1649  1.2702  0.4631
  902MOL0     H21711   3.941   2.126   4.057 -2.0862 -3.3378  0.7263
  902MOL0     H21712   4.119   2.132   4.051  0.1377  2.0669  1.1362
  902MOL0     H21713   4.147   1.920   4.119 -0.6947 -1.4476 -0.3633
  902MOL0     H21714   3.991   1.883   4.198  0.3860 -3.2527 -1.0845
  902MOL0     H21715   4.073   1.921   3.908  0.1930 -1.9717 -0.7081
  902MOL0     H21716   4.034   1.769   3.986 -1.0307 -1.0404 -1.4966
  902MOL0     H21717   3.812   1.978   3.950 -2.5825 -0.7878  2.4311
  902MOL0     H21718   3.804   1.812   4.013  0.5721 -1.8736 -1.3848
  902MOL0     H21719   3.722   1.829   3.785  0.0574  1.8108  0.0063
  902MOL0     H21720   3.859   1.913   3.729  0.1939 -1.0607 -0.6454
  902MOL0     H21721   3.753   1.567   3.736  0.1888 -2.9151 -2.0211
  902MOL0     H21722   4.062   1.347   3.635  0.8748  0.4221  1.2575
  902MOL0     H21723   3.896   1.313   3.652 -3.6911  0.3750 -2.8077
  902MOL0     H21724   4.036   1.420   3.404  0.2101 -0.0730  0.4197
  902MOL0     H21725   3.928   1.287   3.419 -0.3958  0.1118 -1.5796
  902MOL0     H21726   3.833   1.473   3.301  0.5235 -0.3791  0.6934
  902MOL0     H21727   3.813   1.559   3.451  4.5680  0.0509  2.3534
  902MOL0     H21728   3.699   1.277   3.460 -4.9137 -0.0360 -0.7587
  902MOL0     H21729   3.664   1.342   3.308 -1.1677 -0.3898  0.3577
  902MOL0     H21730   3.345   1.442   3.470 -0.6985  1.8181  0.9633
  902MOL0     H21731   3.197   1.343   3.638  0.0636 -2.0518 -1.2358
  902MOL0     H21732   2.969   1.312   3.946  0.9240  0.6900  0.5764
  902MOL0     H21733   2.799   1.221   4.128  0.2355 -1.9172  2.5810
  902MOL0     H21734   2.761   0.780   4.120 -0.8159  1.1359 -0.9140
  902MOL0     H21735   2.858   0.812   4.278 -0.5046  2.9565  1.4664
  902MOL0     H21736   2.631   0.854   4.371 -0.1140 -2.9790  3.2401
  902MOL0     H21737   2.568   0.767   4.230 -0.3568  1.7150  1.5462
  902MOL0     H21738   2.736   0.573   4.310  2.3304 -1.1127  1.5900
  902MOL0     H21739   2.767   0.674   4.441  3.8158  0.0575 -3.1180
  902MOL0     H21740   2.474   0.569   4.377 -2.1738  1.3862  1.7189
  902MOL0     H21741   2.523   0.672   4.513  1.2891  0.9423 -2.1137
  902MOL0     H21742   2.663   0.494   4.603  0.8343 -2.5212 -1.2437
  902MOL0     H21743   2.633   0.392   4.455 -2.5782 -1.1215  0.5754
  902MOL0     H21744   2.397   0.395   4.496  2.1899  1.6785 -1.0154
  902MOL0     H21745   2.488   0.312   4.619 -2.1267  0.0821  2.9200
  902MOL0     H21746   2.343   0.566   4.644 -3.0013 -2.2661  2.5616
  902MOL0     H21747   2.500   0.527   4.733  0.4548 -0.5344  0.6976
  902MOL0     H21748   2.269   0.338   4.692 -0.9340  0.8291  0.2518
  902MOL0     H21749   2.394   0.350   4.827 -0.3181  1.2915  1.8061
  902MOL0     H21750   3.005   0.856   4.133 -1.0319 -2.8758 -1.4108
  902MOL0     H21751   3.162   0.944   3.933 -0.5984 -1.5756 -0.8274
  902MOL0     H21752   3.537   1.249   3.873  0.2447 -3.2164 -1.2818
  902MOL0     H21753   3.684   1.362   3.704  0.6009 -0.9669 -2.3500
  902MOL0     H21754   3.860   2.462   4.383 -1.2675 -0.0247 -1.1510
  902MOL0     H21755   3.810   2.699   4.512  1.0879 -0.4467  1.1379
  902MOL0     H21756   3.857   2.915   4.951 -3.2130 -1.2629  2.8882
  902MOL0     H21757   3.842   3.128   5.023  0.4407 -0.4220  0.3130
  902MOL0     H21758   3.774   3.302   5.100  3.2351  2.3559 -1.5099
  902MOL0     H21759   3.625   3.417   5.113 -0.1014 -0.8815  0.3794
  902MOL0     H21760   3.752   3.545   4.934 -0.5242  1.2965  1.1468
  902MOL0     H21761   3.878   3.412   4.948 -0.4273 -0.5176  0.0752
  902MOL0     H21762   3.824   3.633   5.156  2.6668  2.5185  0.8252
  902MOL0     H21763   3.928   3.641   5.027  1.7965 -0.0019  2.2830
  902MOL0     H21764   3.998   3.578   5.277 -2.4574 -1.8839  0.9106
  902MOL0     H21765   3.972   3.412   5.218  0.9368 -0.8909 -1.4319
  902MOL0     H21766   4.307   3.488   4.997 -0.7296 -3.6141 -1.4667
  902MOL0     H21767   3.497   3.190   4.780  2.7219  0.6934 -1.4092
  902MOL0     H21768   3.472   3.052   4.598 -0.5468 -0.1933 -0.9022
  902MOL0     H21769   3.562   2.914   4.576 -1.8921 -0.2044 -0.2848
  902MOL0     H21770   3.414   2.898   4.672 -0.6085  0.0121  0.5661
  903MOL0     O21771   8.915   1.024   3.908  0.4754  0.5228  0.9691
  903MOL0     C21772   8.925   0.979   4.025 -0.2188 -0.2153  0.4382
  903MOL0     O21773   8.901   1.050   4.131 -0.7558 -0.7700 -0.3862
  903MOL0     C21774   8.893   1.183   4.103 -0.3785  0.1041 -0.3798
  903MOL0     C21775   9.005   1.272   4.107 -1.2407 -1.8546  0.2060
  903MOL0     C21776   8.979   1.409   4.079  1.4007 -0.3334 -0.7756
  903MOL0     C21777   8.851   1.462   4.047 -0.0842  0.9114 -0.5976
  903MOL0     O21778   8.825   1.592   4.021  0.3092  0.8987 -0.4625
  903MOL0     C21779   8.752   1.667   4.120  0.3291  0.9582 -0.0581
  903MOL0     C21780   8.655   1.747   4.040  1.4956 -0.0550  0.5477
  903MOL0     C21781   8.561   1.668   3.950  0.1817  0.7954  0.2274
  903MOL0     C21782   8.464   1.758   3.857 -0.3916  0.2832 -1.3828
  903MOL0     C21783   8.375   1.677   3.760  0.8875  0.7829 -0.3319
  903MOL0     C21784   8.289   1.557   3.831 -0.4390  0.0165 -0.1914
  903MOL0     C21785   8.160   1.524   3.765  1.1739  0.5032  0.7551
  903MOL0     C21786   8.173   1.513   3.615 -0.0884 -1.5765  0.1074
  903MOL0     N21787   8.064   1.451   3.551  0.5853 -0.2831 -0.1696
  903MOL0     C21788   7.930   1.481   3.563 -0.4864 -0.4148  0.6788
  903MOL0     C21789   7.873   1.397   3.485  0.7815 -0.1256 -0.0530
  903MOL0     C21790   7.723   1.418   3.467 -0.5724 -0.4356  0.1732
  903MOL0     C21791   7.657   1.358   3.344 -0.0272 -0.5788  0.4477
  903MOL0     C21792   7.524   1.418   3.324  0.9969  0.6339 -0.0268
  903MOL0     C21793   7.450   1.332   3.215 -0.1341  0.3141  0.2896
  903MOL0     O21794   7.513   1.367   3.090  0.6664  0.1833 -0.1471
  903MOL0     C21795   7.463   1.301   2.982  0.0663 -0.0667 -0.1625
  903MOL0     C21796   7.545   1.301   2.874 -0.1964  0.2635 -0.1246
  903MOL0     C21797   7.527   1.240   2.751 -0.2588 -0.2803 -0.5361
  903MOL0     C21798   7.402   1.171   2.739  0.3545 -0.8667 -0.3363
  903MOL0     C21799   7.364   1.110   2.614 -0.5148 -0.2494  0.5905
  903MOL0     O21800   7.467   1.064   2.543  0.1435  0.8544  0.6257
  903MOL0     C21801   7.455   0.986   2.430 -0.4064 -0.8124  0.4602
  903MOL0     C21802   7.443   1.043   2.301 -0.4676 -0.0111 -0.0839
  903MOL0     C21803   7.441   0.962   2.188 -0.1502  0.3735 -0.3172
  903MOL0     C21804   7.451   0.819   2.196  0.7079  0.0831 -0.3318
  903MOL0     O21805   7.452   0.748   2.080 -0.0375  0.1488 -0.5736
  903MOL0     C21806   7.387   0.615   2.075  0.2747  0.3111  0.6725
  903MOL0     C21807   7.367   0.560   1.933 -0.9135 -0.7153 -0.2080
  903MOL0     C21808   7.503   0.534   1.859  0.1628  0.1994 -0.2557
  903MOL0     C21809   7.473   0.477   1.725  0.5179 -0.0606 -0.1510
  903MOL0     C21810   7.601   0.466   1.640  0.3699 -0.2097  0.6671
  903MOL0     C21811   7.598   0.407   1.498 -0.0193 -0.8407 -0.1584
  903MOL0     C21812   7.583   0.252   1.501  0.1610  0.6989 -0.1753
  903MOL0     C21813   7.717   0.180   1.531  0.8266 -0.0092  0.3915
  903MOL0    Cl21814   7.849   0.215   1.413 -0.1203  0.0461 -0.2715
  903MOL0     C21815   7.450   0.762   2.328  0.0474  0.2370 -0.9985
  903MOL0     C21816   7.458   0.846   2.450  0.4886 -0.1238  0.4835
  903MOL0     O21817   7.243   1.088   2.589  0.1793 -0.2866 -0.3524
  903MOL0     C21818   7.315   1.176   2.848  0.2327 -0.2231  0.6770
  903MOL0     C21819   7.335   1.237   2.968 -0.2037  0.0294 -0.7820
  903MOL0     N21820   7.968   1.298   3.442  0.6487 -0.0357 -0.2307
  903MOL0     N21821   8.081   1.340   3.484  0.4624  0.7016 -0.0039
  903MOL0     C21822   8.752   1.366   4.042  0.0844 -0.6058  0.0648
  903MOL0     C21823   8.767   1.236   4.071  0.3851 -0.6610 -0.9025
  903MOL0     C21824   8.954   0.829   4.036  0.0871 -0.1909  0.4838
  903MOL0     C21825   8.880   0.730   3.961  0.3590 -0.8251 -0.4193
  903MOL0     C21826   8.948   0.611   3.944  0.6701  0.2082  0.3546
  903MOL0     C21827   9.053   0.563   4.029  0.5202 -0.3934 -0.6813
  903MOL0     O21828   9.088   0.432   4.018  0.1485 -0.7159 -0.6293
  903MOL0     C21829   9.157   0.389   4.138  1.4728  0.5739 -0.0010
  903MOL0     C21830   9.302   0.407   4.123  0.1562  0.4254  0.6940
  903MOL0     C21831   9.378   0.288   4.050  1.1343 -0.1708 -0.0482
  903MOL0     C21832   9.475   0.198   4.132  0.1243  0.5210  0.2391
  903MOL0     C21833   9.402   0.097   4.198 -0.7378  0.1639  0.3063
  903MOL0     C21834   9.337   0.013   4.256  0.9811  0.0588  0.2096
  903MOL0     C21835   9.126   0.662   4.103  0.1511 -0.4359  0.1653
  903MOL0     C21836   9.077   0.794   4.103  0.6505  0.0326 -0.2670
  903MOL0     C21837   9.166   0.911   4.158  0.5276  0.0309  0.0597
  903MOL0     H21838   9.110   1.252   4.127 -0.3814  1.0456 -0.7834
  903MOL0     H21839   9.059   1.483   4.089  0.7324  0.2373  0.5882
  903MOL0     H21840   8.694   1.600   4.184  0.1126  0.2023 -1.0092
  903MOL0     H21841   8.803   1.734   4.190  2.8900 -0.3453 -0.5729
  903MOL0     H21842   8.711   1.826   3.988 -1.4489  2.5134  0.9918
  903MOL0     H21843   8.589   1.805   4.105 -2.4202 -2.2554 -1.1196
  903MOL0     H21844   8.495   1.612   4.018  0.2651  0.3610 -0.0434
  903MOL0     H21845   8.600   1.593   3.880 -4.0490 -0.7041 -0.7984
  903MOL0     H21846   8.394   1.810   3.923  1.1511 -1.4499  1.8208
  903MOL0     H21847   8.531   1.836   3.819 -0.4736  2.5594  2.5792
  903MOL0     H21848   8.294   1.732   3.712  1.9429 -1.4770 -5.4062
  903MOL0     H21849   8.431   1.633   3.676 -1.2262 -2.4558 -0.1953
  903MOL0     H21850   8.344   1.462   3.829  0.2439  0.3942  0.1649
  903MOL0     H21851   8.263   1.580   3.935 -3.4820 -0.6106 -0.7217
  903MOL0     H21852   8.084   1.596   3.794 -0.1634 -0.3082 -0.5852
  903MOL0     H21853   8.128   1.429   3.809  3.0732  0.4251  2.0966
  903MOL0     H21854   8.183   1.611   3.566 -1.4696 -0.7078  1.4715
  903MOL0     H21855   8.271   1.466   3.600  0.5443 -1.1643  2.5819
  903MOL0     H21856   7.891   1.568   3.614 -0.1009  0.0693  0.1598
  903MOL0     H21857   7.680   1.378   3.559 -1.5457 -0.8040 -0.4327
  903MOL0     H21858   7.699   1.525   3.465  0.6334 -0.1541 -0.7306
  903MOL0     H21859   7.723   1.383   3.261 -2.4796  2.4990 -0.7584
  903MOL0     H21860   7.657   1.250   3.360 -1.1637 -0.5343  0.8141
  903MOL0     H21861   7.524   1.526   3.307  1.4482  0.3833 -1.7694
  903MOL0     H21862   7.463   1.407   3.414 -0.5089  1.4561 -0.8952
  903MOL0     H21863   7.342   1.346   3.213  0.0307  2.0286 -2.4505
  903MOL0     H21864   7.468   1.225   3.225 -3.6024 -0.4704 -0.5299
  903MOL0     H21865   7.634   1.363   2.887  0.3128 -1.0091  3.4070
  903MOL0     H21866   7.585   1.255   2.660  0.1997  2.1393  0.0761
  903MOL0     H21867   7.427   1.150   2.299 -1.9003 -0.2107 -0.5194
  903MOL0     H21868   7.422   1.004   2.090  0.0515  2.3947  0.4617
  903MOL0     H21869   7.446   0.548   2.138  1.9170  2.3925  1.4838
  903MOL0     H21870   7.289   0.639   2.118  1.0322  0.7414  2.2423
  903MOL0     H21871   7.309   0.468   1.947 -0.7634 -0.7951 -0.1063
  903MOL0     H21872   7.309   0.640   1.887  1.6153  2.0489  1.0661
  903MOL0     H21873   7.556   0.629   1.851 -1.3639  1.0305 -0.7930
  903MOL0     H21874   7.579   0.464   1.898 -1.0190 -0.8252  0.2913
  903MOL0     H21875   7.398   0.540   1.676  1.5017 -0.0045 -1.6465
  903MOL0     H21876   7.429   0.379   1.745 -0.4796  0.3723 -0.1418
  903MOL0     H21877   7.670   0.402   1.697 -1.8837 -4.3078 -0.7441
  903MOL0     H21878   7.645   0.566   1.636  1.9856 -0.5015  4.8761
  903MOL0     H21879   7.516   0.451   1.439  0.3355 -1.0448 -0.8164
  903MOL0     H21880   7.686   0.450   1.450 -1.7741  0.5955 -2.2941
  903MOL0     H21881   7.550   0.223   1.401  0.0273 -1.8356  0.5396
  903MOL0     H21882   7.512   0.229   1.581 -0.6339  2.0413 -0.4484
  903MOL0     H21883   7.744   0.197   1.636 -0.0053 -1.5160  0.8718
  903MOL0     H21884   7.694   0.073   1.537  0.3195  0.1374  5.3814
  903MOL0     H21885   7.461   0.656   2.349 -0.3437  0.3128 -0.3642
  903MOL0     H21886   7.468   0.814   2.554 -1.6012  1.7739  1.3700
  903MOL0     H21887   7.218   1.130   2.828  2.0950 -4.1646 -0.2266
  903MOL0     H21888   7.268   1.220   3.052  0.2556  0.2533 -0.3642
  903MOL0     H21889   8.651   1.389   4.007 -1.2541 -1.9667  2.6987
  903MOL0     H21890   8.683   1.167   4.070  1.6822 -2.4024  1.0073
  903MOL0     H21891   8.803   0.771   3.897  0.2288 -2.0181 -1.0478
  903MOL0     H21892   8.893   0.556   3.868 -0.8537  1.6354  0.3636
  903MOL0     H21893   9.129   0.284   4.147  1.5879 -0.0667 -4.5681
  903MOL0     H21894   9.131   0.436   4.233  2.4978  0.4916  0.3361
  903MOL0     H21895   9.345   0.428   4.221 -2.2052 -1.5075  2.2653
  903MOL0     H21896   9.310   0.502   4.069 -1.4908  1.8018  2.7225
  903MOL0     H21897   9.434   0.327   3.965  0.1235 -0.5378 -0.8982
  903MOL0     H21898   9.304   0.218   4.011  0.6184 -0.8406  2.0219
  903MOL0     H21899   9.549   0.150   4.068  0.2016  1.6221 -0.5393
  903MOL0     H21900   9.540   0.263   4.191 -0.5156  2.8284 -1.4230
  903MOL0     H21901   9.287  -0.060   4.317  0.3168  0.8391  0.6289
  903MOL0     H21902   9.214   0.639   4.161  1.1598 -2.2532 -1.9280
  903MOL0     H21903   9.185   0.977   4.073  0.6779 -0.9188 -0.6718
  903MOL0     H21904   9.123   0.951   4.250 -1.5728 -3.3082  0.7260
  903MOL0     H21905   9.262   0.871   4.190  0.8752  2.6628  2.6545
  904MOL0     O21906   2.899   7.787   3.978  0.6749  0.2342  0.7255
  904MOL0     C21907   2.842   7.815   3.872  0.0473  1.0110  0.5545
  904MOL0     O21908   2.864   7.916   3.787  0.0843 -0.4200 -0.1005
  904MOL0     C21909   2.975   7.991   3.813  0.2369  0.2885  0.2422
  904MOL0     C21910   3.095   7.957   3.739  0.1985  1.0860 -0.6675
  904MOL0     C21911   3.214   8.030   3.762  0.1227  0.9243  0.9303
  904MOL0     C21912   3.206   8.144   3.845 -1.4299  0.5525  0.1974
  904MOL0     O21913   3.328   8.210   3.854 -0.2559  0.6830  0.2734
  904MOL0     C21914   3.385   8.210   3.984  0.4440 -0.2241  0.6289
  904MOL0     C21915   3.522   8.258   3.980 -0.7948 -0.7291 -0.1932
  904MOL0     C21916   3.623   8.188   3.891  0.2852 -0.5673  0.5437
  904MOL0     C21917   3.764   8.256   3.901 -0.4032 -0.2568 -0.0074
  904MOL0     C21918   3.876   8.154   3.845 -0.4902  0.5754 -1.1941
  904MOL0     C21919   3.999   8.118   3.932 -0.3866 -0.6707 -0.3427
  904MOL0     C21920   3.964   8.094   4.084 -0.1998  0.1865 -0.5856
  904MOL0     C21921   3.872   7.972   4.112 -0.2008 -0.3732  0.0173
  904MOL0     N21922   3.828   7.965   4.250  0.9602  0.2357  0.2241
  904MOL0     C21923   3.901   7.945   4.365  0.2204 -0.3042 -0.0357
  904MOL0     C21924   3.811   7.971   4.459  0.2588 -0.5290 -0.3826
  904MOL0     C21925   3.815   7.973   4.614 -0.0292 -0.4903 -0.3119
  904MOL0     C21926   3.910   8.091   4.651  0.0807  0.8651 -0.4257
  904MOL0     C21927   3.916   8.107   4.801 -0.6818  0.6145  0.1100
  904MOL0     C21928   3.911   7.981   4.892 -0.7355 -0.2850  0.0638
  904MOL0     O21929   3.910   8.022   5.027 -0.3403  0.5097 -0.2719
  904MOL0     C21930   3.985   7.944   5.125  0.4309 -0.5027  0.2500
  904MOL0     C21931   3.984   7.809   5.125 -0.0459 -0.6307  0.2031
  904MOL0     C21932   4.045   7.731   5.231 -0.7441  0.0217  1.0978
  904MOL0     C21933   4.128   7.804   5.326  0.4810 -0.3118  0.8714
  904MOL0     C21934   4.207   7.738   5.438  0.1481 -1.0443  0.2177
  904MOL0     O21935   4.248   7.815   5.537  0.5512 -0.2101 -0.1499
  904MOL0     C21936   4.374   7.803   5.582 -0.3182 -0.2306 -0.1539
  904MOL0     C21937   4.488   7.878   5.536 -0.3432  0.1599  0.3132
  904MOL0     C21938   4.616   7.864   5.603  1.0296 -0.3847 -0.6476
  904MOL0     C21939   4.629   7.769   5.711  0.0431  0.2584 -0.3670
  904MOL0     O21940   4.749   7.768   5.774 -0.0777 -0.6772  0.3580
  904MOL0     C21941   4.782   7.656   5.865  0.8439  0.1689 -0.7074
  904MOL0     C21942   4.927   7.659   5.897  0.0981 -0.2510 -0.4156
  904MOL0     C21943   4.966   7.568   5.999  0.0228 -0.2156 -1.1920
  904MOL0     C21944   5.116   7.577   6.026  1.5760  0.0087  0.4736
  904MOL0     C21945   5.159   7.511   6.163 -0.1101 -0.5013  0.8694
  904MOL0     C21946   5.080   7.381   6.207 -0.2392  0.7286 -0.5097
  904MOL0     C21947   5.099   7.259   6.119 -0.5661  0.0902 -0.3633
  904MOL0     C21948   5.076   7.132   6.191  0.0749  0.0756 -0.1782
  904MOL0    Cl21949   4.904   7.126   6.266  0.5000 -0.1135 -0.2998
  904MOL0     C21950   4.515   7.695   5.751  1.1241 -0.9404  0.5135
  904MOL0     C21951   4.396   7.713   5.680  0.7568  0.7895  0.5281
  904MOL0     O21952   4.226   7.619   5.427 -0.4529 -0.3806  0.1564
  904MOL0     C21953   4.127   7.944   5.322 -0.3007  0.7502 -1.3741
  904MOL0     C21954   4.059   8.015   5.221  0.1056 -0.2028 -0.8875
  904MOL0     N21955   3.683   7.979   4.412  0.3512 -1.0971  0.1181
  904MOL0     N21956   3.695   7.981   4.280  0.5760 -0.9247  0.0059
  904MOL0     C21957   3.095   8.171   3.922 -0.1067  0.6410  0.5339
  904MOL0     C21958   2.979   8.088   3.915 -0.1374  0.1275 -1.1266
  904MOL0     C21959   2.729   7.728   3.839 -0.9377 -1.0492 -0.2517
  904MOL0     C21960   2.613   7.793   3.784 -0.2125 -0.6135  0.5890
  904MOL0     C21961   2.504   7.718   3.737  0.1170  0.0790  0.0665
  904MOL0     C21962   2.506   7.578   3.739 -0.2587  0.0008 -0.2939
  904MOL0     O21963   2.400   7.511   3.694  0.2009  0.2716  0.3060
  904MOL0     C21964   2.428   7.384   3.640 -0.6566  0.1846 -0.0775
  904MOL0     C21965   2.370   7.365   3.502  0.7084 -0.5289 -0.8595
  904MOL0     C21966   2.431   7.444   3.392 -0.1732  0.8554 -0.5032
  904MOL0     C21967   2.434   7.370   3.258  0.3445 -0.7524 -0.3217
  904MOL0     C21968   2.300   7.363   3.202  0.1479 -0.1649  0.5755
  904MOL0     C21969   2.191   7.351   3.149  0.0496  0.8441 -0.5134
  904MOL0     C21970   2.623   7.514   3.806 -0.4100  0.2654 -0.3024
  904MOL0     C21971   2.734   7.588   3.843  0.6332  0.3144 -0.4731
  904MOL0     C21972   2.847   7.512   3.905 -0.6155 -0.2618 -0.5089
  904MOL0     H21973   3.106   7.872   3.672 -1.5574  2.9993 -3.6192
  904MOL0     H21974   3.309   8.011   3.713 -0.8243 -0.2496 -0.5655
  904MOL0     H21975   3.327   8.271   4.054 -1.9075 -1.3602 -0.2507
  904MOL0     H21976   3.388   8.109   4.026  0.4622 -0.5752 -0.1882
  904MOL0     H21977   3.568   8.250   4.080  4.2064  2.9450 -1.7662
  904MOL0     H21978   3.529   8.365   3.958  3.8974  0.9134  6.1753
  904MOL0     H21979   3.601   8.193   3.784  3.2360  3.5572 -0.1154
  904MOL0     H21980   3.637   8.085   3.925 -1.5016 -1.7715 -2.0065
  904MOL0     H21981   3.770   8.344   3.836 -0.5241 -0.7191 -0.6584
  904MOL0     H21982   3.785   8.278   4.006  0.5797 -2.3821  0.2871
  904MOL0     H21983   3.821   8.068   3.804 -2.6579  2.3960 -2.3244
  904MOL0     H21984   3.922   8.204   3.759  1.5579  2.4187  0.8413
  904MOL0     H21985   4.048   8.029   3.892  0.3974 -0.7250  0.6789
  904MOL0     H21986   4.072   8.199   3.922 -1.5078  0.6162  1.3072
  904MOL0     H21987   3.914   8.174   4.140  0.6939  2.0261 -2.2868
  904MOL0     H21988   4.056   8.071   4.138  0.5966  1.4934 -1.3315
  904MOL0     H21989   3.784   7.993   4.051  2.2786  1.4696 -3.3048
  904MOL0     H21990   3.924   7.879   4.086 -1.5788 -0.7833 -1.4259
  904MOL0     H21991   4.009   7.938   4.373  0.4248 -1.4284 -2.8396
  904MOL0     H21992   3.719   8.010   4.652 -0.1634  0.6764 -1.6709
  904MOL0     H21993   3.844   7.879   4.662 -2.1463 -0.9175  0.2666
  904MOL0     H21994   4.012   8.059   4.625  1.4659  2.6925  2.2077
  904MOL0     H21995   3.887   8.183   4.597 -0.0607  1.5963  0.8346
  904MOL0     H21996   3.836   8.173   4.836 -0.0424  0.5576  1.7785
  904MOL0     H21997   4.006   8.167   4.812  0.0276 -0.6970  2.2904
  904MOL0     H21998   3.998   7.918   4.868 -2.3024 -1.7239 -2.2547
  904MOL0     H21999   3.822   7.920   4.873 -0.2287 -1.3569  0.9768
  904MOL0     H22000   3.947   7.757   5.036 -1.4454  1.3717 -0.4567
  904MOL0     H22001   4.048   7.623   5.220 -3.2317  0.1294 -2.1805
  904MOL0     H22002   4.475   7.941   5.448  0.2703 -1.0183 -0.6605
  904MOL0     H22003   4.695   7.922   5.558 -1.0372  2.5161 -0.8421
  904MOL0     H22004   4.715   7.647   5.950  2.6782 -1.4798  0.6679
  904MOL0     H22005   4.768   7.566   5.804 -0.8176 -0.1249  0.0736
  904MOL0     H22006   4.984   7.637   5.806  2.0150 -1.2577  0.9369
  904MOL0     H22007   4.947   7.762   5.928 -1.0155 -0.5446  1.4198
  904MOL0     H22008   4.906   7.588   6.088 -0.7129  0.1273 -1.7605
  904MOL0     H22009   4.933   7.467   5.975 -1.9368 -0.0088  0.3289
  904MOL0     H22010   5.143   7.682   6.010 -0.6793  0.8538  1.7306
  904MOL0     H22011   5.164   7.518   5.948 -1.7884 -1.4718 -0.6998
  904MOL0     H22012   5.140   7.588   6.239 -0.4362  0.2009  0.1018
  904MOL0     H22013   5.265   7.485   6.174  1.0312  3.8254  2.5480
  904MOL0     H22014   5.119   7.359   6.307 -3.6160  2.1444  1.2631
  904MOL0     H22015   4.976   7.410   6.226 -1.2367 -1.6746 -1.9349
  904MOL0     H22016   5.206   7.273   6.102  0.1597 -1.3954  2.3464
  904MOL0     H22017   5.033   7.268   6.032  1.6586  0.4611 -2.0857
  904MOL0     H22018   5.090   7.053   6.116  0.5234  0.8562 -0.9370
  904MOL0     H22019   5.152   7.126   6.270  1.4760  0.1292 -1.4823
  904MOL0     H22020   4.502   7.635   5.840  0.0403  0.9282  1.6836
  904MOL0     H22021   4.315   7.644   5.701  1.6405 -1.5539 -2.9039
  904MOL0     H22022   4.187   7.999   5.394  1.3375 -2.6317  0.0944
  904MOL0     H22023   4.054   8.123   5.233 -0.8508 -0.3083 -0.3332
  904MOL0     H22024   3.087   8.258   3.986 -0.1212  1.1333 -0.1269
  904MOL0     H22025   2.896   8.104   3.985  2.2964 -0.4123  2.1196
  904MOL0     H22026   2.595   7.900   3.794 -2.9525 -1.1327  2.1334
  904MOL0     H22027   2.419   7.767   3.690 -0.6412  0.6669  1.9305
  904MOL0     H22028   2.377   7.315   3.707 -1.0419 -1.3114 -1.8440
  904MOL0     H22029   2.531   7.347   3.638 -1.9431 -3.7240 -1.1308
  904MOL0     H22030   2.263   7.384   3.498  0.7458 -0.4996 -3.5701
  904MOL0     H22031   2.371   7.258   3.478  0.6593 -0.5183 -0.9099
  904MOL0     H22032   2.532   7.473   3.421 -0.9528  2.1530  1.0561
  904MOL0     H22033   2.371   7.534   3.376 -3.0492 -1.1942 -2.2649
  904MOL0     H22034   2.502   7.428   3.194  1.4428 -0.0587  1.3925
  904MOL0     H22035   2.470   7.268   3.270 -0.3414 -0.9257  0.2879
  904MOL0     H22036   2.097   7.330   3.102  1.4712 -0.0127 -3.1767
  904MOL0     H22037   2.609   7.407   3.815 -0.1699  0.1261 -1.4260
  904MOL0     H22038   2.840   7.542   4.010 -5.2036 -0.7767 -0.4629
  904MOL0     H22039   2.828   7.404   3.900  1.9681 -0.8676  1.0155
  904MOL0     H22040   2.944   7.539   3.863  0.6502 -3.1308  0.2670
  905MOL0     O22041   0.263   6.239   0.278 -0.0677  0.3153 -0.3985
  905MOL0     C22042   0.287   6.254   0.156 -0.4933 -0.6214  0.0138
  905MOL0     O22043   0.205   6.210   0.057 -0.1948 -0.0435 -0.4079
  905MOL0     C22044   0.098   6.136   0.086 -0.0993  0.4181  0.8927
  905MOL0     C22045   0.107   6.010   0.139  0.3382 -0.7072 -0.3792
  905MOL0     C22046  -0.008   5.947   0.184  0.8905  0.4456  0.9177
  905MOL0     C22047  -0.135   6.009   0.180 -0.0869 -0.1307  0.3995
  905MOL0     O22048  -0.249   5.966   0.247 -0.3993 -1.2554  0.4332
  905MOL0     C22049  -0.258   5.839   0.310  0.1522  0.7965 -0.3504
  905MOL0     C22050  -0.405   5.822   0.347  0.4233  0.2509  0.2123
  905MOL0     C22051  -0.454   5.696   0.405 -1.2406  0.6915 -1.3021
  905MOL0     C22052  -0.578   5.704   0.480  1.5118 -1.0835  0.0578
  905MOL0     C22053  -0.616   5.579   0.561  0.3617 -0.3805 -0.2253
  905MOL0     C22054  -0.648   5.446   0.498 -0.1987  0.0149 -1.0054
  905MOL0     C22055  -0.660   5.326   0.588 -0.8616  0.0250  0.2220
  905MOL0     C22056  -0.801   5.312   0.643 -0.1100  1.4779 -0.0749
  905MOL0     N22057  -0.825   5.183   0.727  0.1883  1.0119  1.5596
  905MOL0     C22058  -0.911   5.083   0.697  1.3104  0.3699  0.5675
  905MOL0     C22059  -0.913   4.984   0.791 -0.3074  0.2776 -0.4928
  905MOL0     C22060  -0.997   4.860   0.784  0.7199  0.0042  0.4435
  905MOL0     C22061  -1.144   4.887   0.756 -0.3253 -0.3808 -0.0384
  905MOL0     C22062  -1.192   4.969   0.880  0.6623  0.3029  1.6236
  905MOL0     C22063  -1.336   5.023   0.850 -0.3475 -0.2863  0.8173
  905MOL0     O22064  -1.334   5.137   0.762  0.6132 -0.5620  0.1268
  905MOL0     C22065  -1.442   5.217   0.784  0.3879 -0.0776 -1.0125
  905MOL0     C22066  -1.569   5.195   0.743 -0.0721 -0.1283 -0.9200
  905MOL0     C22067  -1.672   5.294   0.767  0.4061 -0.3305  0.4104
  905MOL0     C22068  -1.646   5.402   0.851  0.1450  0.8425  0.6428
  905MOL0     C22069  -1.746   5.512   0.874 -0.4761  1.3665  0.1834
  905MOL0     O22070  -1.871   5.497   0.825 -0.7223 -0.4274  0.2854
  905MOL0     C22071  -1.943   5.614   0.809  0.4672  0.0877 -0.5986
  905MOL0     C22072  -1.923   5.707   0.711 -0.4240  0.9203  0.0145
  905MOL0     C22073  -1.993   5.819   0.717  0.3020 -0.3280 -0.0846
  905MOL0     C22074  -2.086   5.850   0.816  0.7838  0.3792 -0.5180
  905MOL0     O22075  -2.147   5.978   0.817 -0.2846  0.1765 -0.1430
  905MOL0     C22076  -2.230   6.017   0.919  0.4012  0.5332 -0.2490
  905MOL0     C22077  -2.380   5.967   0.899 -0.6760 -0.3043  0.5875
  905MOL0     C22078  -2.441   6.023   0.774  0.9227  0.5142  0.4376
  905MOL0     C22079  -2.437   6.184   0.758  0.2015 -0.4878  0.8929
  905MOL0     C22080  -2.478   6.227   0.620  0.2336  0.0124  0.6905
  905MOL0     C22081  -2.394   6.169   0.496  0.2745 -0.1118  0.6596
  905MOL0     C22082  -2.237   6.145   0.519 -0.0266 -0.4312  0.1747
  905MOL0     C22083  -2.152   6.178   0.396  0.5362  0.8113  0.1902
  905MOL0    Cl22084  -2.175   6.045   0.281 -0.0927 -0.3246  0.0730
  905MOL0     C22085  -2.119   5.753   0.914 -0.3824  0.3371  0.1296
  905MOL0     C22086  -2.041   5.627   0.905  0.9424  0.2565  0.1965
  905MOL0     O22087  -1.697   5.618   0.916  0.7143 -0.0827 -0.3453
  905MOL0     C22088  -1.519   5.417   0.904  0.2452  0.6526 -0.8225
  905MOL0     C22089  -1.418   5.323   0.871  0.6647 -0.9057 -0.3891
  905MOL0     N22090  -0.794   5.021   0.863  0.4376  0.6664  0.1581
  905MOL0     N22091  -0.756   5.143   0.833 -0.0023 -0.3480 -0.0890
  905MOL0     C22092  -0.140   6.134   0.123 -0.1807 -0.2201  0.2848
  905MOL0     C22093  -0.027   6.193   0.073  0.0324 -0.0356 -0.0010
  905MOL0     C22094   0.412   6.331   0.124  0.2369  0.4754 -0.2172
  905MOL0     C22095   0.513   6.340   0.215 -0.3654 -0.5072 -0.0492
  905MOL0     C22096   0.619   6.427   0.206 -0.6109  0.4472  0.1967
  905MOL0     C22097   0.638   6.503   0.093 -0.7940 -0.0502 -0.5128
  905MOL0     O22098   0.754   6.573   0.076  0.9800 -0.0918 -0.7479
  905MOL0     C22099   0.767   6.687  -0.015  0.2064 -0.4179  0.4172
  905MOL0     C22100   0.914   6.736  -0.016 -0.5171 -0.2475 -0.0883
  905MOL0     C22101   0.953   6.781   0.129 -0.0588 -1.1546 -0.1897
  905MOL0     C22102   1.095   6.848   0.118  0.4665 -0.3008 -0.7681
  905MOL0     C22103   1.149   6.861   0.256 -0.8619  0.0952  0.7279
  905MOL0     C22104   1.207   6.889   0.360 -0.6825  0.1664  0.0544
  905MOL0     C22105   0.542   6.499  -0.008 -0.1654  0.8495  0.7499
  905MOL0     C22106   0.423   6.416   0.004  0.1868 -0.7501 -0.6720
  905MOL0     C22107   0.313   6.427  -0.097 -0.4216  1.0778  1.2363
  905MOL0     H22108   0.203   5.960   0.144  0.0614 -1.4052 -1.6462
  905MOL0     H22109   0.009   5.849   0.225  1.9549  0.3225  0.2304
  905MOL0     H22110  -0.218   5.764   0.240  1.8410  0.7807  0.5932
  905MOL0     H22111  -0.186   5.825   0.391  1.0697 -1.1863 -1.4115
  905MOL0     H22112  -0.463   5.834   0.255 -1.9103 -0.3581  1.5417
  905MOL0     H22113  -0.435   5.903   0.415  0.2567 -1.0417  1.7379
  905MOL0     H22114  -0.382   5.661   0.479 -2.4942  1.8308  0.5442
  905MOL0     H22115  -0.456   5.619   0.328 -0.8768 -0.2555 -0.3961
  905MOL0     H22116  -0.571   5.790   0.549  1.0315  0.9846 -2.3240
  905MOL0     H22117  -0.654   5.722   0.404  0.4287  0.1045  1.3506
  905MOL0     H22118  -0.534   5.552   0.627 -1.5891  0.7172  2.8725
  905MOL0     H22119  -0.694   5.614   0.630  1.7956  2.4011  0.1336
  905MOL0     H22120  -0.737   5.435   0.435 -0.8604 -3.6585  0.3329
  905MOL0     H22121  -0.556   5.435   0.441 -0.7759 -0.0990 -1.9490
  905MOL0     H22122  -0.593   5.337   0.673 -0.3084 -1.6398  0.0386
  905MOL0     H22123  -0.632   5.240   0.526 -2.3880  1.4709 -2.6772
  905MOL0     H22124  -0.826   5.398   0.706 -1.6743  0.0522  1.3752
  905MOL0     H22125  -0.883   5.312   0.571 -1.9304  0.2287  1.8914
  905MOL0     H22126  -0.976   5.073   0.610  0.0715  0.8195  1.4183
  905MOL0     H22127  -0.955   4.803   0.702  1.7761 -0.3113  1.1828
  905MOL0     H22128  -0.986   4.793   0.870 -1.7579 -2.3214 -0.8962
  905MOL0     H22129  -1.174   4.940   0.665  0.8899  0.4306  0.0099
  905MOL0     H22130  -1.185   4.786   0.754 -2.7884  0.5256  0.2253
  905MOL0     H22131  -1.118   5.045   0.905  0.6000  1.6609 -1.7184
  905MOL0     H22132  -1.200   4.892   0.957  2.0379  1.0364  2.5450
  905MOL0     H22133  -1.382   5.052   0.945  0.8904 -2.7324  2.2843
  905MOL0     H22134  -1.401   4.944   0.812 -0.3843  0.4534 -0.7199
  905MOL0     H22135  -1.590   5.098   0.699 -3.6239 -0.4353  1.0992
  905MOL0     H22136  -1.766   5.269   0.720 -0.1078 -0.9355  1.6831
  905MOL0     H22137  -1.858   5.681   0.628  1.3254 -0.8516  1.8184
  905MOL0     H22138  -1.978   5.891   0.637 -2.4469 -1.3738 -1.6911
  905MOL0     H22139  -2.186   5.981   1.012 -1.4076 -0.0327  0.4425
  905MOL0     H22140  -2.220   6.126   0.932  1.4055  0.4745 -0.4416
  905MOL0     H22141  -2.372   5.858   0.898  0.0728 -0.2633  1.2628
  905MOL0     H22142  -2.437   5.996   0.987  1.6570  0.7712  1.8542
  905MOL0     H22143  -2.391   5.984   0.685 -1.0452 -0.6422 -0.2006
  905MOL0     H22144  -2.541   5.981   0.762  1.5527 -1.3902  1.5619
  905MOL0     H22145  -2.334   6.221   0.765  1.1436 -2.2004 -1.9804
  905MOL0     H22146  -2.494   6.223   0.842  0.3607  1.4106  0.1681
  905MOL0     H22147  -2.470   6.336   0.617 -4.0495  0.4999  0.8046
  905MOL0     H22148  -2.582   6.195   0.606 -0.5032  1.3100  2.8098
  905MOL0     H22149  -2.441   6.083   0.448  2.1058 -1.3724  1.0664
  905MOL0     H22150  -2.402   6.249   0.421 -1.0604  0.0812  0.9752
  905MOL0     H22151  -2.234   6.040   0.548 -1.3548 -0.2694  0.9698
  905MOL0     H22152  -2.188   6.198   0.601  2.9843 -2.1111 -0.3776
  905MOL0     H22153  -2.194   6.262   0.340  1.3139  0.3160 -1.1838
  905MOL0     H22154  -2.045   6.182   0.418  0.3888 -1.1220  1.4658
  905MOL0     H22155  -2.197   5.748   0.989 -1.4972 -0.3356 -1.0391
  905MOL0     H22156  -2.058   5.545   0.975 -3.7155  0.4037 -0.4392
  905MOL0     H22157  -1.486   5.497   0.970  1.7158 -0.9528  0.4836
  905MOL0     H22158  -1.322   5.328   0.923 -0.1057 -1.9304  1.2256
  905MOL0     H22159  -0.233   6.191   0.121  1.6424  2.9743 -1.0082
  905MOL0     H22160  -0.040   6.295   0.039  2.6394 -0.0900 -1.4630
  905MOL0     H22161   0.508   6.282   0.306  0.9054 -0.4416  0.0774
  905MOL0     H22162   0.701   6.433   0.276  2.4850  0.8203 -3.2058
  905MOL0     H22163   0.699   6.762   0.026  0.0440  0.2051 -0.9561
  905MOL0     H22164   0.734   6.663  -0.116 -2.9619 -1.6327  1.6074
  905MOL0     H22165   0.938   6.820  -0.081  3.3340 -1.5118 -0.5570
  905MOL0     H22166   0.974   6.650  -0.045 -0.8871 -0.7357  0.5525
  905MOL0     H22167   0.939   6.704   0.206 -0.1189 -0.9959 -0.0424
  905MOL0     H22168   0.878   6.851   0.166  1.6208  0.5266  0.1711
  905MOL0     H22169   1.143   6.796   0.035 -1.4264  0.1071 -2.1832
  905MOL0     H22170   1.090   6.954   0.090  0.6406  0.2769  1.1957
  905MOL0     H22171   1.261   6.926   0.445 -2.3149  4.2967 -0.4584
  905MOL0     H22172   0.555   6.555  -0.100 -2.0906  2.9882  1.6722
  905MOL0     H22173   0.216   6.412  -0.048 -1.8795  0.4163 -1.6065
  905MOL0     H22174   0.316   6.527  -0.141  0.1275  0.4143 -0.3120
  905MOL0     H22175   0.327   6.354  -0.178  0.7290  2.9774 -0.3680
  906MOL0     O22176   8.303   1.309   7.503  0.1545  0.3081 -0.3048
  906MOL0     C22177   8.202   1.367   7.478 -1.3340 -0.8989 -0.7841
  906MOL0     O22178   8.070   1.323   7.483 -0.6305  0.1761 -0.3369
  906MOL0     C22179   8.019   1.237   7.586  0.0490  0.0988 -0.9083
  906MOL0     C22180   7.888   1.197   7.574 -0.9176  0.6419  0.6033
  906MOL0     C22181   7.830   1.101   7.665  0.1403 -0.0508 -0.4633
  906MOL0     C22182   7.909   1.039   7.758  0.4496 -0.1514  0.4481
  906MOL0     O22183   7.843   0.947   7.821 -0.3048  0.1190 -0.6470
  906MOL0     C22184   7.897   0.857   7.915 -0.5166 -0.1538  0.0516
  906MOL0     C22185   7.801   0.737   7.939 -0.1457  0.5188 -0.4096
  906MOL0     C22186   7.806   0.647   7.814 -0.5511 -1.0927  1.1176
  906MOL0     C22187   7.687   0.695   7.732  0.5637  0.2887 -0.7706
  906MOL0     C22188   7.661   0.622   7.599 -0.4622 -0.3069  0.1891
  906MOL0     C22189   7.764   0.669   7.492 -0.2399  0.6122 -0.9980
  906MOL0     C22190   7.715   0.748   7.371  0.5947  0.5572 -0.4974
  906MOL0     C22191   7.821   0.835   7.308  0.4432  0.5675 -1.2559
  906MOL0     N22192   7.750   0.953   7.273 -0.0419 -0.1541  0.2129
  906MOL0     C22193   7.717   0.990   7.147  0.6788 -0.6352 -0.1281
  906MOL0     C22194   7.662   1.115   7.151  0.4050  0.8035 -0.1001
  906MOL0     C22195   7.608   1.179   7.030 -0.0387 -0.7495  1.0391
  906MOL0     C22196   7.485   1.274   7.053  0.2113 -0.3648  0.0074
  906MOL0     C22197   7.540   1.415   7.102 -0.2427 -0.7061 -0.0388
  906MOL0     C22198   7.414   1.501   7.147  0.0974 -0.7680  0.5481
  906MOL0     O22199   7.322   1.518   7.037 -0.8023  0.7630  0.9706
  906MOL0     C22200   7.226   1.608   7.052  0.7628  0.0464  0.3565
  906MOL0     C22201   7.125   1.600   6.958 -1.2315 -0.0509  0.6526
  906MOL0     C22202   7.019   1.693   6.961  0.2326 -0.0410  0.2637
  906MOL0     C22203   7.009   1.795   7.054  0.7476 -0.4356 -0.0748
  906MOL0     C22204   6.893   1.881   7.067  0.5400 -1.0546  0.9464
  906MOL0     O22205   6.902   1.986   7.158  0.2759 -0.0612 -0.0651
  906MOL0     C22206   6.809   2.093   7.171  0.0188 -0.3570 -0.1002
  906MOL0     C22207   6.812   2.163   7.295 -0.1275 -0.0645  0.7316
  906MOL0     C22208   6.716   2.264   7.312  1.0432  0.2128 -0.1980
  906MOL0     C22209   6.615   2.292   7.213 -0.2028 -0.8342 -0.3215
  906MOL0     O22210   6.514   2.389   7.214 -0.2653  0.2149  0.3848
  906MOL0     C22211   6.530   2.503   7.305 -0.0031  0.1722  0.0282
  906MOL0     C22212   6.449   2.620   7.249 -0.5376 -1.0668 -0.2227
  906MOL0     C22213   6.492   2.653   7.100 -0.1121  0.4216  0.0830
  906MOL0     C22214   6.644   2.666   7.075 -0.0191  0.9011 -0.0233
  906MOL0     C22215   6.671   2.732   6.935 -0.0105  0.3929 -0.0723
  906MOL0     C22216   6.826   2.756   6.940 -0.3156 -1.0584  0.4604
  906MOL0     C22217   6.909   2.618   6.941  0.0517  0.1748 -0.6936
  906MOL0     C22218   7.044   2.638   6.882  1.2855 -0.0937  0.2986
  906MOL0    Cl22219   7.156   2.506   6.907  0.1155 -0.6724 -0.3961
  906MOL0     C22220   6.640   2.238   7.080  1.6929  0.9067 -0.4482
  906MOL0     C22221   6.728   2.133   7.066 -0.7500 -0.2981 -0.2349
  906MOL0     O22222   6.784   1.850   7.004 -0.5605  0.8211 -0.8694
  906MOL0     C22223   7.113   1.796   7.145  0.4623 -0.6280  0.2614
  906MOL0     C22224   7.221   1.708   7.144 -0.8238  0.3928  0.8048
  906MOL0     N22225   7.668   1.161   7.283 -0.6049  0.1647 -0.1448
  906MOL0     N22226   7.719   1.054   7.355 -0.5409 -1.2788  0.4718
  906MOL0     C22227   8.038   1.081   7.780 -0.6820 -0.3371 -0.2636
  906MOL0     C22228   8.097   1.171   7.695  0.0158 -2.2494  0.1271
  906MOL0     C22229   8.234   1.502   7.431  0.6446  0.9414  0.0745
  906MOL0     C22230   8.331   1.518   7.333 -0.1033 -0.3787  1.0172
  906MOL0     C22231   8.358   1.650   7.289 -0.8570  0.4361 -0.3644
  906MOL0     C22232   8.293   1.756   7.348 -1.5636 -0.5275  0.2462
  906MOL0     O22233   8.347   1.873   7.293  0.1009 -0.5529  0.4682
  906MOL0     C22234   8.318   1.991   7.363 -0.2726  0.5897 -0.4582
  906MOL0     C22235   8.204   2.075   7.303  0.4336  0.5585 -0.4771
  906MOL0     C22236   8.185   2.202   7.387  0.0377 -0.3423 -0.2077
  906MOL0     C22237   8.100   2.303   7.316 -0.1761  0.3044  1.0389
  906MOL0     C22238   8.170   2.386   7.216 -1.3211  0.0242 -0.2218
  906MOL0     C22239   8.230   2.453   7.132 -0.9308  0.6612  0.8684
  906MOL0     C22240   8.201   1.745   7.444 -0.5447  0.3789 -0.8857
  906MOL0     C22241   8.162   1.613   7.485  0.4828 -0.2212  0.4742
  906MOL0     C22242   8.039   1.615   7.584 -0.4022  0.0192  0.5500
  906MOL0     H22243   7.832   1.237   7.489  1.3839  0.6601 -0.9973
  906MOL0     H22244   7.730   1.061   7.645  1.3950 -2.3788 -2.6865
  906MOL0     H22245   7.998   0.823   7.891  0.2909 -0.0000  2.9039
  906MOL0     H22246   7.913   0.912   8.008  5.3187 -2.0653  0.6000
  906MOL0     H22247   7.699   0.775   7.946  0.0608  0.9570  0.2720
  906MOL0     H22248   7.832   0.683   8.029 -0.8855  1.6899  0.5757
  906MOL0     H22249   7.801   0.539   7.829  0.0868 -0.8695  3.3125
  906MOL0     H22250   7.897   0.673   7.758 -2.2435 -0.3698 -1.4635
  906MOL0     H22251   7.601   0.665   7.792 -0.2407 -1.5283 -2.6937
  906MOL0     H22252   7.677   0.802   7.712  0.9791  1.1309  2.8440
  906MOL0     H22253   7.640   0.515   7.601  3.2598 -1.3068 -2.7318
  906MOL0     H22254   7.563   0.663   7.571  0.3464  3.1377  1.7916
  906MOL0     H22255   7.842   0.725   7.545 -0.4819 -1.9947  2.4535
  906MOL0     H22256   7.804   0.578   7.447 -1.1195 -0.5584  0.4990
  906MOL0     H22257   7.639   0.810   7.420 -1.4915 -1.5114 -0.9632
  906MOL0     H22258   7.659   0.691   7.297  0.6762  1.7016 -1.4782
  906MOL0     H22259   7.909   0.838   7.373 -0.5757  2.5626  0.1459
  906MOL0     H22260   7.868   0.784   7.224  2.1906  0.5573 -0.3400
  906MOL0     H22261   7.737   0.931   7.059  1.7598 -0.0769 -0.2724
  906MOL0     H22262   7.691   1.228   6.977 -0.3965 -1.5705 -0.3486
  906MOL0     H22263   7.554   1.100   6.977 -2.3168  1.0054  0.5591
  906MOL0     H22264   7.419   1.295   6.969 -1.1070 -1.6110  0.6702
  906MOL0     H22265   7.426   1.250   7.142  0.2642  1.0385  0.4420
  906MOL0     H22266   7.602   1.474   7.033 -0.3068  1.0166  1.3120
  906MOL0     H22267   7.599   1.411   7.194 -1.3843  1.4039  0.8546
  906MOL0     H22268   7.465   1.589   7.186  0.4433 -1.4128  1.5896
  906MOL0     H22269   7.358   1.463   7.233  0.9920 -0.0279  1.4945
  906MOL0     H22270   7.135   1.524   6.881  0.3443 -0.2803  1.0508
  906MOL0     H22271   6.934   1.706   6.895  0.2089  3.5347  0.8284
  906MOL0     H22272   6.873   2.121   7.374 -1.2408  0.4886  1.9173
  906MOL0     H22273   6.735   2.324   7.401  5.9459  1.0851 -1.5135
  906MOL0     H22274   6.490   2.476   7.404 -2.0342 -2.9685 -1.4671
  906MOL0     H22275   6.632   2.536   7.330  0.1290 -0.5601  0.5178
  906MOL0     H22276   6.343   2.602   7.266 -0.3536 -0.7791  1.3749
  906MOL0     H22277   6.485   2.706   7.306 -0.0631 -1.0475 -0.5421
  906MOL0     H22278   6.465   2.580   7.023  0.9861  0.1421 -0.0412
  906MOL0     H22279   6.452   2.751   7.070  2.7038  2.0813  1.3297
  906MOL0     H22280   6.692   2.567   7.083 -2.7631 -0.6487 -1.3709
  906MOL0     H22281   6.689   2.734   7.148  1.1900 -0.3268  0.4326
  906MOL0     H22282   6.613   2.824   6.922  1.3648  1.1669 -1.0829
  906MOL0     H22283   6.648   2.674   6.845  0.8506  0.9863 -0.6918
  906MOL0     H22284   6.863   2.805   6.849  3.1726  0.5225  2.5499
  906MOL0     H22285   6.856   2.823   7.020  0.1206  0.3612 -0.8415
  906MOL0     H22286   6.854   2.537   6.891  0.5223  0.4704 -1.7243
  906MOL0     H22287   6.914   2.596   7.048  0.6110 -0.6374 -0.8729
  906MOL0     H22288   7.031   2.667   6.777  0.8965  0.7564  0.5694
  906MOL0     H22289   7.090   2.728   6.924 -0.0521  1.8034 -2.0279
  906MOL0     H22290   6.567   2.266   7.004  0.4518 -1.3345 -0.1665
  906MOL0     H22291   6.735   2.092   6.966 -2.3115  0.3484 -0.6264
  906MOL0     H22292   7.115   1.883   7.210  1.9868  0.2498 -0.8881
  906MOL0     H22293   7.301   1.727   7.215  0.1725 -2.3760  0.5520
  906MOL0     H22294   8.085   1.049   7.873  0.2023 -0.7875 -0.8499
  906MOL0     H22295   8.203   1.194   7.704 -0.6484  0.3507  3.1944
  906MOL0     H22296   8.384   1.436   7.288 -3.0656 -2.7170  1.4804
  906MOL0     H22297   8.436   1.673   7.216  0.8761  0.6861  1.4784
  906MOL0     H22298   8.403   2.060   7.352  0.8897 -0.9118 -1.2544
  906MOL0     H22299   8.295   1.974   7.468 -1.4750  0.5761 -0.7055
  906MOL0     H22300   8.128   1.997   7.302 -1.1235  1.6651  4.3555
  906MOL0     H22301   8.239   2.096   7.202 -1.1439 -3.0984 -1.9513
  906MOL0     H22302   8.274   2.258   7.414  1.1445  0.7388 -5.0258
  906MOL0     H22303   8.134   2.156   7.472  1.7196 -3.2869 -0.6588
  906MOL0     H22304   8.007   2.262   7.276  0.9519 -0.3366 -1.0910
  906MOL0     H22305   8.083   2.377   7.395 -1.3684  0.1693  0.9335
  906MOL0     H22306   8.267   2.509   7.049 -0.6821 -0.4918  0.1719
  906MOL0     H22307   8.142   1.830   7.477 -2.2869  0.3002 -3.5344
  906MOL0     H22308   7.952   1.561   7.545 -2.2984  3.5201 -0.4725
  906MOL0     H22309   8.068   1.574   7.681 -3.2889 -0.9643  1.1061
  906MOL0     H22310   8.006   1.719   7.597 -1.3013 -0.3814  1.6479
  907MOL0     O22311   4.105   1.222   4.525 -0.2796  0.3463  0.8495
  907MOL0     C22312   4.191   1.261   4.605 -0.1121 -0.5627 -0.1324
  907MOL0     O22313   4.325   1.221   4.600 -0.1866 -0.6295  0.4189
  907MOL0     C22314   4.360   1.135   4.502 -0.2807  0.0309  0.2439
  907MOL0     C22315   4.443   1.033   4.542 -0.3837  1.1824 -0.5292
  907MOL0     C22316   4.481   0.937   4.446 -0.4337  0.2458  0.3630
  907MOL0     C22317   4.457   0.953   4.306 -0.0022  0.4456  0.3230
  907MOL0     O22318   4.483   0.862   4.204  0.4584  0.1892  0.2013
  907MOL0     C22319   4.579   0.763   4.225  0.5520  0.7517 -0.4721
  907MOL0     C22320   4.628   0.705   4.087  0.3369  0.1977 -0.6699
  907MOL0     C22321   4.682   0.804   3.982  1.1493 -1.1028 -0.7353
  907MOL0     C22322   4.796   0.891   4.022 -0.6631  0.2571  0.3037
  907MOL0     C22323   4.842   0.987   3.905  0.6206 -0.3130 -0.3338
  907MOL0     C22324   4.975   1.058   3.938 -0.4052  0.8320  0.5408
  907MOL0     C22325   5.092   0.959   3.932  0.4287  0.2135 -0.1592
  907MOL0     C22326   5.150   0.967   3.786 -0.2948  0.5848 -0.4031
  907MOL0     N22327   5.241   0.861   3.776  0.3235  0.5254  0.3288
  907MOL0     C22328   5.374   0.868   3.751 -0.4581 -0.2194 -0.4852
  907MOL0     C22329   5.424   0.740   3.752  0.6991 -0.1243  0.6195
  907MOL0     C22330   5.570   0.715   3.749  0.9832  0.8024  0.2579
  907MOL0     C22331   5.633   0.783   3.630 -0.5246  0.3436 -0.5161
  907MOL0     C22332   5.780   0.750   3.633  0.2390 -0.2583  0.0708
  907MOL0     C22333   5.836   0.767   3.486 -0.5133  0.3487 -1.1574
  907MOL0     O22334   5.812   0.896   3.428  0.5750  0.1795 -0.2364
  907MOL0     C22335   5.860   0.916   3.302 -0.4109 -0.6948 -0.2695
  907MOL0     C22336   5.845   1.046   3.260 -0.2808  1.1197  0.3648
  907MOL0     C22337   5.891   1.083   3.134 -0.6619  0.4044  0.9391
  907MOL0     C22338   5.950   0.985   3.048  1.2744 -0.0614 -0.3851
  907MOL0     C22339   5.985   1.041   2.915 -0.1173  1.1409 -1.1325
  907MOL0     O22340   6.040   0.939   2.834 -0.2312 -0.3379 -0.2783
  907MOL0     C22341   6.056   0.957   2.701 -0.2970 -0.5746 -0.4283
  907MOL0     C22342   6.168   0.904   2.637  0.3289 -0.4473  0.2567
  907MOL0     C22343   6.191   0.906   2.500  0.7012 -0.3095 -0.1192
  907MOL0     C22344   6.084   0.959   2.421 -0.2468  1.2564 -0.5687
  907MOL0     O22345   6.094   0.953   2.286  0.7814  0.0574 -0.2556
  907MOL0     C22346   6.203   1.029   2.230 -1.2742 -0.0078  0.0983
  907MOL0     C22347   6.188   1.187   2.252  0.1382  0.6932  0.1761
  907MOL0     C22348   6.079   1.238   2.143  0.0492 -0.0161  0.6648
  907MOL0     C22349   5.932   1.237   2.194 -0.7435 -0.3216 -0.6141
  907MOL0     C22350   5.847   1.307   2.091  0.9326 -0.3958 -0.5727
  907MOL0     C22351   5.707   1.326   2.135 -1.0509 -0.3553 -0.0698
  907MOL0     C22352   5.632   1.390   2.030  0.7636  1.3630 -0.9405
  907MOL0     C22353   5.480   1.409   2.048  0.5264  0.2389  0.7264
  907MOL0    Cl22354   5.432   1.520   2.168 -0.5791  0.0458  0.2939
  907MOL0     C22355   5.965   1.009   2.478  0.5439 -0.6176 -0.4472
  907MOL0     C22356   5.956   1.002   2.612 -0.3157 -0.0934 -0.0268
  907MOL0     O22357   5.957   1.152   2.877  0.4576 -1.0559  0.5838
  907MOL0     C22358   5.962   0.859   3.095 -0.5644  0.6748 -0.5096
  907MOL0     C22359   5.927   0.824   3.221  0.2138 -0.0842  0.0107
  907MOL0     N22360   5.319   0.654   3.776  0.8484 -0.4322 -0.3801
  907MOL0     N22361   5.214   0.729   3.802  0.3491 -0.9412  0.5706
  907MOL0     C22362   4.379   1.059   4.265  0.6881  0.3920 -1.6258
  907MOL0     C22363   4.330   1.141   4.367  0.1325  0.2826  0.4542
  907MOL0     C22364   4.149   1.345   4.715  0.2912 -0.2922 -0.0681
  907MOL0     C22365   4.244   1.390   4.811  0.0851  0.7113 -0.8515
  907MOL0     C22366   4.206   1.447   4.936  0.6803  0.2604 -0.0280
  907MOL0     C22367   4.073   1.494   4.947  0.5261  1.1449 -0.3990
  907MOL0     O22368   4.039   1.549   5.076  0.1628 -0.3591 -0.2072
  907MOL0     C22369   3.895   1.555   5.100  0.1694 -0.5676  0.6591
  907MOL0     C22370   3.873   1.658   5.225  0.6883 -0.4891  0.4749
  907MOL0     C22371   3.915   1.599   5.364 -0.4563  0.6774 -0.2697
  907MOL0     C22372   3.800   1.496   5.414  0.4366  0.3218 -0.2286
  907MOL0     C22373   3.840   1.412   5.532  1.2487 -0.7849 -0.5082
  907MOL0     C22374   3.872   1.359   5.634 -0.7011  0.6390 -1.0124
  907MOL0     C22375   3.983   1.467   4.846 -0.7791 -0.0798  1.3549
  907MOL0     C22376   4.016   1.394   4.732 -0.2373 -0.3744  0.2385
  907MOL0     C22377   3.894   1.376   4.635  0.0431  0.3782  0.5094
  907MOL0     H22378   4.472   1.020   4.646 -0.9830 -0.5615 -0.5390
  907MOL0     H22379   4.530   0.846   4.481 -3.7353 -1.7788  0.1911
  907MOL0     H22380   4.661   0.793   4.291 -1.8846 -0.3710  3.4531
  907MOL0     H22381   4.525   0.681   4.273  0.3311  1.2937  0.2431
  907MOL0     H22382   4.540   0.657   4.043  0.1546 -0.5163  0.4388
  907MOL0     H22383   4.701   0.626   4.101 -1.6638 -1.8934 -1.3806
  907MOL0     H22384   4.609   0.876   3.943  2.1589  0.0107 -0.6586
  907MOL0     H22385   4.717   0.743   3.899  1.3415 -3.3460  0.9016
  907MOL0     H22386   4.782   0.934   4.122 -1.7193 -3.6914  2.0231
  907MOL0     H22387   4.879   0.826   4.050 -1.9251 -1.4630  0.1505
  907MOL0     H22388   4.845   0.931   3.811 -0.5320  2.4528 -2.1485
  907MOL0     H22389   4.767   1.066   3.894  2.9188  1.9265 -0.8389
  907MOL0     H22390   4.990   1.144   3.872  2.2501  0.3686  0.4246
  907MOL0     H22391   4.968   1.087   4.043 -0.5425 -2.0421  1.4351
  907MOL0     H22392   5.050   0.862   3.963  1.2384  1.5384  6.5424
  907MOL0     H22393   5.170   0.973   4.007 -1.3539  0.9880  1.6039
  907MOL0     H22394   5.079   0.957   3.703  1.8771 -2.5869 -2.0878
  907MOL0     H22395   5.208   1.055   3.757  2.2338 -0.6548  0.6306
  907MOL0     H22396   5.432   0.959   3.742 -4.3646  2.5492 -0.3287
  907MOL0     H22397   5.603   0.752   3.846  0.8319 -2.4481  1.6873
  907MOL0     H22398   5.585   0.607   3.748  0.1626  0.6625 -1.2062
  907MOL0     H22399   5.590   0.750   3.535 -0.4691 -1.0591 -0.0756
  907MOL0     H22400   5.620   0.892   3.622  1.7840  0.6146 -1.4331
  907MOL0     H22401   5.799   0.649   3.672 -2.1696 -0.0981  1.8835
  907MOL0     H22402   5.827   0.823   3.699 -1.4208  2.1483 -1.2587
  907MOL0     H22403   5.783   0.693   3.425 -1.2646 -1.2559  1.2900
  907MOL0     H22404   5.943   0.742   3.489 -0.7224 -0.7181  2.7516
  907MOL0     H22405   5.794   1.112   3.330 -0.8382 -0.6560  1.6980
  907MOL0     H22406   5.876   1.188   3.110 -0.2853  0.0190 -1.2321
  907MOL0     H22407   6.253   0.869   2.694  1.7753  1.2761 -0.7428
  907MOL0     H22408   6.283   0.868   2.456 -0.1016 -0.8486 -1.3932
  907MOL0     H22409   6.294   0.995   2.281 -0.7126 -1.3545 -1.6876
  907MOL0     H22410   6.226   1.006   2.126  1.4703 -0.0461  0.6231
  907MOL0     H22411   6.164   1.209   2.356  0.4020  3.0954 -0.2222
  907MOL0     H22412   6.281   1.241   2.233 -1.3687  3.0202 -1.1231
  907MOL0     H22413   6.108   1.343   2.135 -0.6048  0.2957  2.0326
  907MOL0     H22414   6.075   1.190   2.045 -1.8151 -1.0223  1.1827
  907MOL0     H22415   5.935   1.297   2.285  1.6357  1.8932 -2.0035
  907MOL0     H22416   5.885   1.143   2.223 -0.2768  0.0911  1.6610
  907MOL0     H22417   5.859   1.249   2.000  0.7798 -0.6223 -0.4487
  907MOL0     H22418   5.889   1.408   2.083  2.4915 -0.8462  1.3213
  907MOL0     H22419   5.658   1.230   2.152  2.3267 -2.2870 -0.4694
  907MOL0     H22420   5.697   1.386   2.226 -0.1948  0.5505 -0.5475
  907MOL0     H22421   5.643   1.324   1.943 -3.3780 -2.5457  1.0916
  907MOL0     H22422   5.682   1.485   2.007  1.9499  0.9516 -0.2149
  907MOL0     H22423   5.432   1.434   1.953 -0.4023  1.9106  1.5926
  907MOL0     H22424   5.430   1.317   2.081  1.5818 -0.3582  0.6903
  907MOL0     H22425   5.888   1.058   2.418  1.1280  1.3760  0.3396
  907MOL0     H22426   5.853   1.023   2.640 -0.0886  1.2537 -0.1225
  907MOL0     H22427   6.011   0.793   3.023 -2.5339  0.8069 -2.0564
  907MOL0     H22428   5.948   0.722   3.251 -4.2908 -1.4061 -0.5370
  907MOL0     H22429   4.345   1.064   4.162 -0.2385 -0.8392 -1.3994
  907MOL0     H22430   4.269   1.226   4.339  0.8084  0.4605 -0.5169
  907MOL0     H22431   4.348   1.361   4.796  0.7955  2.3639  0.5432
  907MOL0     H22432   4.277   1.482   5.010 -1.4384  2.4478  1.1312
  907MOL0     H22433   3.839   1.461   5.103 -2.1291  0.5637 -2.0660
  907MOL0     H22434   3.860   1.625   5.024 -1.0151 -0.1971  1.5073
  907MOL0     H22435   3.770   1.694   5.225  1.3790  1.5861  0.9397
  907MOL0     H22436   3.934   1.747   5.209 -0.4180  0.3801  0.9287
  907MOL0     H22437   3.930   1.683   5.433 -1.7412  0.9973 -0.3617
  907MOL0     H22438   4.012   1.549   5.354 -0.6183  0.6603 -2.0120
  907MOL0     H22439   3.709   1.549   5.445 -0.7268  0.0661 -2.9690
  907MOL0     H22440   3.775   1.413   5.347 -0.0243 -0.3362  0.7291
  907MOL0     H22441   3.908   1.306   5.720 -4.9464 -2.5376 -0.8657
  907MOL0     H22442   3.882   1.506   4.856  0.3539  4.6854 -2.2063
  907MOL0     H22443   3.925   1.408   4.535 -1.6603  0.8478  0.0967
  907MOL0     H22444   3.856   1.273   4.633  2.2318 -0.4921 -1.4052
  907MOL0     H22445   3.804   1.438   4.648 -0.8933  0.0736 -3.2676
  908MOL0     O22446   7.014   1.452   8.704  0.6264 -0.6395 -0.3484
  908MOL0     C22447   7.084   1.409   8.796  0.8450 -0.2283  0.1657
  908MOL0     O22448   7.221   1.447   8.820  0.1728  0.1048  0.0279
  908MOL0     C22449   7.271   1.527   8.720  0.7072 -0.0258 -0.7036
  908MOL0     C22450   7.366   1.469   8.635  1.7422  1.1729  0.0532
  908MOL0     C22451   7.416   1.540   8.524 -0.0616 -0.5152 -0.5482
  908MOL0     C22452   7.384   1.666   8.490 -0.3004  0.1984  0.4510
  908MOL0     O22453   7.437   1.720   8.374  0.0029  0.6981  0.4484
  908MOL0     C22454   7.363   1.670   8.256 -0.3745 -0.1796  0.2153
  908MOL0     C22455   7.255   1.768   8.221 -0.1477  0.5057 -0.3089
  908MOL0     C22456   7.187   1.744   8.090  0.0446  0.2029  0.0876
  908MOL0     C22457   7.270   1.781   7.970  0.2518 -0.9744 -0.0382
  908MOL0     C22458   7.186   1.810   7.836 -0.8499  0.2022  0.4853
  908MOL0     C22459   7.102   1.693   7.789 -0.7502  0.2072 -0.9790
  908MOL0     C22460   6.958   1.744   7.743  0.7661  0.0833  0.5383
  908MOL0     C22461   6.957   1.842   7.623  0.4187 -0.0690 -0.4028
  908MOL0     N22462   6.848   1.935   7.638 -0.5107 -0.1070  1.3129
  908MOL0     C22463   6.717   1.901   7.663 -0.5546  0.7553  0.2650
  908MOL0     C22464   6.659   2.016   7.649  0.7637  0.3646 -0.0794
  908MOL0     C22465   6.508   2.054   7.641  0.2135  0.1560  0.5379
  908MOL0     C22466   6.455   2.162   7.732  0.6881  1.2328 -1.5310
  908MOL0     C22467   6.445   2.109   7.876  0.0395 -1.4392  1.4068
  908MOL0     C22468   6.384   2.215   7.972  0.0775 -0.5886 -0.0371
  908MOL0     O22469   6.253   2.260   7.914 -0.4310 -0.0851 -0.1532
  908MOL0     C22470   6.137   2.226   7.978  0.3165 -0.7714 -0.1964
  908MOL0     C22471   6.108   2.144   8.089  0.2754  0.7538  0.3603
  908MOL0     C22472   5.980   2.125   8.140  0.1471 -0.1316  0.1181
  908MOL0     C22473   5.871   2.205   8.083 -0.1519 -0.2587  0.3620
  908MOL0     C22474   5.736   2.199   8.134  0.5049  0.3647  0.7809
  908MOL0     O22475   5.646   2.296   8.088  0.2272 -0.1116  0.4753
  908MOL0     C22476   5.514   2.269   8.084  0.3585  0.5412  0.1147
  908MOL0     C22477   5.417   2.357   8.116 -0.9717 -0.5491  1.1383
  908MOL0     C22478   5.277   2.328   8.089  0.0074  0.6317  0.2629
  908MOL0     C22479   5.235   2.199   8.043  0.2823 -0.3183  0.7734
  908MOL0     O22480   5.104   2.173   7.999 -0.0867  0.1247  0.2171
  908MOL0     C22481   4.994   2.180   8.090 -0.4198 -0.1712  0.2433
  908MOL0     C22482   4.976   2.044   8.147  0.0606 -0.3629 -0.2978
  908MOL0     C22483   4.902   2.048   8.285 -0.6630  0.8423 -0.0011
  908MOL0     C22484   4.774   2.087   8.262 -0.3527 -0.9974  0.5308
  908MOL0     C22485   4.687   2.101   8.398  0.1790 -0.0953  0.8288
  908MOL0     C22486   4.720   2.237   8.466 -0.3346  0.6757  0.3292
  908MOL0     C22487   4.830   2.232   8.578  0.2378  0.5496 -0.5356
  908MOL0     C22488   4.886   2.375   8.617 -0.1799  0.2118 -0.3504
  908MOL0    Cl22489   4.966   2.432   8.476 -0.1580  0.1357  0.3680
  908MOL0     C22490   5.336   2.113   8.006 -0.0713  0.1105 -0.8477
  908MOL0     C22491   5.469   2.149   8.020  0.4088  0.5536  0.5790
  908MOL0     O22492   5.703   2.096   8.198  1.1642  0.2136 -0.9769
  908MOL0     C22493   5.907   2.290   7.973  0.2564 -0.2617  0.8572
  908MOL0     C22494   6.034   2.297   7.924  1.1343  0.1074  0.3921
  908MOL0     N22495   6.749   2.117   7.626  0.4214  0.1136 -0.9326
  908MOL0     N22496   6.859   2.069   7.618 -1.3666  0.4734 -1.0554
  908MOL0     C22497   7.286   1.721   8.569 -0.4631  0.6993  0.7770
  908MOL0     C22498   7.242   1.667   8.687 -0.3622 -0.8876  0.2484
  908MOL0     C22499   7.014   1.312   8.876  0.1222  0.2586  0.1388
  908MOL0     C22500   6.878   1.338   8.900  0.0849  0.3193  0.2581
  908MOL0     C22501   6.813   1.248   8.991 -0.2424 -0.0717 -1.2693
  908MOL0     C22502   6.874   1.138   9.047 -0.5187  0.1683  0.7923
  908MOL0     O22503   6.818   1.073   9.156  0.1969 -0.1285 -0.9228
  908MOL0     C22504   6.760   0.936   9.129  0.0640 -1.1847  0.0871
  908MOL0     C22505   6.658   0.934   9.014 -0.0679  0.1479  0.0752
  908MOL0     C22506   6.532   1.009   9.045 -0.8644  0.2309 -0.1855
  908MOL0     C22507   6.449   1.005   8.917 -0.4145 -0.0997  0.8417
  908MOL0     C22508   6.423   0.872   8.854 -0.0639  0.4016  0.0441
  908MOL0     C22509   6.423   0.764   8.796  1.0760 -0.3290 -0.0057
  908MOL0     C22510   7.007   1.101   9.000 -0.0281 -0.9499 -0.9544
  908MOL0     C22511   7.078   1.189   8.924  0.5451  0.0421 -0.3546
  908MOL0     C22512   7.202   1.134   8.872  0.0112  0.7161 -0.0485
  908MOL0     H22513   7.397   1.366   8.647  2.6031  1.2293 -1.5155
  908MOL0     H22514   7.492   1.481   8.472  0.6600  1.9852 -2.5311
  908MOL0     H22515   7.438   1.665   8.176  1.6400 -0.5325  2.0085
  908MOL0     H22516   7.315   1.573   8.270 -0.4877 -0.7413 -3.2711
  908MOL0     H22517   7.298   1.867   8.238  0.4427  1.0310 -4.1200
  908MOL0     H22518   7.176   1.760   8.296 -0.9115 -2.0262 -1.2761
  908MOL0     H22519   7.089   1.792   8.098 -1.5384 -2.8281  0.4656
  908MOL0     H22520   7.164   1.637   8.089 -1.6649  0.5283 -1.4830
  908MOL0     H22521   7.339   1.859   8.004  0.7080 -2.5512  3.0247
  908MOL0     H22522   7.332   1.693   7.956  3.5948  1.3206 -0.9398
  908MOL0     H22523   7.122   1.898   7.847 -0.2504  0.5878  0.9172
  908MOL0     H22524   7.245   1.815   7.744 -2.0880  0.3021 -0.3282
  908MOL0     H22525   7.152   1.634   7.712 -1.0321 -0.4499 -0.6638
  908MOL0     H22526   7.084   1.623   7.871 -5.0729 -0.0783 -1.9540
  908MOL0     H22527   6.916   1.795   7.830  3.2338  1.5891  0.9576
  908MOL0     H22528   6.907   1.649   7.726  2.4876 -0.8374  0.3347
  908MOL0     H22529   7.047   1.903   7.612 -1.2834  3.0822  1.5638
  908MOL0     H22530   6.933   1.777   7.538 -3.6508 -2.3608  2.1925
  908MOL0     H22531   6.677   1.801   7.678  0.1624  0.4173 -0.0035
  908MOL0     H22532   6.497   2.076   7.535  3.4151 -1.1598 -0.1834
  908MOL0     H22533   6.443   1.966   7.646  0.1494  0.1763  0.1077
  908MOL0     H22534   6.528   2.243   7.721  1.2895  1.0393  0.6939
  908MOL0     H22535   6.360   2.183   7.682 -1.5231 -2.3111  0.7444
  908MOL0     H22536   6.546   2.076   7.899  0.6260 -3.1616 -2.6532
  908MOL0     H22537   6.371   2.028   7.879 -1.9417  0.1311 -0.8559
  908MOL0     H22538   6.442   2.304   7.997 -0.3114 -1.2562  3.8685
  908MOL0     H22539   6.380   2.159   8.066  2.1955  0.6375  0.8573
  908MOL0     H22540   6.185   2.078   8.128  1.8195  0.7292 -2.4157
  908MOL0     H22541   5.966   2.050   8.218 -0.3167 -2.2130 -1.8731
  908MOL0     H22542   5.456   2.449   8.159 -1.5018  1.6032 -2.5009
  908MOL0     H22543   5.202   2.403   8.111  0.4296  0.5985  1.9167
  908MOL0     H22544   5.024   2.242   8.175 -3.4558 -0.7689  1.8862
  908MOL0     H22545   4.901   2.230   8.060 -0.4528 -1.3271 -1.7936
  908MOL0     H22546   4.913   1.984   8.080 -0.6668 -0.5961  0.5702
  908MOL0     H22547   5.072   1.996   8.167 -0.7423 -2.1271 -0.4080
  908MOL0     H22548   4.903   1.951   8.336 -0.2610  1.0960  0.4765
  908MOL0     H22549   4.956   2.107   8.359  0.3708  0.1534 -0.1730
  908MOL0     H22550   4.717   2.018   8.199 -2.1647  0.9419 -0.1031
  908MOL0     H22551   4.770   2.186   8.215 -0.6241 -2.0941 -1.9365
  908MOL0     H22552   4.702   2.020   8.470 -0.6208  0.4413  1.6286
  908MOL0     H22553   4.582   2.100   8.368  0.4547  0.1615 -0.1751
  908MOL0     H22554   4.744   2.311   8.388  0.1846  2.1061  1.8031
  908MOL0     H22555   4.626   2.248   8.520  0.0048 -0.8110  1.2817
  908MOL0     H22556   4.908   2.156   8.565 -0.7530 -0.4442 -0.7742
  908MOL0     H22557   4.779   2.190   8.665  1.6474 -2.9331 -1.1932
  908MOL0     H22558   4.792   2.426   8.641 -1.5021 -1.0767 -2.5405
  908MOL0     H22559   4.951   2.369   8.705 -1.9517 -0.9019  0.9547
  908MOL0     H22560   5.302   2.035   7.939 -3.4327  3.0472 -2.9397
  908MOL0     H22561   5.539   2.083   7.970 -0.1807  0.4200 -0.0965
  908MOL0     H22562   5.820   2.340   7.930  1.0080  2.8227  2.6161
  908MOL0     H22563   6.059   2.356   7.836 -1.1315  1.9060  0.8615
  908MOL0     H22564   7.255   1.821   8.539  0.2927  0.3863 -1.1980
  908MOL0     H22565   7.186   1.723   8.761 -0.4669 -0.6215 -0.0260
  908MOL0     H22566   6.833   1.429   8.863  3.6189  2.1423 -0.0076
  908MOL0     H22567   6.713   1.268   9.028 -0.6562  0.8643 -2.7894
  908MOL0     H22568   6.702   0.906   9.217  2.0457 -2.2898  1.0698
  908MOL0     H22569   6.844   0.871   9.106  0.6656 -0.3058 -0.2217
  908MOL0     H22570   6.627   0.830   9.001  2.0110 -0.8487  2.2588
  908MOL0     H22571   6.711   0.973   8.926  0.3592 -0.7260 -0.0658
  908MOL0     H22572   6.546   1.113   9.077  0.0267 -0.0116  0.2326
  908MOL0     H22573   6.477   0.961   9.126  0.8539 -4.0469 -1.2949
  908MOL0     H22574   6.354   1.047   8.952 -0.9513 -0.6266  0.0301
  908MOL0     H22575   6.488   1.069   8.837  5.4412 -0.5661  2.8191
  908MOL0     H22576   6.426   0.690   8.719 -0.0676 -0.5922  0.1849
  908MOL0     H22577   7.053   1.015   9.048  2.2988  1.1392  0.7619
  908MOL0     H22578   7.225   1.185   8.779 -1.5512  1.3775 -0.1078
  908MOL0     H22579   7.276   1.144   8.952  0.1145 -1.6894  0.2297
  908MOL0     H22580   7.172   1.032   8.846 -3.0461  1.7020 -0.8345
  909MOL0     O22581   1.762   0.966   3.007 -0.6312  0.2853 -0.1417
  909MOL0     C22582   1.708   0.976   2.898  0.4654 -1.0264 -0.8375
  909MOL0     O22583   1.597   0.903   2.865  0.4227 -0.2192  0.4530
  909MOL0     C22584   1.508   0.875   2.968 -0.4085  0.3639 -0.0859
  909MOL0     C22585   1.476   0.965   3.069 -0.1020  1.0284 -0.1000
  909MOL0     C22586   1.387   0.918   3.173 -0.0395 -1.4607  1.0094
  909MOL0     C22587   1.330   0.790   3.178  0.5644  0.6818  0.5909
  909MOL0     O22588   1.234   0.777   3.277  0.1048  0.2213 -0.4488
  909MOL0     C22589   1.263   0.672   3.363  0.7249  0.3706 -0.6122
  909MOL0     C22590   1.203   0.719   3.498 -0.3719 -0.2604 -0.2654
  909MOL0     C22591   1.263   0.649   3.621 -0.2427  0.5930 -0.2393
  909MOL0     C22592   1.192   0.675   3.757  0.3321  0.4519  0.8856
  909MOL0     C22593   1.068   0.586   3.783  0.7640 -0.5028  1.2903
  909MOL0     C22594   1.112   0.456   3.843  0.7646 -0.2717 -0.6047
  909MOL0     C22595   0.999   0.352   3.822  0.3484  0.4890 -0.2505
  909MOL0     C22596   1.033   0.210   3.883  0.2520 -0.8547  0.1238
  909MOL0     N22597   0.942   0.099   3.840 -0.5132 -0.0002 -0.1991
  909MOL0     C22598   0.910   0.056   3.713 -0.3423  1.0517 -0.3266
  909MOL0     C22599   0.860  -0.070   3.729 -0.1206  0.0258  0.3796
  909MOL0     C22600   0.813  -0.150   3.610  1.1616  0.2391 -0.5203
  909MOL0     C22601   0.662  -0.150   3.598 -0.4594 -0.3342 -0.5628
  909MOL0     C22602   0.603  -0.290   3.562 -0.3380 -0.4713  0.5468
  909MOL0     C22603   0.455  -0.296   3.593 -0.6153 -0.7730  0.2432
  909MOL0     O22604   0.369  -0.242   3.496 -0.5127 -0.3397  0.1335
  909MOL0     C22605   0.280  -0.334   3.452 -0.7943 -0.5420  1.3758
  909MOL0     C22606   0.267  -0.369   3.318 -0.2343 -0.7344 -0.1433
  909MOL0     C22607   0.180  -0.470   3.280  0.3735  0.7331  0.6605
  909MOL0     C22608   0.092  -0.526   3.372  0.0832 -0.6504 -1.2448
  909MOL0     C22609   0.007  -0.629   3.322 -0.2842  0.3011 -0.8010
  909MOL0     O22610  -0.113  -0.644   3.400 -0.5240  0.3025  0.9391
  909MOL0     C22611  -0.227  -0.717   3.363  0.5400  0.6550  0.5518
  909MOL0     C22612  -0.308  -0.756   3.473 -0.1774 -0.0752  0.9470
  909MOL0     C22613  -0.433  -0.811   3.447 -0.1770 -1.1755  0.0443
  909MOL0     C22614  -0.484  -0.823   3.315  0.3123  0.3285  0.1906
  909MOL0     O22615  -0.613  -0.860   3.295 -0.7942 -0.0787  0.0776
  909MOL0     C22616  -0.646  -0.995   3.341 -0.6371 -0.7406  0.1434
  909MOL0     C22617  -0.758  -1.068   3.267  0.3014  0.3472  0.8668
  909MOL0     C22618  -0.705  -1.123   3.136 -0.7771 -1.0329 -0.0953
  909MOL0     C22619  -0.813  -1.220   3.057  0.5459  0.3936 -0.4715
  909MOL0     C22620  -0.750  -1.312   2.956 -0.4733 -0.6592 -0.7998
  909MOL0     C22621  -0.856  -1.404   2.895  0.3763 -0.1710  0.2065
  909MOL0     C22622  -0.963  -1.327   2.811 -0.8703  0.1147 -1.2270
  909MOL0     C22623  -1.023  -1.428   2.720 -0.1034  0.8410  0.5632
  909MOL0    Cl22624  -0.926  -1.455   2.571 -0.5439 -0.0250  0.1626
  909MOL0     C22625  -0.400  -0.791   3.207  0.2787 -0.0882  0.3507
  909MOL0     C22626  -0.264  -0.747   3.233  0.8801  0.5180 -0.3419
  909MOL0     O22627   0.032  -0.690   3.218 -0.0247 -0.4122  0.6137
  909MOL0     C22628   0.090  -0.480   3.500  0.5634 -0.3192  0.4620
  909MOL0     C22629   0.191  -0.385   3.546 -0.0469  0.8603 -0.2595
  909MOL0     N22630   0.857  -0.108   3.860  0.6048 -0.2182 -0.9819
  909MOL0     N22631   0.904  -0.002   3.925 -0.9458 -0.2380  0.2284
  909MOL0     C22632   1.357   0.706   3.074 -0.2044  0.2717 -0.1262
  909MOL0     C22633   1.448   0.743   2.967  0.0116  0.2748 -0.6251
  909MOL0     C22634   1.775   1.046   2.790  0.7250  0.5266  0.8317
  909MOL0     C22635   1.915   1.074   2.801  0.8961  0.5008  1.1894
  909MOL0     C22636   1.993   1.129   2.695  0.5657 -1.1478  0.2600
  909MOL0     C22637   1.932   1.148   2.573  0.3329 -0.0854 -0.2588
  909MOL0     O22638   2.007   1.201   2.467  0.1487 -0.1439 -0.6356
  909MOL0     C22639   1.952   1.224   2.338 -0.3690 -0.6026 -0.3317
  909MOL0     C22640   1.851   1.351   2.328 -0.3460  1.2990  0.1603
  909MOL0     C22641   1.776   1.371   2.187 -0.4528 -0.5515 -0.1109
  909MOL0     C22642   1.640   1.305   2.166 -0.6989 -0.5968  0.4242
  909MOL0     C22643   1.560   1.304   2.285 -0.0116  0.6890 -0.0426
  909MOL0     C22644   1.483   1.281   2.376 -0.5233 -1.0460 -0.6134
  909MOL0     C22645   1.796   1.120   2.562 -0.3790 -0.0653 -0.9282
  909MOL0     C22646   1.718   1.073   2.666  0.6740  0.5482  0.3068
  909MOL0     C22647   1.571   1.033   2.623 -0.0334 -0.6569 -0.2283
  909MOL0     H22648   1.530   1.059   3.069  1.7104  0.1079 -2.5337
  909MOL0     H22649   1.346   0.983   3.250  0.0063 -1.5581  1.1164
  909MOL0     H22650   1.226   0.575   3.328 -1.5317 -0.2587  2.9593
  909MOL0     H22651   1.372   0.661   3.366  0.7146  0.2072 -0.8134
  909MOL0     H22652   1.098   0.690   3.505  0.0885 -2.1999 -0.6877
  909MOL0     H22653   1.220   0.825   3.517  0.7544  0.1692 -3.2040
  909MOL0     H22654   1.368   0.680   3.633  0.9422 -3.2847  0.8105
  909MOL0     H22655   1.265   0.544   3.591 -0.6971  0.3547  0.5503
  909MOL0     H22656   1.264   0.657   3.838  1.8304 -3.5257 -1.0541
  909MOL0     H22657   1.159   0.779   3.765 -1.0142  0.1760 -0.5680
  909MOL0     H22658   0.992   0.645   3.835  0.0263  2.5288 -2.7018
  909MOL0     H22659   1.024   0.566   3.685 -0.0129  0.7754  1.3593
  909MOL0     H22660   1.200   0.414   3.795 -0.3065 -1.3225 -1.7159
  909MOL0     H22661   1.131   0.467   3.951 -0.6133 -0.4063 -0.3227
  909MOL0     H22662   0.991   0.325   3.717  1.1382 -0.0526 -0.1783
  909MOL0     H22663   0.902   0.394   3.850  0.3407  1.0925 -1.1438
  909MOL0     H22664   1.134   0.185   3.847  0.5028  0.3819 -0.0913
  909MOL0     H22665   1.044   0.216   3.991  1.4232  1.1093 -0.0442
  909MOL0     H22666   0.915   0.120   3.625  0.5916  3.2611  1.2404
  909MOL0     H22667   0.853  -0.094   3.525 -0.0340  3.2801  0.7757
  909MOL0     H22668   0.842  -0.255   3.618  1.3239  0.4376  2.8695
  909MOL0     H22669   0.625  -0.117   3.696 -2.1506  1.1147 -1.6321
  909MOL0     H22670   0.632  -0.079   3.521 -0.9526 -1.7721 -1.7287
  909MOL0     H22671   0.647  -0.368   3.626  1.8866  3.0015  3.7244
  909MOL0     H22672   0.617  -0.310   3.456 -3.7579  1.2728 -0.3722
  909MOL0     H22673   0.430  -0.254   3.691  2.0975  0.5228  0.4858
  909MOL0     H22674   0.436  -0.403   3.604 -1.3579 -0.5166  1.5242
  909MOL0     H22675   0.338  -0.330   3.245 -0.4304  0.2430  0.1716
  909MOL0     H22676   0.181  -0.506   3.178  0.0545 -0.6433  1.1309
  909MOL0     H22677  -0.278  -0.742   3.577  2.3686 -0.4553  0.3252
  909MOL0     H22678  -0.505  -0.821   3.528  1.2269  0.8662  1.6626
  909MOL0     H22679  -0.560  -1.062   3.335 -1.3936 -1.8131  0.8955
  909MOL0     H22680  -0.666  -0.991   3.449  0.6437  1.5466  0.3712
  909MOL0     H22681  -0.797  -1.151   3.326 -1.7101 -0.2555 -1.1391
  909MOL0     H22682  -0.844  -1.004   3.243  1.0525  2.3996  3.2413
  909MOL0     H22683  -0.685  -1.030   3.081  0.4623 -0.3029  1.5079
  909MOL0     H22684  -0.608  -1.172   3.143 -0.6228 -0.9247 -1.1830
  909MOL0     H22685  -0.886  -1.161   3.001  0.3208  0.4211 -0.1525
  909MOL0     H22686  -0.864  -1.282   3.131 -0.5207  2.6522  0.7928
  909MOL0     H22687  -0.672  -1.374   3.002  1.8785  3.2523  1.0487
  909MOL0     H22688  -0.701  -1.250   2.881  1.0371  1.5647  1.8517
  909MOL0     H22689  -0.794  -1.462   2.826  0.1633 -1.1908  0.8511
  909MOL0     H22690  -0.889  -1.466   2.979  2.5313  0.4142  1.5671
  909MOL0     H22691  -0.929  -1.241   2.754 -3.5935  2.2770  0.1339
  909MOL0     H22692  -1.038  -1.300   2.886 -0.3424 -0.7178 -0.3752
  909MOL0     H22693  -1.041  -1.528   2.762  0.2409 -0.6131 -2.5099
  909MOL0     H22694  -1.123  -1.397   2.691 -0.2374 -1.4787 -1.7524
  909MOL0     H22695  -0.437  -0.795   3.105 -0.2319  1.6578  0.4401
  909MOL0     H22696  -0.203  -0.719   3.148 -1.4665 -0.5949 -2.5084
  909MOL0     H22697   0.014  -0.516   3.569  0.3414  0.0877  0.4329
  909MOL0     H22698   0.192  -0.363   3.652  0.5935  1.5215 -0.3916
  909MOL0     H22699   1.311   0.608   3.076  3.1310 -1.4269  0.0486
  909MOL0     H22700   1.491   0.673   2.896  1.4056  0.7981 -0.3320
  909MOL0     H22701   1.967   1.054   2.894 -2.0624 -1.2898  2.5986
  909MOL0     H22702   2.099   1.152   2.704  0.9669 -2.0184 -1.7476
  909MOL0     H22703   1.885   1.149   2.295 -0.6387  1.4813 -3.9773
  909MOL0     H22704   2.034   1.218   2.265 -1.2988 -2.2089 -1.3014
  909MOL0     H22705   1.911   1.442   2.337 -1.1227  2.5527 -4.5540
  909MOL0     H22706   1.782   1.357   2.413  1.4566  2.6963  1.5924
  909MOL0     H22707   1.844   1.333   2.109  0.1908  1.0428 -0.3566
  909MOL0     H22708   1.758   1.477   2.171 -1.8056 -0.9160 -1.1790
  909MOL0     H22709   1.598   1.370   2.089  1.2811  1.3704  0.8898
  909MOL0     H22710   1.650   1.203   2.129  0.9395  0.1886 -1.4282
  909MOL0     H22711   1.406   1.266   2.449  0.1532 -1.2066  0.0788
  909MOL0     H22712   1.743   1.156   2.474 -2.0893 -1.4848 -0.5539
  909MOL0     H22713   1.494   1.078   2.685  0.7523  3.1025 -1.7203
  909MOL0     H22714   1.545   1.060   2.520  0.6030 -0.3499 -0.3148
  909MOL0     H22715   1.567   0.924   2.620  1.2889 -0.7106 -2.2506
  910MOL0     O22716   1.786   5.038   2.161 -0.4056  0.0048  0.1876
  910MOL0     C22717   1.713   5.092   2.232 -0.0570 -0.1126 -0.8155
  910MOL0     O22718   1.703   5.229   2.249 -0.0485 -0.0280 -0.4790
  910MOL0     C22719   1.737   5.323   2.159 -0.1798 -0.4650  1.4802
  910MOL0     C22720   1.727   5.291   2.018 -0.3690 -0.3679 -0.4520
  910MOL0     C22721   1.757   5.392   1.925  0.6015 -0.9977 -0.0054
  910MOL0     C22722   1.790   5.523   1.968 -1.0801  0.5319  0.4135
  910MOL0     O22723   1.805   5.620   1.879  0.3846  0.5433 -0.2198
  910MOL0     C22724   1.866   5.568   1.762  0.0634 -1.1088  0.3783
  910MOL0     C22725   1.927   5.691   1.705  0.1022 -0.3253  0.2378
  910MOL0     C22726   1.990   5.672   1.571  0.7089  0.2332 -0.5036
  910MOL0     C22727   2.085   5.792   1.543 -0.0045  0.0927  0.0659
  910MOL0     C22728   2.135   5.806   1.397  0.3928  0.2311  0.0184
  910MOL0     C22729   2.202   5.679   1.337 -0.0705  1.0250 -0.0108
  910MOL0     C22730   2.231   5.683   1.187 -0.6564  0.7247 -0.2356
  910MOL0     C22731   2.154   5.571   1.113 -0.4146  0.4493 -0.2600
  910MOL0     N22732   2.019   5.621   1.079 -0.2987 -0.3374 -0.5948
  910MOL0     C22733   1.927   5.644   1.169 -0.4414  0.0739  0.0891
  910MOL0     C22734   1.841   5.727   1.117  0.0398 -0.0544  0.2824
  910MOL0     C22735   1.709   5.780   1.177 -0.1608 -0.6438 -0.5669
  910MOL0     C22736   1.689   5.937   1.161  0.0976  0.2432  0.3569
  910MOL0     C22737   1.802   6.019   1.215 -0.0698  0.5242  0.3360
  910MOL0     C22738   1.928   6.043   1.120  0.2788  1.6419  0.8647
  910MOL0     O22739   2.004   6.152   1.156  0.2799 -0.5492 -0.6750
  910MOL0     C22740   2.125   6.176   1.103  0.5262 -0.5380 -1.6141
  910MOL0     C22741   2.212   6.275   1.154 -0.0855 -0.0988  0.0980
  910MOL0     C22742   2.334   6.303   1.087  0.1414  0.8291 -0.1588
  910MOL0     C22743   2.376   6.215   0.979  0.1108  0.8173 -0.8610
  910MOL0     C22744   2.508   6.214   0.912  0.2120 -0.4877 -0.5146
  910MOL0     O22745   2.608   6.295   0.966  0.7131  0.6254 -0.0045
  910MOL0     C22746   2.723   6.315   0.883 -0.6801  0.8902 -0.0332
  910MOL0     C22747   2.851   6.302   0.935  0.7545  0.0274  0.0171
  910MOL0     C22748   2.963   6.294   0.852 -0.3836 -1.2895  0.3220
  910MOL0     C22749   2.955   6.332   0.716  0.1047  0.7257 -0.0162
  910MOL0     O22750   3.078   6.355   0.660  0.5814  0.6136  0.6437
  910MOL0     C22751   3.106   6.270   0.547 -0.6734  1.0554 -0.7578
  910MOL0     C22752   3.204   6.161   0.589 -0.2698  0.1642 -1.0640
  910MOL0     C22753   3.343   6.211   0.638 -0.0040 -0.4336 -0.5306
  910MOL0     C22754   3.432   6.109   0.709 -0.4553 -0.1811  0.4520
  910MOL0     C22755   3.385   6.046   0.840 -0.0918 -0.7585  0.2661
  910MOL0     C22756   3.383   6.163   0.947  0.3464 -0.5701 -0.4435
  910MOL0     C22757   3.322   6.140   1.087  0.2971  0.3013  0.6755
  910MOL0     C22758   3.350   5.991   1.134  0.7664  0.0025  0.6026
  910MOL0    Cl22759   3.527   5.973   1.158  0.5522 -0.1166  0.0812
  910MOL0     C22760   2.828   6.349   0.661 -0.0558 -0.0400 -0.4233
  910MOL0     C22761   2.718   6.348   0.745  0.0200  0.6638  0.9923
  910MOL0     O22762   2.517   6.146   0.811  0.2355 -0.9635  0.6491
  910MOL0     C22763   2.283   6.115   0.930  0.2396  0.4649  0.8109
  910MOL0     C22764   2.165   6.100   0.991 -0.2582  0.3633  0.1597
  910MOL0     N22765   1.870   5.736   0.981 -0.4102 -0.2673  0.0404
  910MOL0     N22766   1.976   5.669   0.958 -0.3903  1.0902 -0.6250
  910MOL0     C22767   1.790   5.550   2.101  0.0328 -0.0802  0.1995
  910MOL0     C22768   1.755   5.452   2.195 -0.9523  0.4675 -0.3486
  910MOL0     C22769   1.622   5.021   2.334 -0.7606 -0.3757 -0.4326
  910MOL0     C22770   1.555   5.091   2.437  1.2133  0.3831 -0.0895
  910MOL0     C22771   1.485   5.020   2.538 -0.1507  0.1892 -0.7032
  910MOL0     C22772   1.462   4.883   2.527  0.1286  0.0372  0.2986
  910MOL0     O22773   1.379   4.819   2.614 -0.6256 -0.2828 -0.0592
  910MOL0     C22774   1.284   4.723   2.567  0.0758  0.0017  0.7149
  910MOL0     C22775   1.147   4.777   2.579  0.8112 -0.4593  0.0306
  910MOL0     C22776   1.107   4.869   2.456  0.8529 -0.0725  0.1365
  910MOL0     C22777   0.980   4.951   2.465  0.3593  1.1628 -0.3828
  910MOL0     C22778   0.990   5.070   2.550 -0.1664  0.3159 -0.5194
  910MOL0     C22779   1.004   5.172   2.610 -0.3613 -0.9141  0.1559
  910MOL0     C22780   1.524   4.813   2.422  0.5208  1.4034  0.3005
  910MOL0     C22781   1.599   4.881   2.323  0.4502 -0.2229 -0.4015
  910MOL0     C22782   1.650   4.791   2.219  1.0951  0.2118  0.6042
  910MOL0     H22783   1.701   5.193   1.979  0.4554 -1.6884  2.0804
  910MOL0     H22784   1.739   5.363   1.822 -1.0743  1.8780 -0.6179
  910MOL0     H22785   1.952   5.502   1.780  1.8049  1.0598  0.4885
  910MOL0     H22786   1.798   5.514   1.695  0.3274 -2.8820  1.4714
  910MOL0     H22787   1.995   5.714   1.787 -0.0712  2.2485 -0.2456
  910MOL0     H22788   1.855   5.774   1.703  2.2249  1.6685  1.9469
  910MOL0     H22789   1.913   5.688   1.495  2.7916  2.4294 -2.3126
  910MOL0     H22790   2.026   5.569   1.557 -4.9275 -1.8556 -2.6732
  910MOL0     H22791   2.033   5.883   1.574 -2.9575 -1.1199 -0.8562
  910MOL0     H22792   2.165   5.775   1.616 -1.8575  1.6643  2.6539
  910MOL0     H22793   2.051   5.826   1.329  2.1397  3.0587 -1.5100
  910MOL0     H22794   2.195   5.898   1.399 -0.7634  1.0165 -0.1243
  910MOL0     H22795   2.294   5.670   1.395 -0.8262  2.0927  1.4206
  910MOL0     H22796   2.138   5.595   1.367  0.7699  0.6024  0.6662
  910MOL0     H22797   2.338   5.665   1.169 -0.4354  0.4982  1.2253
  910MOL0     H22798   2.208   5.781   1.145  0.4636  1.6777  1.2637
  910MOL0     H22799   2.204   5.548   1.018  5.1200 -2.1462  2.7786
  910MOL0     H22800   2.171   5.478   1.166  2.6151 -0.1885 -2.0977
  910MOL0     H22801   1.924   5.602   1.268  0.7362  1.5325  0.7809
  910MOL0     H22802   1.621   5.744   1.122 -1.4246  0.9309  0.3213
  910MOL0     H22803   1.695   5.756   1.282  0.9481  2.5406  0.4361
  910MOL0     H22804   1.661   5.962   1.059  3.9948  3.3591 -0.2229
  910MOL0     H22805   1.608   5.961   1.230  0.3671  0.4899  0.5916
  910MOL0     H22806   1.815   5.972   1.313 -3.2673 -0.2418  0.5179
  910MOL0     H22807   1.766   6.121   1.227 -0.4060  0.6288 -1.3049
  910MOL0     H22808   1.897   6.046   1.015  0.1285 -1.6027  0.7271
  910MOL0     H22809   1.990   5.953   1.130 -2.3140 -0.4020 -0.2868
  910MOL0     H22810   2.193   6.328   1.247 -0.7777  1.5187 -0.9231
  910MOL0     H22811   2.413   6.354   1.141  1.0658 -0.8558  0.1291
  910MOL0     H22812   2.866   6.265   1.036  1.1284 -2.2791 -0.8116
  910MOL0     H22813   3.057   6.276   0.902 -0.0727  0.5440  0.4673
  910MOL0     H22814   3.016   6.227   0.502 -0.8562  0.9427 -0.3013
  910MOL0     H22815   3.162   6.325   0.471 -0.9344  3.5723  0.7546
  910MOL0     H22816   3.143   6.112   0.666 -1.3685  2.7330 -0.2100
  910MOL0     H22817   3.213   6.099   0.500 -2.3163 -0.9513 -0.5459
  910MOL0     H22818   3.396   6.241   0.547  0.8114 -2.8329 -0.9259
  910MOL0     H22819   3.325   6.299   0.700 -0.1758  0.5528 -1.9156
  910MOL0     H22820   3.524   6.164   0.733 -2.3339  1.9265  3.5142
  910MOL0     H22821   3.456   6.028   0.640 -1.2362 -0.5784  0.6380
  910MOL0     H22822   3.459   5.970   0.867 -0.9697 -1.0196  2.0805
  910MOL0     H22823   3.288   5.996   0.830 -1.4990  2.1310 -2.6220
  910MOL0     H22824   3.490   6.180   0.964  0.5279  0.4652 -2.3665
  910MOL0     H22825   3.336   6.256   0.914 -0.8921  0.6503  4.0514
  910MOL0     H22826   3.214   6.159   1.088  0.4887  1.6424 -0.4636
  910MOL0     H22827   3.376   6.215   1.144  3.5152 -1.8782  0.7518
  910MOL0     H22828   3.295   5.966   1.225 -0.6342 -0.3413 -0.3189
  910MOL0     H22829   3.309   5.925   1.058 -2.3101  3.1897 -0.8335
  910MOL0     H22830   2.830   6.386   0.560  0.3812 -0.9249 -0.7516
  910MOL0     H22831   2.620   6.379   0.708  0.0629 -1.1750 -0.8254
  910MOL0     H22832   2.300   6.066   0.834 -5.2171  2.6915 -1.7391
  910MOL0     H22833   2.106   6.024   0.940  1.0883 -1.3183  1.0035
  910MOL0     H22834   1.810   5.652   2.131 -0.9598  0.1781  0.0075
  910MOL0     H22835   1.742   5.487   2.297 -1.0169 -1.3760  0.3054
  910MOL0     H22836   1.563   5.200   2.437 -1.7031  0.7919  3.2947
  910MOL0     H22837   1.428   5.063   2.620 -3.9738 -3.4852 -1.0766
  910MOL0     H22838   1.293   4.631   2.626  0.0135 -3.1701 -3.6928
  910MOL0     H22839   1.304   4.688   2.466  1.4618 -0.6396  1.1871
  910MOL0     H22840   1.126   4.816   2.679 -1.3781 -1.6551  0.0916
  910MOL0     H22841   1.088   4.687   2.562  0.3367 -1.5347  5.5484
  910MOL0     H22842   1.110   4.799   2.372  4.4195 -1.5206  1.2966
  910MOL0     H22843   1.188   4.942   2.446 -0.2271  1.2519  0.7866
  910MOL0     H22844   0.952   4.981   2.363 -1.3259 -2.5542 -1.1552
  910MOL0     H22845   0.905   4.884   2.508  2.1886 -0.4809  0.3869
  910MOL0     H22846   0.991   5.263   2.663 -4.6285 -1.1757 -0.1553
  910MOL0     H22847   1.503   4.707   2.410  0.6006  1.4216 -0.0098
  910MOL0     H22848   1.758   4.782   2.227  1.5987  0.3465 -3.6408
  910MOL0     H22849   1.605   4.691   2.224  1.1735  0.0773 -1.0142
  910MOL0     H22850   1.628   4.828   2.119  1.1555 -2.0546 -0.3212
  911MOL0     O22851   5.473   1.081   3.966  0.0730  0.2059 -0.5089
  911MOL0     C22852   5.581   1.123   3.949 -0.3982 -0.1778  0.1066
  911MOL0     O22853   5.619   1.204   3.840 -0.2595  0.2076  0.8790
  911MOL0     C22854   5.524   1.240   3.751  0.1925 -0.6205 -0.2424
  911MOL0     C22855   5.519   1.194   3.626  1.0335 -1.0844  0.9179
  911MOL0     C22856   5.431   1.254   3.531  0.1148 -0.3703  1.2936
  911MOL0     C22857   5.344   1.359   3.564  0.4297  0.3271 -0.3235
  911MOL0     O22858   5.255   1.427   3.489  0.0327 -0.5460  0.3757
  911MOL0     C22859   5.267   1.396   3.346 -0.5202 -0.3497  0.3974
  911MOL0     C22860   5.152   1.478   3.265  0.0150  1.1970  0.4373
  911MOL0     C22861   5.186   1.614   3.211  0.2594  0.1912  0.1948
  911MOL0     C22862   5.068   1.675   3.121  0.8744 -0.7039 -0.3243
  911MOL0     C22863   4.930   1.699   3.189 -0.9736  0.3149 -0.2098
  911MOL0     C22864   4.953   1.796   3.318 -0.6164  1.1399  0.5216
  911MOL0     C22865   4.824   1.857   3.374  0.1249 -0.0069  0.2176
  911MOL0     C22866   4.756   1.947   3.275  0.3465 -0.8097  0.2359
  911MOL0     N22867   4.608   1.971   3.287  0.5035  0.4133 -0.1417
  911MOL0     C22868   4.519   1.866   3.290 -0.3279  1.3704 -1.2685
  911MOL0     C22869   4.396   1.922   3.265  0.6409 -0.0949 -0.4277
  911MOL0     C22870   4.279   1.833   3.248  0.5772  0.0261  0.3658
  911MOL0     C22871   4.164   1.919   3.181 -0.5252 -0.0380  0.3864
  911MOL0     C22872   4.198   1.943   3.029 -0.2425  0.5057 -0.0394
  911MOL0     C22873   4.065   1.922   2.947 -0.0735  0.4423 -0.9509
  911MOL0     O22874   3.972   2.020   2.980 -0.3560 -0.0473 -0.1477
  911MOL0     C22875   3.997   2.151   2.953  0.1578 -0.4803 -0.0348
  911MOL0     C22876   4.069   2.198   2.852 -1.2642  0.0730  0.1696
  911MOL0     C22877   4.088   2.333   2.832  0.9252  0.0431  0.7704
  911MOL0     C22878   4.014   2.426   2.905 -0.4550  0.5234  0.1923
  911MOL0     C22879   4.025   2.566   2.871 -1.1178 -0.1831 -0.0278
  911MOL0     O22880   4.107   2.589   2.770  0.1052 -0.0995 -0.1693
  911MOL0     C22881   4.128   2.720   2.738 -0.0200 -0.1922  0.2009
  911MOL0     C22882   4.044   2.797   2.655  0.0117 -1.1004 -0.2722
  911MOL0     C22883   4.086   2.925   2.611 -1.8453 -0.5442 -0.1468
  911MOL0     C22884   4.203   2.981   2.643  0.3910  0.3506  0.1099
  911MOL0     O22885   4.254   3.098   2.596  0.1485  0.0024  0.1863
  911MOL0     C22886   4.215   3.167   2.477  0.7823 -0.0063 -0.6755
  911MOL0     C22887   4.319   3.297   2.490  0.3678 -0.8271  0.0544
  911MOL0     C22888   4.451   3.258   2.419 -1.2084 -0.5625 -0.4257
  911MOL0     C22889   4.566   3.350   2.473 -0.5155 -0.0027  0.4335
  911MOL0     C22890   4.611   3.318   2.621  0.3519 -0.1698  0.2590
  911MOL0     C22891   4.668   3.175   2.653 -0.4299  0.4805 -0.6830
  911MOL0     C22892   4.738   3.171   2.784  0.3559  0.5085 -0.5130
  911MOL0     C22893   4.785   3.021   2.821  0.1113  0.3929 -0.9115
  911MOL0    Cl22894   4.645   2.917   2.889  0.0756 -0.0212  0.2274
  911MOL0     C22895   4.294   2.906   2.726 -0.1324 -0.1857 -0.3424
  911MOL0     C22896   4.259   2.781   2.777 -0.4323  1.3800 -0.7667
  911MOL0     O22897   3.962   2.645   2.940  0.8861 -0.0921 -0.2995
  911MOL0     C22898   3.936   2.380   3.012 -0.5955 -0.1495 -0.3202
  911MOL0     C22899   3.931   2.239   3.038  0.9693  0.3778  0.6966
  911MOL0     N22900   4.408   2.055   3.267  0.6677 -0.3800 -0.3602
  911MOL0     N22901   4.533   2.086   3.278  0.0953  0.3980  0.3719
  911MOL0     C22902   5.346   1.407   3.705 -0.6122  0.3808  0.9721
  911MOL0     C22903   5.431   1.338   3.791 -0.4569 -0.2564  0.0804
  911MOL0     C22904   5.683   1.086   4.048  1.1017 -0.1625  0.0500
  911MOL0     C22905   5.804   1.154   4.045  0.0723 -0.3386  0.1375
  911MOL0     C22906   5.915   1.138   4.126 -0.5031  0.4343 -0.0813
  911MOL0     C22907   5.902   1.057   4.231 -0.4186 -0.9674  0.0188
  911MOL0     O22908   6.007   1.046   4.307 -0.3160  0.2619  0.1521
  911MOL0     C22909   6.080   0.932   4.277  0.5675 -0.2014 -1.2096
  911MOL0     C22910   6.177   0.904   4.391 -0.4920  0.9297 -0.0048
  911MOL0     C22911   6.259   0.784   4.349 -0.9029  0.1332  0.0946
  911MOL0     C22912   6.374   0.747   4.452 -0.1602 -0.2472  0.5811
  911MOL0     C22913   6.470   0.650   4.402  0.3385  0.4924 -0.7896
  911MOL0     C22914   6.551   0.556   4.376  0.0311 -0.4950  0.0093
  911MOL0     C22915   5.789   0.986   4.249 -0.5670  0.0261  0.5624
  911MOL0     C22916   5.676   0.997   4.154 -0.8972 -0.3143  0.1037
  911MOL0     C22917   5.564   0.893   4.169 -0.0351 -0.4152  0.2061
  911MOL0     H22918   5.593   1.122   3.590 -0.9367 -2.8042  0.1094
  911MOL0     H22919   5.425   1.218   3.429 -0.8770  2.1900  0.3506
  911MOL0     H22920   5.367   1.410   3.306 -1.2288 -1.6958 -2.0483
  911MOL0     H22921   5.246   1.290   3.328  2.2263 -0.9099  0.1525
  911MOL0     H22922   5.065   1.471   3.332 -1.4319 -1.1417 -1.4953
  911MOL0     H22923   5.127   1.411   3.181  1.1065  0.8797  0.3559
  911MOL0     H22924   5.272   1.619   3.143  0.6435  0.6848  0.7022
  911MOL0     H22925   5.207   1.676   3.299  2.5551 -0.9449  0.5366
  911MOL0     H22926   5.110   1.761   3.070 -2.7493  1.3218 -0.2005
  911MOL0     H22927   5.051   1.606   3.038  1.1201  0.5551 -1.4420
  911MOL0     H22928   4.869   1.744   3.110 -2.0994  2.1844  1.6549
  911MOL0     H22929   4.892   1.603   3.226 -0.1760  0.3048  0.5979
  911MOL0     H22930   4.993   1.736   3.400 -0.4857 -3.3861 -2.4984
  911MOL0     H22931   5.027   1.874   3.299 -1.8782  2.4197  0.6380
  911MOL0     H22932   4.846   1.927   3.455 -1.2490 -1.4780  1.9194
  911MOL0     H22933   4.766   1.775   3.417  1.9452 -1.0351  0.8490
  911MOL0     H22934   4.810   2.042   3.278 -0.8426  0.1317 -3.6065
  911MOL0     H22935   4.774   1.912   3.173 -1.2613 -1.4243  0.1342
  911MOL0     H22936   4.543   1.760   3.302  1.3149  1.7398 -1.1586
  911MOL0     H22937   4.298   1.750   3.179 -0.5309  1.2755 -1.5466
  911MOL0     H22938   4.231   1.792   3.337 -1.0178  0.5332 -0.2146
  911MOL0     H22939   4.076   1.854   3.180  0.1982 -1.0687 -1.2154
  911MOL0     H22940   4.138   2.008   3.239  0.2805  1.1995 -1.0732
  911MOL0     H22941   4.271   1.872   2.987 -0.0594  0.1002  0.9365
  911MOL0     H22942   4.228   2.045   3.005 -1.5212  1.4036  1.9359
  911MOL0     H22943   4.024   1.826   2.981  3.1477 -0.7592 -0.0045
  911MOL0     H22944   4.089   1.920   2.840  1.5688  1.6010 -0.6505
  911MOL0     H22945   4.117   2.151   2.768 -2.2850  0.5201 -0.6980
  911MOL0     H22946   4.157   2.361   2.754  0.7273  0.7565  0.8451
  911MOL0     H22947   3.947   2.763   2.620  0.7183 -1.1277 -2.2918
  911MOL0     H22948   4.009   2.980   2.557 -1.2306  3.1328  2.3839
  911MOL0     H22949   4.213   3.103   2.389 -3.3419 -1.0913 -0.0021
  911MOL0     H22950   4.117   3.213   2.491  1.2980  1.5484 -1.8833
  911MOL0     H22951   4.281   3.391   2.447 -0.3705 -2.0983 -2.2174
  911MOL0     H22952   4.347   3.329   2.591  3.1132  4.0962 -1.8816
  911MOL0     H22953   4.483   3.156   2.446 -0.5848 -0.8766 -2.2448
  911MOL0     H22954   4.444   3.246   2.311  0.8598  0.5898 -0.7344
  911MOL0     H22955   4.543   3.456   2.460  1.9700  0.7609  1.6140
  911MOL0     H22956   4.652   3.332   2.407  1.2070  0.8527  2.3507
  911MOL0     H22957   4.540   3.353   2.696  4.2834  1.8354  3.4065
  911MOL0     H22958   4.701   3.377   2.636 -0.1972  0.4194  1.3114
  911MOL0     H22959   4.591   3.098   2.642  1.4654 -1.4304 -1.0419
  911MOL0     H22960   4.752   3.157   2.585  2.5254 -1.2352  3.0578
  911MOL0     H22961   4.688   3.223   2.867 -2.1627  0.6674 -2.0512
  911MOL0     H22962   4.833   3.225   2.776  0.5301  0.7006  2.0135
  911MOL0     H22963   4.832   2.971   2.736 -0.6253  1.2015 -1.8248
  911MOL0     H22964   4.850   3.026   2.909 -2.0694  2.5781  0.6909
  911MOL0     H22965   4.382   2.964   2.752 -0.2648  1.5908 -3.3672
  911MOL0     H22966   4.323   2.713   2.832 -1.8825  2.2519  2.1581
  911MOL0     H22967   3.874   2.444   3.074  0.3461 -1.5952  2.2796
  911MOL0     H22968   3.878   2.213   3.130  3.4041 -0.6977  1.8907
  911MOL0     H22969   5.278   1.490   3.723 -0.5957  0.4204  0.8524
  911MOL0     H22970   5.448   1.365   3.894  1.1418 -2.9413  0.6307
  911MOL0     H22971   5.817   1.229   3.968  0.5720  1.4651  1.9003
  911MOL0     H22972   6.011   1.188   4.122  0.3957 -1.0896  1.1407
  911MOL0     H22973   6.137   0.939   4.184  1.6175 -0.6327 -0.6130
  911MOL0     H22974   6.017   0.844   4.258 -1.2581  0.8255 -0.1934
  911MOL0     H22975   6.120   0.891   4.483 -0.1668  4.4530  0.8387
  911MOL0     H22976   6.235   0.995   4.412  0.2977 -0.2397  3.5038
  911MOL0     H22977   6.308   0.807   4.253  1.2060  0.3950  1.1640
  911MOL0     H22978   6.196   0.696   4.337  0.8268 -1.6305  2.8925
  911MOL0     H22979   6.439   0.829   4.482  1.5323 -2.0842  2.2493
  911MOL0     H22980   6.340   0.713   4.550  2.1595  2.6474  2.5616
  911MOL0     H22981   6.622   0.477   4.369  1.4328  0.5261  1.9324
  911MOL0     H22982   5.796   0.911   4.327  1.0074  1.1034  1.5163
  911MOL0     H22983   5.598   0.803   4.221  2.0904 -0.9818 -1.9637
  911MOL0     H22984   5.476   0.934   4.220 -0.5157 -1.2722  0.0744
  911MOL0     H22985   5.539   0.861   4.068 -3.2428 -1.9291  1.3479
  912MOL0     O22986  10.803  10.678   5.518 -0.3002 -0.0027  0.3305
  912MOL0     C22987  10.855  10.724   5.619  0.9611 -1.0640  0.0058
  912MOL0     O22988  10.858  10.862   5.655 -0.6040  0.2973  0.1613
  912MOL0     C22989  10.762  10.945   5.602  0.2637 -0.2092  0.5721
  912MOL0     C22990  10.623  10.910   5.570  0.1302  0.1790  0.3905
  912MOL0     C22991  10.527  11.003   5.511  0.3577  0.4319  0.4442
  912MOL0     C22992  10.570  11.134   5.483 -0.5046  0.5736  0.6130
  912MOL0     O22993  10.466  11.219   5.450 -0.3981  0.1403  0.5180
  912MOL0     C22994  10.473  11.354   5.478  0.2739 -0.1699  0.0035
  912MOL0     C22995  10.335  11.395   5.464 -0.5091 -0.6030 -0.1596
  912MOL0     C22996  10.239  11.362   5.586 -0.3592  0.7363  1.0768
  912MOL0     C22997  10.097  11.367   5.539 -0.1737 -0.0992  0.6558
  912MOL0     C22998  10.006  11.313   5.643 -0.2057 -0.0954 -0.2965
  912MOL0     C22999   9.862  11.296   5.604 -0.3121 -0.2423  0.0356
  912MOL0     C23000   9.766  11.260   5.710  0.4387 -0.2464  0.0820
  912MOL0     C23001   9.614  11.269   5.670 -0.1242 -0.4782 -0.4096
  912MOL0     N23002   9.586  11.209   5.544  0.1623 -0.5145  0.9868
  912MOL0     C23003   9.572  11.264   5.422 -0.2714 -0.4921  0.2078
  912MOL0     C23004   9.511  11.180   5.347 -0.6128  0.8414  0.1066
  912MOL0     C23005   9.450  11.230   5.220  0.1400  0.4546  0.2840
  912MOL0     C23006   9.319  11.144   5.185 -0.6121  0.3569 -0.1962
  912MOL0     C23007   9.197  11.172   5.267  0.4946 -0.2864 -0.6058
  912MOL0     C23008   9.106  11.279   5.191 -0.9318  0.3162  0.8275
  912MOL0     O23009   9.170  11.395   5.153 -0.2767 -0.4732  0.1118
  912MOL0     C23010   9.092  11.491   5.089  0.4445 -0.1204  0.1085
  912MOL0     C23011   9.168  11.597   5.042 -1.1307  0.3984 -1.9732
  912MOL0     C23012   9.118  11.693   4.957 -0.0359  0.0105 -0.6662
  912MOL0     C23013   8.984  11.679   4.914 -0.3830  0.0330  0.7928
  912MOL0     C23014   8.918  11.783   4.828 -0.7494  0.1101  0.6221
  912MOL0     O23015   8.998  11.880   4.762 -0.1960  0.4455  0.0147
  912MOL0     C23016   8.927  11.981   4.707  0.2561  0.0963  0.1507
  912MOL0     C23017   8.877  12.078   4.785  1.0429 -0.8509  0.2701
  912MOL0     C23018   8.798  12.175   4.724  0.5950  0.1134 -0.3250
  912MOL0     C23019   8.783  12.193   4.583 -0.4712  0.0012  0.1498
  912MOL0     O23020   8.721  12.312   4.541  0.0378 -0.3249  0.4671
  912MOL0     C23021   8.672  12.312   4.402 -0.0278  0.5032  0.0417
  912MOL0     C23022   8.553  12.399   4.390 -0.2056  0.5274  0.8216
  912MOL0     C23023   8.537  12.473   4.252  0.8237  0.1795  0.2428
  912MOL0     C23024   8.512  12.377   4.137  0.0777  0.8616  0.1103
  912MOL0     C23025   8.520  12.447   4.003 -0.5169 -0.5805  0.1626
  912MOL0     C23026   8.398  12.553   3.997 -0.5152  0.4411  0.5669
  912MOL0     C23027   8.336  12.572   3.862  0.0058  0.1456 -0.2011
  912MOL0     C23028   8.429  12.661   3.776 -0.5352 -0.3913  0.0840
  912MOL0    Cl23029   8.364  12.667   3.610 -0.2818 -0.4215 -0.5708
  912MOL0     C23030   8.847  12.091   4.504 -0.1957 -0.0496 -0.3284
  912MOL0     C23031   8.912  11.978   4.566  0.1703 -0.4968  0.3072
  912MOL0     O23032   8.795  11.776   4.810 -0.3311  0.2985  0.0335
  912MOL0     C23033   8.903  11.567   4.948 -0.6945 -0.9245 -0.7158
  912MOL0     C23034   8.966  11.477   5.036 -0.7196  0.3568 -0.6269
  912MOL0     N23035   9.508  11.062   5.412 -0.2887 -0.4963 -1.0388
  912MOL0     N23036   9.540  11.079   5.537  0.2097 -0.1923  0.4008
  912MOL0     C23037  10.713  11.166   5.502  0.0306  0.5600  0.3666
  912MOL0     C23038  10.806  11.071   5.557 -0.8126 -0.2368 -0.1545
  912MOL0     C23039  10.927  10.627   5.699 -0.4533  0.5515  0.0005
  912MOL0     C23040  11.067  10.619   5.695 -0.7651 -0.0052  0.4954
  912MOL0     C23041  11.134  10.522   5.761  0.2733  0.2471 -0.2407
  912MOL0     C23042  11.066  10.439   5.852 -0.2672  0.2823 -0.5537
  912MOL0     O23043  11.126  10.349   5.938  0.3977  0.3695  0.0665
  912MOL0     C23044  11.266  10.320   5.955 -0.0920 -0.3494 -0.0765
  912MOL0     C23045  11.278  10.198   6.046 -0.1268 -0.3247 -0.1681
  912MOL0     C23046  11.431  10.164   6.059  1.1027 -0.4384 -0.0348
  912MOL0     C23047  11.445  10.039   6.146  0.3080  0.1773  0.3046
  912MOL0     C23048  11.579   9.987   6.160 -0.1107 -0.8510 -0.0357
  912MOL0     C23049  11.701   9.955   6.139  0.8054  0.2878 -0.3642
  912MOL0     C23050  10.931  10.446   5.858 -0.5248 -0.0507  0.0483
  912MOL0     C23051  10.862  10.529   5.778  0.8903  0.6921 -0.0298
  912MOL0     C23052  10.706  10.513   5.777  0.1223 -0.0894  0.7779
  912MOL0     H23053  10.594  10.811   5.603  2.0585 -1.1879 -1.7091
  912MOL0     H23054  10.423  10.977   5.490  0.4782  0.0608  0.2908
  912MOL0     H23055  10.499  11.380   5.581  0.4111  0.9072 -0.2853
  912MOL0     H23056  10.544  11.409   5.415  0.5617  1.5986  1.7956
  912MOL0     H23057  10.287  11.371   5.368 -0.9402 -1.7411  0.3248
  912MOL0     H23058  10.340  11.503   5.475  2.8765 -0.3961 -2.4634
  912MOL0     H23059  10.253  11.421   5.677  1.7497  3.1984 -0.6925
  912MOL0     H23060  10.261  11.258   5.607  0.1033  0.5363 -0.2904
  912MOL0     H23061  10.060  11.465   5.509  0.2352  0.2216  1.1805
  912MOL0     H23062  10.082  11.299   5.454 -3.7197 -0.7480  1.6513
  912MOL0     H23063  10.043  11.214   5.673 -1.0244 -0.2430  0.2653
  912MOL0     H23064  10.020  11.391   5.718  0.0668  0.8612 -1.3200
  912MOL0     H23065   9.825  11.396   5.581  1.3524 -0.0011 -1.8878
  912MOL0     H23066   9.853  11.241   5.510  0.7215  2.1753 -1.5838
  912MOL0     H23067   9.782  11.314   5.804  1.6929 -0.3963 -0.0224
  912MOL0     H23068   9.784  11.155   5.734  1.3125  0.5840  3.7841
  912MOL0     H23069   9.555  11.214   5.745  0.1027 -1.2344 -0.7716
  912MOL0     H23070   9.574  11.371   5.673 -0.2720 -0.5537  0.9520
  912MOL0     H23071   9.592  11.367   5.397 -1.3943 -0.4088 -0.4263
  912MOL0     H23072   9.427  11.336   5.232  1.7692  0.9765 -0.9378
  912MOL0     H23073   9.523  11.230   5.139  1.8517  0.3149  1.7712
  912MOL0     H23074   9.298  11.140   5.078  0.8163 -0.5681 -0.4636
  912MOL0     H23075   9.356  11.044   5.210 -0.8847  0.3801  0.3267
  912MOL0     H23076   9.217  11.197   5.371 -2.4415 -1.5137  0.3390
  912MOL0     H23077   9.128  11.090   5.289 -0.1354  0.0863 -1.1600
  912MOL0     H23078   9.024  11.307   5.258 -1.1647  1.3264  0.1392
  912MOL0     H23079   9.077  11.225   5.101 -0.4802 -2.2224  2.1070
  912MOL0     H23080   9.266  11.621   5.082 -2.1356 -0.1327  1.0549
  912MOL0     H23081   9.181  11.777   4.933 -1.1222  0.8437 -0.6799
  912MOL0     H23082   8.875  12.079   4.893 -1.2309 -0.2039  0.2744
  912MOL0     H23083   8.752  12.248   4.789  1.1225 -0.0534  0.2520
  912MOL0     H23084   8.743  12.344   4.325  0.2208  1.0773  0.4982
  912MOL0     H23085   8.647  12.207   4.385  0.7689  0.0131  1.7104
  912MOL0     H23086   8.459  12.350   4.416  0.4145  0.2017  2.5955
  912MOL0     H23087   8.564  12.477   4.465  2.0447  1.6649 -0.5675
  912MOL0     H23088   8.454  12.544   4.262 -0.8002 -1.7530  1.2540
  912MOL0     H23089   8.634  12.520   4.232  0.4051  1.0562  0.2261
  912MOL0     H23090   8.416  12.327   4.145 -0.1350  1.0384 -1.1014
  912MOL0     H23091   8.575  12.288   4.150 -0.3808  0.1222 -2.1331
  912MOL0     H23092   8.509  12.369   3.927  2.8099 -2.4178  1.3449
  912MOL0     H23093   8.618  12.494   3.990  0.4072 -2.4129  0.2086
  912MOL0     H23094   8.323  12.512   4.065 -0.1879 -0.0931  0.6181
  912MOL0     H23095   8.429  12.649   4.040  1.9970  2.3903 -4.7391
  912MOL0     H23096   8.237  12.618   3.863  0.7344  1.8022  1.1838
  912MOL0     H23097   8.319  12.472   3.822  2.6241 -0.8596  0.9371
  912MOL0     H23098   8.432  12.765   3.811  1.4721 -0.3570 -0.0514
  912MOL0     H23099   8.534  12.629   3.780 -1.0346 -2.0041  4.1121
  912MOL0     H23100   8.871  12.109   4.399  2.0983  2.5461  0.5270
  912MOL0     H23101   8.967  11.916   4.497  1.4349  0.9366 -0.0082
  912MOL0     H23102   8.801  11.536   4.930 -1.0630 -1.0188  1.2991
  912MOL0     H23103   8.902  11.392   5.058 -1.1256 -0.1362 -3.3947
  912MOL0     H23104  10.747  11.269   5.496 -0.4143  0.6831 -0.1721
  912MOL0     H23105  10.909  11.100   5.569 -0.5243 -1.9988  2.8507
  912MOL0     H23106  11.124  10.691   5.637 -0.3675 -0.1531  0.6975
  912MOL0     H23107  11.242  10.513   5.759  0.0737 -2.7355 -1.8049
  912MOL0     H23108  11.320  10.402   6.003 -1.8083  0.6756  0.1860
  912MOL0     H23109  11.316  10.298   5.860  0.3425 -1.3196  0.3669
  912MOL0     H23110  11.217  10.117   6.003  2.2694 -1.0118 -2.5430
  912MOL0     H23111  11.237  10.228   6.143  0.4653 -1.8195  0.5728
  912MOL0     H23112  11.477  10.246   6.114  3.6274  1.9357 -4.9882
  912MOL0     H23113  11.475  10.162   5.958  2.1805  2.8770  0.2731
  912MOL0     H23114  11.407  10.051   6.248  0.6603 -2.6275  0.8608
  912MOL0     H23115  11.388   9.955   6.105  1.2240 -0.1720 -0.2834
  912MOL0     H23116  11.797   9.927   6.102  0.0077 -1.1220 -1.4957
  912MOL0     H23117  10.884  10.375   5.925  2.3328 -2.3601 -0.1919
  912MOL0     H23118  10.679  10.424   5.719  0.9427  2.0841 -3.2668
  912MOL0     H23119  10.653  10.502   5.872  0.2268 -2.2619  0.6507
  912MOL0     H23120  10.665  10.601   5.727  1.7353  0.9434  1.2116
  913MOL0     O23121   4.678   6.582   2.345  0.0692  0.5153  0.7475
  913MOL0     C23122   4.772   6.511   2.374 -0.1615 -0.2314 -1.3121
  913MOL0     O23123   4.888   6.559   2.434 -0.4265  0.2296  0.1552
  913MOL0     C23124   4.912   6.694   2.437 -0.3267 -0.2033 -0.6043
  913MOL0     C23125   4.930   6.760   2.566  0.8028  0.0651 -0.4005
  913MOL0     C23126   4.941   6.894   2.565 -0.2123 -0.7752 -0.4215
  913MOL0     C23127   4.958   6.969   2.446 -0.3225 -0.0508 -0.8409
  913MOL0     O23128   4.981   7.108   2.440  0.3365 -0.0084 -0.1227
  913MOL0     C23129   4.959   7.193   2.560 -0.7443  0.5355 -1.4808
  913MOL0     C23130   5.061   7.186   2.672 -0.4921 -0.1006 -0.8179
  913MOL0     C23131   5.072   7.323   2.736  0.4332  0.6815 -0.8281
  913MOL0     C23132   5.174   7.429   2.671 -0.2227 -1.2852 -0.2131
  913MOL0     C23133   5.180   7.571   2.726 -0.1098  0.3722  0.2935
  913MOL0     C23134   5.164   7.589   2.881  0.4259 -0.5790  0.4065
  913MOL0     C23135   5.213   7.733   2.911 -0.1869 -0.1585 -0.0937
  913MOL0     C23136   5.192   7.763   3.065 -0.4858 -0.5183 -0.2223
  913MOL0     N23137   5.231   7.902   3.099  0.0183 -1.2813 -1.1664
  913MOL0     C23138   5.173   7.982   3.195  1.1450  0.4221 -0.2351
  913MOL0     C23139   5.275   8.067   3.235 -0.0055 -0.5494 -0.0574
  913MOL0     C23140   5.245   8.166   3.343 -0.3559 -0.1796 -0.1708
  913MOL0     C23141   5.167   8.291   3.308  0.1745 -0.3516  0.3316
  913MOL0     C23142   5.142   8.387   3.429  0.1757  0.1167  0.1631
  913MOL0     C23143   5.257   8.477   3.435  0.0036  0.1729  0.0588
  913MOL0     O23144   5.224   8.575   3.528  0.3141 -0.1318  0.1993
  913MOL0     C23145   5.313   8.671   3.567  0.1314 -0.0964 -0.1659
  913MOL0     C23146   5.251   8.774   3.642 -0.1443  0.4902 -0.4740
  913MOL0     C23147   5.325   8.872   3.704  0.9558  0.6106 -0.0538
  913MOL0     C23148   5.463   8.877   3.683  0.7119  0.4441  0.2033
  913MOL0     C23149   5.539   8.986   3.748 -0.2778  0.5094  0.2118
  913MOL0     O23150   5.675   8.985   3.736 -1.3824 -0.3444  0.1547
  913MOL0     C23151   5.746   9.094   3.790 -0.5299 -1.2447  0.4027
  913MOL0     C23152   5.796   9.194   3.705  0.7978 -0.3099 -0.3357
  913MOL0     C23153   5.894   9.279   3.750  0.6853  0.0836  0.1042
  913MOL0     C23154   5.941   9.275   3.883  0.9811  0.9315  0.1094
  913MOL0     O23155   6.050   9.363   3.912  0.3147 -0.7249  0.4831
  913MOL0     C23156   6.148   9.358   4.018 -0.3972  0.7737 -0.2679
  913MOL0     C23157   6.141   9.471   4.125 -0.6828 -0.0692  0.2109
  913MOL0     C23158   6.147   9.610   4.048 -0.5010  0.3069 -0.9946
  913MOL0     C23159   6.132   9.729   4.158  0.2803 -0.8091  0.0052
  913MOL0     C23160   6.134   9.865   4.087  1.7216  1.0919  0.8409
  913MOL0     C23161   5.997   9.891   4.011  0.5024 -0.0560 -0.0446
  913MOL0     C23162   6.017  10.030   3.946 -0.0842 -0.6069  0.5906
  913MOL0     C23163   5.914  10.058   3.844 -0.5417  0.1154 -0.8734
  913MOL0    Cl23164   5.958   9.976   3.690  0.5945 -0.1956 -0.6557
  913MOL0     C23165   5.879   9.187   3.980  1.0398  0.7150  0.5369
  913MOL0     C23166   5.799   9.086   3.921  0.6367  1.0411 -1.2311
  913MOL0     O23167   5.470   9.064   3.804 -0.4384 -0.9083 -0.2250
  913MOL0     C23168   5.516   8.791   3.590 -1.3853 -0.4598  0.1940
  913MOL0     C23169   5.447   8.685   3.537  0.0219  0.8212  0.1109
  913MOL0     N23170   5.388   8.039   3.157 -0.3059 -0.2502  0.5357
  913MOL0     N23171   5.366   7.932   3.094 -0.9728  0.0933 -0.1081
  913MOL0     C23172   4.933   6.910   2.327 -0.2655  0.5885  0.0891
  913MOL0     C23173   4.925   6.771   2.326 -0.2196  0.4993  0.4029
  913MOL0     C23174   4.763   6.372   2.329  0.3508  0.2603  0.1218
  913MOL0     C23175   4.856   6.285   2.390  0.4030  0.1074  0.2334
  913MOL0     C23176   4.851   6.143   2.380  0.8611 -0.4454  0.1759
  913MOL0     C23177   4.739   6.083   2.318  0.1520  0.5339 -0.1817
  913MOL0     O23178   4.732   5.948   2.296 -0.1743 -0.2474 -1.1772
  913MOL0     C23179   4.791   5.865   2.397  0.1150  0.8502  0.1776
  913MOL0     C23180   4.761   5.720   2.370  0.5889 -0.7014 -0.0376
  913MOL0     C23181   4.615   5.677   2.322 -0.3084 -0.2117  0.1981
  913MOL0     C23182   4.619   5.530   2.299  1.0571 -0.2305 -0.4626
  913MOL0     C23183   4.585   5.452   2.415 -0.1600  0.1348  0.7957
  913MOL0     C23184   4.553   5.387   2.503 -0.8903 -0.2183  0.1274
  913MOL0     C23185   4.657   6.164   2.243  0.7396  0.7094  0.0462
  913MOL0     C23186   4.664   6.306   2.251 -0.3050  0.4075  0.2952
  913MOL0     C23187   4.554   6.384   2.177 -0.3098  0.1091 -0.0333
  913MOL0     H23188   4.923   6.696   2.654 -3.5892  1.0551  0.2200
  913MOL0     H23189   4.958   6.954   2.655  3.0332  0.8914 -1.9971
  913MOL0     H23190   4.957   7.297   2.528 -2.0836  0.7078 -0.8853
  913MOL0     H23191   4.858   7.170   2.594  0.0447  0.6719  1.2613
  913MOL0     H23192   5.159   7.154   2.633 -0.8355 -1.5032 -0.5831
  913MOL0     H23193   5.034   7.119   2.754  0.2761  0.7598  0.1685
  913MOL0     H23194   5.100   7.296   2.838 -5.6936 -0.3997  0.9507
  913MOL0     H23195   4.975   7.372   2.747  0.5174  1.0756 -1.7184
  913MOL0     H23196   5.276   7.392   2.688  0.3492  1.3414  2.8433
  913MOL0     H23197   5.146   7.439   2.566  1.5029  2.2121 -0.4552
  913MOL0     H23198   5.276   7.614   2.697 -2.0642  2.5909 -3.6634
  913MOL0     H23199   5.106   7.631   2.672  1.3408  1.1749 -0.8532
  913MOL0     H23200   5.059   7.564   2.898  0.6183 -0.6364  1.6120
  913MOL0     H23201   5.226   7.524   2.944  0.5503 -0.5953  0.2662
  913MOL0     H23202   5.154   7.802   2.851 -1.3757  2.4379  3.6602
  913MOL0     H23203   5.318   7.760   2.895  1.0844 -3.1062  2.2288
  913MOL0     H23204   5.092   7.733   3.095  0.6256 -0.1558  4.6215
  913MOL0     H23205   5.256   7.695   3.122 -1.5038 -3.8256 -2.7633
  913MOL0     H23206   5.074   7.961   3.235  1.5448  1.0193  1.1429
  913MOL0     H23207   5.195   8.120   3.429 -0.1390 -0.5673 -0.2465
  913MOL0     H23208   5.343   8.205   3.372  0.0613 -2.0245  1.0812
  913MOL0     H23209   5.231   8.338   3.233  0.6939 -1.2546  0.1854
  913MOL0     H23210   5.081   8.252   3.252  0.6565 -1.0320  0.0417
  913MOL0     H23211   5.112   8.344   3.525  0.5072  1.3356  0.8214
  913MOL0     H23212   5.061   8.450   3.390 -2.8623 -3.5699 -0.0799
  913MOL0     H23213   5.262   8.526   3.337  3.0745 -0.2387 -0.0926
  913MOL0     H23214   5.349   8.426   3.466  0.0573  0.2918  0.0965
  913MOL0     H23215   5.145   8.754   3.658  0.3948 -2.1777  0.3997
  913MOL0     H23216   5.265   8.919   3.782 -1.1907 -0.1654 -1.1398
  913MOL0     H23217   5.760   9.200   3.603  0.7913 -1.5103 -0.4279
  913MOL0     H23218   5.933   9.354   3.682  0.8598 -1.1743 -1.2323
  913MOL0     H23219   6.151   9.262   4.071  4.8652  1.3823  1.1763
  913MOL0     H23220   6.246   9.372   3.971  0.3106  1.6472  1.3822
  913MOL0     H23221   6.048   9.467   4.182 -1.8237 -3.3250 -1.6479
  913MOL0     H23222   6.228   9.467   4.191 -0.5884 -0.9226  0.0384
  913MOL0     H23223   6.232   9.612   3.980  0.4768  1.5173  0.2196
  913MOL0     H23224   6.063   9.610   3.978 -0.3785  0.2230 -1.1415
  913MOL0     H23225   6.211   9.732   4.233 -0.4990 -3.2576  1.0262
  913MOL0     H23226   6.044   9.720   4.222  1.1057 -1.6384  1.0438
  913MOL0     H23227   6.205   9.853   4.006  1.4617 -1.0452  0.8749
  913MOL0     H23228   6.166   9.945   4.155 -0.3164  1.3578  1.5643
  913MOL0     H23229   5.992   9.805   3.943  2.3497 -0.6178  0.4799
  913MOL0     H23230   5.915   9.883   4.083  2.0378 -2.3912  1.6033
  913MOL0     H23231   6.114  10.043   3.898  1.1408  1.5923  3.3869
  913MOL0     H23232   6.011  10.105   4.026  1.6447  0.8117 -0.5211
  913MOL0     H23233   5.824  10.008   3.880  0.6474 -0.9249  0.7969
  913MOL0     H23234   5.897  10.164   3.821  1.0027  1.0043  1.6765
  913MOL0     H23235   5.915   9.181   4.082  0.3098  1.5436  0.8585
  913MOL0     H23236   5.759   9.000   3.974  0.7612  0.4721 -2.0357
  913MOL0     H23237   5.618   8.805   3.554 -2.0388 -1.2028 -2.0893
  913MOL0     H23238   5.487   8.614   3.466 -0.3887 -1.1171  1.7246
  913MOL0     H23239   4.942   6.950   2.226  1.5251  0.5278  0.1947
  913MOL0     H23240   4.896   6.702   2.247  0.5466 -2.7440  2.7357
  913MOL0     H23241   4.930   6.319   2.462 -1.2901  0.9297  1.6674
  913MOL0     H23242   4.924   6.078   2.427 -1.7003 -3.5676  0.1590
  913MOL0     H23243   4.745   5.896   2.491 -0.2349 -4.3193  2.0232
  913MOL0     H23244   4.900   5.873   2.394  0.2926 -1.2347 -1.7523
  913MOL0     H23245   4.782   5.664   2.462 -0.9018  3.0076  2.8400
  913MOL0     H23246   4.834   5.699   2.291  0.0081 -0.4737 -0.6485
  913MOL0     H23247   4.591   5.731   2.230 -3.0405 -0.2726  0.7615
  913MOL0     H23248   4.536   5.706   2.392 -0.1901  1.5591 -0.3625
  913MOL0     H23249   4.552   5.506   2.215  0.3045  0.7755 -0.1654
  913MOL0     H23250   4.720   5.495   2.274  0.4578 -2.9078  0.4970
  913MOL0     H23251   4.526   5.325   2.586  0.4952 -1.0189  0.0059
  913MOL0     H23252   4.569   6.118   2.198 -0.8219  2.0818  1.5419
  913MOL0     H23253   4.501   6.434   2.258  1.0390  4.1658 -1.4127
  913MOL0     H23254   4.600   6.465   2.120 -1.0202  1.3240  1.0746
  913MOL0     H23255   4.494   6.325   2.107  0.9028 -0.3036 -0.7668
  914MOL0     O23256   3.419  11.218   2.305 -0.1884  0.0317 -0.2608
  914MOL0     C23257   3.521  11.285   2.295 -0.3912  0.3435 -0.6839
  914MOL0     O23258   3.531  11.404   2.230  0.4086 -0.4124 -0.9717
  914MOL0     C23259   3.427  11.448   2.153  0.1884  0.3865 -0.7621
  914MOL0     C23260   3.419  11.590   2.144  0.9768 -0.6931  0.6888
  914MOL0     C23261   3.322  11.652   2.055  0.7315 -0.8331  0.5500
  914MOL0     C23262   3.232  11.575   1.987  0.3285 -0.6657 -0.1284
  914MOL0     O23263   3.146  11.635   1.889  0.0418 -0.1545 -0.7394
  914MOL0     C23264   3.055  11.557   1.804 -0.2972 -0.2376  0.7742
  914MOL0     C23265   3.142  11.486   1.700 -0.1730  0.4391  1.1170
  914MOL0     C23266   3.108  11.533   1.547 -0.2892 -0.3672  0.6975
  914MOL0     C23267   2.980  11.461   1.503 -0.7004  0.3054  0.2728
  914MOL0     C23268   2.958  11.436   1.350  0.3299 -0.0342 -0.2574
  914MOL0     C23269   3.075  11.352   1.297  0.9824 -0.6379  0.2062
  914MOL0     C23270   3.048  11.282   1.161  0.7972 -1.5061 -0.0871
  914MOL0     C23271   2.961  11.157   1.189  0.0786 -0.5129 -0.2186
  914MOL0     N23272   2.885  11.121   1.070  0.7953  0.2521 -0.5937
  914MOL0     C23273   2.942  11.053   0.962  0.2182 -1.2354 -1.1496
  914MOL0     C23274   2.850  11.059   0.869  0.4750  0.3620 -0.3145
  914MOL0     C23275   2.870  11.003   0.732 -0.4050  0.6213  0.4503
  914MOL0     C23276   2.794  11.078   0.622  0.4760 -0.1194 -0.9882
  914MOL0     C23277   2.762  10.973   0.504  0.1039 -0.7024  0.0404
  914MOL0     C23278   2.833  11.003   0.381 -0.3760 -0.0974 -0.9258
  914MOL0     O23279   2.813  11.138   0.340 -0.4720 -0.8961 -0.4737
  914MOL0     C23280   2.867  11.180   0.219  0.0774  0.2183  0.1898
  914MOL0     C23281   2.920  11.094   0.121  0.6435  0.5471  0.2817
  914MOL0     C23282   2.959  11.158   0.002 -0.1498  0.2619  0.8044
  914MOL0     C23283   2.954  11.297  -0.019  0.0647  0.4212 -0.6625
  914MOL0     C23284   2.993  11.371  -0.144 -0.4668  0.7277  0.7820
  914MOL0     O23285   3.000  11.514  -0.154  0.3202 -0.0391  0.2527
  914MOL0     C23286   3.041  11.584  -0.262 -0.5903  0.7381  0.4737
  914MOL0     C23287   3.004  11.723  -0.255 -0.4940  0.5861  0.6317
  914MOL0     C23288   3.026  11.813  -0.362  0.3843  0.9560  0.6835
  914MOL0     C23289   3.076  11.765  -0.480  0.1381  0.9698 -0.2538
  914MOL0     O23290   3.101  11.839  -0.593  0.3650  0.7707  0.5647
  914MOL0     C23291   3.176  11.962  -0.582  0.7332 -0.0790  0.0763
  914MOL0     C23292   3.247  12.003  -0.714  1.3291 -0.1017  0.1205
  914MOL0     C23293   3.331  11.896  -0.787  0.0393  0.5152  0.9012
  914MOL0     C23294   3.363  11.936  -0.935  0.0829  1.0515 -0.0522
  914MOL0     C23295   3.468  11.841  -1.011  0.4596 -0.3437  0.0319
  914MOL0     C23296   3.615  11.852  -0.964  0.1891 -0.3950  0.9304
  914MOL0     C23297   3.717  11.751  -1.019  0.9422 -0.2917  0.2008
  914MOL0     C23298   3.867  11.802  -1.016 -0.0268 -0.7437  0.6980
  914MOL0    Cl23299   3.959  11.710  -1.141 -0.2540 -0.4168 -0.1357
  914MOL0     C23300   3.104  11.623  -0.490  0.0005 -1.2622 -0.6439
  914MOL0     C23301   3.098  11.538  -0.378  0.0742  0.2417 -0.8978
  914MOL0     O23302   3.017  11.294  -0.238 -0.1882 -0.5071 -0.0468
  914MOL0     C23303   2.899  11.376   0.089  0.3009 -0.4917  0.1289
  914MOL0     C23304   2.844  11.314   0.201 -0.2349 -0.2981  0.5707
  914MOL0     N23305   2.736  11.121   0.915 -0.1401  0.4420 -1.0306
  914MOL0     N23306   2.756  11.158   1.036  0.3713  0.6232  0.2376
  914MOL0     C23307   3.248  11.439   1.991 -0.7625  0.1450  0.3130
  914MOL0     C23308   3.340  11.373   2.075 -0.6441 -0.1993  0.2318
  914MOL0     C23309   3.648  11.210   2.336 -0.8337 -0.7851 -0.5162
  914MOL0     C23310   3.769  11.243   2.267  0.4362 -0.4271 -0.6894
  914MOL0     C23311   3.886  11.178   2.317  0.0981  0.5959  0.0416
  914MOL0     C23312   3.887  11.067   2.403 -0.3990 -0.2357 -0.9753
  914MOL0     O23313   3.989  10.993   2.449 -0.4628  0.1004 -1.0906
  914MOL0     C23314   4.095  10.960   2.363  0.4212 -0.2970 -0.0709
  914MOL0     C23315   4.220  11.042   2.395 -0.5984 -0.6292  0.5041
  914MOL0     C23316   4.271  11.031   2.537 -0.4912  0.9467  0.1243
  914MOL0     C23317   4.413  11.067   2.553 -0.6050 -0.0217 -1.0953
  914MOL0     C23318   4.450  11.210   2.543 -0.1669 -0.0767  0.4716
  914MOL0     C23319   4.487  11.323   2.519  0.0627  0.5694 -0.5359
  914MOL0     C23320   3.769  11.034   2.460 -0.1988  0.7185  0.1323
  914MOL0     C23321   3.650  11.106   2.437  0.1139 -0.4255 -0.1608
  914MOL0     C23322   3.527  11.071   2.521 -0.2137 -0.5838 -0.2944
  914MOL0     H23323   3.480  11.660   2.198 -0.4847 -0.5320  2.2045
  914MOL0     H23324   3.318  11.760   2.054  0.2511 -0.8497  0.4572
  914MOL0     H23325   2.998  11.488   1.866  0.0837 -1.7816 -0.5351
  914MOL0     H23326   2.982  11.617   1.749 -0.0440 -1.0592 -0.4919
  914MOL0     H23327   3.141  11.377   1.709  0.0239  0.3409  0.0852
  914MOL0     H23328   3.246  11.514   1.723 -0.0845  3.6482 -2.2611
  914MOL0     H23329   3.195  11.522   1.482 -0.3803  0.8158  0.3534
  914MOL0     H23330   3.085  11.640   1.549 -1.6461 -0.6391  2.3241
  914MOL0     H23331   2.978  11.372   1.566  3.8470  1.1810  1.9870
  914MOL0     H23332   2.897  11.527   1.529 -3.1681 -3.1069  1.8868
  914MOL0     H23333   2.866  11.377   1.345  0.4289 -0.6262  3.0790
  914MOL0     H23334   2.930  11.526   1.293 -4.2864 -0.1799  1.3669
  914MOL0     H23335   3.163  11.417   1.290  0.9108  0.0327  3.6175
  914MOL0     H23336   3.105  11.279   1.373 -1.1959 -0.9934  0.7982
  914MOL0     H23337   3.145  11.247   1.124  1.9367 -0.7841  2.0520
  914MOL0     H23338   2.995  11.353   1.097 -0.9424  0.1385  2.9362
  914MOL0     H23339   3.025  11.082   1.235 -1.7190 -1.1648  1.3202
  914MOL0     H23340   2.896  11.188   1.271  1.9944 -0.1477  1.2316
  914MOL0     H23341   3.039  11.006   0.951 -1.3442 -4.2213 -4.4505
  914MOL0     H23342   2.974  10.994   0.701 -1.1223 -1.4724 -1.6674
  914MOL0     H23343   2.825  10.903   0.736 -2.5154  1.4706 -0.4940
  914MOL0     H23344   2.698  11.103   0.668  1.9373  0.5929  1.8598
  914MOL0     H23345   2.847  11.163   0.578 -0.3843 -1.2159 -4.5220
  914MOL0     H23346   2.656  10.979   0.480  0.9129  5.9746 -5.1869
  914MOL0     H23347   2.788  10.870   0.530 -2.9981 -1.8189 -0.9162
  914MOL0     H23348   2.804  10.937   0.299  0.9381 -1.2334 -0.5202
  914MOL0     H23349   2.939  10.984   0.400 -1.2312 -1.4823  3.5506
  914MOL0     H23350   2.933  10.987   0.136 -1.3060  0.1453 -0.6491
  914MOL0     H23351   2.999  11.102  -0.082  0.6350  2.2290 -0.2311
  914MOL0     H23352   2.967  11.762  -0.161 -2.1106 -0.8120  0.6388
  914MOL0     H23353   3.013  11.919  -0.343  1.8535  1.3902 -0.5133
  914MOL0     H23354   3.107  12.042  -0.551 -0.8813 -1.2308 -0.3892
  914MOL0     H23355   3.250  11.955  -0.502  1.3188 -0.4146 -0.4904
  914MOL0     H23356   3.170  12.032  -0.787  0.3620 -1.3609  0.5995
  914MOL0     H23357   3.308  12.086  -0.678  1.1459  0.1322 -0.1074
  914MOL0     H23358   3.414  11.866  -0.722  0.3060  2.7729  1.6695
  914MOL0     H23359   3.261  11.813  -0.800 -0.4412  1.2353 -1.6845
  914MOL0     H23360   3.397  12.040  -0.935  5.1666 -0.2697 -2.6865
  914MOL0     H23361   3.268  11.929  -0.989  0.1194 -0.6600  0.0526
  914MOL0     H23362   3.452  11.863  -1.117 -0.3674  1.5547  0.5085
  914MOL0     H23363   3.429  11.743  -0.983 -0.5492 -0.3273 -1.2265
  914MOL0     H23364   3.652  11.947  -1.006 -0.9661  0.9204  2.7220
  914MOL0     H23365   3.624  11.861  -0.856  2.9897 -2.9619  1.0409
  914MOL0     H23366   3.707  11.730  -1.126  2.9918  1.5335 -0.4307
  914MOL0     H23367   3.708  11.654  -0.969  0.7242  0.7581  2.3084
  914MOL0     H23368   3.878  11.910  -1.032  1.4630 -0.7683  1.4141
  914MOL0     H23369   3.902  11.787  -0.914  0.3632  0.7447  0.8105
  914MOL0     H23370   3.123  11.581  -0.589  0.2204 -2.6009 -0.0508
  914MOL0     H23371   3.117  11.432  -0.392 -1.2687  0.1461 -2.4020
  914MOL0     H23372   2.899  11.485   0.085 -1.1150 -0.4894 -0.4234
  914MOL0     H23373   2.800  11.392   0.262  0.1940  1.1174 -0.8625
  914MOL0     H23374   3.191  11.365   1.936  0.4954 -2.0287  1.7842
  914MOL0     H23375   3.352  11.266   2.060  0.2186  0.2184 -2.6874
  914MOL0     H23376   3.774  11.318   2.189  1.7176 -0.2596 -0.4805
  914MOL0     H23377   3.975  11.206   2.262  1.2287 -0.3177  1.3366
  914MOL0     H23378   4.082  10.975   2.255  1.5939  0.2193 -0.1610
  914MOL0     H23379   4.120  10.854   2.374 -1.0771 -0.4220  3.0295
  914MOL0     H23380   4.209  11.147   2.365  2.1184 -0.1878  0.8170
  914MOL0     H23381   4.301  11.001   2.334 -0.5186 -0.6587  0.6306
  914MOL0     H23382   4.243  10.929   2.565  0.7002 -0.2571 -2.6781
  914MOL0     H23383   4.204  11.086   2.604  1.0261  1.2625  1.4561
  914MOL0     H23384   4.460  11.014   2.636  1.7396 -1.1911 -3.0464
  914MOL0     H23385   4.471  11.019   2.473  0.3468  2.2923 -1.8847
  914MOL0     H23386   4.537  11.418   2.532  1.5558 -0.3270  0.6595
  914MOL0     H23387   3.765  10.952   2.531  0.0138  0.6260  0.0386
  914MOL0     H23388   3.495  11.156   2.581  2.0561  2.2656 -2.7655
  914MOL0     H23389   3.444  11.036   2.458 -0.8993  0.7923 -0.2139
  914MOL0     H23390   3.566  10.980   2.566  1.5926 -1.8565 -4.0336
  915MOL0     O23391   1.915   4.403   2.262  0.4889 -0.7905  0.4578
  915MOL0     C23392   1.919   4.415   2.137 -0.4037 -0.8089 -0.4388
  915MOL0     O23393   2.013   4.490   2.069 -0.5007 -0.5681  0.1341
  915MOL0     C23394   2.082   4.596   2.123  0.8803 -0.2056  0.3617
  915MOL0     C23395   2.068   4.655   2.253 -0.1078  0.4913 -0.6333
  915MOL0     C23396   2.130   4.774   2.280  0.8905  0.4944 -0.2648
  915MOL0     C23397   2.213   4.837   2.185 -0.4172  0.1392 -0.1683
  915MOL0     O23398   2.269   4.966   2.204 -0.2872  0.4570 -0.0984
  915MOL0     C23399   2.251   5.031   2.332 -0.3322  1.2017  0.3387
  915MOL0     C23400   2.312   5.172   2.321  1.1844 -0.3945  0.9517
  915MOL0     C23401   2.302   5.241   2.182 -0.4425 -0.4130  0.5889
  915MOL0     C23402   2.164   5.307   2.148 -0.1928 -0.8475  0.6853
  915MOL0     C23403   2.148   5.342   2.004  0.1881 -0.6278  0.4514
  915MOL0     C23404   2.271   5.419   1.944  0.1991  0.7938  0.8407
  915MOL0     C23405   2.251   5.467   1.806  1.0582 -0.5811 -0.7201
  915MOL0     C23406   2.214   5.355   1.703  0.2529 -0.0998  0.0607
  915MOL0     N23407   2.272   5.383   1.570  0.4569  0.6863 -0.2358
  915MOL0     C23408   2.403   5.413   1.554  0.3271 -0.1472 -0.5489
  915MOL0     C23409   2.425   5.389   1.423 -0.9626  0.4696 -0.9634
  915MOL0     C23410   2.564   5.383   1.359 -0.1258  0.2721  0.6844
  915MOL0     C23411   2.563   5.334   1.214  0.0453  1.3895  1.1445
  915MOL0     C23412   2.486   5.412   1.100 -0.2083  0.0386 -0.6153
  915MOL0     C23413   2.521   5.369   0.952  0.4627  0.1668  0.6659
  915MOL0     O23414   2.660   5.391   0.906  0.5438 -0.1017 -0.3253
  915MOL0     C23415   2.717   5.331   0.796  0.5151 -0.2118 -0.2178
  915MOL0     C23416   2.850   5.348   0.778  0.2616 -1.3306  0.0728
  915MOL0     C23417   2.908   5.315   0.658  0.2593  0.0026 -0.1770
  915MOL0     C23418   2.833   5.261   0.550  0.1013 -0.8119 -0.0603
  915MOL0     C23419   2.896   5.244   0.410  0.0306  1.3093 -0.0821
  915MOL0     O23420   2.839   5.146   0.325 -0.0151  0.0523 -1.0500
  915MOL0     C23421   2.894   5.104   0.203 -0.9829 -0.1938 -0.8592
  915MOL0     C23422   2.817   4.998   0.151  1.3513 -0.6950 -0.5751
  915MOL0     C23423   2.849   4.953   0.022  0.5685 -0.7256 -0.0177
  915MOL0     C23424   2.962   4.999  -0.045  0.7713 -0.5772 -0.1585
  915MOL0     O23425   3.002   4.935  -0.163  0.3947  0.4908 -0.6492
  915MOL0     C23426   3.119   4.855  -0.159 -1.1422 -0.6364 -0.3057
  915MOL0     C23427   3.101   4.734  -0.244 -0.1003  0.6842 -0.5740
  915MOL0     C23428   3.052   4.617  -0.148  0.6120 -0.4525  1.2480
  915MOL0     C23429   3.000   4.485  -0.220 -0.1630 -1.1208  0.0572
  915MOL0     C23430   3.097   4.410  -0.297 -0.2753 -0.3046 -0.3457
  915MOL0     C23431   3.217   4.363  -0.217 -0.6096  0.3288  0.3889
  915MOL0     C23432   3.299   4.242  -0.287  0.9045 -1.0296  0.0668
  915MOL0     C23433   3.223   4.105  -0.281 -0.2975  0.8061  0.0303
  915MOL0    Cl23434   3.298   3.993  -0.397  0.2991 -0.5996 -0.5066
  915MOL0     C23435   3.038   5.094   0.013 -0.5689 -0.2216 -0.7253
  915MOL0     C23436   3.002   5.154   0.131 -0.1639 -0.3222  0.8413
  915MOL0     O23437   2.995   5.303   0.385 -0.5956 -0.5788 -0.7980
  915MOL0     C23438   2.698   5.246   0.562 -0.3602  0.5556 -0.5055
  915MOL0     C23439   2.640   5.273   0.687  1.7171 -0.0978  0.2839
  915MOL0     N23440   2.302   5.373   1.361 -0.3265  0.6825  0.2387
  915MOL0     N23441   2.214   5.356   1.453  0.3983 -0.1751  0.2592
  915MOL0     C23442   2.236   4.776   2.056 -0.6926 -1.0098 -0.0531
  915MOL0     C23443   2.173   4.658   2.033  0.0458 -0.1204 -0.7677
  915MOL0     C23444   1.820   4.337   2.055 -1.5650 -0.0142  0.2075
  915MOL0     C23445   1.810   4.349   1.913 -0.1763 -0.7114  0.7115
  915MOL0     C23446   1.734   4.276   1.837 -0.2617  0.2027  0.1862
  915MOL0     C23447   1.651   4.182   1.903 -0.6130  0.1576  0.8014
  915MOL0     O23448   1.571   4.116   1.806  0.8237 -0.2634  0.4421
  915MOL0     C23449   1.498   4.004   1.829  0.0294 -0.4399 -0.0940
  915MOL0     C23450   1.346   4.031   1.866  0.2111 -0.8835  0.6619
  915MOL0     C23451   1.282   3.921   1.946  0.0104  0.4877  0.8168
  915MOL0     C23452   1.309   3.926   2.097 -0.7677  0.1752  0.0162
  915MOL0     C23453   1.235   4.023   2.176  0.5490 -0.6156 -0.2045
  915MOL0     C23454   1.150   4.103   2.211 -0.3934 -0.0772  0.3218
  915MOL0     C23455   1.648   4.161   2.039  0.6060 -0.5245 -0.4793
  915MOL0     C23456   1.734   4.239   2.111  0.6001 -0.0829  0.0991
  915MOL0     C23457   1.729   4.202   2.264  0.8617  0.2795 -0.2652
  915MOL0     H23458   1.993   4.617   2.321  0.8869  0.8786  0.7251
  915MOL0     H23459   2.101   4.820   2.375  0.2807  0.8174 -0.5980
  915MOL0     H23460   2.149   5.042   2.370  0.0020 -0.3144  1.8116
  915MOL0     H23461   2.300   4.983   2.417 -1.4423 -3.0453 -1.1847
  915MOL0     H23462   2.420   5.160   2.331  1.1960 -4.3427 -1.5252
  915MOL0     H23463   2.277   5.254   2.385  2.9426  1.1918 -0.0278
  915MOL0     H23464   2.319   5.164   2.106 -3.5521 -0.6799  0.0716
  915MOL0     H23465   2.383   5.314   2.174 -0.9134 -0.1205 -3.1857
  915MOL0     H23466   2.080   5.244   2.179 -0.5978 -0.9811 -0.6323
  915MOL0     H23467   2.153   5.398   2.207  2.6629  1.7253 -2.3019
  915MOL0     H23468   2.116   5.263   1.936 -0.2118 -0.8322  0.8655
  915MOL0     H23469   2.066   5.415   2.004  0.4482 -0.1966  3.4687
  915MOL0     H23470   2.297   5.501   2.012 -2.9303  1.9188  0.7983
  915MOL0     H23471   2.359   5.354   1.937  0.9956  1.9251 -0.0065
  915MOL0     H23472   2.337   5.529   1.776  5.2346 -4.8598  1.1966
  915MOL0     H23473   2.158   5.523   1.815 -0.6388 -3.3355 -0.2984
  915MOL0     H23474   2.243   5.258   1.745 -0.2236  0.8217  2.6773
  915MOL0     H23475   2.106   5.351   1.687  0.2965  2.4710 -1.3479
  915MOL0     H23476   2.474   5.433   1.633 -0.0152 -1.3993  0.1005
  915MOL0     H23477   2.622   5.476   1.368 -0.5907  0.7552 -0.9992
  915MOL0     H23478   2.623   5.309   1.414 -2.7046 -1.7951  0.8710
  915MOL0     H23479   2.665   5.339   1.175 -0.0700  2.9834  0.9933
  915MOL0     H23480   2.553   5.226   1.202 -1.7034  1.5921  0.4462
  915MOL0     H23481   2.510   5.518   1.109  1.6855 -0.1776 -2.3010
  915MOL0     H23482   2.381   5.400   1.126 -0.4011  1.1063 -0.8466
  915MOL0     H23483   2.462   5.418   0.875  1.0845 -0.6697 -0.3677
  915MOL0     H23484   2.505   5.261   0.947 -1.6488  0.5065 -2.3137
  915MOL0     H23485   2.917   5.403   0.844  1.1344  1.9616 -3.2408
  915MOL0     H23486   3.011   5.346   0.642  0.2905 -0.4654 -0.9494
  915MOL0     H23487   2.742   4.944   0.207 -0.4462  0.8691 -1.3645
  915MOL0     H23488   2.796   4.867  -0.019 -0.4420  1.4154 -3.7152
  915MOL0     H23489   3.201   4.912  -0.202 -0.1995  0.2910  2.4648
  915MOL0     H23490   3.151   4.831  -0.057  3.0662 -0.8237 -1.4751
  915MOL0     H23491   3.017   4.747  -0.313 -0.0441 -2.3176 -1.3470
  915MOL0     H23492   3.190   4.704  -0.301  0.7380 -0.3668  1.2054
  915MOL0     H23493   3.134   4.596  -0.079  2.1962  1.3364  0.0209
  915MOL0     H23494   2.964   4.655  -0.097 -0.5948  1.3120 -1.8423
  915MOL0     H23495   2.915   4.513  -0.283 -1.5676 -1.1025  1.8704
  915MOL0     H23496   2.944   4.425  -0.147  0.3657 -1.8761 -0.1466
  915MOL0     H23497   3.136   4.462  -0.385  0.4463 -1.1727 -0.5586
  915MOL0     H23498   3.041   4.322  -0.331 -2.4284 -0.5032  3.1333
  915MOL0     H23499   3.293   4.440  -0.196 -0.1538  0.0967 -0.3865
  915MOL0     H23500   3.182   4.325  -0.120 -2.2596 -4.3704 -1.7499
  915MOL0     H23501   3.394   4.242  -0.232  0.4131 -0.8147  0.9441
  915MOL0     H23502   3.325   4.271  -0.389 -1.9639  1.5696 -0.0725
  915MOL0     H23503   3.229   4.060  -0.182  0.3869 -1.7817 -1.0943
  915MOL0     H23504   3.124   4.111  -0.327 -0.8476 -0.1317  1.0499
  915MOL0     H23505   3.137   5.114  -0.028  0.0580  0.1865  0.8845
  915MOL0     H23506   3.072   5.235   0.151 -0.0866  0.8091 -3.1254
  915MOL0     H23507   2.630   5.209   0.486  0.1105 -0.9798 -0.2047
  915MOL0     H23508   2.532   5.277   0.683  1.7703  0.4930 -2.4289
  915MOL0     H23509   2.275   4.817   1.964 -1.2289 -2.5257 -0.9913
  915MOL0     H23510   2.183   4.615   1.934  3.0644  0.8663 -1.0032
  915MOL0     H23511   1.864   4.429   1.863  1.9051 -3.4808 -1.8638
  915MOL0     H23512   1.740   4.278   1.729  4.0858 -0.4081  0.2297
  915MOL0     H23513   1.551   3.949   1.907 -1.0841 -0.3997  0.7355
  915MOL0     H23514   1.502   3.944   1.738  5.3006  1.6288 -1.5656
  915MOL0     H23515   1.285   4.050   1.778  0.0898  3.4023  1.4928
  915MOL0     H23516   1.334   4.125   1.919 -2.3249 -1.7006  1.6609
  915MOL0     H23517   1.330   3.834   1.901  1.6301  2.8228 -2.3311
  915MOL0     H23518   1.173   3.920   1.936 -0.1848  0.6826  2.6680
  915MOL0     H23519   1.286   3.829   2.144 -3.1386  0.3855 -0.5531
  915MOL0     H23520   1.418   3.931   2.100 -0.4327 -3.5051 -1.1910
  915MOL0     H23521   1.078   4.173   2.248 -0.8783  1.2364 -2.7690
  915MOL0     H23522   1.585   4.086   2.085 -0.5365  0.7453  0.0743
  915MOL0     H23523   1.681   4.282   2.320  1.3729 -1.8361  3.5591
  915MOL0     H23524   1.666   4.116   2.289  0.2412  0.3974 -1.3692
  915MOL0     H23525   1.826   4.191   2.314  0.5773  2.5155  0.9020
  916MOL0     O23526   1.026   9.936   6.868  0.7436  0.3796  0.1159
  916MOL0     C23527   0.986  10.036   6.813 -0.3548  0.6931  1.1659
  916MOL0     O23528   0.950  10.146   6.879  0.2032  0.0142 -0.0259
  916MOL0     C23529   1.008  10.177   7.003 -0.1163  0.1275 -0.1218
  916MOL0     C23530   0.930  10.258   7.089  0.3928 -0.4525  1.5412
  916MOL0     C23531   0.962  10.287   7.217  1.2261 -1.1326  0.0599
  916MOL0     C23532   1.086  10.247   7.266  1.2223  0.3704 -0.2249
  916MOL0     O23533   1.128  10.283   7.389  0.1165  0.2606  0.3771
  916MOL0     C23534   1.221  10.206   7.473 -0.4291 -0.6425  0.0525
  916MOL0     C23535   1.163  10.078   7.524  0.1657 -0.8055  1.0047
  916MOL0     C23536   1.242   9.989   7.614  0.0978 -0.0549  0.0656
  916MOL0     C23537   1.262  10.049   7.748 -0.2434 -0.5127 -0.5872
  916MOL0     C23538   1.276   9.936   7.857 -0.4161  0.9031 -0.4602
  916MOL0     C23539   1.151   9.852   7.873 -0.7870 -0.0468  0.1102
  916MOL0     C23540   1.172   9.753   7.988  0.9632 -0.2844 -1.0806
  916MOL0     C23541   1.049   9.673   8.022  0.3835  0.5391  0.1376
  916MOL0     N23542   1.024   9.550   7.937 -0.8476 -0.0124 -0.3164
  916MOL0     C23543   1.086   9.427   7.946  1.3930  0.0777 -0.2683
  916MOL0     C23544   1.007   9.336   7.881 -0.8416 -0.2859 -0.6012
  916MOL0     C23545   1.042   9.186   7.863  0.9473 -0.6578 -0.2962
  916MOL0     C23546   0.947   9.073   7.913 -0.4863 -0.0075 -0.4957
  916MOL0     C23547   1.012   8.928   7.909  0.3671  0.0572  0.0459
  916MOL0     C23548   0.943   8.815   7.980  0.2094 -0.4670 -0.1100
  916MOL0     O23549   0.913   8.865   8.120 -0.0328  0.2550  0.1899
  916MOL0     C23550   0.953   8.784   8.224 -0.4289  0.3365 -0.0339
  916MOL0     C23551   1.078   8.733   8.235  0.1432  0.2591 -0.0988
  916MOL0     C23552   1.110   8.660   8.354  0.1667 -1.0651 -0.2801
  916MOL0     C23553   1.018   8.633   8.458  0.5543  0.8808  0.0905
  916MOL0     C23554   1.060   8.548   8.574 -0.0100 -0.4930 -0.2459
  916MOL0     O23555   0.971   8.535   8.681  0.4849 -0.5888 -0.4737
  916MOL0     C23556   0.994   8.438   8.774 -0.0615 -0.4145 -0.1425
  916MOL0     C23557   0.910   8.327   8.790  0.0226 -0.1166 -0.0788
  916MOL0     C23558   0.940   8.213   8.870 -0.1611 -0.5030  0.2089
  916MOL0     C23559   1.064   8.213   8.949 -0.0617 -0.1121 -0.2665
  916MOL0     O23560   1.080   8.122   9.055  0.0673  0.2996  1.2191
  916MOL0     C23561   0.969   8.121   9.147 -0.1263  0.4881 -0.3739
  916MOL0     C23562   1.015   8.192   9.272  0.9411  0.6907  0.9573
  916MOL0     C23563   0.912   8.154   9.382 -0.4110  0.4479 -0.6745
  916MOL0     C23564   0.967   8.201   9.520 -0.2859 -0.7826 -0.8653
  916MOL0     C23565   0.863   8.141   9.617 -0.5449  0.1306 -0.1252
  916MOL0     C23566   0.906   8.161   9.761  1.2301 -0.2408 -0.4287
  916MOL0     C23567   0.809   8.093   9.864  0.0433  0.3231  0.3055
  916MOL0     C23568   0.873   8.080  10.000 -0.0245 -1.0507 -0.0909
  916MOL0    Cl23569   0.873   8.249  10.065  0.0690  0.0984 -0.5371
  916MOL0     C23570   1.149   8.323   8.931  0.9170  0.3280 -0.4228
  916MOL0     C23571   1.114   8.426   8.859 -0.0687 -0.1427 -0.2919
  916MOL0     O23572   1.168   8.492   8.574 -0.9027 -0.4272 -0.4736
  916MOL0     C23573   0.892   8.685   8.433  0.7806 -0.6444  0.1938
  916MOL0     C23574   0.861   8.766   8.328 -0.8445  1.1277  0.2394
  916MOL0     N23575   0.903   9.409   7.832 -0.0169 -0.2981 -0.3919
  916MOL0     N23576   0.925   9.531   7.851  0.2447 -0.9358 -0.1303
  916MOL0     C23577   1.151  10.150   7.187 -1.0271 -1.2584  0.6051
  916MOL0     C23578   1.117  10.127   7.057 -1.0066  0.0576 -0.5668
  916MOL0     C23579   0.987  10.026   6.666 -0.9642 -0.2803 -1.0038
  916MOL0     C23580   0.913  10.121   6.599  0.8330 -0.1595  0.0542
  916MOL0     C23581   0.914  10.124   6.458 -0.1571 -0.5351  0.5511
  916MOL0     C23582   0.994  10.049   6.380  0.1440  0.2672  0.0578
  916MOL0     O23583   0.988  10.036   6.241 -0.1220 -0.4570 -0.7558
  916MOL0     C23584   0.855  10.036   6.195 -0.1521  0.0312 -0.4640
  916MOL0     C23585   0.861   9.978   6.059  0.1929  1.0481  0.9088
  916MOL0     C23586   0.717   9.962   6.003 -0.0564 -0.6115  0.4018
  916MOL0     C23587   0.713   9.897   5.868 -0.4222  0.7978  0.1744
  916MOL0     C23588   0.760   9.764   5.865 -0.6385 -0.4133  0.6678
  916MOL0     C23589   0.845   9.673   5.851 -1.0482  0.4547 -0.5655
  916MOL0     C23590   1.070   9.954   6.449 -0.6743 -0.1934 -1.1979
  916MOL0     C23591   1.062   9.939   6.587 -0.6814 -0.8683  0.3717
  916MOL0     C23592   1.156   9.828   6.645  0.1622  0.0413 -0.1869
  916MOL0     H23593   0.834  10.298   7.058  1.0200 -0.7122 -0.9683
  916MOL0     H23594   0.886  10.347   7.267  1.7399 -1.0948  0.8022
  916MOL0     H23595   1.323  10.197   7.434 -0.7556 -0.3561 -0.8913
  916MOL0     H23596   1.236  10.278   7.554 -1.9244  1.6978 -1.6176
  916MOL0     H23597   1.130  10.016   7.441  0.7892 -1.7207  1.4254
  916MOL0     H23598   1.069  10.110   7.571 -1.4790 -0.2215 -2.4236
  916MOL0     H23599   1.341   9.980   7.567  0.5421  2.2646  0.4558
  916MOL0     H23600   1.198   9.889   7.616 -2.0065  0.8285  2.2417
  916MOL0     H23601   1.346  10.118   7.742 -1.1126  0.4611 -4.3009
  916MOL0     H23602   1.174  10.109   7.773  0.5249  1.4628 -2.3305
  916MOL0     H23603   1.368   9.886   7.824 -0.3387  2.4060 -2.7280
  916MOL0     H23604   1.286   9.995   7.949 -0.9140  0.7396 -0.2984
  916MOL0     H23605   1.063   9.914   7.891 -0.9873 -0.6686  1.4012
  916MOL0     H23606   1.160   9.781   7.791 -0.0807  1.2073 -0.9268
  916MOL0     H23607   1.204   9.804   8.079 -0.2964 -2.4825  0.6924
  916MOL0     H23608   1.254   9.684   7.963  1.2159 -0.2796 -0.2895
  916MOL0     H23609   1.052   9.652   8.130 -2.1108 -0.5525  0.0506
  916MOL0     H23610   0.967   9.745   8.029  0.8624  1.0061  1.2681
  916MOL0     H23611   1.169   9.397   8.008 -0.5429  0.1994  2.5637
  916MOL0     H23612   1.051   9.169   7.756  1.8226 -0.0722 -0.3239
  916MOL0     H23613   1.147   9.165   7.883  1.6573  3.1565  0.6615
  916MOL0     H23614   0.907   9.084   8.014 -1.3822  0.0617 -0.8410
  916MOL0     H23615   0.857   9.078   7.850 -0.9765  1.3279  0.2720
  916MOL0     H23616   1.109   8.935   7.959  1.2618 -2.0370 -1.3038
  916MOL0     H23617   1.036   8.896   7.808  3.3040  3.8130 -0.6999
  916MOL0     H23618   1.008   8.728   7.995  0.6764 -0.0359  0.4432
  916MOL0     H23619   0.850   8.778   7.938  0.3762  0.2299 -1.1461
  916MOL0     H23620   1.153   8.756   8.161  1.3528  0.3122  1.1139
  916MOL0     H23621   1.212   8.624   8.344  1.1624  1.4010  0.2752
  916MOL0     H23622   0.810   8.325   8.747 -0.0794  1.5573  0.0311
  916MOL0     H23623   0.875   8.127   8.886  2.7969 -3.2021 -1.0103
  916MOL0     H23624   0.886   8.159   9.087  2.8994  0.1576 -5.3871
  916MOL0     H23625   0.943   8.017   9.165 -2.3170  1.4005  2.3454
  916MOL0     H23626   1.113   8.153   9.303  0.8829 -0.4024 -0.1422
  916MOL0     H23627   1.011   8.300   9.259  0.2893  0.3360 -2.8003
  916MOL0     H23628   0.815   8.195   9.355 -0.0737  0.6033 -1.7096
  916MOL0     H23629   0.902   8.045   9.392 -0.0953  0.6287  3.1720
  916MOL0     H23630   0.957   8.309   9.518 -4.5364 -0.9591  0.9563
  916MOL0     H23631   1.068   8.163   9.539  0.0040 -1.6602 -3.6872
  916MOL0     H23632   0.851   8.034   9.597  1.1053  0.1222 -1.2701
  916MOL0     H23633   0.767   8.191   9.603 -1.9894 -2.3457  0.2356
  916MOL0     H23634   1.005   8.115   9.757  0.6157 -1.5502 -3.4041
  916MOL0     H23635   0.916   8.268   9.779  0.3523  0.0258 -1.4467
  916MOL0     H23636   0.775   7.995   9.828  0.1388  0.1955  0.5557
  916MOL0     H23637   0.716   8.150   9.865 -1.6083 -2.0657 -1.8892
  916MOL0     H23638   0.799   8.027  10.061 -2.7129  0.7179 -1.6319
  916MOL0     H23639   0.968   8.028   9.989  0.1744 -0.6600 -0.2472
  916MOL0     H23640   1.234   8.330   8.998  0.0331  0.1409  0.7433
  916MOL0     H23641   1.179   8.513   8.862 -2.5103  1.7792  1.0958
  916MOL0     H23642   0.813   8.682   8.507  2.9195  2.5085  2.8884
  916MOL0     H23643   0.762   8.811   8.323 -0.4324  2.3240  1.8502
  916MOL0     H23644   1.236  10.091   7.218 -0.5127 -0.5521  0.5661
  916MOL0     H23645   1.192  10.073   7.000  1.2168  1.3959  0.9392
  916MOL0     H23646   0.857  10.197   6.651  0.7332  1.3988 -2.2138
  916MOL0     H23647   0.850  10.193   6.403 -2.8259 -1.9873  1.6164
  916MOL0     H23648   0.816  10.138   6.203  1.6552  0.6156  1.8118
  916MOL0     H23649   0.793   9.976   6.261 -1.7736  2.2545  0.1344
  916MOL0     H23650   0.901   9.877   6.066  1.7924  1.6619  1.2113
  916MOL0     H23651   0.925  10.035   5.991 -0.5245  2.3068  1.2469
  916MOL0     H23652   0.675  10.063   5.994 -2.3144 -1.6367 -1.9936
  916MOL0     H23653   0.651   9.911   6.074 -4.0056  2.2832 -0.8146
  916MOL0     H23654   0.607   9.891   5.840 -1.2143  2.0655  2.5728
  916MOL0     H23655   0.755   9.960   5.790 -0.4435 -1.1409 -1.4674
  916MOL0     H23656   0.931   9.608   5.853 -0.7891  0.7863  1.5617
  916MOL0     H23657   1.131   9.886   6.390 -1.3067 -0.4920 -1.5190
  916MOL0     H23658   1.097   9.740   6.671 -1.0864  0.8746 -0.0925
  916MOL0     H23659   1.228   9.798   6.569 -0.6008 -1.4854 -0.3548
  916MOL0     H23660   1.209   9.865   6.733  1.3089 -1.8083 -0.0626
  917MOL0     O23661   3.171   7.216  11.103  0.0703 -0.0162 -0.1342
  917MOL0     C23662   3.122   7.153  11.195 -1.1294 -0.4740 -0.3927
  917MOL0     O23663   3.054   7.205  11.301 -0.3594 -0.5876 -0.2015
  917MOL0     C23664   3.048   7.348  11.315 -0.4517 -0.3691 -0.6254
  917MOL0     C23665   3.081   7.408  11.443 -0.1012 -0.1136 -0.7020
  917MOL0     C23666   3.061   7.549  11.465  0.0649  1.0464  0.4720
  917MOL0     C23667   3.018   7.630  11.363  0.3227 -0.5153 -0.4896
  917MOL0     O23668   2.994   7.764  11.382  0.5003  0.6474 -0.0807
  917MOL0     C23669   3.088   7.831  11.299 -0.3399 -0.9280  0.1398
  917MOL0     C23670   3.077   7.984  11.299  0.3362  0.4499 -0.2726
  917MOL0     C23671   3.104   8.056  11.434 -0.9806  0.0277  0.2160
  917MOL0     C23672   3.043   8.199  11.426  0.0710  0.4876  0.5880
  917MOL0     C23673   3.051   8.279  11.556  0.4479  0.3144 -0.0455
  917MOL0     C23674   3.003   8.418  11.544 -0.0801  0.5971  0.2266
  917MOL0     C23675   2.970   8.497  11.675  0.5587 -0.5970 -0.0528
  917MOL0     C23676   3.097   8.514  11.766 -0.6887  0.7671  0.2610
  917MOL0     N23677   3.059   8.521  11.908  0.2093 -0.1893 -1.0341
  917MOL0     C23678   3.036   8.644  11.969  0.8615 -0.1423 -0.4782
  917MOL0     C23679   3.015   8.612  12.102 -0.7400  0.0701  0.5861
  917MOL0     C23680   2.984   8.716  12.197  0.5750 -0.8053  0.1361
  917MOL0     C23681   2.844   8.771  12.158 -0.1012  0.9208 -0.2666
  917MOL0     C23682   2.734   8.708  12.253 -0.2484 -1.1196 -0.4647
  917MOL0     C23683   2.736   8.555  12.249 -1.1652 -0.2832 -0.9385
  917MOL0     O23684   2.640   8.511  12.349 -0.3577 -0.4799  0.7006
  917MOL0     C23685   2.613   8.381  12.369 -0.2292 -0.7367 -0.3626
  917MOL0     C23686   2.503   8.354  12.451  0.2619 -0.1549  0.0289
  917MOL0     C23687   2.476   8.216  12.485 -0.8413 -0.9968 -0.8625
  917MOL0     C23688   2.571   8.124  12.451  0.8496  0.2917  0.0229
  917MOL0     C23689   2.557   7.993  12.510 -0.8549  0.2428  0.2140
  917MOL0     O23690   2.424   7.951  12.543  0.7971 -0.4645  0.2207
  917MOL0     C23691   2.376   7.824  12.558 -0.9239 -0.0740  0.1207
  917MOL0     C23692   2.240   7.807  12.588  0.8536  0.7912  0.2849
  917MOL0     C23693   2.184   7.677  12.604  0.2962 -0.1307  0.8169
  917MOL0     C23694   2.273   7.568  12.613 -0.1190  0.2940  0.7375
  917MOL0     O23695   2.218   7.444  12.634  0.9849 -0.3469  0.2592
  917MOL0     C23696   2.280   7.350  12.723 -0.5607  0.2121 -0.2441
  917MOL0     C23697   2.173   7.260  12.770 -0.4516 -0.0134 -0.5011
  917MOL0     C23698   2.134   7.291  12.919  0.0383  0.1384 -0.6357
  917MOL0     C23699   2.210   7.213  13.032  0.2397 -0.0553  0.4322
  917MOL0     C23700   2.158   7.242  13.167 -0.4773  1.0087 -1.1155
  917MOL0     C23701   2.225   7.137  13.262 -0.3787  0.0608  0.1568
  917MOL0     C23702   2.194   7.183  13.403  0.7525  0.5870  1.1263
  917MOL0     C23703   2.273   7.088  13.507  0.1630 -0.7193  0.8896
  917MOL0    Cl23704   2.302   7.182  13.665 -0.0839  0.3132 -0.5865
  917MOL0     C23705   2.410   7.582  12.596  0.2123 -1.1150  0.2449
  917MOL0     C23706   2.460   7.708  12.568 -0.2000 -0.6486 -0.1637
  917MOL0     O23707   2.651   7.916  12.504 -0.2640 -0.5560 -0.0730
  917MOL0     C23708   2.678   8.157  12.369 -0.0934 -0.7362  0.1483
  917MOL0     C23709   2.697   8.282  12.320  1.2056 -0.4420 -0.6335
  917MOL0     N23710   3.041   8.469  12.116 -0.2423 -0.1090  0.4416
  917MOL0     N23711   3.075   8.421  11.999 -0.3148  0.4173 -0.6111
  917MOL0     C23712   2.982   7.571  11.243  0.4244  0.5063 -0.1633
  917MOL0     C23713   2.993   7.433  11.225  0.0691  0.0294  0.3964
  917MOL0     C23714   3.117   7.002  11.199 -0.2030 -0.1404  0.2471
  917MOL0     C23715   3.130   6.938  11.323 -0.3397 -0.1075 -0.7979
  917MOL0     C23716   3.138   6.803  11.340 -0.7644 -0.2021 -0.1294
  917MOL0     C23717   3.139   6.713  11.232 -0.3825  0.2131  0.1940
  917MOL0     O23718   3.143   6.570  11.242  0.8383 -1.7662  0.3270
  917MOL0     C23719   3.193   6.498  11.359 -0.5884  0.6473  0.0187
  917MOL0     C23720   3.337   6.458  11.337 -0.9312  0.5559 -0.3178
  917MOL0     C23721   3.433   6.573  11.321 -1.0524 -1.0986 -0.2960
  917MOL0     C23722   3.573   6.535  11.327 -0.4177  1.2199 -0.1774
  917MOL0     C23723   3.661   6.650  11.329  1.3118 -0.5440  0.5890
  917MOL0     C23724   3.742   6.735  11.312 -0.0772  0.2309  0.7886
  917MOL0     C23725   3.128   6.776  11.103 -0.1632 -0.0553 -0.4475
  917MOL0     C23726   3.115   6.916  11.083  0.3454  1.3890  0.0836
  917MOL0     C23727   3.120   6.957  10.945  0.0948 -0.1749  0.6404
  917MOL0     H23728   3.111   7.335  11.517  1.5972  0.5304 -0.7044
  917MOL0     H23729   3.089   7.584  11.564 -0.2969  1.3684  0.4671
  917MOL0     H23730   3.188   7.812  11.340 -0.2154  1.1159  0.9230
  917MOL0     H23731   3.069   7.813  11.192 -0.2226  0.9056 -0.2293
  917MOL0     H23732   2.974   8.008  11.271  0.1946  1.0643  0.7057
  917MOL0     H23733   3.143   8.030  11.225  1.7297 -1.1036 -0.0463
  917MOL0     H23734   3.211   8.053  11.459 -1.6751 -1.9863  3.5704
  917MOL0     H23735   3.066   7.996  11.517 -0.2838 -0.6894  0.0350
  917MOL0     H23736   3.089   8.265  11.351  1.5722  0.5371  1.5232
  917MOL0     H23737   2.940   8.190  11.389 -0.1850  1.6741  0.9686
  917MOL0     H23738   2.984   8.233  11.630 -1.6060  2.3065 -0.5620
  917MOL0     H23739   3.153   8.286  11.596  1.1222 -0.0194 -1.6353
  917MOL0     H23740   3.072   8.488  11.496 -2.5638  3.3919  0.3687
  917MOL0     H23741   2.913   8.426  11.482  0.8645  0.1947 -1.2233
  917MOL0     H23742   2.885   8.449  11.724 -0.4892 -0.0092 -1.2363
  917MOL0     H23743   2.940   8.598  11.647  3.5931  0.9014  1.5924
  917MOL0     H23744   3.164   8.428  11.766 -0.3274  1.0260  1.5104
  917MOL0     H23745   3.152   8.597  11.721  1.8274 -1.4248 -0.9707
  917MOL0     H23746   3.025   8.745  11.932  1.8300  0.2413  0.2566
  917MOL0     H23747   2.996   8.695  12.304  1.3367 -0.0076  0.2238
  917MOL0     H23748   3.062   8.791  12.179 -0.6679 -0.0526 -2.7448
  917MOL0     H23749   2.833   8.880  12.170  1.9301  1.1154  0.2929
  917MOL0     H23750   2.810   8.739  12.059 -1.4936  2.4943 -0.3563
  917MOL0     H23751   2.639   8.756  12.226  1.9624  4.0037 -0.2692
  917MOL0     H23752   2.748   8.735  12.358  0.4144 -0.1680 -0.7850
  917MOL0     H23753   2.836   8.525  12.282 -1.6912  0.8477  2.0847
  917MOL0     H23754   2.716   8.520  12.148  0.8792  0.7709 -1.7632
  917MOL0     H23755   2.440   8.437  12.480  1.8358  0.5457  1.5913
  917MOL0     H23756   2.399   8.199  12.560  0.9997 -1.0666  1.1125
  917MOL0     H23757   2.168   7.887  12.593  0.4606  0.3913  3.7493
  917MOL0     H23758   2.082   7.655  12.631 -0.2549  0.8186 -0.3974
  917MOL0     H23759   2.352   7.287  12.671 -0.9776  1.0320 -1.8964
  917MOL0     H23760   2.324   7.400  12.810 -0.8728  0.0838 -0.0142
  917MOL0     H23761   2.081   7.282  12.714 -1.5506  0.6146  1.4544
  917MOL0     H23762   2.215   7.160  12.763  1.2549  0.6185  0.2568
  917MOL0     H23763   2.139   7.396  12.951  0.2033  0.3595 -1.3776
  917MOL0     H23764   2.027   7.269  12.918 -0.8305  3.6305 -0.0505
  917MOL0     H23765   2.311   7.253  13.028  0.2732 -0.2391 -2.4108
  917MOL0     H23766   2.203   7.107  13.007  1.5202 -0.1473  0.4192
  917MOL0     H23767   2.049   7.238  13.169 -0.7072  3.7853  2.3792
  917MOL0     H23768   2.188   7.341  13.205 -1.3918  0.5686  0.8802
  917MOL0     H23769   2.182   7.040  13.240 -1.3823  0.8319 -1.4503
  917MOL0     H23770   2.334   7.133  13.260 -0.3664 -4.2466  0.8625
  917MOL0     H23771   2.086   7.191  13.420  0.9087  2.1069  1.5599
  917MOL0     H23772   2.236   7.282  13.423  1.5170  0.3640  0.6680
  917MOL0     H23773   2.217   7.000  13.539 -0.5466 -0.6326 -0.0842
  917MOL0     H23774   2.371   7.054  13.470 -0.0966 -2.0321  1.3434
  917MOL0     H23775   2.481   7.500  12.586  1.8577  0.4630 -2.1029
  917MOL0     H23776   2.568   7.719  12.560 -0.4911  2.7431 -0.8893
  917MOL0     H23777   2.740   8.080  12.324 -1.2418 -1.9694  0.6156
  917MOL0     H23778   2.781   8.306  12.256  1.2043  0.6771 -0.2330
  917MOL0     H23779   2.932   7.613  11.156  0.5029  1.2221  0.1347
  917MOL0     H23780   2.979   7.390  11.126  2.9408 -1.1252  0.3874
  917MOL0     H23781   3.127   6.997  11.415  2.9012  1.2257 -1.3959
  917MOL0     H23782   3.138   6.757  11.438  0.1919 -2.2156 -1.0105
  917MOL0     H23783   3.148   6.398  11.359  2.5739 -0.8994  1.1691
  917MOL0     H23784   3.178   6.549  11.455  0.8201 -0.0175  0.6162
  917MOL0     H23785   3.348   6.381  11.260  1.9345 -1.4153  1.8767
  917MOL0     H23786   3.366   6.392  11.418  0.3037  1.0204 -0.3666
  917MOL0     H23787   3.411   6.652  11.394 -1.7142 -2.2167  0.7532
  917MOL0     H23788   3.407   6.626  11.229  1.1062 -0.2375 -0.4861
  917MOL0     H23789   3.588   6.469  11.414 -0.5767  0.2365 -0.8820
  917MOL0     H23790   3.601   6.470  11.244 -0.1708  0.2689  0.6228
  917MOL0     H23791   3.804   6.806  11.262 -1.6370  0.9647 -0.1690
  917MOL0     H23792   3.142   6.713  11.016  0.2463 -1.5596  0.6598
  917MOL0     H23793   3.110   6.877  10.871  1.4208 -0.5649  0.8684
  917MOL0     H23794   3.044   7.032  10.919  0.4581 -0.5702 -1.8814
  917MOL0     H23795   3.223   6.989  10.927  0.3272 -1.3709 -0.2512
  918MOL0     O23796   4.597   5.896   4.785  0.9689 -0.2061 -0.0188
  918MOL0     C23797   4.648   5.797   4.827 -0.1067  0.7559  0.1541
  918MOL0     O23798   4.663   5.760   4.958  0.5868  0.2525 -0.0464
  918MOL0     C23799   4.571   5.789   5.052 -0.1438 -0.2538 -0.6896
  918MOL0     C23800   4.514   5.920   5.077 -0.3306  0.6575  0.8352
  918MOL0     C23801   4.410   5.944   5.173  0.0020  0.1331  0.4089
  918MOL0     C23802   4.386   5.841   5.260  0.3102 -0.1848  0.0023
  918MOL0     O23803   4.289   5.845   5.360  0.7192  0.4828 -0.4427
  918MOL0     C23804   4.193   5.946   5.360 -0.0147  1.0623  0.8376
  918MOL0     C23805   4.080   5.940   5.462 -0.1226 -0.5032  0.0598
  918MOL0     C23806   4.130   5.975   5.605 -0.3902  0.7910 -0.6413
  918MOL0     C23807   4.006   6.037   5.677 -1.1141  1.5021  0.3956
  918MOL0     C23808   4.044   6.119   5.803  0.2180 -0.0605 -0.7928
  918MOL0     C23809   4.106   6.026   5.902  0.2510 -0.1337 -0.5572
  918MOL0     C23810   4.090   6.074   6.050  0.7817 -0.4558  0.2428
  918MOL0     C23811   4.202   6.169   6.104 -0.0004  0.2109 -1.3311
  918MOL0     N23812   4.337   6.130   6.081  0.2083  0.2085 -0.4736
  918MOL0     C23813   4.393   6.023   6.150 -0.1192 -1.1745 -0.0704
  918MOL0     C23814   4.499   5.988   6.071  0.5412 -0.8159  0.1110
  918MOL0     C23815   4.563   5.854   6.104  0.2274  1.0741 -0.7362
  918MOL0     C23816   4.607   5.826   6.256  0.2037 -0.2606 -0.1210
  918MOL0     C23817   4.657   5.688   6.281 -0.0500  0.7860  0.4673
  918MOL0     C23818   4.782   5.641   6.210  0.2432 -0.7118  0.3350
  918MOL0     O23819   4.884   5.737   6.218 -0.4471  0.0149 -0.4330
  918MOL0     C23820   4.956   5.749   6.335  0.3096  0.3424  1.5848
  918MOL0     C23821   5.027   5.866   6.331 -0.0824  1.0925  0.1406
  918MOL0     C23822   5.089   5.906   6.458 -0.2364 -0.9820  1.1494
  918MOL0     C23823   5.084   5.838   6.573 -0.0874 -0.0379 -1.3970
  918MOL0     C23824   5.145   5.888   6.702 -0.7308 -0.3574  0.3454
  918MOL0     O23825   5.108   5.815   6.812  0.1635 -0.2408 -0.1843
  918MOL0     C23826   5.160   5.862   6.925 -0.8165  0.1734 -0.5528
  918MOL0     C23827   5.072   5.884   7.040  0.7925  0.0544  1.4638
  918MOL0     C23828   5.128   5.919   7.169  1.4635 -0.5616 -0.7707
  918MOL0     C23829   5.260   5.934   7.186 -0.1275  0.1910  0.5077
  918MOL0     O23830   5.311   5.988   7.299  0.8485  0.3708  0.2594
  918MOL0     C23831   5.427   6.074   7.279  0.4330 -0.5490 -0.0196
  918MOL0     C23832   5.468   6.164   7.397 -0.1590  0.5410 -0.7427
  918MOL0     C23833   5.341   6.217   7.467 -1.0786 -0.0337  0.0049
  918MOL0     C23834   5.277   6.134   7.576  0.3702 -0.2917  1.1668
  918MOL0     C23835   5.153   6.195   7.640  1.0400  0.3043 -0.3631
  918MOL0     C23836   5.085   6.113   7.760  0.9083 -0.2185  0.0537
  918MOL0     C23837   4.935   6.142   7.808 -0.7508 -0.2906  0.5368
  918MOL0     C23838   4.871   6.025   7.881  0.3391  0.1612 -0.0171
  918MOL0    Cl23839   4.704   6.070   7.948  0.3893  0.1314  0.1298
  918MOL0     C23840   5.349   5.912   7.079  0.2628 -0.2902  0.4577
  918MOL0     C23841   5.298   5.874   6.953  0.4608  0.2385  0.4495
  918MOL0     O23842   5.214   5.988   6.693 -0.3263  0.3917 -0.7473
  918MOL0     C23843   5.021   5.709   6.567  0.6167 -0.5954 -0.6985
  918MOL0     C23844   4.957   5.671   6.446 -0.1405  0.9075 -0.0455
  918MOL0     N23845   4.519   6.076   5.969 -0.7188  0.1147  0.8279
  918MOL0     N23846   4.422   6.166   5.985  0.0934  0.2017  0.5672
  918MOL0     C23847   4.450   5.713   5.245 -0.5720  0.2472 -1.0640
  918MOL0     C23848   4.540   5.690   5.151 -0.7819  0.2108  0.4621
  918MOL0     C23849   4.711   5.716   4.727 -0.0943  0.4019  0.2095
  918MOL0     C23850   4.780   5.782   4.631 -0.2668 -0.5328 -0.1517
  918MOL0     C23851   4.829   5.723   4.514 -0.3850 -0.1696  0.1579
  918MOL0     C23852   4.821   5.585   4.493  0.8035 -0.1252  0.5399
  918MOL0     O23853   4.864   5.530   4.375 -0.4635  0.0080  0.1199
  918MOL0     C23854   4.921   5.392   4.389  0.6620 -0.3245 -0.1703
  918MOL0     C23855   5.033   5.370   4.284  0.0717 -1.1327 -0.1797
  918MOL0     C23856   4.988   5.382   4.142  0.8155 -0.7912  1.4558
  918MOL0     C23857   5.112   5.372   4.049  0.0133 -0.0176 -0.0527
  918MOL0     C23858   5.174   5.503   4.015  1.1611 -0.3341 -0.4563
  918MOL0     C23859   5.218   5.615   4.006 -0.6387  0.5196  0.2657
  918MOL0     C23860   4.758   5.511   4.602 -0.5322  0.2331  0.3662
  918MOL0     C23861   4.694   5.578   4.706 -0.0538 -0.5423 -0.5273
  918MOL0     C23862   4.624   5.497   4.807  0.5932 -0.5346 -0.1744
  918MOL0     H23863   4.542   6.002   5.012  3.8145 -1.4601 -0.4627
  918MOL0     H23864   4.354   6.037   5.184 -0.7414 -0.4992  2.2747
  918MOL0     H23865   4.247   6.040   5.375  3.2375 -0.8312  1.9199
  918MOL0     H23866   4.145   5.949   5.262  0.4533  1.8872  0.6192
  918MOL0     H23867   4.037   5.840   5.461 -0.4977 -0.3530  0.5970
  918MOL0     H23868   4.007   6.016   5.432  0.3051  1.2990  3.1047
  918MOL0     H23869   4.213   6.044   5.589 -0.2686  0.5445 -1.1020
  918MOL0     H23870   4.152   5.879   5.654 -1.8421  0.6589 -0.1808
  918MOL0     H23871   3.952   6.102   5.607 -1.5633 -0.1243 -0.8210
  918MOL0     H23872   3.945   5.950   5.702  1.6165 -1.3810 -2.2011
  918MOL0     H23873   4.123   6.194   5.789 -0.0239  0.5845  1.0802
  918MOL0     H23874   3.955   6.175   5.832  0.3203  0.1846 -0.9436
  918MOL0     H23875   4.047   5.935   5.891  1.4024 -0.9940  0.1734
  918MOL0     H23876   4.208   6.001   5.871  0.4091  0.9787 -0.9971
  918MOL0     H23877   4.100   5.975   6.096  2.7209 -0.7092 -0.6160
  918MOL0     H23878   3.992   6.121   6.059 -0.0640 -0.4423 -5.4066
  918MOL0     H23879   4.188   6.271   6.067  1.9992  0.0991 -2.5466
  918MOL0     H23880   4.189   6.160   6.212 -0.7698  0.2301 -1.4208
  918MOL0     H23881   4.348   5.956   6.223 -0.4478 -3.3203 -2.0864
  918MOL0     H23882   4.495   5.776   6.070 -0.7513  1.2580  0.7137
  918MOL0     H23883   4.652   5.832   6.044  2.5652 -1.9681  3.3037
  918MOL0     H23884   4.674   5.903   6.297 -3.4023  1.7216  2.6794
  918MOL0     H23885   4.517   5.841   6.317  0.5873  1.4443  0.0949
  918MOL0     H23886   4.581   5.611   6.264  3.0869 -2.0891 -1.9668
  918MOL0     H23887   4.677   5.674   6.388 -2.0903  4.1044  1.4139
  918MOL0     H23888   4.763   5.624   6.104 -1.5603  0.2229  0.4771
  918MOL0     H23889   4.813   5.548   6.259  1.5097 -2.0425 -2.7486
  918MOL0     H23890   5.011   5.931   6.245 -2.7125 -1.6555 -1.6592
  918MOL0     H23891   5.121   6.009   6.459 -1.1855 -0.5641 -1.6329
  918MOL0     H23892   4.969   5.853   7.033  0.4024  1.1590  2.0764
  918MOL0     H23893   5.063   5.928   7.256  0.4636 -1.2962 -1.4202
  918MOL0     H23894   5.516   6.013   7.263  1.5531  1.2269 -0.8302
  918MOL0     H23895   5.409   6.132   7.188  0.0346 -2.8363 -1.4763
  918MOL0     H23896   5.518   6.115   7.481 -0.7365 -1.2442 -1.4041
  918MOL0     H23897   5.536   6.241   7.359  1.4679 -0.3204  0.2919
  918MOL0     H23898   5.377   6.313   7.505  1.4422  0.5145 -3.3482
  918MOL0     H23899   5.269   6.253   7.392  1.2773  0.2360 -2.2675
  918MOL0     H23900   5.353   6.111   7.651  2.3835  0.5612 -0.4970
  918MOL0     H23901   5.254   6.036   7.533  2.2382  0.0930 -0.9365
  918MOL0     H23902   5.079   6.201   7.560 -0.4322  1.0543  0.9761
  918MOL0     H23903   5.181   6.296   7.672  3.5468 -0.7370  0.9891
  918MOL0     H23904   5.078   6.007   7.734 -0.2854  0.8047 -4.9684
  918MOL0     H23905   5.150   6.128   7.846 -0.4811 -3.1036  1.7546
  918MOL0     H23906   4.884   6.190   7.724 -0.1746  1.6818  1.2549
  918MOL0     H23907   4.935   6.229   7.874  0.9469  0.6790 -0.6568
  918MOL0     H23908   4.858   5.937   7.818 -0.2220 -1.0594  1.7248
  918MOL0     H23909   4.929   5.996   7.969 -1.5617 -0.0181  1.2327
  918MOL0     H23910   5.453   5.939   7.088 -0.5328  2.8944  1.5561
  918MOL0     H23911   5.368   5.848   6.874 -1.0460 -0.6183 -0.6661
  918MOL0     H23912   5.008   5.653   6.659 -1.0424  3.2931  1.7377
  918MOL0     H23913   4.910   5.573   6.449  1.5848 -0.0571 -1.9861
  918MOL0     H23914   4.425   5.648   5.328  2.0810  1.4801  0.8176
  918MOL0     H23915   4.590   5.597   5.127  0.4027  0.9813 -0.1715
  918MOL0     H23916   4.806   5.886   4.650 -0.3184 -0.7642  1.3130
  918MOL0     H23917   4.880   5.794   4.450  0.5294  2.5615  3.6212
  918MOL0     H23918   4.839   5.325   4.363 -0.0897  0.7113 -0.5712
  918MOL0     H23919   4.959   5.361   4.487  0.9233 -3.0313 -1.0491
  918MOL0     H23920   5.076   5.272   4.304 -1.1203 -1.3580  1.4947
  918MOL0     H23921   5.105   5.447   4.312 -1.3985 -0.1221  1.0250
  918MOL0     H23922   4.923   5.466   4.116  0.0194 -2.0216 -0.9512
  918MOL0     H23923   4.927   5.292   4.131  0.0736 -0.4028  2.2823
  918MOL0     H23924   5.199   5.322   4.092  2.5471  2.7300 -1.5858
  918MOL0     H23925   5.080   5.322   3.957 -0.4118 -2.7142  1.4403
  918MOL0     H23926   5.259   5.714   4.007  0.1031  0.2571 -0.9911
  918MOL0     H23927   4.744   5.404   4.617 -0.2898  0.5041  3.0040
  918MOL0     H23928   4.677   5.502   4.903  1.4194  0.9294 -0.6786
  918MOL0     H23929   4.521   5.533   4.814  0.5033 -0.9192  0.6866
  918MOL0     H23930   4.625   5.396   4.767 -1.9583 -0.1332 -1.3988
  919MOL0     O23931  10.182  11.015   9.810 -0.2022  0.8770 -0.4355
  919MOL0     C23932  10.120  10.954   9.723  0.3146 -0.2245  0.2832
  919MOL0     O23933  10.025  10.847   9.728 -0.3013  0.0071  0.3915
  919MOL0     C23934   9.986  10.808   9.853 -0.1410 -0.2088 -0.0414
  919MOL0     C23935   9.929  10.900   9.948  1.1509  1.2961  0.1403
  919MOL0     C23936   9.874  10.864  10.068 -0.7581  0.5529 -0.0464
  919MOL0     C23937   9.898  10.727  10.107  1.0180  0.0155  0.1979
  919MOL0     O23938   9.837  10.692  10.222  0.8412 -0.8363 -0.4126
  919MOL0     C23939   9.737  10.589  10.217 -0.5467 -0.1516  0.3321
  919MOL0     C23940   9.662  10.583  10.354 -0.5717 -0.0334  0.2981
  919MOL0     C23941   9.582  10.713  10.386  0.1812  0.2194 -0.1055
  919MOL0     C23942   9.428  10.702  10.368 -0.5562 -0.1200 -0.2492
  919MOL0     C23943   9.383  10.718  10.225 -0.0317 -0.4202 -0.2009
  919MOL0     C23944   9.229  10.724  10.219  0.4850  0.4591 -0.7385
  919MOL0     C23945   9.156  10.769  10.094 -0.3638  0.2790 -0.1108
  919MOL0     C23946   9.158  10.670   9.974 -0.1138  0.1766 -0.0818
  919MOL0     N23947   9.294  10.623   9.946 -1.0514  0.5931 -0.0113
  919MOL0     C23948   9.393  10.706   9.888  0.3554  0.1604  0.1127
  919MOL0     C23949   9.503  10.629   9.873  0.0601  0.0340  0.1917
  919MOL0     C23950   9.645  10.668   9.820 -0.2299  0.2375  1.0397
  919MOL0     C23951   9.649  10.660   9.662  0.6194  0.1785  0.5226
  919MOL0     C23952   9.762  10.725   9.595 -0.7164 -0.4103 -0.3169
  919MOL0     C23953   9.768  10.704   9.447  0.0075 -0.5227  1.1985
  919MOL0     O23954   9.648  10.762   9.381 -0.3431  0.4869 -0.0045
  919MOL0     C23955   9.671  10.883   9.313  0.1122 -0.3085 -0.3741
  919MOL0     C23956   9.774  10.981   9.339  0.0849  0.1072  1.3467
  919MOL0     C23957   9.778  11.100   9.283 -0.2237  0.2665  0.7709
  919MOL0     C23958   9.699  11.124   9.175  0.5274  0.4750  0.5513
  919MOL0     C23959   9.707  11.254   9.100  0.4738  0.4542 -0.6640
  919MOL0     O23960   9.624  11.275   8.995  0.4015  0.0400  0.0898
  919MOL0     C23961   9.614  11.387   8.920 -0.7213 -1.0305 -0.3257
  919MOL0     C23962   9.516  11.377   8.812  0.4616  0.1067 -0.7164
  919MOL0     C23963   9.488  11.484   8.729  0.6772  0.6514 -0.2032
  919MOL0     C23964   9.561  11.597   8.732 -0.6473  0.6639  0.7889
  919MOL0     O23965   9.508  11.696   8.651 -0.5035  0.1588  0.5479
  919MOL0     C23966   9.588  11.817   8.622 -0.2383  0.0406  0.0831
  919MOL0     C23967   9.555  11.878   8.485  0.4548 -0.6318 -0.0663
  919MOL0     C23968   9.424  11.809   8.424  0.4401 -0.6151  0.3810
  919MOL0     C23969   9.364  11.881   8.300  0.6668  1.0457 -1.0173
  919MOL0     C23970   9.450  11.867   8.165 -0.4325 -0.7016 -0.1267
  919MOL0     C23971   9.379  11.939   8.055  0.1937  1.2711  0.6708
  919MOL0     C23972   9.495  11.994   7.973 -0.0373  0.8224 -0.2235
  919MOL0     C23973   9.439  12.052   7.851  0.1456  0.0666 -0.5298
  919MOL0    Cl23974   9.294  12.162   7.876  0.1879  0.3394 -0.0511
  919MOL0     C23975   9.660  11.611   8.828 -1.2063 -0.1059 -0.1128
  919MOL0     C23976   9.685  11.506   8.930 -1.0446  0.3996 -0.3266
  919MOL0     O23977   9.807  11.318   9.126 -0.0500  0.9764  0.3412
  919MOL0     C23978   9.620  11.015   9.125 -0.2411 -0.1368  0.0599
  919MOL0     C23979   9.605  10.895   9.197  0.3639  0.0148 -1.1702
  919MOL0     N23980   9.461  10.501   9.909 -0.5143 -0.0054  1.0511
  919MOL0     N23981   9.346  10.498   9.939  0.3128 -0.0561 -0.8778
  919MOL0     C23982   9.955  10.640  10.021 -0.2357  1.1215 -0.3372
  919MOL0     C23983   9.994  10.676   9.897  0.7445 -0.4210  0.5628
  919MOL0     C23984  10.158  11.004   9.592  0.1068  0.6462  0.7642
  919MOL0     C23985  10.240  10.915   9.523 -0.4372  0.0721 -0.4203
  919MOL0     C23986  10.289  10.947   9.396  0.1695 -0.2547 -0.5187
  919MOL0     C23987  10.247  11.078   9.338 -0.3141 -0.6874 -1.3625
  919MOL0     O23988  10.286  11.122   9.215 -0.1994 -0.4373 -0.3884
  919MOL0     C23989  10.327  11.020   9.128 -0.4739 -0.4690 -0.6688
  919MOL0     C23990  10.392  11.080   8.994 -0.0647 -1.1694  0.4789
  919MOL0     C23991  10.473  10.971   8.914  0.5907 -0.1021  0.3092
  919MOL0     C23992  10.513  11.010   8.771 -0.1709  0.2991  0.0021
  919MOL0     C23993  10.389  11.022   8.686  0.1789  0.0857 -0.6076
  919MOL0     C23994  10.292  11.030   8.610 -0.6799 -0.2741 -0.5879
  919MOL0     C23995  10.166  11.162   9.412 -0.5526 -0.3588  0.0071
  919MOL0     C23996  10.114  11.124   9.534 -0.7004  0.5902  0.1797
  919MOL0     C23997  10.015  11.213   9.608  0.0282  0.4586  0.6426
  919MOL0     H23998   9.905  11.005   9.936 -2.9186  1.0520  3.5956
  919MOL0     H23999   9.823  10.928  10.140  1.9155 -0.2185  2.7296
  919MOL0     H24000   9.662  10.609  10.140 -0.8053 -2.0290  0.0530
  919MOL0     H24001   9.795  10.497  10.201  0.8501  0.5823  0.9811
  919MOL0     H24002   9.738  10.573  10.432 -0.1195 -1.5419 -0.2950
  919MOL0     H24003   9.605  10.490  10.363  0.8892 -1.1140 -1.2104
  919MOL0     H24004   9.632  10.790  10.326  0.4878 -0.3491 -0.5855
  919MOL0     H24005   9.602  10.731  10.492  0.5008  1.7025 -0.3857
  919MOL0     H24006   9.397  10.607  10.411  2.4987 -0.6958  0.9011
  919MOL0     H24007   9.382  10.784  10.424 -0.0659 -0.9802  1.4594
  919MOL0     H24008   9.420  10.810  10.178  1.4426  0.6334  2.7587
  919MOL0     H24009   9.415  10.629  10.170 -0.4230 -0.5357 -0.2413
  919MOL0     H24010   9.191  10.624  10.244 -0.3158  0.5470 -1.5283
  919MOL0     H24011   9.198  10.790  10.301  3.7727  0.3387  0.7484
  919MOL0     H24012   9.194  10.869  10.067 -0.7539  0.1869 -1.0398
  919MOL0     H24013   9.052  10.799  10.105 -0.7040 -1.2032  0.8702
  919MOL0     H24014   9.091  10.587  10.000  1.5458  0.1730  5.5518
  919MOL0     H24015   9.125  10.719   9.882  0.5090 -2.4898 -1.8479
  919MOL0     H24016   9.388  10.808   9.854 -2.0410 -0.4751 -1.6432
  919MOL0     H24017   9.676  10.768   9.850  0.6733  0.8122 -1.5213
  919MOL0     H24018   9.707  10.588   9.860 -1.1000 -0.0769  1.8006
  919MOL0     H24019   9.643  10.555   9.633 -1.3113  0.1701  0.7664
  919MOL0     H24020   9.563  10.713   9.619  0.6313 -0.3450 -0.1624
  919MOL0     H24021   9.848  10.667   9.628 -2.3703 -1.9032  1.5667
  919MOL0     H24022   9.773  10.833   9.604  1.9921 -0.3850 -2.4407
  919MOL0     H24023   9.759  10.596   9.427  1.2992 -0.3014 -0.9099
  919MOL0     H24024   9.860  10.728   9.395 -1.6087  0.0265 -1.5993
  919MOL0     H24025   9.833  10.960   9.428  0.2663  1.9095  1.6921
  919MOL0     H24026   9.850  11.169   9.324  1.0799 -0.6964  0.1785
  919MOL0     H24027   9.447  11.294   8.810 -0.3479  0.6019  1.9787
  919MOL0     H24028   9.410  11.464   8.655  2.3470  0.8813 -2.1150
  919MOL0     H24029   9.571  11.901   8.691 -2.8417  0.8677 -1.3810
  919MOL0     H24030   9.695  11.800   8.628  0.2172  2.7350  1.3903
  919MOL0     H24031   9.530  11.984   8.492 -0.6641 -0.7643 -1.6221
  919MOL0     H24032   9.643  11.872   8.421  1.5847  5.5229  0.3145
  919MOL0     H24033   9.459  11.714   8.384  3.7176 -0.1327  1.8029
  919MOL0     H24034   9.342  11.803   8.497 -1.8753 -0.4874 -2.0680
  919MOL0     H24035   9.364  11.988   8.322 -1.9986  0.3384  4.0434
  919MOL0     H24036   9.262  11.842   8.288  0.3237  2.1717 -1.9810
  919MOL0     H24037   9.463  11.761   8.141 -1.9653 -1.2258  1.1833
  919MOL0     H24038   9.540  11.922   8.190 -2.3326  1.3584  2.8033
  919MOL0     H24039   9.314  11.866   8.006 -2.7549  3.0232  1.6955
  919MOL0     H24040   9.309  12.013   8.095  0.0345  0.0161  2.8388
  919MOL0     H24041   9.560  11.908   7.955  0.1461  1.4448 -2.7930
  919MOL0     H24042   9.550  12.072   8.027  2.1219 -1.4031  1.0669
  919MOL0     H24043   9.515  12.107   7.794  1.4074 -2.5585 -1.5674
  919MOL0     H24044   9.404  11.966   7.793 -0.0942 -1.7532  2.1553
  919MOL0     H24045   9.721  11.700   8.836 -2.5593  1.2603 -3.2138
  919MOL0     H24046   9.762  11.519   9.005 -2.0493 -0.6568  0.9369
  919MOL0     H24047   9.562  11.030   9.035 -1.0927 -0.2855  0.5662
  919MOL0     H24048   9.533  10.817   9.170  1.2452 -1.2219 -0.0836
  919MOL0     H24049   9.954  10.537  10.054 -3.4581  0.1361 -3.0109
  919MOL0     H24050  10.033  10.605   9.825 -0.3848  1.0990 -1.6614
  919MOL0     H24051  10.275  10.821   9.564 -0.4855  1.2721  2.6114
  919MOL0     H24052  10.363  10.882   9.351  0.6511 -0.4111  0.4728
  919MOL0     H24053  10.235  10.967   9.103 -2.0674  1.8579 -0.0109
  919MOL0     H24054  10.409  10.956   9.162  2.6155  1.3890 -3.9243
  919MOL0     H24055  10.474  11.148   9.019  0.9544 -1.0156 -2.7955
  919MOL0     H24056  10.316  11.130   8.933 -0.0406 -1.3289  0.3168
  919MOL0     H24057  10.419  10.877   8.898  1.6598 -0.3302 -2.5445
  919MOL0     H24058  10.562  10.942   8.972  0.5454 -1.9171 -0.4524
  919MOL0     H24059  10.564  11.103   8.799 -1.3285 -0.0956  4.2050
  919MOL0     H24060  10.576  10.939   8.717 -0.1432  0.8105 -0.6390
  919MOL0     H24061  10.207  11.059   8.552 -0.8935  1.7094  0.6294
  919MOL0     H24062  10.130  11.256   9.370  0.3207  0.0142  0.0676
  919MOL0     H24063  10.053  11.221   9.710 -1.3032 -1.8245  1.4007
  919MOL0     H24064  10.002  11.314   9.568  4.1792  0.5834 -0.8333
  919MOL0     H24065   9.916  11.166   9.603 -0.8058  1.5805  3.8501
  920MOL0     O24066   6.254   9.935   7.911  0.3001  0.1684  0.1900
  920MOL0     C24067   6.144   9.981   7.870  0.3743 -0.1062  0.1279
  920MOL0     O24068   6.025   9.934   7.919 -0.3941 -0.1892 -0.3166
  920MOL0     C24069   6.012   9.867   8.039 -0.2658  0.5584 -0.1357
  920MOL0     C24070   5.929   9.765   8.056 -0.9065  0.2224 -0.5890
  920MOL0     C24071   5.927   9.688   8.173 -0.6438  0.1727 -0.1645
  920MOL0     C24072   6.001   9.730   8.285 -1.0193 -0.3620 -0.0588
  920MOL0     O24073   6.015   9.663   8.407  0.2275 -0.1418 -0.2140
  920MOL0     C24074   5.957   9.537   8.426 -0.2844  0.1590 -0.5365
  920MOL0     C24075   5.962   9.495   8.571  0.3137 -0.4172 -0.9486
  920MOL0     C24076   5.888   9.356   8.605  0.1062  0.7096  0.6485
  920MOL0     C24077   5.918   9.309   8.747 -0.6131  0.3318  0.4026
  920MOL0     C24078   5.858   9.392   8.859  0.9488 -0.0475  0.0384
  920MOL0     C24079   5.856   9.326   8.994  0.4851  0.4852 -0.1761
  920MOL0     C24080   5.790   9.422   9.105 -0.2425  0.5182  0.3433
  920MOL0     C24081   5.809   9.345   9.232 -0.2508 -0.3548 -0.1317
  920MOL0     N24082   5.697   9.367   9.333 -0.3195 -0.6002  0.3550
  920MOL0     C24083   5.572   9.310   9.336 -0.2474 -0.3048 -1.0471
  920MOL0     C24084   5.519   9.355   9.449  0.7605  0.1177  0.1839
  920MOL0     C24085   5.376   9.328   9.506 -0.2494  0.3129  0.1279
  920MOL0     C24086   5.359   9.200   9.570  0.0503 -1.3128 -0.6474
  920MOL0     C24087   5.212   9.165   9.585  0.5350 -0.0170 -0.1855
  920MOL0     C24088   5.187   9.079   9.708 -0.0232 -0.7327 -0.4593
  920MOL0     O24089   5.227   9.154   9.827  0.6943 -0.5897  0.0383
  920MOL0     C24090   5.334   9.123   9.911 -0.1713  1.1902  0.7736
  920MOL0     C24091   5.342   8.992   9.962 -1.1366 -0.1567 -0.3031
  920MOL0     C24092   5.447   8.954  10.048  0.5168 -0.6051 -0.2401
  920MOL0     C24093   5.544   9.044  10.080  0.0139 -0.7340  0.0896
  920MOL0     C24094   5.649   9.018  10.179 -0.4025  0.5975 -0.8001
  920MOL0     O24095   5.708   8.889  10.192  0.2130 -0.3290  0.1141
  920MOL0     C24096   5.748   8.863  10.324  0.1697 -0.5585  0.4513
  920MOL0     C24097   5.882   8.865  10.368  0.3820 -0.4732  1.0360
  920MOL0     C24098   5.922   8.818  10.497 -0.5833  0.8514  0.0526
  920MOL0     C24099   5.824   8.778  10.587  0.2614 -0.0661  0.3248
  920MOL0     O24100   5.855   8.758  10.721  0.1418  0.4616  0.4090
  920MOL0     C24101   5.848   8.623  10.748  0.0202 -0.1730  0.0701
  920MOL0     C24102   5.938   8.601  10.868  0.4133  0.7537  0.0106
  920MOL0     C24103   5.920   8.451  10.916 -0.8012  0.6580 -0.3525
  920MOL0     C24104   6.004   8.344  10.839  0.6858 -0.3764  0.9385
  920MOL0     C24105   5.967   8.202  10.866  0.1154 -0.8096  0.0175
  920MOL0     C24106   6.010   8.156  11.004 -0.9554  0.2158  0.1360
  920MOL0     C24107   5.935   8.030  11.049  0.1260 -0.0139  0.0102
  920MOL0     C24108   5.983   7.959  11.176  0.3618 -0.9189 -0.3276
  920MOL0    Cl24109   5.966   8.057  11.331 -0.4864 -0.3251 -0.0825
  920MOL0     C24110   5.689   8.775  10.546  0.4011 -0.4198  0.0712
  920MOL0     C24111   5.648   8.821  10.416 -0.0484  0.5319 -0.1450
  920MOL0     O24112   5.673   9.108  10.262 -0.9333 -1.1404  1.2334
  920MOL0     C24113   5.541   9.179  10.021  1.0794 -0.9701  0.3787
  920MOL0     C24114   5.436   9.220   9.937 -0.8236 -0.1416  0.7727
  920MOL0     N24115   5.607   9.435   9.515  0.4804 -0.3186  0.3899
  920MOL0     N24116   5.711   9.449   9.446  0.1941  0.3913 -0.4300
  920MOL0     C24117   6.072   9.846   8.273 -0.2088 -0.5378 -0.0932
  920MOL0     C24118   6.077   9.916   8.154 -0.3766 -0.6488 -0.3222
  920MOL0     C24119   6.128  10.090   7.768  0.0070  0.6265 -0.1849
  920MOL0     C24120   6.011  10.127   7.705 -0.0974  0.4534  0.3676
  920MOL0     C24121   6.001  10.233   7.609 -0.1186  0.0541 -0.0320
  920MOL0     C24122   6.113  10.318   7.593 -0.1571  0.5891 -0.0306
  920MOL0     O24123   6.092  10.440   7.537 -0.1833 -0.1778 -0.2445
  920MOL0     C24124   6.076  10.551   7.628 -0.3095 -0.6641  0.6263
  920MOL0     C24125   6.018  10.677   7.564 -0.4743 -0.4814  0.3592
  920MOL0     C24126   5.997  10.784   7.661  0.6577 -1.2323  0.8073
  920MOL0     C24127   5.860  10.847   7.629 -1.0687 -0.8672 -0.1336
  920MOL0     C24128   5.744  10.759   7.661 -0.1588 -0.0931 -0.2899
  920MOL0     C24129   5.637  10.722   7.699  0.3498 -0.1998 -0.2708
  920MOL0     C24130   6.236  10.278   7.644  0.0579  0.8401 -0.1289
  920MOL0     C24131   6.247  10.157   7.716 -0.0193 -0.0840 -0.6692
  920MOL0     C24132   6.394  10.127   7.757  0.0379 -0.2835  0.4610
  920MOL0     H24133   5.883   9.717   7.970  0.7409 -0.0438 -1.3545
  920MOL0     H24134   5.859   9.604   8.180  2.1019 -2.0236  3.1613
  920MOL0     H24135   5.855   9.536   8.387 -1.3347 -0.2819  2.0385
  920MOL0     H24136   6.018   9.462   8.375 -0.3835 -0.4574  0.2414
  920MOL0     H24137   5.901   9.564   8.631  0.4560 -2.4639  1.7860
  920MOL0     H24138   6.065   9.510   8.603 -0.1587  0.2684  0.3401
  920MOL0     H24139   5.933   9.287   8.533  2.1439  0.2105  2.3296
  920MOL0     H24140   5.779   9.357   8.589 -0.4815 -0.1624  3.9274
  920MOL0     H24141   5.882   9.206   8.757  2.6028 -1.1455 -1.6923
  920MOL0     H24142   6.025   9.324   8.758 -0.5455 -1.3075  2.4909
  920MOL0     H24143   5.918   9.483   8.873 -0.9850  2.0280 -3.5922
  920MOL0     H24144   5.751   9.414   8.847  0.0338 -1.6322  3.8966
  920MOL0     H24145   5.789   9.239   9.000 -1.1346  1.7383  0.5521
  920MOL0     H24146   5.961   9.305   9.015  0.7423  0.1604 -1.7000
  920MOL0     H24147   5.684   9.452   9.103  0.0335  1.5296 -0.3331
  920MOL0     H24148   5.845   9.516   9.121 -1.7349  1.4122  0.4511
  920MOL0     H24149   5.813   9.238   9.208  1.7196  0.1338 -2.3246
  920MOL0     H24150   5.904   9.377   9.277 -0.0807  1.0078 -1.3958
  920MOL0     H24151   5.523   9.246   9.263 -1.5559 -0.1260 -0.3566
  920MOL0     H24152   5.352   9.411   9.573 -1.5577  0.6890 -0.7723
  920MOL0     H24153   5.318   9.326   9.413 -1.3144  0.0006  0.7840
  920MOL0     H24154   5.410   9.123   9.511  1.5184 -0.3364 -0.6884
  920MOL0     H24155   5.406   9.204   9.668  0.1737 -1.4467 -0.7003
  920MOL0     H24156   5.187   9.098   9.502 -0.1086 -0.8388  0.6632
  920MOL0     H24157   5.145   9.251   9.574 -0.6737 -1.2373 -3.3445
  920MOL0     H24158   5.248   8.989   9.696 -0.1844 -0.7625 -1.1064
  920MOL0     H24159   5.084   9.044   9.722  0.9991 -2.9304  2.8682
  920MOL0     H24160   5.267   8.915   9.946  0.0287 -1.7485  1.5647
  920MOL0     H24161   5.437   8.855  10.092 -0.5114  0.1813  1.3743
  920MOL0     H24162   5.944   8.916  10.296  0.3123  0.2871  1.5095
  920MOL0     H24163   6.026   8.828  10.525 -0.1052 -0.5656 -1.0950
  920MOL0     H24164   5.750   8.579  10.764  0.1363 -0.5458 -0.2412
  920MOL0     H24165   5.896   8.564  10.669  1.4855 -4.5626  3.8447
  920MOL0     H24166   6.043   8.621  10.843  0.4946  1.3943  0.7897
  920MOL0     H24167   5.920   8.653  10.963  0.0324 -1.8368  1.4535
  920MOL0     H24168   5.963   8.452  11.016  0.4703 -3.7347 -0.6201
  920MOL0     H24169   5.818   8.421  10.938 -0.4063  0.0819  0.7580
  920MOL0     H24170   6.112   8.356  10.851  1.0285 -3.0602  1.1823
  920MOL0     H24171   5.993   8.369  10.733  4.8561  0.1452  0.4899
  920MOL0     H24172   6.004   8.129  10.794 -1.3146 -0.9474 -0.6218
  920MOL0     H24173   5.858   8.200  10.857  0.1198  1.9019 -2.1526
  920MOL0     H24174   6.115   8.126  10.994 -0.9483  0.9123 -3.4087
  920MOL0     H24175   6.000   8.239  11.074  0.6231 -0.3861  1.1217
  920MOL0     H24176   5.931   7.954  10.970 -3.5827 -1.9418  1.7863
  920MOL0     H24177   5.830   8.050  11.073  0.6218  0.7592  1.6897
  920MOL0     H24178   5.931   7.862  11.177 -1.3411 -0.0441 -0.7878
  920MOL0     H24179   6.086   7.937  11.148 -0.0326 -2.0178 -1.0168
  920MOL0     H24180   5.623   8.744  10.627 -0.2415  0.9298  0.0992
  920MOL0     H24181   5.543   8.831  10.389 -0.8414  2.7380  3.1392
  920MOL0     H24182   5.603   9.261  10.055 -5.7146  6.1290 -1.2522
  920MOL0     H24183   5.439   9.317   9.887 -2.2089 -0.3256  0.2803
  920MOL0     H24184   6.128   9.881   8.360  1.1896  1.4720 -1.7094
  920MOL0     H24185   6.120  10.013   8.136  0.9873 -1.1652  0.0229
  920MOL0     H24186   5.921  10.075   7.735 -0.8047  2.4945  1.9815
  920MOL0     H24187   5.904  10.259   7.567 -0.3456  2.0106  1.5346
  920MOL0     H24188   6.172  10.579   7.672  1.0029 -0.4431 -2.1782
  920MOL0     H24189   6.010  10.498   7.697  1.3461 -3.6347  0.1112
  920MOL0     H24190   5.924  10.649   7.516  0.0725 -1.4327 -0.1769
  920MOL0     H24191   6.083  10.727   7.492 -1.1445  2.6029  1.7420
  920MOL0     H24192   6.077  10.858   7.661 -0.4597  0.0954 -1.5399
  920MOL0     H24193   5.991  10.742   7.762  2.0054  0.0252  1.4602
  920MOL0     H24194   5.852  10.930   7.700  0.9745  0.2205 -1.0867
  920MOL0     H24195   5.856  10.889   7.528 -0.7385  1.6616  0.8446
  920MOL0     H24196   5.544  10.675   7.725  1.2273 -1.5317  0.6212
  920MOL0     H24197   6.327  10.330   7.617  1.1291  0.4073  2.3913
  920MOL0     H24198   6.469  10.160   7.685  1.6395 -2.1537  1.1979
  920MOL0     H24199   6.423  10.171   7.853  2.0712  1.0308 -0.6890
  920MOL0     H24200   6.421  10.021   7.758  1.8329  0.1345 -0.4165
  921MOL0     O24201   3.316  11.331   8.757  0.3079 -0.1904 -0.7333
  921MOL0     C24202   3.308  11.231   8.823  0.3248 -0.1771 -1.2125
  921MOL0     O24203   3.337  11.103   8.778 -0.2466  0.1824 -0.1036
  921MOL0     C24204   3.422  11.097   8.671 -0.1421  0.1622  0.9697
  921MOL0     C24205   3.555  11.138   8.692 -0.0049  0.8502 -0.4449
  921MOL0     C24206   3.653  11.136   8.584  0.1933  0.4175  0.4030
  921MOL0     C24207   3.613  11.107   8.454 -0.5321  0.1172 -0.1130
  921MOL0     O24208   3.695  11.096   8.347 -0.2415  0.4487  0.4355
  921MOL0     C24209   3.797  10.998   8.367 -0.1926 -0.0355  0.1366
  921MOL0     C24210   3.759  10.862   8.311 -0.1220 -0.4340  0.4553
  921MOL0     C24211   3.879  10.760   8.323  0.7227  0.4733  0.3330
  921MOL0     C24212   3.959  10.766   8.193  0.2626 -0.4132  0.2202
  921MOL0     C24213   4.046  10.650   8.171 -0.4067 -0.8640 -1.0185
  921MOL0     C24214   4.193  10.686   8.154  0.8705  0.3901 -0.4635
  921MOL0     C24215   4.238  10.765   8.037 -0.1539  0.0794  0.3838
  921MOL0     C24216   4.188  10.710   7.912 -0.1546  0.1911 -0.9212
  921MOL0     N24217   4.237  10.572   7.883  1.0357  0.6476  0.5479
  921MOL0     C24218   4.190  10.450   7.914 -0.6731 -0.7650  0.1518
  921MOL0     C24219   4.293  10.365   7.895 -0.0149 -0.3014 -0.2670
  921MOL0     C24220   4.287  10.221   7.929  0.5891  0.0808  0.1331
  921MOL0     C24221   4.397  10.193   8.032 -0.6383  0.9618 -0.2833
  921MOL0     C24222   4.408  10.044   8.060 -0.0994  0.0556  0.7378
  921MOL0     C24223   4.551  10.017   8.107  1.1023  0.6348  0.2945
  921MOL0     O24224   4.565  10.063   8.241 -0.3545 -0.2268  0.1005
  921MOL0     C24225   4.565   9.965   8.335 -0.0193  1.4838 -0.0782
  921MOL0     C24226   4.509   9.835   8.316 -0.6919 -0.6272  0.5681
  921MOL0     C24227   4.549   9.730   8.395  0.8532 -0.0403 -0.0990
  921MOL0     C24228   4.622   9.747   8.510 -0.0638  1.3423 -0.2878
  921MOL0     C24229   4.649   9.634   8.603  0.4511  0.1003  0.5817
  921MOL0     O24230   4.568   9.521   8.597  0.0888 -0.7542 -0.2661
  921MOL0     C24231   4.600   9.413   8.675  0.4905 -0.4195  0.2533
  921MOL0     C24232   4.725   9.372   8.716 -0.5417  0.3636 -0.3539
  921MOL0     C24233   4.750   9.253   8.792  0.4375 -0.2373 -0.0956
  921MOL0     C24234   4.645   9.163   8.832  1.2011  0.6705 -0.0398
  921MOL0     O24235   4.651   9.049   8.903  0.0253 -0.6326  0.5315
  921MOL0     C24236   4.776   8.987   8.919  0.1063  0.0060 -0.2490
  921MOL0     C24237   4.763   8.831   8.959 -0.2460  0.5493  0.3540
  921MOL0     C24238   4.711   8.803   9.104  0.3480 -0.0183 -1.0983
  921MOL0     C24239   4.690   8.651   9.136 -0.3650  0.9237 -0.6050
  921MOL0     C24240   4.625   8.635   9.280 -0.7307 -0.0261  0.2952
  921MOL0     C24241   4.614   8.487   9.314  0.0263  1.1525 -0.1973
  921MOL0     C24242   4.586   8.462   9.465  0.1035 -0.6122  0.3068
  921MOL0     C24243   4.467   8.542   9.527 -0.2455 -0.2743 -0.1461
  921MOL0    Cl24244   4.486   8.719   9.537  0.5263 -0.1157  0.1803
  921MOL0     C24245   4.518   9.211   8.786  0.8867 -0.0278  0.5991
  921MOL0     C24246   4.499   9.318   8.694 -0.5416 -0.1788  0.4170
  921MOL0     O24247   4.746   9.656   8.676  0.0939 -0.0627 -1.1515
  921MOL0     C24248   4.681   9.875   8.536 -0.6052 -0.9431  0.2247
  921MOL0     C24249   4.648   9.982   8.439 -0.0296  0.2038 -0.2779
  921MOL0     N24250   4.395  10.433   7.832  0.2132  0.9252  0.1733
  921MOL0     N24251   4.362  10.556   7.815  0.5836 -0.1947 -1.4611
  921MOL0     C24252   3.477  11.088   8.433 -0.6224  0.1329 -0.0593
  921MOL0     C24253   3.386  11.079   8.539  0.4664 -0.6060  0.6102
  921MOL0     C24254   3.240  11.238   8.954  0.2342  0.2465  1.3051
  921MOL0     C24255   3.220  11.119   9.023  0.3897  0.4073  0.4311
  921MOL0     C24256   3.172  11.106   9.151  0.1387  0.5387 -0.0510
  921MOL0     C24257   3.142  11.217   9.224  0.7718  0.4290 -0.1305
  921MOL0     O24258   3.083  11.227   9.347  1.0908 -0.2547  0.0037
  921MOL0     C24259   3.054  11.109   9.434  0.3141 -0.9183  0.1660
  921MOL0     C24260   2.980  11.155   9.559  0.0764  0.4427 -0.2427
  921MOL0     C24261   2.839  11.208   9.538 -0.0485 -0.3336 -0.5709
  921MOL0     C24262   2.766  11.217   9.674  0.4231  0.4299  0.0650
  921MOL0     C24263   2.716  11.079   9.707  0.8908 -0.5678 -0.5639
  921MOL0     C24264   2.667  10.968   9.729  0.1939  0.4357  0.2167
  921MOL0     C24265   3.156  11.345   9.156  0.9620  0.4980  0.4334
  921MOL0     C24266   3.208  11.361   9.024 -0.2076 -0.7582  0.7688
  921MOL0     C24267   3.216  11.498   8.962  0.1570 -0.6442  0.0146
  921MOL0     H24268   3.586  11.136   8.796 -1.7414  2.3246  0.1502
  921MOL0     H24269   3.760  11.151   8.594  1.4453 -4.0758 -2.6805
  921MOL0     H24270   3.864  11.036   8.289 -1.0235  1.7249  0.2271
  921MOL0     H24271   3.847  11.000   8.464 -0.3255 -1.0432  0.2287
  921MOL0     H24272   3.717  10.882   8.212  0.0668 -2.1618 -0.0046
  921MOL0     H24273   3.678  10.824   8.374 -3.2382  2.9158 -1.0963
  921MOL0     H24274   3.834  10.660   8.321  0.9494  0.3788 -0.9106
  921MOL0     H24275   3.939  10.775   8.414  1.6732 -2.6025  0.3345
  921MOL0     H24276   3.893  10.782   8.107 -0.2862  0.9114  0.8496
  921MOL0     H24277   4.014  10.861   8.193 -0.5330  0.1295 -2.3782
  921MOL0     H24278   4.034  10.571   8.247  2.7159 -0.5904 -0.1181
  921MOL0     H24279   4.025  10.601   8.075 -2.0165 -0.7017 -0.7819
  921MOL0     H24280   4.224  10.739   8.244  2.4513 -2.2851  0.6666
  921MOL0     H24281   4.248  10.592   8.152  1.9142  0.9796 -2.7705
  921MOL0     H24282   4.347  10.769   8.035 -0.0951 -0.0194  2.1646
  921MOL0     H24283   4.194  10.865   8.050 -4.4071 -1.4323 -0.7493
  921MOL0     H24284   4.082  10.705   7.886 -0.6263 -3.4519  1.0559
  921MOL0     H24285   4.231  10.768   7.830  3.3671 -0.5611  0.2195
  921MOL0     H24286   4.092  10.446   7.962  1.1052 -0.6137  4.1258
  921MOL0     H24287   4.188  10.193   7.965  1.2862  0.4369  2.4832
  921MOL0     H24288   4.324  10.170   7.839  3.4196 -1.0477  1.7810
  921MOL0     H24289   4.495  10.234   8.006  0.4500  0.4378  2.5275
  921MOL0     H24290   4.367  10.248   8.122  1.2184  0.2813  0.8201
  921MOL0     H24291   4.401   9.989   7.966 -0.4640 -1.3850  1.5786
  921MOL0     H24292   4.337  10.019   8.139  0.5480 -2.6307  0.5631
  921MOL0     H24293   4.636  10.071   8.065  0.9336  0.6554 -0.0230
  921MOL0     H24294   4.575   9.911   8.092 -1.2356  0.0952 -0.0781
  921MOL0     H24295   4.452   9.823   8.224  1.4383 -3.4091 -0.5358
  921MOL0     H24296   4.503   9.638   8.360  1.4886 -0.3944 -0.0270
  921MOL0     H24297   4.812   9.422   8.674 -1.1656  1.7268 -0.0823
  921MOL0     H24298   4.855   9.240   8.813  0.8709  1.1633 -1.2635
  921MOL0     H24299   4.835   8.992   8.826  3.3819 -1.8300  1.5250
  921MOL0     H24300   4.842   9.047   8.983  1.8976 -2.0996 -0.0219
  921MOL0     H24301   4.701   8.775   8.888  2.7967 -1.6916 -0.7571
  921MOL0     H24302   4.862   8.785   8.959 -0.8240 -0.7519 -0.1335
  921MOL0     H24303   4.784   8.840   9.177 -1.0916  0.3239  0.2083
  921MOL0     H24304   4.622   8.863   9.118  0.8623  0.2437  1.6410
  921MOL0     H24305   4.785   8.600   9.149 -1.4958 -1.6512 -1.8492
  921MOL0     H24306   4.633   8.601   9.058  1.9075 -2.6080 -0.2345
  921MOL0     H24307   4.530   8.688   9.273 -0.3529  0.5505 -0.6169
  921MOL0     H24308   4.694   8.671   9.357 -0.9689 -2.2906  1.6740
  921MOL0     H24309   4.535   8.439   9.256  1.0264 -1.7486  0.6996
  921MOL0     H24310   4.711   8.447   9.284  0.0723  1.8731 -1.0365
  921MOL0     H24311   4.670   8.493   9.528  0.3624  4.6526 -2.1034
  921MOL0     H24312   4.566   8.357   9.486 -4.3852  0.0369  0.2838
  921MOL0     H24313   4.374   8.516   9.474  1.6688  0.1306 -4.1088
  921MOL0     H24314   4.471   8.513   9.632  2.7726  0.8077  0.1186
  921MOL0     H24315   4.434   9.150   8.813  0.7014 -0.8983 -1.6916
  921MOL0     H24316   4.407   9.336   8.638 -0.6210  0.6333  0.7866
  921MOL0     H24317   4.724   9.882   8.636 -2.0377 -2.9390  1.0397
  921MOL0     H24318   4.704  10.074   8.448  4.6737 -2.3896  0.2658
  921MOL0     H24319   3.441  11.088   8.331  0.1271 -1.2143 -0.3438
  921MOL0     H24320   3.287  11.056   8.501  1.5726 -1.7934 -1.8423
  921MOL0     H24321   3.249  11.028   8.971 -2.4431  1.3195 -3.1900
  921MOL0     H24322   3.152  11.005   9.186 -0.4261 -0.0789 -2.0252
  921MOL0     H24323   3.154  11.073   9.458 -0.4551 -1.4419  2.9091
  921MOL0     H24324   3.005  11.033   9.373  3.6291 -0.6230 -3.2836
  921MOL0     H24325   3.042  11.225   9.616 -0.8571 -1.3488  3.3131
  921MOL0     H24326   2.976  11.066   9.623  1.1890  2.0725  2.2588
  921MOL0     H24327   2.766  11.162   9.470 -0.0086 -1.7136  0.2897
  921MOL0     H24328   2.854  11.304   9.486 -0.2154 -1.2503 -2.3898
  921MOL0     H24329   2.818  11.256   9.762 -0.9933  0.9124  0.7138
  921MOL0     H24330   2.681  11.284   9.659 -1.4774 -2.3712 -3.0189
  921MOL0     H24331   2.613  10.876   9.739 -0.7139  0.7678 -1.3814
  921MOL0     H24332   3.114  11.428   9.211  2.3817  1.8593 -0.4844
  921MOL0     H24333   3.320  11.530   8.953  0.1433 -0.7870 -0.8134
  921MOL0     H24334   3.164  11.495   8.865 -0.4474  0.8336  0.2660
  921MOL0     H24335   3.158  11.571   9.020 -2.9222 -1.5187 -1.6780
  922MOL0     O24336  11.398   7.481   7.447  0.2671  0.7762  0.0456
  922MOL0     C24337  11.412   7.416   7.341  0.6848 -0.2518  0.2711
  922MOL0     O24338  11.360   7.451   7.217  0.0058  0.4199 -0.4686
  922MOL0     C24339  11.292   7.575   7.191  0.9825 -0.4516 -0.0519
  922MOL0     C24340  11.364   7.686   7.161  0.1027  0.4568  0.2915
  922MOL0     C24341  11.306   7.805   7.132 -0.1311 -0.3910  0.4203
  922MOL0     C24342  11.166   7.807   7.126 -0.1391 -0.0751 -0.7183
  922MOL0     O24343  11.117   7.942   7.096 -0.3120 -0.6307 -0.0326
  922MOL0     C24344  11.011   7.989   7.175 -0.1614  0.1309 -1.1037
  922MOL0     C24345  10.971   8.118   7.138 -0.7922  0.9423  0.4086
  922MOL0     C24346  10.834   8.139   7.051  0.5826 -0.4022 -0.8453
  922MOL0     C24347  10.749   8.249   7.119  0.5011  1.7053  0.4073
  922MOL0     C24348  10.804   8.381   7.082 -0.2460  0.1396  0.1732
  922MOL0     C24349  10.736   8.500   7.146 -0.7148  0.2834  0.5029
  922MOL0     C24350  10.824   8.627   7.144  0.3748  1.3306  0.1442
  922MOL0     C24351  10.827   8.699   7.003 -0.3476  0.8480 -0.0327
  922MOL0     N24352  10.704   8.755   6.952 -0.1539 -0.2003  0.2018
  922MOL0     C24353  10.669   8.883   6.925  0.1672  0.4393  0.0541
  922MOL0     C24354  10.539   8.889   6.871 -0.9595  0.2404 -0.6480
  922MOL0     C24355  10.461   9.021   6.851 -0.1583  0.8595 -0.5971
  922MOL0     C24356  10.475   9.068   6.705 -0.5883  0.1086 -0.7023
  922MOL0     C24357  10.601   9.160   6.690  0.1044  0.7986  0.7630
  922MOL0     C24358  10.716   9.076   6.629  0.5664 -0.1801  0.4081
  922MOL0     O24359  10.832   9.162   6.654 -0.0632  0.0858 -0.3034
  922MOL0     C24360  10.947   9.134   6.584  0.3835  0.2469 -0.3322
  922MOL0     C24361  10.958   9.028   6.494 -0.9831  0.0322  0.0292
  922MOL0     C24362  11.095   9.003   6.459  0.7280  0.3834 -0.3726
  922MOL0     C24363  11.209   9.086   6.498  0.0022  0.2718 -0.2393
  922MOL0     C24364  11.336   9.045   6.435  0.1661 -1.3825 -0.3264
  922MOL0     O24365  11.332   8.982   6.309 -0.2963  0.3681 -0.2368
  922MOL0     C24366  11.451   8.981   6.243 -1.1816  0.0163 -0.5485
  922MOL0     C24367  11.502   9.090   6.173  0.1052 -0.1016 -0.4866
  922MOL0     C24368  11.620   9.082   6.105 -0.5291  0.2097  0.5537
  922MOL0     C24369  11.691   8.958   6.090  0.6365 -0.1156  0.8535
  922MOL0     O24370  11.811   8.951   6.024  0.1957  0.7148  0.4806
  922MOL0     C24371  11.774   8.945   5.894  1.1130  1.0998 -0.2111
  922MOL0     C24372  11.909   8.944   5.815  0.6341 -0.2761  0.5476
  922MOL0     C24373  11.884   8.907   5.670  0.0560 -0.0954 -0.5885
  922MOL0     C24374  12.009   8.927   5.579  0.4343 -0.2242 -0.3838
  922MOL0     C24375  12.046   9.077   5.558  0.0119  0.2802  0.7398
  922MOL0     C24376  12.153   9.078   5.445 -0.9671  0.5580  0.9919
  922MOL0     C24377  12.287   9.025   5.502 -0.6387  0.3415 -0.1950
  922MOL0     C24378  12.360   8.923   5.414  0.0420 -0.7542  0.1900
  922MOL0    Cl24379  12.258   8.775   5.415 -0.1859  0.0883  0.0444
  922MOL0     C24380  11.633   8.849   6.153 -0.3548  0.1211 -0.5004
  922MOL0     C24381  11.521   8.856   6.240  0.1847 -0.2645  0.4664
  922MOL0     O24382  11.437   9.080   6.491 -0.3487  0.4695  0.5607
  922MOL0     C24383  11.188   9.196   6.580 -0.0450 -0.4324  0.3756
  922MOL0     C24384  11.050   9.214   6.625 -0.0247 -0.7701  0.0803
  922MOL0     N24385  10.508   8.746   6.870 -0.6569 -0.0068  0.1836
  922MOL0     N24386  10.593   8.679   6.921  0.2922 -0.2379  0.6147
  922MOL0     C24387  11.087   7.691   7.147 -0.6720 -0.0936  0.4549
  922MOL0     C24388  11.152   7.570   7.175  0.3405 -1.2669 -0.3973
  922MOL0     C24389  11.473   7.280   7.353  0.0761 -0.7124  0.2376
  922MOL0     C24390  11.391   7.167   7.331  0.1709 -0.2107 -1.0567
  922MOL0     C24391  11.443   7.044   7.336 -0.2406 -0.7992  0.7422
  922MOL0     C24392  11.570   7.015   7.385  0.4516  0.5780 -0.5591
  922MOL0     O24393  11.616   6.888   7.394 -1.6652  0.5898 -0.3307
  922MOL0     C24394  11.757   6.874   7.371 -0.6466  0.5056 -0.1476
  922MOL0     C24395  11.825   6.830   7.500 -0.0775 -0.8618  0.3959
  922MOL0     C24396  11.766   6.703   7.566  0.8860 -0.5296 -0.6936
  922MOL0     C24397  11.732   6.571   7.491  0.0912  0.6940  0.2133
  922MOL0     C24398  11.853   6.497   7.444  0.6255  0.7417  1.0005
  922MOL0     C24399  11.957   6.448   7.409 -0.6043 -0.3863  0.6805
  922MOL0     C24400  11.649   7.130   7.420  0.2056  0.9498 -0.6902
  922MOL0     C24401  11.606   7.260   7.398  0.0369 -0.6143 -0.7422
  922MOL0     C24402  11.695   7.376   7.425 -0.6771  1.1337 -0.7880
  922MOL0     H24403  11.472   7.685   7.149  0.0997  0.3340  0.2789
  922MOL0     H24404  11.360   7.891   7.092 -1.7997 -1.1115 -3.9080
  922MOL0     H24405  10.923   7.923   7.174  1.2170 -2.0921  2.4878
  922MOL0     H24406  11.048   7.979   7.278  2.2978 -1.5075 -2.0607
  922MOL0     H24407  11.043   8.162   7.068 -1.5476  0.6703 -0.5647
  922MOL0     H24408  10.978   8.182   7.226  0.8107  1.6352 -0.1931
  922MOL0     H24409  10.766   8.054   7.045  0.0036 -0.1090  1.1338
  922MOL0     H24410  10.861   8.169   6.949  0.9527  0.8180 -0.4172
  922MOL0     H24411  10.645   8.246   7.087  0.3308 -3.2604  0.7408
  922MOL0     H24412  10.742   8.247   7.228 -2.3255 -1.0619  0.3077
  922MOL0     H24413  10.912   8.389   7.101  0.9313 -1.3689 -4.6621
  922MOL0     H24414  10.789   8.396   6.975  1.9146 -0.9426 -0.3334
  922MOL0     H24415  10.637   8.528   7.110  0.6804 -0.1951 -4.3454
  922MOL0     H24416  10.737   8.466   7.250 -2.3079  1.2949  0.8847
  922MOL0     H24417  10.924   8.593   7.171 -0.0606  0.7209  1.0425
  922MOL0     H24418  10.791   8.705   7.212 -0.1255  1.3491 -0.1108
  922MOL0     H24419  10.913   8.767   7.008  0.5159 -0.3179  1.8055
  922MOL0     H24420  10.856   8.624   6.929 -0.5744 -0.4628  1.1778
  922MOL0     H24421  10.727   8.965   6.967  2.8887 -0.4995 -1.5669
  922MOL0     H24422  10.355   9.005   6.875 -0.0336  0.6038 -0.2062
  922MOL0     H24423  10.493   9.099   6.922 -0.1860  1.2913 -1.0527
  922MOL0     H24424  10.466   8.991   6.629 -3.4136 -1.3391  0.9434
  922MOL0     H24425  10.389   9.130   6.678  0.1591  0.0516 -3.5632
  922MOL0     H24426  10.635   9.183   6.791  0.5967 -3.0630  1.6051
  922MOL0     H24427  10.587   9.247   6.625  1.8156  0.0846 -0.6621
  922MOL0     H24428  10.702   9.070   6.520  1.6433 -0.8275  0.2922
  922MOL0     H24429  10.719   8.975   6.672  1.5212  0.2129  1.2769
  922MOL0     H24430  10.869   8.971   6.467 -2.2182  2.0451 -0.3695
  922MOL0     H24431  11.108   8.915   6.397  2.6007  1.0158 -0.9481
  922MOL0     H24432  11.437   9.177   6.176  1.6957  1.1168 -0.6106
  922MOL0     H24433  11.675   9.154   6.046  1.6030 -1.0453  0.8780
  922MOL0     H24434  11.725   8.852   5.865  3.7826 -0.3658 -0.3176
  922MOL0     H24435  11.715   9.033   5.865  2.4640  2.8996  2.1102
  922MOL0     H24436  11.951   9.045   5.826 -1.4270  0.6128  0.7327
  922MOL0     H24437  11.978   8.869   5.855 -0.9501 -1.8478  0.3970
  922MOL0     H24438  11.862   8.800   5.670 -3.2063  0.4711 -0.4560
  922MOL0     H24439  11.798   8.960   5.629 -0.3670  1.4631  2.0665
  922MOL0     H24440  11.981   8.887   5.481 -0.9270 -0.2702 -0.0037
  922MOL0     H24441  12.097   8.875   5.619  1.2701  0.5741 -1.1334
  922MOL0     H24442  12.079   9.121   5.653 -0.9602  0.0264  1.2055
  922MOL0     H24443  11.964   9.143   5.529 -0.3600 -0.7314 -0.6038
  922MOL0     H24444  12.117   9.026   5.356  0.1035  2.8818 -0.9396
  922MOL0     H24445  12.163   9.179   5.404 -1.3280  0.6025  1.0159
  922MOL0     H24446  12.275   8.985   5.603 -0.3314  2.1672  0.6160
  922MOL0     H24447  12.361   9.106   5.495 -0.8196  0.3689 -2.1839
  922MOL0     H24448  12.378   8.970   5.317  1.7794 -1.8604 -0.0611
  922MOL0     H24449  12.458   8.897   5.455  0.5805  1.0935  0.1780
  922MOL0     H24450  11.689   8.755   6.153 -2.3451 -1.1278  0.2112
  922MOL0     H24451  11.502   8.769   6.302 -1.8731  0.0317  0.3174
  922MOL0     H24452  11.265   9.268   6.608 -0.1348  0.0256 -0.5189
  922MOL0     H24453  11.038   9.302   6.688  0.0620 -0.6079 -0.1238
  922MOL0     H24454  10.979   7.704   7.145 -0.5972  1.1076  2.2698
  922MOL0     H24455  11.096   7.479   7.192  0.9376 -1.6245 -0.3200
  922MOL0     H24456  11.284   7.175   7.316  0.1900  0.5691 -0.8338
  922MOL0     H24457  11.380   6.961   7.307  1.3359 -1.6514 -0.3689
  922MOL0     H24458  11.817   6.958   7.336 -0.9710  1.2416  1.0347
  922MOL0     H24459  11.772   6.799   7.292  0.8409 -0.1520  0.7223
  922MOL0     H24460  11.819   6.906   7.578  0.0223 -1.3500  0.8887
  922MOL0     H24461  11.932   6.820   7.477 -0.1809  1.7087 -1.7307
  922MOL0     H24462  11.676   6.754   7.604 -0.3852 -1.0318 -2.8655
  922MOL0     H24463  11.823   6.671   7.654 -0.3811 -0.4195  0.2077
  922MOL0     H24464  11.677   6.496   7.550 -0.3736  1.5178  0.8473
  922MOL0     H24465  11.660   6.613   7.420 -1.3204 -0.7666  0.7068
  922MOL0     H24466  12.048   6.411   7.367 -0.2295  1.6114 -0.3347
  922MOL0     H24467  11.751   7.115   7.453 -0.0211  0.8848 -0.0018
  922MOL0     H24468  11.676   7.458   7.355  2.3703  3.1786  0.5452
  922MOL0     H24469  11.689   7.415   7.527 -1.6463  1.8094 -1.0915
  922MOL0     H24470  11.798   7.342   7.413  0.0400  1.1393  3.7495
  923MOL0     O24471   6.958  10.800   9.612  0.1619 -0.3541 -0.2513
  923MOL0     C24472   6.989  10.804   9.493 -0.0407  0.8503  0.2787
  923MOL0     O24473   7.060  10.698   9.432  0.3604 -0.1107 -0.2348
  923MOL0     C24474   7.150  10.628   9.499  0.4265  0.1047 -0.0136
  923MOL0     C24475   7.281  10.625   9.463 -0.2627 -0.4674 -0.1298
  923MOL0     C24476   7.378  10.549   9.533 -0.4096  0.5885  0.2458
  923MOL0     C24477   7.344  10.492   9.661  0.6614  0.4566  0.1836
  923MOL0     O24478   7.424  10.410   9.732  0.4008  0.1924 -0.5550
  923MOL0     C24479   7.536  10.351   9.672 -0.8712 -0.8174 -0.2225
  923MOL0     C24480   7.545  10.201   9.713  0.6249  0.1042 -0.4206
  923MOL0     C24481   7.589  10.196   9.857 -0.7884 -0.3335  0.2400
  923MOL0     C24482   7.590  10.050   9.917 -0.1592 -0.8301  0.5104
  923MOL0     C24483   7.640  10.047  10.076  0.1624 -0.1746  0.2233
  923MOL0     C24484   7.658   9.906  10.130  0.1799 -0.5072 -0.1458
  923MOL0     C24485   7.716   9.904  10.270  0.3443 -0.4010  0.4316
  923MOL0     C24486   7.862   9.871  10.258 -0.0708  0.5361  0.0132
  923MOL0     N24487   7.951   9.972  10.210 -0.6421  1.2645  0.4973
  923MOL0     C24488   7.970  10.086  10.283  0.4465  0.3785  0.8735
  923MOL0     C24489   8.071  10.144  10.212  0.3461  1.2702 -0.3134
  923MOL0     C24490   8.141  10.263  10.259 -0.5231 -0.4845  0.2313
  923MOL0     C24491   8.072  10.394  10.214  1.4253  0.6843  0.6816
  923MOL0     C24492   8.084  10.410  10.063 -0.5092 -0.0500  0.6264
  923MOL0     C24493   7.953  10.372   9.985  0.3041  0.4567 -0.3504
  923MOL0     O24494   7.848  10.474  10.012 -0.6366 -0.6114  0.6645
  923MOL0     C24495   7.830  10.570   9.910 -0.0505  0.1664 -0.1668
  923MOL0     C24496   7.929  10.635   9.836 -0.6198  0.1573 -0.7579
  923MOL0     C24497   7.891  10.735   9.751 -0.0101 -0.3184 -0.2366
  923MOL0     C24498   7.755  10.768   9.727 -0.4317 -0.7461  0.6511
  923MOL0     C24499   7.716  10.880   9.636 -0.3713  0.2975  1.5510
  923MOL0     O24500   7.587  10.930   9.644 -0.1462  0.1555  0.1445
  923MOL0     C24501   7.574  11.046   9.570 -0.3493  0.5232  0.8301
  923MOL0     C24502   7.496  11.049   9.459 -0.8009  0.5778 -0.2887
  923MOL0     C24503   7.464  11.168   9.394  0.2631  1.4287 -0.4497
  923MOL0     C24504   7.504  11.294   9.443  0.1363 -0.7950  0.1452
  923MOL0     O24505   7.452  11.410   9.384  0.1858  0.0947  0.0854
  923MOL0     C24506   7.433  11.529   9.461 -0.3919 -1.1504 -0.5544
  923MOL0     C24507   7.345  11.617   9.369 -0.2544  0.0170 -0.4019
  923MOL0     C24508   7.323  11.755   9.428  0.1434 -0.2684 -0.4902
  923MOL0     C24509   7.225  11.846   9.345 -0.3950  0.1194 -0.1158
  923MOL0     C24510   7.164  11.947   9.433 -0.9340 -1.1686 -0.0701
  923MOL0     C24511   7.101  12.065   9.348  0.3242  0.6367 -0.2370
  923MOL0     C24512   7.037  12.167   9.451 -0.8825  0.1345 -0.1661
  923MOL0     C24513   6.976  12.293   9.378  0.3549 -0.0660 -0.8277
  923MOL0    Cl24514   6.953  12.430   9.508 -0.3021  0.2021  0.0706
  923MOL0     C24515   7.585  11.288   9.560  0.2496 -0.2198  0.0485
  923MOL0     C24516   7.619  11.165   9.616  0.6758 -0.3510  0.6049
  923MOL0     O24517   7.790  10.902   9.543 -0.8374  0.0553 -0.6671
  923MOL0     C24518   7.658  10.710   9.806 -0.6081 -0.1423 -0.0382
  923MOL0     C24519   7.693  10.610   9.900 -0.9968 -0.2768 -0.5800
  923MOL0     N24520   8.093  10.068  10.099 -0.3186  0.0116 -0.1639
  923MOL0     N24521   8.023   9.963  10.101 -0.3361  0.0550  0.6003
  923MOL0     C24522   7.212  10.497   9.694 -0.4390  0.4674  0.4774
  923MOL0     C24523   7.115  10.562   9.613 -0.9428 -0.2566  0.0082
  923MOL0     C24524   6.935  10.917   9.406 -0.1471 -0.3436 -0.4768
  923MOL0     C24525   6.974  10.930   9.272  1.4062  0.4101  1.0255
  923MOL0     C24526   6.934  11.038   9.188 -0.6744 -1.3005  0.3616
  923MOL0     C24527   6.857  11.139   9.233  0.6852 -0.0750 -0.5015
  923MOL0     O24528   6.820  11.262   9.182  0.8614  0.3706  0.1509
  923MOL0     C24529   6.902  11.307   9.073  0.4064  0.1191 -0.4632
  923MOL0     C24530   6.806  11.366   8.963 -0.1930  0.4805 -0.1422
  923MOL0     C24531   6.731  11.257   8.895  1.1190 -0.2723 -0.9908
  923MOL0     C24532   6.632  11.311   8.797  0.4220 -0.3114 -0.5771
  923MOL0     C24533   6.569  11.201   8.722 -0.0294  0.2830 -0.0350
  923MOL0     C24534   6.500  11.111   8.671  0.1945  0.6007 -0.0960
  923MOL0     C24535   6.808  11.122   9.367  0.0932 -0.0600 -0.0222
  923MOL0     C24536   6.852  11.024   9.452 -0.0928  0.3473 -0.5086
  923MOL0     C24537   6.798  11.031   9.592  0.1212  0.0794  0.2208
  923MOL0     H24538   7.305  10.670   9.367  1.7093 -2.1408 -0.4802
  923MOL0     H24539   7.480  10.544   9.496 -0.5792 -5.0596 -0.2959
  923MOL0     H24540   7.532  10.355   9.563  0.5913 -1.8499 -0.3491
  923MOL0     H24541   7.610  10.427   9.700 -0.4617 -0.7023 -1.5790
  923MOL0     H24542   7.617  10.144   9.654  0.7381 -0.2878  0.0852
  923MOL0     H24543   7.445  10.158   9.702 -0.8814  2.4683  2.5267
  923MOL0     H24544   7.517  10.256   9.915 -0.3393  1.4678 -0.9785
  923MOL0     H24545   7.688  10.243   9.856 -1.6104  1.5074 -0.8648
  923MOL0     H24546   7.496   9.996   9.902 -0.3420 -0.9680  1.9580
  923MOL0     H24547   7.659   9.990   9.857 -2.4708 -2.0966 -1.0495
  923MOL0     H24548   7.733  10.105  10.079  0.6657 -0.3813 -4.3873
  923MOL0     H24549   7.565  10.102  10.135  2.6132  1.8907  1.6245
  923MOL0     H24550   7.555   9.869  10.136 -0.7667  2.1136  2.0404
  923MOL0     H24551   7.696   9.841  10.051  0.7280 -0.5024  0.1067
  923MOL0     H24552   7.654   9.825  10.313 -2.0389  0.8814 -0.5232
  923MOL0     H24553   7.702  10.003  10.313 -1.1666  1.3501 -3.6305
  923MOL0     H24554   7.909   9.835  10.350  2.1198 -0.2139 -1.2961
  923MOL0     H24555   7.872   9.792  10.183  4.1570 -0.0426  0.8891
  923MOL0     H24556   7.929  10.105  10.382 -0.3300  0.2718  0.5798
  923MOL0     H24557   8.145  10.276  10.367 -4.5153  1.8848  0.3120
  923MOL0     H24558   8.245  10.267  10.224 -0.6739  1.2890 -0.0784
  923MOL0     H24559   7.972  10.405  10.257  1.2231 -2.9238  1.5090
  923MOL0     H24560   8.133  10.472  10.260 -0.7416  2.1002  1.3279
  923MOL0     H24561   8.165  10.356  10.015 -2.0899  0.5519 -3.0967
  923MOL0     H24562   8.115  10.513  10.040  1.1050 -1.2136 -3.1225
  923MOL0     H24563   7.912  10.273  10.007 -1.3378  0.8042 -1.6330
  923MOL0     H24564   7.975  10.373   9.878 -3.5144  2.1494 -1.2954
  923MOL0     H24565   8.030  10.622   9.874 -0.9508  3.0292  1.4735
  923MOL0     H24566   7.963  10.798   9.698 -0.8851 -0.0997 -1.2054
  923MOL0     H24567   7.448  10.956   9.430  0.5198 -0.5470  0.9847
  923MOL0     H24568   7.397  11.158   9.309 -0.9322  0.7056  0.5562
  923MOL0     H24569   7.387  11.500   9.556  1.0048 -2.8799 -0.3441
  923MOL0     H24570   7.525  11.583   9.486  0.2930 -2.6020  0.2449
  923MOL0     H24571   7.383  11.633   9.267 -1.2203  1.6383 -0.5380
  923MOL0     H24572   7.248  11.566   9.360 -0.4407  0.1032  0.9712
  923MOL0     H24573   7.276  11.733   9.524  1.7087 -0.6302  0.2247
  923MOL0     H24574   7.412  11.817   9.442 -0.8191  1.5902 -2.0305
  923MOL0     H24575   7.146  11.791   9.292  0.5461  1.7586 -3.5436
  923MOL0     H24576   7.290  11.896   9.272 -0.3858  0.6369  0.2414
  923MOL0     H24577   7.251  11.997   9.477  0.7719 -1.5379 -2.8018
  923MOL0     H24578   7.098  11.909   9.511  0.9807 -1.0785  1.6827
  923MOL0     H24579   7.164  12.116   9.274 -1.4597 -0.7138 -2.8674
  923MOL0     H24580   7.019  12.013   9.299 -1.0226 -0.2804  2.7898
  923MOL0     H24581   7.120  12.195   9.517 -1.8576 -0.8687  1.5811
  923MOL0     H24582   6.964  12.119   9.517  0.6991  2.9125  4.0112
  923MOL0     H24583   7.041  12.320   9.295 -0.5374  0.8668 -1.2484
  923MOL0     H24584   6.879  12.263   9.338  0.2175  1.2320 -1.5340
  923MOL0     H24585   7.631  11.378   9.602 -2.9546  0.8121  1.7067
  923MOL0     H24586   7.709  11.160   9.677  1.0588  0.1163  0.0802
  923MOL0     H24587   7.557  10.749   9.815 -0.0056  0.9918  3.0917
  923MOL0     H24588   7.624  10.569   9.973 -4.5178  2.4161 -2.0836
  923MOL0     H24589   7.186  10.451   9.789  2.2121 -0.6702  0.7445
  923MOL0     H24590   7.012  10.541   9.639  0.2410 -4.4368  2.0693
  923MOL0     H24591   7.048  10.863   9.230  2.9195  1.1667  2.3782
  923MOL0     H24592   6.984  11.041   9.092 -0.2126  4.1956  0.4540
  923MOL0     H24593   6.970  11.233   9.030  1.3759  1.5609 -1.5314
  923MOL0     H24594   6.960  11.394   9.106 -1.5841  1.1888  0.4204
  923MOL0     H24595   6.866  11.418   8.888 -0.0398 -1.3356 -1.3511
  923MOL0     H24596   6.736  11.427   9.019 -1.0744 -0.2866 -0.3782
  923MOL0     H24597   6.675  11.205   8.974  1.5406  2.7332  1.4790
  923MOL0     H24598   6.801  11.182   8.856  4.9710  1.7819  1.3212
  923MOL0     H24599   6.559  11.374   8.848  1.9219  1.5538 -0.6414
  923MOL0     H24600   6.686  11.376   8.727  0.7904 -0.2351 -0.2232
  923MOL0     H24601   6.442  11.033   8.626  1.7154  0.1116 -1.3341
  923MOL0     H24602   6.734  11.194   9.399 -0.4787 -0.3364 -0.6635
  923MOL0     H24603   6.754  10.937   9.627  0.5466 -1.2429 -2.4895
  923MOL0     H24604   6.862  11.073   9.669 -0.7773  3.8135 -0.8554
  923MOL0     H24605   6.707  11.092   9.600 -0.4971 -0.9913  1.8235
  924MOL0     O24606  11.014   5.739   4.108 -1.2120  0.4412  0.1498
  924MOL0     C24607  10.977   5.621   4.086  0.6077 -0.4364 -0.6085
  924MOL0     O24608  11.042   5.508   4.120 -0.1898  0.1489 -0.2952
  924MOL0     C24609  11.155   5.513   4.188 -0.0292  0.0013 -0.1531
  924MOL0     C24610  11.148   5.546   4.327  0.3335 -0.5694  0.4776
  924MOL0     C24611  11.266   5.521   4.402 -0.4505  0.4215 -0.2037
  924MOL0     C24612  11.381   5.459   4.352  0.3501  0.5893  0.8694
  924MOL0     O24613  11.479   5.419   4.442  1.5416 -0.4957 -0.5479
  924MOL0     C24614  11.590   5.345   4.390 -0.5201  0.6561 -0.0380
  924MOL0     C24615  11.694   5.315   4.498 -0.2721 -0.0872  0.3816
  924MOL0     C24616  11.772   5.441   4.528  0.4728 -0.9811  0.4700
  924MOL0     C24617  11.875   5.407   4.638  1.1612  0.0324  0.9395
  924MOL0     C24618  11.991   5.513   4.665 -1.3262 -0.9113  0.4382
  924MOL0     C24619  11.978   5.648   4.591  0.1395 -0.0641 -0.9686
  924MOL0     C24620  12.091   5.747   4.633  0.0378 -1.1284  0.0604
  924MOL0     C24621  12.075   5.811   4.772  0.3395 -0.1907  0.4139
  924MOL0     N24622  11.944   5.876   4.785  0.7262 -0.9033  0.5241
  924MOL0     C24623  11.882   5.964   4.698 -0.1311 -0.6969 -0.6932
  924MOL0     C24624  11.763   5.987   4.765 -0.3858 -0.3758  0.0807
  924MOL0     C24625  11.661   6.099   4.724 -0.0695  0.6068 -0.9128
  924MOL0     C24626  11.660   6.209   4.824 -0.4405  0.4050  0.3072
  924MOL0     C24627  11.529   6.293   4.805  0.0385  0.4717  0.0377
  924MOL0     C24628  11.536   6.404   4.907  1.0491  0.0711 -0.2609
  924MOL0     O24629  11.403   6.462   4.879 -0.2356 -0.3401  0.6479
  924MOL0     C24630  11.294   6.453   4.959  0.2433 -0.6596 -0.5673
  924MOL0     C24631  11.288   6.385   5.083 -0.0424  0.5097 -0.0888
  924MOL0     C24632  11.170   6.379   5.164  0.4833 -0.6222  0.5641
  924MOL0     C24633  11.048   6.445   5.130 -0.7081 -0.8897  0.3737
  924MOL0     C24634  10.926   6.447   5.216 -0.0939 -0.1775 -0.3209
  924MOL0     O24635  10.924   6.348   5.307 -0.0988 -0.6094  0.2849
  924MOL0     C24636  10.804   6.316   5.365  0.5679  0.0071  0.5712
  924MOL0     C24637  10.708   6.213   5.324 -0.3187 -0.6238  0.3133
  924MOL0     C24638  10.588   6.194   5.391 -0.6687  0.3331  0.3222
  924MOL0     C24639  10.551   6.271   5.497 -0.3319  0.0249 -0.9339
  924MOL0     O24640  10.436   6.271   5.567 -0.6098  0.7178  0.8334
  924MOL0     C24641  10.356   6.150   5.557  0.0720  0.3176  0.4769
  924MOL0     C24642  10.255   6.127   5.673 -0.0312 -0.3297  0.1548
  924MOL0     C24643  10.114   6.079   5.633  0.7702  0.0193 -0.4235
  924MOL0     C24644  10.033   6.050   5.756 -0.1989  0.4451  0.0916
  924MOL0     C24645   9.888   6.012   5.723 -1.1581 -0.0552 -0.3762
  924MOL0     C24646   9.810   6.014   5.853  0.5176 -0.6558  0.3340
  924MOL0     C24647   9.663   5.969   5.825 -1.0135 -0.9647  0.0103
  924MOL0     C24648   9.582   5.975   5.956 -0.1022 -0.2021  0.7402
  924MOL0    Cl24649   9.410   5.951   5.903  0.2010  0.3145  0.2740
  924MOL0     C24650  10.646   6.367   5.534 -0.4052  0.0206  0.5849
  924MOL0     C24651  10.767   6.388   5.478 -0.9984  1.0492  0.4633
  924MOL0     O24652  10.833   6.523   5.198 -0.7765  0.1657  0.3280
  924MOL0     C24653  11.060   6.510   5.000 -1.1267  1.1933 -0.0826
  924MOL0     C24654  11.180   6.519   4.922  0.0049 -0.1003 -0.1743
  924MOL0     N24655  11.762   5.916   4.886  0.3672 -0.0313 -0.0798
  924MOL0     N24656  11.868   5.844   4.890  0.3091  0.3389  0.4928
  924MOL0     C24657  11.380   5.426   4.219  1.0167  0.4715  0.8262
  924MOL0     C24658  11.274   5.466   4.132  0.1701 -0.1698 -0.3660
  924MOL0     C24659  10.843   5.601   4.024  0.1567  0.2274 -0.1665
  924MOL0     C24660  10.787   5.702   3.936 -0.4864  0.6802 -0.2085
  924MOL0     C24661  10.677   5.686   3.855  0.2714 -0.6704  0.7051
  924MOL0     C24662  10.592   5.578   3.865 -0.4321  1.1371 -0.2142
  924MOL0     O24663  10.478   5.548   3.791 -0.0702 -0.0121  0.0664
  924MOL0     C24664  10.450   5.639   3.690 -0.7874 -0.8756  0.0535
  924MOL0     C24665  10.316   5.612   3.624  0.3340  0.4635  0.2212
  924MOL0     C24666  10.297   5.681   3.486 -0.2825 -0.1169  0.8001
  924MOL0     C24667  10.377   5.593   3.383 -0.4207 -1.2787  0.0579
  924MOL0     C24668  10.318   5.610   3.249  1.1777 -0.5140 -0.1488
  924MOL0     C24669  10.259   5.628   3.146 -0.0274  0.8839  0.4675
  924MOL0     C24670  10.633   5.494   3.968  1.6002  0.6008 -0.5302
  924MOL0     C24671  10.758   5.490   4.045  0.0157  0.4813 -0.2384
  924MOL0     C24672  10.787   5.378   4.146  0.3010  1.0686 -0.2685
  924MOL0     H24673  11.063   5.593   4.375 -0.0274  1.8618 -2.2630
  924MOL0     H24674  11.245   5.546   4.506  3.1705  2.5261  0.2052
  924MOL0     H24675  11.552   5.252   4.344 -0.4109  0.3461  0.4956
  924MOL0     H24676  11.645   5.396   4.311  0.0857  1.4136  0.8683
  924MOL0     H24677  11.769   5.246   4.458 -0.8950  1.5632 -4.2621
  924MOL0     H24678  11.642   5.268   4.582 -0.8324 -2.3098 -1.1166
  924MOL0     H24679  11.706   5.519   4.567  1.4560  1.6303 -2.6402
  924MOL0     H24680  11.823   5.480   4.439  1.1934 -3.0168 -0.0521
  924MOL0     H24681  11.817   5.402   4.731  0.3426  1.3000  0.5320
  924MOL0     H24682  11.922   5.310   4.623  0.8412 -0.0569  0.4986
  924MOL0     H24683  11.986   5.536   4.771  1.1516 -0.2086  0.4585
  924MOL0     H24684  12.092   5.476   4.642 -1.8267 -2.1909  0.1778
  924MOL0     H24685  11.993   5.639   4.483  1.7399  0.3403 -0.8043
  924MOL0     H24686  11.880   5.691   4.614 -0.4160  0.0577 -3.3375
  924MOL0     H24687  12.093   5.815   4.547 -0.5235 -2.6577 -1.2227
  924MOL0     H24688  12.186   5.694   4.644  0.0410 -1.1667 -0.1441
  924MOL0     H24689  12.089   5.732   4.847 -0.7183 -0.0780  0.7504
  924MOL0     H24690  12.145   5.892   4.792 -2.8269  2.5139  1.4306
  924MOL0     H24691  11.923   5.991   4.601  0.3833 -1.4878 -0.7059
  924MOL0     H24692  11.683   6.122   4.619 -3.2216 -2.1040 -2.3478
  924MOL0     H24693  11.558   6.063   4.724  0.2970 -0.5105  0.2609
  924MOL0     H24694  11.651   6.175   4.928  0.2843  0.4278  0.3859
  924MOL0     H24695  11.749   6.273   4.820  0.9137 -1.0588  3.3737
  924MOL0     H24696  11.437   6.234   4.804  0.9811 -1.1694  1.6293
  924MOL0     H24697  11.540   6.344   4.709  0.6655  0.9656  0.3647
  924MOL0     H24698  11.613   6.480   4.894  0.4275  0.2879 -3.3800
  924MOL0     H24699  11.539   6.368   5.010 -0.8325  0.4400 -0.0282
  924MOL0     H24700  11.364   6.313   5.111 -0.0189 -0.3850 -2.3153
  924MOL0     H24701  11.177   6.328   5.259  3.2376  3.8630  3.1127
  924MOL0     H24702  10.729   6.153   5.236 -0.6351 -1.0762  0.5402
  924MOL0     H24703  10.521   6.110   5.376 -1.2365  0.9752 -0.9358
  924MOL0     H24704  10.300   6.143   5.462 -1.9166 -0.0065  1.6115
  924MOL0     H24705  10.423   6.064   5.558 -0.8005 -0.3724  1.4157
  924MOL0     H24706  10.297   6.062   5.751  2.1104  0.7424 -0.0407
  924MOL0     H24707  10.243   6.229   5.710 -1.7071 -0.5361  0.2524
  924MOL0     H24708  10.069   6.158   5.574  4.1344  0.3705 -2.7990
  924MOL0     H24709  10.126   5.985   5.577  1.2998  0.2975 -0.7835
  924MOL0     H24710  10.036   6.134   5.826  4.4815  3.0955 -2.7738
  924MOL0     H24711  10.077   5.962   5.803 -0.1863 -1.1268 -2.6250
  924MOL0     H24712   9.863   5.917   5.676 -0.5806  1.4478 -4.0943
  924MOL0     H24713   9.848   6.090   5.658 -3.7017  1.4973  2.7530
  924MOL0     H24714   9.847   5.955   5.938 -4.7718 -1.3327  2.5249
  924MOL0     H24715   9.811   6.116   5.895  2.0171 -0.4132 -0.2047
  924MOL0     H24716   9.666   5.868   5.785 -1.8119 -1.4125  1.0286
  924MOL0     H24717   9.614   6.042   5.760 -1.5374  0.3910  1.8403
  924MOL0     H24718   9.610   5.890   6.018 -1.0730 -0.7516  0.4375
  924MOL0     H24719   9.609   6.070   6.004 -0.1953  0.6782 -0.8567
  924MOL0     H24720  10.606   6.429   5.614 -1.6346 -0.2240  0.1829
  924MOL0     H24721  10.843   6.456   5.516  0.1086  0.6560 -0.9579
  924MOL0     H24722  10.966   6.550   4.963 -0.0373  2.0057 -2.1265
  924MOL0     H24723  11.181   6.570   4.827  1.5123  0.5389  0.1539
  924MOL0     H24724  11.460   5.379   4.163 -1.1014  0.8550 -2.7996
  924MOL0     H24725  11.273   5.446   4.025 -2.1458  2.9378 -1.0786
  924MOL0     H24726  10.853   5.788   3.927  3.2708 -1.9552 -0.1883
  924MOL0     H24727  10.665   5.768   3.785 -1.1129 -1.4361 -0.0007
  924MOL0     H24728  10.531   5.620   3.619 -2.7088 -5.5867 -1.2492
  924MOL0     H24729  10.437   5.743   3.722 -1.4598 -0.6283 -0.9808
  924MOL0     H24730  10.224   5.643   3.676 -1.8644  0.5137 -3.3296
  924MOL0     H24731  10.311   5.505   3.600  2.7303  0.6250 -1.2560
  924MOL0     H24732  10.328   5.786   3.489  1.4164 -0.6094  3.3962
  924MOL0     H24733  10.190   5.698   3.467 -0.0997  1.2695  0.8476
  924MOL0     H24734  10.473   5.646   3.387  0.0353 -1.7824 -2.2937
  924MOL0     H24735  10.402   5.491   3.414 -0.6918 -1.0389  1.1007
  924MOL0     H24736  10.203   5.614   3.056  0.9393 -3.1946  0.2905
  924MOL0     H24737  10.568   5.408   3.979  3.7679 -0.9001  1.4820
  924MOL0     H24738  10.694   5.333   4.181  0.7225 -0.7444 -1.3790
  924MOL0     H24739  10.844   5.304   4.089  1.8195  3.1677 -1.6370
  924MOL0     H24740  10.847   5.399   4.235 -2.3760  1.7908  1.4948
  925MOL0     O24741   4.488   5.265   8.174 -0.2929  0.2121 -0.7624
  925MOL0     C24742   4.571   5.187   8.221  0.3509  0.9783  0.8755
  925MOL0     O24743   4.563   5.139   8.345 -0.3577 -0.0819  0.3623
  925MOL0     C24744   4.441   5.132   8.409  0.2586  0.2945 -0.3337
  925MOL0     C24745   4.368   5.251   8.435 -0.3189  0.7422 -0.1222
  925MOL0     C24746   4.263   5.251   8.525  0.0574 -0.5737  0.4214
  925MOL0     C24747   4.227   5.128   8.571 -0.4262  0.1485 -0.5332
  925MOL0     O24748   4.124   5.121   8.653  0.0493 -0.5085  0.1403
  925MOL0     C24749   4.159   5.135   8.790  0.0149 -0.3427 -0.2298
  925MOL0     C24750   4.039   5.127   8.876  0.2063 -0.2240 -0.3122
  925MOL0     C24751   3.942   5.251   8.849  0.1426  0.5934 -0.3769
  925MOL0     C24752   3.852   5.284   8.967  0.3055 -0.6020  0.1805
  925MOL0     C24753   3.762   5.405   8.914 -1.0338  0.4654  0.7142
  925MOL0     C24754   3.634   5.415   8.994 -0.4844 -0.1537  0.8783
  925MOL0     C24755   3.541   5.521   8.938  1.0577 -0.0823 -0.2580
  925MOL0     C24756   3.430   5.559   9.028  0.2239  0.3181 -0.1947
  925MOL0     N24757   3.471   5.629   9.150 -0.3275  0.7418  0.0668
  925MOL0     C24758   3.540   5.747   9.148 -0.0885  0.3733 -0.2994
  925MOL0     C24759   3.548   5.787   9.282  0.4993  0.0567  0.5165
  925MOL0     C24760   3.624   5.896   9.347  0.1653 -0.1580 -0.7492
  925MOL0     C24761   3.775   5.850   9.359 -0.1161  0.4593 -0.9957
  925MOL0     C24762   3.857   5.842   9.225 -1.2926 -0.1525  0.9331
  925MOL0     C24763   3.953   5.722   9.221  0.5880 -0.4610 -0.6900
  925MOL0     O24764   4.049   5.730   9.107  0.2284  0.1130  0.1301
  925MOL0     C24765   4.143   5.632   9.077 -0.1259  0.2005 -0.2804
  925MOL0     C24766   4.192   5.531   9.164  0.1196  0.0347  0.0710
  925MOL0     C24767   4.284   5.438   9.117 -0.3418  1.4058  0.1784
  925MOL0     C24768   4.341   5.446   8.991 -0.3814 -0.3225 -0.2710
  925MOL0     C24769   4.448   5.364   8.943 -0.0378  0.8531  0.8190
  925MOL0     O24770   4.515   5.398   8.822 -0.1701  0.4303 -0.3729
  925MOL0     C24771   4.633   5.337   8.785  0.4600  0.2003 -1.0783
  925MOL0     C24772   4.752   5.360   8.851 -0.7983 -0.2135  0.2688
  925MOL0     C24773   4.873   5.304   8.821 -0.7966  0.1012  0.1189
  925MOL0     C24774   4.877   5.207   8.716 -0.1524  0.0519  0.6150
  925MOL0     O24775   5.001   5.152   8.672  0.0858  0.1309 -0.4799
  925MOL0     C24776   5.031   5.146   8.531 -1.0034 -0.0870 -0.9736
  925MOL0     C24777   5.129   5.269   8.506  0.6842 -0.6638 -0.5540
  925MOL0     C24778   5.172   5.280   8.361  0.1268 -0.8342 -0.2016
  925MOL0     C24779   5.223   5.427   8.346 -1.2449  0.6268 -0.3524
  925MOL0     C24780   5.260   5.454   8.210 -0.4237  0.9324  0.4136
  925MOL0     C24781   5.308   5.605   8.203 -0.5155 -0.0504 -0.2615
  925MOL0     C24782   5.347   5.646   8.062 -0.3768  0.0651 -1.0741
  925MOL0     C24783   5.226   5.672   7.971 -1.0444 -0.0694 -0.1101
  925MOL0    Cl24784   5.141   5.827   8.022 -0.5578  0.3301  0.2819
  925MOL0     C24785   4.756   5.188   8.642  0.4506  0.2319 -0.1092
  925MOL0     C24786   4.636   5.239   8.682  0.4025  0.2564  0.2802
  925MOL0     O24787   4.478   5.268   9.016  0.1268  0.0188 -1.2205
  925MOL0     C24788   4.274   5.535   8.896 -0.0268  0.0734 -0.0771
  925MOL0     C24789   4.178   5.627   8.945 -0.7489 -0.6120  0.1829
  925MOL0     N24790   3.494   5.688   9.356 -0.0255  0.6900  0.3752
  925MOL0     N24791   3.443   5.599   9.279  0.4401 -0.1069  0.7052
  925MOL0     C24792   4.290   5.008   8.534 -0.3289 -0.0044  0.8062
  925MOL0     C24793   4.408   5.011   8.462  0.4112 -0.3682  0.1934
  925MOL0     C24794   4.706   5.170   8.157 -0.1114  0.4795  0.3565
  925MOL0     C24795   4.806   5.099   8.231 -0.6262 -0.8229 -1.0985
  925MOL0     C24796   4.941   5.092   8.190 -0.2396 -0.4289  0.4398
  925MOL0     C24797   4.974   5.151   8.068  1.2865 -0.7886  0.4965
  925MOL0     O24798   5.107   5.148   8.047  0.0778  0.0577  0.0582
  925MOL0     C24799   5.154   5.199   7.921 -0.4955  0.4741 -0.2911
  925MOL0     C24800   5.135   5.096   7.810 -0.0916  0.4410 -0.1952
  925MOL0     C24801   5.148   5.159   7.676 -0.0105 -0.5239 -0.5583
  925MOL0     C24802   5.287   5.207   7.634  0.6932  0.7502 -0.2026
  925MOL0     C24803   5.278   5.254   7.495 -0.5010  0.9359  0.3931
  925MOL0     C24804   5.275   5.302   7.384  1.1290  1.0671 -0.0669
  925MOL0     C24805   4.881   5.219   7.990 -0.3679  0.5386 -0.1264
  925MOL0     C24806   4.746   5.214   8.033 -0.6512 -0.0597  0.1387
  925MOL0     C24807   4.658   5.276   7.940  0.6641 -0.8492 -0.3464
  925MOL0     H24808   4.406   5.335   8.377  1.3415 -1.2797 -2.1447
  925MOL0     H24809   4.218   5.346   8.553  0.5543  0.3440 -1.7384
  925MOL0     H24810   4.229   5.060   8.827 -1.7200 -1.2034  1.4671
  925MOL0     H24811   4.205   5.234   8.805 -1.9909  0.7910 -1.0779
  925MOL0     H24812   4.076   5.132   8.979 -2.4219 -0.4520  0.7276
  925MOL0     H24813   3.988   5.033   8.854  0.2720 -0.0510 -1.2563
  925MOL0     H24814   3.874   5.222   8.767 -1.3239 -3.2433  1.9216
  925MOL0     H24815   3.998   5.341   8.823 -2.3214  2.2088 -0.4617
  925MOL0     H24816   3.782   5.204   8.992 -1.4401  0.7529 -0.1999
  925MOL0     H24817   3.902   5.309   9.061  0.7173  2.0661 -0.6614
  925MOL0     H24818   3.821   5.497   8.919  0.6698 -0.4328 -1.5013
  925MOL0     H24819   3.733   5.386   8.810  1.5956 -1.6266  0.2819
  925MOL0     H24820   3.585   5.318   9.005 -0.9189 -0.1426 -0.6950
  925MOL0     H24821   3.659   5.454   9.093 -1.9994 -1.8337  1.9646
  925MOL0     H24822   3.488   5.491   8.847  0.4563 -0.3927  0.1914
  925MOL0     H24823   3.600   5.608   8.907  1.7560 -0.2852  0.4641
  925MOL0     H24824   3.363   5.629   8.976  0.1158 -0.4123 -1.0767
  925MOL0     H24825   3.371   5.468   9.045  0.2799 -0.5861 -3.9076
  925MOL0     H24826   3.583   5.803   9.065 -0.7188  4.1646  1.6905
  925MOL0     H24827   3.607   5.990   9.293 -2.0849  0.6941  1.2717
  925MOL0     H24828   3.583   5.914   9.447  0.6959 -0.0587 -0.5491
  925MOL0     H24829   3.827   5.908   9.436 -0.2188  1.6188 -1.7808
  925MOL0     H24830   3.782   5.748   9.399  0.9680  0.4935 -1.0818
  925MOL0     H24831   3.916   5.933   9.213 -1.4159 -0.0319  1.2146
  925MOL0     H24832   3.795   5.832   9.136 -0.6215  0.7188  0.3509
  925MOL0     H24833   3.890   5.633   9.227  1.9390 -1.4012  0.2229
  925MOL0     H24834   4.009   5.741   9.313  0.3545  3.3996 -1.2149
  925MOL0     H24835   4.155   5.531   9.267  1.1294  2.6731  0.5100
  925MOL0     H24836   4.314   5.355   9.179 -2.3371 -1.9228 -2.9254
  925MOL0     H24837   4.743   5.429   8.935 -3.1060  2.6479 -2.1053
  925MOL0     H24838   4.967   5.336   8.866 -1.2481  2.7231 -0.6626
  925MOL0     H24839   5.088   5.053   8.517 -0.7526  0.2980 -2.7316
  925MOL0     H24840   4.946   5.150   8.462  0.1708 -3.4377 -2.9020
  925MOL0     H24841   5.078   5.361   8.535  0.3602 -1.0298  0.0622
  925MOL0     H24842   5.225   5.262   8.558  0.2869  2.3713  0.7797
  925MOL0     H24843   5.261   5.223   8.333  2.2946  2.9596 -1.9563
  925MOL0     H24844   5.086   5.263   8.296 -0.8368 -2.8054  1.5031
  925MOL0     H24845   5.306   5.452   8.413 -2.6494  3.7058  0.4765
  925MOL0     H24846   5.138   5.488   8.380 -2.6544 -2.0383  1.2813
  925MOL0     H24847   5.182   5.426   8.139 -1.2662  0.1183  1.6140
  925MOL0     H24848   5.337   5.379   8.190 -2.3510 -1.5480  1.7733
  925MOL0     H24849   5.228   5.670   8.240  0.9367  0.7907  1.5878
  925MOL0     H24850   5.398   5.601   8.265 -0.4401 -1.1736 -0.4256
  925MOL0     H24851   5.401   5.568   8.008  0.5247  0.5479 -0.8929
  925MOL0     H24852   5.426   5.721   8.060  1.4215 -1.7097  0.1937
  925MOL0     H24853   5.267   5.697   7.873  2.0737 -1.0583  0.7904
  925MOL0     H24854   5.165   5.583   7.952  0.9603 -1.9299  1.5501
  925MOL0     H24855   4.755   5.126   8.553 -1.6173  1.5588 -1.1073
  925MOL0     H24856   4.537   5.207   8.653  0.8625 -2.4473  1.3691
  925MOL0     H24857   4.301   5.544   8.791 -4.0000  0.8691 -1.1946
  925MOL0     H24858   4.133   5.702   8.880  0.8748 -0.7860 -1.1967
  925MOL0     H24859   4.258   4.914   8.579 -0.8309  0.6315  1.7912
  925MOL0     H24860   4.448   4.912   8.444 -0.1500 -0.9766  2.0434
  925MOL0     H24861   4.797   5.063   8.334 -1.2419  0.5985 -0.6365
  925MOL0     H24862   5.018   5.035   8.241  1.1793 -1.1826 -2.3435
  925MOL0     H24863   5.262   5.212   7.931 -0.0438 -1.0806 -2.3735
  925MOL0     H24864   5.110   5.297   7.898 -1.0005 -0.0150 -1.5013
  925MOL0     H24865   5.037   5.049   7.820 -0.0563  0.5363  0.6860
  925MOL0     H24866   5.212   5.019   7.819 -0.4436 -0.2046 -2.1811
  925MOL0     H24867   5.076   5.241   7.664 -2.4906 -2.2957  1.2767
  925MOL0     H24868   5.118   5.092   7.595  0.1374 -0.8441 -0.3486
  925MOL0     H24869   5.324   5.288   7.698 -0.1479 -0.0610  1.3638
  925MOL0     H24870   5.356   5.122   7.632  1.0869  1.0783 -0.8715
  925MOL0     H24871   5.255   5.351   7.291  2.9871  2.2385  0.1030
  925MOL0     H24872   4.907   5.266   7.896 -1.5555  2.1002  0.2909
  925MOL0     H24873   4.630   5.368   7.993  3.5221 -0.9496  1.5387
  925MOL0     H24874   4.706   5.299   7.844  1.4925 -0.0694  0.2410
  925MOL0     H24875   4.569   5.212   7.934 -2.8271  2.8186  4.3757
  926MOL0     O24876   5.071   0.660   1.154  0.0695  0.5268  0.2352
  926MOL0     C24877   4.968   0.601   1.110 -1.0433 -0.0005  0.7098
  926MOL0     O24878   4.885   0.648   1.018 -0.4917 -0.5517  0.1914
  926MOL0     C24879   4.927   0.758   0.949 -0.2250 -0.7701  0.1884
  926MOL0     C24880   4.993   0.756   0.821  0.4629 -0.6988  0.4792
  926MOL0     C24881   5.034   0.871   0.750  0.6343  0.1276 -0.4159
  926MOL0     C24882   5.006   0.998   0.802 -0.0012  1.1228  0.4343
  926MOL0     O24883   5.031   1.106   0.728  0.4895 -0.9652 -0.4129
  926MOL0     C24884   5.024   1.236   0.791 -0.2305  0.3958  0.1325
  926MOL0     C24885   5.064   1.348   0.693  0.8668 -0.0012 -0.3602
  926MOL0     C24886   5.057   1.492   0.747 -0.0879  1.0359 -0.1402
  926MOL0     C24887   4.914   1.538   0.784  0.1577 -0.1790  0.0637
  926MOL0     C24888   4.913   1.687   0.817 -0.8936 -1.0444 -0.4007
  926MOL0     C24889   4.782   1.746   0.867  0.3897  1.0638 -0.4102
  926MOL0     C24890   4.799   1.888   0.892 -0.4439  0.0592 -0.4810
  926MOL0     C24891   4.884   1.932   1.011  0.7044  0.1411 -0.3583
  926MOL0     N24892   4.901   2.071   0.992 -0.2705 -0.2904  0.5629
  926MOL0     C24893   4.826   2.173   1.034  0.8150 -0.5548 -0.1637
  926MOL0     C24894   4.887   2.291   1.001  0.1800 -0.0658 -0.6078
  926MOL0     C24895   4.832   2.437   1.016  0.3675  0.6277  0.2808
  926MOL0     C24896   4.681   2.434   1.052 -0.5003 -0.0902  0.6823
  926MOL0     C24897   4.641   2.583   1.075 -0.1626 -0.1104  0.1977
  926MOL0     C24898   4.499   2.584   1.133  0.2687  0.8456  0.4928
  926MOL0     O24899   4.462   2.699   1.191  0.7289  0.0477  0.0028
  926MOL0     C24900   4.435   2.811   1.114 -0.5590  0.3893  0.0245
  926MOL0     C24901   4.432   2.814   0.981 -0.1346  0.4347  0.4457
  926MOL0     C24902   4.402   2.934   0.909 -0.2194  0.4134  0.4779
  926MOL0     C24903   4.364   3.044   0.985  0.4845 -1.1904 -0.2118
  926MOL0     C24904   4.322   3.173   0.925  0.3168 -0.6648  0.0038
  926MOL0     O24905   4.300   3.175   0.786 -0.1776 -0.7755 -0.1774
  926MOL0     C24906   4.288   3.281   0.706 -0.0690  0.0384  0.0856
  926MOL0     C24907   4.207   3.287   0.582  0.1927 -1.4801 -0.1612
  926MOL0     C24908   4.192   3.414   0.512  0.4747 -0.6894  0.5130
  926MOL0     C24909   4.264   3.527   0.549  1.3621  0.0702  0.6534
  926MOL0     O24910   4.245   3.637   0.481  0.3701 -0.1617 -0.2558
  926MOL0     C24911   4.333   3.747   0.504  0.0065 -0.2411 -1.2724
  926MOL0     C24912   4.285   3.865   0.430 -0.2928  0.4901  0.2708
  926MOL0     C24913   4.215   3.963   0.513 -0.2880  0.0635  0.8463
  926MOL0     C24914   4.210   4.095   0.434  1.0856  0.5854  0.8953
  926MOL0     C24915   4.100   4.191   0.496  0.5103 -0.0106  0.7147
  926MOL0     C24916   4.113   4.210   0.639 -0.0545  0.1693 -0.6161
  926MOL0     C24917   4.240   4.283   0.690 -0.0698 -0.0417 -0.5644
  926MOL0     C24918   4.237   4.272   0.839 -0.2817 -0.5207 -0.7019
  926MOL0    Cl24919   4.311   4.117   0.881 -0.2379 -0.3253 -0.5189
  926MOL0     C24920   4.351   3.517   0.664  0.3133  0.5675  0.2056
  926MOL0     C24921   4.360   3.397   0.739  0.1653 -0.9220 -0.4505
  926MOL0     O24922   4.296   3.267   0.999 -0.0425  0.2957 -0.6449
  926MOL0     C24923   4.372   3.033   1.127  0.1797 -0.1534  0.6533
  926MOL0     C24924   4.412   2.916   1.194 -0.3941 -0.7643  0.1081
  926MOL0     N24925   5.005   2.262   0.944  0.0248 -0.9349  0.3207
  926MOL0     N24926   5.010   2.136   0.932 -0.5578  0.3387  0.1257
  926MOL0     C24927   4.949   1.000   0.927  0.0179 -0.8030  0.6779
  926MOL0     C24928   4.913   0.889   1.005  0.2440 -0.6227  0.3663
  926MOL0     C24929   4.913   0.489   1.186  0.2808 -0.3619 -0.3612
  926MOL0     C24930   4.784   0.494   1.244 -0.0009 -0.3279 -0.0880
  926MOL0     C24931   4.744   0.396   1.337 -0.4000  0.5023  0.2673
  926MOL0     C24932   4.819   0.284   1.368 -1.1562 -0.3413 -0.2118
  926MOL0     O24933   4.793   0.178   1.453 -0.3952  0.3206 -0.8433
  926MOL0     C24934   4.658   0.154   1.502 -0.2344  0.6470 -0.6660
  926MOL0     C24935   4.639   0.226   1.635 -0.1485 -0.1873 -0.4271
  926MOL0     C24936   4.509   0.188   1.703 -0.0230 -0.2224 -0.3009
  926MOL0     C24937   4.500   0.244   1.846 -0.1628  0.4741 -1.0777
  926MOL0     C24938   4.506   0.389   1.875  0.1997 -0.7226  0.4687
  926MOL0     C24939   4.540   0.512   1.902 -0.3970 -0.3116 -0.2554
  926MOL0     C24940   4.949   0.283   1.305  0.2524 -1.8122 -0.2083
  926MOL0     C24941   4.998   0.382   1.220 -0.5032 -0.0068 -0.1551
  926MOL0     C24942   5.139   0.353   1.169 -0.6160 -0.0237 -0.3043
  926MOL0     H24943   5.012   0.668   0.760  0.1779  1.3311 -2.7653
  926MOL0     H24944   5.061   0.875   0.644  2.0725  1.5516 -0.0458
  926MOL0     H24945   4.930   1.254   0.843 -0.8014 -1.0367 -0.3555
  926MOL0     H24946   5.104   1.242   0.867 -1.7984  2.2438  1.7418
  926MOL0     H24947   4.997   1.338   0.607 -1.9742 -2.7762  1.9016
  926MOL0     H24948   5.171   1.344   0.675  1.1160  0.6907  0.8215
  926MOL0     H24949   5.082   1.569   0.673 -1.4956  3.0101  1.3605
  926MOL0     H24950   5.133   1.499   0.825  1.0670 -0.2691 -1.0817
  926MOL0     H24951   4.852   1.523   0.695  1.0431  0.3701 -0.6627
  926MOL0     H24952   4.876   1.481   0.870 -0.7476 -0.6779 -0.6495
  926MOL0     H24953   4.980   1.709   0.901 -1.2369 -0.0269 -0.3745
  926MOL0     H24954   4.949   1.744   0.731  2.8212 -1.3428  0.7978
  926MOL0     H24955   4.707   1.736   0.789  0.6666  1.3490 -0.7149
  926MOL0     H24956   4.756   1.703   0.964 -0.5657 -3.2757 -2.3419
  926MOL0     H24957   4.701   1.933   0.908  0.2128  0.4027  3.4927
  926MOL0     H24958   4.830   1.925   0.794  1.4673  0.4051  0.2193
  926MOL0     H24959   4.834   1.919   1.107 -0.5499  1.5352 -0.7879
  926MOL0     H24960   4.980   1.880   0.998  0.8257 -1.1025  3.9877
  926MOL0     H24961   4.729   2.164   1.083  0.3694  1.2531 -0.6501
  926MOL0     H24962   4.887   2.506   1.081  0.9075  1.3528 -0.9097
  926MOL0     H24963   4.851   2.477   0.916 -0.4602 -2.2603 -1.1482
  926MOL0     H24964   4.622   2.395   0.968 -0.7430  1.1789  0.2430
  926MOL0     H24965   4.665   2.370   1.139 -0.3970 -2.2261 -0.7731
  926MOL0     H24966   4.644   2.625   0.975 -2.7252 -1.6520 -0.6376
  926MOL0     H24967   4.704   2.637   1.146 -0.3538 -0.1100  0.3688
  926MOL0     H24968   4.488   2.509   1.213  3.0274  0.5471  0.6937
  926MOL0     H24969   4.433   2.551   1.052  2.1066 -0.7843 -0.4320
  926MOL0     H24970   4.454   2.725   0.923  1.6935  0.4642  1.0384
  926MOL0     H24971   4.413   2.946   0.802 -1.3512 -0.0738  0.2826
  926MOL0     H24972   4.150   3.201   0.549 -1.6054  0.6109 -3.0253
  926MOL0     H24973   4.135   3.436   0.423 -0.9249 -1.4824  1.1819
  926MOL0     H24974   4.329   3.766   0.612 -2.9248 -2.3816 -0.9051
  926MOL0     H24975   4.435   3.723   0.474 -0.7926 -3.5503 -1.7242
  926MOL0     H24976   4.373   3.912   0.383  0.8087 -0.5565  1.2082
  926MOL0     H24977   4.224   3.822   0.350  0.3550  0.9312 -0.4771
  926MOL0     H24978   4.115   3.924   0.538 -0.4221 -0.3290 -0.2764
  926MOL0     H24979   4.268   3.978   0.608  0.8947 -0.8619  0.3536
  926MOL0     H24980   4.165   4.066   0.339  0.4719  1.1142  1.0171
  926MOL0     H24981   4.308   4.143   0.421  0.8812  0.2300 -3.3461
  926MOL0     H24982   4.000   4.157   0.469  1.2075 -1.7748  0.2295
  926MOL0     H24983   4.119   4.281   0.437  1.9989 -1.3648 -1.0107
  926MOL0     H24984   4.022   4.254   0.682  0.4637 -0.9764  1.8641
  926MOL0     H24985   4.117   4.111   0.685  1.8747  0.9356  1.0370
  926MOL0     H24986   4.237   4.389   0.664  2.4612 -0.0197 -1.0416
  926MOL0     H24987   4.327   4.249   0.633  0.7649  1.1390 -0.0300
  926MOL0     H24988   4.301   4.353   0.875  0.4862 -1.4690  0.1594
  926MOL0     H24989   4.141   4.278   0.891  0.7715 -1.6847  1.5426
  926MOL0     H24990   4.406   3.601   0.703 -0.9785  1.7525 -0.4328
  926MOL0     H24991   4.427   3.412   0.823 -0.1584  4.5670 -0.8518
  926MOL0     H24992   4.348   3.123   1.183  3.2736  1.5559 -0.5102
  926MOL0     H24993   4.429   2.909   1.301 -1.7129 -0.2501  0.3664
  926MOL0     H24994   4.922   1.098   0.966  0.5631  0.1888 -1.3268
  926MOL0     H24995   4.861   0.908   1.098  0.3621  1.8102  0.0109
  926MOL0     H24996   4.725   0.583   1.224  1.0220  0.7966  1.6483
  926MOL0     H24997   4.659   0.435   1.393  2.0819  3.2629  2.4215
  926MOL0     H24998   4.649   0.045   1.515  0.7631  0.6810  0.4112
  926MOL0     H24999   4.579   0.191   1.436 -2.3833  0.4830  1.6541
  926MOL0     H25000   4.642   0.332   1.607  2.4429 -0.8596 -3.1425
  926MOL0     H25001   4.724   0.207   1.701 -0.0845  1.6382  0.0811
  926MOL0     H25002   4.502   0.080   1.712 -3.9478  0.0567  2.3955
  926MOL0     H25003   4.418   0.227   1.658  0.5753  2.5444  0.6232
  926MOL0     H25004   4.405   0.210   1.888  1.3194  1.5439  3.8286
  926MOL0     H25005   4.568   0.192   1.914 -0.9176  0.1060 -0.5931
  926MOL0     H25006   4.563   0.614   1.926  0.9818 -0.2691 -1.6030
  926MOL0     H25007   5.012   0.195   1.317  1.0424 -1.0236  1.8492
  926MOL0     H25008   5.202   0.357   1.259 -2.1712 -0.6417  0.8710
  926MOL0     H25009   5.148   0.249   1.138 -2.4685 -0.3158  0.0094
  926MOL0     H25010   5.175   0.427   1.098  0.6242  1.3677  1.6871
  927MOL0     O25011   4.455   1.352   9.010 -0.0807  0.4977 -0.3043
  927MOL0     C25012   4.560   1.289   9.023  0.5402  0.1736  0.9401
  927MOL0     O25013   4.574   1.149   9.000 -0.2918 -0.0169 -0.1699
  927MOL0     C25014   4.456   1.077   8.991 -0.3400  0.7385 -0.1523
  927MOL0     C25015   4.384   1.091   8.871 -0.3564 -0.4041  0.0717
  927MOL0     C25016   4.270   1.007   8.849  0.1367 -0.3570 -0.3678
  927MOL0     C25017   4.229   0.923   8.953 -0.1274  0.2090 -0.4071
  927MOL0     O25018   4.108   0.852   8.949 -0.2001 -0.2284  0.5032
  927MOL0     C25019   4.046   0.835   8.819 -0.2732  0.3166  0.6835
  927MOL0     C25020   3.930   0.741   8.847 -0.4902 -0.6631 -0.9072
  927MOL0     C25021   3.984   0.602   8.874 -0.2369  0.0373  0.4286
  927MOL0     C25022   3.869   0.500   8.895  0.3903 -0.4316  0.7099
  927MOL0     C25023   3.910   0.359   8.953  0.2449 -0.0635  0.1900
  927MOL0     C25024   3.967   0.370   9.097 -0.1560  0.8463  0.2631
  927MOL0     C25025   4.035   0.238   9.153  0.0670 -0.2463 -0.1244
  927MOL0     C25026   4.119   0.262   9.278  0.6733  0.3618 -0.2097
  927MOL0     N25027   4.255   0.291   9.236 -0.1599  0.0172 -0.1041
  927MOL0     C25028   4.305   0.403   9.170  0.6039 -0.0626 -0.7868
  927MOL0     C25029   4.441   0.389   9.139  0.6760 -0.2505 -0.2398
  927MOL0     C25030   4.521   0.471   9.032 -0.2382 -0.1228 -1.3680
  927MOL0     C25031   4.628   0.561   9.104 -0.5980  1.2122  0.5404
  927MOL0     C25032   4.772   0.520   9.062 -0.0949 -0.9362  0.5565
  927MOL0     C25033   4.871   0.633   9.082  0.4702  0.4935 -0.2742
  927MOL0     O25034   4.869   0.655   9.226 -0.3987  1.4284  0.0178
  927MOL0     C25035   4.868   0.786   9.260 -1.2022  0.5051  0.0660
  927MOL0     C25036   4.952   0.816   9.360  0.6714 -0.2685 -0.0096
  927MOL0     C25037   4.954   0.937   9.429 -0.0738 -0.0927  0.3009
  927MOL0     C25038   4.866   1.040   9.387  0.5985  0.5012 -0.9974
  927MOL0     C25039   4.850   1.170   9.460 -0.4531 -0.3409 -0.7729
  927MOL0     O25040   4.962   1.217   9.517  0.8813  0.0018 -0.1939
  927MOL0     C25041   4.953   1.330   9.589 -0.4801 -0.0285 -0.3618
  927MOL0     C25042   4.899   1.455   9.564 -0.1500 -0.0486 -0.2421
  927MOL0     C25043   4.878   1.549   9.657  0.8432 -0.2258  1.0903
  927MOL0     C25044   4.911   1.540   9.798 -0.0363  0.1361  1.0229
  927MOL0     O25045   4.880   1.646   9.880  0.1874 -0.8003 -0.4315
  927MOL0     C25046   4.959   1.658   9.995 -0.0111 -0.4902 -0.7404
  927MOL0     C25047   5.112   1.674   9.971 -0.4608 -0.4385 -0.2046
  927MOL0     C25048   5.192   1.690  10.106  0.2340 -0.2056 -0.0132
  927MOL0     C25049   5.336   1.746  10.081 -0.2900 -0.2559 -0.4629
  927MOL0     C25050   5.443   1.716  10.191 -0.0703  0.1797 -1.0529
  927MOL0     C25051   5.579   1.755  10.146 -1.0066  0.6435  0.0291
  927MOL0     C25052   5.640   1.658  10.042  0.6866 -0.0604  0.4693
  927MOL0     C25053   5.782   1.685  10.005 -0.6268  0.0828 -0.2043
  927MOL0    Cl25054   5.823   1.541   9.900 -0.0644 -0.8974  0.0895
  927MOL0     C25055   4.977   1.420   9.827  0.4675 -0.6915 -0.1927
  927MOL0     C25056   4.995   1.323   9.725 -0.7796  0.9760 -0.9909
  927MOL0     O25057   4.734   1.209   9.490  0.0344  0.0808 -0.5299
  927MOL0     C25058   4.783   1.020   9.271 -0.8441 -0.1167  0.0202
  927MOL0     C25059   4.784   0.890   9.206 -0.5316  0.7420 -0.4145
  927MOL0     N25060   4.470   0.271   9.200  0.0933  0.2516 -0.6651
  927MOL0     N25061   4.366   0.207   9.241  0.1186  0.2774 -0.3860
  927MOL0     C25062   4.299   0.922   9.068  0.2410  0.2343 -0.2850
  927MOL0     C25063   4.413   0.994   9.091  0.5616 -0.0519 -0.3078
  927MOL0     C25064   4.678   1.376   9.054  0.3668  0.1817 -0.2366
  927MOL0     C25065   4.795   1.356   8.970  0.0890  0.4678  0.5966
  927MOL0     C25066   4.911   1.410   9.015 -0.1693 -0.1840  0.3294
  927MOL0     C25067   4.918   1.502   9.118  0.5635 -0.2623  0.8221
  927MOL0     O25068   5.025   1.576   9.157  0.1059 -0.1563  0.7773
  927MOL0     C25069   5.159   1.514   9.154 -0.1752 -0.0343 -0.4615
  927MOL0     C25070   5.250   1.619   9.214 -0.2984  0.3909 -0.5808
  927MOL0     C25071   5.211   1.657   9.359 -0.0428  0.6238 -0.8639
  927MOL0     C25072   5.312   1.764   9.416 -0.2428 -0.4872  0.1536
  927MOL0     C25073   5.339   1.752   9.564 -0.1941 -0.6474 -0.6979
  927MOL0     C25074   5.357   1.751   9.684  0.6612  0.4524  0.2501
  927MOL0     C25075   4.797   1.539   9.185 -0.9673  0.5428  0.3525
  927MOL0     C25076   4.674   1.480   9.157  0.8481  0.6032 -0.3724
  927MOL0     C25077   4.546   1.523   9.232 -0.3135 -0.5536 -0.2848
  927MOL0     H25078   4.425   1.159   8.797  0.6145 -0.4562  0.5355
  927MOL0     H25079   4.234   1.006   8.746 -0.0275  2.0018 -0.3878
  927MOL0     H25080   4.012   0.934   8.787 -2.3846 -0.2988  0.8661
  927MOL0     H25081   4.111   0.797   8.739 -2.1043  1.9313 -1.7086
  927MOL0     H25082   3.869   0.749   8.756 -1.0527  1.5603 -0.4037
  927MOL0     H25083   3.873   0.768   8.936  0.8665 -6.1911  2.0435
  927MOL0     H25084   4.023   0.616   8.975 -2.6585  1.6635  1.2119
  927MOL0     H25085   4.056   0.564   8.800  2.8347 -1.0092  3.6803
  927MOL0     H25086   3.800   0.543   8.967  0.3555 -0.4290  0.6749
  927MOL0     H25087   3.814   0.488   8.801  0.3509  0.6299  0.5908
  927MOL0     H25088   3.834   0.280   8.947  1.8900 -1.6008 -1.8353
  927MOL0     H25089   3.993   0.325   8.890 -1.0713 -1.1522 -1.0473
  927MOL0     H25090   4.043   0.448   9.084 -0.1383  0.5068 -2.3589
  927MOL0     H25091   3.889   0.405   9.165 -0.2088  2.1664 -0.4421
  927MOL0     H25092   4.107   0.208   9.076 -1.3115 -2.4330 -0.6319
  927MOL0     H25093   3.957   0.164   9.169 -0.3413 -0.5274 -2.9137
  927MOL0     H25094   4.081   0.334   9.351 -1.7146 -0.7622 -0.2504
  927MOL0     H25095   4.115   0.168   9.332 -1.2193 -1.2499 -2.9015
  927MOL0     H25096   4.238   0.471   9.120 -1.5267 -0.3179  1.5050
  927MOL0     H25097   4.569   0.408   8.956  1.0292 -0.6383 -0.1762
  927MOL0     H25098   4.450   0.538   8.983 -1.5545 -1.9158 -2.0077
  927MOL0     H25099   4.606   0.666   9.084 -0.9217  0.8030 -1.4644
  927MOL0     H25100   4.624   0.562   9.214 -1.3523  2.9490  0.5282
  927MOL0     H25101   4.780   0.476   8.962  0.4991 -2.2866  1.1776
  927MOL0     H25102   4.808   0.431   9.114  2.0994 -0.9755 -0.9195
  927MOL0     H25103   4.833   0.719   9.026  3.5688  1.7179 -0.6870
  927MOL0     H25104   4.971   0.615   9.041 -1.0947 -0.9666 -3.9475
  927MOL0     H25105   5.022   0.750   9.408  0.3071 -1.6942 -1.3474
  927MOL0     H25106   5.021   0.940   9.515  1.8729 -0.8177 -1.1294
  927MOL0     H25107   4.859   1.477   9.465 -5.8122 -0.2700  1.6424
  927MOL0     H25108   4.829   1.639   9.621 -0.0237 -2.4874 -4.4562
  927MOL0     H25109   4.919   1.749  10.040  0.4739 -1.1471  1.1066
  927MOL0     H25110   4.943   1.573  10.062  0.4122 -0.5411 -0.6999
  927MOL0     H25111   5.151   1.585   9.922 -1.5916 -0.5001 -1.0214
  927MOL0     H25112   5.136   1.752   9.898 -3.2558  0.3797 -0.3479
  927MOL0     H25113   5.135   1.766  10.160 -1.1829 -0.1352 -1.5398
  927MOL0     H25114   5.191   1.596  10.163  1.5467 -1.0516 -1.3167
  927MOL0     H25115   5.338   1.851  10.051 -0.5660  0.2651  1.2319
  927MOL0     H25116   5.366   1.697   9.988 -0.6968  0.8558 -1.1934
  927MOL0     H25117   5.434   1.609  10.213  1.4437 -0.1901 -2.0294
  927MOL0     H25118   5.413   1.784  10.271  1.6144  0.9451 -1.0184
  927MOL0     H25119   5.577   1.853  10.097  0.9441  0.6688 -0.0625
  927MOL0     H25120   5.650   1.764  10.229  1.4061 -2.6091 -1.4897
  927MOL0     H25121   5.593   1.674   9.944 -0.1722 -1.3951  0.6315
  927MOL0     H25122   5.616   1.559  10.082  1.3620  1.1531  4.2225
  927MOL0     H25123   5.797   1.783   9.957  2.8379 -0.6319 -0.8447
  927MOL0     H25124   5.838   1.703  10.097 -1.2815 -0.9718  0.4173
  927MOL0     H25125   5.013   1.400   9.928 -0.3714  3.7976  1.2467
  927MOL0     H25126   5.026   1.224   9.756 -0.4065  1.8538  1.7123
  927MOL0     H25127   4.718   1.103   9.244 -1.7037 -0.0076  2.1785
  927MOL0     H25128   4.717   0.874   9.123 -0.4010 -2.6027  0.0049
  927MOL0     H25129   4.260   0.854   9.144  0.9189  0.8126  0.5942
  927MOL0     H25130   4.473   0.993   9.181  0.5273  2.2528 -0.1878
  927MOL0     H25131   4.780   1.282   8.892  1.7678  2.8802 -2.2015
  927MOL0     H25132   5.007   1.385   8.971  0.8587  2.3645  0.9277
  927MOL0     H25133   5.190   1.485   9.053  0.8207 -0.9445  0.0782
  927MOL0     H25134   5.156   1.416   9.203  0.8308 -1.5885 -3.2376
  927MOL0     H25135   5.256   1.706   9.148  0.9279  2.2633  1.8305
  927MOL0     H25136   5.349   1.573   9.217 -0.0765  0.9408  1.4102
  927MOL0     H25137   5.206   1.564   9.417 -0.2950  1.0267 -0.2408
  927MOL0     H25138   5.108   1.691   9.369 -1.0062 -2.2265 -0.0058
  927MOL0     H25139   5.403   1.758   9.356 -0.5522 -1.8109 -0.2135
  927MOL0     H25140   5.267   1.863   9.401 -0.4231 -0.2875  1.7815
  927MOL0     H25141   5.369   1.752   9.790  0.4493 -2.0760  0.3546
  927MOL0     H25142   4.807   1.607   9.269  0.9699 -0.6330  1.1527
  927MOL0     H25143   4.485   1.437   9.260 -1.8096  0.9446  1.3489
  927MOL0     H25144   4.585   1.564   9.326  1.2145 -2.7019  0.0826
  927MOL0     H25145   4.487   1.587   9.166  1.3715  3.6976  1.9201
  928MOL0     O25146   5.134  10.687  11.354 -0.3231 -0.3875  0.0566
  928MOL0     C25147   5.102  10.609  11.261 -0.3594 -0.8576 -0.2254
  928MOL0     O25148   5.052  10.637  11.141 -0.0352  0.8723 -0.1480
  928MOL0     C25149   5.011  10.763  11.105 -0.3360 -0.6980 -0.1829
  928MOL0     C25150   4.991  10.791  10.968  0.6022 -0.0611 -0.2155
  928MOL0     C25151   4.968  10.920  10.920 -0.5837 -0.3486 -0.4246
  928MOL0     C25152   4.934  11.024  11.011  0.4958  0.2242 -0.3239
  928MOL0     O25153   4.903  11.154  10.981 -0.5161 -0.1592 -0.3573
  928MOL0     C25154   4.995  11.211  10.888  0.1935 -0.6429  0.2267
  928MOL0     C25155   5.134  11.217  10.933  0.2838  0.1910  0.2803
  928MOL0     C25156   5.208  11.326  10.856  0.3523 -0.4239 -0.4856
  928MOL0     C25157   5.217  11.448  10.947  0.5419  0.0728  1.3241
  928MOL0     C25158   5.293  11.561  10.870  0.6429  0.8655 -0.1883
  928MOL0     C25159   5.440  11.528  10.889 -0.5421  0.7685 -0.4532
  928MOL0     C25160   5.526  11.652  10.867 -0.2274  0.1187  0.7515
  928MOL0     C25161   5.672  11.622  10.816  1.2951  0.6220 -1.0590
  928MOL0     N25162   5.764  11.570  10.929  0.4400  0.0687  0.4602
  928MOL0     C25163   5.752  11.547  11.066 -0.0322 -0.3054  1.0509
  928MOL0     C25164   5.859  11.479  11.108  0.0787 -0.3184  0.9242
  928MOL0     C25165   5.904  11.421  11.248 -0.0230 -0.0407  0.3552
  928MOL0     C25166   6.008  11.506  11.307 -0.5926 -0.5888  0.0551
  928MOL0     C25167   6.013  11.509  11.467  1.2393 -0.3157  0.3483
  928MOL0     C25168   6.150  11.558  11.513 -0.3843  0.3149  0.6396
  928MOL0     O25169   6.174  11.699  11.482 -0.0481 -0.2534 -0.3326
  928MOL0     C25170   6.301  11.727  11.453  0.3963  0.4725  0.0921
  928MOL0     C25171   6.341  11.757  11.324 -0.3037  0.8612 -1.0421
  928MOL0     C25172   6.473  11.790  11.295 -0.5669  0.5639  0.3338
  928MOL0     C25173   6.574  11.798  11.394 -0.6807 -0.5251  0.0736
  928MOL0     C25174   6.706  11.843  11.370 -0.0369  0.7106  0.3403
  928MOL0     O25175   6.799  11.789  11.455 -0.0991 -0.3969  0.0148
  928MOL0     C25176   6.933  11.839  11.461  0.2001  1.3274  0.9271
  928MOL0     C25177   6.988  11.938  11.378 -0.2948 -0.3587 -1.0635
  928MOL0     C25178   7.125  11.964  11.359  0.0128  1.6017  0.3530
  928MOL0     C25179   7.214  11.867  11.413  0.8384  0.5066 -0.3001
  928MOL0     O25180   7.353  11.876  11.387 -0.3859 -0.2852  0.0497
  928MOL0     C25181   7.400  11.982  11.302 -0.0725 -0.2218 -0.1934
  928MOL0     C25182   7.549  11.960  11.299 -0.1634  1.0106  0.4777
  928MOL0     C25183   7.600  12.016  11.170 -0.3218  0.0465  1.0901
  928MOL0     C25184   7.756  12.036  11.190 -0.1527 -0.4222 -0.6168
  928MOL0     C25185   7.816  12.080  11.059 -0.2288  0.7415  0.0716
  928MOL0     C25186   7.964  12.114  11.060  0.8065 -0.1042 -0.5817
  928MOL0     C25187   8.028  12.116  10.923 -0.5410 -0.0272 -0.8630
  928MOL0     C25188   8.179  12.091  10.926  0.6744  0.2560  0.3671
  928MOL0    Cl25189   8.258  12.240  10.988 -0.1616  0.0558 -0.0645
  928MOL0     C25190   7.164  11.776  11.502  0.0732  0.8956 -0.4142
  928MOL0     C25191   7.030  11.766  11.527 -0.5448  0.2663  0.5366
  928MOL0     O25192   6.726  11.927  11.283 -0.1028  0.3653  0.2737
  928MOL0     C25193   6.533  11.753  11.521  0.1916  0.1241  0.8393
  928MOL0     C25194   6.403  11.710  11.548 -0.4692 -0.2049 -0.5138
  928MOL0     N25195   5.930  11.446  10.992  0.0342 -0.1655 -0.2734
  928MOL0     N25196   5.874  11.505  10.895  0.9569  0.2528  0.4884
  928MOL0     C25197   4.942  10.994  11.143  0.0905 -0.2007  0.1856
  928MOL0     C25198   4.987  10.870  11.190 -0.1472  0.1389  0.6198
  928MOL0     C25199   5.121  10.460  11.274  0.5993 -0.4311 -0.3058
  928MOL0     C25200   5.162  10.400  11.160  0.5416  0.2912 -0.3963
  928MOL0     C25201   5.210  10.269  11.166  0.9150 -0.6603  0.8362
  928MOL0     C25202   5.201  10.194  11.285 -1.5385 -0.2170  0.7849
  928MOL0     O25203   5.243  10.069  11.311 -1.2101  0.7914  1.2897
  928MOL0     C25204   5.318   9.993  11.209  0.4320 -0.2522  0.0791
  928MOL0     C25205   5.368   9.869  11.275 -0.1270 -0.6448 -0.6099
  928MOL0     C25206   5.417   9.747  11.196  1.0665 -0.5379  0.3114
  928MOL0     C25207   5.542   9.777  11.115 -0.7099  1.0876 -0.7070
  928MOL0     C25208   5.585   9.656  11.045  0.0692  0.2389 -0.5946
  928MOL0     C25209   5.640   9.553  10.995 -0.0303  0.4988 -0.7675
  928MOL0     C25210   5.131  10.248  11.390  0.3854 -0.6052 -0.5795
  928MOL0     C25211   5.093  10.380  11.389 -0.0258 -0.4485 -0.5059
  928MOL0     C25212   5.010  10.438  11.499 -0.4278 -1.1069  0.4263
  928MOL0     H25213   5.015  10.711  10.898  1.6746 -0.9073  1.0736
  928MOL0     H25214   4.971  10.937  10.813 -0.4621  0.3278 -0.3224
  928MOL0     H25215   4.993  11.163  10.791 -1.3877  1.4003 -0.8325
  928MOL0     H25216   4.963  11.311  10.859 -0.2469 -0.3605  1.5916
  928MOL0     H25217   5.186  11.123  10.912  1.7781  1.3345 -1.3648
  928MOL0     H25218   5.129  11.243  11.039 -1.4940  2.7941 -0.3333
  928MOL0     H25219   5.165  11.351  10.759 -0.4140  0.8716  0.1591
  928MOL0     H25220   5.307  11.296  10.820  0.3369  2.5468 -3.4283
  928MOL0     H25221   5.116  11.477  10.978  0.0575  0.9439 -0.8914
  928MOL0     H25222   5.263  11.419  11.042 -0.0398 -4.2634  0.4731
  928MOL0     H25223   5.276  11.563  10.762 -0.0134  0.0276 -0.1123
  928MOL0     H25224   5.248  11.650  10.916 -2.9429 -1.5257  1.4230
  928MOL0     H25225   5.461  11.499  10.992 -3.9429 -2.3335 -0.4484
  928MOL0     H25226   5.463  11.452  10.814 -2.7470  0.4701 -0.8690
  928MOL0     H25227   5.538  11.707  10.961 -2.2976  0.0679  1.0883
  928MOL0     H25228   5.478  11.723  10.799 -1.8180 -2.4832 -1.0080
  928MOL0     H25229   5.672  11.543  10.741  0.2156  0.2680 -0.7098
  928MOL0     H25230   5.724  11.706  10.769  2.1473 -0.1855 -1.5773
  928MOL0     H25231   5.668  11.584  11.123 -0.0966  0.3544  0.5329
  928MOL0     H25232   5.822  11.402  11.318  1.0465 -1.6049  1.2431
  928MOL0     H25233   5.951  11.326  11.218 -2.8309 -1.4437  0.0711
  928MOL0     H25234   6.100  11.465  11.266 -0.6188  1.3426 -2.1022
  928MOL0     H25235   6.002  11.613  11.286 -1.3730 -0.0473  2.6209
  928MOL0     H25236   6.002  11.408  11.505 -0.9688  0.5137  2.1402
  928MOL0     H25237   5.925  11.566  11.501  0.1450 -0.8404 -1.4697
  928MOL0     H25238   6.224  11.489  11.471  0.6791  1.8642 -0.1248
  928MOL0     H25239   6.150  11.553  11.622  0.9047  1.2063  0.7084
  928MOL0     H25240   6.281  11.754  11.234 -1.1428  2.8591 -0.6025
  928MOL0     H25241   6.493  11.798  11.189 -5.1020  0.4070 -0.7221
  928MOL0     H25242   6.915  12.010  11.345 -3.1114 -2.6650 -0.2406
  928MOL0     H25243   7.162  12.058  11.318  0.4903  2.1296  1.9146
  928MOL0     H25244   7.364  11.978  11.199  3.0156 -3.0122 -1.3618
  928MOL0     H25245   7.363  12.080  11.333  0.1420  0.7548 -2.7775
  928MOL0     H25246   7.588  12.007  11.390 -1.7583  0.8354  1.2810
  928MOL0     H25247   7.573  11.853  11.290  3.5496  1.8183 -1.0451
  928MOL0     H25248   7.575  11.952  11.085  0.1410 -1.4122  2.0089
  928MOL0     H25249   7.559  12.114  11.144 -0.8458 -0.4115  0.1861
  928MOL0     H25250   7.806  11.951  11.238 -2.3430 -2.0013 -0.9081
  928MOL0     H25251   7.756  12.113  11.267 -1.3840 -1.3437  0.3586
  928MOL0     H25252   7.765  12.171  11.027  0.4683  1.1542  0.0957
  928MOL0     H25253   7.800  11.996  10.992  1.3952 -2.2696  3.1429
  928MOL0     H25254   7.981  12.214  11.101  0.9971  0.7732 -2.6471
  928MOL0     H25255   8.026  12.046  11.120  5.6288  4.5080  0.4422
  928MOL0     H25256   8.005  12.214  10.882  1.8323  1.4766  1.0815
  928MOL0     H25257   7.976  12.042  10.861  0.8556 -3.9026  2.1281
  928MOL0     H25258   8.216  11.999  10.973 -0.8153 -1.0520 -0.9091
  928MOL0     H25259   8.209  12.079  10.821 -3.0588 -1.7039 -0.6264
  928MOL0     H25260   7.242  11.721  11.552 -1.0153  2.1422  2.9789
  928MOL0     H25261   6.990  11.684  11.586 -1.4406 -0.8742 -1.5353
  928MOL0     H25262   6.599  11.758  11.606  2.2939 -1.9011 -0.5410
  928MOL0     H25263   6.391  11.671  11.649  1.5326  0.0657 -0.1391
  928MOL0     H25264   4.928  11.066  11.223 -0.4501 -0.3688  0.2482
  928MOL0     H25265   5.006  10.863  11.297  1.1142  0.5980  0.4427
  928MOL0     H25266   5.178  10.441  11.061 -0.1857 -1.5074 -1.2987
  928MOL0     H25267   5.264  10.228  11.082  0.7051 -1.7065  1.1974
  928MOL0     H25268   5.401  10.052  11.167 -1.4522  0.8185 -2.3714
  928MOL0     H25269   5.247   9.966  11.131  2.5539 -1.2501 -1.6245
  928MOL0     H25270   5.287   9.845  11.344  0.2858  0.9846  0.5073
  928MOL0     H25271   5.452   9.897  11.339 -0.0944 -1.4467 -0.2884
  928MOL0     H25272   5.325   9.739  11.137  0.9269 -0.4356  0.5102
  928MOL0     H25273   5.439   9.656  11.252 -0.5309 -0.3028  1.3906
  928MOL0     H25274   5.521   9.862  11.049 -1.8857  0.1061 -1.6313
  928MOL0     H25275   5.619   9.800  11.190 -0.9460  1.7659 -0.6618
  928MOL0     H25276   5.687   9.466  10.954  6.0093  2.5297  0.6847
  928MOL0     H25277   5.108  10.189  11.479 -1.9568  0.3428 -0.5094
  928MOL0     H25278   4.933  10.496  11.448  2.8076  3.8364  0.4663
  928MOL0     H25279   4.967  10.368  11.571 -0.9165 -0.0876  1.1434
  928MOL0     H25280   5.061  10.517  11.554 -1.2925 -1.8017  2.3348
  929MOL0     O25281   8.935  10.666   9.022 -0.0239  0.3584 -0.1934
  929MOL0     C25282   8.956  10.769   9.091 -0.4831 -0.3474  0.0174
  929MOL0     O25283   9.073  10.848   9.077 -0.2283  0.3946 -0.4163
  929MOL0     C25284   9.168  10.843   8.974  0.4023 -0.6388  0.8823
  929MOL0     C25285   9.210  10.973   8.942 -0.6291  0.4672 -0.6805
  929MOL0     C25286   9.316  10.977   8.845  0.1377  0.3226  0.3132
  929MOL0     C25287   9.390  10.862   8.803  0.8713  1.5072  0.5179
  929MOL0     O25288   9.491  10.851   8.711 -0.2730 -0.7994 -0.5045
  929MOL0     C25289   9.555  10.975   8.666 -1.1983 -0.0035  0.1702
  929MOL0     C25290   9.479  11.053   8.561  0.7651 -0.0341  1.2237
  929MOL0     C25291   9.564  11.154   8.481  0.3282 -0.3364 -0.0273
  929MOL0     C25292   9.463  11.236   8.396 -0.4111  0.0047  0.4830
  929MOL0     C25293   9.535  11.330   8.300  0.0124  0.0056  1.7298
  929MOL0     C25294   9.429  11.375   8.198 -0.3290 -0.8035  0.2160
  929MOL0     C25295   9.423  11.287   8.075  0.1794 -0.9167  0.5525
  929MOL0     C25296   9.355  11.368   7.964 -0.4936 -0.4142  0.5703
  929MOL0     N25297   9.430  11.480   7.907 -0.5945 -0.9418  0.5279
  929MOL0     C25298   9.564  11.482   7.903 -0.1220  0.7881 -0.0436
  929MOL0     C25299   9.598  11.608   7.868  0.1660  0.0638  1.2344
  929MOL0     C25300   9.735  11.669   7.856 -0.0633  0.1554  0.7758
  929MOL0     C25301   9.816  11.617   7.733 -0.2981 -0.1534 -0.4288
  929MOL0     C25302   9.929  11.721   7.701  0.5758 -0.0260  0.0047
  929MOL0     C25303  10.013  11.670   7.582 -0.6285 -1.2902  0.0968
  929MOL0     O25304  10.109  11.773   7.552 -0.0276 -0.5772 -0.4504
  929MOL0     C25305  10.244  11.773   7.571 -0.0468 -0.6834  1.0203
  929MOL0     C25306  10.303  11.721   7.687 -0.1849 -0.0375 -0.5203
  929MOL0     C25307  10.441  11.712   7.681 -0.4298 -0.7873  0.4028
  929MOL0     C25308  10.522  11.750   7.570  0.2035  0.4220 -1.0168
  929MOL0     C25309  10.666  11.748   7.584  0.5869 -0.2925  0.2817
  929MOL0     O25310  10.730  11.812   7.483  0.1800  0.4807  0.4650
  929MOL0     C25311  10.858  11.844   7.497 -0.9857 -0.2106 -0.6321
  929MOL0     C25312  10.898  11.955   7.571  1.3728  0.6070 -0.4605
  929MOL0     C25313  11.038  11.971   7.593 -0.3378  0.2894 -0.4692
  929MOL0     C25314  11.145  11.889   7.532 -0.5577  0.2371  0.0437
  929MOL0     O25315  11.285  11.902   7.556  0.5114 -0.6839  0.1347
  929MOL0     C25316  11.332  12.010   7.640  0.4338  0.1015  0.8695
  929MOL0     C25317  11.484  12.001   7.636  0.0925  0.1104 -0.4443
  929MOL0     C25318  11.539  12.106   7.740 -0.6157  0.1858  0.2266
  929MOL0     C25319  11.681  12.136   7.720 -1.0653 -0.2597 -0.5863
  929MOL0     C25320  11.722  12.223   7.603 -0.9121 -0.0791  0.1230
  929MOL0     C25321  11.688  12.363   7.616  0.1996  0.0940  0.7659
  929MOL0     C25322  11.718  12.449   7.485  0.2630  0.9019 -0.3054
  929MOL0     C25323  11.610  12.426   7.380  0.2047 -0.7643 -0.4184
  929MOL0    Cl25324  11.624  12.561   7.272  0.2157 -0.6023  0.2015
  929MOL0     C25325  11.092  11.793   7.442 -0.0028 -0.9667  0.2722
  929MOL0     C25326  10.954  11.762   7.433  0.3801  0.2457 -0.3690
  929MOL0     O25327  10.718  11.709   7.686 -0.6845 -0.1156 -0.3875
  929MOL0     C25328  10.452  11.813   7.462  0.7252  0.8184 -0.3569
  929MOL0     C25329  10.313  11.831   7.461  0.1997  1.0884  1.0700
  929MOL0     N25330   9.480  11.673   7.849  0.8704 -0.3556 -1.0306
  929MOL0     N25331   9.376  11.600   7.881 -0.5512 -0.3118 -0.0611
  929MOL0     C25332   9.342  10.735   8.848  0.4099 -0.3091 -0.6082
  929MOL0     C25333   9.220  10.734   8.924 -1.0843  0.7416 -0.2771
  929MOL0     C25334   8.855  10.810   9.188 -0.7294  0.4282 -0.0489
  929MOL0     C25335   8.897  10.817   9.318  0.2015 -0.0836  0.7970
  929MOL0     C25336   8.800  10.853   9.410 -0.3760 -0.2657  0.3256
  929MOL0     C25337   8.673  10.900   9.377 -0.1560  0.0124  0.9306
  929MOL0     O25338   8.577  10.944   9.464  0.1236  0.1472  0.8666
  929MOL0     C25339   8.611  10.956   9.596 -0.6348 -0.0596  0.1550
  929MOL0     C25340   8.529  11.073   9.654 -0.4668  0.8718 -0.5451
  929MOL0     C25341   8.604  11.200   9.640 -0.4302 -0.8597 -0.0444
  929MOL0     C25342   8.687  11.236   9.775 -0.2023  0.6462  0.1356
  929MOL0     C25343   8.737  11.374   9.752 -0.4046 -0.0470 -0.4528
  929MOL0     C25344   8.784  11.481   9.740  1.0830  0.2522 -0.2751
  929MOL0     C25345   8.637  10.901   9.247 -0.0487  0.5969  0.5834
  929MOL0     C25346   8.733  10.862   9.146  0.3479 -0.5377 -0.7763
  929MOL0     C25347   8.684  10.850   9.006 -0.1920 -0.8614  0.3377
  929MOL0     H25348   9.160  11.063   8.977 -0.1009  0.8919 -1.0071
  929MOL0     H25349   9.359  11.071   8.811 -0.5683  0.4429 -0.2584
  929MOL0     H25350   9.584  11.038   8.751  0.2714  0.9879 -1.0196
  929MOL0     H25351   9.651  10.937   8.629  0.0783  0.5665  2.6619
  929MOL0     H25352   9.399  11.108   8.611 -1.2363  0.8641 -2.5856
  929MOL0     H25353   9.436  10.984   8.489  0.2451  1.0125  0.5055
  929MOL0     H25354   9.634  11.101   8.415  1.9936  1.3447  0.2921
  929MOL0     H25355   9.631  11.204   8.551 -2.6553 -1.0635  3.6522
  929MOL0     H25356   9.398  11.171   8.337  0.3811 -0.8683  0.5557
  929MOL0     H25357   9.398  11.296   8.460 -0.8552 -2.2175  2.2182
  929MOL0     H25358   9.572  11.416   8.356 -0.2807  0.0616  1.8382
  929MOL0     H25359   9.605  11.275   8.238 -0.4949  0.0189  1.1340
  929MOL0     H25360   9.333  11.379   8.250  0.1365 -3.1197  1.4168
  929MOL0     H25361   9.449  11.476   8.161 -1.7853 -0.1322  1.1693
  929MOL0     H25362   9.373  11.193   8.098  1.3778 -2.1310 -1.5063
  929MOL0     H25363   9.518  11.249   8.037 -1.1718 -2.0300 -1.9323
  929MOL0     H25364   9.340  11.304   7.877  1.1902  0.7194 -0.6239
  929MOL0     H25365   9.257  11.395   8.004 -0.0490  1.1776  0.6458
  929MOL0     H25366   9.641  11.412   7.934 -2.0756 -0.8297  1.4417
  929MOL0     H25367   9.697  11.771   7.846 -3.1763 -1.1336 -3.3368
  929MOL0     H25368   9.796  11.649   7.945 -0.4959 -2.2912  0.5842
  929MOL0     H25369   9.863  11.523   7.762  1.1996  0.2522 -1.3903
  929MOL0     H25370   9.754  11.608   7.644 -0.7249  0.9942 -0.2682
  929MOL0     H25371   9.996  11.732   7.787  0.9882  1.4228 -0.4739
  929MOL0     H25372   9.885  11.819   7.684  0.0643 -0.3204 -0.4089
  929MOL0     H25373   9.950  11.652   7.494 -1.0728 -0.7361  0.2916
  929MOL0     H25374  10.055  11.574   7.612 -1.1318 -1.5375  0.0222
  929MOL0     H25375  10.251  11.690   7.777  3.0360 -1.6436  0.9748
  929MOL0     H25376  10.494  11.654   7.755  1.4336  1.3401  0.8395
  929MOL0     H25377  10.830  12.037   7.594  1.3974  0.4121  0.3280
  929MOL0     H25378  11.078  12.048   7.658  2.0079 -1.7258  0.6606
  929MOL0     H25379  11.313  12.108   7.597  2.7264  0.6293  0.9269
  929MOL0     H25380  11.286  12.012   7.740  1.6365  0.1920  1.4445
  929MOL0     H25381  11.512  11.901   7.671  0.3870  1.0293  2.1970
  929MOL0     H25382  11.525  12.017   7.535 -3.8972 -1.7516 -2.5785
  929MOL0     H25383  11.481  12.198   7.733  0.6604  0.9777 -0.2416
  929MOL0     H25384  11.515  12.078   7.843  3.3375 -2.0635  0.7740
  929MOL0     H25385  11.733  12.039   7.717  0.2767  0.4135 -0.2322
  929MOL0     H25386  11.709  12.192   7.810 -2.7281 -1.6500  0.8660
  929MOL0     H25387  11.680  12.186   7.509  0.3044  0.9780 -0.8702
  929MOL0     H25388  11.830  12.208   7.597 -0.9106  0.1956 -0.6752
  929MOL0     H25389  11.588  12.390   7.652 -0.0818  0.4239 -0.2184
  929MOL0     H25390  11.752  12.396   7.699  2.4081 -0.4052 -0.6770
  929MOL0     H25391  11.815  12.423   7.442 -1.4029 -0.5165 -3.5024
  929MOL0     H25392  11.725  12.554   7.516  1.1572  1.0790 -1.0640
  929MOL0     H25393  11.633  12.335   7.324 -0.4030 -1.7666  0.9093
  929MOL0     H25394  11.509  12.426   7.421  0.4675  1.6331  0.3924
  929MOL0     H25395  11.161  11.745   7.374  0.3850 -0.7043  0.4834
  929MOL0     H25396  10.928  11.691   7.355 -1.5866  3.2821 -2.6668
  929MOL0     H25397  10.505  11.838   7.370  1.2348 -0.5084 -0.4500
  929MOL0     H25398  10.257  11.864   7.374  1.3942  2.0343  0.6459
  929MOL0     H25399   9.389  10.643   8.814  1.4888 -0.8691  2.1768
  929MOL0     H25400   9.193  10.634   8.957 -1.9657  1.0007 -0.2069
  929MOL0     H25401   8.993  10.783   9.355  0.4218 -2.7007 -1.8034
  929MOL0     H25402   8.842  10.870   9.509 -3.6699 -1.3870  2.1045
  929MOL0     H25403   8.718  10.976   9.611 -1.0692  1.7519  1.2073
  929MOL0     H25404   8.595  10.868   9.658 -0.9627  0.0020  0.1560
  929MOL0     H25405   8.528  11.055   9.762 -3.2599  2.5258 -0.1928
  929MOL0     H25406   8.426  11.073   9.618  0.9449  0.9251 -5.3180
  929MOL0     H25407   8.534  11.283   9.623 -0.7793 -1.3196 -0.9363
  929MOL0     H25408   8.667  11.207   9.551 -0.2019  0.4111  0.1850
  929MOL0     H25409   8.628  11.221   9.866  0.5504 -2.7074  0.1974
  929MOL0     H25410   8.772  11.167   9.782  0.2933  0.7177 -3.3150
  929MOL0     H25411   8.821  11.580   9.721  1.3571  0.5386  1.5205
  929MOL0     H25412   8.533  10.927   9.228 -1.0511 -2.4112  1.5277
  929MOL0     H25413   8.611  10.927   8.980  0.1528 -0.9863 -1.0952
  929MOL0     H25414   8.763  10.860   8.930  0.2752  0.1291  0.9276
  929MOL0     H25415   8.643  10.751   8.984 -0.9592  0.0766 -3.1615
  930MOL0     O25416   2.194   9.926   6.570 -0.6377 -0.7106  0.1053
  930MOL0     C25417   2.236   9.853   6.656  0.9438  0.4660  0.3054
  930MOL0     O25418   2.362   9.858   6.700 -0.0406  0.1511 -0.9460
  930MOL0     C25419   2.405   9.812   6.817  0.0147  0.8564  0.6254
  930MOL0     C25420   2.539   9.759   6.818 -0.0596  0.9982 -0.5948
  930MOL0     C25421   2.601   9.734   6.949  0.8731  0.4129  0.7477
  930MOL0     C25422   2.525   9.733   7.063  0.2320  0.8608  0.1207
  930MOL0     O25423   2.590   9.695   7.181  0.9118  0.9979 -0.4387
  930MOL0     C25424   2.520   9.669   7.296  0.4215 -0.1147  0.3918
  930MOL0     C25425   2.608   9.642   7.418 -0.5511  0.2515  0.8520
  930MOL0     C25426   2.664   9.492   7.411  0.3827 -0.3961 -0.3784
  930MOL0     C25427   2.575   9.390   7.479  0.4750 -0.0320 -0.8150
  930MOL0     C25428   2.635   9.252   7.481 -0.1124  0.4805  0.5731
  930MOL0     C25429   2.568   9.146   7.579 -0.1427  0.7022 -0.0762
  930MOL0     C25430   2.656   9.014   7.566 -0.3099 -0.1555  0.1529
  930MOL0     C25431   2.803   9.029   7.621 -0.0642  0.5113  0.3098
  930MOL0     N25432   2.813   9.053   7.767  0.1968 -0.0116  0.8079
  930MOL0     C25433   2.757   8.969   7.861  0.0266  0.4727 -0.2765
  930MOL0     C25434   2.771   9.025   7.988 -0.2572 -0.1078  1.2784
  930MOL0     C25435   2.738   8.967   8.121 -0.1523 -0.4341  0.4702
  930MOL0     C25436   2.692   9.064   8.224 -0.8852  0.4762 -0.1616
  930MOL0     C25437   2.548   9.118   8.214  0.5691  0.7522 -0.7135
  930MOL0     C25438   2.524   9.252   8.286 -0.5414  1.0040 -0.9197
  930MOL0     O25439   2.464   9.230   8.423  0.5248 -0.8143  0.2119
  930MOL0     C25440   2.334   9.188   8.442 -0.2402 -0.5393 -0.2075
  930MOL0     C25441   2.290   9.144   8.566  0.2252  0.3095  1.3708
  930MOL0     C25442   2.158   9.112   8.587 -0.4404 -0.7260  0.7025
  930MOL0     C25443   2.059   9.112   8.483  0.5932 -0.1031  0.1113
  930MOL0     C25444   1.927   9.055   8.500 -0.1217 -0.0837 -0.7691
  930MOL0     O25445   1.838   9.057   8.397  0.0473 -0.7449 -0.8102
  930MOL0     C25446   1.697   9.042   8.414 -0.8102  0.2343  0.2415
  930MOL0     C25447   1.643   9.096   8.525  0.6369  0.3903  0.5969
  930MOL0     C25448   1.511   9.104   8.533  0.2098  0.2769 -0.4263
  930MOL0     C25449   1.429   9.035   8.441 -0.8984 -0.8162  0.1208
  930MOL0     O25450   1.292   9.030   8.456 -0.1675 -0.1841  0.1114
  930MOL0     C25451   1.225   9.098   8.559 -0.2208  0.9817 -0.9344
  930MOL0     C25452   1.080   9.028   8.580 -0.3929 -0.3239 -0.0242
  930MOL0     C25453   0.976   9.118   8.660 -0.4245  0.1033 -0.0322
  930MOL0     C25454   0.855   9.054   8.714  1.2119 -0.4661  0.5238
  930MOL0     C25455   0.881   8.949   8.822 -0.3624  0.7302  0.3551
  930MOL0     C25456   0.746   8.875   8.841 -0.1226  0.5366 -0.0411
  930MOL0     C25457   0.744   8.758   8.930  0.1125 -0.3154 -0.9357
  930MOL0     C25458   0.608   8.687   8.941 -0.7573  0.6827  0.1863
  930MOL0    Cl25459   0.622   8.554   9.059  0.3976 -0.1917  0.1674
  930MOL0     C25460   1.489   8.966   8.338  0.3821 -0.0970 -0.1272
  930MOL0     C25461   1.625   8.974   8.324  0.2633 -0.0051 -0.1364
  930MOL0     O25462   1.899   9.012   8.618  0.6563  0.1089 -0.7981
  930MOL0     C25463   2.107   9.156   8.354  0.5757 -0.0235 -0.8245
  930MOL0     C25464   2.244   9.196   8.336  0.9016 -0.5048 -0.7012
  930MOL0     N25465   2.856   9.130   7.964  1.0875 -0.1174 -0.7083
  930MOL0     N25466   2.877   9.144   7.840 -0.5883 -1.3567  0.8427
  930MOL0     C25467   2.388   9.780   7.056  0.5224  0.0884 -0.0073
  930MOL0     C25468   2.335   9.824   6.932 -0.0228 -0.6095 -0.4370
  930MOL0     C25469   2.141   9.749   6.711  0.5343  0.3913 -0.1713
  930MOL0     C25470   2.181   9.615   6.709  0.2673 -0.1124  0.1888
  930MOL0     C25471   2.098   9.516   6.752 -0.3341 -1.1784  0.9041
  930MOL0     C25472   1.963   9.540   6.782  0.1009  0.4019  0.9179
  930MOL0     O25473   1.874   9.432   6.813 -0.4858 -0.7514 -0.1044
  930MOL0     C25474   1.917   9.298   6.795 -0.5778  0.2323  0.0455
  930MOL0     C25475   1.794   9.200   6.801 -0.2478 -0.1216 -0.1288
  930MOL0     C25476   1.720   9.190   6.661 -0.7902 -0.0625 -0.3610
  930MOL0     C25477   1.579   9.132   6.678 -0.6316  0.2469 -0.1664
  930MOL0     C25478   1.503   9.137   6.558 -0.2415 -0.2265 -0.4773
  930MOL0     C25479   1.431   9.130   6.457 -0.0683 -0.0645 -0.1133
  930MOL0     C25480   1.921   9.672   6.776  0.2917 -0.8613  0.5037
  930MOL0     C25481   1.999   9.785   6.740  0.3822 -0.0534 -0.2226
  930MOL0     C25482   1.936   9.921   6.729 -0.4904 -0.1463  0.0985
  930MOL0     H25483   2.598   9.734   6.730 -0.9417 -0.1935 -0.8630
  930MOL0     H25484   2.699   9.691   6.966  1.7994  1.3972 -1.5994
  930MOL0     H25485   2.465   9.760   7.323  3.2525  2.8064 -2.7751
  930MOL0     H25486   2.448   9.586   7.290  1.3989 -1.0959  1.6962
  930MOL0     H25487   2.561   9.681   7.509 -0.2081  5.5149 -0.9116
  930MOL0     H25488   2.699   9.699   7.396 -1.0928 -0.0882 -2.9150
  930MOL0     H25489   2.749   9.489   7.479 -2.1020  1.4195  3.0781
  930MOL0     H25490   2.676   9.458   7.307 -2.7176  2.2333 -1.7935
  930MOL0     H25491   2.557   9.422   7.583  2.8408  2.8171 -1.1455
  930MOL0     H25492   2.484   9.395   7.419 -2.0995  0.9415  2.7786
  930MOL0     H25493   2.633   9.215   7.378 -2.0438  0.7003  0.4976
  930MOL0     H25494   2.739   9.277   7.501  0.2426  1.7231 -2.4025
  930MOL0     H25495   2.575   9.185   7.681 -0.0385 -2.0277  1.0524
  930MOL0     H25496   2.463   9.130   7.550 -0.6093 -0.7695  2.1216
  930MOL0     H25497   2.655   8.983   7.461 -0.6605 -1.5590  0.5404
  930MOL0     H25498   2.612   8.926   7.615 -0.6639  0.6185  1.2670
  930MOL0     H25499   2.851   8.934   7.595 -1.2331 -0.4532  1.5581
  930MOL0     H25500   2.859   9.107   7.569  0.0294  0.5649  0.4912
  930MOL0     H25501   2.706   8.874   7.845  0.2503  0.5335 -1.4575
  930MOL0     H25502   2.667   8.884   8.119  0.3830 -1.0379  2.9021
  930MOL0     H25503   2.836   8.925   8.146  0.3906  0.7755  0.4270
  930MOL0     H25504   2.706   9.020   8.324 -1.1070  0.2389 -0.2331
  930MOL0     H25505   2.767   9.143   8.221 -1.1759  0.8009 -3.9769
  930MOL0     H25506   2.481   9.033   8.223  3.0353 -1.5156 -2.2922
  930MOL0     H25507   2.540   9.156   8.112  0.4838 -2.5347 -2.0320
  930MOL0     H25508   2.468   9.325   8.228 -0.8475  0.7988 -0.8889
  930MOL0     H25509   2.619   9.298   8.313 -0.7591  1.0228 -0.1538
  930MOL0     H25510   2.362   9.148   8.647 -0.8510  0.3398  2.3599
  930MOL0     H25511   2.139   9.070   8.685  2.8612  0.4487  1.9645
  930MOL0     H25512   1.709   9.136   8.601 -0.6571  0.0305  1.9655
  930MOL0     H25513   1.462   9.161   8.612  0.6536 -2.0532  1.6618
  930MOL0     H25514   1.276   9.096   8.656  1.2500  2.1755 -1.6426
  930MOL0     H25515   1.196   9.201   8.535 -1.4773  1.6648  2.7414
  930MOL0     H25516   1.037   9.003   8.483  0.0442  0.6330 -0.4720
  930MOL0     H25517   1.085   8.935   8.637 -0.2231 -1.1277 -1.3067
  930MOL0     H25518   1.022   9.171   8.743  0.1441  0.8252 -0.7838
  930MOL0     H25519   0.945   9.200   8.594 -3.4146  1.0310  2.2656
  930MOL0     H25520   0.795   9.010   8.635  1.3095 -1.3907  0.9521
  930MOL0     H25521   0.794   9.136   8.755  1.3447 -0.6676  1.1357
  930MOL0     H25522   0.910   8.996   8.916 -0.7693 -2.1122  2.0213
  930MOL0     H25523   0.957   8.873   8.803 -1.0812 -0.1512  0.8866
  930MOL0     H25524   0.667   8.948   8.861  1.0466  2.4466 -2.0010
  930MOL0     H25525   0.710   8.831   8.748 -1.1582  1.5845 -0.1514
  930MOL0     H25526   0.768   8.794   9.030 -0.4147  1.4595 -1.4232
  930MOL0     H25527   0.807   8.673   8.902  0.4554 -0.9034  1.4538
  930MOL0     H25528   0.538   8.761   8.982 -3.1988 -0.8518 -0.9611
  930MOL0     H25529   0.569   8.654   8.844 -0.9032  1.3854 -0.0044
  930MOL0     H25530   1.423   8.916   8.267 -0.1018  0.2905  0.0414
  930MOL0     H25531   1.683   8.921   8.249 -0.5274  0.1013 -0.8390
  930MOL0     H25532   2.045   9.171   8.266 -0.6756  3.4780  0.4792
  930MOL0     H25533   2.271   9.230   8.236  1.4779  3.0378  0.4997
  930MOL0     H25534   2.324   9.783   7.144 -2.1251 -0.0876 -1.7842
  930MOL0     H25535   2.235   9.866   6.940  0.0588 -0.6317  0.9884
  930MOL0     H25536   2.281   9.600   6.670  0.2659  1.2557 -0.3913
  930MOL0     H25537   2.148   9.422   6.777  0.6428 -0.8413  0.2739
  930MOL0     H25538   1.991   9.277   6.872 -1.2798  1.2300  1.0257
  930MOL0     H25539   1.967   9.286   6.698 -3.2221  3.4921 -1.9388
  930MOL0     H25540   1.748   9.215   6.899  4.2100 -1.8533  2.5411
  930MOL0     H25541   1.828   9.096   6.810 -0.5568 -0.1709  0.5113
  930MOL0     H25542   1.770   9.123   6.590  0.8534  2.9854 -2.2814
  930MOL0     H25543   1.713   9.276   6.594 -0.2237 -0.7930 -1.3771
  930MOL0     H25544   1.578   9.029   6.716 -0.6824 -0.9057 -3.0277
  930MOL0     H25545   1.524   9.196   6.747 -1.1751  1.4443 -1.6413
  930MOL0     H25546   1.356   9.135   6.381 -0.1472  0.1775 -0.0214
  930MOL0     H25547   1.815   9.683   6.796  0.6690 -1.6709  3.3419
  930MOL0     H25548   1.840   9.916   6.782 -0.7614  0.3566 -0.3431
  930MOL0     H25549   1.988   9.990   6.796  1.0118 -1.2029  0.0841
  930MOL0     H25550   1.933   9.960   6.627  0.1514  1.4795  0.6697
  931MOL0     O25551   1.172   2.870   6.245  0.4472  0.1617 -0.3382
  931MOL0     C25552   1.123   2.906   6.355  0.0649 -1.0095  0.3148
  931MOL0     O25553   1.048   3.019   6.379 -0.4371 -0.1754  1.0278
  931MOL0     C25554   1.006   3.105   6.285 -0.1184 -0.0219 -0.0763
  931MOL0     C25555   0.945   3.063   6.170 -0.7481 -0.9674  0.4725
  931MOL0     C25556   0.896   3.161   6.082 -1.0718 -0.1208 -0.6721
  931MOL0     C25557   0.918   3.292   6.094 -0.2735  0.0283 -0.5980
  931MOL0     O25558   0.883   3.387   6.009  0.9615 -0.2534  0.1319
  931MOL0     C25559   0.842   3.369   5.871  0.8211 -0.5004  0.3022
  931MOL0     C25560   0.949   3.318   5.769 -0.0532 -0.0905 -0.5945
  931MOL0     C25561   1.086   3.389   5.784 -0.4090 -0.3484  0.6482
  931MOL0     C25562   1.188   3.328   5.680  0.5893 -0.1142  0.2225
  931MOL0     C25563   1.320   3.416   5.665  0.5690  0.6555  0.3358
  931MOL0     C25564   1.287   3.545   5.572 -0.1835 -0.1016  0.2031
  931MOL0     C25565   1.405   3.624   5.526 -0.7463 -0.4711  0.1180
  931MOL0     C25566   1.476   3.683   5.648 -0.6803  0.2295 -0.3046
  931MOL0     N25567   1.414   3.797   5.731  0.6086  0.1922  0.3446
  931MOL0     C25568   1.424   3.924   5.687 -0.0001 -0.6585 -0.5619
  931MOL0     C25569   1.335   3.992   5.762 -0.6401  0.1773 -0.4015
  931MOL0     C25570   1.319   4.143   5.778 -0.1075 -0.7023  0.0073
  931MOL0     C25571   1.304   4.196   5.635  0.3875 -0.1119 -0.1800
  931MOL0     C25572   1.152   4.230   5.615 -0.0979 -0.7975 -0.1017
  931MOL0     C25573   1.069   4.105   5.587 -0.0452  0.0300  0.3058
  931MOL0     O25574   1.118   4.020   5.480  0.1394  0.0511 -0.7466
  931MOL0     C25575   1.047   3.896   5.466 -0.8865  0.2391  0.8951
  931MOL0     C25576   0.917   3.884   5.514  0.8266 -0.0324 -0.6074
  931MOL0     C25577   0.845   3.761   5.503 -0.2130 -0.4983  0.0246
  931MOL0     C25578   0.899   3.668   5.403  0.2055  0.2978 -0.0622
  931MOL0     C25579   0.838   3.538   5.379  0.0813 -0.2623 -0.4119
  931MOL0     O25580   0.748   3.513   5.482  0.4967  0.2931  0.7805
  931MOL0     C25581   0.671   3.394   5.468 -1.1765  1.3769  0.3779
  931MOL0     C25582   0.722   3.266   5.435  1.0016 -0.2364  0.1586
  931MOL0     C25583   0.639   3.149   5.424  0.6960 -0.2426 -0.1108
  931MOL0     C25584   0.502   3.158   5.458  0.7928 -0.6104 -0.8890
  931MOL0     O25585   0.440   3.039   5.470  1.0282 -0.5046  0.1375
  931MOL0     C25586   0.293   3.037   5.444 -0.2867  0.6750 -0.9435
  931MOL0     C25587   0.229   2.895   5.470  0.2235  0.0520 -0.1637
  931MOL0     C25588   0.208   2.869   5.617  0.3771  0.3924 -0.0674
  931MOL0     C25589   0.077   2.913   5.682  0.5376 -0.0128  0.8630
  931MOL0     C25590  -0.046   2.833   5.626 -0.0402  0.0034  1.0867
  931MOL0     C25591  -0.182   2.889   5.671 -0.9724  0.0205  1.0070
  931MOL0     C25592  -0.304   2.829   5.597  0.0396  0.7575  0.2303
  931MOL0     C25593  -0.284   2.798   5.448 -0.1644 -0.1509  0.7348
  931MOL0    Cl25594  -0.240   2.941   5.375 -0.4287  0.3004 -0.1256
  931MOL0     C25595   0.448   3.286   5.475 -0.0145 -0.6567 -0.3568
  931MOL0     C25596   0.532   3.402   5.479  0.3717  1.1004 -1.2250
  931MOL0     O25597   0.855   3.478   5.273 -0.0647  0.1850  0.0455
  931MOL0     C25598   1.023   3.700   5.328 -0.2209  0.3232  0.1046
  931MOL0     C25599   1.102   3.804   5.367  0.5172 -0.5930 -0.1064
  931MOL0     N25600   1.280   3.905   5.854  0.2653 -0.8804  0.0562
  931MOL0     N25601   1.326   3.789   5.837 -0.5137  0.3300  0.4319
  931MOL0     C25602   0.985   3.332   6.206  0.9157 -1.1782  0.4396
  931MOL0     C25603   1.029   3.248   6.305 -0.7170  0.1413  0.1548
  931MOL0     C25604   1.186   2.844   6.478 -0.0760  0.5231 -0.6222
  931MOL0     C25605   1.327   2.833   6.480 -0.1205 -0.3688 -0.7220
  931MOL0     C25606   1.394   2.809   6.593  0.0976 -0.0946 -0.7938
  931MOL0     C25607   1.335   2.774   6.715  1.3674 -0.2804  0.9646
  931MOL0     O25608   1.417   2.730   6.819  0.9485 -0.1290  0.6131
  931MOL0     C25609   1.364   2.658   6.929 -0.9742  0.6358 -0.4500
  931MOL0     C25610   1.484   2.620   7.020  0.3350  0.3145  0.4429
  931MOL0     C25611   1.553   2.748   7.067 -0.8594  0.3372  0.0840
  931MOL0     C25612   1.673   2.734   7.160  0.3819 -0.8167 -1.3725
  931MOL0     C25613   1.765   2.628   7.113  0.0994 -1.3766  0.5197
  931MOL0     C25614   1.832   2.538   7.081  0.5207  0.2034 -0.2338
  931MOL0     C25615   1.188   2.771   6.718 -0.4121 -0.1775 -0.2390
  931MOL0     C25616   1.113   2.813   6.603 -0.4984  0.6270  0.4422
  931MOL0     C25617   0.968   2.834   6.622 -0.1730 -1.3045  0.8972
  931MOL0     H25618   0.953   2.956   6.154  1.9056 -1.3378  3.3317
  931MOL0     H25619   0.862   3.112   5.991  1.1550 -0.4667 -1.3835
  931MOL0     H25620   0.763   3.293   5.875  0.5047 -0.2488 -0.6944
  931MOL0     H25621   0.794   3.464   5.843 -0.1218 -1.4998 -1.7283
  931MOL0     H25622   0.919   3.331   5.665  1.6229 -0.5198 -1.1587
  931MOL0     H25623   0.956   3.212   5.796 -1.0469  0.7529  3.8224
  931MOL0     H25624   1.126   3.390   5.885  1.8044  2.8677 -0.0964
  931MOL0     H25625   1.086   3.497   5.764  2.4023  0.6118  4.7740
  931MOL0     H25626   1.206   3.221   5.694  2.8727 -0.0165 -1.4417
  931MOL0     H25627   1.149   3.322   5.578  0.9323 -3.8816  0.1731
  931MOL0     H25628   1.346   3.433   5.770 -2.3501 -1.7672  1.5884
  931MOL0     H25629   1.398   3.349   5.626  1.3152  1.5676  0.2158
  931MOL0     H25630   1.224   3.511   5.489  1.7013 -1.0803 -0.9081
  931MOL0     H25631   1.235   3.620   5.632  2.5547  2.0360  0.0613
  931MOL0     H25632   1.380   3.698   5.450  0.0431 -0.4069 -0.0831
  931MOL0     H25633   1.475   3.554   5.480  1.5254  1.7409  0.0145
  931MOL0     H25634   1.512   3.602   5.711 -2.5125 -0.9159 -0.6532
  931MOL0     H25635   1.562   3.731   5.601  1.1862 -2.7635 -0.2050
  931MOL0     H25636   1.479   3.959   5.600 -2.3236 -0.7149 -2.1505
  931MOL0     H25637   1.231   4.171   5.836 -0.0440 -0.8042  0.1529
  931MOL0     H25638   1.410   4.181   5.825 -2.0410  0.1501  3.3844
  931MOL0     H25639   1.355   4.292   5.624 -0.6395  0.5016  0.3448
  931MOL0     H25640   1.337   4.135   5.550 -0.8903 -0.9291 -0.1250
  931MOL0     H25641   1.150   4.299   5.530  4.8719  0.4855  0.5272
  931MOL0     H25642   1.103   4.281   5.698 -0.8613 -0.7107 -0.5850
  931MOL0     H25643   0.964   4.131   5.572 -0.0338 -0.2223 -0.2510
  931MOL0     H25644   1.085   4.043   5.675 -2.4760 -1.0669  0.0329
  931MOL0     H25645   0.881   3.969   5.571  2.3981  2.2446 -2.8191
  931MOL0     H25646   0.752   3.750   5.558  0.9559  0.1408  2.2690
  931MOL0     H25647   0.829   3.253   5.429  1.0176  0.1721 -0.5655
  931MOL0     H25648   0.668   3.045   5.415 -1.5419 -0.8921 -0.3745
  931MOL0     H25649   0.241   3.115   5.500  2.3809  1.4872  0.5617
  931MOL0     H25650   0.283   3.065   5.338 -0.0804 -2.6567 -1.9813
  931MOL0     H25651   0.135   2.880   5.415 -0.6770 -0.9511  1.5708
  931MOL0     H25652   0.300   2.819   5.437  0.2842 -0.3726  0.8950
  931MOL0     H25653   0.209   2.762   5.640 -1.3670  0.8905  2.7285
  931MOL0     H25654   0.289   2.911   5.677 -0.1364 -1.7918  2.3770
  931MOL0     H25655   0.058   3.018   5.657  3.3581  0.1926 -0.8742
  931MOL0     H25656   0.084   2.911   5.791  3.6921  5.4419  1.0922
  931MOL0     H25657  -0.039   2.730   5.663 -0.5527 -0.4009  0.0870
  931MOL0     H25658  -0.032   2.834   5.518 -1.0487  0.8310  0.9546
  931MOL0     H25659  -0.195   2.872   5.779  1.3025 -1.3035  1.1452
  931MOL0     H25660  -0.186   2.995   5.643  3.7282 -0.5619 -3.3451
  931MOL0     H25661  -0.381   2.907   5.599  0.1932  0.8969  1.6651
  931MOL0     H25662  -0.349   2.750   5.657 -0.3594  0.2612 -0.7011
  931MOL0     H25663  -0.210   2.719   5.435 -0.3554 -0.2667  0.3093
  931MOL0     H25664  -0.381   2.759   5.416 -1.0172  1.1931  1.5798
  931MOL0     H25665   0.345   3.292   5.506  0.7589  0.7697  2.2324
  931MOL0     H25666   0.484   3.497   5.499 -1.2639  0.2062 -0.7823
  931MOL0     H25667   1.039   3.626   5.249 -1.8272 -0.3685  0.3839
  931MOL0     H25668   1.196   3.830   5.318  1.0140 -2.5159 -0.2608
  931MOL0     H25669   0.977   3.439   6.226  0.6795 -0.9543 -0.7367
  931MOL0     H25670   1.072   3.280   6.399 -1.5327  0.7871  0.3260
  931MOL0     H25671   1.396   2.857   6.400  1.6954 -2.1663  0.2295
  931MOL0     H25672   1.501   2.799   6.582  0.5860  2.8733  0.4006
  931MOL0     H25673   1.317   2.568   6.888  3.8087 -1.3440 -2.3370
  931MOL0     H25674   1.299   2.730   6.978 -1.2052  0.5365 -0.6112
  931MOL0     H25675   1.556   2.560   6.964 -0.5987 -1.5084  1.1111
  931MOL0     H25676   1.464   2.557   7.107  2.6389  2.1922  2.4795
  931MOL0     H25677   1.481   2.809   7.122  2.2095  1.9888  2.6322
  931MOL0     H25678   1.589   2.802   6.979  0.1506 -1.1201 -0.4369
  931MOL0     H25679   1.729   2.827   7.169 -0.1040 -0.7452  2.8867
  931MOL0     H25680   1.642   2.708   7.261  0.5409  2.2545 -0.4543
  931MOL0     H25681   1.892   2.452   7.054 -0.7939 -0.1950 -2.1007
  931MOL0     H25682   1.126   2.747   6.803  0.3782 -0.5310  0.2470
  931MOL0     H25683   0.927   2.746   6.673  0.4444 -1.4613  1.1379
  931MOL0     H25684   0.951   2.926   6.678 -0.8798  1.2884 -3.1728
  931MOL0     H25685   0.920   2.838   6.524  0.4355 -1.0857  0.6012
  932MOL0     O25686   4.300   1.541   8.592 -0.0521  0.0009 -0.4482
  932MOL0     C25687   4.422   1.520   8.597 -0.3818 -0.1692  0.2300
  932MOL0     O25688   4.501   1.575   8.694 -0.3831  0.2794 -0.1960
  932MOL0     C25689   4.478   1.710   8.721  0.0273  0.4754 -0.7548
  932MOL0     C25690   4.456   1.816   8.636  0.9818 -0.4382 -0.5241
  932MOL0     C25691   4.440   1.949   8.677  0.2244  0.2673 -0.0099
  932MOL0     C25692   4.451   1.982   8.814  0.6381 -0.0244 -1.4361
  932MOL0     O25693   4.461   2.112   8.858  0.2118 -0.2489  0.9102
  932MOL0     C25694   4.415   2.159   8.982  0.5510 -0.3161  0.0275
  932MOL0     C25695   4.525   2.151   9.088 -0.1940 -0.6315 -0.2516
  932MOL0     C25696   4.476   2.202   9.226 -0.0068  0.4277 -0.4538
  932MOL0     C25697   4.364   2.109   9.289 -0.5171  0.2884 -0.5105
  932MOL0     C25698   4.333   2.132   9.440  0.0805  0.8499  0.7055
  932MOL0     C25699   4.332   2.277   9.477 -0.0200  0.2271 -0.2203
  932MOL0     C25700   4.278   2.288   9.622 -0.6123  0.1146 -0.5673
  932MOL0     C25701   4.318   2.421   9.694 -1.2247 -0.0158  0.3021
  932MOL0     N25702   4.229   2.541   9.671  0.6682  0.4199 -0.0113
  932MOL0     C25703   4.244   2.673   9.699  0.1866 -0.6894 -0.4499
  932MOL0     C25704   4.116   2.726   9.696  0.2609  1.0283  0.7789
  932MOL0     C25705   4.085   2.868   9.732  0.2586  0.2857  0.0147
  932MOL0     C25706   4.155   2.977   9.651  0.8227 -0.2694 -0.3876
  932MOL0     C25707   4.162   2.964   9.496 -0.3419 -0.8509 -0.0412
  932MOL0     C25708   4.221   3.098   9.444  1.0910  0.1280 -0.0217
  932MOL0     O25709   4.113   3.195   9.447  0.4078 -0.6069  0.2568
  932MOL0     C25710   4.157   3.320   9.459 -0.3490  0.0647 -0.1355
  932MOL0     C25711   4.136   3.401   9.349  0.1809 -0.6941 -0.0924
  932MOL0     C25712   4.166   3.530   9.354 -0.1573 -1.0179  0.3080
  932MOL0     C25713   4.223   3.595   9.472 -0.7325  0.7236 -0.6307
  932MOL0     C25714   4.267   3.731   9.463 -0.0673 -0.0565 -0.0324
  932MOL0     O25715   4.213   3.798   9.362 -0.3549 -0.4590  0.8776
  932MOL0     C25716   4.247   3.931   9.357  0.2412 -0.7421  0.2146
  932MOL0     C25717   4.370   3.977   9.302  1.3189 -0.6432  0.2496
  932MOL0     C25718   4.402   4.116   9.295  0.1276 -0.1158 -0.1599
  932MOL0     C25719   4.312   4.213   9.349 -0.1688 -0.0359  0.2115
  932MOL0     O25720   4.364   4.345   9.339 -0.2421  0.4340 -0.3987
  932MOL0     C25721   4.269   4.452   9.359 -1.1369  0.5290 -0.0236
  932MOL0     C25722   4.337   4.576   9.314  0.2741 -0.0361 -0.6875
  932MOL0     C25723   4.469   4.608   9.380 -0.0153 -1.3213 -0.4830
  932MOL0     C25724   4.595   4.551   9.313  0.0033  0.4628  0.1922
  932MOL0     C25725   4.716   4.633   9.349 -0.9111 -0.8668 -0.1270
  932MOL0     C25726   4.776   4.593   9.478  0.1584 -0.2656 -0.1005
  932MOL0     C25727   4.868   4.700   9.516 -1.0913 -0.0140 -0.9755
  932MOL0     C25728   4.904   4.667   9.659  0.1330  0.1513  1.4121
  932MOL0    Cl25729   5.052   4.766   9.703  0.1453  0.2004  0.0588
  932MOL0     C25730   4.196   4.164   9.410  0.0807  0.4708 -0.8985
  932MOL0     C25731   4.168   4.026   9.424 -0.7232  0.2875  0.7567
  932MOL0     O25732   4.338   3.785   9.546  0.1422 -0.1038  0.5375
  932MOL0     C25733   4.254   3.510   9.579  0.1902 -0.5014  0.4411
  932MOL0     C25734   4.214   3.375   9.572  0.7919 -0.1914 -0.3494
  932MOL0     N25735   4.024   2.624   9.676 -0.2414  0.4270 -0.2774
  932MOL0     N25736   4.094   2.517   9.669  0.3492 -0.5824 -0.6204
  932MOL0     C25737   4.474   1.870   8.901 -0.0389 -0.6727  0.3073
  932MOL0     C25738   4.488   1.747   8.860  0.2575  0.0577  0.3045
  932MOL0     C25739   4.479   1.416   8.508 -0.5287  0.4197 -0.9117
  932MOL0     C25740   4.394   1.370   8.398 -0.0935 -1.4261  0.3271
  932MOL0     C25741   4.430   1.267   8.316 -0.1377 -0.0089  0.0566
  932MOL0     C25742   4.559   1.212   8.330 -0.0845 -0.6250  0.1508
  932MOL0     O25743   4.598   1.106   8.263  0.0661  0.0445 -0.0154
  932MOL0     C25744   4.621   0.979   8.332  1.0392 -0.1782  0.5034
  932MOL0     C25745   4.617   0.865   8.224 -0.3168  0.6652  0.2573
  932MOL0     C25746   4.592   0.729   8.291 -0.2066 -0.0021  0.3285
  932MOL0     C25747   4.564   0.625   8.183  0.5189  0.2823  0.0140
  932MOL0     C25748   4.476   0.510   8.229  0.0692 -0.9395  0.0901
  932MOL0     C25749   4.400   0.432   8.268  0.0058  0.6205  0.6755
  932MOL0     C25750   4.642   1.258   8.432 -0.0015  0.1904 -0.1370
  932MOL0     C25751   4.609   1.359   8.523  0.7703  1.0421 -0.4681
  932MOL0     C25752   4.705   1.388   8.632 -0.2938  0.4095 -0.1347
  932MOL0     H25753   4.433   1.792   8.533 -1.1589  1.1945 -0.4922
  932MOL0     H25754   4.431   2.033   8.610 -1.5779  0.1858  0.1061
  932MOL0     H25755   4.387   2.264   8.967  0.1121 -0.0686  2.3482
  932MOL0     H25756   4.321   2.114   9.013  1.4661 -1.1416  1.7069
  932MOL0     H25757   4.601   2.222   9.055 -2.5309  1.3487 -1.6632
  932MOL0     H25758   4.568   2.051   9.098 -0.2769 -1.1246 -3.7652
  932MOL0     H25759   4.439   2.305   9.223 -1.9033 -0.2395 -3.1959
  932MOL0     H25760   4.571   2.196   9.281 -0.3931 -1.2767  0.0940
  932MOL0     H25761   4.274   2.141   9.237 -0.1486  2.5047  0.0816
  932MOL0     H25762   4.375   2.001   9.277 -1.4794  0.0228  0.7793
  932MOL0     H25763   4.231   2.095   9.456  0.7549 -2.5040 -1.8125
  932MOL0     H25764   4.405   2.067   9.489  0.4779 -0.1697 -1.1418
  932MOL0     H25765   4.433   2.319   9.471 -0.9962  2.8295  0.2096
  932MOL0     H25766   4.273   2.338   9.408  0.9378  1.0012 -0.3688
  932MOL0     H25767   4.315   2.206   9.685 -0.3024 -1.3487 -2.5599
  932MOL0     H25768   4.169   2.277   9.626 -0.4615 -1.4365 -0.2295
  932MOL0     H25769   4.315   2.407   9.803 -0.7728 -2.4222  0.0590
  932MOL0     H25770   4.413   2.457   9.656 -0.5223 -1.1843  0.9042
  932MOL0     H25771   4.337   2.726   9.715 -0.2776 -0.3880  1.5886
  932MOL0     H25772   3.976   2.877   9.734  0.0335 -1.9125  1.1912
  932MOL0     H25773   4.118   2.885   9.835  0.6839 -0.3249 -0.0064
  932MOL0     H25774   4.117   3.074   9.683  0.3010 -0.9739  1.1908
  932MOL0     H25775   4.259   2.989   9.683  0.0173  0.9957  1.9676
  932MOL0     H25776   4.062   2.950   9.455 -1.6989  1.5288  2.1899
  932MOL0     H25777   4.220   2.878   9.460  1.0368  0.8546 -2.2183
  932MOL0     H25778   4.257   3.107   9.340 -0.5084 -0.8135 -0.6896
  932MOL0     H25779   4.308   3.122   9.506 -1.2868 -1.0352  4.1269
  932MOL0     H25780   4.090   3.363   9.258 -0.4664  2.8564 -1.4000
  932MOL0     H25781   4.140   3.592   9.268  1.3602 -2.2333 -1.0818
  932MOL0     H25782   4.443   3.905   9.267  0.2830 -1.5716 -0.0778
  932MOL0     H25783   4.499   4.145   9.254 -0.9267  0.7429 -2.1806
  932MOL0     H25784   4.184   4.426   9.296 -1.5107 -1.2720  1.1307
  932MOL0     H25785   4.245   4.470   9.464  2.3748  1.9256  0.6972
  932MOL0     H25786   4.341   4.580   9.205 -0.4863 -0.6527 -0.7471
  932MOL0     H25787   4.267   4.654   9.343  0.9162 -0.5362  2.5262
  932MOL0     H25788   4.481   4.717   9.386 -1.3618 -1.2304  2.1915
  932MOL0     H25789   4.463   4.584   9.486  1.2651 -0.4237 -0.1789
  932MOL0     H25790   4.585   4.528   9.207 -0.3606 -5.0106  1.1365
  932MOL0     H25791   4.594   4.449   9.350 -0.3703 -0.0983 -1.3002
  932MOL0     H25792   4.678   4.735   9.360  0.6086 -0.4607  1.9415
  932MOL0     H25793   4.789   4.645   9.268 -1.1705 -0.8596 -0.3571
  932MOL0     H25794   4.703   4.565   9.554  0.8956 -3.3849 -0.4026
  932MOL0     H25795   4.837   4.504   9.464  1.2084  0.6086 -1.3534
  932MOL0     H25796   4.828   4.801   9.507  1.9279  1.1652 -2.8620
  932MOL0     H25797   4.962   4.690   9.460 -1.4087 -1.2621 -1.3136
  932MOL0     H25798   4.820   4.691   9.725  2.0538  1.3625  3.5587
  932MOL0     H25799   4.939   4.564   9.659  1.2628  0.4881 -0.4542
  932MOL0     H25800   4.129   4.230   9.465 -1.0152  0.0510 -1.7016
  932MOL0     H25801   4.076   4.006   9.478 -0.5623  1.1255  1.3659
  932MOL0     H25802   4.296   3.568   9.660  0.1183  2.1016 -1.2428
  932MOL0     H25803   4.223   3.337   9.673  0.8773  0.4056 -0.1268
  932MOL0     H25804   4.492   1.892   9.006  1.4013 -0.5216  0.0391
  932MOL0     H25805   4.509   1.673   8.937 -1.8648 -0.2728  0.6225
  932MOL0     H25806   4.302   1.422   8.374 -0.2554 -1.9610 -0.2395
  932MOL0     H25807   4.355   1.234   8.244 -0.3523 -1.8531  1.0674
  932MOL0     H25808   4.543   0.957   8.406 -0.1610  0.5180 -0.5142
  932MOL0     H25809   4.724   0.976   8.368  1.7961  0.0507 -1.5103
  932MOL0     H25810   4.707   0.867   8.162 -1.2335 -2.7020 -1.4078
  932MOL0     H25811   4.535   0.890   8.157 -2.9735  0.9261  3.3685
  932MOL0     H25812   4.508   0.731   8.361  0.8371  0.8330  1.6255
  932MOL0     H25813   4.673   0.703   8.360  0.4292  3.3084  1.0063
  932MOL0     H25814   4.510   0.680   8.106  1.7647  0.5638 -0.6980
  932MOL0     H25815   4.661   0.590   8.144  1.7674  1.2721  2.0711
  932MOL0     H25816   4.324   0.369   8.308 -2.8792  1.9297 -2.2862
  932MOL0     H25817   4.732   1.199   8.447 -0.0759  0.2980  0.8003
  932MOL0     H25818   4.803   1.342   8.616 -0.8234 -1.2070  0.9603
  932MOL0     H25819   4.717   1.496   8.635 -0.9270  0.7252 -3.8839
  932MOL0     H25820   4.662   1.344   8.722 -0.2559 -0.6511 -0.6169
  933MOL0     O25821   5.131   0.544   8.248  0.7121  0.0655  0.0145
  933MOL0     C25822   5.016   0.544   8.196 -0.4193  0.2232  0.3531
  933MOL0     O25823   4.940   0.661   8.172  0.1808  0.5283 -0.1305
  933MOL0     C25824   4.996   0.777   8.207 -0.0424  0.2132 -0.5760
  933MOL0     C25825   5.054   0.849   8.106  0.7219 -0.6458 -0.2103
  933MOL0     C25826   5.080   0.988   8.140 -1.1980  0.3805 -0.8055
  933MOL0     C25827   5.079   1.042   8.273 -0.2798  0.4946  0.2661
  933MOL0     O25828   5.121   1.174   8.309  0.4342  0.4496  0.3791
  933MOL0     C25829   5.186   1.239   8.191 -0.8397 -0.1320 -0.3989
  933MOL0     C25830   5.261   1.361   8.239  0.0564  0.2476  0.0203
  933MOL0     C25831   5.172   1.491   8.222 -0.4034  0.1422  0.0159
  933MOL0     C25832   5.097   1.513   8.356 -0.6234 -0.1139  0.5567
  933MOL0     C25833   4.958   1.586   8.349 -0.5409  0.2950 -0.1001
  933MOL0     C25834   4.858   1.519   8.253  0.7116 -0.1037  0.3764
  933MOL0     C25835   4.737   1.615   8.257  0.0199  0.2454  0.7565
  933MOL0     C25836   4.610   1.577   8.166 -0.1244 -0.5208  0.8447
  933MOL0     N25837   4.509   1.686   8.182  0.4220 -0.5816 -0.6706
  933MOL0     C25838   4.436   1.728   8.077  0.0415 -0.9502 -0.5195
  933MOL0     C25839   4.374   1.838   8.137 -0.2303  0.7920 -0.3734
  933MOL0     C25840   4.285   1.927   8.057  0.1222 -1.8287 -0.1623
  933MOL0     C25841   4.359   2.050   7.982 -0.5972  1.4806 -0.0216
  933MOL0     C25842   4.272   2.140   7.902  0.2073  0.3533 -0.0893
  933MOL0     C25843   4.192   2.228   7.994  0.1619  1.3065  0.7012
  933MOL0     O25844   4.118   2.305   7.907  0.0055  0.5705  0.5435
  933MOL0     C25845   4.035   2.403   7.961  1.2157 -0.7512  0.2790
  933MOL0     C25846   3.992   2.487   7.870  0.3375 -0.5334 -0.9558
  933MOL0     C25847   3.938   2.614   7.907  0.2410  0.5773 -1.2571
  933MOL0     C25848   3.919   2.649   8.044 -0.3739 -0.7760  0.5858
  933MOL0     C25849   3.850   2.769   8.080  0.3169 -0.2218  0.2660
  933MOL0     O25850   3.774   2.771   8.204 -0.7038 -0.5222  1.7199
  933MOL0     C25851   3.677   2.872   8.219 -0.8092 -0.4974 -0.0115
  933MOL0     C25852   3.545   2.836   8.183  0.1911 -0.6218  0.4780
  933MOL0     C25853   3.438   2.932   8.181 -0.3341 -0.0048  0.5431
  933MOL0     C25854   3.475   3.065   8.217  0.2861  0.7303 -0.1529
  933MOL0     O25855   3.371   3.153   8.217  0.3903  0.0299  0.4795
  933MOL0     C25856   3.380   3.277   8.296  0.2123 -0.6411  0.1425
  933MOL0     C25857   3.250   3.361   8.269  0.1667 -0.3306  0.9703
  933MOL0     C25858   3.233   3.471   8.371  0.5070 -0.4508  0.1994
  933MOL0     C25859   3.144   3.416   8.491 -0.0937  0.2268 -0.1588
  933MOL0     C25860   3.046   3.526   8.555 -0.5088  0.9406 -0.7798
  933MOL0     C25861   2.943   3.472   8.652 -0.4517  0.3998 -0.1513
  933MOL0     C25862   3.007   3.431   8.785  0.0643 -0.0326  0.3164
  933MOL0     C25863   2.905   3.418   8.902 -0.3799 -0.0013 -0.5040
  933MOL0    Cl25864   2.849   3.580   8.956  0.4892  0.1812 -0.3398
  933MOL0     C25865   3.607   3.107   8.251  0.6642  0.4058  0.2332
  933MOL0     C25866   3.701   3.004   8.258 -0.3089 -0.6421  0.4424
  933MOL0     O25867   3.838   2.856   8.001 -0.3576  0.0991 -0.3915
  933MOL0     C25868   3.962   2.552   8.133  0.7046  0.2511 -0.9815
  933MOL0     C25869   4.018   2.430   8.098 -0.5929  0.5865  0.6738
  933MOL0     N25870   4.429   1.861   8.263  0.3344  0.9815  0.5656
  933MOL0     N25871   4.500   1.762   8.291 -0.1714  0.3736  0.0745
  933MOL0     C25872   5.030   0.953   8.369 -0.1133 -0.2392  0.6518
  933MOL0     C25873   4.983   0.824   8.344  0.2594 -0.6443 -0.1606
  933MOL0     C25874   4.967   0.426   8.148 -0.1464  0.2132  0.4759
  933MOL0     C25875   4.986   0.301   8.213 -0.7278  0.4466  0.2531
  933MOL0     C25876   4.939   0.185   8.161 -0.2579 -1.1557 -0.1482
  933MOL0     C25877   4.902   0.171   8.028  0.7008 -0.0865  0.3599
  933MOL0     O25878   4.857   0.053   7.978 -0.0769 -0.0067  0.3636
  933MOL0     C25879   4.812   0.046   7.838 -0.1608 -0.6876 -0.3450
  933MOL0     C25880   4.718  -0.077   7.812  1.0736 -0.2217 -0.1643
  933MOL0     C25881   4.645  -0.080   7.675 -0.0699 -0.0634  0.6385
  933MOL0     C25882   4.722  -0.154   7.576  1.1662  0.5904  0.0747
  933MOL0     C25883   4.668  -0.126   7.443  0.0976  0.6876 -0.0768
  933MOL0     C25884   4.626  -0.111   7.328 -1.1373  0.6185 -0.2845
  933MOL0     C25885   4.913   0.291   7.949  0.0363  0.2653 -0.9918
  933MOL0     C25886   4.933   0.417   8.010 -0.1235  0.5197  0.2067
  933MOL0     C25887   4.939   0.538   7.913  0.5043  1.1463 -0.2066
  933MOL0     H25888   5.064   0.816   8.003 -0.9221  0.2241 -0.7008
  933MOL0     H25889   5.087   1.056   8.056  2.9040 -0.5266 -1.4297
  933MOL0     H25890   5.259   1.176   8.138  1.1474  1.6040  0.1373
  933MOL0     H25891   5.114   1.266   8.113 -1.2130  1.5966  0.5009
  933MOL0     H25892   5.355   1.380   8.185  2.7920 -0.3869  4.1202
  933MOL0     H25893   5.289   1.351   8.344 -0.0278 -1.5026 -0.0817
  933MOL0     H25894   5.097   1.473   8.145 -1.3728 -1.8822  1.3681
  933MOL0     H25895   5.243   1.567   8.189 -0.1834  0.1327  0.4536
  933MOL0     H25896   5.075   1.425   8.418 -0.9460  1.0957  2.2121
  933MOL0     H25897   5.169   1.565   8.420  0.9277 -2.1944  0.5946
  933MOL0     H25898   4.921   1.593   8.452 -0.1288  0.1942  0.0607
  933MOL0     H25899   4.966   1.690   8.315  0.4139  0.5810  0.9237
  933MOL0     H25900   4.891   1.527   8.149 -1.0321  0.4065 -0.1752
  933MOL0     H25901   4.820   1.418   8.270  0.2473 -0.1768 -1.0102
  933MOL0     H25902   4.778   1.713   8.228 -0.8230  1.0597  2.1798
  933MOL0     H25903   4.697   1.623   8.359  2.0836  2.7854  1.4963
  933MOL0     H25904   4.635   1.571   8.060 -1.1595 -0.0219  0.5611
  933MOL0     H25905   4.557   1.488   8.200 -0.5154  0.4884  3.0968
  933MOL0     H25906   4.444   1.704   7.972  1.2314  3.3843 -1.6059
  933MOL0     H25907   4.234   1.865   7.982  1.3724 -0.4054 -2.2874
  933MOL0     H25908   4.202   1.956   8.123 -0.5564 -3.6321 -0.1582
  933MOL0     H25909   4.424   2.110   8.046 -0.4337  0.3177  0.9513
  933MOL0     H25910   4.430   2.002   7.915 -0.0843  3.0806 -0.6497
  933MOL0     H25911   4.207   2.071   7.847 -0.6194 -1.1961  2.6352
  933MOL0     H25912   4.322   2.206   7.831  0.6977  0.2377  0.1468
  933MOL0     H25913   4.264   2.284   8.054 -0.6411  4.3303 -0.9741
  933MOL0     H25914   4.128   2.170   8.061 -0.1412  1.6699  0.7248
  933MOL0     H25915   3.990   2.470   7.762  1.1590  3.5720 -1.7813
  933MOL0     H25916   3.898   2.676   7.827 -1.8652 -0.5539 -1.1481
  933MOL0     H25917   3.539   2.744   8.126 -2.0204 -1.1031  1.3865
  933MOL0     H25918   3.341   2.911   8.136  0.9320 -0.8380 -1.9720
  933MOL0     H25919   3.392   3.263   8.404 -0.9954  1.8765  0.6832
  933MOL0     H25920   3.469   3.329   8.259 -1.2922  2.9846  1.1044
  933MOL0     H25921   3.279   3.398   8.170  2.5381  0.6861  1.9755
  933MOL0     H25922   3.158   3.302   8.262 -0.1115  0.2311 -0.8036
  933MOL0     H25923   3.327   3.506   8.414  1.3085 -3.4388  1.0734
  933MOL0     H25924   3.184   3.564   8.340 -1.5974 -1.7636 -0.6713
  933MOL0     H25925   3.216   3.378   8.564  1.3992 -0.1474 -1.7528
  933MOL0     H25926   3.087   3.327   8.464  2.4379 -2.0169  1.3151
  933MOL0     H25927   2.985   3.578   8.481  0.2756  1.5622 -1.0014
  933MOL0     H25928   3.097   3.607   8.607 -0.7767  0.4092  0.3478
  933MOL0     H25929   2.893   3.563   8.687 -0.3830  0.6750 -0.7626
  933MOL0     H25930   2.883   3.395   8.602  3.3875 -1.5733 -2.1915
  933MOL0     H25931   3.078   3.508   8.814 -1.8957  0.8000  3.3456
  933MOL0     H25932   3.055   3.333   8.779  0.8864  0.4377 -1.9559
  933MOL0     H25933   2.815   3.360   8.878 -1.5879  2.0135 -1.0977
  933MOL0     H25934   2.960   3.370   8.984  2.0268  0.9473 -1.4867
  933MOL0     H25935   3.630   3.211   8.272  2.3505  0.0637  0.2082
  933MOL0     H25936   3.805   3.028   8.279 -0.6062  0.9595  0.1910
  933MOL0     H25937   3.938   2.566   8.238 -0.7524  2.3230 -1.5264
  933MOL0     H25938   4.053   2.358   8.172  1.6266  2.7821  1.9408
  933MOL0     H25939   5.006   0.989   8.469 -2.5058 -0.7144  0.3195
  933MOL0     H25940   4.935   0.767   8.423 -1.1686 -1.4120 -1.5199
  933MOL0     H25941   5.021   0.293   8.316 -1.7080 -6.1568  0.4614
  933MOL0     H25942   4.932   0.104   8.232 -0.3632 -1.4440 -0.4851
  933MOL0     H25943   4.899   0.048   7.771 -0.6025  1.1925 -0.9164
  933MOL0     H25944   4.757   0.132   7.799  0.2276 -2.0725 -4.5051
  933MOL0     H25945   4.636  -0.072   7.884  1.9891  2.6455  0.7876
  933MOL0     H25946   4.775  -0.169   7.832  2.3792  0.5570 -0.2262
  933MOL0     H25947   4.636   0.022   7.634  2.7628 -0.0869 -0.2475
  933MOL0     H25948   4.548  -0.129   7.679  0.4286 -0.9878  1.6812
  933MOL0     H25949   4.830  -0.138   7.586  1.0149  0.5702  2.0808
  933MOL0     H25950   4.702  -0.257   7.606 -2.1281  0.9974 -0.4119
  933MOL0     H25951   4.591  -0.105   7.227  1.3346 -3.1028 -1.5905
  933MOL0     H25952   4.878   0.292   7.846 -4.0086  2.5132  0.1796
  933MOL0     H25953   4.903   0.636   7.946  4.9618  3.0439 -0.2929
  933MOL0     H25954   5.044   0.565   7.900  1.2995 -0.6872  1.8465
  933MOL0     H25955   4.896   0.507   7.817 -0.9695 -0.1981  0.8463
  934MOL0     O25956   7.000   3.751   8.632 -0.4062  1.0097  0.6634
  934MOL0     C25957   6.879   3.752   8.601  0.1075 -0.1602 -1.0257
  934MOL0     O25958   6.817   3.838   8.523  0.8363  0.0676  0.3299
  934MOL0     C25959   6.879   3.931   8.451  0.5742 -0.3120  0.1591
  934MOL0     C25960   6.967   4.030   8.502 -0.4993 -0.0747  0.3665
  934MOL0     C25961   7.030   4.122   8.417 -0.6323 -0.1862 -0.8443
  934MOL0     C25962   7.007   4.112   8.276  0.1732 -1.3665  0.0480
  934MOL0     O25963   7.071   4.194   8.179  0.5604 -0.3020 -0.0311
  934MOL0     C25964   7.169   4.285   8.228  0.4009 -0.3332  0.7527
  934MOL0     C25965   7.115   4.429   8.236 -0.2995 -0.8831 -0.7008
  934MOL0     C25966   7.054   4.453   8.373  0.0204  0.4430 -0.2181
  934MOL0     C25967   7.032   4.601   8.390 -0.2970 -0.5813 -0.5160
  934MOL0     C25968   6.983   4.653   8.528 -0.5370  1.0541 -1.0288
  934MOL0     C25969   6.937   4.797   8.533 -0.5220  0.3793  0.0533
  934MOL0     C25970   6.897   4.830   8.676  0.0165 -0.4615  0.8232
  934MOL0     C25971   6.893   4.981   8.690  0.2658 -0.7000 -0.4380
  934MOL0     N25972   6.874   5.016   8.833 -0.4774 -0.4466 -0.2191
  934MOL0     C25973   6.963   4.994   8.943 -0.0644 -0.2472  0.0318
  934MOL0     C25974   6.892   5.047   9.045 -1.1549  0.2789  0.2543
  934MOL0     C25975   6.939   5.041   9.190 -0.4843 -0.3015 -0.3471
  934MOL0     C25976   6.837   5.085   9.289  0.2760 -0.2966 -0.5906
  934MOL0     C25977   6.726   4.981   9.305 -0.3768  0.0494 -0.6871
  934MOL0     C25978   6.628   5.004   9.421 -0.1883  0.2655 -1.0209
  934MOL0     O25979   6.553   4.883   9.421  0.1369  0.6068 -0.3736
  934MOL0     C25980   6.435   4.877   9.501 -0.2402  0.0125  0.0445
  934MOL0     C25981   6.371   4.760   9.489 -0.1157  1.2459 -0.1087
  934MOL0     C25982   6.257   4.727   9.546 -0.6573 -0.5862 -0.0561
  934MOL0     C25983   6.190   4.816   9.631 -0.5101 -0.0052 -0.3312
  934MOL0     C25984   6.058   4.792   9.681 -0.4094  0.4128 -0.4864
  934MOL0     O25985   6.014   4.857   9.795 -0.1317 -0.2502 -0.0444
  934MOL0     C25986   5.880   4.864   9.821 -0.8255  0.1702 -0.1519
  934MOL0     C25987   5.800   4.967   9.787 -0.1326 -0.1948  0.5221
  934MOL0     C25988   5.660   4.944   9.812  0.3968  0.8350  0.2335
  934MOL0     C25989   5.606   4.832   9.885 -0.2387  0.5243 -1.3705
  934MOL0     O25990   5.475   4.825   9.917  0.0717  0.2265  0.6000
  934MOL0     C25991   5.401   4.786   9.801  0.5483 -0.9401 -1.2494
  934MOL0     C25992   5.345   4.643   9.796 -0.4451  0.2668  0.1985
  934MOL0     C25993   5.442   4.521   9.806 -0.0612  0.3495 -0.2665
  934MOL0     C25994   5.384   4.388   9.753 -0.6233  0.2836  0.5714
  934MOL0     C25995   5.482   4.280   9.753 -0.4797  0.4461  0.6162
  934MOL0     C25996   5.415   4.144   9.757 -0.7358  0.5075 -0.2761
  934MOL0     C25997   5.519   4.033   9.749 -0.7873 -0.6436  0.0417
  934MOL0     C25998   5.587   3.988   9.888  0.2758 -0.0073 -0.8040
  934MOL0    Cl25999   5.724   3.878   9.847 -0.3532 -0.4951  0.1813
  934MOL0     C26000   5.698   4.743   9.935 -0.1893 -1.0646  0.1798
  934MOL0     C26001   5.835   4.758   9.899  0.1685 -0.1153  0.1540
  934MOL0     O26002   6.000   4.709   9.622  0.7558  0.7369  0.2740
  934MOL0     C26003   6.266   4.933   9.657 -0.5198 -0.5127  0.5787
  934MOL0     C26004   6.379   4.970   9.588  0.9657  0.3306  0.2242
  934MOL0     N26005   6.781   5.098   8.999  0.6178 -0.4997 -0.4107
  934MOL0     N26006   6.764   5.080   8.876 -1.5519  0.2643 -1.0427
  934MOL0     C26007   6.913   4.027   8.231 -0.2805  0.0803  0.0891
  934MOL0     C26008   6.841   3.947   8.321  0.3328  0.4463  1.5005
  934MOL0     C26009   6.795   3.652   8.666 -0.6177  0.5890 -0.8526
  934MOL0     C26010   6.662   3.667   8.646  0.4303 -0.3348 -0.2352
  934MOL0     C26011   6.573   3.575   8.700 -0.1691  0.4770 -0.7073
  934MOL0     C26012   6.609   3.470   8.780 -1.3188  0.6753  0.9382
  934MOL0     O26013   6.532   3.382   8.839 -0.1192 -0.2913 -0.8197
  934MOL0     C26014   6.397   3.350   8.795 -1.2708 -0.2913 -0.5952
  934MOL0     C26015   6.303   3.274   8.883  0.7096  0.2469  0.0456
  934MOL0     C26016   6.341   3.125   8.904  0.8749 -1.2220  0.1619
  934MOL0     C26017   6.235   3.058   8.975  0.2002  0.0829 -0.0743
  934MOL0     C26018   6.257   2.911   8.971  0.0946 -0.0804  0.3236
  934MOL0     C26019   6.270   2.790   8.998  0.3537 -0.0359  0.3958
  934MOL0     C26020   6.750   3.449   8.804  0.4284  0.2672  0.4943
  934MOL0     C26021   6.841   3.538   8.750 -1.1932  0.3614  1.1909
  934MOL0     C26022   6.983   3.526   8.789 -0.0714  0.2000  0.2447
  934MOL0     H26023   6.998   4.027   8.606  3.0526 -0.5622 -0.5545
  934MOL0     H26024   7.105   4.186   8.462 -1.3239 -1.5085  2.4909
  934MOL0     H26025   7.218   4.258   8.323 -1.5208 -0.6546  1.6961
  934MOL0     H26026   7.240   4.276   8.145 -0.1161  0.1018  0.2598
  934MOL0     H26027   7.038   4.444   8.160 -0.6418 -1.0933 -0.4021
  934MOL0     H26028   7.197   4.498   8.214  3.3661 -4.4663  0.5840
  934MOL0     H26029   7.132   4.429   8.446  0.7135 -2.7960 -1.8225
  934MOL0     H26030   6.969   4.390   8.399  0.3016  0.7015  1.4300
  934MOL0     H26031   7.122   4.660   8.370 -1.4650  1.4357 -0.1163
  934MOL0     H26032   6.949   4.624   8.323 -2.7700 -1.5051  2.0557
  934MOL0     H26033   6.906   4.585   8.565 -1.1613  2.1532 -0.2497
  934MOL0     H26034   7.063   4.634   8.602  0.8227 -2.8758 -3.2102
  934MOL0     H26035   7.021   4.855   8.494 -0.9912  0.0901 -1.4973
  934MOL0     H26036   6.857   4.814   8.460  0.2177 -1.2303 -1.1805
  934MOL0     H26037   6.986   4.789   8.725  1.0080  0.9090  0.2360
  934MOL0     H26038   6.802   4.788   8.711  0.4665 -0.9933  1.4402
  934MOL0     H26039   6.990   5.019   8.656  0.5270  0.1768  1.2344
  934MOL0     H26040   6.810   5.025   8.634 -1.1275 -0.7952  1.4698
  934MOL0     H26041   7.051   4.931   8.931 -0.9428 -1.1420 -2.2533
  934MOL0     H26042   6.974   4.944   9.228  1.1820  1.2221  2.2751
  934MOL0     H26043   7.018   5.116   9.194  1.8267 -2.5786 -0.6183
  934MOL0     H26044   6.874   5.116   9.387 -4.7837  1.1267  1.2067
  934MOL0     H26045   6.804   5.186   9.260  1.1839  0.6804  1.5626
  934MOL0     H26046   6.772   4.884   9.323 -1.7230 -0.9375 -2.2178
  934MOL0     H26047   6.665   4.975   9.214 -2.4202 -0.4245  0.6493
  934MOL0     H26048   6.569   5.095   9.411 -0.8877 -0.4235 -4.1718
  934MOL0     H26049   6.680   5.021   9.516 -1.7655 -0.6721  0.0560
  934MOL0     H26050   6.406   4.679   9.425 -0.8692  0.3179  0.6185
  934MOL0     H26051   6.225   4.624   9.533 -2.0417  0.1084 -2.9829
  934MOL0     H26052   5.847   5.044   9.727  0.5371 -1.1852 -0.2551
  934MOL0     H26053   5.587   5.021   9.788 -1.1506 -0.5944  0.1035
  934MOL0     H26054   5.313   4.852   9.803  1.7623  0.7748 -1.7614
  934MOL0     H26055   5.454   4.813   9.709  0.1553  0.4871 -1.0778
  934MOL0     H26056   5.265   4.625   9.868  0.1558 -2.6375  0.2962
  934MOL0     H26057   5.291   4.632   9.701 -0.5301  0.8639  0.1755
  934MOL0     H26058   5.535   4.546   9.753  0.0142  2.2247  0.6862
  934MOL0     H26059   5.484   4.494   9.903  0.1044 -0.2126 -0.4880
  934MOL0     H26060   5.342   4.402   9.653  2.2637  4.7428 -0.2939
  934MOL0     H26061   5.297   4.364   9.815  0.9312 -4.3813  1.4145
  934MOL0     H26062   5.538   4.292   9.846  0.0370 -2.6391  0.7874
  934MOL0     H26063   5.550   4.283   9.668 -0.1742 -2.1035  0.7139
  934MOL0     H26064   5.346   4.128   9.840  1.3769 -1.7127  1.1814
  934MOL0     H26065   5.347   4.147   9.671 -0.9466  0.1238 -0.1249
  934MOL0     H26066   5.597   4.070   9.682 -1.5280  1.0208  0.0446
  934MOL0     H26067   5.465   3.944   9.716 -7.3073  2.1778  1.4184
  934MOL0     H26068   5.604   4.070   9.959 -0.1865 -1.0199  0.5252
  934MOL0     H26069   5.512   3.927   9.939  1.1866  0.2595  0.9353
  934MOL0     H26070   5.682   4.651   9.992  3.2843 -0.4381  2.4857
  934MOL0     H26071   5.894   4.672   9.931  0.8312  1.1682  2.6232
  934MOL0     H26072   6.234   5.002   9.735 -0.6556  0.0282  0.0527
  934MOL0     H26073   6.425   5.068   9.593 -0.3100  1.0427 -1.1223
  934MOL0     H26074   6.900   4.013   8.124 -0.2696  0.1198  0.0825
  934MOL0     H26075   6.769   3.878   8.278  0.2137  0.4462  1.7000
  934MOL0     H26076   6.622   3.747   8.585  2.8019  1.2548  0.1790
  934MOL0     H26077   6.465   3.588   8.705 -0.3199 -1.0975  0.8486
  934MOL0     H26078   6.402   3.284   8.707 -2.5779 -0.4144 -0.5992
  934MOL0     H26079   6.345   3.436   8.753 -2.1195 -0.8388 -0.6843
  934MOL0     H26080   6.206   3.264   8.833  0.2509  0.8308  0.7871
  934MOL0     H26081   6.297   3.321   8.982  1.2818  0.7151 -0.1362
  934MOL0     H26082   6.434   3.139   8.959  1.2033  1.4361 -0.9269
  934MOL0     H26083   6.350   3.088   8.802  0.0767 -0.2780 -0.2660
  934MOL0     H26084   6.243   3.077   9.083  1.3622  1.6514 -0.4062
  934MOL0     H26085   6.134   3.067   8.935  1.1291 -1.5683 -3.0327
  934MOL0     H26086   6.277   2.684   9.011  0.1155 -0.2021 -0.7023
  934MOL0     H26087   6.768   3.364   8.868  1.1465  1.1866  1.5544
  934MOL0     H26088   7.004   3.618   8.844 -3.6202  2.0567 -1.1687
  934MOL0     H26089   7.002   3.446   8.860  3.7455 -1.4345 -2.2605
  934MOL0     H26090   7.043   3.505   8.700  3.7112  0.5007  2.5044
  935MOL0     O26091   2.563  10.261   9.686 -0.5810 -0.5350 -0.4817
  935MOL0     C26092   2.510  10.377   9.708 -0.2989  1.3674  0.8732
  935MOL0     O26093   2.413  10.438   9.635 -0.5840  1.1215 -0.7408
  935MOL0     C26094   2.381  10.415   9.504 -0.5787  0.1408  1.5156
  935MOL0     C26095   2.295  10.507   9.435 -0.0322  0.0579  0.0032
  935MOL0     C26096   2.241  10.486   9.310 -0.3660  0.4260  0.9615
  935MOL0     C26097   2.290  10.378   9.227  0.0642 -0.1638  0.2594
  935MOL0     O26098   2.256  10.369   9.096  0.1396 -0.2603 -0.5213
  935MOL0     C26099   2.244  10.483   9.016 -0.7909 -0.9906 -0.3604
  935MOL0     C26100   2.157  10.461   8.891 -0.4137  0.0702 -0.7271
  935MOL0     C26101   2.168  10.327   8.824 -0.4855  0.7786  0.5956
  935MOL0     C26102   2.093  10.310   8.693 -0.1794 -0.8899 -0.4678
  935MOL0     C26103   2.075  10.161   8.669  0.4465 -0.2058  0.1107
  935MOL0     C26104   2.035  10.120   8.520 -0.0211  0.3365 -0.0395
  935MOL0     C26105   1.901  10.162   8.482  1.0914 -0.6184 -0.4618
  935MOL0     C26106   1.906  10.305   8.419  1.2093 -0.9929 -0.1647
  935MOL0     N26107   1.954  10.299   8.284 -0.1482  0.3482  0.6023
  935MOL0     C26108   1.945  10.198   8.195  0.8882  0.6399  0.4334
  935MOL0     C26109   2.013  10.240   8.085 -0.5359 -0.1571 -0.2887
  935MOL0     C26110   2.036  10.154   7.954 -1.4171 -0.3385 -0.2428
  935MOL0     C26111   1.982  10.216   7.820 -0.4823 -1.1948  0.0120
  935MOL0     C26112   1.985  10.133   7.685  0.2838  0.6260 -0.5041
  935MOL0     C26113   1.961  10.215   7.558 -1.3605 -0.6873 -0.3790
  935MOL0     O26114   1.822  10.227   7.541  0.2302 -0.5659  0.4579
  935MOL0     C26115   1.775  10.254   7.413 -0.3952  0.7153  0.2962
  935MOL0     C26116   1.641  10.216   7.380 -0.0788 -0.5757 -0.2411
  935MOL0     C26117   1.590  10.213   7.255 -0.6005 -0.5693 -0.0302
  935MOL0     C26118   1.678  10.263   7.155  0.2093 -0.3609  0.0161
  935MOL0     C26119   1.628  10.253   7.018 -0.3098 -0.2642 -0.4204
  935MOL0     O26120   1.492  10.287   6.995  0.0533  0.3278  0.2128
  935MOL0     C26121   1.462  10.328   6.869 -0.3537 -0.1515 -0.9106
  935MOL0     C26122   1.540  10.426   6.802  0.6009  0.2372  0.2991
  935MOL0     C26123   1.521  10.446   6.667 -0.7855 -0.8406 -0.1218
  935MOL0     C26124   1.434  10.370   6.586 -0.5975 -0.4940 -0.1818
  935MOL0     O26125   1.444  10.368   6.448 -0.8718  0.0471  1.0648
  935MOL0     C26126   1.348  10.296   6.367 -0.3046 -0.0512 -1.0686
  935MOL0     C26127   1.365  10.329   6.222 -0.7188 -0.3727 -0.1479
  935MOL0     C26128   1.262  10.251   6.129 -0.8150  0.8110 -0.0648
  935MOL0     C26129   1.271  10.316   5.993 -1.1902 -0.3617 -0.6621
  935MOL0     C26130   1.203  10.230   5.888 -0.9070 -0.7141  0.7219
  935MOL0     C26131   1.272  10.089   5.864 -1.3591  0.9588 -0.0692
  935MOL0     C26132   1.201  10.023   5.740  0.1698 -0.8459  0.6979
  935MOL0     C26133   1.057  10.001   5.745  0.9339  0.2290 -0.2733
  935MOL0    Cl26134   1.018   9.933   5.583  0.4363  0.0130  0.0659
  935MOL0     C26135   1.365  10.265   6.650 -0.4538  0.0998 -0.1749
  935MOL0     C26136   1.377  10.245   6.788 -1.1622  0.1537  0.1216
  935MOL0     O26137   1.707  10.224   6.932 -0.4713 -0.0631  0.8552
  935MOL0     C26138   1.805  10.312   7.176  1.2653  0.1070 -0.0180
  935MOL0     C26139   1.852  10.306   7.315 -0.5854  0.4770  0.8336
  935MOL0     N26140   2.056  10.369   8.104  0.4318 -0.3331 -0.1469
  935MOL0     N26141   2.020  10.404   8.226 -0.4547  0.0062  0.0253
  935MOL0     C26142   2.370  10.279   9.288 -0.0713  0.3390 -0.4424
  935MOL0     C26143   2.411  10.299   9.419  0.0093 -0.4521 -0.4988
  935MOL0     C26144   2.562  10.447   9.833 -0.5175 -1.1343  0.1163
  935MOL0     C26145   2.689  10.413   9.880  0.3274  0.7277  0.5764
  935MOL0     C26146   2.752  10.465   9.994  0.2410 -0.1658  0.2859
  935MOL0     C26147   2.689  10.557  10.067 -0.0365  0.4244 -0.0143
  935MOL0     O26148   2.751  10.583  10.187 -0.0317 -0.7263 -0.1582
  935MOL0     C26149   2.792  10.721  10.204  0.1153 -0.2606  0.2211
  935MOL0     C26150   2.895  10.744  10.313 -0.7064  0.7795 -0.5658
  935MOL0     C26151   2.845  10.696  10.458 -0.5723  1.1401 -0.9827
  935MOL0     C26152   2.768  10.809  10.522  0.3805  0.1090 -0.1395
  935MOL0     C26153   2.845  10.925  10.545 -1.0327 -0.1154  0.9229
  935MOL0     C26154   2.915  11.012  10.606 -0.3991 -0.0430  0.8409
  935MOL0     C26155   2.570  10.604  10.025 -0.8286 -0.5077 -0.0419
  935MOL0     C26156   2.506  10.553   9.912  0.6659  0.9984  0.5120
  935MOL0     C26157   2.376  10.621   9.872 -0.3417 -0.5418 -0.0320
  935MOL0     H26158   2.263  10.600   9.481 -0.3784  0.9880 -1.9867
  935MOL0     H26159   2.165  10.558   9.282  0.1617  0.8520  0.5811
  935MOL0     H26160   2.198  10.568   9.067 -0.3536 -0.0725 -1.4521
  935MOL0     H26161   2.337  10.518   8.969 -2.4999  1.0390 -2.4790
  935MOL0     H26162   2.167  10.547   8.824 -1.3602  1.7820  1.2127
  935MOL0     H26163   2.058  10.451   8.937  0.0279  2.4268  0.9149
  935MOL0     H26164   2.114  10.269   8.900 -0.6592  2.3397  1.7208
  935MOL0     H26165   2.269  10.285   8.829 -1.2105 -1.3596 -1.0582
  935MOL0     H26166   2.003  10.371   8.691  1.8845  2.4878  1.5081
  935MOL0     H26167   2.160  10.349   8.615  0.6626 -0.8645  0.2481
  935MOL0     H26168   2.167  10.104   8.686 -0.7357 -1.6343  2.1748
  935MOL0     H26169   2.000  10.116   8.734 -0.4381  5.9162  4.1564
  935MOL0     H26170   2.120  10.147   8.456  2.3213  1.4216  3.2408
  935MOL0     H26171   2.056  10.013   8.523  2.4244  0.7444 -0.3027
  935MOL0     H26172   1.827  10.180   8.560 -1.8994  2.9326 -3.6801
  935MOL0     H26173   1.861  10.082   8.419  1.4953 -1.6677  0.5800
  935MOL0     H26174   1.804  10.343   8.411  1.3890 -0.7895 -1.7068
  935MOL0     H26175   1.983  10.371   8.461  1.2171 -0.5956 -0.7887
  935MOL0     H26176   1.893  10.106   8.218  2.1542  0.2170  1.8087
  935MOL0     H26177   2.144  10.145   7.940 -1.3379  2.6547 -2.4478
  935MOL0     H26178   1.995  10.054   7.969 -3.5587  0.6500  0.9409
  935MOL0     H26179   1.880  10.248   7.844  0.6870  2.6236  0.3741
  935MOL0     H26180   2.029  10.313   7.807  2.3703 -1.8896  3.6830
  935MOL0     H26181   1.910  10.053   7.689 -0.2331  1.1465  2.2047
  935MOL0     H26182   2.089  10.101   7.678  0.3452  0.0777  1.8792
  935MOL0     H26183   2.007  10.171   7.469 -1.1369 -0.4790 -0.3666
  935MOL0     H26184   1.997  10.316   7.578  2.1623 -1.4236 -2.1317
  935MOL0     H26185   1.578  10.180   7.461 -0.6485  0.1652 -0.3438
  935MOL0     H26186   1.485  10.186   7.251 -1.8979  1.8651  6.0675
  935MOL0     H26187   1.618  10.479   6.857  1.0299 -0.0701 -0.0056
  935MOL0     H26188   1.591  10.507   6.611  0.9504 -1.6708  1.0640
  935MOL0     H26189   1.359  10.187   6.378 -1.4064  0.0900  4.4989
  935MOL0     H26190   1.251  10.311   6.415  0.7525 -2.3184  2.2223
  935MOL0     H26191   1.367  10.438   6.218 -1.9612 -0.3681 -1.2438
  935MOL0     H26192   1.461  10.289   6.185 -0.7246 -1.1453  0.6273
  935MOL0     H26193   1.280  10.144   6.113 -0.6358  0.5182  1.9038
  935MOL0     H26194   1.156  10.276   6.146 -0.9230  0.3387 -0.0374
  935MOL0     H26195   1.376  10.327   5.964 -1.3598 -1.6503 -1.8666
  935MOL0     H26196   1.225  10.415   5.993  1.8593  1.1982 -2.3105
  935MOL0     H26197   1.208  10.294   5.799  0.3026 -1.7202  0.0222
  935MOL0     H26198   1.103  10.212   5.929  0.0834 -0.9216  3.1934
  935MOL0     H26199   1.381  10.098   5.862 -1.2503 -0.2215 -1.4316
  935MOL0     H26200   1.248  10.021   5.946  1.8992 -1.9720 -1.2525
  935MOL0     H26201   1.256   9.932   5.716 -2.6798 -2.1761 -1.2590
  935MOL0     H26202   1.217  10.093   5.658 -2.4418  1.6205  2.1112
  935MOL0     H26203   1.032   9.926   5.820  2.9793 -0.9888 -0.7172
  935MOL0     H26204   0.988  10.084   5.761 -0.9948 -0.6815 -3.0963
  935MOL0     H26205   1.294  10.207   6.592 -1.7247  0.1875  1.2080
  935MOL0     H26206   1.326  10.164   6.840 -6.0025  3.3646  1.0106
  935MOL0     H26207   1.872  10.331   7.093  1.4076 -1.4990 -0.3133
  935MOL0     H26208   1.955  10.325   7.342 -0.0565 -0.6237 -0.3210
  935MOL0     H26209   2.400  10.194   9.228  0.2909 -0.5717  0.9774
  935MOL0     H26210   2.476  10.220   9.454 -2.0481 -1.1334  2.1276
  935MOL0     H26211   2.743  10.336   9.826 -0.9213  2.4514 -3.5247
  935MOL0     H26212   2.843  10.416  10.028  0.7592  1.6223  1.6349
  935MOL0     H26213   2.704  10.786  10.208 -1.3516 -2.1160 -0.6039
  935MOL0     H26214   2.834  10.750  10.107 -0.3494  2.0259  0.6555
  935MOL0     H26215   2.923  10.849  10.305  1.8074  0.2779  0.6938
  935MOL0     H26216   2.989  10.693  10.290 -1.3551 -1.4174  1.2533
  935MOL0     H26217   2.928  10.663  10.521 -1.0863 -0.3817 -1.0621
  935MOL0     H26218   2.777  10.611  10.445  0.1888  0.1035  1.2690
  935MOL0     H26219   2.688  10.846  10.457  0.5639 -0.6005 -0.7678
  935MOL0     H26220   2.742  10.765  10.619  0.0379 -0.8294 -0.6498
  935MOL0     H26221   2.985  11.088  10.635 -1.0047 -0.0611  2.4531
  935MOL0     H26222   2.526  10.678  10.090 -1.3138 -0.5263 -0.3413
  935MOL0     H26223   2.296  10.547   9.870 -0.0731 -0.8197 -0.5930
  935MOL0     H26224   2.361  10.701   9.946  3.1256 -1.5608  2.0393
  935MOL0     H26225   2.378  10.672   9.775 -0.8056  2.5116  1.4174
  936MOL0     O26226   6.636   4.131   9.189 -1.0003 -1.3608 -0.2170
  936MOL0     C26227   6.610   4.016   9.150  0.1456 -0.0469 -0.0822
  936MOL0     O26228   6.698   3.926   9.106  0.0184 -0.6611  0.4046
  936MOL0     C26229   6.835   3.955   9.102  0.1506 -0.6173 -0.1922
  936MOL0     C26230   6.891   3.888   8.996 -0.1577 -0.1857  0.1792
  936MOL0     C26231   7.034   3.910   8.967  0.2545 -0.2104 -0.2026
  936MOL0     C26232   7.104   3.991   9.054 -0.7793  0.1487 -0.5232
  936MOL0     O26233   7.239   3.999   9.053 -0.7537 -0.3847 -0.0619
  936MOL0     C26234   7.295   3.880   9.082  0.5112  0.5549 -0.2273
  936MOL0     C26235   7.452   3.896   9.105 -0.1947  0.5962 -0.6202
  936MOL0     C26236   7.487   3.972   9.230 -0.6053  0.2997  0.0363
  936MOL0     C26237   7.472   3.872   9.349  0.2242 -0.4615 -1.1918
  936MOL0     C26238   7.509   3.950   9.470  0.1648 -0.0646 -0.1509
  936MOL0     C26239   7.655   3.970   9.485  0.3448  0.1783 -0.7545
  936MOL0     C26240   7.690   3.939   9.625  0.3074  0.2034 -1.9047
  936MOL0     C26241   7.633   4.038   9.727  0.3897 -0.2247  0.9175
  936MOL0     N26242   7.511   4.008   9.806 -0.0949 -0.4018  0.9006
  936MOL0     C26243   7.470   3.891   9.860 -0.0404  0.9773 -0.5737
  936MOL0     C26244   7.347   3.905   9.917  1.3635 -0.8918  1.1605
  936MOL0     C26245   7.252   3.788   9.963  0.1252 -0.7058  0.5388
  936MOL0     C26246   7.108   3.782   9.921 -0.6491  0.0415 -0.5259
  936MOL0     C26247   7.008   3.763  10.032 -0.5675 -0.1271 -0.2297
  936MOL0     C26248   6.860   3.807   9.995 -0.4549  0.0610 -1.2202
  936MOL0     O26249   6.776   3.787  10.115 -0.9679 -0.3014  0.1300
  936MOL0     C26250   6.656   3.859  10.115 -0.1664  0.1107  0.2334
  936MOL0     C26251   6.578   3.898  10.008  0.7077 -0.7940 -0.7512
  936MOL0     C26252   6.449   3.951  10.027  0.3515 -0.7336  0.3491
  936MOL0     C26253   6.396   3.972  10.157  0.1885  0.8341  1.0650
  936MOL0     C26254   6.254   4.008  10.187 -0.2027  0.1706 -0.6243
  936MOL0     O26255   6.164   4.012  10.086  1.1377 -0.0658 -0.6006
  936MOL0     C26256   6.042   4.064  10.123 -0.0589 -0.1963 -0.3829
  936MOL0     C26257   6.024   4.197  10.115  0.4132 -0.6117 -0.2459
  936MOL0     C26258   5.901   4.248  10.145 -0.4323 -0.5444  0.0036
  936MOL0     C26259   5.798   4.173  10.190  0.0989  1.2156 -0.0545
  936MOL0     O26260   5.672   4.221  10.221 -0.1676 -0.6639  1.1053
  936MOL0     C26261   5.658   4.328  10.312 -0.0357  0.2553 -0.5018
  936MOL0     C26262   5.516   4.339  10.338 -0.4470 -0.3562 -0.3883
  936MOL0     C26263   5.464   4.480  10.368 -0.5543 -0.3984  0.3424
  936MOL0     C26264   5.434   4.568  10.237 -0.1811 -0.5092 -0.1427
  936MOL0     C26265   5.453   4.720  10.259 -0.3402 -0.6107  0.0856
  936MOL0     C26266   5.365   4.774  10.372  0.1802  0.1686 -0.5511
  936MOL0     C26267   5.337   4.919  10.339 -0.2403 -0.0996  0.5089
  936MOL0     C26268   5.283   4.993  10.461  0.1086  0.1676 -0.1153
  936MOL0    Cl26269   5.118   4.933  10.505  0.2684  0.0995 -0.2636
  936MOL0     C26270   5.815   4.040  10.204  0.0281 -0.3376  0.1526
  936MOL0     C26271   5.939   3.988  10.161  0.2805  0.2824  0.3182
  936MOL0     O26272   6.233   4.044  10.301 -0.3646 -0.6527 -0.7154
  936MOL0     C26273   6.480   3.923  10.261  0.4520  0.2132  0.2740
  936MOL0     C26274   6.601   3.859  10.242 -0.3339  0.1163 -0.6850
  936MOL0     N26275   7.325   4.048   9.920 -0.5754  0.3361 -0.4397
  936MOL0     N26276   7.417   4.102   9.842 -0.6378 -0.8942  0.4619
  936MOL0     C26277   7.047   4.061   9.160 -0.5391 -0.4131 -0.9332
  936MOL0     C26278   6.912   4.043   9.182  0.6793 -0.5108 -0.3533
  936MOL0     C26279   6.471   3.963   9.168  0.1189 -1.0069 -0.4521
  936MOL0     C26280   6.374   4.029   9.253  0.1299  1.0188 -0.1072
  936MOL0     C26281   6.242   3.980   9.266 -0.0377 -0.1708  0.1742
  936MOL0     C26282   6.207   3.872   9.197  1.1501  0.4443  0.0831
  936MOL0     O26283   6.081   3.817   9.203  0.1100 -0.4183 -0.7777
  936MOL0     C26284   6.076   3.694   9.278  0.7417  0.0945  0.0758
  936MOL0     C26285   5.929   3.654   9.332  0.5524  0.3916  0.1133
  936MOL0     C26286   5.886   3.737   9.447 -0.0833  0.4683 -0.1501
  936MOL0     C26287   5.741   3.714   9.472 -0.5955 -0.4009 -0.1322
  936MOL0     C26288   5.657   3.801   9.392 -1.0810 -0.8970  0.1230
  936MOL0     C26289   5.608   3.901   9.337 -0.2878  0.1073  0.0319
  936MOL0     C26290   6.295   3.811   9.111  0.3531 -0.8800 -0.3038
  936MOL0     C26291   6.420   3.849   9.097  0.2310 -0.2503 -0.8376
  936MOL0     C26292   6.496   3.772   8.989 -0.2428  0.7398  0.2371
  936MOL0     H26293   6.823   3.820   8.946 -1.6362 -1.6677  3.8103
  936MOL0     H26294   7.065   3.874   8.870 -1.4178  1.3683 -1.3812
  936MOL0     H26295   7.246   3.833   9.167 -0.8676  1.8819 -0.2382
  936MOL0     H26296   7.277   3.813   8.997 -0.5214 -0.1003  0.4883
  936MOL0     H26297   7.493   3.957   9.024 -2.1110  2.8428 -0.0066
  936MOL0     H26298   7.492   3.794   9.105 -1.3090  0.1170  1.0551
  936MOL0     H26299   7.411   4.049   9.247 -2.2448 -1.6067  1.8609
  936MOL0     H26300   7.593   3.998   9.235 -0.3087 -0.5495 -1.3358
  936MOL0     H26301   7.365   3.851   9.361  0.4447 -0.4746  1.3567
  936MOL0     H26302   7.526   3.777   9.338 -0.2369 -1.2268  1.9925
  936MOL0     H26303   7.449   4.042   9.464 -2.8508 -1.9135 -0.0225
  936MOL0     H26304   7.466   3.906   9.560  1.2101  0.9588  0.8702
  936MOL0     H26305   7.715   3.897   9.431  0.5699 -0.9881  0.9987
  936MOL0     H26306   7.697   4.068   9.462  0.0848  0.0603 -1.7467
  936MOL0     H26307   7.799   3.936   9.617  0.2722  1.5131 -3.5171
  936MOL0     H26308   7.655   3.841   9.656  0.2782  1.6040  3.5594
  936MOL0     H26309   7.709   4.044   9.805 -0.2293 -3.6580  1.9398
  936MOL0     H26310   7.629   4.140   9.688  2.3001  0.5282  2.5069
  936MOL0     H26311   7.521   3.796   9.851  2.0070  1.4969  3.4597
  936MOL0     H26312   7.294   3.688   9.947  1.9532  0.2900 -1.4650
  936MOL0     H26313   7.260   3.794  10.072  2.7901 -0.3872  0.3972
  936MOL0     H26314   7.083   3.876   9.871 -1.0735 -0.1763 -0.7382
  936MOL0     H26315   7.105   3.703   9.846  1.0690 -2.6822  2.0527
  936MOL0     H26316   7.051   3.823  10.112 -0.4858  0.8293 -0.9727
  936MOL0     H26317   6.999   3.664  10.077  0.2165 -0.6463 -1.1843
  936MOL0     H26318   6.831   3.733   9.919  0.0624  0.1205 -1.4810
  936MOL0     H26319   6.853   3.908   9.954  1.1707  1.2804  1.2694
  936MOL0     H26320   6.625   3.887   9.910 -1.7346 -1.1123 -1.9663
  936MOL0     H26321   6.391   3.981   9.941 -0.3448 -2.1025  0.3089
  936MOL0     H26322   6.111   4.256  10.087  1.1394  0.3265  3.4431
  936MOL0     H26323   5.887   4.355  10.133 -1.5820 -0.5487  1.1101
  936MOL0     H26324   5.708   4.309  10.408  1.4650 -2.1138 -1.6484
  936MOL0     H26325   5.705   4.420  10.276 -0.2888  1.4049  1.8825
  936MOL0     H26326   5.468   4.311  10.244 -0.1020  0.0807 -0.6973
  936MOL0     H26327   5.475   4.261  10.404  0.6325  2.2733  3.7855
  936MOL0     H26328   5.380   4.465  10.436 -1.2777  0.2266 -0.4071
  936MOL0     H26329   5.547   4.526  10.423  0.5921 -0.7720 -1.0003
  936MOL0     H26330   5.332   4.554  10.199 -0.0060  1.4886 -1.5069
  936MOL0     H26331   5.501   4.522  10.163  2.1206  0.9345  0.9344
  936MOL0     H26332   5.432   4.766  10.162 -1.2413 -3.2672 -1.0698
  936MOL0     H26333   5.557   4.742  10.285 -0.8420 -0.8757  2.6191
  936MOL0     H26334   5.274   4.712  10.377  1.7672 -2.2269  2.3157
  936MOL0     H26335   5.414   4.761  10.469  0.3221 -0.6543 -0.7284
  936MOL0     H26336   5.268   4.916  10.254 -0.4841 -1.4114  0.7186
  936MOL0     H26337   5.428   4.971  10.308 -0.1922 -0.4093  0.1264
  936MOL0     H26338   5.346   4.988  10.550  1.0820  0.2176 -0.7819
  936MOL0     H26339   5.277   5.097  10.427  0.9119  0.6402  1.1115
  936MOL0     H26340   5.727   3.988  10.240 -1.6430  2.5237  0.5254
  936MOL0     H26341   5.943   3.880  10.168 -0.7066  0.3175  1.9635
  936MOL0     H26342   6.454   3.937  10.365  0.0155 -3.4003  0.8098
  936MOL0     H26343   6.656   3.822  10.328 -1.7582 -0.7041 -0.0781
  936MOL0     H26344   7.105   4.130   9.220 -1.5508 -1.1254  0.9250
  936MOL0     H26345   6.854   4.092   9.260 -0.1347 -3.3448  0.9313
  936MOL0     H26346   6.397   4.119   9.311 -1.3100  3.1715 -2.6386
  936MOL0     H26347   6.188   4.049   9.330 -0.1731  0.3153 -0.4564
  936MOL0     H26348   6.140   3.707   9.366 -0.1518  3.5728  0.3746
  936MOL0     H26349   6.105   3.619   9.204 -1.9074  0.9783 -2.0199
  936MOL0     H26350   5.927   3.553   9.373 -3.0516  0.4779  0.4827
  936MOL0     H26351   5.858   3.660   9.249 -0.3186  0.0492  0.8112
  936MOL0     H26352   5.906   3.842   9.423 -1.0852  0.4945 -0.9242
  936MOL0     H26353   5.933   3.710   9.542  2.6312  0.3211 -1.4367
  936MOL0     H26354   5.719   3.607   9.462  0.4811 -0.4373 -3.0421
  936MOL0     H26355   5.726   3.746   9.575 -0.5898  0.5292 -0.4149
  936MOL0     H26356   5.565   3.988   9.293 -2.3521 -2.4156 -3.5111
  936MOL0     H26357   6.248   3.726   9.062  2.2551 -0.7270 -2.6110
  936MOL0     H26358   6.539   3.844   8.919 -2.1078  1.9685  0.2866
  936MOL0     H26359   6.581   3.716   9.031  0.3944 -1.5206 -3.5657
  936MOL0     H26360   6.439   3.694   8.938 -0.8161  1.3978 -0.1464
  937MOL0     O26361   0.240   7.987   6.181  0.3811  0.0088  0.6017
  937MOL0     C26362   0.278   8.103   6.211 -0.2646  0.3194  0.6127
  937MOL0     O26363   0.194   8.209   6.248 -0.2548  0.2999  0.0758
  937MOL0     C26364   0.078   8.182   6.323 -0.2810  0.0773  1.2412
  937MOL0     C26365   0.067   8.090   6.423  0.2250  0.4221  1.0208
  937MOL0     C26366  -0.032   8.103   6.522 -0.5807  0.1617  0.3327
  937MOL0     C26367  -0.133   8.202   6.514  0.7746 -1.2953  0.2102
  937MOL0     O26368  -0.238   8.225   6.607 -0.3362  0.0264  0.4079
  937MOL0     C26369  -0.255   8.125   6.712 -0.0911  0.3965 -0.9762
  937MOL0     C26370  -0.145   8.151   6.820 -0.0302  0.1865  0.3765
  937MOL0     C26371  -0.134   8.294   6.878  0.0476 -0.2828  0.4446
  937MOL0     C26372  -0.254   8.335   6.975  0.4782 -0.3228  0.4162
  937MOL0     C26373  -0.277   8.485   7.010  0.2896  0.6341 -0.6235
  937MOL0     C26374  -0.160   8.536   7.112 -0.7761 -0.3815  0.4827
  937MOL0     C26375  -0.162   8.684   7.153 -0.1132 -0.1189  0.2110
  937MOL0     C26376  -0.075   8.712   7.279  0.4729  0.2848  0.8381
  937MOL0     N26377  -0.057   8.849   7.314  0.4850 -0.7935 -0.1604
  937MOL0     C26378   0.014   8.942   7.244  0.0419  0.5011  0.8734
  937MOL0     C26379  -0.030   9.064   7.303 -0.1280  0.9228  0.1298
  937MOL0     C26380   0.024   9.197   7.258  1.0829  0.5005  1.4259
  937MOL0     C26381   0.100   9.274   7.359 -0.1942 -0.2875 -0.0819
  937MOL0     C26382   0.167   9.400   7.310 -0.3470  0.0890  0.0193
  937MOL0     C26383   0.258   9.398   7.184 -0.1921  0.1919 -0.4825
  937MOL0     O26384   0.317   9.515   7.138 -0.1559 -0.4580  0.3459
  937MOL0     C26385   0.243   9.620   7.084  0.3981  0.1381 -1.4641
  937MOL0     C26386   0.105   9.615   7.067  0.9082 -1.6805 -0.2802
  937MOL0     C26387   0.041   9.738   7.028 -0.1403  0.2514  0.8551
  937MOL0     C26388   0.114   9.849   6.981  0.1269 -0.5125 -0.1346
  937MOL0     C26389   0.047   9.964   6.926 -0.9834  0.4072 -0.1798
  937MOL0     O26390   0.110  10.091   6.959 -0.0469  0.5151 -0.9082
  937MOL0     C26391   0.054  10.209   6.931  0.1850 -0.3807  0.3030
  937MOL0     C26392   0.130  10.307   6.869  0.4429  0.4651  0.5973
  937MOL0     C26393   0.069  10.427   6.831 -0.2258  0.6191 -0.7623
  937MOL0     C26394  -0.060  10.450   6.872  0.0371 -0.9514  0.7680
  937MOL0     O26395  -0.114  10.566   6.821 -0.3152 -0.6322  0.1088
  937MOL0     C26396  -0.205  10.640   6.903  0.1945  0.1542  1.0720
  937MOL0     C26397  -0.138  10.751   6.979 -0.6237  0.2938 -0.8974
  937MOL0     C26398  -0.224  10.876   6.994  0.3445  0.0017 -0.8731
  937MOL0     C26399  -0.347  10.845   7.082  0.1708  0.1479  0.0785
  937MOL0     C26400  -0.428  10.960   7.116 -0.5156  0.4587  0.0770
  937MOL0     C26401  -0.553  10.921   7.190  0.8224 -1.0169 -0.2546
  937MOL0     C26402  -0.630  11.041   7.242 -0.2603 -0.3100  0.4888
  937MOL0     C26403  -0.760  11.000   7.306  0.5889  0.6034 -0.3486
  937MOL0    Cl26404  -0.749  10.884   7.439  0.2855  0.3976  0.0981
  937MOL0     C26405  -0.138  10.351   6.921  0.7498 -0.3214 -0.2899
  937MOL0     C26406  -0.082  10.229   6.954 -0.0241  0.3519 -0.9799
  937MOL0     O26407  -0.051   9.947   6.863 -0.0352 -0.4069  0.4381
  937MOL0     C26408   0.254   9.842   7.000 -0.1231 -0.3633  0.2024
  937MOL0     C26409   0.317   9.732   7.051  0.0464 -0.4516  0.6608
  937MOL0     N26410  -0.117   9.030   7.407  0.8851 -0.7609 -0.0259
  937MOL0     N26411  -0.135   8.896   7.411 -1.2452 -0.1055 -0.2584
  937MOL0     C26412  -0.137   8.286   6.405 -0.0283 -1.1128 -0.7437
  937MOL0     C26413  -0.027   8.282   6.315 -1.0494 -0.4772 -0.0738
  937MOL0     C26414   0.415   8.139   6.219 -0.2252  0.0508  0.1957
  937MOL0     C26415   0.464   8.238   6.138 -0.1336 -0.1710  0.3517
  937MOL0     C26416   0.600   8.263   6.124  0.6439 -0.6711 -0.0258
  937MOL0     C26417   0.689   8.184   6.202 -0.2620  0.2928 -0.3185
  937MOL0     O26418   0.816   8.185   6.163 -0.0246 -0.1953  0.2409
  937MOL0     C26419   0.919   8.204   6.254 -0.6219  0.3115  1.0266
  937MOL0     C26420   1.051   8.183   6.172 -0.3152  0.7576 -0.4239
  937MOL0     C26421   1.161   8.166   6.271 -0.1800  0.0643  0.1268
  937MOL0     C26422   1.284   8.101   6.218 -0.8542 -0.2531  0.1474
  937MOL0     C26423   1.258   7.973   6.155 -0.2559  0.1396 -0.9542
  937MOL0     C26424   1.232   7.858   6.131  1.0945 -0.1645  0.8067
  937MOL0     C26425   0.644   8.089   6.286 -0.1304 -0.4803 -0.7723
  937MOL0     C26426   0.505   8.062   6.300 -1.1053 -0.6743 -0.1425
  937MOL0     C26427   0.463   7.955   6.398 -0.2244  0.0068 -0.5748
  937MOL0     H26428   0.147   8.018   6.441  0.3184  0.2108 -0.0998
  937MOL0     H26429  -0.053   8.031   6.600 -0.6788 -2.3012 -1.8639
  937MOL0     H26430  -0.346   8.157   6.763  1.3662 -0.1230  2.1748
  937MOL0     H26431  -0.267   8.021   6.683 -2.4025  0.0830  0.8271
  937MOL0     H26432  -0.047   8.134   6.774  0.9210  1.7270  1.7250
  937MOL0     H26433  -0.170   8.080   6.899 -0.7395  0.4983  0.4450
  937MOL0     H26434  -0.117   8.368   6.800  0.5158 -0.0546  0.7609
  937MOL0     H26435  -0.041   8.289   6.936 -0.4611 -2.3013  1.1921
  937MOL0     H26436  -0.342   8.313   6.913 -3.2409  0.7485  4.8095
  937MOL0     H26437  -0.252   8.266   7.060  1.8247 -0.5595  0.2112
  937MOL0     H26438  -0.282   8.531   6.911  1.8187  0.3521 -0.8612
  937MOL0     H26439  -0.364   8.505   7.073  0.4900 -0.8428  0.1682
  937MOL0     H26440  -0.173   8.489   7.210 -0.7895 -2.8882 -0.6545
  937MOL0     H26441  -0.058   8.519   7.077  0.6234  3.0763  2.3735
  937MOL0     H26442  -0.258   8.727   7.185 -0.8152 -2.3070  1.2178
  937MOL0     H26443  -0.116   8.739   7.070 -1.0138  1.4416  0.6940
  937MOL0     H26444  -0.117   8.648   7.357 -3.3315 -2.4030 -2.9968
  937MOL0     H26445   0.028   8.678   7.264  0.2015 -1.0865  1.9001
  937MOL0     H26446   0.086   8.927   7.164 -2.8851  0.4248 -1.9270
  937MOL0     H26447   0.087   9.183   7.170  0.8055 -0.3196  1.3428
  937MOL0     H26448  -0.065   9.253   7.229  1.5501  2.5171  3.6523
  937MOL0     H26449   0.039   9.309   7.443  1.1770  0.4401  0.6546
  937MOL0     H26450   0.182   9.214   7.400 -0.8403  0.3140  2.2361
  937MOL0     H26451   0.231   9.439   7.389  1.5581  0.1037 -1.4641
  937MOL0     H26452   0.089   9.475   7.293 -2.0863 -1.4874  0.6547
  937MOL0     H26453   0.227   9.338   7.098 -1.8151  2.8923 -1.9201
  937MOL0     H26454   0.344   9.344   7.226 -1.5613  1.5207  4.8484
  937MOL0     H26455   0.039   9.529   7.071  2.3773 -2.8356 -0.3593
  937MOL0     H26456  -0.067   9.751   7.027 -0.7230 -3.3938 -1.0729
  937MOL0     H26457   0.235  10.295   6.845 -0.3012 -3.3167 -1.6966
  937MOL0     H26458   0.134  10.500   6.784 -0.5363  0.8914 -0.7722
  937MOL0     H26459  -0.280  10.682   6.836 -1.1764  1.6512  3.3926
  937MOL0     H26460  -0.257  10.576   6.975 -1.0374  1.2207  1.1679
  937MOL0     H26461  -0.118  10.715   7.081  0.6688  3.8812  0.2913
  937MOL0     H26462  -0.045  10.781   6.930 -1.4361  3.0223 -0.9632
  937MOL0     H26463  -0.174  10.962   7.038 -1.6383  1.1016 -0.6540
  937MOL0     H26464  -0.267  10.913   6.900 -0.9230  1.2573  0.1487
  937MOL0     H26465  -0.306  10.805   7.176 -0.1767  2.8278  1.4686
  937MOL0     H26466  -0.423  10.775   7.045  1.9778 -1.3948 -0.8935
  937MOL0     H26467  -0.459  11.015   7.027  1.1110 -0.0893 -0.8669
  937MOL0     H26468  -0.360  11.030   7.167  0.8166  1.2990 -2.6575
  937MOL0     H26469  -0.612  10.867   7.115  1.0641  0.4189 -1.5162
  937MOL0     H26470  -0.513  10.871   7.279 -0.1989  1.1957  1.5574
  937MOL0     H26471  -0.645  11.109   7.157 -0.0748 -2.2059 -1.1402
  937MOL0     H26472  -0.575  11.093   7.321 -0.4649 -2.4012  2.0896
  937MOL0     H26473  -0.807  11.087   7.354  1.0208 -0.3584  1.9405
  937MOL0     H26474  -0.838  10.968   7.236 -0.6835 -0.3415  1.4334
  937MOL0     H26475  -0.247  10.358   6.919  0.5183 -3.0771 -0.6429
  937MOL0     H26476  -0.143  10.144   6.984 -1.8763  1.4124 -1.6090
  937MOL0     H26477   0.313   9.920   6.953 -0.5637  0.0082  0.2486
  937MOL0     H26478   0.424   9.746   7.043 -0.4703  3.3447 -3.3291
  937MOL0     H26479  -0.207   8.368   6.404  1.6932  0.4337  0.3290
  937MOL0     H26480  -0.027   8.366   6.247 -1.2103  0.5592  1.1872
  937MOL0     H26481   0.393   8.287   6.072  0.3460 -1.2435 -1.0168
  937MOL0     H26482   0.639   8.326   6.045  1.3852 -0.2693  0.6435
  937MOL0     H26483   0.928   8.141   6.343 -0.0239 -0.8607  0.1664
  937MOL0     H26484   0.910   8.307   6.287  2.4512  0.8884  0.4249
  937MOL0     H26485   1.059   8.259   6.094 -0.9693  0.5307 -0.7240
  937MOL0     H26486   1.034   8.088   6.120 -0.0527  0.4297  0.0771
  937MOL0     H26487   1.127   8.107   6.356 -3.4665 -1.4363 -2.0285
  937MOL0     H26488   1.198   8.264   6.303  0.0052  0.1129 -0.2331
  937MOL0     H26489   1.331   8.174   6.152  1.5193 -3.9857 -2.6499
  937MOL0     H26490   1.343   8.077   6.307  0.7812 -0.9700 -1.1072
  937MOL0     H26491   1.190   7.760   6.122 -0.5196  0.6376 -1.9478
  937MOL0     H26492   0.717   8.034   6.344  3.4104  2.8994 -1.5329
  937MOL0     H26493   0.383   7.999   6.458  1.6945  0.5624  1.7433
  937MOL0     H26494   0.440   7.858   6.354 -0.3267  0.8144 -2.3749
  937MOL0     H26495   0.544   7.930   6.467  0.7820 -0.1124 -1.7666
  938MOL0     O26496   5.193   0.650   2.850  0.3913 -0.0161  0.8839
  938MOL0     C26497   5.101   0.708   2.788  0.2698 -0.6343 -0.5515
  938MOL0     O26498   5.124   0.770   2.670 -0.2764  0.3361  0.3957
  938MOL0     C26499   5.246   0.757   2.599 -0.6439 -0.6100 -0.0794
  938MOL0     C26500   5.284   0.638   2.533  0.3461 -0.0242 -0.6107
  938MOL0     C26501   5.402   0.630   2.450  0.2589 -0.0377 -0.2777
  938MOL0     C26502   5.485   0.749   2.447 -0.0973 -0.5105 -0.3452
  938MOL0     O26503   5.602   0.733   2.374  0.3953 -0.5065  0.1597
  938MOL0     C26504   5.624   0.835   2.268 -0.0219 -0.1706 -0.2424
  938MOL0     C26505   5.752   0.797   2.200  0.6312 -0.4852  0.7798
  938MOL0     C26506   5.747   0.882   2.074  0.3603 -0.9511 -0.3983
  938MOL0     C26507   5.874   0.873   1.987 -0.0087 -0.2105 -0.2668
  938MOL0     C26508   5.859   0.975   1.870  0.3625 -0.4624 -0.0588
  938MOL0     C26509   5.987   1.002   1.793 -0.1602  1.0629  0.7212
  938MOL0     C26510   5.968   1.109   1.688  0.2659 -0.7621  0.2416
  938MOL0     C26511   5.857   1.075   1.571 -1.0481 -0.0174  0.4852
  938MOL0     N26512   5.903   0.954   1.507  0.5290 -0.7656  0.1591
  938MOL0     C26513   6.008   0.950   1.430  0.8558 -0.8701 -0.8930
  938MOL0     C26514   6.007   0.822   1.386  0.1655 -0.3543 -1.0743
  938MOL0     C26515   6.100   0.779   1.279  0.0354  0.1651 -0.5935
  938MOL0     C26516   6.027   0.686   1.193  0.0568  0.1303 -0.1507
  938MOL0     C26517   6.132   0.626   1.082 -0.0307 -0.5325 -0.1771
  938MOL0     C26518   6.230   0.523   1.144 -0.5755 -0.6349  0.4609
  938MOL0     O26519   6.360   0.582   1.179 -0.0433  0.3508  0.2735
  938MOL0     C26520   6.441   0.626   1.073 -0.0878 -0.6478 -0.6797
  938MOL0     C26521   6.411   0.608   0.946 -1.1097 -0.2456 -0.6015
  938MOL0     C26522   6.508   0.651   0.850  0.2137  0.9527 -0.5554
  938MOL0     C26523   6.625   0.732   0.880  0.1866  0.3444  0.2342
  938MOL0     C26524   6.724   0.763   0.779  0.2143 -1.6832 -0.4030
  938MOL0     O26525   6.796   0.874   0.797 -0.4121  0.1539 -0.0295
  938MOL0     C26526   6.882   0.920   0.703 -0.8301 -0.9314 -0.2191
  938MOL0     C26527   7.013   0.878   0.689  0.6616 -0.3995  0.2544
  938MOL0     C26528   7.098   0.938   0.601  0.4946  0.5053 -0.2696
  938MOL0     C26529   7.049   1.038   0.514 -0.8046 -0.2491  1.0666
  938MOL0     O26530   7.124   1.087   0.410 -0.1660  0.5861 -0.2730
  938MOL0     C26531   7.079   1.101   0.275  0.3506  0.6521  0.3950
  938MOL0     C26532   7.192   1.141   0.162  0.1174 -0.3121 -0.7109
  938MOL0     C26533   7.142   1.124   0.020  0.1226 -0.2389  1.3475
  938MOL0     C26534   7.245   1.052  -0.061 -0.4896  0.0275  0.4823
  938MOL0     C26535   7.193   1.051  -0.201 -0.9687  0.5622  0.0766
  938MOL0     C26536   7.094   0.930  -0.222  0.5609  0.6552 -0.4785
  938MOL0     C26537   7.048   0.943  -0.372  0.1372 -0.1518  0.3082
  938MOL0     C26538   6.974   0.816  -0.406 -0.4367  0.4302 -1.1994
  938MOL0    Cl26539   7.099   0.696  -0.473 -0.0613 -0.2660 -0.2517
  938MOL0     C26540   6.921   1.079   0.530  0.1299 -0.8467  0.4255
  938MOL0     C26541   6.843   1.034   0.634  0.3561  0.0251  0.0358
  938MOL0     O26542   6.734   0.684   0.688 -0.7591 -0.4736  0.2025
  938MOL0     C26543   6.651   0.755   1.014  0.1530  0.4303  0.9330
  938MOL0     C26544   6.553   0.708   1.111 -0.6724 -0.2184  0.5077
  938MOL0     N26545   5.895   0.750   1.439  0.0096 -0.6169 -0.4531
  938MOL0     N26546   5.835   0.840   1.514  1.0530 -0.0310  0.2903
  938MOL0     C26547   5.445   0.862   2.514 -0.8814  0.5178  0.2095
  938MOL0     C26548   5.329   0.870   2.597  0.3125 -0.6841 -0.2829
  938MOL0     C26549   4.961   0.717   2.842  0.4094 -0.0810  0.0447
  938MOL0     C26550   4.864   0.769   2.755  1.0577 -0.7771 -0.0794
  938MOL0     C26551   4.740   0.795   2.797  0.7937 -1.3226 -0.4093
  938MOL0     C26552   4.691   0.758   2.924 -0.7980 -0.6765  0.1716
  938MOL0     O26553   4.559   0.787   2.958 -0.3205 -0.4448 -0.6633
  938MOL0     C26554   4.507   0.747   3.083  0.5457 -0.6968  0.1870
  938MOL0     C26555   4.363   0.794   3.106 -1.2601 -0.3686  0.4450
  938MOL0     C26556   4.319   0.801   3.251 -0.5121 -0.1340  0.4779
  938MOL0     C26557   4.169   0.812   3.280  0.4980 -0.3893  0.4997
  938MOL0     C26558   4.081   0.907   3.196 -0.1123 -1.1843 -0.7736
  938MOL0     C26559   4.013   0.965   3.113  1.4016 -1.0567  0.7599
  938MOL0     C26560   4.781   0.693   3.006  0.8719  0.3783  0.1573
  938MOL0     C26561   4.921   0.682   2.970 -0.3338  0.0589  0.1366
  938MOL0     C26562   5.005   0.611   3.075 -0.3193  0.3375  0.4336
  938MOL0     H26563   5.226   0.547   2.544  0.9395 -0.5341 -1.6254
  938MOL0     H26564   5.430   0.549   2.384  1.1996  1.8063 -2.2700
  938MOL0     H26565   5.544   0.857   2.198 -1.2084  1.0859  1.4241
  938MOL0     H26566   5.637   0.931   2.319  0.8831 -0.6929  0.5539
  938MOL0     H26567   5.735   0.692   2.173 -5.3260  0.3233 -0.0425
  938MOL0     H26568   5.839   0.822   2.261  0.6929  4.2085 -0.8541
  938MOL0     H26569   5.734   0.986   2.106  1.5143 -0.0342 -2.6947
  938MOL0     H26570   5.663   0.845   2.014 -1.3200 -0.6280  1.6239
  938MOL0     H26571   5.968   0.889   2.042 -1.0626  0.1576  1.4997
  938MOL0     H26572   5.879   0.777   1.935 -1.9346  0.8279 -2.5396
  938MOL0     H26573   5.783   0.940   1.800  2.2257  1.8148 -3.5029
  938MOL0     H26574   5.820   1.067   1.913  0.9306  0.4836 -1.4853
  938MOL0     H26575   6.068   1.024   1.863  0.5145  3.5982 -0.7102
  938MOL0     H26576   6.019   0.921   1.726 -1.7644  3.0385 -2.7307
  938MOL0     H26577   6.067   1.125   1.644 -1.2912 -0.8557 -3.6713
  938MOL0     H26578   5.939   1.207   1.729 -2.8413 -1.4111 -0.1975
  938MOL0     H26579   5.754   1.060   1.606 -1.5525  1.4716 -0.3017
  938MOL0     H26580   5.859   1.154   1.495  1.9489 -1.1230 -0.7371
  938MOL0     H26581   6.079   1.030   1.416 -0.3033  0.3688  0.0395
  938MOL0     H26582   6.143   0.864   1.225  0.9418  0.7435  0.9756
  938MOL0     H26583   6.186   0.736   1.331  0.2286  2.7959  1.4831
  938MOL0     H26584   5.984   0.604   1.250 -0.0829  0.5819  0.4068
  938MOL0     H26585   5.943   0.735   1.144 -0.2650 -1.5257 -1.3240
  938MOL0     H26586   6.187   0.710   1.039  1.5566 -1.4474 -0.0143
  938MOL0     H26587   6.071   0.578   1.005 -0.3040  0.2814 -0.4709
  938MOL0     H26588   6.248   0.439   1.076  1.3490  0.7791 -0.8651
  938MOL0     H26589   6.184   0.478   1.232 -3.1370  1.5250  0.3210
  938MOL0     H26590   6.338   0.537   0.906 -2.9359  0.5970  1.0762
  938MOL0     H26591   6.512   0.620   0.746  2.9308  1.7381 -0.7750
  938MOL0     H26592   7.053   0.798   0.751  0.8177 -0.8046 -0.3555
  938MOL0     H26593   7.201   0.905   0.590 -0.3123 -2.1777 -0.3315
  938MOL0     H26594   7.026   1.008   0.254 -1.1315  1.3102  1.0791
  938MOL0     H26595   7.000   1.176   0.267 -0.2153 -0.0868 -1.5397
  938MOL0     H26596   7.228   1.244   0.170 -1.2684  0.1666 -0.3211
  938MOL0     H26597   7.280   1.083   0.191  0.6567  0.6506 -0.3742
  938MOL0     H26598   7.045   1.074   0.015  0.1068 -0.0873 -0.4368
  938MOL0     H26599   7.146   1.225  -0.022  1.9868 -0.1417  1.6905
  938MOL0     H26600   7.245   0.948  -0.028  0.5462  0.2838  1.3408
  938MOL0     H26601   7.340   1.105  -0.070 -0.2783 -0.6663 -2.3270
  938MOL0     H26602   7.275   1.043  -0.273 -0.4574  0.4586  0.6734
  938MOL0     H26603   7.148   1.147  -0.227 -1.4015  0.9779  2.1995
  938MOL0     H26604   7.151   0.836  -0.214 -2.1874 -1.1139 -0.5113
  938MOL0     H26605   7.010   0.928  -0.153  0.3975 -0.7412 -0.6803
  938MOL0     H26606   7.134   0.964  -0.437  0.0181 -0.3461  0.0865
  938MOL0     H26607   6.989   1.035  -0.377  0.4040  0.0044 -0.0408
  938MOL0     H26608   6.921   0.779  -0.318  3.2856  1.2944  1.6724
  938MOL0     H26609   6.900   0.841  -0.482  0.8526 -3.5714 -4.1363
  938MOL0     H26610   6.895   1.170   0.478  1.3696 -0.6496  0.1328
  938MOL0     H26611   6.750   1.084   0.660  1.0876 -0.2014  3.5264
  938MOL0     H26612   6.734   0.815   1.050  1.6471 -2.8373  3.4327
  938MOL0     H26613   6.571   0.727   1.216 -1.4197 -1.8216  0.9674
  938MOL0     H26614   5.529   0.930   2.527 -0.3178 -0.0240 -0.5310
  938MOL0     H26615   5.309   0.947   2.671 -1.3383  0.9607 -2.3486
  938MOL0     H26616   4.893   0.788   2.652  3.1176 -4.5460 -0.3836
  938MOL0     H26617   4.671   0.840   2.727 -2.0674 -2.7992  1.3177
  938MOL0     H26618   4.578   0.789   3.154  1.3510 -1.4572 -0.1416
  938MOL0     H26619   4.508   0.637   3.089 -1.6453 -0.7250  0.9173
  938MOL0     H26620   4.299   0.718   3.059 -2.1826  0.2627  0.6580
  938MOL0     H26621   4.349   0.888   3.052  2.4412 -0.0043 -0.1116
  938MOL0     H26622   4.356   0.888   3.305 -0.4439  0.0718  0.1024
  938MOL0     H26623   4.372   0.723   3.306  0.4794  0.3120  0.1694
  938MOL0     H26624   4.120   0.714   3.277 -0.2484 -0.0025 -1.0759
  938MOL0     H26625   4.152   0.850   3.382 -2.4911 -1.2244  0.4200
  938MOL0     H26626   3.966   1.034   3.047  1.9094  3.2560  4.4076
  938MOL0     H26627   4.746   0.662   3.104 -1.0024  0.1607 -0.5429
  938MOL0     H26628   4.965   0.620   3.176 -0.0791  0.3674  0.5258
  938MOL0     H26629   4.998   0.503   3.056 -0.8066  0.2079  1.3166
  938MOL0     H26630   5.108   0.645   3.077 -0.0346 -0.4700  0.0047
  939MOL0     O26631   8.239   5.817  10.926 -0.3467 -0.2373  0.2000
  939MOL0     C26632   8.306   5.869  10.837 -0.2791 -1.0616  0.3181
  939MOL0     O26633   8.439   5.843  10.814  0.0496 -0.6730  0.6918
  939MOL0     C26634   8.508   5.800  10.922 -1.0775 -0.4187  0.3614
  939MOL0     C26635   8.503   5.675  10.975  1.3276 -0.1210  0.2072
  939MOL0     C26636   8.569   5.626  11.085  0.0939 -0.7126  0.1377
  939MOL0     C26637   8.651   5.717  11.146 -0.3247  0.1658  0.0367
  939MOL0     O26638   8.711   5.676  11.264  0.7257 -0.0897  0.2837
  939MOL0     C26639   8.762   5.776  11.347 -0.1030  0.1490  0.1951
  939MOL0     C26640   8.833   5.694  11.458 -0.3424 -0.4545 -0.7431
  939MOL0     C26641   8.960   5.764  11.506  0.1285  0.0454  0.7123
  939MOL0     C26642   9.011   5.711  11.643 -0.3623  1.3494  0.3009
  939MOL0     C26643   9.039   5.556  11.638  0.3331 -0.6614 -0.4268
  939MOL0     C26644   9.157   5.512  11.544  0.2129 -0.3423 -0.2275
  939MOL0     C26645   9.145   5.363  11.535  0.1918  0.3063  0.1730
  939MOL0     C26646   9.220   5.292  11.424 -0.5234 -0.5948  0.6838
  939MOL0     N26647   9.216   5.358  11.289 -0.3394 -0.6423 -0.7066
  939MOL0     C26648   9.108   5.372  11.214 -0.0597 -0.3221  0.0844
  939MOL0     C26649   9.143   5.441  11.102 -0.4047  0.8976  1.0138
  939MOL0     C26650   9.043   5.499  10.998 -0.0884  0.8575 -0.2711
  939MOL0     C26651   9.009   5.645  11.021  0.2264  1.2377 -0.3566
  939MOL0     C26652   8.913   5.708  10.913 -0.8494 -0.5218  0.8769
  939MOL0     C26653   8.994   5.730  10.773 -0.6262  0.0261 -1.1429
  939MOL0     O26654   9.114   5.795  10.808  0.8503 -0.5666 -0.5757
  939MOL0     C26655   9.189   5.869  10.715  0.4759  0.2636  0.0236
  939MOL0     C26656   9.330   5.847  10.724  0.6864 -0.4814 -0.4401
  939MOL0     C26657   9.416   5.927  10.654  0.1513 -0.4400 -0.4372
  939MOL0     C26658   9.367   6.023  10.558 -0.2652  1.0023  0.4368
  939MOL0     C26659   9.457   6.098  10.471  0.5837  0.2323  0.3678
  939MOL0     O26660   9.563   6.159  10.535  0.1102  0.0533 -0.7034
  939MOL0     C26661   9.647   6.234  10.459  1.1083 -0.6671 -0.2195
  939MOL0     C26662   9.724   6.171  10.360  0.1919  0.5309  0.0485
  939MOL0     C26663   9.834   6.236  10.303  0.0781 -0.2406  0.5366
  939MOL0     C26664   9.872   6.368  10.332  0.0790  0.1741 -0.6969
  939MOL0     O26665   9.977   6.428  10.273 -0.6714 -0.5010  0.2472
  939MOL0     C26666  10.068   6.515  10.349 -1.1894 -0.0027  0.2001
  939MOL0     C26667  10.218   6.477  10.316 -0.3147 -0.0507  0.2974
  939MOL0     C26668  10.243   6.509  10.169 -0.4126 -0.1100 -0.2774
  939MOL0     C26669  10.388   6.493  10.123 -0.9100 -0.4952 -0.0881
  939MOL0     C26670  10.424   6.578   9.991  0.6004 -1.5825 -0.1265
  939MOL0     C26671  10.570   6.640   9.988  0.2075 -0.2155 -0.2913
  939MOL0     C26672  10.673   6.531   9.968  0.1930 -0.3573  0.5627
  939MOL0     C26673  10.808   6.578   9.924  0.2587  0.9227 -0.0852
  939MOL0    Cl26674  10.804   6.657   9.763 -0.2368  0.1496 -0.5021
  939MOL0     C26675   9.787   6.432  10.414 -0.5532  0.0577  0.0506
  939MOL0     C26676   9.678   6.375  10.479  0.0700  0.7275 -0.1761
  939MOL0     O26677   9.412   6.128  10.358 -0.1563 -0.5036 -0.8101
  939MOL0     C26678   9.227   6.033  10.543 -0.6666  0.1828 -0.6302
  939MOL0     C26679   9.142   5.965  10.631  0.3262  0.1028  0.8188
  939MOL0     N26680   9.279   5.462  11.106  0.1118  0.4634  0.0840
  939MOL0     N26681   9.323   5.411  11.219 -0.3279  0.6289  0.1030
  939MOL0     C26682   8.656   5.856  11.104 -0.1158  0.0815  0.3957
  939MOL0     C26683   8.594   5.898  10.989  0.1830 -0.1546  0.8411
  939MOL0     C26684   8.239   5.971  10.753  0.1171  0.5977 -1.0629
  939MOL0     C26685   8.303   6.026  10.650 -0.4414  0.0665  0.3859
  939MOL0     C26686   8.245   6.115  10.564  0.9092  0.8001  0.0559
  939MOL0     C26687   8.117   6.171  10.591 -0.1033 -0.4516  0.0163
  939MOL0     O26688   8.059   6.277  10.529  0.7896 -0.6056 -0.9574
  939MOL0     C26689   8.105   6.316  10.407 -0.3879 -0.0420 -0.0865
  939MOL0     C26690   8.038   6.452  10.370  0.0096  0.2866 -0.0494
  939MOL0     C26691   8.080   6.505  10.239  0.0677  0.1710 -1.1368
  939MOL0     C26692   8.234   6.525  10.218  0.3779 -0.5060 -0.9767
  939MOL0     C26693   8.262   6.587  10.090  1.8420 -0.6123 -0.3169
  939MOL0     C26694   8.289   6.630   9.981 -0.3157  0.5576  0.3134
  939MOL0     C26695   8.047   6.111  10.693  0.4872 -1.0688 -0.6138
  939MOL0     C26696   8.101   6.004  10.764  0.5956  0.3149  1.0992
  939MOL0     C26697   7.998   5.933  10.852 -0.3931 -0.9272 -0.0166
  939MOL0     H26698   8.439   5.602  10.927 -0.4151  1.2789  0.2821
  939MOL0     H26699   8.555   5.527  11.128  1.6527  0.0617  2.6184
  939MOL0     H26700   8.828   5.851  11.303 -0.3808  0.4000  0.2035
  939MOL0     H26701   8.681   5.835  11.390  0.5894  1.1995  0.0747
  939MOL0     H26702   8.876   5.597  11.431  0.0673 -0.3856 -0.3478
  939MOL0     H26703   8.754   5.671  11.531 -2.0988  1.8526 -1.7592
  939MOL0     H26704   8.936   5.865  11.539  1.0127 -0.5015  3.2407
  939MOL0     H26705   9.041   5.752  11.434 -2.7338 -0.1229 -2.7717
  939MOL0     H26706   9.094   5.769  11.685  1.8206 -1.9542  0.9718
  939MOL0     H26707   8.929   5.731  11.713 -1.1102  2.1550 -0.7714
  939MOL0     H26708   9.066   5.521  11.738  1.6209  0.2524 -0.4396
  939MOL0     H26709   8.948   5.499  11.617  1.0851 -2.3133  0.5841
  939MOL0     H26710   9.132   5.552  11.445 -3.4286 -2.3982 -0.3081
  939MOL0     H26711   9.246   5.557  11.588 -1.7620  1.9694  1.7005
  939MOL0     H26712   9.038   5.346  11.520 -0.2652 -1.1883  4.0344
  939MOL0     H26713   9.166   5.319  11.632 -2.4078 -0.5574  0.4240
  939MOL0     H26714   9.325   5.289  11.452 -0.7761  2.3283  2.3396
  939MOL0     H26715   9.183   5.189  11.417 -4.0308  0.1190  4.4777
  939MOL0     H26716   9.007   5.349  11.244 -0.5136  1.3081 -0.1127
  939MOL0     H26717   9.089   5.490  10.899 -0.7380  1.5397 -0.6434
  939MOL0     H26718   8.952   5.440  11.000  0.4902 -0.0828  2.1973
  939MOL0     H26719   8.957   5.651  11.117  2.4713 -1.0642  1.1486
  939MOL0     H26720   9.094   5.715  11.031  1.0773  0.0576  1.1156
  939MOL0     H26721   8.882   5.812  10.929 -0.7844 -0.2376 -0.7082
  939MOL0     H26722   8.818   5.654  10.900 -0.8502 -0.4508  0.5728
  939MOL0     H26723   8.949   5.815  10.720  1.2039  1.4093 -0.5552
  939MOL0     H26724   9.005   5.637  10.716  0.3565 -1.1753  0.8970
  939MOL0     H26725   9.380   5.756  10.757 -0.2468 -0.7449  0.2622
  939MOL0     H26726   9.524   5.920  10.662  0.0901 -0.9337  0.0144
  939MOL0     H26727   9.699   6.074  10.318 -1.6956  0.0126  2.1775
  939MOL0     H26728   9.879   6.166  10.233 -0.6752 -3.8768  3.3711
  939MOL0     H26729  10.051   6.615  10.308  0.0159 -0.1199 -0.6368
  939MOL0     H26730  10.049   6.509  10.456  0.2317 -0.8919  0.4235
  939MOL0     H26731  10.274   6.549  10.377  1.0532 -1.2431  0.5094
  939MOL0     H26732  10.253   6.378  10.344  3.5888  2.3800  5.9114
  939MOL0     H26733  10.175   6.452  10.105 -0.0883 -0.7798 -0.0334
  939MOL0     H26734  10.218   6.615  10.162 -0.3445  0.0002  1.0493
  939MOL0     H26735  10.411   6.387  10.110  5.0434  0.2444  1.2852
  939MOL0     H26736  10.458   6.528  10.200 -0.8314  1.4768 -0.9931
  939MOL0     H26737  10.343   6.651   9.980 -1.3376 -3.8863 -2.9624
  939MOL0     H26738  10.401   6.507   9.910 -0.7176 -1.7836  0.3890
  939MOL0     H26739  10.571   6.725   9.919 -0.5679  0.5141  0.5660
  939MOL0     H26740  10.592   6.685  10.085 -2.2053  2.1361 -0.7169
  939MOL0     H26741  10.638   6.458   9.894  3.6697  0.5451 -2.2814
  939MOL0     H26742  10.685   6.468  10.056  1.2847 -2.1899 -0.8116
  939MOL0     H26743  10.852   6.642  10.001 -0.6235  1.0498  0.3290
  939MOL0     H26744  10.867   6.488   9.906 -3.6657 -1.9460  0.0317
  939MOL0     H26745   9.802   6.538  10.429 -1.1070 -0.1320  2.3060
  939MOL0     H26746   9.626   6.432  10.554 -0.7524 -0.6510  0.3415
  939MOL0     H26747   9.189   6.118  10.487  1.5265  2.1167  0.6280
  939MOL0     H26748   9.040   6.000  10.645  0.9277  1.8294  1.1363
  939MOL0     H26749   8.723   5.927  11.151  1.0756  0.4908 -1.8277
  939MOL0     H26750   8.600   5.999  10.950  0.8913  0.4347  2.4093
  939MOL0     H26751   8.406   5.997  10.634 -0.5818  0.6478 -1.9884
  939MOL0     H26752   8.302   6.152  10.480 -0.9942  4.0769  0.0428
  939MOL0     H26753   8.083   6.235  10.336  0.9384  0.3468 -0.9634
  939MOL0     H26754   8.213   6.324  10.417 -0.6525  2.0865  1.8951
  939MOL0     H26755   8.068   6.533  10.438 -2.1168 -0.6879  2.2005
  939MOL0     H26756   7.932   6.424  10.372  0.1264 -0.4991 -2.3341
  939MOL0     H26757   8.032   6.602  10.224  0.5479  0.7324  0.7097
  939MOL0     H26758   8.048   6.434  10.162  2.9895 -2.6769  0.0470
  939MOL0     H26759   8.275   6.585  10.299 -1.3216  0.7470 -0.9850
  939MOL0     H26760   8.293   6.433  10.209  0.6756 -0.1673 -2.8416
  939MOL0     H26761   8.327   6.648   9.883 -0.8171  1.2842  0.2475
  939MOL0     H26762   7.947   6.148  10.713  0.9678  1.4251 -2.3795
  939MOL0     H26763   8.017   5.826  10.841  2.3829 -0.4809 -0.2339
  939MOL0     H26764   8.005   5.946  10.960 -2.4787  3.0242 -0.1711
  939MOL0     H26765   7.894   5.955  10.825  0.0813 -1.3758 -2.4715
  940MOL0     O26766   8.162   2.709  11.358  0.2632 -0.6201 -0.2491
  940MOL0     C26767   8.093   2.642  11.438 -0.3135  0.3994 -0.0850
  940MOL0     O26768   7.972   2.678  11.504  0.7358 -0.3467  0.4304
  940MOL0     C26769   7.943   2.814  11.498 -0.4830 -0.4317  0.2185
  940MOL0     C26770   7.976   2.896  11.607  0.3939 -0.3110  0.0767
  940MOL0     C26771   7.971   3.039  11.600  0.3614  0.9631 -0.4918
  940MOL0     C26772   7.917   3.102  11.490  0.0967  0.2162 -0.3580
  940MOL0     O26773   7.913   3.239  11.493 -0.7023 -0.7042  0.3341
  940MOL0     C26774   7.811   3.301  11.421 -0.1593  0.4076  0.7144
  940MOL0     C26775   7.742   3.404  11.511  0.3510 -0.0450  1.2897
  940MOL0     C26776   7.676   3.333  11.621  0.2044  1.1253  0.3605
  940MOL0     C26777   7.596   3.418  11.718  0.4481  0.3495 -0.0992
  940MOL0     C26778   7.532   3.334  11.831  0.6033 -1.3897  0.6733
  940MOL0     C26779   7.597   3.353  11.965 -0.1229 -0.0349  1.1899
  940MOL0     C26780   7.541   3.257  12.074 -0.2936  0.1858  0.7177
  940MOL0     C26781   7.391   3.281  12.104  0.3547 -0.3171 -0.8093
  940MOL0     N26782   7.362   3.239  12.244 -0.2761 -0.0283  0.5924
  940MOL0     C26783   7.360   3.311  12.360 -1.3179 -0.1287  0.7541
  940MOL0     C26784   7.348   3.222  12.459  0.2492 -0.5101  0.5483
  940MOL0     C26785   7.334   3.262  12.607  0.1751  0.4575  0.0753
  940MOL0     C26786   7.172   3.255  12.643  0.1125  1.0605  0.2294
  940MOL0     C26787   7.079   3.345  12.559 -0.1885  0.2033 -0.1387
  940MOL0     C26788   6.981   3.261  12.475  0.5660 -0.4495 -0.1755
  940MOL0     O26789   6.919   3.353  12.393 -0.1110  0.4322  0.6703
  940MOL0     C26790   6.806   3.314  12.336 -0.0478  0.2751  0.2715
  940MOL0     C26791   6.680   3.360  12.386 -0.2506 -0.1274 -0.2738
  940MOL0     C26792   6.572   3.322  12.315 -0.1560 -1.2343  0.3590
  940MOL0     C26793   6.569   3.245  12.204 -0.4338 -0.4796  0.1413
  940MOL0     C26794   6.448   3.193  12.156  0.4892  0.6704  0.2105
  940MOL0     O26795   6.407   3.199  12.030 -0.2069  0.0374  0.2444
  940MOL0     C26796   6.470   3.282  11.948 -0.4904 -0.6208  0.0765
  940MOL0     C26797   6.448   3.421  11.947  0.4360 -0.7415  0.2316
  940MOL0     C26798   6.511   3.505  11.852 -1.2850 -0.4745 -0.2155
  940MOL0     C26799   6.608   3.459  11.764  0.0212  1.1201  0.0867
  940MOL0     O26800   6.678   3.548  11.686 -0.5268  0.2478 -0.6760
  940MOL0     C26801   6.640   3.682  11.691  0.1839 -1.3575 -0.6332
  940MOL0     C26802   6.702   3.750  11.568  0.1524  0.0159 -0.3595
  940MOL0     C26803   6.858   3.725  11.560 -0.2823 -0.2740  0.2217
  940MOL0     C26804   6.949   3.768  11.678 -1.4199  0.4593  0.2836
  940MOL0     C26805   7.093   3.728  11.641 -0.8134 -0.1108  0.0848
  940MOL0     C26806   7.189   3.782  11.750  0.6045  0.3317  0.9941
  940MOL0     C26807   7.324   3.720  11.773  1.0800 -0.6162 -0.4081
  940MOL0     C26808   7.407   3.758  11.656  0.0845  0.5930  0.6194
  940MOL0    Cl26809   7.377   3.651  11.521 -0.1017  0.0295  0.3654
  940MOL0     C26810   6.630   3.316  11.772  0.7154  0.2937 -0.8778
  940MOL0     C26811   6.565   3.238  11.860  1.0932  0.6564  0.7762
  940MOL0     O26812   6.397   3.115  12.237 -0.2121  0.1105  0.0352
  940MOL0     C26813   6.695   3.191  12.165 -0.2696 -0.0396 -0.6759
  940MOL0     C26814   6.810   3.225  12.231 -0.4602 -0.7929 -0.3605
  940MOL0     N26815   7.323   3.095  12.409  0.2370 -0.1645 -0.3730
  940MOL0     N26816   7.334   3.111  12.280 -0.5254 -0.1194 -0.4396
  940MOL0     C26817   7.873   3.015  11.387 -0.8181 -0.2356  0.1611
  940MOL0     C26818   7.892   2.880  11.390  0.1446  0.9406  1.1591
  940MOL0     C26819   8.155   2.523  11.503 -0.0642  0.5184 -0.2385
  940MOL0     C26820   8.129   2.500  11.642  0.1021  0.5896  0.2365
  940MOL0     C26821   8.180   2.387  11.707 -0.5691 -0.5417 -1.1967
  940MOL0     C26822   8.256   2.298  11.643 -0.0919 -0.3520 -0.5575
  940MOL0     O26823   8.301   2.193  11.713 -0.1233  0.3392  0.0290
  940MOL0     C26824   8.194   2.098  11.759  0.4779  0.0012 -0.2095
  940MOL0     C26825   8.101   2.052  11.645  0.2914 -0.2382  0.1950
  940MOL0     C26826   8.179   1.987  11.528 -1.1188 -0.0306 -0.8643
  940MOL0     C26827   8.130   1.855  11.482 -1.3688 -0.2797  0.0089
  940MOL0     C26828   8.087   1.761  11.598 -0.8330  1.5497  0.1937
  940MOL0     C26829   8.056   1.687  11.690  0.4199 -1.0169 -0.3335
  940MOL0     C26830   8.303   2.324  11.515  0.2877 -0.6415  0.5542
  940MOL0     C26831   8.257   2.442  11.448 -0.7176  1.2228 -0.6170
  940MOL0     C26832   8.318   2.466  11.311  0.2810  0.1632 -0.0544
  940MOL0     H26833   8.000   2.829  11.689 -2.0429 -1.4743 -0.0794
  940MOL0     H26834   7.990   3.104  11.685 -0.7099  0.3377  0.2406
  940MOL0     H26835   7.843   3.347  11.326  0.7637 -1.7517 -0.0887
  940MOL0     H26836   7.727   3.236  11.396 -2.5906  2.9712  1.7106
  940MOL0     H26837   7.667   3.469  11.464  0.5501 -1.3287 -0.9578
  940MOL0     H26838   7.816   3.474  11.549  1.1746 -0.2302  0.0746
  940MOL0     H26839   7.755   3.298  11.688  0.7481  0.3137 -0.6783
  940MOL0     H26840   7.608   3.249  11.601  1.6669 -0.7377  2.6569
  940MOL0     H26841   7.652   3.498  11.767 -3.6103  1.3009  3.6600
  940MOL0     H26842   7.515   3.462  11.658  1.3037  1.7176 -0.3065
  940MOL0     H26843   7.430   3.367  11.850  0.9415  0.5850 -0.5929
  940MOL0     H26844   7.525   3.231  11.795 -0.6311 -0.3844 -2.1806
  940MOL0     H26845   7.704   3.345  11.943 -0.1516  1.9720  0.0366
  940MOL0     H26846   7.592   3.455  12.004 -2.4733 -0.2995  1.7017
  940MOL0     H26847   7.597   3.299  12.158 -2.5783  1.7091  1.5851
  940MOL0     H26848   7.559   3.151  12.053 -2.6883 -0.2010  0.2695
  940MOL0     H26849   7.362   3.385  12.089 -0.1668 -0.1599  1.0795
  940MOL0     H26850   7.329   3.219  12.039 -0.8679  2.1223 -2.1192
  940MOL0     H26851   7.361   3.418  12.375 -3.0249  0.0847 -0.3509
  940MOL0     H26852   7.388   3.189  12.669 -3.4177 -2.3248  0.2426
  940MOL0     H26853   7.371   3.364  12.621  1.2666  0.0129  0.5428
  940MOL0     H26854   7.135   3.153  12.639 -0.7827  1.1715  3.1288
  940MOL0     H26855   7.143   3.270  12.748 -0.6227  0.4827  0.1189
  940MOL0     H26856   7.139   3.416  12.503 -0.0237  0.1533 -0.0264
  940MOL0     H26857   7.022   3.409  12.627  0.5035 -0.6662  1.3031
  940MOL0     H26858   6.919   3.210  12.549 -0.2316  0.5078 -0.1581
  940MOL0     H26859   7.043   3.185  12.426  0.0473 -1.0254  0.0515
  940MOL0     H26860   6.681   3.419  12.477 -5.3829 -2.8676  1.9741
  940MOL0     H26861   6.477   3.357  12.353 -0.1859  2.2698 -2.4275
  940MOL0     H26862   6.370   3.459  12.012  0.9521  0.8068  0.0015
  940MOL0     H26863   6.478   3.609  11.859  2.0677  0.8383 -1.7076
  940MOL0     H26864   6.531   3.695  11.687  0.0653 -2.4934 -2.0780
  940MOL0     H26865   6.669   3.724  11.787 -1.8784 -0.4038 -0.3680
  940MOL0     H26866   6.668   3.714  11.471  0.1247 -0.5559 -0.1371
  940MOL0     H26867   6.665   3.853  11.576 -0.7965 -0.2995 -0.6404
  940MOL0     H26868   6.871   3.619  11.538  0.4610 -0.4442  1.4039
  940MOL0     H26869   6.901   3.783  11.478  3.1926 -3.0625 -0.1562
  940MOL0     H26870   6.920   3.722  11.773  0.0997 -3.6451 -1.0143
  940MOL0     H26871   6.954   3.877  11.677  0.4294  0.4286 -1.3435
  940MOL0     H26872   7.108   3.778  11.545 -1.3078 -3.0159 -1.6286
  940MOL0     H26873   7.127   3.624  11.637  1.4212  0.5140  1.2304
  940MOL0     H26874   7.202   3.890  11.736 -1.1192  0.4294 -0.0412
  940MOL0     H26875   7.129   3.772  11.841  0.4525  0.6820  0.9333
  940MOL0     H26876   7.318   3.614  11.797  4.2646 -1.0572 -1.1264
  940MOL0     H26877   7.355   3.777  11.861 -1.6777  2.0308 -0.9659
  940MOL0     H26878   7.396   3.865  11.638  0.3009  0.5714  0.3608
  940MOL0     H26879   7.512   3.752  11.688  0.2259  4.8081  1.4901
  940MOL0     H26880   6.712   3.281  11.710  0.6090 -0.5675 -0.5446
  940MOL0     H26881   6.597   3.134  11.863 -0.5195  0.0409 -0.9693
  940MOL0     H26882   6.707   3.132  12.074 -2.4081 -2.8004  0.6551
  940MOL0     H26883   6.902   3.199  12.179  0.6518  2.9298 -0.5392
  940MOL0     H26884   7.827   3.076  11.309  1.7862  1.5496 -0.1354
  940MOL0     H26885   7.857   2.814  11.312  3.7935  0.2483 -0.0992
  940MOL0     H26886   8.062   2.562  11.700 -2.7080 -2.4469  0.5312
  940MOL0     H26887   8.156   2.361  11.810 -0.1194 -0.5924 -1.1015
  940MOL0     H26888   8.121   2.147  11.824  0.2351  0.3266 -0.7177
  940MOL0     H26889   8.237   2.008  11.803 -0.7547 -0.7772 -0.5435
  940MOL0     H26890   8.054   2.144  11.608  0.7489 -0.3587 -0.7051
  940MOL0     H26891   8.021   1.991  11.688  0.8586 -0.6559  0.6559
  940MOL0     H26892   8.280   1.980  11.567 -1.2527  0.6250 -0.3920
  940MOL0     H26893   8.185   2.057  11.444 -0.3151  0.7588 -0.1719
  940MOL0     H26894   8.046   1.864  11.414  0.8214 -0.8647 -2.9628
  940MOL0     H26895   8.201   1.803  11.416  0.6091  1.7597  0.3942
  940MOL0     H26896   8.033   1.624  11.774  0.8715  1.1811  1.5353
  940MOL0     H26897   8.374   2.266  11.457  2.0555  2.1394 -0.2985
  940MOL0     H26898   8.369   2.562  11.325 -0.8215  0.6356  0.9323
  940MOL0     H26899   8.386   2.389  11.275 -1.4908 -1.7458  0.5013
  940MOL0     H26900   8.239   2.474  11.236 -0.1664 -3.5768 -0.1870
  941MOL0     O26901   7.725  10.684   5.470  1.0435 -0.1352 -0.2048
  941MOL0     C26902   7.740  10.783   5.395 -0.8209 -0.6264 -0.5215
  941MOL0     O26903   7.709  10.915   5.434 -0.0920  0.2030  0.1870
  941MOL0     C26904   7.647  10.946   5.549  0.1220  1.0010  0.6903
  941MOL0     C26905   7.682  11.056   5.620  0.3607 -0.4879  1.3577
  941MOL0     C26906   7.635  11.084   5.744 -0.6448  1.6595  0.9698
  941MOL0     C26907   7.534  11.004   5.801 -0.0115  0.6941 -0.6747
  941MOL0     O26908   7.498  11.013   5.938 -0.0783 -0.0344 -0.4540
  941MOL0     C26909   7.451  11.147   5.976  0.2646  0.2108  1.2489
  941MOL0     C26910   7.409  11.133   6.125 -0.1371 -0.7031 -0.1950
  941MOL0     C26911   7.288  11.051   6.150  0.5204 -0.6422 -0.4943
  941MOL0     C26912   7.273  11.027   6.301  0.2869 -0.2754 -0.6281
  941MOL0     C26913   7.146  10.943   6.337  1.0578  0.6910 -0.0477
  941MOL0     C26914   7.018  11.037   6.292  0.6429  0.5188  1.3200
  941MOL0     C26915   6.883  10.955   6.306 -0.6841 -1.2577  0.2771
  941MOL0     C26916   6.766  11.042   6.256 -0.1778  0.1019  0.7754
  941MOL0     N26917   6.656  10.953   6.201 -0.4810  0.3287 -0.7745
  941MOL0     C26918   6.605  10.959   6.071  0.3540  0.1125  0.1391
  941MOL0     C26919   6.476  10.912   6.078  1.1300  0.7185 -0.1827
  941MOL0     C26920   6.371  10.880   5.968 -0.5286  0.7372  0.3157
  941MOL0     C26921   6.429  10.835   5.833  0.6213 -0.4812 -0.2485
  941MOL0     C26922   6.326  10.849   5.713  0.2013 -0.2929 -0.4087
  941MOL0     C26923   6.383  10.813   5.578 -0.4288  0.4261 -0.2706
  941MOL0     O26924   6.476  10.918   5.554 -0.1293  0.2443  0.2241
  941MOL0     C26925   6.566  10.889   5.450  0.0857 -0.4249  0.0591
  941MOL0     C26926   6.682  10.958   5.437 -0.8791 -0.9244 -0.4892
  941MOL0     C26927   6.781  10.929   5.346  0.3933 -0.8387 -0.0586
  941MOL0     C26928   6.771  10.824   5.256  0.6421  0.2907 -0.6692
  941MOL0     C26929   6.864  10.795   5.143  0.2168 -0.3202  0.0525
  941MOL0     O26930   6.954  10.890   5.104  0.3004 -0.3236 -0.1634
  941MOL0     C26931   7.036  10.863   4.998  0.2550  0.0449  0.6122
  941MOL0     C26932   7.021  10.927   4.878 -0.0170 -0.0619  0.3008
  941MOL0     C26933   7.093  10.884   4.762 -0.0980 -0.3269  0.1729
  941MOL0     C26934   7.177  10.777   4.773  0.3545 -0.0524  0.3667
  941MOL0     O26935   7.236  10.720   4.661 -0.3089 -0.3884 -0.0604
  941MOL0     C26936   7.263  10.815   4.550  0.2664 -0.3889  0.4920
  941MOL0     C26937   7.367  10.760   4.437 -0.3601 -0.9360 -0.8794
  941MOL0     C26938   7.411  10.864   4.331  0.3332  0.7316  0.4179
  941MOL0     C26939   7.487  10.988   4.392 -0.3448  0.4052 -1.2148
  941MOL0     C26940   7.558  11.082   4.303 -0.6364 -0.2434 -0.5358
  941MOL0     C26941   7.471  11.104   4.190 -0.8152  0.5566 -0.7250
  941MOL0     C26942   7.512  11.226   4.115  0.1045 -1.2124  0.4135
  941MOL0     C26943   7.636  11.201   4.021  0.3896 -0.5894  0.6234
  941MOL0    Cl26944   7.689  11.352   3.969 -0.1510  0.3787  0.2923
  941MOL0     C26945   7.204  10.722   4.904 -1.1859 -1.5110  0.7706
  941MOL0     C26946   7.132  10.766   5.011  0.1750 -0.8002 -0.0980
  941MOL0     O26947   6.864  10.680   5.096 -0.0575 -0.1356 -0.0183
  941MOL0     C26948   6.651  10.750   5.271 -0.7635  0.0126  0.3317
  941MOL0     C26949   6.555  10.784   5.364  0.3251  0.1584 -1.1679
  941MOL0     N26950   6.462  10.871   6.213  1.2776 -0.4716  0.0889
  941MOL0     N26951   6.566  10.896   6.278  0.9642 -0.0477 -0.3517
  941MOL0     C26952   7.491  10.888   5.731 -1.1957  1.1167 -0.3665
  941MOL0     C26953   7.550  10.855   5.609  0.3100  0.2026  0.5687
  941MOL0     C26954   7.778  10.769   5.254 -0.0293 -0.3720 -0.4749
  941MOL0     C26955   7.816  10.894   5.188 -0.1927  0.7358 -0.0035
  941MOL0     C26956   7.855  10.892   5.056  0.5503 -0.4871  0.6730
  941MOL0     C26957   7.848  10.773   4.989  0.0873 -0.4930 -0.3477
  941MOL0     O26958   7.903  10.755   4.864 -0.0083  1.5865 -0.2007
  941MOL0     C26959   7.944  10.860   4.790  0.6494 -0.3564  0.4539
  941MOL0     C26960   8.034  10.773   4.697  0.6738  0.0201  0.2865
  941MOL0     C26961   7.970  10.648   4.631 -0.0257  0.8699 -0.2265
  941MOL0     C26962   7.845  10.667   4.535  0.4513 -0.8192  0.6915
  941MOL0     C26963   7.732  10.736   4.604  0.3192 -0.1637 -0.0272
  941MOL0     C26964   7.629  10.782   4.660 -0.6196 -0.4279 -0.0954
  941MOL0     C26965   7.807  10.657   5.053  0.3222 -1.2545  0.3515
  941MOL0     C26966   7.769  10.650   5.186  0.1336 -0.0669 -0.8483
  941MOL0     C26967   7.772  10.515   5.250 -0.0846 -0.1220 -0.7340
  941MOL0     H26968   7.758  11.122   5.580 -1.9776  1.2939 -0.4162
  941MOL0     H26969   7.673  11.171   5.797 -0.2092  1.2921  1.2801
  941MOL0     H26970   7.538  11.211   5.960  1.3230 -0.7431  2.9184
  941MOL0     H26971   7.364  11.195   5.930  0.1702  0.5439  1.7664
  941MOL0     H26972   7.392  11.234   6.163 -0.1358  0.9470 -4.0474
  941MOL0     H26973   7.498  11.101   6.181  1.2849  0.3606 -1.7391
  941MOL0     H26974   7.299  10.955   6.098 -1.3193 -0.5061 -1.2043
  941MOL0     H26975   7.203  11.107   6.110  2.9042  3.4122 -0.4216
  941MOL0     H26976   7.361  10.977   6.342  0.3793  0.7188  0.4775
  941MOL0     H26977   7.262  11.121   6.356  1.2741 -0.3660 -0.2677
  941MOL0     H26978   7.149  10.844   6.289  4.3685  0.8329 -0.3569
  941MOL0     H26979   7.133  10.929   6.445 -1.0460 -0.3419 -0.3791
  941MOL0     H26980   7.023  11.127   6.354 -0.1877  1.0819  0.5894
  941MOL0     H26981   7.013  11.049   6.183 -0.5644 -3.3054  0.7852
  941MOL0     H26982   6.873  10.923   6.410  0.6827  0.0413  0.8372
  941MOL0     H26983   6.908  10.865   6.248  0.7378  0.3183 -1.7089
  941MOL0     H26984   6.725  11.086   6.348  1.5761 -1.8259  2.5531
  941MOL0     H26985   6.785  11.122   6.183 -7.0687  2.6502  1.0173
  941MOL0     H26986   6.660  10.992   5.983 -0.0675 -0.3932 -0.3223
  941MOL0     H26987   6.299  10.805   6.003 -1.4927  2.0501  1.2383
  941MOL0     H26988   6.305  10.966   5.957 -0.3201  0.8976  0.3301
  941MOL0     H26989   6.520  10.893   5.812 -0.6382  1.3892 -0.7844
  941MOL0     H26990   6.458  10.730   5.836 -0.3790 -0.8349 -1.9166
  941MOL0     H26991   6.282  10.949   5.705  1.1569  0.2897  1.1187
  941MOL0     H26992   6.245  10.781   5.738 -0.5474  1.5117  2.6159
  941MOL0     H26993   6.296  10.808   5.512 -1.7555 -2.0911  1.5086
  941MOL0     H26994   6.436  10.718   5.571  1.5059  1.5666 -2.4337
  941MOL0     H26995   6.711  11.036   5.506  0.5599 -1.0731 -0.8813
  941MOL0     H26996   6.858  11.004   5.340 -2.8365  2.6412 -2.0448
  941MOL0     H26997   6.949  11.007   4.866  0.8044  0.5994 -0.3266
  941MOL0     H26998   7.057  10.926   4.669 -0.1237 -0.2114  0.2350
  941MOL0     H26999   7.170  10.827   4.494  0.0801  1.2927  1.1145
  941MOL0     H27000   7.278  10.914   4.593 -3.5790  1.1463 -1.2432
  941MOL0     H27001   7.453  10.720   4.492 -0.2802 -1.3417 -1.2889
  941MOL0     H27002   7.308  10.686   4.382  0.7586 -0.5919 -2.6140
  941MOL0     H27003   7.486  10.823   4.262  0.7674 -0.0499  1.3250
  941MOL0     H27004   7.324  10.910   4.283 -0.3291 -0.2161  0.6860
  941MOL0     H27005   7.562  10.958   4.465  1.1817  1.2708 -2.3524
  941MOL0     H27006   7.425  11.048   4.459  0.2531  0.8051 -1.0075
  941MOL0     H27007   7.650  11.033   4.270 -0.6472 -2.4909  2.3639
  941MOL0     H27008   7.582  11.172   4.360 -0.2218 -0.4256 -0.4140
  941MOL0     H27009   7.483  11.012   4.132 -0.5562 -0.4543  0.8536
  941MOL0     H27010   7.369  11.117   4.227 -1.4089 -1.3391 -1.5756
  941MOL0     H27011   7.525  11.309   4.185 -1.3346  0.2705 -1.0392
  941MOL0     H27012   7.437  11.261   4.045  0.1515 -2.3791 -0.2476
  941MOL0     H27013   7.712  11.152   4.083 -0.7188 -1.0301  1.6622
  941MOL0     H27014   7.610  11.140   3.934 -0.3879  1.7421 -0.8374
  941MOL0     H27015   7.282  10.647   4.906  0.3684  0.0458  0.7761
  941MOL0     H27016   7.156  10.726   5.109  0.3015  1.4284  0.8480
  941MOL0     H27017   6.628  10.662   5.211  2.3558 -2.2032  2.0710
  941MOL0     H27018   6.472  10.714   5.362  1.1670 -0.9466 -4.6916
  941MOL0     H27019   7.413  10.831   5.780 -1.1846  1.1251 -0.3394
  941MOL0     H27020   7.505  10.778   5.547  2.5321  1.9674 -3.6547
  941MOL0     H27021   7.805  10.984   5.247 -2.4773  0.6482 -0.2061
  941MOL0     H27022   7.886  10.986   5.011 -2.6672  0.6553  0.5991
  941MOL0     H27023   8.005  10.938   4.836  2.7380 -0.8510 -1.3089
  941MOL0     H27024   7.861  10.915   4.744  0.9554  1.6488  2.1466
  941MOL0     H27025   8.132  10.740   4.733  0.7782 -0.2582 -0.2471
  941MOL0     H27026   8.065  10.847   4.623 -1.3974 -1.1340 -1.8405
  941MOL0     H27027   7.946  10.569   4.703  4.1834 -2.5298 -2.0940
  941MOL0     H27028   8.048  10.589   4.583  0.6143  1.1819  0.4147
  941MOL0     H27029   7.874  10.716   4.442 -0.9781 -2.2072 -0.5728
  941MOL0     H27030   7.813  10.569   4.498  0.3410 -0.4142 -0.3322
  941MOL0     H27031   7.550  10.836   4.708 -0.6305  0.3277 -0.9353
  941MOL0     H27032   7.806  10.572   4.986 -4.5279 -0.3136 -1.1866
  941MOL0     H27033   7.679  10.512   5.307  0.1304 -2.1928 -0.3793
  941MOL0     H27034   7.766  10.438   5.172  1.5863  1.0139 -2.0406
  941MOL0     H27035   7.841  10.489   5.331 -0.7821 -1.3018 -0.4782
  942MOL0     O27036   4.824   5.736   9.038 -0.0181  0.1961 -0.2703
  942MOL0     C27037   4.727   5.779   8.975  0.3875 -0.7023  1.2076
  942MOL0     O27038   4.598   5.756   9.008  0.9989 -0.3988  0.5655
  942MOL0     C27039   4.568   5.720   9.144  0.1429 -0.2481  0.7687
  942MOL0     C27040   4.572   5.591   9.196 -0.3687 -0.3729 -0.0821
  942MOL0     C27041   4.533   5.569   9.330  1.1808  0.2582 -0.4244
  942MOL0     C27042   4.499   5.669   9.420 -0.3276  0.3059 -0.1663
  942MOL0     O27043   4.495   5.632   9.553 -0.2612  0.0340  0.3862
  942MOL0     C27044   4.426   5.721   9.651 -0.1196 -0.3238 -0.7449
  942MOL0     C27045   4.290   5.661   9.692 -0.4445  0.4078  0.4965
  942MOL0     C27046   4.204   5.583   9.581 -0.6078 -0.6500  0.0569
  942MOL0     C27047   4.069   5.576   9.648  1.0332 -0.2967  0.0969
  942MOL0     C27048   3.958   5.511   9.554  0.7220 -0.3986 -0.7544
  942MOL0     C27049   3.960   5.351   9.554 -0.0757 -0.6026  0.6344
  942MOL0     C27050   3.834   5.283   9.521  0.8562  0.9230 -0.2412
  942MOL0     C27051   3.771   5.318   9.386 -0.3086 -0.8452  0.5782
  942MOL0     N27052   3.646   5.254   9.356 -0.0533  0.6010 -1.3097
  942MOL0     C27053   3.535   5.280   9.431 -0.0520 -0.0972  0.5330
  942MOL0     C27054   3.447   5.213   9.351 -0.0297 -0.5721 -0.0951
  942MOL0     C27055   3.303   5.205   9.370 -0.7061  0.2293  0.8787
  942MOL0     C27056   3.237   5.290   9.254 -1.0534  0.5488  0.2376
  942MOL0     C27057   3.084   5.268   9.278 -0.5296  0.2055  0.0582
  942MOL0     C27058   2.999   5.330   9.159 -0.2487 -0.2654  0.3394
  942MOL0     O27059   3.029   5.467   9.122 -0.0705  0.0165  0.1860
  942MOL0     C27060   2.963   5.535   9.020  0.2561 -0.2344  1.1300
  942MOL0     C27061   2.871   5.481   8.928  0.9016  0.3804 -0.2603
  942MOL0     C27062   2.804   5.559   8.835  0.0965  0.1743  0.0129
  942MOL0     C27063   2.839   5.699   8.829  0.0539  0.1815  0.7869
  942MOL0     C27064   2.774   5.795   8.734  0.3515 -0.2699 -0.6327
  942MOL0     O27065   2.656   5.760   8.659 -0.4922 -0.1712 -0.2673
  942MOL0     C27066   2.593   5.862   8.593  0.8729  1.1168  0.7232
  942MOL0     C27067   2.545   5.825   8.466 -0.1548  0.5056  0.3583
  942MOL0     C27068   2.467   5.919   8.386  0.3267 -0.9735 -1.0868
  942MOL0     C27069   2.446   6.056   8.435 -0.7223  0.6460  0.7520
  942MOL0     O27070   2.374   6.155   8.371  0.3796  0.0115  0.2760
  942MOL0     C27071   2.327   6.137   8.240  1.0310  0.2676  0.4960
  942MOL0     C27072   2.221   6.255   8.206 -0.5770 -0.2781  0.0131
  942MOL0     C27073   2.272   6.386   8.246 -0.4993 -0.2267  0.5474
  942MOL0     C27074   2.182   6.511   8.200 -0.1493 -0.6806 -0.7557
  942MOL0     C27075   2.263   6.638   8.235  0.8368  0.3140  0.2518
  942MOL0     C27076   2.343   6.701   8.128 -0.7039  0.1458  0.5345
  942MOL0     C27077   2.424   6.826   8.170  0.2111 -0.4894  0.3610
  942MOL0     C27078   2.340   6.950   8.192  1.0035 -0.6532  0.3821
  942MOL0    Cl27079   2.433   7.096   8.226  0.1853 -0.2915 -0.5052
  942MOL0     C27080   2.491   6.080   8.564  0.2420  0.2659 -0.8585
  942MOL0     C27081   2.567   5.985   8.634  0.0890 -0.9102  0.7112
  942MOL0     O27082   2.832   5.909   8.722 -0.2998  0.4916  0.4931
  942MOL0     C27083   2.939   5.748   8.908 -0.1330 -0.0520  0.0104
  942MOL0     C27084   3.002   5.665   9.010  0.5371  0.1282  0.3445
  942MOL0     N27085   3.500   5.161   9.241  0.3287 -0.1931 -0.2609
  942MOL0     N27086   3.628   5.178   9.245 -0.4205 -0.2391  0.4525
  942MOL0     C27087   4.496   5.797   9.367  0.8620  0.6577  0.0394
  942MOL0     C27088   4.523   5.824   9.223  0.3048 -0.4152  0.3931
  942MOL0     C27089   4.744   5.846   8.843 -0.3518  0.9763 -0.3839
  942MOL0     C27090   4.628   5.851   8.762 -0.1788  0.9752  0.4118
  942MOL0     C27091   4.628   5.893   8.631 -0.2089 -0.0398 -0.5185
  942MOL0     C27092   4.737   5.942   8.579  0.5993  0.9925  0.4461
  942MOL0     O27093   4.733   5.980   8.451  0.5412 -0.5337 -0.4876
  942MOL0     C27094   4.851   6.008   8.370  0.3902 -0.3121 -0.3236
  942MOL0     C27095   4.908   6.146   8.373 -0.0157 -0.0747  0.4117
  942MOL0     C27096   4.835   6.264   8.289  0.4737 -0.3006  0.1370
  942MOL0     C27097   4.680   6.273   8.330  0.1025 -0.6006  0.5233
  942MOL0     C27098   4.624   6.393   8.266 -0.9907  0.0252 -0.3322
  942MOL0     C27099   4.570   6.478   8.202  0.9164  0.7309  1.2092
  942MOL0     C27100   4.866   5.932   8.653  0.0743 -0.9239  1.1828
  942MOL0     C27101   4.866   5.894   8.790 -0.1854  1.0210  0.4585
  942MOL0     C27102   4.986   5.917   8.869  0.0351  0.1506  0.2474
  942MOL0     H27103   4.594   5.500   9.141  2.5720  0.0388  0.2480
  942MOL0     H27104   4.527   5.469   9.372 -0.1474  1.3677  2.2832
  942MOL0     H27105   4.479   5.722   9.746 -2.9530  3.5950  1.0585
  942MOL0     H27106   4.424   5.830   9.636 -0.1104  0.1476  2.1913
  942MOL0     H27107   4.227   5.742   9.729  0.3644  0.4460  1.8335
  942MOL0     H27108   4.300   5.592   9.776 -0.9677 -2.5095 -1.6735
  942MOL0     H27109   4.251   5.485   9.568  0.0009 -0.7108  2.2358
  942MOL0     H27110   4.203   5.636   9.486  1.5642  2.1460  1.4385
  942MOL0     H27111   4.067   5.514   9.738  2.6782 -1.1108 -0.3774
  942MOL0     H27112   4.027   5.669   9.688 -0.6825 -1.1437  0.3530
  942MOL0     H27113   3.858   5.524   9.597  1.4246 -0.3318  0.9356
  942MOL0     H27114   3.959   5.548   9.451  1.0253  0.4148 -0.4749
  942MOL0     H27115   4.029   5.315   9.477  1.9709  0.1006  2.0745
  942MOL0     H27116   3.991   5.319   9.653 -1.4383 -0.6005  1.0848
  942MOL0     H27117   3.768   5.299   9.607  1.5411 -1.2405  0.7618
  942MOL0     H27118   3.869   5.180   9.525  2.5673  1.3956  5.3523
  942MOL0     H27119   3.756   5.426   9.391  3.0695 -0.2698  1.0365
  942MOL0     H27120   3.844   5.299   9.306  0.9265 -3.2975  2.1734
  942MOL0     H27121   3.502   5.324   9.524  0.7022 -2.5016  2.0427
  942MOL0     H27122   3.269   5.104   9.344  2.6231 -1.6925  3.2080
  942MOL0     H27123   3.270   5.223   9.473 -4.2860  0.4044 -0.1676
  942MOL0     H27124   3.269   5.393   9.275  0.7102 -0.3912  2.5448
  942MOL0     H27125   3.258   5.256   9.152  1.4509 -0.6114  1.0826
  942MOL0     H27126   3.041   5.304   9.372  1.6833 -1.1330  1.6779
  942MOL0     H27127   3.070   5.160   9.279  1.7681 -0.1394 -0.7085
  942MOL0     H27128   2.892   5.333   9.182 -0.5809 -0.0609 -1.1040
  942MOL0     H27129   3.016   5.278   9.064  1.5317 -0.1892  0.5946
  942MOL0     H27130   2.858   5.374   8.943  1.8258  0.1225 -1.1270
  942MOL0     H27131   2.721   5.527   8.773  0.7454 -0.9791 -0.2717
  942MOL0     H27132   2.562   5.724   8.429  1.3657  0.2277  1.7401
  942MOL0     H27133   2.428   5.897   8.287 -0.0270  1.4844 -1.5541
  942MOL0     H27134   2.415   6.146   8.176  0.5525 -0.7562 -0.3429
  942MOL0     H27135   2.278   6.043   8.214 -2.1277  2.4171 -2.1802
  942MOL0     H27136   2.197   6.252   8.100 -1.6176 -0.3392  0.2462
  942MOL0     H27137   2.133   6.240   8.269 -0.0040 -0.1952  0.8618
  942MOL0     H27138   2.276   6.393   8.356  0.6549 -0.5445  0.5417
  942MOL0     H27139   2.375   6.392   8.208  0.3322 -0.9281  2.5144
  942MOL0     H27140   2.096   6.516   8.266  0.9711  1.2108  0.6718
  942MOL0     H27141   2.152   6.519   8.095  0.9311  0.1437 -1.0211
  942MOL0     H27142   2.328   6.625   8.322  0.9004  1.2889  0.3540
  942MOL0     H27143   2.190   6.712   8.269  0.6854 -0.9171  2.8068
  942MOL0     H27144   2.416   6.628   8.092  1.3071  1.3308  1.9978
  942MOL0     H27145   2.280   6.724   8.041  0.5839 -0.0926 -0.4996
  942MOL0     H27146   2.499   6.836   8.091  0.1591 -1.6457  0.1485
  942MOL0     H27147   2.479   6.799   8.261 -0.7723  2.6320  2.0124
  942MOL0     H27148   2.277   6.949   8.103 -1.3796 -1.8643  1.9630
  942MOL0     H27149   2.267   6.945   8.274  0.5076 -1.1886 -0.0872
  942MOL0     H27150   2.472   6.177   8.610 -3.5459  0.0017 -1.4900
  942MOL0     H27151   2.601   6.010   8.734  2.0362  1.1582 -0.3517
  942MOL0     H27152   2.964   5.853   8.903 -1.4244  0.2106 -1.9322
  942MOL0     H27153   3.071   5.704   9.085  0.2681  0.2252  0.5414
  942MOL0     H27154   4.455   5.874   9.431  1.9301  3.0235 -1.9679
  942MOL0     H27155   4.497   5.923   9.185 -1.0113  0.3565  3.0703
  942MOL0     H27156   4.534   5.804   8.788 -0.8569  2.4500  0.6988
  942MOL0     H27157   4.542   5.870   8.570  2.1849 -1.1193 -3.7316
  942MOL0     H27158   4.826   6.008   8.264 -0.5453  0.7226 -0.1195
  942MOL0     H27159   4.928   5.932   8.387  0.9330  0.1374 -0.7284
  942MOL0     H27160   5.007   6.128   8.331 -0.2806  1.6598 -1.0814
  942MOL0     H27161   4.940   6.187   8.469 -1.3446  0.7764  0.5181
  942MOL0     H27162   4.834   6.239   8.182 -2.3875  1.9756 -0.4904
  942MOL0     H27163   4.889   6.359   8.292  0.2207 -0.1716  0.5957
  942MOL0     H27164   4.623   6.181   8.311  0.7195 -0.9371  0.2395
  942MOL0     H27165   4.679   6.273   8.440 -1.2601 -2.1457  0.5489
  942MOL0     H27166   4.529   6.560   8.147  0.2157 -1.0450 -1.1088
  942MOL0     H27167   4.959   5.968   8.611  0.4249  2.6988  4.4140
  942MOL0     H27168   4.961   5.977   8.957 -2.2880 -1.0242  0.4703
  942MOL0     H27169   5.027   5.822   8.906  1.4203 -0.3795 -2.4135
  942MOL0     H27170   5.064   5.958   8.804 -1.2741 -0.4901 -1.8251
  943MOL0     O27171  10.302  11.233   3.474 -0.4810  0.7800  0.2737
  943MOL0     C27172  10.287  11.149   3.386  0.4064 -0.6844 -1.3854
  943MOL0     O27173  10.221  11.174   3.262 -0.6321 -0.4843  0.4424
  943MOL0     C27174  10.144  11.285   3.241  1.0137 -0.9578  0.1509
  943MOL0     C27175  10.121  11.316   3.104  0.5129  0.7830  0.2318
  943MOL0     C27176  10.037  11.423   3.068 -0.1508  0.5310 -0.8927
  943MOL0     C27177   9.944  11.481   3.164 -0.3303 -0.1282  0.1896
  943MOL0     O27178   9.847  11.577   3.114  0.7006  0.3662  0.3115
  943MOL0     C27179   9.735  11.617   3.201 -0.4407  0.2207  0.2446
  943MOL0     C27180   9.637  11.498   3.216 -0.1577 -0.7377 -0.5537
  943MOL0     C27181   9.500  11.552   3.258  0.3726  0.2662 -0.4103
  943MOL0     C27182   9.398  11.439   3.281 -0.3879  0.0417  0.8885
  943MOL0     C27183   9.438  11.321   3.370 -0.6312 -0.1065  0.4507
  943MOL0     C27184   9.328  11.257   3.441  0.8594  0.6471 -0.8729
  943MOL0     C27185   9.387  11.134   3.514  0.9214  0.2544  0.1009
  943MOL0     C27186   9.437  11.019   3.419  0.4476 -0.4140 -0.1597
  943MOL0     N27187   9.399  10.891   3.485 -0.4116 -0.5466 -0.6271
  943MOL0     C27188   9.294  10.812   3.485  0.0117 -0.5000 -0.4086
  943MOL0     C27189   9.331  10.709   3.557  0.3902 -0.0988 -0.3149
  943MOL0     C27190   9.228  10.594   3.576  0.0263 -0.3509  0.1750
  943MOL0     C27191   9.148  10.566   3.447 -0.0386  0.3677 -0.3203
  943MOL0     C27192   9.043  10.454   3.472  0.3811  0.1643  0.1116
  943MOL0     C27193   9.109  10.316   3.491 -0.3256 -0.0176 -0.5930
  943MOL0     O27194   9.212  10.295   3.391  0.6792 -0.2616 -0.8120
  943MOL0     C27195   9.276  10.175   3.407  0.0330 -0.5819  0.2308
  943MOL0     C27196   9.250  10.064   3.335 -0.4355 -0.7578  0.1647
  943MOL0     C27197   9.341   9.961   3.348  0.5104  0.1758  0.8978
  943MOL0     C27198   9.450   9.969   3.430 -0.9474  0.7845  0.0732
  943MOL0     C27199   9.553   9.850   3.434 -0.2291 -0.1354 -0.5785
  943MOL0     O27200   9.656   9.870   3.520  0.2309 -0.4332 -0.6411
  943MOL0     C27201   9.740   9.765   3.527 -0.4112  0.4851 -0.5664
  943MOL0     C27202   9.870   9.785   3.483  0.0933  0.2142 -0.4897
  943MOL0     C27203   9.962   9.674   3.484  0.6115 -0.2998 -0.0994
  943MOL0     C27204   9.932   9.546   3.528  0.2416  0.1274 -0.2612
  943MOL0     O27205  10.024   9.443   3.511 -0.6889 -0.3286 -0.1805
  943MOL0     C27206   9.999   9.321   3.570 -0.3235 -0.2949  0.2700
  943MOL0     C27207  10.082   9.200   3.524 -0.6891 -0.8239 -0.8873
  943MOL0     C27208  10.213   9.207   3.599 -0.3953  1.0215 -0.4223
  943MOL0     C27209  10.310   9.311   3.550 -1.1115  0.6770 -0.1387
  943MOL0     C27210  10.453   9.299   3.614  0.2461  0.0877 -0.0333
  943MOL0     C27211  10.464   9.308   3.765  0.0172  0.4942  0.3598
  943MOL0     C27212  10.604   9.295   3.824 -0.8434  0.2298  0.3116
  943MOL0     C27213  10.588   9.291   3.981  0.2546  0.6687 -0.1715
  943MOL0    Cl27214  10.747   9.282   4.065 -0.5227  0.0193  0.0339
  943MOL0     C27215   9.806   9.538   3.585 -0.1844 -0.3681  0.5955
  943MOL0     C27216   9.712   9.645   3.601  0.0374  0.5851 -0.3756
  943MOL0     O27217   9.525   9.743   3.380  0.1328  0.7795 -0.1094
  943MOL0     C27218   9.469  10.077   3.506 -0.1147 -0.4292  0.4322
  943MOL0     C27219   9.386  10.186   3.493  0.5046  0.0132  0.0046
  943MOL0     N27220   9.454  10.716   3.607  0.1365  0.4600  0.4548
  943MOL0     N27221   9.499  10.829   3.560  0.5640  0.5145  0.7610
  943MOL0     C27222   9.947  11.429   3.297  0.2830  0.5615 -0.8908
  943MOL0     C27223  10.050  11.340   3.334 -0.6156 -0.6491  0.2463
  943MOL0     C27224  10.364  11.020   3.416  0.6423 -0.6185 -0.9194
  943MOL0     C27225  10.449  11.032   3.535  0.3912  1.1719  1.1859
  943MOL0     C27226  10.523  10.912   3.557  0.6600 -1.5710  0.8052
  943MOL0     C27227  10.515  10.793   3.476  0.8207 -0.5296  0.8402
  943MOL0     O27228  10.559  10.670   3.499 -0.2464 -0.0775 -0.2533
  943MOL0     C27229  10.654  10.647   3.605  0.3180 -0.7114  0.6669
  943MOL0     C27230  10.667  10.500   3.628  0.4779 -0.3786  0.7115
  943MOL0     C27231  10.766  10.472   3.733  0.0700  0.1611 -1.1305
  943MOL0     C27232  10.769  10.321   3.768  0.5950 -0.4426  0.0165
  943MOL0     C27233  10.651  10.271   3.854  0.0271  0.2594 -0.2461
  943MOL0     C27234  10.552  10.239   3.911 -0.3352  0.7976  0.6209
  943MOL0     C27235  10.423  10.796   3.372 -0.7498 -0.0169  0.6694
  943MOL0     C27236  10.357  10.908   3.331  0.6116  0.3204 -0.4475
  943MOL0     C27237  10.266  10.891   3.213 -1.1205  0.3836  0.1532
  943MOL0     H27238  10.191  11.269   3.035  1.4725  0.7854  1.1637
  943MOL0     H27239  10.032  11.454   2.964  0.8475  1.6327 -0.6285
  943MOL0     H27240   9.769  11.650   3.300 -0.5199 -3.3621  1.6065
  943MOL0     H27241   9.684  11.701   3.152 -0.4209 -0.5808 -1.2095
  943MOL0     H27242   9.674  11.419   3.282 -0.1593 -1.7690 -1.7492
  943MOL0     H27243   9.622  11.452   3.118  0.4777 -0.7878 -0.6361
  943MOL0     H27244   9.453  11.621   3.187 -2.6564  2.9687  3.7907
  943MOL0     H27245   9.508  11.599   3.356 -1.2370 -0.0550 -0.1008
  943MOL0     H27246   9.310  11.480   3.330  0.2017 -1.7808  3.7117
  943MOL0     H27247   9.361  11.394   3.188 -0.3623 -0.6185  1.1921
  943MOL0     H27248   9.499  11.250   3.314  0.2705  0.2183  1.0038
  943MOL0     H27249   9.506  11.369   3.441 -1.2507  2.2353 -0.4477
  943MOL0     H27250   9.288  11.326   3.517  1.5063  0.1612 -0.0700
  943MOL0     H27251   9.246  11.228   3.375 -1.6821 -0.2605  2.3987
  943MOL0     H27252   9.303  11.097   3.573  2.1455 -0.7839  1.2671
  943MOL0     H27253   9.477  11.151   3.573  2.0864 -0.4128 -1.4051
  943MOL0     H27254   9.400  11.034   3.317 -3.3842  0.9339  1.2659
  943MOL0     H27255   9.546  11.027   3.410  0.2982  0.6882 -1.2548
  943MOL0     H27256   9.190  10.823   3.454 -2.1916 -4.3657  4.2679
  943MOL0     H27257   9.284  10.506   3.609 -1.3277 -1.0973  0.5863
  943MOL0     H27258   9.158  10.613   3.658 -2.4257 -0.4692 -1.7379
  943MOL0     H27259   9.078  10.649   3.434 -0.9554  0.2367  2.9060
  943MOL0     H27260   9.209  10.541   3.360 -0.7191 -0.4850 -0.5721
  943MOL0     H27261   8.976  10.449   3.385 -1.2303  0.7815  1.2780
  943MOL0     H27262   8.986  10.483   3.560 -1.6439 -1.6994 -0.5163
  943MOL0     H27263   9.033  10.237   3.485  0.1750 -0.5612  0.0815
  943MOL0     H27264   9.149  10.313   3.593  0.4747  1.1882 -0.8598
  943MOL0     H27265   9.181  10.060   3.252 -0.9007  2.0297  0.3159
  943MOL0     H27266   9.327   9.876   3.281  1.0080  0.0459  0.9524
  943MOL0     H27267   9.915   9.876   3.444 -1.1532  1.0658 -0.0021
  943MOL0     H27268  10.057   9.707   3.443  0.2230  2.3702  0.9311
  943MOL0     H27269  10.006   9.316   3.679  2.7380  1.3535  0.2546
  943MOL0     H27270   9.903   9.293   3.527  1.0803 -2.3935 -1.7868
  943MOL0     H27271  10.015   9.118   3.547 -1.0942 -0.1906  0.3043
  943MOL0     H27272  10.097   9.192   3.416  2.2493  2.0719 -0.8982
  943MOL0     H27273  10.175   9.229   3.699 -5.1735 -1.9877 -1.2349
  943MOL0     H27274  10.262   9.109   3.601  1.8496  1.9991  3.5650
  943MOL0     H27275  10.274   9.408   3.587  1.1500  1.6037 -0.1986
  943MOL0     H27276  10.320   9.303   3.442 -2.5752  1.1586 -0.3296
  943MOL0     H27277  10.521   9.373   3.572  0.6089 -1.1726 -1.7801
  943MOL0     H27278  10.500   9.203   3.589 -2.1650 -2.0470  2.8010
  943MOL0     H27279  10.421   9.396   3.814  1.8723  2.3707 -1.1776
  943MOL0     H27280  10.424   9.211   3.795  1.8257 -1.4978 -3.0099
  943MOL0     H27281  10.661   9.383   3.794  1.2187 -1.8013 -2.1571
  943MOL0     H27282  10.654   9.205   3.789  0.7427  0.5091  1.6833
  943MOL0     H27283  10.546   9.386   4.014  1.1871  0.7261  0.9064
  943MOL0     H27284  10.528   9.208   4.019 -2.7044  1.7127 -2.1558
  943MOL0     H27285   9.779   9.444   3.633  3.6455 -1.2169  1.3686
  943MOL0     H27286   9.615   9.625   3.643 -0.3735 -1.3921 -2.0682
  943MOL0     H27287   9.552  10.085   3.575 -1.4239  4.4869  1.8183
  943MOL0     H27288   9.411  10.272   3.554  0.8964 -0.4658  0.5412
  943MOL0     H27289   9.882  11.468   3.375 -1.7449 -0.5200 -1.9625
  943MOL0     H27290  10.049  11.306   3.437  2.2654  0.3054  0.6647
  943MOL0     H27291  10.453  11.118   3.602 -3.2634  1.0498  1.7942
  943MOL0     H27292  10.574  10.911   3.653 -0.0876 -3.8608  1.2226
  943MOL0     H27293  10.614  10.701   3.692 -0.8988  1.8802 -1.3663
  943MOL0     H27294  10.751  10.694   3.582 -0.7460  0.7499 -1.0561
  943MOL0     H27295  10.695  10.445   3.538 -1.8973 -0.9943  0.2959
  943MOL0     H27296  10.573  10.452   3.654  0.7117 -0.5133  1.3180
  943MOL0     H27297  10.752  10.533   3.823 -1.9380  1.2194 -2.0919
  943MOL0     H27298  10.864  10.487   3.686  2.6712  0.2994  3.7200
  943MOL0     H27299  10.774  10.267   3.674  0.6262  0.5305 -0.5537
  943MOL0     H27300  10.858  10.302   3.828 -0.7410 -0.2596  2.1707
  943MOL0     H27301  10.474  10.208   3.978  1.0131  0.9668  2.3270
  943MOL0     H27302  10.428  10.710   3.306 -1.1605 -0.1488  0.8093
  943MOL0     H27303  10.270  10.789   3.176 -0.9632  0.3170  0.3521
  943MOL0     H27304  10.166  10.919   3.247 -0.1221  3.0349  1.1950
  943MOL0     H27305  10.304  10.950   3.129  0.0752 -3.5391 -2.3098
  944MOL0     O27306   7.922   7.584   7.546  0.6177 -0.4286  0.0015
  944MOL0     C27307   7.931   7.466   7.569 -0.3365  1.4657  0.1860
  944MOL0     O27308   7.943   7.418   7.705 -0.0926 -0.6561  0.0593
  944MOL0     C27309   7.966   7.287   7.710 -0.1557 -0.5880 -0.6761
  944MOL0     C27310   8.081   7.232   7.649 -0.7704 -0.4262 -0.2136
  944MOL0     C27311   8.099   7.097   7.639  0.9032  0.5174 -0.1290
  944MOL0     C27312   8.005   7.008   7.702 -0.0671 -0.1452 -0.2470
  944MOL0     O27313   8.048   6.876   7.691  0.2193 -0.2504 -0.7212
  944MOL0     C27314   7.982   6.768   7.767  0.6055 -0.6054 -0.3452
  944MOL0     C27315   8.059   6.635   7.771  0.7266  0.7122 -0.2616
  944MOL0     C27316   8.199   6.638   7.815 -0.6146  0.8670 -0.4667
  944MOL0     C27317   8.221   6.681   7.964 -0.2955  0.3655  0.2581
  944MOL0     C27318   8.369   6.687   7.997 -0.4116  0.9218  0.9218
  944MOL0     C27319   8.394   6.773   8.124  1.1415 -0.8316  0.2530
  944MOL0     C27320   8.322   6.715   8.257  0.5194 -1.2200  0.3352
  944MOL0     C27321   8.335   6.811   8.378  0.6869  0.0551  0.0609
  944MOL0     N27322   8.272   6.736   8.482  0.6081  0.9520  0.2785
  944MOL0     C27323   8.343   6.639   8.561 -0.1153 -0.7442  0.3403
  944MOL0     C27324   8.248   6.568   8.619  0.1759  0.1868  0.7466
  944MOL0     C27325   8.264   6.475   8.738 -0.3032 -0.8394 -0.0183
  944MOL0     C27326   8.139   6.475   8.829 -1.3340  0.3025 -0.5719
  944MOL0     C27327   8.156   6.361   8.940 -0.4269  0.5117 -0.0541
  944MOL0     C27328   8.254   6.394   9.051  0.4398  0.6469  0.0409
  944MOL0     O27329   8.302   6.269   9.105 -0.6264 -0.6293 -0.4716
  944MOL0     C27330   8.334   6.251   9.239  0.0496 -0.6336 -0.3818
  944MOL0     C27331   8.358   6.126   9.277 -0.2831  0.4226 -0.2768
  944MOL0     C27332   8.393   6.098   9.404 -0.4195  0.5624 -0.0565
  944MOL0     C27333   8.393   6.205   9.502 -0.4721  0.2630  0.9827
  944MOL0     C27334   8.421   6.179   9.646 -0.8719  0.8109  0.7162
  944MOL0     O27335   8.448   6.047   9.691 -0.1793  0.1390 -0.1584
  944MOL0     C27336   8.444   6.027   9.829 -0.3768  0.2919  0.3734
  944MOL0     C27337   8.562   5.983   9.894  0.4202 -0.3633 -1.2095
  944MOL0     C27338   8.554   5.965  10.029 -1.0235  0.9126  0.4617
  944MOL0     C27339   8.437   5.962  10.098  0.0575 -0.1173 -0.2008
  944MOL0     O27340   8.435   5.946  10.228 -0.1953  0.3983 -0.1608
  944MOL0     C27341   8.359   5.829  10.271 -0.2038 -0.2392  0.5302
  944MOL0     C27342   8.433   5.772  10.389 -0.6147 -0.0295 -0.2387
  944MOL0     C27343   8.383   5.630  10.407  0.2467 -0.1627 -0.0043
  944MOL0     C27344   8.442   5.579  10.541 -0.3070  0.1781 -0.6895
  944MOL0     C27345   8.442   5.426  10.539  1.8711 -0.1073  0.4788
  944MOL0     C27346   8.450   5.356  10.676 -0.3147 -0.6611 -0.3416
  944MOL0     C27347   8.448   5.212  10.657  0.2649 -0.0356 -0.0836
  944MOL0     C27348   8.463   5.136  10.787 -0.3359  0.2520  0.3773
  944MOL0    Cl27349   8.312   5.147  10.871  0.5450 -0.2857  0.1736
  944MOL0     C27350   8.322   6.007  10.036  0.5661  0.0416  0.0832
  944MOL0     C27351   8.323   6.036   9.903 -0.7387 -0.0404  0.4856
  944MOL0     O27352   8.438   6.278   9.718 -0.3762 -0.1979 -0.3865
  944MOL0     C27353   8.371   6.334   9.454  0.7161 -0.3318 -0.2936
  944MOL0     C27354   8.334   6.364   9.327 -0.2444 -0.2175  1.9069
  944MOL0     N27355   8.124   6.618   8.574 -0.0608  0.0821  0.2730
  944MOL0     N27356   8.138   6.721   8.500 -0.4411 -0.4700 -0.3147
  944MOL0     C27357   7.897   7.057   7.775  0.2959  0.0440 -0.0530
  944MOL0     C27358   7.875   7.195   7.762 -0.2914 -0.5787 -0.3745
  944MOL0     C27359   7.908   7.384   7.446 -0.4801 -0.7499 -0.3056
  944MOL0     C27360   7.805   7.291   7.443 -0.1056  0.2639  0.0724
  944MOL0     C27361   7.767   7.222   7.320 -0.3313  0.1832 -1.2234
  944MOL0     C27362   7.839   7.262   7.203 -0.0374 -0.1707  0.1344
  944MOL0     O27363   7.804   7.210   7.079 -0.2275 -0.9090  0.0741
  944MOL0     C27364   7.895   7.115   7.023 -0.2439  0.2427 -0.4757
  944MOL0     C27365   7.814   7.000   6.954 -0.9779 -0.7303 -0.0773
  944MOL0     C27366   7.713   7.055   6.854  0.6825 -0.0588 -0.2083
  944MOL0     C27367   7.772   7.099   6.718 -0.5101 -0.7320 -0.6657
  944MOL0     C27368   7.658   7.180   6.655 -0.5008 -0.1800 -0.7546
  944MOL0     C27369   7.571   7.256   6.615  0.0209  0.2559 -0.1436
  944MOL0     C27370   7.947   7.338   7.200 -0.3524 -1.0213 -0.2531
  944MOL0     C27371   7.988   7.414   7.322  1.1870 -0.9788  0.5105
  944MOL0     C27372   8.105   7.518   7.319 -0.1708 -0.1154  0.4064
  944MOL0     H27373   8.160   7.299   7.617 -0.2309 -0.3385  1.1873
  944MOL0     H27374   8.178   7.044   7.587 -1.8724 -0.7690 -3.4333
  944MOL0     H27375   7.954   6.798   7.868  2.6440 -1.8217  0.6639
  944MOL0     H27376   7.883   6.745   7.728 -0.4319  3.8276 -0.7786
  944MOL0     H27377   8.053   6.597   7.669  0.5635 -0.4627  0.1654
  944MOL0     H27378   8.008   6.561   7.834  3.1508 -1.2071 -0.3873
  944MOL0     H27379   8.258   6.709   7.756 -0.5864 -0.3930 -2.0504
  944MOL0     H27380   8.250   6.541   7.801  1.7644  2.1047 -0.9991
  944MOL0     H27381   8.169   6.774   7.986  0.8252  0.4912  2.7956
  944MOL0     H27382   8.172   6.601   8.021  1.1512  0.2728  1.4130
  944MOL0     H27383   8.399   6.583   8.010  0.8276  0.7966 -2.1742
  944MOL0     H27384   8.436   6.718   7.917  0.3685 -1.4366  0.5968
  944MOL0     H27385   8.502   6.782   8.141  1.2559 -1.7856  0.0648
  944MOL0     H27386   8.366   6.878   8.110 -0.1331 -1.1496  0.3470
  944MOL0     H27387   8.355   6.615   8.287  0.5821 -1.3392 -0.1254
  944MOL0     H27388   8.217   6.710   8.227  0.4890  2.7273 -0.8383
  944MOL0     H27389   8.437   6.840   8.406  0.1285  0.1232  2.1579
  944MOL0     H27390   8.271   6.896   8.353  0.3732  0.0245  0.7604
  944MOL0     H27391   8.451   6.633   8.560  0.1491  2.5687 -1.1613
  944MOL0     H27392   8.296   6.377   8.701 -0.3780 -0.2787 -1.6671
  944MOL0     H27393   8.354   6.510   8.790 -0.2926  0.7961 -1.0625
  944MOL0     H27394   8.133   6.568   8.885  0.6794 -0.7095  1.4735
  944MOL0     H27395   8.045   6.451   8.777 -0.4786 -2.8315 -0.8802
  944MOL0     H27396   8.187   6.272   8.885  0.7138  0.9230 -0.0897
  944MOL0     H27397   8.053   6.341   8.971 -1.2526 -0.5462 -3.1113
  944MOL0     H27398   8.201   6.451   9.128  1.4642 -0.3544  1.5372
  944MOL0     H27399   8.332   6.465   9.022 -0.6304  2.2422  0.9143
  944MOL0     H27400   8.350   6.047   9.204  1.7670  0.9620 -1.1580
  944MOL0     H27401   8.422   5.995   9.422  0.6195  1.1826  2.2622
  944MOL0     H27402   8.651   5.969   9.833  0.6097 -1.7209 -0.6701
  944MOL0     H27403   8.641   5.943  10.089 -2.2148 -3.7961  0.8140
  944MOL0     H27404   8.260   5.855  10.310 -0.7811  0.3484 -1.2356
  944MOL0     H27405   8.352   5.750  10.195  2.9097  0.9499 -1.1615
  944MOL0     H27406   8.540   5.767  10.366 -1.3385 -0.5187 -4.2113
  944MOL0     H27407   8.428   5.838  10.477  0.2620 -2.0376  1.4145
  944MOL0     H27408   8.275   5.621  10.388  0.3302 -0.1513 -0.5141
  944MOL0     H27409   8.429   5.567  10.330 -0.5322 -1.1153  0.2929
  944MOL0     H27410   8.372   5.616  10.617 -0.8715 -3.9722  1.0719
  944MOL0     H27411   8.543   5.621  10.549 -0.5548  0.8449 -0.9318
  944MOL0     H27412   8.532   5.389  10.489  3.1264  2.2653  0.8599
  944MOL0     H27413   8.355   5.387  10.484  1.7047 -0.0614  0.7075
  944MOL0     H27414   8.539   5.373  10.738 -0.9166 -1.2516  0.7201
  944MOL0     H27415   8.360   5.393  10.725 -0.1962  2.1156 -2.0058
  944MOL0     H27416   8.525   5.177  10.588  0.1259 -2.4007  0.8639
  944MOL0     H27417   8.353   5.185  10.610  1.2898 -2.7165 -0.8374
  944MOL0     H27418   8.491   5.030  10.778 -1.1356  0.0681 -0.0341
  944MOL0     H27419   8.520   5.190  10.863 -1.5535 -0.3427  1.7631
  944MOL0     H27420   8.228   6.031  10.085  0.6750  2.5639 -0.8058
  944MOL0     H27421   8.232   6.065   9.853  0.6721 -2.5618 -4.0558
  944MOL0     H27422   8.367   6.418   9.522 -0.2933 -1.7479  1.4731
  944MOL0     H27423   8.315   6.468   9.307 -0.6136 -0.5448  0.4541
  944MOL0     H27424   7.820   6.997   7.823 -0.2169 -0.3718 -1.3281
  944MOL0     H27425   7.790   7.238   7.814  0.1662 -0.3492  0.1918
  944MOL0     H27426   7.738   7.270   7.525  1.1159 -1.6230  0.6549
  944MOL0     H27427   7.689   7.147   7.323 -1.7076  1.5554 -1.3577
  944MOL0     H27428   7.964   7.080   7.100  1.5088  3.0413 -0.6271
  944MOL0     H27429   7.970   7.157   6.954  3.5887 -1.9260  2.0138
  944MOL0     H27430   7.783   6.940   7.040  2.2288  1.1830  2.6897
  944MOL0     H27431   7.886   6.939   6.898 -0.2955  0.2741 -0.3253
  944MOL0     H27432   7.679   7.149   6.897  0.9821  0.3360 -0.8118
  944MOL0     H27433   7.627   6.988   6.840 -0.1849  1.0006 -0.0156
  944MOL0     H27434   7.861   7.160   6.735 -1.5350  1.1958 -1.8568
  944MOL0     H27435   7.789   7.012   6.653 -0.6682 -2.1016  1.0622
  944MOL0     H27436   7.500   7.327   6.580  2.2763  2.5225 -0.4486
  944MOL0     H27437   7.999   7.362   7.107  0.3582  3.0579  0.9854
  944MOL0     H27438   8.188   7.485   7.256 -1.2316  0.1847 -1.2143
  944MOL0     H27439   8.061   7.611   7.282 -2.9370 -1.7513 -0.7763
  944MOL0     H27440   8.151   7.543   7.415  1.6333 -3.2801  0.5305
  945MOL0     O27441   8.902   9.597   8.066 -0.0957 -0.0456 -0.8437
  945MOL0     C27442   8.871   9.658   8.167  0.1111 -0.3119  0.6342
  945MOL0     O27443   8.933   9.648   8.285  0.4608 -0.3129  0.3970
  945MOL0     C27444   9.049   9.578   8.281 -0.2077  0.5400 -0.6845
  945MOL0     C27445   9.053   9.435   8.249  0.2502 -1.1847 -0.6355
  945MOL0     C27446   9.165   9.363   8.250 -0.6098  0.2075 -0.1710
  945MOL0     C27447   9.288   9.423   8.271 -0.6327 -0.3051 -0.2575
  945MOL0     O27448   9.409   9.371   8.300  0.7845  1.0213  0.4170
  945MOL0     C27449   9.420   9.233   8.252 -1.5758 -0.8935 -0.5715
  945MOL0     C27450   9.564   9.181   8.302 -0.4478  0.2691  0.3455
  945MOL0     C27451   9.696   9.231   8.238 -0.0479  0.4542 -0.7219
  945MOL0     C27452   9.788   9.280   8.351  0.1208 -0.3252  1.0265
  945MOL0     C27453   9.938   9.282   8.314  0.3718  0.2124 -1.2600
  945MOL0     C27454   9.991   9.146   8.252 -0.1999  0.9350 -1.1132
  945MOL0     C27455  10.141   9.149   8.215  0.9921 -1.2767 -0.0378
  945MOL0     C27456  10.187   8.998   8.192 -0.6125 -0.3637  0.0610
  945MOL0     N27457  10.330   8.985   8.177  0.1110 -0.3544  0.8619
  945MOL0     C27458  10.396   9.067   8.081  0.2440  0.0046 -0.7781
  945MOL0     C27459  10.511   8.997   8.043  0.8519  0.1730  0.4863
  945MOL0     C27460  10.617   9.049   7.946 -0.7843 -0.0407 -0.4600
  945MOL0     C27461  10.739   8.953   7.937  1.0732  0.5104  0.0762
  945MOL0     C27462  10.874   9.035   7.947 -0.4464 -0.8170  0.5751
  945MOL0     C27463  10.910   9.081   7.798  0.6959 -0.4567 -0.2344
  945MOL0     O27464  10.809   9.181   7.749  0.0906  0.3273  0.7385
  945MOL0     C27465  10.802   9.302   7.804  1.2353  0.0831  0.5718
  945MOL0     C27466  10.912   9.360   7.872 -0.0137  0.0172  0.6055
  945MOL0     C27467  10.893   9.488   7.922  0.3045 -0.2209  0.5580
  945MOL0     C27468  10.771   9.557   7.899  0.0199 -0.6348  0.9909
  945MOL0     C27469  10.759   9.694   7.961  0.1570 -0.4846  0.5039
  945MOL0     O27470  10.656   9.782   7.929  0.8827  0.6677 -0.6991
  945MOL0     C27471  10.607   9.846   8.041 -1.0423 -0.2857  0.1887
  945MOL0     C27472  10.576   9.781   8.160 -0.0296 -1.0041 -1.2472
  945MOL0     C27473  10.531   9.850   8.279 -0.2151 -0.5386  0.6252
  945MOL0     C27474  10.523   9.991   8.275  0.5001  0.8557 -0.9759
  945MOL0     O27475  10.469  10.051   8.387 -0.4566  0.6885 -0.4376
  945MOL0     C27476  10.347  10.132   8.374  0.6036 -0.3639 -0.0397
  945MOL0     C27477  10.258  10.104   8.497  0.2824 -0.4222 -0.2960
  945MOL0     C27478  10.329  10.097   8.636 -0.6691 -0.6095  0.3005
  945MOL0     C27479  10.216  10.107   8.737 -0.8716  0.3802  0.5505
  945MOL0     C27480  10.265  10.038   8.859  0.7219 -0.1416 -0.3614
  945MOL0     C27481  10.364  10.123   8.931  0.1180 -0.3978  0.6124
  945MOL0     C27482  10.381  10.078   9.072  0.1463  1.2724  1.5397
  945MOL0     C27483  10.419   9.934   9.066  0.6936  0.9023 -0.8951
  945MOL0    Cl27484  10.451   9.874   9.244  0.1052 -0.8327  0.0029
  945MOL0     C27485  10.555  10.060   8.149 -0.0916 -0.2449 -0.2475
  945MOL0     C27486  10.592   9.987   8.031  0.4131 -0.1088 -0.6417
  945MOL0     O27487  10.840   9.712   8.052  0.4627 -0.8587  0.0677
  945MOL0     C27488  10.665   9.500   7.826  0.0360  0.1147  0.7513
  945MOL0     C27489  10.681   9.370   7.786 -0.8812  1.3681  0.4604
  945MOL0     N27490  10.512   8.876   8.120 -0.3882  0.6949  0.8260
  945MOL0     N27491  10.403   8.867   8.185  0.7278 -0.6137  0.4749
  945MOL0     C27492   9.282   9.556   8.312  0.1559 -0.3835 -0.4005
  945MOL0     C27493   9.166   9.630   8.320  0.6060 -0.7594  0.6226
  945MOL0     C27494   8.753   9.746   8.158  0.0814 -0.3069  0.4000
  945MOL0     C27495   8.705   9.803   8.275 -0.2565 -0.3901 -0.3525
  945MOL0     C27496   8.589   9.875   8.280  0.3904 -1.0546  0.5537
  945MOL0     C27497   8.528   9.926   8.158 -0.8391 -0.6956  0.3948
  945MOL0     O27498   8.425  10.014   8.154 -0.3515  0.2112  0.1461
  945MOL0     C27499   8.313   9.962   8.221 -0.8977 -0.5340  0.5116
  945MOL0     C27500   8.281  10.052   8.344 -0.4665 -0.1803 -0.1448
  945MOL0     C27501   8.243  10.200   8.303 -0.6923  0.5175  0.1875
  945MOL0     C27502   8.369  10.291   8.309  0.1750 -0.3223  0.4643
  945MOL0     C27503   8.329  10.417   8.254 -0.2773  0.1366  0.6745
  945MOL0     C27504   8.293  10.525   8.212 -0.2768  0.0939  0.0499
  945MOL0     C27505   8.577   9.874   8.034  0.6695 -0.9747 -0.8304
  945MOL0     C27506   8.684   9.781   8.038 -0.7571  0.4163 -0.4627
  945MOL0     C27507   8.710   9.713   7.906  0.4925 -0.0370 -0.0425
  945MOL0     H27508   8.960   9.394   8.212 -0.7107  2.0126 -2.0800
  945MOL0     H27509   9.154   9.263   8.209 -2.4994  1.2997 -2.6087
  945MOL0     H27510   9.348   9.173   8.308 -1.6658  0.3281  0.6590
  945MOL0     H27511   9.404   9.234   8.144  0.2875  3.1713 -1.0048
  945MOL0     H27512   9.564   9.073   8.282 -4.3298  0.4967 -1.9141
  945MOL0     H27513   9.559   9.189   8.411 -2.4461 -0.4880  0.3426
  945MOL0     H27514   9.677   9.312   8.167  1.7231  0.9012 -0.7365
  945MOL0     H27515   9.732   9.141   8.187  1.7307  0.3421  0.6254
  945MOL0     H27516   9.745   9.378   8.375 -1.5233 -0.1426 -2.0702
  945MOL0     H27517   9.774   9.205   8.430  0.9251 -0.7147  0.8095
  945MOL0     H27518   9.946   9.372   8.253 -1.5147  2.0260  0.9559
  945MOL0     H27519   9.995   9.303   8.405 -2.1398  4.1170 -0.3536
  945MOL0     H27520   9.965   9.062   8.318 -1.3657  1.9683 -0.2139
  945MOL0     H27521   9.933   9.128   8.161  1.3074 -2.0571 -1.5946
  945MOL0     H27522  10.203   9.191   8.294  3.0799 -3.0271 -0.6445
  945MOL0     H27523  10.168   9.210   8.128 -0.7608 -2.1926 -1.2968
  945MOL0     H27524  10.168   8.919   8.265 -3.7831  0.3275  0.1364
  945MOL0     H27525  10.148   8.980   8.092 -0.6446  1.9495 -0.4125
  945MOL0     H27526  10.378   9.168   8.048 -2.7479  0.1738  0.9423
  945MOL0     H27527  10.568   9.064   7.849 -1.0306  0.6448 -0.2314
  945MOL0     H27528  10.657   9.144   7.981  1.0327 -1.2213  0.9262
  945MOL0     H27529  10.756   8.882   8.018 -2.1329 -2.7428 -1.8252
  945MOL0     H27530  10.726   8.898   7.844 -3.3799 -0.3869  0.9942
  945MOL0     H27531  10.952   8.969   7.984 -2.1597 -1.3040  3.6020
  945MOL0     H27532  10.855   9.124   8.007 -0.8080 -0.4953 -0.0011
  945MOL0     H27533  10.913   8.997   7.728  3.1626 -0.6582  0.0028
  945MOL0     H27534  11.014   9.115   7.805  1.6017 -3.1824  0.6121
  945MOL0     H27535  11.008   9.315   7.893  0.5507  0.2799 -1.2323
  945MOL0     H27536  10.976   9.534   7.973  0.4532 -1.8823  1.8820
  945MOL0     H27537  10.590   9.673   8.166 -0.5776 -1.2670 -3.7629
  945MOL0     H27538  10.505   9.808   8.375 -0.3039 -0.0188  0.8330
  945MOL0     H27539  10.363  10.239   8.357  0.4361 -0.4472 -0.7551
  945MOL0     H27540  10.296  10.089   8.288  2.5568 -2.9673 -0.0255
  945MOL0     H27541  10.189  10.189   8.491 -0.0540 -0.6189  0.6449
  945MOL0     H27542  10.208  10.007   8.486  0.6525 -0.9548  2.2021
  945MOL0     H27543  10.393  10.009   8.642  1.1796  0.7221  1.2754
  945MOL0     H27544  10.398  10.177   8.668 -1.4176 -0.8710  2.7507
  945MOL0     H27545  10.124  10.063   8.695  0.7984 -1.6451 -1.2321
  945MOL0     H27546  10.186  10.207   8.767  0.9936  1.3269 -0.5619
  945MOL0     H27547  10.300   9.938   8.833  2.9715  0.4317  0.2608
  945MOL0     H27548  10.181  10.030   8.930  1.2460 -0.4450  0.2304
  945MOL0     H27549  10.457  10.118   8.875 -0.5083 -2.1791 -0.3422
  945MOL0     H27550  10.317  10.222   8.936 -0.4737 -0.6643  0.4726
  945MOL0     H27551  10.291  10.083   9.135 -1.2169 -1.7591  0.0520
  945MOL0     H27552  10.457  10.141   9.118  0.2015  2.5847 -0.2130
  945MOL0     H27553  10.338   9.874   9.022 -0.4839  1.6270  0.2267
  945MOL0     H27554  10.513   9.919   9.011 -0.3056 -1.3315 -2.1611
  945MOL0     H27555  10.556  10.168   8.147 -1.0199 -0.1973  0.7948
  945MOL0     H27556  10.609  10.034   7.935  1.5144  0.1885 -0.3168
  945MOL0     H27557  10.570   9.550   7.811  0.6105  1.5528  1.7207
  945MOL0     H27558  10.608   9.315   7.728 -4.0706  3.0919  2.5698
  945MOL0     H27559   9.375   9.605   8.340  0.6495 -0.6341 -1.5242
  945MOL0     H27560   9.179   9.731   8.355  1.2265 -0.3933 -0.5975
  945MOL0     H27561   8.746   9.784   8.374 -0.0885 -1.1586 -0.5581
  945MOL0     H27562   8.542   9.903   8.374 -0.4473  0.0746 -0.1647
  945MOL0     H27563   8.339   9.861   8.255  1.7163 -0.6082 -1.3092
  945MOL0     H27564   8.228   9.960   8.152 -3.5848  0.0923  3.6019
  945MOL0     H27565   8.369  10.055   8.410 -0.9289  3.0222  0.5239
  945MOL0     H27566   8.203  10.008   8.406  1.5359 -2.8762  0.6714
  945MOL0     H27567   8.168  10.238   8.373  0.1491  1.6136  0.5101
  945MOL0     H27568   8.211  10.182   8.201  2.5298 -1.6993 -0.5951
  945MOL0     H27569   8.415  10.305   8.407  0.7372 -0.6281  0.2471
  945MOL0     H27570   8.451  10.253   8.248  0.1400  2.1545 -1.2954
  945MOL0     H27571   8.262  10.613   8.161  1.9939  0.4972 -0.7867
  945MOL0     H27572   8.523   9.894   7.943  0.1829 -3.9464 -1.3097
  945MOL0     H27573   8.649   9.762   7.830 -0.3581  0.7545  1.1062
  945MOL0     H27574   8.812   9.742   7.877  0.0285  2.4306  0.5900
  945MOL0     H27575   8.698   9.605   7.917 -0.2409  0.0422 -0.0587
  946MOL0     O27576   3.391   8.500   6.235  0.3333  0.2107 -0.7721
  946MOL0     C27577   3.460   8.573   6.166  0.4388  0.1377 -0.2000
  946MOL0     O27578   3.411   8.676   6.091 -0.2282  0.1413 -0.6047
  946MOL0     C27579   3.276   8.699   6.098 -1.0507 -0.3519 -0.6324
  946MOL0     C27580   3.232   8.807   6.186 -0.9528  0.1137 -0.0891
  946MOL0     C27581   3.094   8.832   6.192 -0.3435 -0.0288 -0.7055
  946MOL0     C27582   2.997   8.746   6.129 -0.3344 -0.1164  1.0907
  946MOL0     O27583   2.857   8.759   6.159  0.5046  0.4347  0.1818
  946MOL0     C27584   2.777   8.645   6.142 -0.7503 -0.7427 -0.2930
  946MOL0     C27585   2.682   8.677   6.023  0.0948 -0.2826 -0.3556
  946MOL0     C27586   2.583   8.790   6.050  0.1984 -0.2063 -1.3655
  946MOL0     C27587   2.486   8.800   5.917  0.3201 -0.4826 -1.0306
  946MOL0     C27588   2.410   8.938   5.924 -0.3343  0.0164  0.2536
  946MOL0     C27589   2.295   8.957   5.816 -1.1105  0.5389 -0.2048
  946MOL0     C27590   2.219   9.089   5.815  0.1581  0.2054 -0.0645
  946MOL0     C27591   2.077   9.085   5.763 -0.3863  0.2225  0.3922
  946MOL0     N27592   2.013   9.209   5.731  0.3904 -0.4371  0.3783
  946MOL0     C27593   2.023   9.319   5.815  0.3737  0.2588  0.1180
  946MOL0     C27594   1.944   9.408   5.757 -0.6004 -0.1073  1.2987
  946MOL0     C27595   1.912   9.542   5.801  0.0972 -0.0260  0.3320
  946MOL0     C27596   1.760   9.568   5.783 -0.4449 -1.0393 -0.0602
  946MOL0     C27597   1.722   9.718   5.797 -0.2746  1.0046  0.0612
  946MOL0     C27598   1.581   9.751   5.841 -0.0387  0.6773 -0.6107
  946MOL0     O27599   1.554   9.676   5.966 -0.2651 -0.2502  0.4803
  946MOL0     C27600   1.431   9.669   6.018 -0.3686 -0.2607 -0.3846
  946MOL0     C27601   1.312   9.732   5.971 -0.1075  0.1274 -0.6814
  946MOL0     C27602   1.185   9.690   6.027 -0.6851 -0.6388 -0.3977
  946MOL0     C27603   1.187   9.611   6.144 -0.2186  0.4704 -0.6448
  946MOL0     C27604   1.066   9.578   6.223 -0.0448 -0.0144 -0.2857
  946MOL0     O27605   1.080   9.540   6.349 -0.3929  0.4467 -0.1104
  946MOL0     C27606   0.970   9.536   6.434 -0.6815 -0.7718 -0.3686
  946MOL0     C27607   0.942   9.410   6.491  1.6356  0.1848  0.1667
  946MOL0     C27608   0.820   9.387   6.556  0.1049  0.1056  0.4990
  946MOL0     C27609   0.731   9.496   6.580 -0.2728  0.7425 -0.5468
  946MOL0     O27610   0.616   9.458   6.646  0.3644 -0.4609 -0.6215
  946MOL0     C27611   0.491   9.533   6.625  0.4477 -0.6599 -0.1831
  946MOL0     C27612   0.381   9.420   6.635  0.1331 -0.2218  0.8872
  946MOL0     C27613   0.315   9.411   6.777 -0.2762 -0.4272 -0.4200
  946MOL0     C27614   0.254   9.275   6.787 -0.4878 -0.8598  0.4071
  946MOL0     C27615   0.124   9.246   6.703 -0.0973  0.3914  0.1827
  946MOL0     C27616  -0.007   9.316   6.750  0.5729 -0.2553 -0.1617
  946MOL0     C27617  -0.057   9.285   6.892  0.2441  0.1266  0.6216
  946MOL0     C27618  -0.202   9.337   6.917 -0.1130 -1.0734  0.1627
  946MOL0    Cl27619  -0.261   9.291   7.079 -0.2825  0.6406 -0.2399
  946MOL0     C27620   0.763   9.624   6.537  1.1135 -0.0366  0.8070
  946MOL0     C27621   0.884   9.646   6.465  0.7766 -0.3901 -0.3748
  946MOL0     O27622   0.951   9.598   6.170  0.5745 -0.2981  0.5075
  946MOL0     C27623   1.309   9.581   6.209 -0.2434 -0.9851 -0.5314
  946MOL0     C27624   1.431   9.609   6.142 -0.0091 -0.4168 -0.3639
  946MOL0     N27625   1.884   9.347   5.645 -0.3925  1.2271 -0.6044
  946MOL0     N27626   1.920   9.229   5.630 -0.6837 -0.4746  0.2423
  946MOL0     C27627   3.051   8.653   6.032 -0.2010 -0.0707 -0.2552
  946MOL0     C27628   3.192   8.619   6.027  0.6364  0.3890  0.7088
  946MOL0     C27629   3.613   8.545   6.181 -0.5406  1.1421 -0.4076
  946MOL0     C27630   3.653   8.421   6.240 -0.2185  0.2805  1.0614
  946MOL0     C27631   3.789   8.388   6.237  0.3468  0.1676  0.0612
  946MOL0     C27632   3.893   8.473   6.205 -0.7250 -0.6953  0.0853
  946MOL0     O27633   4.021   8.410   6.219 -0.8071 -0.0291  0.2873
  946MOL0     C27634   4.142   8.476   6.160  0.4019 -0.1277 -0.4305
  946MOL0     C27635   4.265   8.403   6.190 -0.1905 -0.3921  0.3520
  946MOL0     C27636   4.258   8.282   6.112 -0.0998  0.2466  0.8839
  946MOL0     C27637   4.387   8.204   6.146  0.2710 -0.4037 -0.8910
  946MOL0     C27638   4.507   8.234   6.062  1.2421 -0.0254  0.0887
  946MOL0     C27639   4.595   8.243   5.981 -0.1218 -0.1587  0.2867
  946MOL0     C27640   3.861   8.590   6.149 -0.2095 -1.0801  0.0416
  946MOL0     C27641   3.724   8.629   6.145 -0.7619 -0.0827  0.6195
  946MOL0     C27642   3.696   8.754   6.074  0.0926 -0.2946 -0.4323
  946MOL0     H27643   3.311   8.871   6.223 -2.0607  0.2503  2.2143
  946MOL0     H27644   3.057   8.913   6.253  1.7920 -0.6241  1.5853
  946MOL0     H27645   2.844   8.558   6.143  0.4277  0.1147  1.1593
  946MOL0     H27646   2.718   8.637   6.234  2.1091  0.6566  1.8317
  946MOL0     H27647   2.629   8.589   5.987  0.3671 -0.5679 -0.0694
  946MOL0     H27648   2.757   8.687   5.944 -0.3057 -0.1680 -0.7235
  946MOL0     H27649   2.626   8.889   6.064 -1.4920  0.3916 -0.0730
  946MOL0     H27650   2.528   8.767   6.141  1.0004  2.4251 -0.1095
  946MOL0     H27651   2.548   8.790   5.828  0.8222  1.7209 -0.9928
  946MOL0     H27652   2.415   8.718   5.908  0.6008 -0.7246 -1.0759
  946MOL0     H27653   2.358   8.946   6.020 -2.4360 -0.6842 -0.7435
  946MOL0     H27654   2.477   9.022   5.904 -0.3462 -0.0957 -0.2843
  946MOL0     H27655   2.350   8.945   5.723  1.8090 -0.6747  1.5330
  946MOL0     H27656   2.226   8.872   5.812  1.7381 -1.9501  0.2948
  946MOL0     H27657   2.276   9.164   5.760  0.5991 -0.0589  0.0273
  946MOL0     H27658   2.224   9.123   5.918  3.2445 -2.1143  0.6727
  946MOL0     H27659   2.083   9.034   5.666  2.8117  0.2074  0.4882
  946MOL0     H27660   2.024   9.026   5.838  3.9524 -1.5027  2.4119
  946MOL0     H27661   2.082   9.328   5.905  2.3739 -0.6720 -1.0238
  946MOL0     H27662   1.961   9.570   5.894  1.4292  1.1167 -0.6766
  946MOL0     H27663   1.969   9.601   5.728  1.1338 -0.6007  0.6532
  946MOL0     H27664   1.724   9.546   5.682  0.6121 -2.2015 -0.1955
  946MOL0     H27665   1.703   9.502   5.850 -1.9610 -1.4787 -1.7031
  946MOL0     H27666   1.736   9.775   5.705 -0.0659  2.1873  0.8055
  946MOL0     H27667   1.792   9.774   5.860 -1.4727  2.5445  0.0986
  946MOL0     H27668   1.513   9.723   5.760 -1.6783 -2.4622  1.6672
  946MOL0     H27669   1.594   9.860   5.850  1.2068  0.4680  0.4097
  946MOL0     H27670   1.297   9.791   5.881 -2.1985  2.3622  0.9814
  946MOL0     H27671   1.101   9.731   5.971 -0.1815  1.7674  0.4849
  946MOL0     H27672   1.022   9.338   6.477 -0.0333 -2.0618  1.4541
  946MOL0     H27673   0.787   9.296   6.605 -2.1022  1.7347  2.2851
  946MOL0     H27674   0.470   9.605   6.704 -0.8876  0.2256 -1.3045
  946MOL0     H27675   0.494   9.590   6.531  0.1688 -1.5389 -0.7350
  946MOL0     H27676   0.301   9.431   6.561  0.1805 -0.7160  0.7586
  946MOL0     H27677   0.429   9.327   6.604  1.3114 -0.4694  3.2363
  946MOL0     H27678   0.389   9.435   6.854 -0.8201  2.1981 -0.5928
  946MOL0     H27679   0.240   9.491   6.783 -0.0383 -0.2247 -0.1509
  946MOL0     H27680   0.226   9.255   6.891  2.2925  2.0924  1.9109
  946MOL0     H27681   0.330   9.200   6.763 -2.9580 -3.1084 -0.8923
  946MOL0     H27682   0.098   9.140   6.712 -1.7211  0.6384 -1.0680
  946MOL0     H27683   0.119   9.246   6.594 -1.3856 -1.9750  0.1850
  946MOL0     H27684   0.013   9.424   6.744  3.4916 -0.4903  2.8170
  946MOL0     H27685  -0.076   9.268   6.680  2.1761 -3.1554  0.1030
  946MOL0     H27686   0.004   9.334   6.968 -3.1356  3.2396  1.5786
  946MOL0     H27687  -0.069   9.176   6.894 -1.4256  0.1800 -1.5383
  946MOL0     H27688  -0.205   9.445   6.904  3.6705 -0.1115  4.6745
  946MOL0     H27689  -0.263   9.284   6.843  0.8823 -3.2368  0.8172
  946MOL0     H27690   0.699   9.710   6.556 -0.0503 -0.9763  1.3035
  946MOL0     H27691   0.919   9.745   6.435 -0.4145 -0.5350 -2.4499
  946MOL0     H27692   1.315   9.531   6.305 -1.4809  0.1554  0.1744
  946MOL0     H27693   1.529   9.580   6.179  1.4627  4.4153  0.3160
  946MOL0     H27694   2.975   8.597   5.979 -3.0149  1.5150  1.8566
  946MOL0     H27695   3.225   8.539   5.962  0.6264  2.1216 -1.5654
  946MOL0     H27696   3.583   8.352   6.284  0.4047 -0.9225  0.2376
  946MOL0     H27697   3.818   8.291   6.276  1.2289  0.2887 -0.2720
  946MOL0     H27698   4.157   8.575   6.204 -1.7691  1.0988 -2.2134
  946MOL0     H27699   4.129   8.483   6.051  1.1467 -0.2197 -0.5319
  946MOL0     H27700   4.277   8.384   6.297  0.5689  0.2598  0.3863
  946MOL0     H27701   4.352   8.463   6.162 -0.7932  1.5116  2.3093
  946MOL0     H27702   4.262   8.304   6.005 -1.8306 -2.2314  0.2214
  946MOL0     H27703   4.172   8.217   6.133  0.6153 -0.3117  2.2064
  946MOL0     H27704   4.405   8.213   6.253 -0.1884 -1.0434 -0.7550
  946MOL0     H27705   4.358   8.099   6.133  2.5652 -1.1744 -0.1633
  946MOL0     H27706   4.681   8.252   5.918 -1.6955  1.6544 -1.7721
  946MOL0     H27707   3.939   8.660   6.123 -3.1703  2.6768  0.3998
  946MOL0     H27708   3.657   8.822   6.151  0.1588 -0.3096 -0.3854
  946MOL0     H27709   3.786   8.782   6.019 -0.7076  1.6373 -0.8474
  946MOL0     H27710   3.630   8.726   5.992  3.0239 -3.5103 -1.9536
  947MOL0     O27711   1.189   5.472   0.353 -0.2767 -0.0913 -1.2014
  947MOL0     C27712   1.193   5.436   0.474  0.0566  0.4476  0.1965
  947MOL0     O27713   1.110   5.475   0.576  0.3235  0.3971 -0.1887
  947MOL0     C27714   0.988   5.529   0.538 -0.4516  0.1629  0.5124
  947MOL0     C27715   0.921   5.628   0.607 -0.5065  0.1888 -0.0791
  947MOL0     C27716   0.794   5.664   0.583 -0.7127 -0.1859 -0.0874
  947MOL0     C27717   0.723   5.595   0.482 -0.8641  0.4899  0.5192
  947MOL0     O27718   0.600   5.644   0.472 -0.3039  0.0198 -1.2417
  947MOL0     C27719   0.518   5.594   0.371 -0.7840 -0.2595  0.7071
  947MOL0     C27720   0.388   5.661   0.393  0.4424  0.1109  0.6824
  947MOL0     C27721   0.312   5.608   0.512  0.4720  0.4376  0.6351
  947MOL0     C27722   0.240   5.463   0.483 -0.1608  0.6854  0.0263
  947MOL0     C27723   0.107   5.470   0.556  0.6373 -0.4639  0.4742
  947MOL0     C27724   0.050   5.330   0.563 -0.3514 -0.0516 -0.1931
  947MOL0     C27725  -0.075   5.321   0.652 -1.0256 -0.0868 -1.1188
  947MOL0     C27726  -0.183   5.425   0.612  0.1046 -0.5947 -0.4571
  947MOL0     N27727  -0.225   5.389   0.474 -1.2076  0.7835  0.2564
  947MOL0     C27728  -0.279   5.266   0.447  0.6445  0.5117  0.6032
  947MOL0     C27729  -0.285   5.249   0.311 -0.2765  0.3636 -0.8804
  947MOL0     C27730  -0.324   5.119   0.245 -0.3610 -0.8666 -0.5947
  947MOL0     C27731  -0.470   5.120   0.210  0.6061  0.9085  0.0120
  947MOL0     C27732  -0.542   5.240   0.148  0.1695  0.0719  0.9603
  947MOL0     C27733  -0.475   5.281   0.011 -0.1665  0.2505  0.2232
  947MOL0     O27734  -0.554   5.356  -0.072  0.1712 -1.0408 -0.2755
  947MOL0     C27735  -0.531   5.494  -0.087 -0.3552  0.9131 -0.2191
  947MOL0     C27736  -0.441   5.568  -0.004 -0.3103  0.2355  0.4611
  947MOL0     C27737  -0.450   5.706  -0.015 -0.6216 -0.2199 -0.3061
  947MOL0     C27738  -0.512   5.774  -0.115 -0.9444  0.8279  0.8597
  947MOL0     C27739  -0.509   5.919  -0.135 -0.5491 -0.4048 -0.5273
  947MOL0     O27740  -0.506   5.985  -0.019 -0.9702  0.5308 -0.1213
  947MOL0     C27741  -0.501   6.117  -0.015  0.4211 -0.7877 -0.5458
  947MOL0     C27742  -0.452   6.207  -0.106 -0.2403 -0.2523  0.9826
  947MOL0     C27743  -0.458   6.345  -0.100 -0.5428  0.5205 -1.9793
  947MOL0     C27744  -0.514   6.398   0.024 -0.7735  0.3042  1.2672
  947MOL0     O27745  -0.515   6.532   0.058 -0.0129  0.3040 -0.3570
  947MOL0     C27746  -0.585   6.626  -0.025 -0.5490  0.4250 -0.2830
  947MOL0     C27747  -0.523   6.769  -0.040 -0.1051 -0.1183  0.6903
  947MOL0     C27748  -0.511   6.845   0.097 -0.0969 -0.5143  1.5768
  947MOL0     C27749  -0.533   6.998   0.099 -0.4460  1.0854  0.3153
  947MOL0     C27750  -0.402   7.070   0.106  0.1911  0.1245 -0.1311
  947MOL0     C27751  -0.418   7.223   0.095  0.2093 -0.4867  1.0293
  947MOL0     C27752  -0.545   7.283   0.171  0.0111  0.2212  0.5915
  947MOL0     C27753  -0.562   7.424   0.118 -0.4097 -0.6745  0.5142
  947MOL0    Cl27754  -0.426   7.541   0.152  0.1383 -0.3696  0.1154
  947MOL0     C27755  -0.565   6.313   0.120  0.0311 -1.4387 -0.3160
  947MOL0     C27756  -0.548   6.178   0.104  1.0104  0.2991 -0.5227
  947MOL0     O27757  -0.543   5.968  -0.244  0.2355 -0.1425 -0.5212
  947MOL0     C27758  -0.573   5.688  -0.212  0.8298 -0.5177  1.3050
  947MOL0     C27759  -0.593   5.553  -0.197 -0.0285 -0.1575 -0.0924
  947MOL0     N27760  -0.247   5.373   0.257  1.0301  0.0087 -0.3985
  947MOL0     N27761  -0.202   5.451   0.351  0.0508 -0.8279 -0.5173
  947MOL0     C27762   0.786   5.492   0.409  0.7028  0.2783  0.3308
  947MOL0     C27763   0.911   5.468   0.438 -1.0788 -0.0917 -0.0108
  947MOL0     C27764   1.290   5.323   0.512  0.0637  0.1178 -0.5117
  947MOL0     C27765   1.269   5.251   0.629  1.0175 -0.0483  0.3203
  947MOL0     C27766   1.339   5.141   0.672 -1.0213  0.3817  0.5513
  947MOL0     C27767   1.443   5.098   0.604  0.1726  0.1479  0.0076
  947MOL0     O27768   1.505   4.990   0.649 -0.6655 -0.1279 -0.3973
  947MOL0     C27769   1.578   4.915   0.550 -0.3792  0.0576  0.6450
  947MOL0     C27770   1.600   4.786   0.613 -0.1429 -0.1328  0.0440
  947MOL0     C27771   1.703   4.787   0.720  0.4753 -0.1422  0.5286
  947MOL0     C27772   1.828   4.703   0.689  0.2616  0.0087 -0.3646
  947MOL0     C27773   1.811   4.563   0.668  0.3360 -0.6677 -0.1910
  947MOL0     C27774   1.786   4.443   0.653  0.0423 -0.9061 -0.6094
  947MOL0     C27775   1.491   5.172   0.491 -0.2593 -0.7806  0.5420
  947MOL0     C27776   1.412   5.282   0.450 -0.8393  0.1726  0.7611
  947MOL0     C27777   1.470   5.374   0.338  0.4166  1.2467 -0.1110
  947MOL0     H27778   0.974   5.681   0.686  3.4801 -0.5214 -2.0223
  947MOL0     H27779   0.739   5.731   0.648 -3.0242 -2.2224  0.1797
  947MOL0     H27780   0.566   5.628   0.279 -0.2163  1.3492  1.5652
  947MOL0     H27781   0.512   5.485   0.380  4.4569 -0.8717 -0.1559
  947MOL0     H27782   0.327   5.638   0.305  2.3213 -0.1006 -0.6111
  947MOL0     H27783   0.403   5.769   0.400 -2.1774  0.4935  1.7231
  947MOL0     H27784   0.237   5.674   0.556  1.2808  0.8972  1.3400
  947MOL0     H27785   0.378   5.603   0.599  0.7240  0.4636  0.4457
  947MOL0     H27786   0.230   5.443   0.376  0.2539  0.7298 -0.0252
  947MOL0     H27787   0.293   5.376   0.524 -2.7458  0.3021  2.8637
  947MOL0     H27788   0.123   5.504   0.659 -0.5047 -0.9072  0.8128
  947MOL0     H27789   0.043   5.548   0.513 -1.9577 -1.2233  2.6696
  947MOL0     H27790   0.029   5.286   0.465  3.7181 -1.7692 -0.4946
  947MOL0     H27791   0.133   5.269   0.600  0.7931  0.4119 -1.8318
  947MOL0     H27792  -0.056   5.354   0.754  0.9819 -0.8191 -1.2280
  947MOL0     H27793  -0.110   5.217   0.658 -0.2822 -0.4077 -2.1086
  947MOL0     H27794  -0.266   5.419   0.683  0.9597 -0.2436  0.5962
  947MOL0     H27795  -0.150   5.528   0.624 -1.8518 -0.1676  2.0193
  947MOL0     H27796  -0.298   5.181   0.513 -0.3816  1.1894  1.2014
  947MOL0     H27797  -0.264   5.101   0.155  2.9662  0.1661  1.2099
  947MOL0     H27798  -0.293   5.033   0.305  1.2071 -0.6465 -1.0292
  947MOL0     H27799  -0.492   5.025   0.159  0.4262  1.7532 -1.5342
  947MOL0     H27800  -0.525   5.113   0.304 -4.4748  1.6250 -2.5645
  947MOL0     H27801  -0.556   5.328   0.211 -0.5721  0.0868  0.7858
  947MOL0     H27802  -0.643   5.203   0.128 -0.9699  3.2861  0.1083
  947MOL0     H27803  -0.438   5.199  -0.051  3.1663  1.8875 -0.1723
  947MOL0     H27804  -0.380   5.332   0.031 -0.4000  0.9428 -0.3983
  947MOL0     H27805  -0.375   5.518   0.067 -2.4070 -3.6508 -0.0813
  947MOL0     H27806  -0.396   5.761   0.062 -2.2847 -1.7662  2.1138
  947MOL0     H27807  -0.406   6.169  -0.196  1.4858  0.6337  1.4367
  947MOL0     H27808  -0.429   6.416  -0.176  0.9890  1.8655 -0.2185
  947MOL0     H27809  -0.582   6.589  -0.128  1.6254  0.1496 -0.1673
  947MOL0     H27810  -0.688   6.638   0.009 -0.8965  0.9748 -1.4867
  947MOL0     H27811  -0.425   6.757  -0.086 -0.1315  2.0878 -0.0373
  947MOL0     H27812  -0.589   6.835  -0.097  0.7839 -0.9933 -1.4644
  947MOL0     H27813  -0.602   6.819   0.151 -0.5574  0.8525  1.5138
  947MOL0     H27814  -0.419   6.813   0.146  0.8407  0.9433  0.8467
  947MOL0     H27815  -0.592   7.030   0.185 -0.9500  0.7868  0.0857
  947MOL0     H27816  -0.587   7.030   0.010 -0.0216  3.6113  0.8970
  947MOL0     H27817  -0.334   7.044   0.025  2.2194  1.0100  1.2296
  947MOL0     H27818  -0.351   7.045   0.200 -2.2878  0.6674  1.4652
  947MOL0     H27819  -0.324   7.261   0.137 -0.2868 -0.8382  2.5256
  947MOL0     H27820  -0.430   7.258  -0.008  1.4416  2.3095  1.7365
  947MOL0     H27821  -0.529   7.287   0.279  2.9511 -2.7208  0.4444
  947MOL0     H27822  -0.638   7.233   0.142  1.3547 -0.8663 -2.2512
  947MOL0     H27823  -0.576   7.418   0.009  1.8696  0.7148  0.0910
  947MOL0     H27824  -0.654   7.470   0.156 -0.3091  2.5669 -2.6615
  947MOL0     H27825  -0.597   6.371   0.206  0.1826 -2.4909  0.4625
  947MOL0     H27826  -0.595   6.106   0.171  2.0069  0.2783  0.1878
  947MOL0     H27827  -0.625   5.740  -0.292  0.7752 -0.2078  1.5432
  947MOL0     H27828  -0.651   5.496  -0.269 -0.6889 -1.5181  1.4574
  947MOL0     H27829   0.740   5.451   0.320  2.7511 -1.2910 -0.0624
  947MOL0     H27830   0.960   5.380   0.396 -1.6887 -0.3095 -0.2771
  947MOL0     H27831   1.183   5.269   0.693  0.0775  1.3757 -1.2625
  947MOL0     H27832   1.306   5.084   0.759 -3.4646  1.5573  0.4961
  947MOL0     H27833   1.673   4.957   0.517 -0.4250 -0.5831 -0.3661
  947MOL0     H27834   1.506   4.904   0.468 -1.1680  3.2114  0.7547
  947MOL0     H27835   1.637   4.721   0.533 -1.4364  0.4376 -1.0533
  947MOL0     H27836   1.505   4.744   0.647 -1.2147  1.4280 -0.8926
  947MOL0     H27837   1.658   4.737   0.806  1.4894 -1.3161  0.4072
  947MOL0     H27838   1.722   4.890   0.752  2.6161  0.0731 -1.1396
  947MOL0     H27839   1.869   4.735   0.592  3.4002 -2.0041  0.1427
  947MOL0     H27840   1.907   4.722   0.762 -1.3796 -3.8697  2.7829
  947MOL0     H27841   1.764   4.338   0.652  0.5973 -1.0235 -0.6691
  947MOL0     H27842   1.585   5.154   0.440 -0.7781  1.3830 -1.3575
  947MOL0     H27843   1.513   5.313   0.259  1.3089 -1.0241  2.0041
  947MOL0     H27844   1.404   5.452   0.299 -1.5325 -0.8482 -1.2826
  947MOL0     H27845   1.560   5.421   0.378  1.2133 -2.6127  3.3156
  948MOL0     O27846   5.184   9.872   7.028 -0.2240 -0.1664  0.6461
  948MOL0     C27847   5.177   9.988   7.018  0.0830 -0.7123 -0.6576
  948MOL0     O27848   5.062  10.061   6.980 -0.1969 -0.6323  0.7844
  948MOL0     C27849   4.954  10.004   6.919 -0.8453  1.4580  0.0415
  948MOL0     C27850   4.831  10.023   6.980  0.0516  0.4510 -0.1215
  948MOL0     C27851   4.721   9.965   6.936 -0.5257 -0.6360 -0.5738
  948MOL0     C27852   4.723   9.884   6.817 -0.2020 -1.0513  0.4380
  948MOL0     O27853   4.613   9.843   6.752  0.2499  0.7852 -0.3036
  948MOL0     C27854   4.496   9.922   6.759  0.1963 -0.3753 -0.1487
  948MOL0     C27855   4.389   9.831   6.714  0.9812  1.2506  0.0443
  948MOL0     C27856   4.249   9.873   6.769 -0.0010 -0.5437 -0.4005
  948MOL0     C27857   4.147   9.824   6.665  0.0745  0.0356  0.0210
  948MOL0     C27858   4.007   9.862   6.695  0.2460  0.1275  0.6316
  948MOL0     C27859   3.920   9.859   6.583  0.7201 -0.1018  0.4688
  948MOL0     C27860   3.770   9.901   6.616  0.0235 -0.9988  0.2460
  948MOL0     C27861   3.663   9.782   6.627 -0.2631  0.0914 -0.7620
  948MOL0     N27862   3.532   9.825   6.686  0.0437  0.1421  0.7169
  948MOL0     C27863   3.507   9.932   6.773  0.7772 -0.2110  0.5777
  948MOL0     C27864   3.383   9.899   6.824  0.4999  0.0098  0.1336
  948MOL0     C27865   3.308   9.990   6.922  0.3854 -0.4365  0.0586
  948MOL0     C27866   3.219   9.911   7.021 -0.4195  0.0500 -0.2085
  948MOL0     C27867   3.085   9.870   6.962  0.2069 -0.5440 -0.5303
  948MOL0     C27868   3.020   9.756   7.049 -0.1635  0.3659  0.8342
  948MOL0     O27869   3.017   9.805   7.181  0.0091  0.2158 -0.2701
  948MOL0     C27870   3.014   9.705   7.274  0.3722 -0.2319 -0.0548
  948MOL0     C27871   2.958   9.574   7.273 -0.1919 -0.2192  0.3076
  948MOL0     C27872   2.974   9.476   7.379 -1.3248 -0.7466 -0.8506
  948MOL0     C27873   3.045   9.526   7.498 -0.6791  0.0553  0.4029
  948MOL0     C27874   3.075   9.444   7.608 -0.1569 -0.3947 -0.1944
  948MOL0     O27875   3.085   9.508   7.725  0.0402 -0.0948 -0.7225
  948MOL0     C27876   3.119   9.432   7.823 -0.1261  0.3963  0.4582
  948MOL0     C27877   3.237   9.369   7.833 -0.6778  0.6643 -0.5814
  948MOL0     C27878   3.281   9.295   7.940 -0.8217 -0.2007 -0.2911
  948MOL0     C27879   3.189   9.279   8.054  0.4793 -0.4327 -0.2589
  948MOL0     O27880   3.224   9.193   8.157 -0.7313 -0.3993  0.2192
  948MOL0     C27881   3.113   9.125   8.229 -0.7865 -0.8190 -0.0253
  948MOL0     C27882   3.176   9.030   8.336 -0.2004 -0.7381  0.4308
  948MOL0     C27883   3.066   8.944   8.412 -0.5186  0.3449 -0.0842
  948MOL0     C27884   3.112   8.905   8.557 -1.3488 -0.0152 -0.0064
  948MOL0     C27885   2.991   8.871   8.641 -0.2581 -0.1937  0.1723
  948MOL0     C27886   2.905   8.986   8.682  1.4255 -0.2001 -0.1764
  948MOL0     C27887   2.752   8.958   8.644 -0.2751 -0.3509  0.2458
  948MOL0     C27888   2.647   9.041   8.720 -0.2269  0.1529 -0.2525
  948MOL0    Cl27889   2.590   8.952   8.858 -0.6135  0.6518 -0.5507
  948MOL0     C27890   3.065   9.350   8.045  0.5575  0.3688 -0.5320
  948MOL0     C27891   3.033   9.431   7.935 -0.3118  0.0577  0.6502
  948MOL0     O27892   3.054   9.322   7.594  0.0019 -0.1070  0.5884
  948MOL0     C27893   3.093   9.655   7.497  1.0687  0.4633  0.4594
  948MOL0     C27894   3.072   9.741   7.390  0.2158  0.1492 -0.6580
  948MOL0     N27895   3.333   9.787   6.750 -0.0550 -0.5548  0.4611
  948MOL0     N27896   3.419   9.750   6.662  0.9973  0.4710 -0.8332
  948MOL0     C27897   4.849   9.858   6.756  0.4017  0.2010  0.5928
  948MOL0     C27898   4.965   9.919   6.810  0.6121  0.7149  0.0476
  948MOL0     C27899   5.291  10.060   7.082  0.0290  0.0739 -0.7745
  948MOL0     C27900   5.254  10.190   7.121  0.4252 -0.5638 -0.3529
  948MOL0     C27901   5.336  10.280   7.175 -0.0762 -0.3799 -0.4605
  948MOL0     C27902   5.468  10.242   7.209 -0.5240  1.4581  0.1172
  948MOL0     O27903   5.557  10.325   7.266  0.3547 -0.5306  0.7396
  948MOL0     C27904   5.518  10.447   7.340  0.0178  0.0043 -0.3371
  948MOL0     C27905   5.471  10.421   7.493 -0.2553  0.2533 -0.2007
  948MOL0     C27906   5.589  10.342   7.566 -0.4906  0.4373  0.0270
  948MOL0     C27907   5.546  10.354   7.715 -0.3813 -0.5754 -0.6186
  948MOL0     C27908   5.661  10.317   7.806 -0.3768 -0.7425 -0.6991
  948MOL0     C27909   5.756  10.302   7.879 -0.2014 -0.0631  0.4816
  948MOL0     C27910   5.504  10.110   7.186  0.8115  0.1601  0.5601
  948MOL0     C27911   5.419  10.017   7.118  0.0783 -0.5384  0.5076
  948MOL0     C27912   5.486   9.881   7.086  0.0124 -0.1329  0.1220
  948MOL0     H27913   4.838  10.075   7.075 -2.8632 -1.8464  1.5240
  948MOL0     H27914   4.630   9.984   6.991 -0.2575 -0.4440 -0.1951
  948MOL0     H27915   4.474   9.948   6.863  0.0400  0.3430 -0.3605
  948MOL0     H27916   4.513  10.016   6.705  0.4812  1.4115  2.8414
  948MOL0     H27917   4.413   9.726   6.732 -0.5679 -0.1892 -4.5887
  948MOL0     H27918   4.385   9.832   6.604 -0.2631 -0.9614  0.0166
  948MOL0     H27919   4.239   9.979   6.792  4.0548 -0.4124  1.7654
  948MOL0     H27920   4.241   9.828   6.869 -2.7157  1.5971  0.4652
  948MOL0     H27921   4.177   9.864   6.568 -2.6841 -0.9303 -1.3403
  948MOL0     H27922   4.160   9.715   6.674 -3.2850 -0.3906  1.2281
  948MOL0     H27923   3.960   9.797   6.769 -1.6603 -0.1023 -0.7100
  948MOL0     H27924   4.013   9.958   6.746 -0.7484 -1.4096  3.8713
  948MOL0     H27925   3.965   9.919   6.504  1.4254  0.5454  1.3484
  948MOL0     H27926   3.921   9.762   6.532 -1.0450 -0.9856  1.9605
  948MOL0     H27927   3.735   9.966   6.536  0.9829  1.7570  1.9106
  948MOL0     H27928   3.783   9.961   6.707  0.2463 -1.9025  0.8276
  948MOL0     H27929   3.651   9.729   6.532  0.6921  1.7799 -1.8982
  948MOL0     H27930   3.701   9.706   6.695 -0.2727 -0.7961 -1.7313
  948MOL0     H27931   3.564  10.022   6.792  0.9651 -0.2954  0.4013
  948MOL0     H27932   3.384  10.048   6.975  1.7941 -0.7556 -1.5144
  948MOL0     H27933   3.247  10.068   6.875  0.1319 -0.8432 -0.2888
  948MOL0     H27934   3.280   9.828   7.060 -0.1095 -0.2336 -1.2625
  948MOL0     H27935   3.192   9.978   7.103 -0.2530 -1.8290  1.4613
  948MOL0     H27936   3.100   9.837   6.859  0.5108 -0.2271 -0.5910
  948MOL0     H27937   3.012   9.951   6.956 -0.6170 -1.1216  1.1638
  948MOL0     H27938   3.082   9.666   7.048 -0.4159  0.1890 -0.4060
  948MOL0     H27939   2.923   9.726   7.009 -1.2593  1.0726  2.8632
  948MOL0     H27940   2.895   9.542   7.190  1.4947 -0.5352 -0.9085
  948MOL0     H27941   2.953   9.371   7.361 -0.4581 -0.7769 -1.8135
  948MOL0     H27942   3.302   9.366   7.746 -1.2130  0.6398 -0.9846
  948MOL0     H27943   3.376   9.244   7.932  0.5654  1.9271  1.3092
  948MOL0     H27944   3.046   9.199   8.273 -0.2276  1.1777 -2.2939
  948MOL0     H27945   3.057   9.066   8.157 -0.2847  1.1710 -2.1892
  948MOL0     H27946   3.250   8.962   8.292  0.1282  1.6967 -3.2130
  948MOL0     H27947   3.231   9.099   8.401  1.2231  0.0189 -1.4984
  948MOL0     H27948   2.973   9.001   8.418  0.2971  1.6952  0.3824
  948MOL0     H27949   3.051   8.848   8.364  0.5030  0.2883 -0.3153
  948MOL0     H27950   3.155   8.994   8.603 -2.1618  0.7212 -0.6563
  948MOL0     H27951   3.192   8.830   8.555 -1.5071 -0.1733 -0.8968
  948MOL0     H27952   3.016   8.807   8.726  0.5451 -0.4030 -0.2141
  948MOL0     H27953   2.936   8.803   8.575 -0.2791  0.1872 -0.2158
  948MOL0     H27954   2.903   8.988   8.792 -4.8696  0.3265  0.0592
  948MOL0     H27955   2.929   9.082   8.635 -1.0979  0.5118 -0.1978
  948MOL0     H27956   2.741   8.857   8.685  3.0405 -0.0346  2.3865
  948MOL0     H27957   2.721   8.948   8.540 -0.0275 -2.2198  0.3044
  948MOL0     H27958   2.687   9.137   8.753  1.9012  0.3160 -2.9105
  948MOL0     H27959   2.556   9.051   8.659 -0.5958 -0.7533  0.1367
  948MOL0     H27960   2.991   9.337   8.124  1.5245  0.9850  0.4987
  948MOL0     H27961   2.941   9.486   7.946 -0.1122  0.5662 -0.1588
  948MOL0     H27962   3.152   9.696   7.579  2.6588 -0.8140  0.0130
  948MOL0     H27963   3.097   9.847   7.395  2.1967 -0.3207  0.5311
  948MOL0     H27964   4.849   9.791   6.670 -1.5727  0.1639  0.5780
  948MOL0     H27965   5.060   9.908   6.759 -0.1508  1.4812 -1.6358
  948MOL0     H27966   5.151  10.224   7.115  1.0758  1.3027 -2.8910
  948MOL0     H27967   5.296  10.378   7.196  1.1191  0.4262 -1.7775
  948MOL0     H27968   5.437  10.497   7.286 -2.1825 -3.1887 -0.2747
  948MOL0     H27969   5.600  10.519   7.340  2.0076 -2.0924  1.2967
  948MOL0     H27970   5.373  10.372   7.493  0.4462 -1.2108 -1.5170
  948MOL0     H27971   5.468  10.523   7.533 -0.5502  0.7319 -1.3975
  948MOL0     H27972   5.690  10.381   7.550 -1.3206  2.9561  0.4548
  948MOL0     H27973   5.592  10.236   7.538  0.1698  0.3792  0.3130
  948MOL0     H27974   5.526  10.459   7.737 -3.0919 -1.5682  2.5325
  948MOL0     H27975   5.461  10.289   7.741 -0.3802 -1.0107 -1.6733
  948MOL0     H27976   5.842  10.288   7.942 -0.1591 -3.0676 -0.0959
  948MOL0     H27977   5.605  10.080   7.213  0.1603 -1.3759  1.4811
  948MOL0     H27978   5.418   9.801   7.118 -2.4257  1.5734 -0.5407
  948MOL0     H27979   5.494   9.875   6.977  3.2138  0.5402  0.2310
  948MOL0     H27980   5.585   9.868   7.130  0.0374 -0.0635  0.0854
  949MOL0     O27981   3.941   4.143   6.746 -0.1485 -0.5039 -0.5547
  949MOL0     C27982   3.884   4.040   6.708  0.7434  1.0970  0.3290
  949MOL0     O27983   3.943   3.940   6.638 -0.8280  0.3216 -0.2641
  949MOL0     C27984   4.075   3.950   6.591 -0.5237  0.3232  0.3389
  949MOL0     C27985   4.179   3.971   6.680 -0.2068 -0.0665 -0.2994
  949MOL0     C27986   4.318   3.963   6.634  0.8480  0.9683  0.2004
  949MOL0     C27987   4.340   3.952   6.493 -0.0900  0.2246 -0.6882
  949MOL0     O27988   4.464   3.964   6.437 -0.1576 -0.4586 -0.3239
  949MOL0     C27989   4.584   3.968   6.523 -0.3062 -0.5265  0.7303
  949MOL0     C27990   4.699   4.041   6.462  0.1607 -1.3274  0.7957
  949MOL0     C27991   4.781   4.113   6.561 -0.2466  0.5534 -0.4209
  949MOL0     C27992   4.908   4.199   6.520  0.6457  0.9560 -0.6256
  949MOL0     C27993   4.932   4.333   6.607  0.1294 -0.0446  0.3318
  949MOL0     C27994   5.013   4.445   6.533 -0.6368 -0.2821  0.3698
  949MOL0     C27995   5.047   4.568   6.616 -0.1075  1.2371 -0.0614
  949MOL0     C27996   5.071   4.688   6.538  0.2069  0.0287 -0.0572
  949MOL0     N27997   4.948   4.732   6.476  0.5936  0.4842 -0.5683
  949MOL0     C27998   4.829   4.733   6.540 -0.0864 -0.2427 -0.2284
  949MOL0     C27999   4.748   4.780   6.442 -0.6654  0.6250  0.3019
  949MOL0     C28000   4.601   4.807   6.449  0.2414  0.2684  0.3180
  949MOL0     C28001   4.518   4.685   6.470 -0.2310  1.1902  0.4694
  949MOL0     C28002   4.522   4.605   6.603  0.4445  0.1001  0.2293
  949MOL0     C28003   4.501   4.690   6.726  0.3073  0.5153  0.4503
  949MOL0     O28004   4.383   4.767   6.712 -0.7977  0.0698  0.4548
  949MOL0     C28005   4.341   4.844   6.810  0.2189  0.1009  0.4562
  949MOL0     C28006   4.224   4.911   6.777 -0.3540 -0.8941  0.3132
  949MOL0     C28007   4.152   4.978   6.876 -0.6822 -0.7712  0.0846
  949MOL0     C28008   4.201   4.988   7.009 -1.4587  0.5144 -0.0149
  949MOL0     C28009   4.118   5.060   7.107  0.3058 -0.8353  0.7231
  949MOL0     O28010   4.004   5.124   7.062  0.6946 -0.5359 -0.2058
  949MOL0     C28011   3.951   5.232   7.146  0.4688 -0.3587 -0.4138
  949MOL0     C28012   3.997   5.357   7.138  0.3079 -0.1648 -0.7501
  949MOL0     C28013   3.939   5.454   7.227 -0.1133  0.0915 -0.4242
  949MOL0     C28014   3.825   5.429   7.306 -1.0004 -0.3936 -0.3274
  949MOL0     O28015   3.764   5.526   7.385 -0.2360 -0.0238 -0.0828
  949MOL0     C28016   3.742   5.486   7.520  0.3522 -0.0490  1.2109
  949MOL0     C28017   3.865   5.480   7.609 -0.2474 -1.2028  0.2455
  949MOL0     C28018   3.954   5.355   7.590 -0.4813 -0.0150  0.6030
  949MOL0     C28019   4.014   5.307   7.720  0.0286  1.2575  0.7664
  949MOL0     C28020   4.144   5.227   7.701 -0.4882  0.0808  0.4506
  949MOL0     C28021   4.192   5.172   7.843  0.4900 -0.6378 -0.9592
  949MOL0     C28022   4.303   5.067   7.817 -0.2882 -0.0584 -0.1194
  949MOL0     C28023   4.346   5.018   7.948 -0.2231  0.5998 -0.8308
  949MOL0    Cl28024   4.231   4.890   7.999  0.0630 -0.2554  0.6381
  949MOL0     C28025   3.778   5.295   7.307 -0.3325  0.2226  0.7534
  949MOL0     C28026   3.836   5.203   7.218 -0.2192  1.2640  0.0468
  949MOL0     O28027   4.156   5.072   7.227  0.7101 -0.4205  0.6472
  949MOL0     C28028   4.326   4.923   7.041 -0.6568 -0.7624  0.0446
  949MOL0     C28029   4.396   4.859   6.937  0.9099  0.0227  0.1498
  949MOL0     N28030   4.816   4.785   6.322  0.5612  0.2782 -0.2827
  949MOL0     N28031   4.937   4.762   6.348 -0.4105 -0.2463  0.1757
  949MOL0     C28032   4.230   3.941   6.409 -0.6754 -0.1292  0.3783
  949MOL0     C28033   4.101   3.929   6.453 -0.5566  0.2339  0.2959
  949MOL0     C28034   3.737   4.027   6.726 -0.2014 -0.9217  0.4249
  949MOL0     C28035   3.678   4.086   6.835  0.4361  0.3974 -0.6779
  949MOL0     C28036   3.542   4.086   6.853 -0.4161  0.1153  0.4360
  949MOL0     C28037   3.458   4.025   6.765 -0.1567  0.2006  0.4793
  949MOL0     O28038   3.320   4.012   6.785 -1.0961 -0.2686 -0.6979
  949MOL0     C28039   3.244   3.943   6.689  0.2205  0.6775  0.9187
  949MOL0     C28040   3.236   3.790   6.718 -0.1342 -0.4043 -0.1017
  949MOL0     C28041   3.154   3.702   6.617 -0.4369  0.2572 -0.7826
  949MOL0     C28042   3.200   3.553   6.621  0.5883 -0.0859  0.2466
  949MOL0     C28043   3.139   3.476   6.516 -0.8323  0.2768  0.9705
  949MOL0     C28044   3.081   3.401   6.437 -0.8818  0.3061 -0.7288
  949MOL0     C28045   3.517   3.965   6.653  1.0324 -0.5216  0.2599
  949MOL0     C28046   3.654   3.963   6.628 -0.7472  0.2108 -0.4190
  949MOL0     C28047   3.703   3.907   6.497  0.2867 -0.4714 -0.5560
  949MOL0     H28048   4.156   3.985   6.785 -1.0433  2.5105 -0.7691
  949MOL0     H28049   4.390   3.981   6.713 -0.2040  3.2177  0.7377
  949MOL0     H28050   4.567   4.026   6.615  0.2486 -0.3221  0.7036
  949MOL0     H28051   4.610   3.865   6.550  1.1124 -0.4521 -0.2608
  949MOL0     H28052   4.655   4.121   6.402 -2.3771 -1.7560  1.9666
  949MOL0     H28053   4.755   3.970   6.401 -0.6314 -0.9770 -0.3779
  949MOL0     H28054   4.818   4.046   6.639 -0.6528  1.2952  0.4315
  949MOL0     H28055   4.725   4.191   6.613  1.3029  1.3474  0.1400
  949MOL0     H28056   4.997   4.136   6.526 -0.6691 -0.7907  2.1178
  949MOL0     H28057   4.890   4.225   6.415 -1.2186  0.1521 -0.5336
  949MOL0     H28058   4.837   4.379   6.637  0.7051 -0.7746  3.7157
  949MOL0     H28059   4.979   4.284   6.693  0.3063 -1.2669 -0.4324
  949MOL0     H28060   5.104   4.387   6.522  0.5408  1.5606 -0.0730
  949MOL0     H28061   4.967   4.466   6.435  1.3247 -1.1388 -0.7880
  949MOL0     H28062   5.139   4.543   6.670 -0.5217 -3.1095 -1.0133
  949MOL0     H28063   4.964   4.575   6.686 -1.5443 -0.4317 -1.4948
  949MOL0     H28064   5.109   4.765   6.606  3.4267 -1.0049 -0.5413
  949MOL0     H28065   5.153   4.666   6.469 -1.0017 -1.7963 -0.9848
  949MOL0     H28066   4.814   4.704   6.644  0.1798  0.6243  0.0593
  949MOL0     H28067   4.589   4.874   6.535  2.8262 -2.3765  2.9468
  949MOL0     H28068   4.570   4.859   6.357  1.2006  3.4616  1.6621
  949MOL0     H28069   4.413   4.714   6.457 -0.6154 -0.6904 -1.0047
  949MOL0     H28070   4.549   4.624   6.385  1.0799  1.7936  0.4971
  949MOL0     H28071   4.618   4.554   6.607  0.8458  0.8873  0.7370
  949MOL0     H28072   4.437   4.536   6.601 -1.7901  2.6952 -0.2273
  949MOL0     H28073   4.588   4.755   6.736  4.0558 -3.7104 -1.2446
  949MOL0     H28074   4.499   4.624   6.813 -0.9272  0.1071  0.1297
  949MOL0     H28075   4.196   4.890   6.674 -1.0823 -1.2734  0.5854
  949MOL0     H28076   4.054   5.015   6.850 -0.0201 -1.0562 -3.2093
  949MOL0     H28077   4.073   5.366   7.061 -1.2841  0.1066 -2.3566
  949MOL0     H28078   3.997   5.546   7.222 -0.2750  0.3306  1.5491
  949MOL0     H28079   3.680   5.568   7.559 -0.6757 -0.2983  0.1625
  949MOL0     H28080   3.664   5.410   7.518 -2.8897  2.9924 -0.5367
  949MOL0     H28081   3.920   5.572   7.585 -2.9178  0.8554  1.5134
  949MOL0     H28082   3.836   5.482   7.715 -1.0736  0.8941  0.0311
  949MOL0     H28083   3.900   5.278   7.534  1.2336 -1.0051  0.2043
  949MOL0     H28084   4.028   5.395   7.520 -1.1345  0.0602 -0.0528
  949MOL0     H28085   3.951   5.249   7.789  2.5781 -0.5368  1.7365
  949MOL0     H28086   4.038   5.391   7.786  1.0844  1.4240  0.1835
  949MOL0     H28087   4.209   5.289   7.640 -1.0218 -1.1082 -1.4202
  949MOL0     H28088   4.132   5.137   7.640 -3.0944 -0.1559  1.1804
  949MOL0     H28089   4.220   5.263   7.898 -0.2180  1.3468 -3.6866
  949MOL0     H28090   4.110   5.137   7.906 -1.6385  4.0968 -0.6970
  949MOL0     H28091   4.377   5.101   7.745 -2.1658 -0.7939 -2.5312
  949MOL0     H28092   4.259   4.981   7.766  1.6451 -2.2610  1.7036
  949MOL0     H28093   4.451   4.987   7.941  0.0559  1.0858  0.8265
  949MOL0     H28094   4.347   5.106   8.013 -1.7251  0.3292 -0.4016
  949MOL0     H28095   3.689   5.264   7.361 -1.5912 -1.5892 -2.1217
  949MOL0     H28096   3.813   5.097   7.214  0.0384  1.2192 -0.2861
  949MOL0     H28097   4.370   4.948   7.137 -1.7176  5.2562 -0.6081
  949MOL0     H28098   4.497   4.831   6.965  0.5377  0.1027  1.6723
  949MOL0     H28099   4.257   3.946   6.304  1.8435 -0.6372  0.9277
  949MOL0     H28100   4.036   3.904   6.370  0.4878 -0.8784 -0.2246
  949MOL0     H28101   3.736   4.129   6.916  0.2815 -1.7881  0.6854
  949MOL0     H28102   3.493   4.132   6.937  1.9987  0.2042  1.8922
  949MOL0     H28103   3.267   3.974   6.587 -0.0670 -0.4219  0.4986
  949MOL0     H28104   3.140   3.979   6.695 -0.7718 -0.7167 -3.6552
  949MOL0     H28105   3.192   3.771   6.816 -1.5014 -1.5026 -0.8939
  949MOL0     H28106   3.337   3.747   6.714  0.3252  0.4062  1.6398
  949MOL0     H28107   3.179   3.754   6.524  0.6897  3.6906  1.2549
  949MOL0     H28108   3.046   3.703   6.637 -0.2722 -3.0573  0.9536
  949MOL0     H28109   3.307   3.555   6.598  0.6016 -2.8094 -0.2494
  949MOL0     H28110   3.178   3.496   6.711  1.0753 -1.3528 -0.4088
  949MOL0     H28111   3.035   3.329   6.372 -1.6708 -1.1059  1.3068
  949MOL0     H28112   3.457   3.914   6.578 -1.0637  2.4839 -0.3014
  949MOL0     H28113   3.744   3.806   6.505  1.0910 -0.1827 -0.9111
  949MOL0     H28114   3.625   3.913   6.421  1.2224  0.6865 -1.4697
  949MOL0     H28115   3.797   3.942   6.454 -0.0369 -1.1704 -1.8996
  950MOL0     O28116   0.225  10.163   8.469  0.0378 -0.5082  0.2072
  950MOL0     C28117   0.127  10.135   8.548  0.5052 -0.0424  0.8570
  950MOL0     O28118   0.069  10.007   8.559 -0.6082  0.1377 -0.5922
  950MOL0     C28119   0.113   9.886   8.502  0.7992 -0.1338  0.0925
  950MOL0     C28120   0.047   9.767   8.545 -0.1094 -0.1091 -1.3276
  950MOL0     C28121   0.074   9.639   8.498 -0.0407  0.3892  0.3872
  950MOL0     C28122   0.172   9.620   8.402  0.0012  0.1693  0.5141
  950MOL0     O28123   0.224   9.502   8.355 -0.0933  0.3004 -0.3826
  950MOL0     C28124   0.164   9.371   8.377  0.6015 -0.7535 -0.3077
  950MOL0     C28125   0.038   9.339   8.295  0.4686  0.9870  1.5635
  950MOL0     C28126   0.045   9.383   8.148 -1.2235 -0.8637 -0.6071
  950MOL0     C28127   0.142   9.295   8.068  0.4639  0.6041  0.2808
  950MOL0     C28128   0.105   9.303   7.914  0.3311 -1.2130 -0.1225
  950MOL0     C28129  -0.018   9.218   7.887  0.3041 -0.0694 -0.3710
  950MOL0     C28130  -0.058   9.256   7.748  0.0606 -0.4851  0.0201
  950MOL0     C28131  -0.196   9.323   7.747 -0.8015 -0.4673 -0.5498
  950MOL0     N28132  -0.222   9.472   7.760  0.1838 -0.2423 -0.5590
  950MOL0     C28133  -0.120   9.572   7.788  0.3149 -0.4798  0.5767
  950MOL0     C28134  -0.187   9.679   7.846  0.9715  0.1448 -0.4388
  950MOL0     C28135  -0.120   9.802   7.883  0.7770 -0.5344  0.2166
  950MOL0     C28136  -0.151   9.827   8.025 -0.6886 -0.4180 -0.6523
  950MOL0     C28137  -0.055   9.939   8.083 -0.6556  0.7642 -0.0644
  950MOL0     C28138  -0.072   9.970   8.235 -0.0805 -0.2881  0.6107
  950MOL0     O28139  -0.189  10.057   8.256 -0.4001  1.2467  0.3644
  950MOL0     C28140  -0.172  10.184   8.297  0.4255 -1.0697  0.0282
  950MOL0     C28141  -0.210  10.232   8.423 -0.0809 -0.4362 -0.1087
  950MOL0     C28142  -0.186  10.364   8.462 -0.4648 -0.0114  0.5146
  950MOL0     C28143  -0.141  10.451   8.361  0.5879 -0.1769 -0.1029
  950MOL0     C28144  -0.130  10.606   8.372  0.8553 -0.0362 -0.2144
  950MOL0     O28145  -0.209  10.664   8.470 -0.5019  0.5404  0.6168
  950MOL0     C28146  -0.237  10.797   8.461 -1.7722  0.3188 -0.9260
  950MOL0     C28147  -0.297  10.846   8.353  0.3422  0.6818  0.5011
  950MOL0     C28148  -0.326  10.976   8.337 -0.4435 -0.4738  0.0051
  950MOL0     C28149  -0.279  11.077   8.426  0.2305  0.6547  0.7859
  950MOL0     O28150  -0.323  11.200   8.402  0.0676 -0.4956  0.2616
  950MOL0     C28151  -0.216  11.300   8.396  0.2345 -0.8348 -0.7089
  950MOL0     C28152  -0.256  11.415   8.480  0.5015 -0.7759 -0.4624
  950MOL0     C28153  -0.170  11.546   8.463  0.6551 -0.5348  0.2237
  950MOL0     C28154  -0.017  11.536   8.470  0.1006 -1.2979 -0.4883
  950MOL0     C28155   0.050  11.678   8.452 -0.3240  0.6884 -0.6516
  950MOL0     C28156   0.182  11.670   8.522 -0.3391 -0.2317 -0.2245
  950MOL0     C28157   0.278  11.571   8.458  0.1861 -0.4656 -0.1923
  950MOL0     C28158   0.422  11.587   8.523  0.1389 -1.1949 -0.3388
  950MOL0    Cl28159   0.556  11.518   8.429  0.0149 -0.1570 -0.1853
  950MOL0     C28160  -0.207  11.028   8.537  0.6327 -0.3638 -0.8351
  950MOL0     C28161  -0.181  10.888   8.557  0.9331  0.8007 -0.7720
  950MOL0     O28162  -0.066  10.668   8.286 -0.5348 -0.6025 -0.5194
  950MOL0     C28163  -0.094  10.404   8.238  0.4732  0.0947 -0.0477
  950MOL0     C28164  -0.114  10.269   8.203  0.2024 -0.8508  1.0598
  950MOL0     N28165  -0.321   9.645   7.862  0.2913 -0.1733  0.0476
  950MOL0     N28166  -0.339   9.522   7.827  0.6725 -0.2984  0.6620
  950MOL0     C28167   0.235   9.740   8.359  0.2396 -0.7844 -0.2093
  950MOL0     C28168   0.216   9.871   8.404  0.0188  1.3835  0.2357
  950MOL0     C28169   0.075  10.236   8.647  0.2193 -0.3827  0.4857
  950MOL0     C28170  -0.018  10.196   8.743 -0.7360  0.2920  0.2276
  950MOL0     C28171  -0.080  10.282   8.828  0.9289  0.7671  0.4613
  950MOL0     C28172  -0.052  10.425   8.813  0.7229 -0.4929 -0.2183
  950MOL0     O28173  -0.110  10.519   8.895 -0.0664  0.3160  1.1570
  950MOL0     C28174  -0.138  10.479   9.027  0.5833 -0.7964  0.8943
  950MOL0     C28175  -0.143  10.596   9.117  0.5417 -0.6064  0.2043
  950MOL0     C28176  -0.256  10.706   9.075 -0.3234  0.0296  0.2492
  950MOL0     C28177  -0.253  10.831   9.163 -0.0422 -0.3937 -0.3226
  950MOL0     C28178  -0.366  10.930   9.137 -1.4709 -0.2332  0.8435
  950MOL0     C28179  -0.446  11.009   9.102 -0.6751  0.8350 -0.3479
  950MOL0     C28180   0.038  10.460   8.718 -0.3894 -0.4808  0.2838
  950MOL0     C28181   0.104  10.370   8.632 -0.1184  0.3430 -0.0493
  950MOL0     C28182   0.185  10.431   8.529 -0.4355 -1.0125  0.4915
  950MOL0     H28183  -0.033   9.777   8.619  0.0046 -0.1315 -1.2017
  950MOL0     H28184   0.020   9.548   8.525 -1.5769  0.5747 -1.7588
  950MOL0     H28185   0.236   9.290   8.367  0.4840 -0.7006 -1.9329
  950MOL0     H28186   0.122   9.382   8.478  0.1491  1.1874 -0.6610
  950MOL0     H28187  -0.055   9.371   8.343 -2.2043 -4.1440  0.5110
  950MOL0     H28188   0.033   9.230   8.297  1.2702  0.7617 -2.0642
  950MOL0     H28189   0.071   9.489   8.140 -1.8638 -0.5303  1.3223
  950MOL0     H28190  -0.058   9.385   8.110 -1.3056  1.5127 -0.4075
  950MOL0     H28191   0.250   9.305   8.080  0.9144 -1.4906 -1.3175
  950MOL0     H28192   0.135   9.192   8.105  0.9949  0.5635  0.2797
  950MOL0     H28193   0.095   9.405   7.877 -0.6899 -1.6460 -1.1192
  950MOL0     H28194   0.185   9.248   7.863  0.1924 -0.4975 -1.1434
  950MOL0     H28195  -0.008   9.109   7.895  0.5378 -0.4137 -3.8320
  950MOL0     H28196  -0.090   9.256   7.960  1.4217  1.7775 -0.1688
  950MOL0     H28197  -0.072   9.161   7.695 -0.1676 -2.6760  3.6998
  950MOL0     H28198   0.012   9.318   7.690  1.4164 -0.5806  1.4789
  950MOL0     H28199  -0.238   9.278   7.656  1.8940 -0.2691 -1.9803
  950MOL0     H28200  -0.256   9.285   7.830 -3.0821  2.4662 -0.7099
  950MOL0     H28201  -0.021   9.564   7.745 -0.0773 -0.8852 -0.2907
  950MOL0     H28202  -0.012   9.809   7.876  0.6286  3.1240 -0.7174
  950MOL0     H28203  -0.159   9.882   7.820 -0.6387 -0.6681  0.8766
  950MOL0     H28204  -0.251   9.856   8.059 -0.7334  1.8418 -2.4077
  950MOL0     H28205  -0.124   9.739   8.084  0.0458  0.7035  0.7279
  950MOL0     H28206  -0.083  10.030   8.030  2.4969 -0.2552 -3.8943
  950MOL0     H28207   0.046   9.907   8.059 -0.3014  1.1853  0.8351
  950MOL0     H28208   0.019  10.027   8.254 -0.1654  1.1130 -2.5939
  950MOL0     H28209  -0.081   9.886   8.305  0.1381  0.5345  1.6460
  950MOL0     H28210  -0.253  10.161   8.494 -1.9235 -1.3074 -1.9806
  950MOL0     H28211  -0.199  10.403   8.562  0.8492  1.3338  0.1980
  950MOL0     H28212  -0.329  10.778   8.275  0.1624  0.8841  0.3980
  950MOL0     H28213  -0.379  11.006   8.248  1.0445  1.4691 -0.3129
  950MOL0     H28214  -0.126  11.256   8.440  0.3926  1.1416  1.1124
  950MOL0     H28215  -0.188  11.320   8.292  2.8497 -2.8416 -0.5031
  950MOL0     H28216  -0.355  11.440   8.442 -0.0009 -2.5391 -0.4341
  950MOL0     H28217  -0.263  11.387   8.586  1.1453  1.0627  0.0905
  950MOL0     H28218  -0.197  11.584   8.364 -2.2619 -0.3748  0.9843
  950MOL0     H28219  -0.199  11.607   8.549  2.7376 -0.5363  0.9654
  950MOL0     H28220   0.013  11.475   8.384  2.4059  0.8122 -1.3036
  950MOL0     H28221   0.015  11.488   8.563  2.3607 -0.0964 -0.5844
  950MOL0     H28222  -0.014  11.751   8.503 -1.3748  0.1202 -1.1285
  950MOL0     H28223   0.069  11.719   8.352  0.6224 -1.9868 -1.6576
  950MOL0     H28224   0.232  11.767   8.524 -1.9082  0.6035 -0.4676
  950MOL0     H28225   0.161  11.651   8.627 -0.7630  0.2178 -0.2270
  950MOL0     H28226   0.291  11.594   8.352  2.0863  1.4120  0.3898
  950MOL0     H28227   0.238  11.470   8.471  1.1045 -0.6312  1.6156
  950MOL0     H28228   0.442  11.694   8.532 -0.8644 -0.9174 -1.1201
  950MOL0     H28229   0.423  11.534   8.619 -0.6658 -3.1346 -1.3351
  950MOL0     H28230  -0.185  11.103   8.612 -3.7549 -0.3660  0.7216
  950MOL0     H28231  -0.133  10.861   8.650  0.6084 -0.1887 -0.8759
  950MOL0     H28232  -0.053  10.469   8.162  1.2505 -2.7690 -2.2534
  950MOL0     H28233  -0.095  10.237   8.102 -0.7478  1.8547 -0.0658
  950MOL0     H28234   0.311   9.729   8.282 -1.6898  0.8169 -2.5110
  950MOL0     H28235   0.264   9.956   8.358 -2.3348  1.3664 -2.5404
  950MOL0     H28236  -0.024  10.092   8.772 -0.2034 -0.5396 -2.4037
  950MOL0     H28237  -0.147  10.236   8.899 -0.8640  3.0348  0.3497
  950MOL0     H28238  -0.076  10.410   9.084  0.2143 -0.8729  1.2118
  950MOL0     H28239  -0.240  10.439   9.019 -0.2752  1.0581  1.9111
  950MOL0     H28240  -0.039  10.630   9.114  1.3553 -2.9447 -2.5103
  950MOL0     H28241  -0.167  10.554   9.215  3.7226 -2.2077  0.4317
  950MOL0     H28242  -0.356  10.662   9.088  0.6612 -3.0215 -1.4464
  950MOL0     H28243  -0.259  10.728   8.968 -1.5060 -2.1849 -0.2352
  950MOL0     H28244  -0.265  10.794   9.266 -1.4438  1.7322  0.3628
  950MOL0     H28245  -0.155  10.879   9.149  0.1629 -0.8596 -0.4770
  950MOL0     H28246  -0.516  11.086   9.074  0.3914  2.0571  0.2188
  950MOL0     H28247   0.057  10.566   8.727  2.8574 -1.1123  5.1846
  950MOL0     H28248   0.164  10.537   8.539 -0.6351 -0.9827 -0.1997
  950MOL0     H28249   0.291  10.415   8.554  0.2059  0.3986 -1.1664
  950MOL0     H28250   0.160  10.403   8.427  0.9382 -1.2942  0.2028
  951MOL0     O28251   1.311   9.695   1.732 -0.9103  0.5041 -1.1373
  951MOL0     C28252   1.350   9.646   1.841 -0.1407 -0.0900 -0.0296
  951MOL0     O28253   1.277   9.621   1.954  0.0163  0.3116 -0.6711
  951MOL0     C28254   1.136   9.641   1.948 -0.6621  0.3008  0.7672
  951MOL0     C28255   1.093   9.748   2.018 -0.4828 -0.4657  0.6932
  951MOL0     C28256   0.956   9.779   2.015  1.1998  0.2830  0.2656
  951MOL0     C28257   0.865   9.701   1.941  0.3792  0.5051  0.0019
  951MOL0     O28258   0.732   9.747   1.934 -0.3380  0.0661 -0.5053
  951MOL0     C28259   0.655   9.745   2.058 -0.8841  1.1058 -0.8760
  951MOL0     C28260   0.509   9.771   2.015 -0.1674  0.1491  0.0352
  951MOL0     C28261   0.408   9.720   2.114 -0.2388  0.0763  0.5186
  951MOL0     C28262   0.269   9.760   2.063  0.4308 -0.4415  0.3238
  951MOL0     C28263   0.148   9.728   2.153  0.4023 -0.5257  0.4206
  951MOL0     C28264   0.131   9.569   2.160  0.3795 -0.5852 -0.0333
  951MOL0     C28265   0.027   9.513   2.256  0.1160 -0.4533  1.5396
  951MOL0     C28266  -0.095   9.604   2.276  0.4828  1.1015 -0.1535
  951MOL0     N28267  -0.206   9.541   2.342  0.1660 -0.3945  0.3768
  951MOL0     C28268  -0.315   9.604   2.395 -0.4854  0.5018 -0.8859
  951MOL0     C28269  -0.382   9.516   2.466  0.6766  0.0143 -0.9381
  951MOL0     C28270  -0.512   9.537   2.549 -0.2188 -0.3111 -0.0759
  951MOL0     C28271  -0.600   9.408   2.569 -0.6673  0.4961  1.1980
  951MOL0     C28272  -0.712   9.425   2.677  0.3628 -0.3949  0.0713
  951MOL0     C28273  -0.823   9.514   2.623 -0.4309 -1.1247 -0.0983
  951MOL0     O28274  -0.928   9.524   2.722 -0.3557  0.2264 -0.3805
  951MOL0     C28275  -1.026   9.623   2.712 -0.3933  0.6864  0.4720
  951MOL0     C28276  -1.038   9.694   2.598 -0.2063 -0.3080 -0.1788
  951MOL0     C28277  -1.141   9.789   2.582  0.7260 -0.6506 -0.3003
  951MOL0     C28278  -1.233   9.811   2.682 -0.8268  0.1833  0.2321
  951MOL0     C28279  -1.317   9.931   2.672  0.4809  0.1500  0.3281
  951MOL0     O28280  -1.411   9.942   2.775  0.4437 -0.0640 -0.1869
  951MOL0     C28281  -1.501  10.044   2.784  0.5967 -1.1747 -0.9964
  951MOL0     C28282  -1.592  10.079   2.682  0.6468  0.3854 -1.3453
  951MOL0     C28283  -1.697  10.170   2.708  0.6669  0.3689  0.1613
  951MOL0     C28284  -1.721  10.231   2.827 -0.2484  0.1115 -0.1751
  951MOL0     O28285  -1.825  10.322   2.848 -0.3768  0.5115  0.7037
  951MOL0     C28286  -1.915  10.370   2.747  0.6662 -0.8369 -0.3499
  951MOL0     C28287  -2.048  10.406   2.819 -0.2212  0.2075 -0.0046
  951MOL0     C28288  -2.021  10.509   2.930 -0.2832  0.1215  0.9662
  951MOL0     C28289  -2.137  10.520   3.023 -0.3472 -0.1179  0.2598
  951MOL0     C28290  -2.093  10.616   3.144  1.1062 -0.0246  0.6259
  951MOL0     C28291  -2.078  10.763   3.106  0.2235  0.9088  0.0974
  951MOL0     C28292  -2.196  10.824   3.025 -0.2597 -0.3291  0.3278
  951MOL0     C28293  -2.183  10.975   2.976 -0.2626 -1.0952  0.0940
  951MOL0    Cl28294  -2.055  11.000   2.864 -0.2807  0.0142 -0.0033
  951MOL0     C28295  -1.628  10.197   2.922 -0.3325 -0.0136 -0.2975
  951MOL0     C28296  -1.524  10.108   2.909  0.0511  0.6522  0.1894
  951MOL0     O28297  -1.300  10.020   2.589  0.4457 -0.0118  0.4296
  951MOL0     C28298  -1.235   9.721   2.794 -0.1323  0.1656  0.6312
  951MOL0     C28299  -1.138   9.617   2.802  0.4147  0.0412  0.3540
  951MOL0     N28300  -0.319   9.392   2.441 -0.9746 -0.0982  0.5949
  951MOL0     N28301  -0.205   9.412   2.380 -0.0798 -0.2900 -0.1623
  951MOL0     C28302   0.911   9.581   1.883  0.2977 -0.4156 -0.5081
  951MOL0     C28303   1.048   9.554   1.880  0.1904 -0.3556 -0.4974
  951MOL0     C28304   1.493   9.645   1.865 -0.9182  0.3997  0.2720
  951MOL0     C28305   1.580   9.751   1.825  1.2725 -0.5354  0.0024
  951MOL0     C28306   1.711   9.765   1.858  0.2068  0.5983 -0.5332
  951MOL0     C28307   1.772   9.667   1.933  0.1356  1.1862  0.2801
  951MOL0     O28308   1.904   9.677   1.979  0.1055 -0.2320  0.0656
  951MOL0     C28309   2.002   9.616   1.890 -0.4945 -0.1803  0.0989
  951MOL0     C28310   2.045   9.709   1.783  0.5122  0.1925 -0.3497
  951MOL0     C28311   2.102   9.850   1.825 -0.1090 -0.3888  0.0172
  951MOL0     C28312   2.151   9.927   1.700 -0.3345 -0.5070  0.2362
  951MOL0     C28313   2.207  10.050   1.764 -0.1142 -0.1701 -0.0421
  951MOL0     C28314   2.263  10.150   1.806  0.2246 -1.0249  1.0531
  951MOL0     C28315   1.702   9.555   1.971  0.1361  0.7424  0.6104
  951MOL0     C28316   1.566   9.547   1.941  0.6942 -0.0807 -0.2578
  951MOL0     C28317   1.493   9.422   1.997 -0.7520  0.1977  0.6616
  951MOL0     H28318   1.165   9.800   2.079  1.7145 -1.2647 -1.0992
  951MOL0     H28319   0.933   9.867   2.073  2.3291 -0.1701  1.4625
  951MOL0     H28320   0.662   9.644   2.101 -0.3636  0.9637 -1.2709
  951MOL0     H28321   0.691   9.827   2.120  1.7769 -2.3454  2.7032
  951MOL0     H28322   0.497   9.732   1.913  0.7643  0.1304 -0.0783
  951MOL0     H28323   0.487   9.877   2.003  0.7450  0.8044  3.1734
  951MOL0     H28324   0.436   9.762   2.211  0.9738 -1.6147  0.9517
  951MOL0     H28325   0.432   9.613   2.118  2.6890  0.5649 -0.8689
  951MOL0     H28326   0.266   9.869   2.053  1.8706 -0.4383 -0.2887
  951MOL0     H28327   0.253   9.717   1.963  2.1579  1.4702 -0.8525
  951MOL0     H28328   0.168   9.754   2.257  0.4561  1.8968 -0.1167
  951MOL0     H28329   0.063   9.785   2.115  0.0914  0.4545  2.4696
  951MOL0     H28330   0.110   9.536   2.058  1.9614 -2.6213  0.2465
  951MOL0     H28331   0.221   9.520   2.198  1.4472  1.6339  0.5224
  951MOL0     H28332   0.074   9.496   2.354  1.7876  0.0665  0.8737
  951MOL0     H28333  -0.001   9.416   2.213  2.0021 -1.2848  2.0696
  951MOL0     H28334  -0.068   9.687   2.341 -2.7783  0.3847  2.3758
  951MOL0     H28335  -0.128   9.639   2.178  3.5120 -1.0437 -2.1532
  951MOL0     H28336  -0.324   9.712   2.400  2.0798  0.7122  1.5126
  951MOL0     H28337  -0.487   9.567   2.652 -1.3000  1.3026 -0.2454
  951MOL0     H28338  -0.572   9.620   2.509  1.7480  3.0572  3.2600
  951MOL0     H28339  -0.635   9.365   2.475 -3.2547  0.9147  1.8808
  951MOL0     H28340  -0.527   9.333   2.601 -1.1538 -1.7079 -2.2652
  951MOL0     H28341  -0.675   9.467   2.771 -1.1216 -0.9105  0.9252
  951MOL0     H28342  -0.753   9.327   2.703 -2.1100  0.7772  0.9826
  951MOL0     H28343  -0.861   9.487   2.524  1.0846 -2.2091 -0.4116
  951MOL0     H28344  -0.772   9.610   2.618  1.5949 -2.1904 -0.6765
  951MOL0     H28345  -0.959   9.698   2.524 -0.0459  0.4629  0.0208
  951MOL0     H28346  -1.147   9.857   2.498 -0.2489 -1.3192 -0.8039
  951MOL0     H28347  -1.591  10.033   2.584 -0.5580 -1.4942 -0.5246
  951MOL0     H28348  -1.777  10.168   2.635  0.1705 -0.1367  0.7201
  951MOL0     H28349  -1.875  10.450   2.684 -0.1391 -1.5697 -1.8284
  951MOL0     H28350  -1.942  10.282   2.689  1.5781 -0.6129 -1.1224
  951MOL0     H28351  -2.126  10.457   2.762 -1.2466 -0.0845  1.0677
  951MOL0     H28352  -2.095  10.314   2.855  0.1571 -0.2916 -0.7784
  951MOL0     H28353  -1.928  10.494   2.985 -0.5716  2.5119  2.2695
  951MOL0     H28354  -2.009  10.601   2.872 -1.8523 -0.6995 -0.7667
  951MOL0     H28355  -2.152  10.421   3.066 -2.5866  0.3311  0.6096
  951MOL0     H28356  -2.222  10.553   2.964  1.6906  2.8130 -1.2935
  951MOL0     H28357  -2.003  10.583   3.196  1.3609 -0.6483 -0.1964
  951MOL0     H28358  -2.172  10.615   3.220 -0.5801 -2.7142 -0.9712
  951MOL0     H28359  -2.057  10.824   3.194 -1.7259  0.2496  1.0944
  951MOL0     H28360  -1.998  10.764   3.032 -1.9366 -0.1889 -2.4607
  951MOL0     H28361  -2.283  10.798   3.087  1.1405 -1.5335  1.8940
  951MOL0     H28362  -2.195  10.758   2.938 -1.0068 -0.8590  0.7070
  951MOL0     H28363  -2.275  11.002   2.923  0.3828  0.3129 -0.3427
  951MOL0     H28364  -2.181  11.051   3.054  0.0900 -0.5394 -0.4562
  951MOL0     H28365  -1.647  10.256   3.012  0.7676  0.9521 -0.6825
  951MOL0     H28366  -1.458  10.089   2.993  1.4989 -0.9611 -1.2175
  951MOL0     H28367  -1.313   9.714   2.869 -1.4901 -5.3413 -0.8655
  951MOL0     H28368  -1.141   9.555   2.891 -0.2985  1.6238  1.4820
  951MOL0     H28369   0.847   9.520   1.820 -0.6110 -0.9239  0.8451
  951MOL0     H28370   1.089   9.468   1.828 -1.3454 -1.1772 -0.4059
  951MOL0     H28371   1.522   9.822   1.767  0.3074 -2.6812 -1.8000
  951MOL0     H28372   1.762   9.856   1.826 -1.0344  1.1866 -0.9154
  951MOL0     H28373   1.965   9.519   1.854  1.4448 -1.2633  0.8752
  951MOL0     H28374   2.088   9.595   1.955  0.3597  1.6992 -0.3603
  951MOL0     H28375   1.959   9.739   1.723 -0.4703  5.3931  3.0245
  951MOL0     H28376   2.116   9.664   1.712  0.6823  2.9015 -2.0661
  951MOL0     H28377   2.178   9.838   1.903  0.9237 -1.5428 -1.1152
  951MOL0     H28378   2.035   9.912   1.886  1.2382  0.5261  0.6162
  951MOL0     H28379   2.223   9.879   1.633 -0.3369 -2.2993  1.4630
  951MOL0     H28380   2.065   9.961   1.641  0.1591  0.1251 -0.1428
  951MOL0     H28381   2.299  10.245   1.841 -1.5433  0.6870 -1.4864
  951MOL0     H28382   1.750   9.470   2.018  0.0086 -1.3389 -2.7111
  951MOL0     H28383   1.468   9.438   2.103  0.0273  0.5773  0.7953
  951MOL0     H28384   1.412   9.402   1.926 -1.6390 -0.6167  1.8492
  951MOL0     H28385   1.561   9.336   1.991  0.8770  1.2196  2.8853
  952MOL0     O28386   4.244   6.277   0.161 -0.4389 -0.2619 -0.3115
  952MOL0     C28387   4.319   6.349   0.093 -0.1040  0.9362  0.9635
  952MOL0     O28388   4.290   6.396  -0.038  0.0817  0.2170  0.4962
  952MOL0     C28389   4.181   6.336  -0.092 -0.3316  0.2249 -0.3125
  952MOL0     C28390   4.053   6.337  -0.028  0.0033 -0.0578  0.6009
  952MOL0     C28391   3.949   6.264  -0.088  0.0085 -0.8117 -0.2991
  952MOL0     C28392   3.960   6.201  -0.208  0.1802 -0.7472 -0.1602
  952MOL0     O28393   3.856   6.140  -0.274 -0.5916  0.7034  0.6972
  952MOL0     C28394   3.755   6.087  -0.203 -0.1701  0.2580  0.3387
  952MOL0     C28395   3.691   5.981  -0.295  0.1786  0.1357  0.1092
  952MOL0     C28396   3.580   6.033  -0.384 -0.8307  0.3984 -0.5494
  952MOL0     C28397   3.491   5.927  -0.452  0.0388  0.2171 -0.0304
  952MOL0     C28398   3.565   5.832  -0.556 -0.5396 -0.6510  0.3936
  952MOL0     C28399   3.483   5.776  -0.657  1.4813 -0.2442  0.4783
  952MOL0     C28400   3.572   5.702  -0.757  0.3133  0.4397 -0.2520
  952MOL0     C28401   3.490   5.607  -0.845 -0.3720 -0.3363 -0.3675
  952MOL0     N28402   3.557   5.515  -0.930 -0.6867  0.6934 -0.1230
  952MOL0     C28403   3.598   5.553  -1.056  0.2128  0.2568 -0.6758
  952MOL0     C28404   3.667   5.444  -1.099 -0.3257  0.6211  0.3939
  952MOL0     C28405   3.741   5.431  -1.224 -0.1410 -0.0387  0.9011
  952MOL0     C28406   3.656   5.402  -1.347  1.2046  0.3826  0.0905
  952MOL0     C28407   3.747   5.392  -1.474 -0.2464 -1.4321  0.0360
  952MOL0     C28408   3.801   5.519  -1.542 -0.0125  0.0705 -0.2572
  952MOL0     O28409   3.782   5.519  -1.687  0.2093 -0.5292  0.2708
  952MOL0     C28410   3.668   5.583  -1.738  0.5910 -0.2954 -0.7231
  952MOL0     C28411   3.545   5.517  -1.739  0.5955 -0.0770  0.8965
  952MOL0     C28412   3.439   5.574  -1.803  0.7727  0.3691  0.7249
  952MOL0     C28413   3.430   5.703  -1.847  0.6390 -1.5849  0.4632
  952MOL0     C28414   3.315   5.763  -1.894  0.8759 -0.3950  0.2653
  952MOL0     O28415   3.198   5.685  -1.905  0.8106  0.3371 -0.1730
  952MOL0     C28416   3.089   5.747  -1.964 -0.1017  0.5002 -0.0578
  952MOL0     C28417   3.065   5.740  -2.100 -0.5172 -0.8840 -0.3102
  952MOL0     C28418   2.939   5.772  -2.161  0.4808 -0.9979  0.0240
  952MOL0     C28419   2.846   5.839  -2.076  0.4914 -0.8256 -0.5673
  952MOL0     O28420   2.722   5.885  -2.119  0.1115  0.0507 -0.2355
  952MOL0     C28421   2.652   5.817  -2.219  0.0134 -0.5659  0.3004
  952MOL0     C28422   2.572   5.938  -2.269  0.4875  0.4618  0.1789
  952MOL0     C28423   2.506   5.909  -2.402  0.2532 -0.4688 -0.3287
  952MOL0     C28424   2.387   6.002  -2.421 -0.6237 -0.0040  0.1562
  952MOL0     C28425   2.346   5.973  -2.569 -0.2732  0.0281  0.2077
  952MOL0     C28426   2.189   6.000  -2.584 -0.2362  0.1477 -0.2142
  952MOL0     C28427   2.167   6.146  -2.576  0.6209  0.2382 -1.2002
  952MOL0     C28428   2.017   6.172  -2.535 -0.5613 -0.1334  0.3445
  952MOL0    Cl28429   1.976   6.345  -2.545 -0.1150  0.6597  0.1001
  952MOL0     C28430   2.877   5.862  -1.935 -0.0192 -0.0426 -0.0753
  952MOL0     C28431   2.994   5.814  -1.877  0.0228  1.1452  0.4703
  952MOL0     O28432   3.321   5.888  -1.910 -0.2651 -0.0336  0.0804
  952MOL0     C28433   3.553   5.769  -1.848  0.3272 -0.7979 -0.2061
  952MOL0     C28434   3.670   5.709  -1.800  0.6158 -0.3995 -0.6994
  952MOL0     N28435   3.670   5.354  -0.999 -0.0902  0.3516  0.4505
  952MOL0     N28436   3.605   5.394  -0.896  0.1645 -0.1034 -0.7122
  952MOL0     C28437   4.085   6.189  -0.270  0.1427 -0.2781 -0.2010
  952MOL0     C28438   4.192   6.261  -0.213  0.6372  0.0461  0.4242
  952MOL0     C28439   4.445   6.404   0.155  0.4533  0.4741  0.5369
  952MOL0     C28440   4.480   6.531   0.126  0.4735  0.3500  0.0616
  952MOL0     C28441   4.595   6.587   0.185 -0.8306  0.2120  0.3020
  952MOL0     C28442   4.678   6.506   0.265 -1.0399 -0.3043 -0.0016
  952MOL0     O28443   4.773   6.578   0.330 -0.0099 -0.0617  0.0124
  952MOL0     C28444   4.883   6.512   0.392 -0.7876 -0.0639  0.4964
  952MOL0     C28445   4.991   6.610   0.424  0.5983  0.6556 -0.5516
  952MOL0     C28446   5.050   6.672   0.301  0.3790 -0.1489 -0.9869
  952MOL0     C28447   5.122   6.585   0.202  0.2327  0.2125 -0.1551
  952MOL0     C28448   5.247   6.527   0.247 -0.0684  0.0656  0.4652
  952MOL0     C28449   5.330   6.463   0.304 -0.0473 -0.5647 -0.3323
  952MOL0     C28450   4.651   6.374   0.291  0.0957 -0.0277  0.1912
  952MOL0     C28451   4.530   6.322   0.238  0.2726 -0.7492  0.8116
  952MOL0     C28452   4.489   6.188   0.286 -1.1883 -0.0548  0.8664
  952MOL0     H28453   4.040   6.395   0.062  0.3251  3.6103 -1.5191
  952MOL0     H28454   3.855   6.263  -0.034  0.6728  0.8432  0.9819
  952MOL0     H28455   3.794   6.045  -0.109  2.3634 -1.2712 -1.2889
  952MOL0     H28456   3.688   6.174  -0.194  2.4800  3.1105 -3.9920
  952MOL0     H28457   3.653   5.911  -0.221  2.7909 -1.2502  0.2490
  952MOL0     H28458   3.768   5.923  -0.346  2.7860  0.8426  2.9260
  952MOL0     H28459   3.627   6.099  -0.456  2.7279  0.6261  1.7568
  952MOL0     H28460   3.505   6.076  -0.317 -0.0333 -0.8350  1.2463
  952MOL0     H28461   3.447   5.855  -0.383 -1.3054  0.6930 -0.3562
  952MOL0     H28462   3.410   5.987  -0.496  2.2486  5.8994  2.6938
  952MOL0     H28463   3.654   5.879  -0.599 -1.5118 -1.1192 -2.3321
  952MOL0     H28464   3.604   5.752  -0.493 -1.8319 -1.0119  0.7527
  952MOL0     H28465   3.401   5.716  -0.617  2.1802 -1.5842 -0.0544
  952MOL0     H28466   3.436   5.843  -0.730 -0.6704 -3.1665 -1.0507
  952MOL0     H28467   3.639   5.639  -0.698  0.5345  1.6904  0.8813
  952MOL0     H28468   3.640   5.768  -0.813  2.4619 -1.3728  0.1037
  952MOL0     H28469   3.430   5.544  -0.778 -0.9194  1.1123  0.5459
  952MOL0     H28470   3.439   5.688  -0.897  2.7728  4.0489  2.5941
  952MOL0     H28471   3.590   5.649  -1.107 -0.0522 -0.1549 -1.4245
  952MOL0     H28472   3.789   5.526  -1.252 -1.6744  0.4944 -0.0265
  952MOL0     H28473   3.818   5.356  -1.207  0.2138 -0.0030 -0.4000
  952MOL0     H28474   3.597   5.310  -1.343 -1.1660  1.5284 -3.3895
  952MOL0     H28475   3.565   5.462  -1.345 -1.9067 -3.8741  1.5006
  952MOL0     H28476   3.689   5.339  -1.551 -6.0690  0.2306  2.7391
  952MOL0     H28477   3.829   5.322  -1.451  0.2983 -1.6276 -2.1930
  952MOL0     H28478   3.904   5.517  -1.506 -0.8009 -0.9758  2.1122
  952MOL0     H28479   3.752   5.607  -1.500 -0.2918  0.0467 -0.5273
  952MOL0     H28480   3.530   5.422  -1.689 -0.4114  1.0771  2.9015
  952MOL0     H28481   3.344   5.522  -1.814 -1.1228  3.2909  1.8827
  952MOL0     H28482   3.145   5.694  -2.158 -0.0833 -0.5718  0.0306
  952MOL0     H28483   2.916   5.744  -2.263 -3.8869  1.6686  0.0095
  952MOL0     H28484   2.725   5.781  -2.292  1.7316  1.5407  0.8807
  952MOL0     H28485   2.590   5.742  -2.169  0.2757 -0.6229  0.5365
  952MOL0     H28486   2.493   5.950  -2.194 -2.1647 -2.0303 -2.0026
  952MOL0     H28487   2.630   6.031  -2.272  0.1730  0.6656  0.2771
  952MOL0     H28488   2.578   5.920  -2.483  1.3970 -2.6802  0.2895
  952MOL0     H28489   2.469   5.806  -2.406 -2.3243  0.4351 -2.9611
  952MOL0     H28490   2.418   6.105  -2.404 -1.3492  0.2670 -0.1354
  952MOL0     H28491   2.308   5.973  -2.352 -1.5730 -0.9126 -1.2532
  952MOL0     H28492   2.368   5.867  -2.585  2.0092  0.3922  0.5408
  952MOL0     H28493   2.405   6.026  -2.645 -0.0457 -3.0585 -1.9420
  952MOL0     H28494   2.147   5.959  -2.676  0.8395  2.3070 -1.7491
  952MOL0     H28495   2.145   5.959  -2.492  1.6396  1.5884  1.4285
  952MOL0     H28496   2.180   6.196  -2.672  2.1234  1.8707 -0.2076
  952MOL0     H28497   2.231   6.194  -2.501 -0.2114 -2.8991  1.7780
  952MOL0     H28498   1.961   6.111  -2.605  2.0226  3.0430 -5.1321
  952MOL0     H28499   1.989   6.144  -2.433 -0.4159  0.4238  0.5407
  952MOL0     H28500   2.799   5.910  -1.877  1.3237  1.4184  0.6067
  952MOL0     H28501   3.009   5.817  -1.770  1.4679  4.1196  0.2609
  952MOL0     H28502   3.556   5.875  -1.873 -2.0416 -0.6724 -0.1960
  952MOL0     H28503   3.754   5.778  -1.807  1.4480 -1.1883  0.9272
  952MOL0     H28504   4.095   6.147  -0.370  0.3880  0.8940 -0.6886
  952MOL0     H28505   4.283   6.272  -0.272 -1.0905  0.3337 -2.3819
  952MOL0     H28506   4.422   6.601   0.067 -0.3080  0.8942  1.4309
  952MOL0     H28507   4.616   6.692   0.167  1.0915 -0.5857 -2.9644
  952MOL0     H28508   4.938   6.436   0.336  1.4176  0.3640  1.9811
  952MOL0     H28509   4.851   6.464   0.485 -0.7590  0.7628  0.9439
  952MOL0     H28510   5.067   6.564   0.488 -0.8324  2.1592  2.4854
  952MOL0     H28511   4.949   6.693   0.482  1.6959 -0.5344  2.1041
  952MOL0     H28512   5.123   6.746   0.336  0.2595 -0.5158  0.0603
  952MOL0     H28513   4.969   6.733   0.260 -0.2382  1.3040  2.0886
  952MOL0     H28514   5.060   6.499   0.176  0.3352 -0.8141  2.7415
  952MOL0     H28515   5.148   6.641   0.112 -0.2282  0.8360  0.0963
  952MOL0     H28516   5.406   6.407   0.356 -2.4688 -3.6268  0.2364
  952MOL0     H28517   4.713   6.315   0.358 -0.8017  0.9940  2.0245
  952MOL0     H28518   4.400   6.187   0.350 -1.0924  2.2160  1.1228
  952MOL0     H28519   4.486   6.126   0.196  1.9106  2.1372 -0.9778
  952MOL0     H28520   4.567   6.133   0.340 -1.5927 -0.3128  1.1943
  953MOL0     O28521   5.993   9.269   5.320  0.7440  0.1762  0.1315
  953MOL0     C28522   6.058   9.242   5.416 -0.1972 -0.3055  0.0988
  953MOL0     O28523   6.030   9.278   5.541 -0.2767 -0.6536 -0.3347
  953MOL0     C28524   5.946   9.388   5.558 -0.1716 -0.2699 -0.0426
  953MOL0     C28525   5.822   9.397   5.495  0.1687 -0.1595 -0.6022
  953MOL0     C28526   5.743   9.520   5.502 -0.0776  0.7632 -0.2981
  953MOL0     C28527   5.782   9.622   5.592  0.5435  0.5669  1.0746
  953MOL0     O28528   5.731   9.750   5.594  1.2366 -0.0496 -0.1829
  953MOL0     C28529   5.588   9.769   5.581  0.5447 -0.5976  0.3407
  953MOL0     C28530   5.572   9.923   5.577  1.3755 -0.5405  0.1603
  953MOL0     C28531   5.438   9.977   5.541  1.1476  0.0569 -0.0171
  953MOL0     C28532   5.315   9.918   5.600 -0.5559 -0.3302 -0.6649
  953MOL0     C28533   5.187  10.009   5.590  0.2938  0.1254 -0.4850
  953MOL0     C28534   5.063   9.915   5.630 -0.9753  0.2316  1.1187
  953MOL0     C28535   4.952   9.981   5.695  0.3394  0.1066 -0.1889
  953MOL0     C28536   4.864  10.042   5.585 -0.9733  1.1290 -0.2411
  953MOL0     N28537   4.762  10.133   5.631  0.3137  0.1683 -0.3260
  953MOL0     C28538   4.623  10.116   5.605 -0.4833  0.2969 -0.0248
  953MOL0     C28539   4.575  10.239   5.621 -0.2656  0.3922  0.0101
  953MOL0     C28540   4.433  10.297   5.589  0.8154  0.4583  0.3616
  953MOL0     C28541   4.435  10.398   5.475  0.0597  0.0472  0.4429
  953MOL0     C28542   4.469  10.331   5.340  0.2272 -0.4065 -0.2911
  953MOL0     C28543   4.473  10.434   5.219 -0.5202  0.4255  0.3288
  953MOL0     O28544   4.371  10.396   5.124  0.7816  0.2619 -0.1439
  953MOL0     C28545   4.336  10.499   5.042  0.3659  0.1012  0.1782
  953MOL0     C28546   4.211  10.485   4.979  0.2965 -0.7335 -0.1704
  953MOL0     C28547   4.146  10.597   4.921 -0.1599 -0.0907 -0.4220
  953MOL0     C28548   4.215  10.723   4.920 -0.4952  0.2311  1.1832
  953MOL0     C28549   4.156  10.841   4.837 -0.2253 -0.2309  0.3768
  953MOL0     O28550   4.028  10.814   4.794 -0.2436 -0.3715  0.3108
  953MOL0     C28551   3.953  10.883   4.706 -0.1114 -0.4369 -0.4567
  953MOL0     C28552   3.816  10.892   4.714  0.2969 -0.3087 -0.5888
  953MOL0     C28553   3.744  10.982   4.629 -0.9476  0.3027 -0.0710
  953MOL0     C28554   3.803  11.049   4.524 -0.1054 -0.1948  1.3074
  953MOL0     O28555   3.738  11.141   4.461  0.4174  0.0978  0.2641
  953MOL0     C28556   3.759  11.167   4.323 -0.4392  0.4106 -0.3868
  953MOL0     C28557   3.628  11.234   4.263  0.3460 -0.7504 -0.2233
  953MOL0     C28558   3.672  11.325   4.150  0.0481  0.0943  0.9981
  953MOL0     C28559   3.570  11.345   4.043  0.1147  0.3616  0.7995
  953MOL0     C28560   3.430  11.347   4.102 -1.1732 -0.2582  0.1900
  953MOL0     C28561   3.330  11.364   3.995  0.9075  0.2215  1.3586
  953MOL0     C28562   3.185  11.405   4.044 -0.5370  0.2950  0.1922
  953MOL0     C28563   3.085  11.450   3.932 -0.5345  0.1014 -0.4735
  953MOL0    Cl28564   3.141  11.613   3.862 -0.2275  0.2593 -0.1179
  953MOL0     C28565   3.940  11.035   4.513  0.5720 -0.4615 -0.4538
  953MOL0     C28566   4.010  10.955   4.598 -0.0762  0.5206 -0.6602
  953MOL0     O28567   4.231  10.934   4.810 -0.2878  0.9758  0.4827
  953MOL0     C28568   4.352  10.721   4.958  0.1578  0.1485 -0.3391
  953MOL0     C28569   4.411  10.621   5.028 -0.3017 -0.2457 -0.1123
  953MOL0     N28570   4.682  10.321   5.679  0.0357  0.3296 -0.3210
  953MOL0     N28571   4.780  10.248   5.706 -0.0857 -0.3443  0.4459
  953MOL0     C28572   5.894   9.601   5.668 -0.1255  0.7501 -0.0459
  953MOL0     C28573   5.979   9.488   5.650  0.0788 -0.2918  0.2698
  953MOL0     C28574   6.191   9.174   5.400 -0.0613 -0.2201 -0.1264
  953MOL0     C28575   6.274   9.144   5.509  0.3081 -0.4009 -0.7055
  953MOL0     C28576   6.404   9.102   5.501 -0.4706  0.0742  0.4274
  953MOL0     C28577   6.463   9.064   5.380 -0.4124 -0.0393  0.3581
  953MOL0     O28578   6.593   9.013   5.367  0.2298 -0.5113  0.9408
  953MOL0     C28579   6.639   8.988   5.236  2.3113 -0.7968  0.1174
  953MOL0     C28580   6.781   8.951   5.226 -0.0117  0.2389  0.3318
  953MOL0     C28581   6.839   8.972   5.082  0.0286  0.1293  0.5772
  953MOL0     C28582   6.986   8.921   5.069  0.5173 -0.0085  0.3995
  953MOL0     C28583   7.088   8.999   5.132 -0.4582 -0.1037  1.5597
  953MOL0     C28584   7.161   9.068   5.198 -0.4834  0.2191 -0.4893
  953MOL0     C28585   6.373   9.076   5.264 -0.3456 -0.6078 -0.2900
  953MOL0     C28586   6.243   9.130   5.274 -0.0597 -0.2687 -0.2756
  953MOL0     C28587   6.160   9.117   5.139 -1.6005 -1.4727 -0.3336
  953MOL0     H28588   5.789   9.326   5.420 -0.8555 -1.1338  0.7099
  953MOL0     H28589   5.649   9.529   5.450 -0.1637 -2.7610 -1.0038
  953MOL0     H28590   5.557   9.714   5.491  4.7025 -0.4504 -1.4511
  953MOL0     H28591   5.539   9.745   5.676  2.3758 -0.7983  1.2817
  953MOL0     H28592   5.642   9.965   5.505  1.2287 -1.7794 -0.7347
  953MOL0     H28593   5.584   9.949   5.683 -2.2214 -2.6887  1.2962
  953MOL0     H28594   5.428   9.968   5.432 -1.8192  0.5190  0.1323
  953MOL0     H28595   5.444  10.080   5.577  0.7906 -0.6287  2.1302
  953MOL0     H28596   5.292   9.823   5.551 -0.5578 -0.2470 -0.8255
  953MOL0     H28597   5.325   9.884   5.704 -1.9028  1.0567 -0.0291
  953MOL0     H28598   5.197  10.095   5.658  1.2611 -2.0425  2.3379
  953MOL0     H28599   5.177  10.052   5.490 -3.4597  1.7463  0.4296
  953MOL0     H28600   5.028   9.862   5.540  5.3146 -3.0568 -0.0354
  953MOL0     H28601   5.095   9.835   5.698  0.7566 -0.0123  0.0927
  953MOL0     H28602   5.002  10.061   5.751  1.4309 -0.3398 -0.5012
  953MOL0     H28603   4.911   9.908   5.766  3.7354 -1.1521  0.7018
  953MOL0     H28604   4.935  10.100   5.525  2.8434 -0.2087  2.6254
  953MOL0     H28605   4.814   9.963   5.529  1.3789  0.5664 -1.6804
  953MOL0     H28606   4.577  10.027   5.563  1.1338 -0.4321 -0.3357
  953MOL0     H28607   4.366  10.213   5.568  0.9854  0.0623  1.3566
  953MOL0     H28608   4.387  10.351   5.672 -0.4134  1.8330 -1.1221
  953MOL0     H28609   4.338  10.447   5.468  0.1641  0.4143  1.4845
  953MOL0     H28610   4.512  10.471   5.501  1.0075 -0.1063 -1.7192
  953MOL0     H28611   4.404  10.249   5.307 -2.1137  0.6608  1.3345
  953MOL0     H28612   4.574  10.303   5.345  0.8516  1.0956 -2.7735
  953MOL0     H28613   4.577  10.428   5.188 -0.5650 -0.9124  0.3874
  953MOL0     H28614   4.455  10.532   5.266 -2.3443  0.2005  0.1819
  953MOL0     H28615   4.149  10.396   4.985 -0.9544  0.1776  0.8931
  953MOL0     H28616   4.048  10.574   4.880 -1.1551 -1.5468  2.5080
  953MOL0     H28617   3.750  10.839   4.782 -1.0812  2.7425  0.6226
  953MOL0     H28618   3.637  10.996   4.635 -1.2044 -1.3870 -0.5341
  953MOL0     H28619   3.846  11.233   4.314  1.3313 -2.0121 -2.0687
  953MOL0     H28620   3.788  11.072   4.278  3.1295 -0.0009  2.3398
  953MOL0     H28621   3.551  11.160   4.241  0.0418 -1.0698  1.7572
  953MOL0     H28622   3.586  11.289   4.347 -0.8916 -4.2653  1.6620
  953MOL0     H28623   3.696  11.425   4.187  0.6823  0.7969 -1.1618
  953MOL0     H28624   3.768  11.290   4.111 -0.7443 -0.6465 -0.3731
  953MOL0     H28625   3.587  11.259   3.977 -3.8264 -0.8839  1.1571
  953MOL0     H28626   3.593  11.429   3.978  0.3183  2.6935  3.6690
  953MOL0     H28627   3.423  11.419   4.185  0.0759 -1.5209  1.4432
  953MOL0     H28628   3.410  11.253   4.154 -0.0105 -0.5263  0.1870
  953MOL0     H28629   3.360  11.445   3.927 -0.0941 -1.3067 -1.0342
  953MOL0     H28630   3.314  11.266   3.949 -0.8365  1.2380 -0.3647
  953MOL0     H28631   3.195  11.471   4.131  1.7504  0.5518 -0.2103
  953MOL0     H28632   3.149  11.304   4.069  1.7190 -0.8686 -0.9873
  953MOL0     H28633   3.073  11.369   3.860  0.0164  0.3341 -0.8349
  953MOL0     H28634   2.992  11.464   3.988 -0.3816  2.2561 -0.6538
  953MOL0     H28635   3.997  11.096   4.443  1.7968 -1.6821 -0.5944
  953MOL0     H28636   4.115  10.945   4.570 -0.4908 -1.5660 -1.6603
  953MOL0     H28637   4.417  10.808   4.950  0.1947  0.0803 -0.8307
  953MOL0     H28638   4.514  10.628   5.061 -0.3303 -1.8926  0.4325
  953MOL0     H28639   5.911   9.667   5.753 -0.4766  2.0493 -0.9422
  953MOL0     H28640   6.079   9.475   5.692 -1.1124  0.5293  3.6403
  953MOL0     H28641   6.230   9.172   5.605 -0.4884  3.9882 -2.1248
  953MOL0     H28642   6.451   9.065   5.591 -3.4507 -2.8400  0.9618
  953MOL0     H28643   6.620   9.077   5.175  0.5102 -0.7469  0.7000
  953MOL0     H28644   6.586   8.902   5.195  2.0183 -1.7222  2.3012
  953MOL0     H28645   6.800   8.844   5.242  0.0141  0.4054  1.4931
  953MOL0     H28646   6.845   9.013   5.289 -2.3655  2.6414  0.5089
  953MOL0     H28647   6.831   9.073   5.039  0.0536  1.6826  3.8539
  953MOL0     H28648   6.791   8.897   5.020 -0.0617 -0.5469  1.4543
  953MOL0     H28649   6.999   8.818   5.103  0.1653  0.1152  0.9155
  953MOL0     H28650   7.019   8.918   4.965  1.9972 -2.5800  0.8502
  953MOL0     H28651   7.248   9.116   5.238 -1.2638 -0.2523  1.9790
  953MOL0     H28652   6.406   9.018   5.179 -1.0786 -5.4571  2.3211
  953MOL0     H28653   6.168   9.211   5.085  0.6302 -1.1711  0.4245
  953MOL0     H28654   6.199   9.038   5.075  1.4805  1.1180 -1.9209
  953MOL0     H28655   6.056   9.090   5.162 -2.0093 -1.0762 -1.6533
  954MOL0     O28656   2.064   8.564  10.359  0.2094  0.3153  0.1762
  954MOL0     C28657   2.076   8.498  10.256  0.5536 -0.1718  0.2454
  954MOL0     O28658   1.972   8.450  10.184 -0.3018 -0.7021  0.6574
  954MOL0     C28659   1.844   8.438  10.229 -0.3853 -0.3177 -0.2699
  954MOL0     C28660   1.819   8.391  10.362  0.8089  0.8182 -0.5183
  954MOL0     C28661   1.695   8.410  10.414  1.2835  0.5112 -0.0274
  954MOL0     C28662   1.584   8.441  10.328  0.2139  0.3599 -0.4044
  954MOL0     O28663   1.451   8.457  10.356 -0.2289 -0.4054 -0.1585
  954MOL0     C28664   1.410   8.392  10.473  0.7231  0.1034 -0.4507
  954MOL0     C28665   1.260   8.429  10.467 -0.9068  0.5742  0.0434
  954MOL0     C28666   1.169   8.328  10.531  0.5712 -0.1090 -0.5022
  954MOL0     C28667   1.186   8.188  10.501  1.0669  0.1864 -0.6682
  954MOL0     C28668   1.055   8.109  10.535 -0.1526  0.4033  0.2186
  954MOL0     C28669   1.084   7.965  10.479  0.7145 -0.2915 -0.2735
  954MOL0     C28670   1.195   7.897  10.547 -0.8986  0.0238 -0.1323
  954MOL0     C28671   1.193   7.751  10.513 -0.7170 -0.8083 -0.2448
  954MOL0     N28672   1.071   7.661  10.529 -0.4672 -0.3421 -0.7392
  954MOL0     C28673   1.036   7.614  10.654 -0.2046  0.3262  0.5149
  954MOL0     C28674   0.922   7.546  10.624  0.1566 -0.8096 -0.2638
  954MOL0     C28675   0.846   7.478  10.738 -0.0868 -0.2141  0.6581
  954MOL0     C28676   0.927   7.362  10.804 -0.2954  0.9573 -0.1496
  954MOL0     C28677   0.836   7.278  10.902 -0.3024 -0.1358  0.2601
  954MOL0     C28678   0.823   7.338  11.041 -1.1444  0.5611 -0.4320
  954MOL0     O28679   0.959   7.388  11.090  0.3738  0.5445 -0.2974
  954MOL0     C28680   0.967   7.461  11.204 -0.0597 -0.6751 -0.2920
  954MOL0     C28681   1.091   7.510  11.259  0.3172 -0.3004  0.0424
  954MOL0     C28682   1.085   7.596  11.370 -0.0367 -0.2906 -0.4720
  954MOL0     C28683   0.969   7.638  11.439 -0.1392  0.2826  0.6438
  954MOL0     C28684   0.976   7.732  11.552  0.5666 -0.5345  0.0014
  954MOL0     O28685   1.096   7.748  11.623  0.2154  0.2913  0.0085
  954MOL0     C28686   1.105   7.859  11.707 -0.5083  0.0710 -1.0216
  954MOL0     C28687   1.034   7.870  11.829  0.2594 -0.8429  0.3180
  954MOL0     C28688   1.057   7.982  11.910 -0.8454  0.0062  1.0371
  954MOL0     C28689   1.147   8.081  11.870  0.9556 -0.4173  0.4346
  954MOL0     O28690   1.140   8.210  11.930  0.6223 -0.5848 -0.0469
  954MOL0     C28691   1.094   8.313  11.848 -0.2515 -0.7458  0.6792
  954MOL0     C28692   0.941   8.290  11.830 -0.4191  0.8682  0.7740
  954MOL0     C28693   0.868   8.397  11.745  0.1679  0.5798 -0.4420
  954MOL0     C28694   0.941   8.453  11.625  0.1169  0.0909 -0.2842
  954MOL0     C28695   0.980   8.346  11.514 -0.0626 -0.4521 -0.4110
  954MOL0     C28696   0.848   8.265  11.480 -0.4799 -0.6989 -0.4564
  954MOL0     C28697   0.876   8.176  11.365 -0.9500  1.1215 -0.6051
  954MOL0     C28698   0.774   8.054  11.369 -1.0331  0.8302  0.6211
  954MOL0    Cl28699   0.593   8.083  11.391 -0.1902  0.1491  0.1002
  954MOL0     C28700   1.216   8.067  11.750  0.6576 -0.2490  0.5739
  954MOL0     C28701   1.210   7.950  11.677  0.1200 -1.2669  0.4898
  954MOL0     O28702   0.880   7.810  11.571  0.3347 -0.4312  0.1894
  954MOL0     C28703   0.848   7.588  11.380  0.1815 -0.6890 -0.2669
  954MOL0     C28704   0.853   7.490  11.284 -0.6475  0.0304  0.6998
  954MOL0     N28705   0.886   7.572  10.489  0.5671  0.6348  0.2422
  954MOL0     N28706   0.978   7.645  10.428  0.8320  0.1569 -0.3247
  954MOL0     C28707   1.606   8.465  10.198 -1.1103  0.6701  0.7314
  954MOL0     C28708   1.737   8.468  10.149 -0.2942 -1.1159 -0.3739
  954MOL0     C28709   2.202   8.466  10.191 -0.5782  0.8411  1.3338
  954MOL0     C28710   2.212   8.460  10.051  0.1898 -0.9325 -0.6775
  954MOL0     C28711   2.324   8.430   9.983  0.1528 -0.0168  0.1655
  954MOL0     C28712   2.445   8.414  10.046 -0.4172  0.1409 -0.1728
  954MOL0     O28713   2.569   8.400   9.980 -0.3461  0.2577  0.1758
  954MOL0     C28714   2.576   8.415   9.840  1.0265  0.5918 -0.6475
  954MOL0     C28715   2.580   8.557   9.796  0.8154  0.8085 -0.9503
  954MOL0     C28716   2.634   8.559   9.646  0.6727 -0.0973 -1.2599
  954MOL0     C28717   2.562   8.469   9.543  0.1212 -0.7929 -0.9534
  954MOL0     C28718   2.458   8.533   9.467  1.2309  0.5562  0.7097
  954MOL0     C28719   2.374   8.575   9.393  0.1326  0.2813  0.7179
  954MOL0     C28720   2.436   8.410  10.187  0.4182 -0.1278  0.8442
  954MOL0     C28721   2.322   8.426  10.265 -0.3427  0.4731  0.5344
  954MOL0     C28722   2.329   8.426  10.413  0.3528 -0.1499 -0.7236
  954MOL0     H28723   1.897   8.360  10.431  1.3447  2.9159 -0.1147
  954MOL0     H28724   1.677   8.385  10.518  0.4532 -0.6649 -0.4264
  954MOL0     H28725   1.429   8.284  10.475  1.1675  0.1645 -1.0502
  954MOL0     H28726   1.449   8.425  10.569  0.4007 -2.0056  0.4633
  954MOL0     H28727   1.220   8.438  10.366 -2.4264 -0.0094  0.5638
  954MOL0     H28728   1.244   8.519  10.528 -2.2329 -2.6424  5.0921
  954MOL0     H28729   1.068   8.359  10.503  0.1092 -0.0918  1.0764
  954MOL0     H28730   1.186   8.347  10.637  2.0463  1.6098 -0.9915
  954MOL0     H28731   1.196   8.190  10.392 -1.5251 -2.4602 -1.0731
  954MOL0     H28732   1.281   8.154  10.543  2.7970  1.3640 -3.3010
  954MOL0     H28733   1.041   8.111  10.644  0.8882  5.5351  0.5082
  954MOL0     H28734   0.961   8.136  10.487  0.6108  1.2999 -0.8144
  954MOL0     H28735   0.993   7.913  10.509 -2.1274  4.1113 -0.3161
  954MOL0     H28736   1.096   7.958  10.371 -2.9013 -4.4211 -0.7014
  954MOL0     H28737   1.193   7.901  10.656  1.6721 -2.6385  0.1613
  954MOL0     H28738   1.295   7.927  10.513  0.2668 -2.1279  1.1987
  954MOL0     H28739   1.213   7.737  10.407 -0.2425 -1.0639 -0.1252
  954MOL0     H28740   1.274   7.700  10.566 -0.6490 -4.4618 -3.4425
  954MOL0     H28741   1.073   7.623  10.755 -0.9962 -2.0183  1.0800
  954MOL0     H28742   0.825   7.561  10.806 -1.8708 -0.8909  0.9984
  954MOL0     H28743   0.748   7.446  10.702 -0.7406  0.5774  1.6473
  954MOL0     H28744   0.971   7.297  10.727 -0.6417 -0.5630  0.8749
  954MOL0     H28745   1.007   7.408  10.861 -0.2837  0.4257  0.2658
  954MOL0     H28746   0.899   7.188  10.903  0.5876  0.3066 -3.5275
  954MOL0     H28747   0.736   7.253  10.864 -1.4199  4.3266 -0.2569
  954MOL0     H28748   0.779   7.266  11.110  0.9936  0.4421  0.9048
  954MOL0     H28749   0.753   7.421  11.035 -2.5134 -0.6162 -1.6587
  954MOL0     H28750   1.179   7.481  11.201  2.1087  1.5641  1.6477
  954MOL0     H28751   1.184   7.635  11.393 -0.7046  0.3697  1.5174
  954MOL0     H28752   0.969   7.790  11.860  0.2650  0.4433  4.0989
  954MOL0     H28753   0.994   8.011  11.993 -1.0711 -1.3354  1.3550
  954MOL0     H28754   1.116   8.410  11.894 -0.6275  0.3054 -1.2309
  954MOL0     H28755   1.147   8.328  11.753 -2.6010  2.8457 -0.2949
  954MOL0     H28756   0.922   8.194  11.782 -3.2734  1.7540 -0.1113
  954MOL0     H28757   0.902   8.289  11.932 -2.2506 -0.4181  0.1238
  954MOL0     H28758   0.767   8.364  11.720  0.8297 -2.1321  0.2131
  954MOL0     H28759   0.855   8.478  11.818 -2.0185 -0.4340  0.3708
  954MOL0     H28760   1.035   8.503  11.649  0.1972  0.0398 -0.4903
  954MOL0     H28761   0.882   8.538  11.589 -0.5154 -0.3682 -0.3449
  954MOL0     H28762   1.059   8.283  11.556  1.2526  0.1655 -1.8702
  954MOL0     H28763   1.026   8.401  11.432 -2.2387  1.7662 -0.2862
  954MOL0     H28764   0.811   8.215  11.570 -3.8398  3.2146  0.6548
  954MOL0     H28765   0.762   8.326  11.451 -1.2785 -3.2160 -4.0012
  954MOL0     H28766   0.977   8.136  11.374 -1.3775  0.0048 -0.5627
  954MOL0     H28767   0.867   8.221  11.266  1.0240 -0.1815 -1.4344
  954MOL0     H28768   0.778   8.000  11.274 -0.6233  2.0096 -0.0503
  954MOL0     H28769   0.796   7.982  11.449 -1.8382  1.8028  1.7520
  954MOL0     H28770   1.280   8.146  11.712 -2.4285  2.2147  0.0922
  954MOL0     H28771   1.256   7.945  11.579 -0.6770 -0.8346  0.0929
  954MOL0     H28772   0.758   7.615  11.435  0.7880  0.4368  0.2007
  954MOL0     H28773   0.753   7.460  11.257  0.4009 -3.1557  0.0386
  954MOL0     H28774   1.527   8.487  10.126 -1.8285  2.1813  1.9148
  954MOL0     H28775   1.747   8.482  10.042 -2.0610  5.6387 -0.0767
  954MOL0     H28776   2.125   8.498   9.998 -1.2399 -1.6752  0.9951
  954MOL0     H28777   2.323   8.434   9.874 -1.5386 -2.1827  0.0383
  954MOL0     H28778   2.486   8.365   9.804 -0.7353  2.1656  1.3248
  954MOL0     H28779   2.657   8.353   9.801 -0.7425 -1.8138 -0.7172
  954MOL0     H28780   2.641   8.622   9.860 -0.6302  0.2185  1.1479
  954MOL0     H28781   2.481   8.605   9.794  1.0125  1.5868  2.2943
  954MOL0     H28782   2.742   8.545   9.648  0.9336  1.7830  0.1924
  954MOL0     H28783   2.614   8.661   9.612 -2.3514 -0.3489 -0.5840
  954MOL0     H28784   2.636   8.433   9.471  0.3293  0.4595 -1.3871
  954MOL0     H28785   2.507   8.386   9.588 -1.3438 -1.2728 -3.4215
  954MOL0     H28786   2.314   8.618   9.315  2.5105  0.6084 -1.0456
  954MOL0     H28787   2.529   8.406  10.243  0.8862  0.6442  0.1449
  954MOL0     H28788   2.402   8.350  10.442  0.4246 -0.4395 -1.6389
  954MOL0     H28789   2.362   8.527  10.439 -0.7203  0.4453 -1.6054
  954MOL0     H28790   2.234   8.401  10.462 -0.8121  1.1221 -2.2460
  955MOL0     O28791   3.170   6.350  10.122 -0.7103 -0.1556  1.0396
  955MOL0     C28792   3.147   6.276  10.023  1.2517 -0.4393 -0.7511
  955MOL0     O28793   3.240   6.209   9.942 -0.0894 -0.1893 -0.4261
  955MOL0     C28794   3.371   6.174   9.977  0.3592  0.7875  0.1086
  955MOL0     C28795   3.448   6.128   9.867 -0.4106 -0.6491 -0.1613
  955MOL0     C28796   3.593   6.102   9.887  0.1434 -0.0133 -0.9500
  955MOL0     C28797   3.657   6.111  10.024 -0.2430 -0.4608 -0.0874
  955MOL0     O28798   3.785   6.080  10.056 -1.0326  0.1490 -1.0439
  955MOL0     C28799   3.879   6.087   9.943  0.7813  0.4732  0.1806
  955MOL0     C28800   4.020   6.132   9.984  0.3007  0.7739  0.3222
  955MOL0     C28801   4.082   6.044  10.091 -0.7172 -0.9446 -0.4707
  955MOL0     C28802   4.099   6.138  10.213 -0.5222 -0.7325 -0.1328
  955MOL0     C28803   4.134   6.076  10.354 -0.1019  0.3533 -0.1957
  955MOL0     C28804   4.268   6.009  10.359  0.9846  0.3356 -0.3289
  955MOL0     C28805   4.316   5.986  10.511  0.8948 -1.5043 -0.2267
  955MOL0     C28806   4.428   5.888  10.536  0.9815 -0.2467  0.7407
  955MOL0     N28807   4.465   5.889  10.675 -0.6145  0.0706 -0.3202
  955MOL0     C28808   4.573   5.826  10.729  0.2237 -1.4091  0.4181
  955MOL0     C28809   4.558   5.835  10.863 -0.1870  0.1964  0.7247
  955MOL0     C28810   4.648   5.766  10.950  0.9196  0.1189 -0.6164
  955MOL0     C28811   4.612   5.626  11.003  1.0401 -0.4088  0.1416
  955MOL0     C28812   4.703   5.512  10.964 -0.4692 -0.3203 -0.4247
  955MOL0     C28813   4.687   5.475  10.815 -0.7326 -0.9487 -0.1469
  955MOL0     O28814   4.562   5.438  10.776  0.7856 -0.0795 -0.0261
  955MOL0     C28815   4.562   5.381  10.649 -1.2078  0.3869 -0.5723
  955MOL0     C28816   4.594   5.442  10.526  0.8012  0.2477  0.0455
  955MOL0     C28817   4.589   5.378  10.408 -0.1718  0.4808  0.6727
  955MOL0     C28818   4.546   5.248  10.398 -0.2886 -0.5235 -0.0788
  955MOL0     C28819   4.535   5.183  10.256  0.7515 -0.1557  0.4422
  955MOL0     O28820   4.548   5.256  10.137  1.2051 -0.1604  0.3998
  955MOL0     C28821   4.486   5.220  10.027 -0.3264  0.4464  0.7720
  955MOL0     C28822   4.368   5.140  10.021 -0.8154  0.3456 -0.2450
  955MOL0     C28823   4.298   5.130   9.901  0.0260 -0.3201 -0.5889
  955MOL0     C28824   4.325   5.206   9.790  0.2023 -0.5320 -0.0849
  955MOL0     O28825   4.244   5.200   9.688 -0.1947 -0.6908  0.3965
  955MOL0     C28826   4.216   5.066   9.649 -0.6034  0.0429 -0.3926
  955MOL0     C28827   4.155   5.039   9.508  0.4902 -0.1914 -0.4332
  955MOL0     C28828   4.237   5.088   9.398  0.0114 -0.4729  0.2433
  955MOL0     C28829   4.359   4.995   9.366  0.4510 -0.5312 -0.3666
  955MOL0     C28830   4.419   5.033   9.232  0.7595 -0.1929 -0.4335
  955MOL0     C28831   4.556   4.972   9.201 -1.0850 -0.9787  0.3837
  955MOL0     C28832   4.668   5.048   9.279  0.4773  0.2229  0.1694
  955MOL0     C28833   4.742   5.156   9.203 -0.5302  0.0104  0.0133
  955MOL0    Cl28834   4.859   5.080   9.093 -0.0802  0.1081  0.0198
  955MOL0     C28835   4.437   5.292   9.790  0.1132 -0.1897  0.0002
  955MOL0     C28836   4.513   5.286   9.903  0.6653 -0.0684 -0.2918
  955MOL0     O28837   4.524   5.060  10.259 -0.2025  1.1320 -0.3138
  955MOL0     C28838   4.508   5.186  10.520  0.4586 -1.5700  0.4953
  955MOL0     C28839   4.530   5.246  10.644 -0.1903  0.0292 -0.0933
  955MOL0     N28840   4.444   5.912  10.890 -0.8512  0.2169  0.6993
  955MOL0     N28841   4.389   5.939  10.776 -0.2273 -0.7762 -0.0848
  955MOL0     C28842   3.568   6.152  10.125  0.5353  0.4719  0.0867
  955MOL0     C28843   3.431   6.184  10.097 -0.0241  0.3017  0.3180
  955MOL0     C28844   3.002   6.240  10.001  1.1018  0.9756  0.6335
  955MOL0     C28845   2.917   6.328   9.935 -0.3643 -0.3280  1.4029
  955MOL0     C28846   2.795   6.291   9.877 -0.5469  0.2983  0.0228
  955MOL0     C28847   2.754   6.157   9.898 -0.7442 -1.1314 -0.5910
  955MOL0     O28848   2.638   6.099   9.859 -0.1444  0.7515 -0.2198
  955MOL0     C28849   2.529   6.181   9.827  0.4514 -0.5635  0.8052
  955MOL0     C28850   2.494   6.187   9.674 -0.2366 -0.0848  0.0762
  955MOL0     C28851   2.460   6.329   9.629 -0.2016 -0.0412  0.8543
  955MOL0     C28852   2.474   6.348   9.476  0.8490  0.8629  0.1700
  955MOL0     C28853   2.445   6.491   9.457  0.2826 -0.3920 -0.3588
  955MOL0     C28854   2.425   6.610   9.455  0.7520 -0.0949  0.3742
  955MOL0     C28855   2.839   6.076   9.959  0.1552  0.0180  0.0446
  955MOL0     C28856   2.962   6.105  10.016  0.6075 -0.7314 -0.4462
  955MOL0     C28857   3.053   5.990  10.055 -0.0320  0.8291  0.0224
  955MOL0     H28858   3.417   6.120   9.763  1.3272 -1.2595 -0.6708
  955MOL0     H28859   3.647   6.048   9.811  1.1474 -3.3642  1.8777
  955MOL0     H28860   3.897   5.989   9.898 -0.4067  0.1421  0.4050
  955MOL0     H28861   3.841   6.166   9.877  5.8860  1.4484 -2.1254
  955MOL0     H28862   4.013   6.239  10.003 -2.1960  0.6825  0.2477
  955MOL0     H28863   4.079   6.116   9.893 -0.7496 -3.0220  0.1296
  955MOL0     H28864   4.180   6.005  10.062 -1.3032 -2.9255  0.0316
  955MOL0     H28865   4.017   5.958  10.111 -0.8902 -0.5395  0.7754
  955MOL0     H28866   4.171   6.218  10.198 -3.7080  2.5360  0.4818
  955MOL0     H28867   4.001   6.186  10.228  0.2938  2.1687 -3.1522
  955MOL0     H28868   4.119   6.165  10.416 -1.3219  0.2703 -0.3567
  955MOL0     H28869   4.060   6.008  10.397 -0.2245  1.6635  1.8073
  955MOL0     H28870   4.275   5.905  10.326  1.5214  0.2429  0.0549
  955MOL0     H28871   4.333   6.060  10.286  1.6499  0.8459  0.6006
  955MOL0     H28872   4.229   5.936  10.555  1.2535 -0.1042  2.2459
  955MOL0     H28873   4.336   6.080  10.562  1.6009 -1.8274  0.1090
  955MOL0     H28874   4.388   5.788  10.520 -0.8460  0.1555  2.4091
  955MOL0     H28875   4.516   5.920  10.479  0.7202  0.7170  0.8663
  955MOL0     H28876   4.644   5.756  10.687  1.9045  0.8202 -0.7218
  955MOL0     H28877   4.746   5.773  10.901  0.3742  0.1784 -1.7317
  955MOL0     H28878   4.661   5.823  11.042  1.5209 -0.7490 -0.1500
  955MOL0     H28879   4.593   5.637  11.110 -2.6108 -1.3378 -0.3026
  955MOL0     H28880   4.521   5.605  10.947  0.1447  0.5634  1.1804
  955MOL0     H28881   4.667   5.424  11.018 -0.5440  0.3723  0.6883
  955MOL0     H28882   4.809   5.535  10.982  0.5042 -1.6871 -3.6166
  955MOL0     H28883   4.756   5.391  10.799 -0.3181 -0.3281 -1.8207
  955MOL0     H28884   4.733   5.556  10.757 -0.3203  0.3877  1.9515
  955MOL0     H28885   4.631   5.543  10.513 -0.5333  1.2175  2.9800
  955MOL0     H28886   4.614   5.424  10.313  0.3642 -0.5147  0.3093
  955MOL0     H28887   4.335   5.104  10.118  1.1935  0.3657  0.4886
  955MOL0     H28888   4.205   5.074   9.896 -0.9878  1.3420 -1.1726
  955MOL0     H28889   4.296   4.994   9.669 -3.3816 -3.2236 -0.0945
  955MOL0     H28890   4.152   5.013   9.721 -1.0758 -2.3201 -2.4096
  955MOL0     H28891   4.144   4.930   9.509 -3.6853  0.0184  1.9091
  955MOL0     H28892   4.051   5.074   9.501 -0.8635 -4.0196 -3.3559
  955MOL0     H28893   4.175   5.122   9.314 -0.5147  1.9584  1.5147
  955MOL0     H28894   4.280   5.185   9.427  1.7109 -0.6308 -1.4877
  955MOL0     H28895   4.326   4.891   9.356 -1.8129  0.2352 -1.8437
  955MOL0     H28896   4.432   5.004   9.447  1.5591  2.0685 -1.5327
  955MOL0     H28897   4.437   5.141   9.234 -0.2891 -0.0185  0.4140
  955MOL0     H28898   4.349   5.012   9.150  0.6900 -0.1813 -0.3774
  955MOL0     H28899   4.565   4.867   9.228 -2.5952 -1.1255  0.3990
  955MOL0     H28900   4.585   4.980   9.096 -2.2452  3.8790  0.1980
  955MOL0     H28901   4.742   4.976   9.315  1.1184  1.8832  2.3987
  955MOL0     H28902   4.622   5.083   9.372 -2.8911 -3.6308  0.2493
  955MOL0     H28903   4.679   5.218   9.139  4.7812  1.3229 -4.7736
  955MOL0     H28904   4.793   5.227   9.268  1.2813 -0.2780 -1.0246
  955MOL0     H28905   4.480   5.339   9.702  3.0024 -1.9054  0.3302
  955MOL0     H28906   4.604   5.346   9.905 -0.7892  2.2322  0.4902
  955MOL0     H28907   4.449   5.096  10.514 -1.7685 -0.3330  2.2740
  955MOL0     H28908   4.506   5.202  10.741  0.2117  0.0205  0.0049
  955MOL0     H28909   3.591   6.148  10.231  1.0498 -3.3606 -0.0359
  955MOL0     H28910   3.364   6.209  10.179 -0.7801  1.2266 -0.5569
  955MOL0     H28911   2.949   6.430   9.917 -0.2058 -0.5049  0.6473
  955MOL0     H28912   2.733   6.351   9.811  0.8724  1.6612 -0.1427
  955MOL0     H28913   2.534   6.279   9.876  1.1029  0.4129 -1.1173
  955MOL0     H28914   2.440   6.143   9.879 -1.9048  0.6464 -2.0670
  955MOL0     H28915   2.410   6.123   9.645 -1.8513  1.7130  0.5245
  955MOL0     H28916   2.560   6.143   9.599 -3.1231  0.7295 -3.2351
  955MOL0     H28917   2.520   6.403   9.682  0.5098  0.8298 -1.0905
  955MOL0     H28918   2.355   6.352   9.651 -0.4454  3.9320 -3.0234
  955MOL0     H28919   2.576   6.327   9.442 -0.8017 -3.0133 -3.2784
  955MOL0     H28920   2.396   6.282   9.437 -0.0789  1.9927  0.0427
  955MOL0     H28921   2.415   6.717   9.449  1.4641 -0.0330  0.1266
  955MOL0     H28922   2.802   5.974   9.970 -1.4509  0.3485 -1.7235
  955MOL0     H28923   3.134   6.021  10.122  0.9943 -0.4594 -0.5858
  955MOL0     H28924   3.005   5.908  10.110  2.6366  0.0903  1.3862
  955MOL0     H28925   3.091   5.943   9.964  2.9708 -1.1299  2.1209
  956MOL0     O28926   1.412  11.112   5.388 -0.1579  0.0155 -0.2662
  956MOL0     C28927   1.496  11.175   5.328  0.3059 -0.7525 -0.2157
  956MOL0     O28928   1.531  11.146   5.194 -0.0106  0.9168 -0.2193
  956MOL0     C28929   1.520  11.017   5.155  0.8653  0.8131  1.2344
  956MOL0     C28930   1.637  10.953   5.093 -0.1522 -1.1083 -0.1935
  956MOL0     C28931   1.621  10.822   5.042 -0.7009  0.7297  0.2192
  956MOL0     C28932   1.507  10.751   5.043  0.5719 -0.0543  0.1363
  956MOL0     O28933   1.495  10.617   5.018 -0.2906 -0.2903  0.0684
  956MOL0     C28934   1.571  10.531   5.118  0.7373  0.0378  0.5249
  956MOL0     C28935   1.535  10.383   5.108  0.4318  0.1471 -0.0256
  956MOL0     C28936   1.508  10.334   4.969 -0.2652 -0.2357  0.7589
  956MOL0     C28937   1.627  10.341   4.865  0.0580 -0.2551  1.0767
  956MOL0     C28938   1.599  10.312   4.707 -0.9398 -0.5431 -0.6606
  956MOL0     C28939   1.479  10.410   4.671  0.4703 -0.7493  0.1547
  956MOL0     C28940   1.448  10.428   4.515 -0.0776 -0.6249 -0.4883
  956MOL0     C28941   1.330  10.522   4.482 -0.6157  0.1550  0.4891
  956MOL0     N28942   1.379  10.652   4.514  0.4275 -0.5917 -0.2969
  956MOL0     C28943   1.344  10.720   4.634 -0.4818 -1.2785  0.6027
  956MOL0     C28944   1.361  10.848   4.602 -0.8493  0.7117 -0.6309
  956MOL0     C28945   1.346  10.955   4.711  0.5520 -0.2471  1.3528
  956MOL0     C28946   1.481  11.025   4.733  0.1453  0.3071  0.3715
  956MOL0     C28947   1.509  11.129   4.632 -0.0778 -0.0715 -0.2679
  956MOL0     C28948   1.648  11.193   4.640 -0.4261  0.7729 -0.2995
  956MOL0     O28949   1.700  11.226   4.767 -0.2477  0.9959 -0.7678
  956MOL0     C28950   1.804  11.316   4.773  0.4738 -0.2520  0.8663
  956MOL0     C28951   1.892  11.306   4.886 -0.6123 -0.3236 -0.6959
  956MOL0     C28952   2.010  11.387   4.898  0.1628 -0.3732  0.2623
  956MOL0     C28953   2.038  11.472   4.783  0.2189  0.4095 -0.6132
  956MOL0     C28954   2.171  11.541   4.781  0.1007  0.5002 -0.0269
  956MOL0     O28955   2.249  11.511   4.884 -0.3500 -0.0133  0.4614
  956MOL0     C28956   2.376  11.556   4.889 -0.5768  0.6180 -0.0256
  956MOL0     C28957   2.464  11.535   4.782 -1.0155  0.3205  0.2512
  956MOL0     C28958   2.600  11.577   4.783 -0.4980 -0.5565 -0.3974
  956MOL0     C28959   2.655  11.619   4.907 -0.7725  0.1832  0.2678
  956MOL0     O28960   2.798  11.622   4.901 -0.1104 -0.7507 -0.1345
  956MOL0     C28961   2.857  11.686   5.011 -0.4006 -0.4358  0.6311
  956MOL0     C28962   2.992  11.738   4.963 -0.1930  0.1960 -0.4650
  956MOL0     C28963   3.087  11.793   5.079 -0.2976  0.6591 -0.3450
  956MOL0     C28964   3.217  11.842   5.027 -0.6781 -0.1775 -0.5640
  956MOL0     C28965   3.200  11.950   4.921  0.2273 -0.2659  0.2360
  956MOL0     C28966   3.325  12.046   4.897 -0.2857  0.7960 -0.2038
  956MOL0     C28967   3.301  12.154   4.780  0.3757 -0.3965  0.1814
  956MOL0     C28968   3.405  12.274   4.785  0.8767  0.2182  0.2945
  956MOL0    Cl28969   3.421  12.335   4.948  1.1455 -0.2677  0.3753
  956MOL0     C28970   2.564  11.645   5.014 -0.5381  0.3986  0.4277
  956MOL0     C28971   2.424  11.614   5.006  0.2652 -0.7481  0.1232
  956MOL0     O28972   2.210  11.595   4.675 -0.4284  0.9386 -0.7998
  956MOL0     C28973   1.947  11.492   4.683 -0.8340 -0.3034 -0.0359
  956MOL0     C28974   1.836  11.408   4.672 -0.7160  0.5590  0.7009
  956MOL0     N28975   1.416  10.855   4.481 -0.4021 -0.4514  0.6662
  956MOL0     N28976   1.420  10.745   4.422 -0.9691  0.1372  0.1242
  956MOL0     C28977   1.389  10.821   5.086  0.3139  0.1364 -0.7355
  956MOL0     C28978   1.399  10.951   5.149 -0.5744  0.7186 -0.1637
  956MOL0     C28979   1.527  11.310   5.384  0.5118 -0.7206  1.4580
  956MOL0     C28980   1.649  11.348   5.440 -0.0181  0.7127 -0.2967
  956MOL0     C28981   1.668  11.474   5.490  0.5904 -0.0142  0.0331
  956MOL0     C28982   1.569  11.569   5.485 -0.0348 -0.2361  0.2099
  956MOL0     O28983   1.601  11.695   5.531 -1.3457  0.3847  0.0152
  956MOL0     C28984   1.498  11.783   5.583 -0.0119  0.1908  0.0874
  956MOL0     C28985   1.475  11.891   5.476 -0.6189  0.7123 -0.5381
  956MOL0     C28986   1.610  11.970   5.459  0.0092  0.6448 -0.5871
  956MOL0     C28987   1.652  12.042   5.588 -0.5885  0.1945 -0.2777
  956MOL0     C28988   1.763  12.136   5.554 -0.8909  0.0417 -0.1758
  956MOL0     C28989   1.852  12.212   5.519 -0.1253 -0.5438  0.1188
  956MOL0     C28990   1.446  11.544   5.419  0.2263  0.7633  0.5787
  956MOL0     C28991   1.428  11.412   5.369  0.1080  0.0970 -0.0986
  956MOL0     C28992   1.282  11.386   5.310 -0.4326 -0.1841  0.7203
  956MOL0     H28993   1.736  10.998   5.095 -0.7130  0.1701  0.1828
  956MOL0     H28994   1.708  10.764   5.013 -1.3529 -0.5381  0.7562
  956MOL0     H28995   1.677  10.541   5.094  0.6066 -0.7652 -0.4644
  956MOL0     H28996   1.551  10.572   5.218 -0.6978  2.5572 -0.6764
  956MOL0     H28997   1.459  10.364   5.185  3.0668  1.2403  3.0416
  956MOL0     H28998   1.630  10.333   5.128  0.2634 -0.9843 -1.7998
  956MOL0     H28999   1.427  10.396   4.932  0.8576  0.1088 -1.2433
  956MOL0     H29000   1.462  10.236   4.976  0.3744 -1.0800 -4.0389
  956MOL0     H29001   1.686  10.433   4.876 -0.9920  0.3902  1.4552
  956MOL0     H29002   1.692  10.260   4.898  0.0536 -0.8768 -0.3465
  956MOL0     H29003   1.688  10.338   4.649  0.2967 -1.5380  0.7011
  956MOL0     H29004   1.566  10.209   4.689 -0.0972 -0.6111 -1.9074
  956MOL0     H29005   1.389  10.390   4.731 -1.8448  2.4923 -1.8962
  956MOL0     H29006   1.515  10.511   4.693 -0.5698  0.8219 -4.2979
  956MOL0     H29007   1.428  10.331   4.469  0.7299 -0.9274 -0.2243
  956MOL0     H29008   1.541  10.463   4.469  0.9213 -1.2189  1.0127
  956MOL0     H29009   1.304  10.505   4.377 -2.7107 -0.8406  1.1118
  956MOL0     H29010   1.239  10.499   4.539 -0.4808  0.3232  0.7737
  956MOL0     H29011   1.319  10.688   4.734 -3.9203 -0.2617  0.2094
  956MOL0     H29012   1.263  11.020   4.681  0.4727 -0.5010  1.0096
  956MOL0     H29013   1.325  10.911   4.809 -4.7534  1.9267  1.5154
  956MOL0     H29014   1.469  11.067   4.833  1.6868 -1.3143  1.2863
  956MOL0     H29015   1.565  10.956   4.721  1.4616  2.0444 -0.9382
  956MOL0     H29016   1.449  11.220   4.634 -0.1127 -0.1021  0.7904
  956MOL0     H29017   1.488  11.096   4.530  0.4644  0.9810 -0.7401
  956MOL0     H29018   1.638  11.286   4.582 -0.9021 -0.0289 -1.5430
  956MOL0     H29019   1.721  11.127   4.593 -1.9207 -0.7514 -0.5964
  956MOL0     H29020   1.871  11.236   4.966  1.6469 -0.3447 -0.0530
  956MOL0     H29021   2.065  11.390   4.991 -0.0409  0.4684  0.3632
  956MOL0     H29022   2.439  11.474   4.696  0.5065 -2.0232  1.3684
  956MOL0     H29023   2.667  11.551   4.702  0.8073 -1.0972  0.8014
  956MOL0     H29024   2.794  11.773   5.030  2.0615  1.4530  0.6724
  956MOL0     H29025   2.865  11.621   5.098  2.2760  0.6429  1.2889
  956MOL0     H29026   3.045  11.657   4.911 -1.8698  0.1963 -2.3096
  956MOL0     H29027   2.975  11.807   4.880 -0.2583 -0.8534 -1.3529
  956MOL0     H29028   3.026  11.869   5.128 -0.8217 -0.0501  0.1214
  956MOL0     H29029   3.107  11.713   5.150 -0.6712  0.0177 -0.9491
  956MOL0     H29030   3.277  11.763   4.980  0.0177 -1.5561  2.4008
  956MOL0     H29031   3.269  11.874   5.118 -1.4276 -3.2337  1.1016
  956MOL0     H29032   3.118  12.012   4.958 -3.0013 -3.3188 -1.2697
  956MOL0     H29033   3.162  11.897   4.834 -2.4053 -1.7641  2.1541
  956MOL0     H29034   3.350  12.093   4.992 -1.1406  0.0557  0.4090
  956MOL0     H29035   3.417  11.994   4.868 -0.3167  1.9444 -2.5975
  956MOL0     H29036   3.200  12.194   4.794  0.7048 -0.2239  2.5246
  956MOL0     H29037   3.321  12.113   4.681 -3.5613 -1.0516 -0.4978
  956MOL0     H29038   3.502  12.244   4.745  0.8670  1.9417 -1.1538
  956MOL0     H29039   3.363  12.363   4.737 -1.0858 -0.3451  0.8711
  956MOL0     H29040   2.597  11.667   5.114 -2.3158 -1.3917  1.4811
  956MOL0     H29041   2.349  11.617   5.084 -1.5986 -0.1239 -1.5882
  956MOL0     H29042   1.981  11.560   4.606 -0.0130 -1.1780 -0.4766
  956MOL0     H29043   1.772  11.426   4.586  0.9118 -0.2635 -0.7473
  956MOL0     H29044   1.295  10.767   5.081 -0.2213  1.0877 -1.1993
  956MOL0     H29045   1.311  10.985   5.202 -1.0010 -0.2067 -0.2462
  956MOL0     H29046   1.725  11.274   5.462  0.3295  0.8897 -0.8834
  956MOL0     H29047   1.763  11.506   5.530  0.0772  1.7061 -0.0279
  956MOL0     H29048   1.537  11.817   5.679 -1.4561 -2.4182  1.7120
  956MOL0     H29049   1.400  11.736   5.600 -1.7438  3.6038  0.3281
  956MOL0     H29050   1.397  11.964   5.499 -2.4212 -1.4812  0.7942
  956MOL0     H29051   1.453  11.830   5.388 -1.7833 -3.5966  2.4015
  956MOL0     H29052   1.593  12.049   5.385 -0.7813 -0.8484 -2.0925
  956MOL0     H29053   1.695  11.911   5.425 -1.1322 -2.6079  1.6881
  956MOL0     H29054   1.570  12.088   5.644  1.0130  1.9762  0.6990
  956MOL0     H29055   1.698  11.968   5.654 -1.0494  0.3047  0.1754
  956MOL0     H29056   1.931  12.279   5.487  0.6065 -1.6131 -0.3820
  956MOL0     H29057   1.366  11.618   5.416 -0.7272 -0.2376  0.7738
  956MOL0     H29058   1.195  11.431   5.359 -1.9933  1.9025 -3.4574
  956MOL0     H29059   1.274  11.427   5.209 -3.4941 -0.9245  0.5551
  956MOL0     H29060   1.261  11.280   5.324 -0.8918 -0.3456 -0.8988
  957MOL0     O29061   5.288   6.457   5.603  0.0724  0.5827 -0.0904
  957MOL0     C29062   5.363   6.381   5.551 -0.4782 -0.8675  0.3644
  957MOL0     O29063   5.467   6.326   5.614  0.2732  0.0621 -0.7059
  957MOL0     C29064   5.481   6.363   5.745  1.2282 -0.4646  0.6655
  957MOL0     C29065   5.402   6.308   5.849 -0.3239 -0.2563 -0.7381
  957MOL0     C29066   5.416   6.352   5.989 -0.2570  0.2449 -0.2669
  957MOL0     C29067   5.523   6.436   6.023 -0.1416 -0.3080  0.6733
  957MOL0     O29068   5.559   6.498   6.137  0.0599  0.4422 -0.5337
  957MOL0     C29069   5.492   6.466   6.257 -0.7375  0.7749 -0.2136
  957MOL0     C29070   5.361   6.544   6.268  0.3445 -0.6678 -0.9315
  957MOL0     C29071   5.280   6.509   6.392  0.8802 -0.7849  0.0479
  957MOL0     C29072   5.147   6.580   6.390 -0.5004  0.1361 -0.1875
  957MOL0     C29073   5.072   6.553   6.525  0.0706 -0.8203  0.2125
  957MOL0     C29074   4.928   6.604   6.522 -0.0944 -0.3858 -0.4088
  957MOL0     C29075   4.863   6.585   6.666  0.1064  0.7188  0.0324
  957MOL0     C29076   4.710   6.580   6.684 -0.3752 -0.1172 -0.0523
  957MOL0     N29077   4.691   6.539   6.822  0.2933 -0.4522  0.4067
  957MOL0     C29078   4.631   6.412   6.841 -0.5461 -0.0886  0.7334
  957MOL0     C29079   4.611   6.419   6.972  0.0083 -0.1685 -0.7022
  957MOL0     C29080   4.536   6.306   7.045  0.6287 -0.5839 -0.0521
  957MOL0     C29081   4.550   6.312   7.202 -0.5783  0.9234  0.5613
  957MOL0     C29082   4.437   6.223   7.253 -1.0503  0.5952 -0.0473
  957MOL0     C29083   4.458   6.185   7.401  0.1242  0.3855 -0.6049
  957MOL0     O29084   4.444   6.306   7.474 -0.2584  0.2957  0.5090
  957MOL0     C29085   4.410   6.292   7.609  0.3089 -0.3186 -0.2712
  957MOL0     C29086   4.345   6.396   7.674  0.2884 -0.0097 -0.7825
  957MOL0     C29087   4.302   6.388   7.803  0.0707 -1.7345 -0.0305
  957MOL0     C29088   4.308   6.265   7.872 -1.2845  0.1063 -0.8295
  957MOL0     C29089   4.235   6.256   7.996  0.4437  0.2349 -1.2624
  957MOL0     O29090   4.134   6.353   8.016  0.2816  0.0025  0.3481
  957MOL0     C29091   4.025   6.313   8.095  0.0944  0.0291  0.3235
  957MOL0     C29092   4.042   6.275   8.236 -0.1047  0.3818  1.0037
  957MOL0     C29093   3.935   6.230   8.320 -0.5784  0.7885  0.3607
  957MOL0     C29094   3.806   6.219   8.254 -0.6296 -0.3419 -0.2104
  957MOL0     O29095   3.703   6.164   8.324  0.0751  0.8430 -0.3842
  957MOL0     C29096   3.718   6.120   8.461  0.0772  0.3757  0.5118
  957MOL0     C29097   3.693   6.226   8.571 -1.0964 -0.3101 -0.5791
  957MOL0     C29098   3.693   6.159   8.714  0.7550  0.4985  0.2244
  957MOL0     C29099   3.612   6.252   8.812 -0.7902  0.4904  0.3924
  957MOL0     C29100   3.641   6.219   8.961  0.5190  0.2725 -0.4529
  957MOL0     C29101   3.614   6.330   9.053  0.0799  0.0272 -0.7804
  957MOL0     C29102   3.644   6.291   9.205 -0.3999 -0.1233 -0.3692
  957MOL0     C29103   3.792   6.283   9.238  0.0750 -0.4299 -0.2561
  957MOL0    Cl29104   3.812   6.323   9.404  0.3190  0.1430 -0.5716
  957MOL0     C29105   3.792   6.246   8.115  0.9883  0.4288 -0.7838
  957MOL0     C29106   3.902   6.292   8.031  0.8516  1.3130 -0.6371
  957MOL0     O29107   4.280   6.174   8.082  0.2083 -0.1818 -0.4574
  957MOL0     C29108   4.357   6.149   7.804  0.0210  0.4831 -0.9568
  957MOL0     C29109   4.427   6.168   7.684 -1.2654  0.1595  0.3672
  957MOL0     N29110   4.666   6.540   7.028  0.7122 -0.8463  0.4888
  957MOL0     N29111   4.704   6.614   6.935  0.5223 -1.1890  0.7116
  957MOL0     C29112   5.597   6.500   5.913 -0.0110 -0.4247 -0.0038
  957MOL0     C29113   5.567   6.464   5.780  0.2754  0.7179 -0.7207
  957MOL0     C29114   5.336   6.357   5.400 -0.3505  0.7775  0.3506
  957MOL0     C29115   5.397   6.240   5.344 -0.2424 -0.2644  0.1076
  957MOL0     C29116   5.382   6.211   5.209 -0.1775  0.0198 -0.3607
  957MOL0     C29117   5.309   6.298   5.128  0.5021  0.2042  1.0251
  957MOL0     O29118   5.289   6.263   4.994  0.1674  0.0652  0.3098
  957MOL0     C29119   5.162   6.311   4.936 -0.3634  0.4983  0.7280
  957MOL0     C29120   5.177   6.433   4.840  0.3534 -1.5682 -0.8624
  957MOL0     C29121   5.033   6.499   4.813 -0.5991 -0.3156  0.2236
  957MOL0     C29122   5.029   6.641   4.747  0.6545  0.7194  0.2727
  957MOL0     C29123   5.124   6.732   4.786 -0.8961  0.1098 -0.7108
  957MOL0     C29124   5.204   6.805   4.825 -0.6155 -0.4700 -0.1962
  957MOL0     C29125   5.267   6.419   5.180 -0.9331  0.3935 -0.0698
  957MOL0     C29126   5.277   6.448   5.314 -0.4220 -0.1720 -0.6281
  957MOL0     C29127   5.237   6.594   5.370  0.3433 -0.1553 -0.0406
  957MOL0     H29128   5.330   6.236   5.812 -1.5208  0.5715 -0.0960
  957MOL0     H29129   5.347   6.301   6.056 -1.2028  0.8725 -0.7474
  957MOL0     H29130   5.471   6.359   6.260 -1.7393  0.9719  2.1631
  957MOL0     H29131   5.549   6.492   6.346 -0.9732 -0.9178  0.4696
  957MOL0     H29132   5.305   6.502   6.184 -0.9352 -0.7314 -0.0649
  957MOL0     H29133   5.381   6.651   6.265 -2.1249 -0.1600 -1.5114
  957MOL0     H29134   5.341   6.525   6.481 -2.0061 -1.7593  2.3813
  957MOL0     H29135   5.248   6.404   6.399  2.0829 -1.0579  2.5312
  957MOL0     H29136   5.172   6.686   6.379 -0.4798  0.5125  2.7605
  957MOL0     H29137   5.090   6.542   6.304 -2.7648 -2.9093  2.4072
  957MOL0     H29138   5.057   6.444   6.527 -2.0961 -0.5543  0.3513
  957MOL0     H29139   5.126   6.591   6.612  1.8173 -1.4982 -0.5284
  957MOL0     H29140   4.931   6.712   6.504  2.5113 -0.6608 -2.1155
  957MOL0     H29141   4.872   6.564   6.436  2.4322  1.4550 -3.1223
  957MOL0     H29142   4.887   6.673   6.725 -1.0081  0.8069  0.3576
  957MOL0     H29143   4.902   6.495   6.714  3.4297  1.4177 -1.0637
  957MOL0     H29144   4.656   6.672   6.663  1.2722  1.5948  2.6131
  957MOL0     H29145   4.687   6.495   6.619 -0.4267 -0.3084  0.2132
  957MOL0     H29146   4.591   6.344   6.766 -1.5520  3.0532 -1.8336
  957MOL0     H29147   4.430   6.317   7.020  1.0640  3.2718 -0.9033
  957MOL0     H29148   4.572   6.208   7.013  0.7393 -0.6092  0.1505
  957MOL0     H29149   4.643   6.258   7.217 -0.3221  1.5991  1.4464
  957MOL0     H29150   4.552   6.416   7.237  2.3907  0.1846  2.9927
  957MOL0     H29151   4.437   6.126   7.203  2.9505  0.7804 -0.7628
  957MOL0     H29152   4.336   6.261   7.239 -1.2271 -0.4337 -1.8391
  957MOL0     H29153   4.559   6.144   7.410 -0.2427 -0.3559  0.4582
  957MOL0     H29154   4.379   6.112   7.426 -2.3399  1.4773 -4.2926
  957MOL0     H29155   4.335   6.485   7.612 -2.4742 -0.0006 -0.4620
  957MOL0     H29156   4.261   6.479   7.846  0.8120 -0.9872 -0.8860
  957MOL0     H29157   4.138   6.295   8.282  0.1430  1.3565  0.0875
  957MOL0     H29158   3.948   6.190   8.420  0.5344 -0.4275 -0.2387
  957MOL0     H29159   3.626   6.065   8.483 -1.8836  2.6257 -1.3669
  957MOL0     H29160   3.795   6.046   8.480 -1.0464 -0.9633  0.0194
  957MOL0     H29161   3.775   6.299   8.567  0.6355 -1.8733  2.7780
  957MOL0     H29162   3.595   6.273   8.557 -1.1045  0.2544  1.1844
  957MOL0     H29163   3.642   6.063   8.718  0.0719  0.8721  3.4606
  957MOL0     H29164   3.795   6.141   8.748 -0.1710 -1.1227  2.4064
  957MOL0     H29165   3.505   6.233   8.798 -0.6819 -2.6668  2.6644
  957MOL0     H29166   3.649   6.351   8.787 -0.0647 -0.4527 -2.6248
  957MOL0     H29167   3.750   6.210   8.963  0.8207  3.1647  0.3612
  957MOL0     H29168   3.594   6.128   8.998 -2.3733  2.5371  1.9946
  957MOL0     H29169   3.659   6.426   9.026  0.0276  0.3174  0.1294
  957MOL0     H29170   3.508   6.351   9.044 -0.5090 -2.6577 -0.9668
  957MOL0     H29171   3.587   6.202   9.235 -1.9687  1.0469  0.3159
  957MOL0     H29172   3.598   6.370   9.266  0.5107  1.3135 -1.4912
  957MOL0     H29173   3.843   6.188   9.219 -2.8395 -3.4000  4.4868
  957MOL0     H29174   3.842   6.360   9.179 -0.1581 -0.8414 -1.0139
  957MOL0     H29175   3.694   6.238   8.070  1.2827  3.1855 -2.1206
  957MOL0     H29176   3.886   6.297   7.924 -0.5045  0.1515 -0.5066
  957MOL0     H29177   4.361   6.054   7.857  0.0126  0.3471 -1.1968
  957MOL0     H29178   4.482   6.086   7.640  1.9901  2.4646 -0.1890
  957MOL0     H29179   5.669   6.579   5.936 -0.2817  0.8514 -3.0102
  957MOL0     H29180   5.639   6.493   5.705  1.8364 -0.4311  0.2564
  957MOL0     H29181   5.465   6.175   5.398  1.9429 -1.4217 -3.6397
  957MOL0     H29182   5.432   6.121   5.173 -2.3176 -0.7686 -1.5632
  957MOL0     H29183   5.096   6.319   5.022  1.0352  1.0319  1.7986
  957MOL0     H29184   5.129   6.233   4.866  0.9960  0.1924  0.3909
  957MOL0     H29185   5.218   6.386   4.751  2.2940 -3.4877  0.9109
  957MOL0     H29186   5.242   6.506   4.889 -0.7621 -1.0571 -0.0892
  957MOL0     H29187   4.987   6.498   4.912  0.3029  0.2576  0.6597
  957MOL0     H29188   4.977   6.422   4.760 -1.6406 -0.0502  0.9055
  957MOL0     H29189   5.041   6.612   4.643 -0.0664 -1.7495  0.8105
  957MOL0     H29190   4.932   6.689   4.762  1.4847  2.8871 -0.8849
  957MOL0     H29191   5.294   6.854   4.857 -0.7730 -0.8534  0.8945
  957MOL0     H29192   5.227   6.492   5.111 -0.9849 -3.0150 -4.0584
  957MOL0     H29193   5.171   6.645   5.300 -1.7449 -0.6249  1.4729
  957MOL0     H29194   5.165   6.572   5.449 -0.8279  1.1785 -0.7021
  957MOL0     H29195   5.317   6.662   5.401 -0.7052  0.9668  0.2748
  958MOL0     O29196   4.899   5.935   0.285  0.2691 -0.8712 -0.2411
  958MOL0     C29197   4.880   6.055   0.323 -0.2017  0.0697  0.5228
  958MOL0     O29198   4.902   6.164   0.239  0.1181  0.7218  0.6143
  958MOL0     C29199   4.955   6.141   0.115 -0.7539 -0.0803 -0.4088
  958MOL0     C29200   4.877   6.118   0.007 -0.0034 -0.3816  0.1894
  958MOL0     C29201   4.934   6.103  -0.115 -0.2949 -0.2783 -0.0387
  958MOL0     C29202   5.077   6.127  -0.148 -0.4945 -0.7182 -0.3309
  958MOL0     O29203   5.128   6.108  -0.279  0.1255  0.0637 -0.6273
  958MOL0     C29204   5.265   6.110  -0.297 -0.1125 -0.2664  0.1147
  958MOL0     C29205   5.307   6.090  -0.443 -0.3939  0.0994  1.3730
  958MOL0     C29206   5.451   6.080  -0.449 -0.8079 -0.5263 -0.2315
  958MOL0     C29207   5.501   6.007  -0.571  0.4669  0.1636 -0.1965
  958MOL0     C29208   5.651   6.007  -0.590  0.4700  0.5295 -0.3560
  958MOL0     C29209   5.699   5.931  -0.697 -0.3651  0.0047  0.1494
  958MOL0     C29210   5.853   5.940  -0.723  0.0515  1.4536 -0.4854
  958MOL0     C29211   5.907   5.876  -0.846  0.0887 -0.3145  0.2925
  958MOL0     N29212   5.934   5.733  -0.829 -0.1729  0.3391  0.6602
  958MOL0     C29213   5.980   5.665  -0.932 -0.5414 -0.1457  0.6585
  958MOL0     C29214   5.928   5.542  -0.911  0.6773 -1.0321  0.4027
  958MOL0     C29215   5.934   5.431  -1.009 -0.2337 -0.7260  0.5285
  958MOL0     C29216   6.075   5.375  -1.026 -0.0521  0.0815  0.0833
  958MOL0     C29217   6.082   5.282  -1.144 -0.4188 -0.5046  0.3691
  958MOL0     C29218   6.229   5.224  -1.161 -0.5210  0.5663  0.1440
  958MOL0     O29219   6.260   5.154  -1.041  0.4681 -0.2377 -0.5718
  958MOL0     C29220   6.381   5.088  -1.033  1.7163  0.8864 -0.0459
  958MOL0     C29221   6.390   5.013  -0.917 -0.7701 -0.0437 -1.2967
  958MOL0     C29222   6.506   4.940  -0.888  0.5526  0.0292 -0.1322
  958MOL0     C29223   6.622   4.939  -0.973 -0.4887  0.0909 -1.4036
  958MOL0     C29224   6.742   4.857  -0.938  0.7738  0.1701 -0.0402
  958MOL0     O29225   6.738   4.784  -0.821  0.7097  0.7583 -0.4906
  958MOL0     C29226   6.837   4.689  -0.792 -1.2861  0.3754  0.0363
  958MOL0     C29227   6.977   4.711  -0.802  0.0326  0.9317  0.1361
  958MOL0     C29228   7.074   4.622  -0.763 -0.6974  0.1666 -0.6229
  958MOL0     C29229   7.033   4.501  -0.722  0.3077 -0.0490  0.9636
  958MOL0     O29230   7.127   4.411  -0.691  0.3677  0.3629  0.0682
  958MOL0     C29231   7.083   4.268  -0.696 -0.7564  0.2057  0.6818
  958MOL0     C29232   7.204   4.187  -0.652  0.6412 -0.6839 -0.0692
  958MOL0     C29233   7.293   4.167  -0.768 -0.4355 -0.3276  0.2235
  958MOL0     C29234   7.415   4.079  -0.727 -0.3065  0.3369  0.2787
  958MOL0     C29235   7.528   4.070  -0.836  0.0852  0.7793  0.3923
  958MOL0     C29236   7.599   4.205  -0.851 -0.0206  0.9577  0.1079
  958MOL0     C29237   7.715   4.190  -0.965  0.2817 -0.2639  0.0306
  958MOL0     C29238   7.825   4.301  -0.962  0.9888  0.3448  0.3684
  958MOL0    Cl29239   7.941   4.254  -1.094  0.3656  0.4396 -0.2916
  958MOL0     C29240   6.897   4.473  -0.718  0.6261 -0.1513 -1.2351
  958MOL0     C29241   6.798   4.566  -0.748  0.2712  0.2814 -0.0213
  958MOL0     O29242   6.835   4.862  -1.017  0.1460  0.0942  0.2412
  958MOL0     C29243   6.620   5.029  -1.085  0.9251 -1.1791  0.9457
  958MOL0     C29244   6.504   5.111  -1.111  0.3936 -0.5355 -0.3545
  958MOL0     N29245   5.863   5.535  -0.788  0.3522 -0.0188  0.3734
  958MOL0     N29246   5.881   5.655  -0.734  0.5304 -0.4972  0.6231
  958MOL0     C29247   5.157   6.167  -0.033 -0.6283 -0.0337  0.9797
  958MOL0     C29248   5.091   6.179   0.092 -1.1929 -0.3182 -0.3365
  958MOL0     C29249   4.827   6.080   0.450  0.2298 -0.2656  0.0654
  958MOL0     C29250   4.885   6.187   0.520 -0.3074  0.6479  0.8216
  958MOL0     C29251   4.843   6.218   0.645  0.0294 -0.2239 -0.1396
  958MOL0     C29252   4.760   6.133   0.716  0.3499 -0.2497 -0.3383
  958MOL0     O29253   4.739   6.175   0.846 -0.1562 -0.5361 -0.9116
  958MOL0     C29254   4.636   6.136   0.931  0.4959  0.5829  0.6011
  958MOL0     C29255   4.631   6.208   1.070  0.0880 -0.4046  0.0268
  958MOL0     C29256   4.585   6.356   1.053  0.1627 -0.6228 -0.5439
  958MOL0     C29257   4.428   6.380   1.084  0.1982  0.6442 -0.1659
  958MOL0     C29258   4.392   6.521   1.116 -0.7799  0.0925 -0.9447
  958MOL0     C29259   4.386   6.642   1.130  0.4079  0.5156 -0.1926
  958MOL0     C29260   4.697   6.025   0.654  0.9337 -0.0890 -0.4422
  958MOL0     C29261   4.727   5.998   0.512 -0.2965  0.0054  0.7455
  958MOL0     C29262   4.667   5.879   0.437  0.0418 -0.3031 -0.3902
  958MOL0     H29263   4.771   6.095   0.005 -0.1202  0.1916 -0.9679
  958MOL0     H29264   4.877   6.052  -0.192  2.1967 -2.2028 -0.7481
  958MOL0     H29265   5.302   6.205  -0.255  1.0218 -1.0219  0.8816
  958MOL0     H29266   5.324   6.035  -0.243  2.1865  1.9706  0.9404
  958MOL0     H29267   5.261   6.170  -0.502 -1.8644 -0.6287  1.4871
  958MOL0     H29268   5.264   5.998  -0.485 -0.0134  1.0161 -1.2189
  958MOL0     H29269   5.487   6.025  -0.361 -3.7236 -0.0322  1.3867
  958MOL0     H29270   5.502   6.176  -0.450 -1.2101 -0.2974  0.5747
  958MOL0     H29271   5.457   5.907  -0.570 -4.6826  2.1193 -0.5823
  958MOL0     H29272   5.455   6.051  -0.660 -1.9301 -1.6101  0.0771
  958MOL0     H29273   5.701   6.104  -0.604 -0.9534  1.1980 -0.9692
  958MOL0     H29274   5.677   5.950  -0.500 -0.8770 -1.5339 -1.2133
  958MOL0     H29275   5.671   5.825  -0.701 -1.9741  0.4285 -2.8664
  958MOL0     H29276   5.649   5.984  -0.779  0.5538  1.3769  0.4273
  958MOL0     H29277   5.911   5.907  -0.637 -4.3669 -0.2342  2.2332
  958MOL0     H29278   5.874   6.044  -0.751 -1.6731  1.2525 -2.8895
  958MOL0     H29279   5.828   5.885  -0.921 -0.2490  0.9293  0.7705
  958MOL0     H29280   5.999   5.923  -0.881  1.8681 -0.5689  4.0936
  958MOL0     H29281   6.026   5.707  -1.021 -0.6739  0.5522  0.9144
  958MOL0     H29282   5.869   5.350  -0.975 -0.4048 -0.2566  1.3355
  958MOL0     H29283   5.907   5.471  -1.107  0.2935 -0.4843  0.4773
  958MOL0     H29284   6.140   5.462  -1.041 -2.0208  1.7340  0.6303
  958MOL0     H29285   6.107   5.326  -0.933  1.5034  0.1383 -0.4015
  958MOL0     H29286   6.062   5.352  -1.226 -0.1087  1.4073  1.8569
  958MOL0     H29287   6.005   5.207  -1.130 -0.8573 -0.0979  0.1627
  958MOL0     H29288   6.299   5.307  -1.174  0.9083 -0.4564  1.0808
  958MOL0     H29289   6.229   5.158  -1.248  2.0341 -1.6463  1.6819
  958MOL0     H29290   6.305   4.995  -0.852 -1.1951  0.5852 -1.6640
  958MOL0     H29291   6.492   4.884  -0.796 -2.0944  0.7116 -0.0510
  958MOL0     H29292   7.004   4.807  -0.846 -0.0085 -0.2133 -2.5989
  958MOL0     H29293   7.180   4.647  -0.769 -0.9670  0.9621 -3.0917
  958MOL0     H29294   6.996   4.248  -0.633 -1.6124  0.9004 -0.2392
  958MOL0     H29295   7.058   4.240  -0.798  4.2761  3.8699 -2.0471
  958MOL0     H29296   7.248   4.233  -0.563 -3.1124 -0.8475  2.0660
  958MOL0     H29297   7.155   4.099  -0.610 -1.6540  0.5900  0.0984
  958MOL0     H29298   7.243   4.112  -0.849 -2.9462  1.9445  0.0809
  958MOL0     H29299   7.316   4.271  -0.795 -0.8958  0.1128  1.4736
  958MOL0     H29300   7.377   3.980  -0.699  4.4207 -0.8021  3.8811
  958MOL0     H29301   7.462   4.103  -0.632  1.1614 -2.7925  0.4703
  958MOL0     H29302   7.477   4.043  -0.930  2.1047  1.2547 -0.8944
  958MOL0     H29303   7.590   3.985  -0.807 -2.0330 -1.1952 -0.4600
  958MOL0     H29304   7.530   4.288  -0.869 -1.2381 -0.1537 -0.6532
  958MOL0     H29305   7.660   4.217  -0.762  4.0798  1.7848 -2.5733
  958MOL0     H29306   7.662   4.188  -1.061 -0.4813  0.0109  0.4417
  958MOL0     H29307   7.767   4.095  -0.951 -0.1139 -0.9206 -2.4513
  958MOL0     H29308   7.783   4.400  -0.982 -3.6204 -0.7880  2.8559
  958MOL0     H29309   7.870   4.296  -0.862  0.4072 -0.6120  0.5984
  958MOL0     H29310   6.860   4.379  -0.679  1.3730  0.0138 -0.0703
  958MOL0     H29311   6.690   4.557  -0.742  0.2537  0.7304  0.3940
  958MOL0     H29312   6.700   5.041  -1.157 -0.2692  2.3469 -0.0098
  958MOL0     H29313   6.509   5.167  -1.204 -2.5014 -0.7591 -0.7073
  958MOL0     H29314   5.260   6.195  -0.052 -0.8738  0.4412  0.2964
  958MOL0     H29315   5.162   6.203   0.171  0.9963  1.5022 -2.6848
  958MOL0     H29316   4.956   6.249   0.467 -0.9654 -0.2924 -1.2693
  958MOL0     H29317   4.882   6.303   0.700  1.4886 -1.3570  0.6475
  958MOL0     H29318   4.627   6.027   0.941  1.6089  0.4064 -0.1983
  958MOL0     H29319   4.538   6.168   0.894  0.2170 -1.0409 -0.1554
  958MOL0     H29320   4.730   6.199   1.116 -0.9111  0.0651  2.4115
  958MOL0     H29321   4.570   6.153   1.143 -0.7554 -0.3703 -0.6342
  958MOL0     H29322   4.600   6.392   0.951 -0.0682 -0.3933 -0.4987
  958MOL0     H29323   4.633   6.426   1.123 -1.2131 -0.3968  0.2189
  958MOL0     H29324   4.375   6.337   0.998  3.4859 -0.5047 -1.8080
  958MOL0     H29325   4.392   6.316   1.165 -0.4274 -0.4586 -1.2774
  958MOL0     H29326   4.392   6.749   1.136 -2.4496  0.7107  0.4997
  958MOL0     H29327   4.626   5.975   0.718  3.4415 -0.6344  2.1055
  958MOL0     H29328   4.621   5.899   0.339  0.1581 -0.6185 -0.5091
  958MOL0     H29329   4.741   5.799   0.428  0.1366 -0.1916 -0.6007
  958MOL0     H29330   4.592   5.845   0.510  0.6031  1.4089  1.0610
  959MOL0     O29331   2.939   3.830   8.070 -0.0809  0.1692 -0.8707
  959MOL0     C29332   2.964   3.726   8.137 -0.6097 -0.7572 -0.5866
  959MOL0     O29333   3.052   3.627   8.097 -0.1775  0.3104  0.3477
  959MOL0     C29334   3.073   3.616   7.959  0.4201  0.0139  0.3499
  959MOL0     C29335   2.973   3.628   7.858 -0.3780  0.4850 -0.2641
  959MOL0     C29336   3.006   3.623   7.721  0.1075  0.9153  0.1253
  959MOL0     C29337   3.140   3.608   7.674  0.2164 -0.0169 -0.8307
  959MOL0     O29338   3.161   3.612   7.545 -0.1268  0.4963  0.3101
  959MOL0     C29339   3.289   3.569   7.494  0.4840  0.0641 -1.4181
  959MOL0     C29340   3.277   3.425   7.433 -0.1391  0.2548 -0.1688
  959MOL0     C29341   3.406   3.379   7.368  0.2753  0.0293 -0.4026
  959MOL0     C29342   3.433   3.222   7.377  0.8762 -0.6718  0.1144
  959MOL0     C29343   3.314   3.138   7.344  0.2236 -0.1249  0.7448
  959MOL0     C29344   3.340   2.995   7.310  0.0802 -0.0667  0.3168
  959MOL0     C29345   3.446   2.930   7.395  0.6584  0.3115  0.6076
  959MOL0     C29346   3.391   2.902   7.539 -0.2606 -0.0168 -1.0076
  959MOL0     N29347   3.475   2.821   7.626  0.4121 -0.4092 -0.4582
  959MOL0     C29348   3.447   2.731   7.723 -0.2580  0.0521 -0.4710
  959MOL0     C29349   3.572   2.679   7.756 -0.0257 -0.1284  0.0064
  959MOL0     C29350   3.600   2.566   7.852  1.1950 -0.7748  0.8546
  959MOL0     C29351   3.485   2.494   7.911 -0.4622 -0.4513 -0.2510
  959MOL0     C29352   3.399   2.418   7.800  0.1113 -0.3330  0.2877
  959MOL0     C29353   3.465   2.298   7.733  0.4380  0.7418  0.4316
  959MOL0     O29354   3.467   2.172   7.817  0.3801 -0.0665  0.0797
  959MOL0     C29355   3.372   2.072   7.811  0.7202  0.0710 -1.1599
  959MOL0     C29356   3.337   2.011   7.938  0.4225 -0.8288  0.9399
  959MOL0     C29357   3.245   1.903   7.949 -0.3211 -0.5184 -0.0261
  959MOL0     C29358   3.192   1.859   7.825 -0.0805 -0.2811  0.5781
  959MOL0     C29359   3.084   1.766   7.824  0.6484  0.5415  0.7359
  959MOL0     O29360   3.080   1.679   7.710  0.2780  0.4384 -0.3295
  959MOL0     C29361   2.984   1.597   7.721 -0.6880  0.0675  0.3856
  959MOL0     C29362   2.877   1.616   7.640 -0.6295 -0.7519 -1.1466
  959MOL0     C29363   2.768   1.542   7.661  0.1519 -0.1184 -0.0421
  959MOL0     C29364   2.758   1.446   7.758  0.6455 -0.4300  0.1376
  959MOL0     O29365   2.633   1.386   7.755 -0.9351 -0.9043  0.3787
  959MOL0     C29366   2.642   1.243   7.776  0.4430  0.3436  0.1795
  959MOL0     C29367   2.501   1.176   7.746  0.3631 -0.6389  0.2003
  959MOL0     C29368   2.392   1.245   7.831  0.0412  1.0085 -0.0160
  959MOL0     C29369   2.408   1.233   7.978 -0.3888 -0.3460 -0.4047
  959MOL0     C29370   2.266   1.248   8.054 -0.2417 -0.7118  0.5836
  959MOL0     C29371   2.298   1.237   8.199 -0.6624  0.6041 -0.3747
  959MOL0     C29372   2.168   1.222   8.275  0.2178  0.2976  0.1443
  959MOL0     C29373   2.174   1.232   8.429  0.4088  0.5956  0.3055
  959MOL0    Cl29374   2.257   1.085   8.503  0.0156 -0.4487  0.2700
  959MOL0     C29375   2.869   1.418   7.842 -0.7666  1.2634 -0.3265
  959MOL0     C29376   2.989   1.497   7.817 -0.5349  0.6292 -1.3204
  959MOL0     O29377   3.006   1.759   7.921  0.0707 -0.2969  0.2172
  959MOL0     C29378   3.215   1.931   7.699  0.2042  0.3095 -0.8632
  959MOL0     C29379   3.309   2.030   7.702  0.0076 -0.6805  0.2122
  959MOL0     N29380   3.674   2.725   7.677  0.6704 -0.2909 -0.0253
  959MOL0     N29381   3.611   2.820   7.613 -0.1123  0.1626 -0.4976
  959MOL0     C29382   3.231   3.594   7.780  0.3782 -0.7492 -0.3800
  959MOL0     C29383   3.208   3.602   7.919 -0.2744  0.0746  1.1313
  959MOL0     C29384   2.858   3.718   8.249  0.1032 -0.0395 -0.4102
  959MOL0     C29385   2.813   3.583   8.289  0.6608 -0.1159 -0.0021
  959MOL0     C29386   2.694   3.580   8.361 -1.0824  1.1068  0.0430
  959MOL0     C29387   2.631   3.693   8.413  0.1314 -0.8116 -0.9907
  959MOL0     O29388   2.532   3.676   8.510  0.2840 -0.1144 -0.3898
  959MOL0     C29389   2.405   3.736   8.497 -0.1805 -0.3155 -0.1692
  959MOL0     C29390   2.364   3.782   8.644  1.2971 -0.2677  1.0038
  959MOL0     C29391   2.358   3.662   8.741 -0.4933 -0.5232 -0.6817
  959MOL0     C29392   2.218   3.607   8.745  0.1142 -0.7193 -0.4304
  959MOL0     C29393   2.115   3.693   8.812  0.3554 -0.5509 -0.0197
  959MOL0     C29394   2.031   3.766   8.857 -0.5118  0.4731 -0.1923
  959MOL0     C29395   2.691   3.818   8.405  0.5814 -1.1282  0.4504
  959MOL0     C29396   2.793   3.839   8.312  0.8292  1.0979  0.1086
  959MOL0     C29397   2.836   3.981   8.293 -0.2909  0.3104 -0.0510
  959MOL0     H29398   2.873   3.644   7.899 -1.1120 -2.8894 -0.4064
  959MOL0     H29399   2.921   3.634   7.654 -2.5373 -1.4657  2.7824
  959MOL0     H29400   3.308   3.647   7.419 -1.2817 -0.4476 -2.4740
  959MOL0     H29401   3.359   3.572   7.577  1.1482  2.1191 -1.9869
  959MOL0     H29402   3.198   3.426   7.358 -2.5152  4.5221  1.9883
  959MOL0     H29403   3.249   3.364   7.519 -0.5851 -1.8748 -1.7642
  959MOL0     H29404   3.486   3.433   7.419 -1.1099  3.2912 -1.4398
  959MOL0     H29405   3.405   3.424   7.268 -4.0089  3.0408  0.7116
  959MOL0     H29406   3.503   3.193   7.298  1.3207 -1.3170  0.7414
  959MOL0     H29407   3.476   3.193   7.473  0.4297  0.6929  0.7561
  959MOL0     H29408   3.245   3.139   7.429 -0.7872 -0.2831 -0.0507
  959MOL0     H29409   3.256   3.191   7.268 -2.5907 -1.2598  1.9466
  959MOL0     H29410   3.246   2.941   7.322 -0.3265  0.3523 -0.8503
  959MOL0     H29411   3.383   2.996   7.209  2.3483 -0.0076  1.2215
  959MOL0     H29412   3.542   2.983   7.402  0.7942  0.1140  0.2754
  959MOL0     H29413   3.462   2.833   7.347  0.4475  0.6889 -0.2384
  959MOL0     H29414   3.378   3.001   7.583 -0.5215 -0.9238  1.1242
  959MOL0     H29415   3.297   2.847   7.533 -1.8075  2.5935 -1.7258
  959MOL0     H29416   3.349   2.698   7.757  0.1635 -0.4222  0.3199
  959MOL0     H29417   3.671   2.494   7.810 -1.7626 -1.8216 -2.8795
  959MOL0     H29418   3.645   2.612   7.940  2.6512  0.8725 -0.6516
  959MOL0     H29419   3.525   2.427   7.988  2.6817  2.4573  0.9280
  959MOL0     H29420   3.420   2.565   7.964 -0.9736 -0.4662 -0.8584
  959MOL0     H29421   3.358   2.492   7.730  1.3324  0.1739  0.0825
  959MOL0     H29422   3.321   2.376   7.864  1.0711 -3.2301 -0.3163
  959MOL0     H29423   3.562   2.341   7.704  0.2184 -0.3323 -2.1297
  959MOL0     H29424   3.426   2.273   7.634 -1.8199  4.2381  0.2646
  959MOL0     H29425   3.403   2.036   8.020 -0.3351 -1.0286  1.6174
  959MOL0     H29426   3.213   1.862   8.045 -0.6129 -0.7138 -0.2071
  959MOL0     H29427   2.871   1.693   7.563 -0.5084  1.2763  0.7737
  959MOL0     H29428   2.684   1.560   7.595 -0.3608 -3.6638 -0.5770
  959MOL0     H29429   2.721   1.197   7.715  0.5073  1.5901 -0.7266
  959MOL0     H29430   2.666   1.222   7.880  0.7101 -0.1196  0.0274
  959MOL0     H29431   2.468   1.182   7.642 -0.9471 -2.1420  0.5015
  959MOL0     H29432   2.490   1.070   7.769 -4.7168 -0.3613  0.1542
  959MOL0     H29433   2.387   1.350   7.801 -0.0755  1.6689  2.1137
  959MOL0     H29434   2.302   1.191   7.803  2.3466 -3.6224  0.6124
  959MOL0     H29435   2.487   1.299   8.014 -1.1035  0.7319 -0.7557
  959MOL0     H29436   2.437   1.128   7.992  2.2008  0.3295 -0.1531
  959MOL0     H29437   2.204   1.161   8.030 -0.7531 -0.4653  0.9948
  959MOL0     H29438   2.222   1.344   8.024  0.8665 -0.9766 -2.1726
  959MOL0     H29439   2.363   1.153   8.224 -0.6535  0.9648  0.8991
  959MOL0     H29440   2.358   1.326   8.224  1.9633 -0.1562 -3.3390
  959MOL0     H29441   2.114   1.129   8.256 -1.5248  1.1379  0.7252
  959MOL0     H29442   2.093   1.295   8.243 -0.5017 -1.1247 -1.5833
  959MOL0     H29443   2.228   1.324   8.457  3.0832 -1.1268  1.1528
  959MOL0     H29444   2.075   1.251   8.471  0.0832  3.3204 -1.4067
  959MOL0     H29445   2.864   1.348   7.925 -1.3147  1.6410 -0.0363
  959MOL0     H29446   3.082   1.473   7.869 -2.0845 -0.7838  1.0197
  959MOL0     H29447   3.158   1.889   7.616  0.2650  0.9560 -1.2410
  959MOL0     H29448   3.328   2.079   7.606 -0.9495  0.0839  0.3955
  959MOL0     H29449   3.337   3.585   7.762  0.0225 -4.7440 -1.4841
  959MOL0     H29450   3.292   3.607   7.987  0.3155 -0.4613  0.4700
  959MOL0     H29451   2.852   3.491   8.247  4.8881  0.8843  1.2228
  959MOL0     H29452   2.648   3.486   8.390  0.8185 -0.0250 -0.4254
  959MOL0     H29453   2.337   3.662   8.454  4.1243 -3.0467 -3.0846
  959MOL0     H29454   2.408   3.822   8.429  3.9374 -0.2446 -0.1388
  959MOL0     H29455   2.272   3.841   8.640  0.6788 -1.1438  1.9570
  959MOL0     H29456   2.439   3.854   8.678  0.9881 -0.3474  1.8745
  959MOL0     H29457   2.368   3.697   8.844 -1.6352  1.3915 -1.1763
  959MOL0     H29458   2.432   3.587   8.713  0.2522 -0.0846  0.0631
  959MOL0     H29459   2.182   3.600   8.642 -1.0149 -2.8171  0.0402
  959MOL0     H29460   2.211   3.508   8.791  3.0012  0.4451  2.9444
  959MOL0     H29461   1.956   3.839   8.883  2.8598  3.6220  1.5335
  959MOL0     H29462   2.632   3.895   8.455  0.0478 -0.2000 -1.5065
  959MOL0     H29463   2.818   4.036   8.385 -0.4122 -3.0213  2.0934
  959MOL0     H29464   2.943   3.984   8.270 -0.0637  2.9445  1.0232
  959MOL0     H29465   2.778   4.022   8.210 -2.0536  0.4381  1.1940
  960MOL0     O29466   2.373   9.618   6.434  0.8757 -0.3976 -0.2503
  960MOL0     C29467   2.312   9.656   6.339  1.1587  0.0082 -0.5053
  960MOL0     O29468   2.376   9.732   6.239  1.3030 -0.3532 -0.1536
  960MOL0     C29469   2.491   9.796   6.260  1.2849 -0.8881 -0.4806
  960MOL0     C29470   2.501   9.876   6.379 -0.0412  0.6321 -0.4522
  960MOL0     C29471   2.634   9.928   6.401 -1.1403 -0.1786 -0.0587
  960MOL0     C29472   2.734   9.926   6.307 -0.8229 -0.1961  0.1165
  960MOL0     O29473   2.852   9.994   6.332  0.6080  0.8819  0.7579
  960MOL0     C29474   2.858  10.130   6.359 -0.3586 -0.0034 -0.6983
  960MOL0     C29475   2.797  10.207   6.241 -0.0344  0.1569 -0.3394
  960MOL0     C29476   2.773  10.356   6.262 -0.2061 -0.2969 -0.2858
  960MOL0     C29477   2.827  10.453   6.153 -0.3137  0.9336  0.4199
  960MOL0     C29478   2.749  10.589   6.162  0.5195  0.0365 -0.0604
  960MOL0     C29479   2.792  10.696   6.069  0.0607  0.1240 -0.1861
  960MOL0     C29480   2.698  10.697   5.948  0.5475  0.4083 -0.3883
  960MOL0     C29481   2.721  10.817   5.853 -0.5472  0.3972 -0.8153
  960MOL0     N29482   2.859  10.859   5.812  1.4086  0.0735 -0.6714
  960MOL0     C29483   2.932  10.937   5.897 -0.3305 -0.4537  0.4366
  960MOL0     C29484   3.044  10.961   5.827  0.3717 -0.4043  0.1634
  960MOL0     C29485   3.160  11.036   5.888 -0.5155  0.6805 -0.0787
  960MOL0     C29486   3.304  10.992   5.847 -0.6873 -0.1110 -0.5362
  960MOL0     C29487   3.407  11.084   5.920 -0.1917  0.0487 -0.4451
  960MOL0     C29488   3.510  11.133   5.829 -0.0561 -0.0012  0.0481
  960MOL0     O29489   3.638  11.082   5.854 -0.1162 -0.1735  0.1988
  960MOL0     C29490   3.740  11.122   5.785  0.0825  0.1029  0.6433
  960MOL0     C29491   3.873  11.083   5.815  0.6269  0.3215 -0.1814
  960MOL0     C29492   3.986  11.132   5.743  0.5831 -0.5928  0.2295
  960MOL0     C29493   3.966  11.202   5.623  1.0961  0.1048  0.5941
  960MOL0     C29494   4.070  11.250   5.530  0.5323 -0.5416 -0.4129
  960MOL0     O29495   4.194  11.210   5.571 -0.0245 -0.6823 -1.3713
  960MOL0     C29496   4.304  11.257   5.510  0.0593 -0.6980 -1.7068
  960MOL0     C29497   4.388  11.169   5.446  0.2383  0.7465  0.3522
  960MOL0     C29498   4.499  11.220   5.380 -0.2534  0.5993 -0.2029
  960MOL0     C29499   4.537  11.359   5.386  1.1308  0.8477 -0.5829
  960MOL0     O29500   4.644  11.404   5.318 -0.2510 -0.4845 -0.0580
  960MOL0     C29501   4.682  11.350   5.195 -0.6660 -0.3559 -0.2946
  960MOL0     C29502   4.777  11.443   5.115  0.4293  1.3057  0.3073
  960MOL0     C29503   4.705  11.564   5.056 -0.6104 -0.7224  0.9206
  960MOL0     C29504   4.821  11.659   5.013 -0.3977 -0.1914  0.3930
  960MOL0     C29505   4.746  11.783   4.962 -0.3953  0.0058  0.3750
  960MOL0     C29506   4.841  11.895   4.921 -0.4421 -0.0824 -0.0389
  960MOL0     C29507   4.784  12.030   4.876  0.3683 -0.4800 -0.2814
  960MOL0     C29508   4.701  12.021   4.748 -0.4491 -1.1257  0.1364
  960MOL0    Cl29509   4.730  12.161   4.644  0.1440  0.1047 -0.6828
  960MOL0     C29510   4.459  11.435   5.462  0.6351 -0.8422  0.7745
  960MOL0     C29511   4.340  11.394   5.518 -0.1532  0.0687 -1.0386
  960MOL0     O29512   4.043  11.333   5.442 -0.8416  0.4559 -0.1276
  960MOL0     C29513   3.835  11.214   5.576 -0.8405  0.2061 -0.0856
  960MOL0     C29514   3.729  11.178   5.657  0.6256 -0.0468  0.1681
  960MOL0     N29515   3.020  10.919   5.700  0.3106  0.8186 -0.2020
  960MOL0     N29516   2.906  10.857   5.687 -0.3265  0.9682 -0.2229
  960MOL0     C29517   2.724   9.841   6.204  0.0875 -0.1563  0.2421
  960MOL0     C29518   2.604   9.769   6.179  1.2895  0.7939  0.1401
  960MOL0     C29519   2.179   9.604   6.328 -0.1439 -0.6532  0.2164
  960MOL0     C29520   2.146   9.484   6.390 -0.0245  0.3310  0.7129
  960MOL0     C29521   2.013   9.443   6.394  0.0388  0.3875 -0.0164
  960MOL0     C29522   1.918   9.514   6.330  1.2947 -0.3593 -0.0623
  960MOL0     O29523   1.795   9.467   6.338 -0.2696 -0.0966  0.8464
  960MOL0     C29524   1.793   9.347   6.252  0.3282  0.2129 -0.2092
  960MOL0     C29525   1.729   9.226   6.322 -0.1901 -0.7241  0.9561
  960MOL0     C29526   1.659   9.135   6.214 -0.7718  0.9272  0.2697
  960MOL0     C29527   1.737   9.119   6.086 -0.1883  0.5197  0.6466
  960MOL0     C29528   1.869   9.055   6.105  0.4595 -0.3454  0.4732
  960MOL0     C29529   1.985   9.011   6.120  0.0937  0.5657 -0.8137
  960MOL0     C29530   1.946   9.641   6.275  0.9339 -1.0068 -0.9430
  960MOL0     C29531   2.080   9.690   6.271 -0.3280  0.5940 -0.2713
  960MOL0     C29532   2.089   9.843   6.239 -0.6010  0.1067  0.7142
  960MOL0     H29533   2.420   9.887   6.450  1.6476  2.9091  1.2690
  960MOL0     H29534   2.649   9.984   6.493 -0.9158 -0.5162  0.1097
  960MOL0     H29535   2.815  10.167   6.452  0.7490  2.8873 -1.2405
  960MOL0     H29536   2.966  10.148   6.358 -0.2853 -0.4358 -0.9899
  960MOL0     H29537   2.706  10.154   6.212 -0.7590  1.9045 -1.3943
  960MOL0     H29538   2.854  10.201   6.148  1.2293  2.1940  0.2594
  960MOL0     H29539   2.811  10.385   6.360  1.2271  0.7101 -1.1083
  960MOL0     H29540   2.667  10.379   6.247 -0.1294  0.3829  0.1925
  960MOL0     H29541   2.932  10.469   6.179 -0.3617  1.7270  0.1429
  960MOL0     H29542   2.817  10.406   6.054 -0.6433 -1.6590  1.5869
  960MOL0     H29543   2.641  10.582   6.149  0.3931  0.6589  0.6103
  960MOL0     H29544   2.761  10.625   6.264 -0.0455  0.6868 -0.2201
  960MOL0     H29545   2.785  10.792   6.122  2.4635  1.0319 -1.3790
  960MOL0     H29546   2.894  10.680   6.034  0.0916  0.1160 -0.0916
  960MOL0     H29547   2.598  10.699   5.991  0.2864  0.5447 -0.9862
  960MOL0     H29548   2.712  10.608   5.885  3.1388 -0.2034  0.9160
  960MOL0     H29549   2.659  10.790   5.767 -2.6950 -0.4620  0.9232
  960MOL0     H29550   2.672  10.900   5.904 -0.0316 -0.8820  1.9339
  960MOL0     H29551   2.915  10.978   5.996 -1.0238 -0.8652  0.5033
  960MOL0     H29552   3.136  11.140   5.868 -1.0761  0.5344 -0.1944
  960MOL0     H29553   3.161  11.028   5.997 -0.3829 -0.7783 -0.1632
  960MOL0     H29554   3.327  10.891   5.885  0.4589  0.9227  1.7006
  960MOL0     H29555   3.306  10.987   5.738  1.4415 -2.0458 -0.4954
  960MOL0     H29556   3.445  11.033   6.009 -2.1829  0.4042  0.6722
  960MOL0     H29557   3.366  11.180   5.951  0.2810 -0.2135  1.0517
  960MOL0     H29558   3.534  11.239   5.834  0.3460 -0.1468  3.1059
  960MOL0     H29559   3.477  11.110   5.727 -1.3464  0.1977  0.4048
  960MOL0     H29560   3.880  11.019   5.902  0.6035  4.4017  3.1869
  960MOL0     H29561   4.087  11.102   5.770  2.0198  5.5855  3.4042
  960MOL0     H29562   4.363  11.063   5.439 -0.4524  0.9539 -0.4964
  960MOL0     H29563   4.561  11.155   5.319  3.4965  1.0614  2.7235
  960MOL0     H29564   4.725  11.251   5.207  0.8409  0.2310 -0.6768
  960MOL0     H29565   4.595  11.339   5.130 -0.2145 -1.4235 -0.7394
  960MOL0     H29566   4.856  11.460   5.188  2.0788 -1.0073 -0.8263
  960MOL0     H29567   4.828  11.380   5.042  0.3452  0.5308  0.8923
  960MOL0     H29568   4.647  11.533   4.968  0.0504 -0.6733  0.4622
  960MOL0     H29569   4.639  11.615   5.127 -0.8798  1.0196 -0.5018
  960MOL0     H29570   4.882  11.610   4.936  1.9982  1.3514  1.1918
  960MOL0     H29571   4.883  11.683   5.099  1.1972 -1.3733 -0.3714
  960MOL0     H29572   4.663  11.820   5.023 -0.9631 -1.7515  0.7370
  960MOL0     H29573   4.692  11.740   4.876  0.4794 -2.2875  0.9009
  960MOL0     H29574   4.905  11.915   5.007 -1.4282 -1.7816  1.1652
  960MOL0     H29575   4.898  11.842   4.844  1.6927  1.5469  0.3458
  960MOL0     H29576   4.872  12.093   4.859 -0.1178  0.0671 -0.8625
  960MOL0     H29577   4.717  12.069   4.954  2.1353  1.9316  0.1500
  960MOL0     H29578   4.724  11.928   4.696  0.9827  0.2017 -1.7387
  960MOL0     H29579   4.595  12.019   4.776 -0.9329 -5.3281 -1.3976
  960MOL0     H29580   4.483  11.538   5.485  2.4056  0.2386 -4.5152
  960MOL0     H29581   4.280  11.462   5.576 -2.5289 -3.0984  0.5040
  960MOL0     H29582   3.807  11.262   5.483 -0.9408 -0.5305 -0.4399
  960MOL0     H29583   3.629  11.201   5.620  0.4050  2.4356  1.9958
  960MOL0     H29584   2.818   9.833   6.149  0.5241  0.2710  0.9053
  960MOL0     H29585   2.579   9.697   6.102 -0.6353 -0.6629  2.0219
  960MOL0     H29586   2.212   9.410   6.433 -1.0876 -1.0136  0.1389
  960MOL0     H29587   1.994   9.352   6.451  0.7184  0.4080  0.2520
  960MOL0     H29588   1.889   9.313   6.213 -0.5267 -1.4345 -0.9707
  960MOL0     H29589   1.736   9.377   6.163 -0.5928 -1.7241 -0.3168
  960MOL0     H29590   1.646   9.268   6.380  0.5462  1.5544  0.4685
  960MOL0     H29591   1.802   9.187   6.394  0.6668  1.5421  1.4254
  960MOL0     H29592   1.555   9.169   6.202 -1.3012  0.6035  3.2137
  960MOL0     H29593   1.637   9.049   6.277 -2.3332  3.0486  2.8173
  960MOL0     H29594   1.677   9.057   6.020  0.2756  1.9913 -1.2357
  960MOL0     H29595   1.757   9.204   6.020  1.6700 -0.4529 -0.1141
  960MOL0     H29596   2.087   8.982   6.131 -1.0312 -3.8454 -0.3289
  960MOL0     H29597   1.858   9.703   6.262  1.3081 -0.9079 -3.5042
  960MOL0     H29598   2.191   9.883   6.247 -0.4142 -0.0736 -0.5643
  960MOL0     H29599   2.076   9.851   6.131 -0.9283  0.9882  0.8056
  960MOL0     H29600   2.018   9.907   6.293  1.5635  4.8783 -1.5257
  961MOL0     O29601   5.660   6.030  10.445 -0.1248  0.4083 -0.5468
  961MOL0     C29602   5.542   6.002  10.457  0.7454 -0.5548  0.4924
  961MOL0     O29603   5.450   6.084  10.523  0.0348 -0.5012 -0.9756
  961MOL0     C29604   5.485   6.195  10.599 -0.1604  0.2994  0.7753
  961MOL0     C29605   5.606   6.277  10.586 -0.5441  0.0218 -0.4857
  961MOL0     C29606   5.617   6.381  10.668 -0.6700 -0.3884  0.3822
  961MOL0     C29607   5.523   6.417  10.761  0.1038  0.0391  0.6773
  961MOL0     O29608   5.551   6.511  10.847  0.3171 -0.3780  0.0128
  961MOL0     C29609   5.485   6.642  10.843 -0.4298 -0.0178 -0.0144
  961MOL0     C29610   5.589   6.761  10.826 -1.2466  0.3494  0.3523
  961MOL0     C29611   5.674   6.778  10.960  0.0260  0.1405  0.3527
  961MOL0     C29612   5.767   6.887  10.939 -0.5432 -0.1663  1.1661
  961MOL0     C29613   5.862   6.909  11.058  0.5840 -0.6082 -0.4204
  961MOL0     C29614   5.966   6.813  11.083  0.0434 -0.1131 -0.0159
  961MOL0     C29615   6.016   6.822  11.229 -0.0933 -0.8133 -0.2288
  961MOL0     C29616   6.168   6.771  11.235 -0.2934  0.3239 -0.0617
  961MOL0     N29617   6.207   6.729  11.363 -0.5420  0.0272 -0.3929
  961MOL0     C29618   6.142   6.648  11.443  0.0350 -0.5347 -0.0540
  961MOL0     C29619   6.200   6.653  11.563 -0.3412  0.1539 -0.3763
  961MOL0     C29620   6.173   6.569  11.687  0.1084  0.2485 -0.7955
  961MOL0     C29621   6.029   6.594  11.738 -0.0020  0.3362  0.1499
  961MOL0     C29622   6.014   6.736  11.806 -1.1296 -0.5564  0.2110
  961MOL0     C29623   5.875   6.746  11.868  0.2709 -0.6226  0.5234
  961MOL0     O29624   5.843   6.635  11.950  0.2100 -0.0651 -0.7276
  961MOL0     C29625   5.732   6.622  12.032 -0.2397 -0.0425 -0.1185
  961MOL0     C29626   5.633   6.718  12.044 -0.0559  0.4893 -0.3690
  961MOL0     C29627   5.513   6.696  12.104 -0.0914  0.7677 -0.5002
  961MOL0     C29628   5.491   6.566  12.169 -0.2296  0.3848  0.6622
  961MOL0     C29629   5.360   6.525  12.236  0.5005  0.2529  0.4383
  961MOL0     O29630   5.279   6.634  12.253  0.0703  0.1522 -0.5923
  961MOL0     C29631   5.142   6.631  12.305 -0.0945  0.3260 -0.9460
  961MOL0     C29632   5.074   6.746  12.307 -0.7185 -0.0127 -0.6456
  961MOL0     C29633   4.967   6.767  12.394  0.2868  0.5376  0.4948
  961MOL0     C29634   4.903   6.662  12.453 -1.0515  0.3826  1.2197
  961MOL0     O29635   4.783   6.675  12.517  0.4213  0.9887  0.6827
  961MOL0     C29636   4.693   6.791  12.513 -0.0357 -0.6434  0.0612
  961MOL0     C29637   4.619   6.804  12.376  0.5993 -0.8350  0.4801
  961MOL0     C29638   4.533   6.681  12.351 -0.6868  0.0199 -0.0323
  961MOL0     C29639   4.549   6.628  12.200 -0.6811 -0.3950 -0.4956
  961MOL0     C29640   4.422   6.550  12.163  0.3233 -0.9565  0.0014
  961MOL0     C29641   4.412   6.413  12.237  1.2362 -0.5391 -0.1877
  961MOL0     C29642   4.294   6.338  12.175 -0.3351  0.4619 -0.7435
  961MOL0     C29643   4.276   6.213  12.267 -0.5374  0.8975 -0.7577
  961MOL0    Cl29644   4.157   6.103  12.188 -0.3442  0.0016 -0.2067
  961MOL0     C29645   4.965   6.538  12.452 -0.4919  0.8841 -1.2586
  961MOL0     C29646   5.086   6.520  12.381  1.1965  0.6342  0.0792
  961MOL0     O29647   5.337   6.409  12.265  0.0896  0.0807 -0.0517
  961MOL0     C29648   5.593   6.468  12.164  0.6086  1.1745  0.2543
  961MOL0     C29649   5.707   6.501  12.086  0.3293 -0.1698 -0.6299
  961MOL0     N29650   6.315   6.728  11.553  0.0943 -0.2834 -1.3697
  961MOL0     N29651   6.326   6.770  11.430  0.2576 -0.5897 -0.0226
  961MOL0     C29652   5.415   6.343  10.776  0.3839 -0.0999  0.4476
  961MOL0     C29653   5.383   6.233  10.688  0.2771  0.4286 -0.4534
  961MOL0     C29654   5.485   5.893  10.374 -0.2205  0.6231 -0.4897
  961MOL0     C29655   5.341   5.886  10.356 -0.6573 -0.3378 -0.1932
  961MOL0     C29656   5.279   5.798  10.270  1.2551  0.5386 -0.4412
  961MOL0     C29657   5.354   5.711  10.196  1.1594  0.1109 -0.1197
  961MOL0     O29658   5.288   5.627  10.123  0.7553 -0.5893 -0.3097
  961MOL0     C29659   5.246   5.674   9.991  0.1690  0.0704 -0.2337
  961MOL0     C29660   5.099   5.687   9.986  1.4382  0.0601 -0.5290
  961MOL0     C29661   5.030   5.553   9.959  0.0808  0.1755  0.5835
  961MOL0     C29662   4.881   5.558   9.969  0.1835  0.3933  0.2591
  961MOL0     C29663   4.831   5.615   9.855  0.7130  0.3684 -0.3444
  961MOL0     C29664   4.783   5.642   9.748  0.0053 -0.4875 -0.2736
  961MOL0     C29665   5.492   5.709  10.200 -0.1984 -0.8418  0.0480
  961MOL0     C29666   5.560   5.803  10.291 -0.4571  0.5188  0.9550
  961MOL0     C29667   5.712   5.805  10.294  0.0507 -0.4707 -0.1030
  961MOL0     H29668   5.679   6.269  10.506  2.3633  0.6908  1.9015
  961MOL0     H29669   5.706   6.442  10.664 -2.1119  1.8275 -4.2223
  961MOL0     H29670   5.402   6.639  10.771  0.1624 -2.1121 -0.6746
  961MOL0     H29671   5.431   6.653  10.938 -3.3575  2.4359 -1.7886
  961MOL0     H29672   5.534   6.853  10.804  2.0714  3.4535  3.7281
  961MOL0     H29673   5.660   6.745  10.745  0.4262 -0.6789  1.9430
  961MOL0     H29674   5.721   6.682  10.986 -0.2595  0.2543  1.3348
  961MOL0     H29675   5.609   6.808  11.042 -2.6937  4.7579 -3.0016
  961MOL0     H29676   5.825   6.869  10.847  2.1489 -1.5842  2.9949
  961MOL0     H29677   5.708   6.977  10.920  0.3575  0.7589  2.5755
  961MOL0     H29678   5.903   7.010  11.054 -1.5361  0.3035 -0.7529
  961MOL0     H29679   5.796   6.902  11.145  0.4992 -0.6040 -0.4842
  961MOL0     H29680   5.926   6.720  11.041 -1.1112 -0.0719  0.9416
  961MOL0     H29681   6.047   6.845  11.017 -0.5855  2.4304  0.3723
  961MOL0     H29682   5.951   6.764  11.296  0.5886 -1.8680 -0.4554
  961MOL0     H29683   6.017   6.927  11.257  3.3867 -0.7559 -0.1497
  961MOL0     H29684   6.184   6.686  11.168 -0.6976 -0.2681  0.5787
  961MOL0     H29685   6.236   6.842  11.188 -1.7101  0.5654 -1.8406
  961MOL0     H29686   6.045   6.603  11.426  0.6132 -1.5019 -0.9598
  961MOL0     H29687   6.182   6.466  11.651  0.5411  0.2851 -0.8028
  961MOL0     H29688   6.247   6.588  11.765 -0.3299  0.9345 -0.5428
  961MOL0     H29689   5.954   6.569  11.663 -0.5555 -5.6106  2.1078
  961MOL0     H29690   6.010   6.525  11.821  1.5746  0.1047  0.3562
  961MOL0     H29691   6.033   6.823  11.743 -1.4678  1.6755  3.0012
  961MOL0     H29692   6.080   6.741  11.893  1.0110 -1.2259 -1.2906
  961MOL0     H29693   5.794   6.759  11.796 -0.3788  0.8311  1.4684
  961MOL0     H29694   5.884   6.832  11.935 -1.2668 -0.3986  0.4849
  961MOL0     H29695   5.643   6.817  12.001 -3.5520  1.1660  0.0486
  961MOL0     H29696   5.443   6.779  12.110 -0.8487  0.2443 -1.7324
  961MOL0     H29697   5.119   6.824  12.247  0.0144 -0.8683 -1.2488
  961MOL0     H29698   4.922   6.864  12.374  2.1946  1.4302  0.3866
  961MOL0     H29699   4.614   6.781  12.587 -1.7847 -0.1633 -1.6710
  961MOL0     H29700   4.748   6.883  12.533 -2.8814  0.9864  0.8470
  961MOL0     H29701   4.569   6.901  12.370  1.1836 -0.6223 -1.4194
  961MOL0     H29702   4.690   6.822  12.295 -0.9851  0.4456 -0.6921
  961MOL0     H29703   4.556   6.596  12.416 -1.4282 -0.6492 -0.6223
  961MOL0     H29704   4.432   6.719  12.368 -1.0015  1.0903 -3.5121
  961MOL0     H29705   4.648   6.581  12.190 -0.7759 -0.9641  1.0519
  961MOL0     H29706   4.540   6.716  12.136  0.9799  0.3101  0.1842
  961MOL0     H29707   4.414   6.523  12.057  2.0983  0.9535 -0.7040
  961MOL0     H29708   4.339   6.617  12.187  0.9355  0.1959 -0.9698
  961MOL0     H29709   4.509   6.363  12.233  0.1626 -2.7549  0.0338
  961MOL0     H29710   4.397   6.436  12.343  2.4498  0.9129 -0.2962
  961MOL0     H29711   4.310   6.315  12.069 -3.5322 -0.8600 -1.0699
  961MOL0     H29712   4.206   6.401  12.189 -2.3565 -2.4010  0.5120
  961MOL0     H29713   4.370   6.158  12.258 -0.0584  1.5911 -0.0866
  961MOL0     H29714   4.251   6.239  12.370  2.1305 -0.2608  0.2915
  961MOL0     H29715   4.910   6.459  12.502 -0.1238  2.5282  2.0205
  961MOL0     H29716   5.130   6.421  12.377 -0.2451 -0.0433  0.2714
  961MOL0     H29717   5.586   6.367  12.203  1.9944  0.6336 -0.7886
  961MOL0     H29718   5.796   6.439  12.077  1.1468  0.9916 -0.7007
  961MOL0     H29719   5.339   6.371  10.847 -2.7608  0.1214 -2.7225
  961MOL0     H29720   5.286   6.183  10.688 -1.3997  3.4191 -1.9757
  961MOL0     H29721   5.267   5.936  10.418 -1.9054 -3.1318  0.7484
  961MOL0     H29722   5.171   5.790  10.262  1.2950 -0.0098 -0.4572
  961MOL0     H29723   5.265   5.601   9.912  0.7701  1.3294 -1.2973
  961MOL0     H29724   5.299   5.764   9.959 -3.2917  2.1680 -0.6231
  961MOL0     H29725   5.076   5.758   9.906  3.6317  2.3486  0.7429
  961MOL0     H29726   5.054   5.733  10.074 -1.7060  1.1624 -2.5378
  961MOL0     H29727   5.055   5.474  10.031  1.3269  0.2755  0.2744
  961MOL0     H29728   5.057   5.513   9.861  1.7531  0.0204  1.0897
  961MOL0     H29729   4.841   5.457   9.973 -1.4084  0.7505 -3.1553
  961MOL0     H29730   4.855   5.612  10.060  1.6914 -1.4335  1.8577
  961MOL0     H29731   4.740   5.671   9.655  0.7211 -1.0234 -0.7818
  961MOL0     H29732   5.550   5.637  10.144 -2.5812 -2.2854 -0.6997
  961MOL0     H29733   5.743   5.825  10.397  3.1890  3.2739 -1.5111
  961MOL0     H29734   5.759   5.713  10.256  0.2139 -0.6194  0.4479
  961MOL0     H29735   5.754   5.889  10.239 -0.8305  0.0037 -0.0630
  962MOL0     O29736   6.816   3.824  10.756  0.5045  0.0683  0.6371
  962MOL0     C29737   6.829   3.911  10.671  0.3837 -0.5028 -0.0444
  962MOL0     O29738   6.731   4.012  10.654 -0.8804  0.5569 -0.3970
  962MOL0     C29739   6.606   3.998  10.708  0.1339  0.7403  0.2972
  962MOL0     C29740   6.540   4.124  10.721 -0.3146 -0.4410 -0.7511
  962MOL0     C29741   6.410   4.123  10.765 -0.2756  0.1698 -1.1053
  962MOL0     C29742   6.351   4.004  10.803  0.4955 -1.0495 -0.5626
  962MOL0     O29743   6.222   3.993  10.850  0.3767  0.1068 -0.3928
  962MOL0     C29744   6.133   4.103  10.811 -0.3487  0.3034  1.0897
  962MOL0     C29745   6.017   4.091  10.896  0.6002 -0.6426 -0.6387
  962MOL0     C29746   6.033   4.137  11.046  0.2756 -0.4094  0.6715
  962MOL0     C29747   6.008   4.288  11.076  0.0341 -0.5144 -0.9208
  962MOL0     C29748   6.113   4.388  11.022 -0.4056 -0.2602  0.0952
  962MOL0     C29749   6.264   4.360  11.057  0.2468  0.2002  0.3035
  962MOL0     C29750   6.365   4.454  11.002  0.4291 -0.9158 -0.2912
  962MOL0     C29751   6.350   4.588  11.075  0.0095  0.1572  0.3335
  962MOL0     N29752   6.455   4.694  11.056 -0.6274  0.1999  0.0102
  962MOL0     C29753   6.569   4.702  11.129 -0.0244  0.1425 -0.7143
  962MOL0     C29754   6.622   4.819  11.087  0.8917  0.1129  0.1179
  962MOL0     C29755   6.751   4.877  11.140  0.1777 -0.4372  0.4303
  962MOL0     C29756   6.822   4.961  11.040  0.3167  0.2423 -0.6954
  962MOL0     C29757   6.963   5.003  11.109  0.6101  0.4814 -0.5045
  962MOL0     C29758   6.932   5.099  11.222  0.3023  0.5883 -0.4829
  962MOL0     O29759   7.040   5.196  11.238  0.1017  0.4841  0.1592
  962MOL0     C29760   7.046   5.307  11.159 -0.3844 -0.0358  0.5737
  962MOL0     C29761   7.161   5.396  11.168  0.1618  0.1183 -0.0410
  962MOL0     C29762   7.174   5.517  11.101 -0.2177  0.3623 -0.9271
  962MOL0     C29763   7.068   5.555  11.012  0.1678  0.0763 -0.3706
  962MOL0     C29764   7.067   5.694  10.953  0.2646  1.2151  0.0219
  962MOL0     O29765   6.951   5.730  10.894 -0.0099  0.2644  0.3462
  962MOL0     C29766   6.923   5.850  10.853  0.1503  0.7176 -0.2497
  962MOL0     C29767   7.021   5.919  10.777  0.4201 -1.0203  0.6216
  962MOL0     C29768   6.989   6.045  10.725 -0.9799  0.3711  0.8421
  962MOL0     C29769   6.860   6.095  10.747 -0.3212 -0.4832  0.1863
  962MOL0     O29770   6.816   6.218  10.708  0.0210 -0.1235 -0.3473
  962MOL0     C29771   6.905   6.290  10.629 -0.9271  0.1495 -0.3022
  962MOL0     C29772   6.835   6.418  10.591 -0.0105 -0.5211 -1.1699
  962MOL0     C29773   6.922   6.496  10.493  1.0534  0.0994  0.1591
  962MOL0     C29774   6.908   6.652  10.517  0.0615 -0.1061 -0.7456
  962MOL0     C29775   6.997   6.717  10.415  0.3870 -0.2827  0.9132
  962MOL0     C29776   6.997   6.872  10.429  0.1015  0.3298 -0.1416
  962MOL0     C29777   7.063   6.922  10.569  0.1859 -0.3014 -0.0845
  962MOL0     C29778   7.212   6.893  10.568 -0.0486 -0.6588 -0.6218
  962MOL0    Cl29779   7.290   6.885  10.409  0.1055  0.8395 -0.1963
  962MOL0     C29780   6.765   6.031  10.818  0.2414  0.5383  0.1480
  962MOL0     C29781   6.791   5.905  10.875  0.8038 -0.3623  0.2701
  962MOL0     O29782   7.166   5.759  10.961 -0.0645 -0.4670 -0.0111
  962MOL0     C29783   6.958   5.472  10.991 -0.4591  0.3050 -0.1287
  962MOL0     C29784   6.954   5.345  11.060 -0.1666 -0.3227 -0.6744
  962MOL0     N29785   6.537   4.877  10.995  0.5233 -0.4731 -0.0963
  962MOL0     N29786   6.438   4.807  10.981  1.5620  1.3586  0.5501
  962MOL0     C29787   6.418   3.877  10.780  0.6904 -0.4716 -0.2905
  962MOL0     C29788   6.546   3.871  10.728 -0.8206 -0.5446 -0.4188
  962MOL0     C29789   6.947   3.905  10.585 -0.4536  0.9011 -0.0641
  962MOL0     C29790   6.929   3.935  10.449  0.5908 -0.9379 -0.3756
  962MOL0     C29791   7.034   3.955  10.365 -0.0118  0.8798  0.0114
  962MOL0     C29792   7.165   3.906  10.398 -0.4906  0.2150 -0.7217
  962MOL0     O29793   7.262   3.892  10.301  0.0068 -0.1820 -0.5331
  962MOL0     C29794   7.397   3.946  10.324 -0.4141 -0.3297  0.0605
  962MOL0     C29795   7.502   3.839  10.341  0.1078  0.8393  0.3118
  962MOL0     C29796   7.646   3.891  10.373 -0.3904 -0.2502  0.0118
  962MOL0     C29797   7.688   4.001  10.256  0.2852 -0.5198 -0.7554
  962MOL0     C29798   7.729   3.923  10.144 -0.0643 -0.4769  0.1598
  962MOL0     C29799   7.765   3.882  10.038  0.0473 -0.5115  0.5814
  962MOL0     C29800   7.183   3.870  10.533  0.5887  0.2043  0.0379
  962MOL0     C29801   7.080   3.869  10.629  0.4304  0.2114  0.3024
  962MOL0     C29802   7.110   3.825  10.773 -0.6127 -1.0435  0.0236
  962MOL0     H29803   6.597   4.216  10.706  0.1553 -0.6231 -0.1211
  962MOL0     H29804   6.367   4.220  10.787 -1.1067 -0.6963  1.4541
  962MOL0     H29805   6.173   4.204  10.798 -1.1721  0.8231  2.3811
  962MOL0     H29806   6.093   4.077  10.713  0.3818  1.8763  0.3358
  962MOL0     H29807   5.981   3.987  10.900  0.9891 -0.8538  4.5413
  962MOL0     H29808   5.943   4.158  10.853  1.4775  0.5230 -0.3770
  962MOL0     H29809   6.127   4.107  11.093  1.2603  2.6989  0.8946
  962MOL0     H29810   5.950   4.090  11.099 -0.4729  1.0579  0.8373
  962MOL0     H29811   5.916   4.319  11.028 -0.3110 -2.1772 -1.4017
  962MOL0     H29812   6.009   4.301  11.185 -0.0878 -3.4491 -0.4720
  962MOL0     H29813   6.111   4.398  10.913  0.0244 -0.4609  0.0662
  962MOL0     H29814   6.090   4.487  11.064 -0.4634 -1.0741  2.0811
  962MOL0     H29815   6.279   4.371  11.165  0.0154  3.1207  0.1303
  962MOL0     H29816   6.290   4.259  11.026  0.9422  0.0813  1.2386
  962MOL0     H29817   6.350   4.467  10.894 -1.0888  2.2286  0.1891
  962MOL0     H29818   6.468   4.420  11.017  1.4739  2.5019  1.0525
  962MOL0     H29819   6.257   4.635  11.042  1.0722  2.5434  0.5570
  962MOL0     H29820   6.339   4.568  11.182 -4.2126 -1.4940 -0.2145
  962MOL0     H29821   6.622   4.627  11.187  2.1437  2.2522  0.2109
  962MOL0     H29822   6.730   4.926  11.236 -2.9018  1.0202 -0.8484
  962MOL0     H29823   6.811   4.786  11.151  2.4284  0.5014 -2.6377
  962MOL0     H29824   6.832   4.905  10.947 -1.8571  0.1697 -0.9260
  962MOL0     H29825   6.761   5.051  11.026  0.4001  0.8341  2.0624
  962MOL0     H29826   7.021   5.065  11.039 -0.8034  0.8995 -1.3545
  962MOL0     H29827   7.017   4.913  11.139  1.2258  1.2653  0.8174
  962MOL0     H29828   6.926   5.033  11.309 -4.0721  2.6556  1.0385
  962MOL0     H29829   6.834   5.148  11.218  0.3726  1.3762  3.6813
  962MOL0     H29830   7.216   5.364  11.256 -1.8794 -1.9316  0.5813
  962MOL0     H29831   7.256   5.585  11.122 -0.9194  1.3672 -1.3606
  962MOL0     H29832   7.119   5.878  10.756  1.7130  2.7897 -1.7878
  962MOL0     H29833   7.066   6.101  10.673 -0.7991 -0.6134  0.0230
  962MOL0     H29834   6.987   6.313  10.696 -2.8278 -0.8866  2.5919
  962MOL0     H29835   6.929   6.237  10.536 -2.9931  1.9459 -1.9675
  962MOL0     H29836   6.733   6.399  10.555 -1.1200 -0.2833  1.6245
  962MOL0     H29837   6.819   6.474  10.683 -2.3362 -1.7746 -0.7155
  962MOL0     H29838   7.028   6.476  10.515  1.7142  3.4739  0.5755
  962MOL0     H29839   6.899   6.458  10.393 -3.3792 -1.0604  1.4118
  962MOL0     H29840   6.931   6.667  10.623 -0.7523  0.2367 -0.6097
  962MOL0     H29841   6.804   6.685  10.504 -1.1057 -4.1015 -2.9585
  962MOL0     H29842   6.968   6.703  10.311  0.9458  2.4029  0.3108
  962MOL0     H29843   7.096   6.671  10.425 -0.0913 -0.8622  3.7459
  962MOL0     H29844   7.039   6.918  10.339 -1.9259 -1.2084 -1.9968
  962MOL0     H29845   6.891   6.897  10.430  0.0207  0.0064  1.0338
  962MOL0     H29846   7.018   6.878  10.658 -1.6537  0.1829 -0.7221
  962MOL0     H29847   7.044   7.030  10.581  2.3884  0.4520 -2.4771
  962MOL0     H29848   7.265   6.969  10.626  1.7754 -1.6227 -0.9465
  962MOL0     H29849   7.224   6.800  10.624 -1.2455  0.4017  1.5292
  962MOL0     H29850   6.667   6.076  10.824  0.4871  0.8513  2.9023
  962MOL0     H29851   6.727   5.842  10.937  0.0050 -0.1001 -0.2654
  962MOL0     H29852   6.891   5.495  10.909  0.6393 -3.9986 -2.5329
  962MOL0     H29853   6.883   5.267  11.035  2.9252 -4.2620  1.6554
  962MOL0     H29854   6.364   3.784  10.797 -2.6349  1.0917 -1.6401
  962MOL0     H29855   6.591   3.773  10.719 -1.4435 -0.8909  0.1437
  962MOL0     H29856   6.826   3.953  10.418  0.7115 -1.1287 -0.8954
  962MOL0     H29857   7.029   3.981  10.259 -0.0575 -1.1741 -0.5300
  962MOL0     H29858   7.400   4.015  10.409 -4.1328  0.9347 -0.6849
  962MOL0     H29859   7.406   3.997  10.228 -2.1892  1.4917  0.8017
  962MOL0     H29860   7.516   3.768  10.259  0.1461  0.2480  0.8134
  962MOL0     H29861   7.467   3.778  10.426 -2.1713  1.0564 -0.3975
  962MOL0     H29862   7.709   3.802  10.372 -0.4482 -0.2912  0.0708
  962MOL0     H29863   7.640   3.934  10.473  2.3555 -2.2494  1.1833
  962MOL0     H29864   7.615   4.080  10.237  0.6164 -0.0134 -0.0070
  962MOL0     H29865   7.782   4.048  10.289  0.6443 -3.5335  3.2621
  962MOL0     H29866   7.786   3.832   9.946  0.8586  1.8111 -0.5735
  962MOL0     H29867   7.287   3.844  10.550  0.2442 -0.8757  0.5922
  962MOL0     H29868   7.037   3.862  10.846 -0.6719  1.6963 -1.3205
  962MOL0     H29869   7.113   3.715  10.771 -0.0823 -1.0236 -0.3824
  962MOL0     H29870   7.199   3.872  10.815 -1.2282 -1.3075  1.7463
  963MOL0     O29871   3.733   4.013   7.312 -0.2671 -0.4020 -0.2096
  963MOL0     C29872   3.852   4.032   7.296 -0.9285  0.3637 -0.0932
  963MOL0     O29873   3.923   4.145   7.337  0.7161 -0.1758 -0.0285
  963MOL0     C29874   3.860   4.223   7.429 -0.4670 -0.1262  0.2728
  963MOL0     C29875   3.901   4.361   7.424  0.3940 -0.2202  0.4982
  963MOL0     C29876   3.833   4.466   7.485  0.2690  0.3232  0.4546
  963MOL0     C29877   3.730   4.429   7.582  0.4840  0.9843  0.1844
  963MOL0     O29878   3.650   4.528   7.645 -1.1049 -0.3413  0.8175
  963MOL0     C29879   3.597   4.515   7.778  0.5884  0.6348 -1.0367
  963MOL0     C29880   3.571   4.644   7.860 -0.3065 -0.4042  0.1821
  963MOL0     C29881   3.551   4.620   8.013  0.1274  0.2582 -0.4075
  963MOL0     C29882   3.670   4.549   8.088  0.3479 -0.4278  1.2907
  963MOL0     C29883   3.668   4.592   8.232  0.1868 -0.6987  0.1612
  963MOL0     C29884   3.543   4.552   8.313  0.5172  0.2302  0.4617
  963MOL0     C29885   3.552   4.593   8.456 -0.7691 -0.8371 -0.2982
  963MOL0     C29886   3.427   4.557   8.530  0.0495  0.5009 -0.5434
  963MOL0     N29887   3.310   4.642   8.503  0.3018 -0.2726 -0.2213
  963MOL0     C29888   3.271   4.745   8.570  0.8090 -1.0542  0.3112
  963MOL0     C29889   3.150   4.781   8.510 -0.0864 -0.4342  0.5949
  963MOL0     C29890   3.050   4.893   8.538 -0.0750 -0.0445 -0.0798
  963MOL0     C29891   3.115   4.999   8.618 -0.1326  0.0352  0.1437
  963MOL0     C29892   3.018   5.107   8.665  0.6828  0.3533  0.4522
  963MOL0     C29893   2.962   5.193   8.540 -0.9741  0.8916 -0.8183
  963MOL0     O29894   2.847   5.263   8.577 -0.9896  0.4599 -1.0900
  963MOL0     C29895   2.820   5.366   8.493 -0.2129  0.4641 -0.0412
  963MOL0     C29896   2.860   5.499   8.515 -0.9685 -0.0960  0.3008
  963MOL0     C29897   2.847   5.603   8.423 -0.4132 -0.2001 -0.0202
  963MOL0     C29898   2.792   5.574   8.294 -0.7583  0.2293 -0.5671
  963MOL0     C29899   2.760   5.675   8.194 -0.0479 -0.0993  0.6324
  963MOL0     O29900   2.740   5.629   8.059  0.2646 -0.3852 -0.0200
  963MOL0     C29901   2.689   5.726   7.971 -0.0656  0.1823  0.3182
  963MOL0     C29902   2.602   5.835   7.994  0.7725  0.5761 -0.0358
  963MOL0     C29903   2.586   5.937   7.900 -0.4686  0.3756  0.0917
  963MOL0     C29904   2.651   5.937   7.774  0.3021  0.3010 -0.8727
  963MOL0     O29905   2.612   6.037   7.686 -0.8035  0.0113 -0.0489
  963MOL0     C29906   2.727   6.087   7.614  0.0842 -0.2911 -0.1464
  963MOL0     C29907   2.710   6.236   7.561  0.6253  0.1447  0.8182
  963MOL0     C29908   2.617   6.253   7.442  0.8822  0.5891  0.7990
  963MOL0     C29909   2.680   6.224   7.302 -0.4004 -0.5643  1.2259
  963MOL0     C29910   2.591   6.187   7.188  0.4796  0.8416  0.7991
  963MOL0     C29911   2.498   6.300   7.155 -0.2490 -0.1892  1.1751
  963MOL0     C29912   2.353   6.249   7.124  0.6187  0.3401 -0.1021
  963MOL0     C29913   2.247   6.225   7.232 -0.0586 -0.4137  0.1238
  963MOL0    Cl29914   2.082   6.257   7.162 -0.0344 -0.2754  0.2469
  963MOL0     C29915   2.731   5.820   7.744 -0.2623  0.1600 -0.2933
  963MOL0     C29916   2.736   5.714   7.841 -0.0613 -0.2252 -0.0283
  963MOL0     O29917   2.771   5.796   8.222  0.3212 -0.5388  0.9335
  963MOL0     C29918   2.752   5.436   8.265 -0.2523 -1.6068  0.3831
  963MOL0     C29919   2.759   5.346   8.373  0.0906  0.1186 -0.1207
  963MOL0     N29920   3.127   4.694   8.408 -0.1628 -0.5366 -0.6283
  963MOL0     N29921   3.223   4.613   8.409  0.3305  0.0941 -0.2744
  963MOL0     C29922   3.688   4.292   7.594 -0.6457 -0.1447 -0.3473
  963MOL0     C29923   3.750   4.196   7.514 -0.8647  0.0518 -0.7246
  963MOL0     C29924   3.924   3.928   7.213  0.8475  0.3893 -0.4975
  963MOL0     C29925   3.845   3.809   7.176 -0.0963  0.8437  0.2142
  963MOL0     C29926   3.916   3.708   7.111 -0.5280 -0.6391  0.9164
  963MOL0     C29927   4.051   3.708   7.076 -0.4839 -0.0845  1.0081
  963MOL0     O29928   4.110   3.602   7.006 -0.1434  0.1816 -0.7841
  963MOL0     C29929   4.204   3.639   6.899  0.1140  0.6189 -0.8901
  963MOL0     C29930   4.156   3.591   6.758 -0.7519  0.1412  0.2740
  963MOL0     C29931   4.013   3.630   6.720 -0.4751  0.3013  0.8663
  963MOL0     C29932   3.923   3.506   6.690 -0.4350  0.2318  0.6943
  963MOL0     C29933   3.781   3.524   6.650 -0.3530  1.0513  0.5533
  963MOL0     C29934   3.662   3.547   6.612 -0.2588 -0.8761 -0.2784
  963MOL0     C29935   4.123   3.821   7.116 -0.0102 -0.5453 -0.2329
  963MOL0     C29936   4.061   3.929   7.179  0.1125  0.0075 -0.0105
  963MOL0     C29937   4.155   4.044   7.194 -0.4144  0.5093  0.3561
  963MOL0     H29938   3.977   4.397   7.356 -0.8757  0.1654 -0.7446
  963MOL0     H29939   3.853   4.573   7.473 -0.0070  0.3660  0.3896
  963MOL0     H29940   3.501   4.464   7.772  0.8989 -0.5305  1.9044
  963MOL0     H29941   3.667   4.460   7.842 -2.1742  0.6258  2.2428
  963MOL0     H29942   3.474   4.682   7.825 -1.4947 -1.4558  2.1675
  963MOL0     H29943   3.652   4.717   7.856 -3.5354  3.5005 -1.2986
  963MOL0     H29944   3.463   4.557   8.029 -1.6646  2.7712  0.2728
  963MOL0     H29945   3.524   4.713   8.065 -2.5325 -1.0503  0.7418
  963MOL0     H29946   3.672   4.439   8.083  0.7848 -0.3940  0.3930
  963MOL0     H29947   3.759   4.569   8.027 -2.3311 -1.1386 -3.3326
  963MOL0     H29948   3.759   4.555   8.279  1.3359  2.2579  0.4525
  963MOL0     H29949   3.687   4.699   8.235 -0.1009 -0.4451 -3.5398
  963MOL0     H29950   3.458   4.601   8.264 -0.8320 -3.6267 -1.5247
  963MOL0     H29951   3.530   4.445   8.292  0.5986 -0.1048  2.0015
  963MOL0     H29952   3.574   4.699   8.474 -0.3467 -1.2138  1.6886
  963MOL0     H29953   3.638   4.538   8.496 -0.1370 -0.6629 -1.3852
  963MOL0     H29954   3.402   4.457   8.494  1.9415 -0.1812 -0.1099
  963MOL0     H29955   3.456   4.549   8.635 -0.6788 -2.8584 -0.5049
  963MOL0     H29956   3.300   4.790   8.664  0.6884 -0.3307  0.0069
  963MOL0     H29957   3.025   4.935   8.441  2.3301  3.5605  0.6784
  963MOL0     H29958   2.960   4.854   8.588  1.4084 -0.6884  2.2791
  963MOL0     H29959   3.159   4.945   8.702  2.0660 -0.8124 -1.4684
  963MOL0     H29960   3.192   5.049   8.560 -0.0075 -1.1389 -0.7301
  963MOL0     H29961   3.060   5.166   8.747  1.2625  0.1985  0.2738
  963MOL0     H29962   2.923   5.067   8.703 -0.5490  0.3100 -2.4284
  963MOL0     H29963   2.934   5.124   8.461 -2.6840 -1.8932  1.9902
  963MOL0     H29964   3.049   5.258   8.522  2.3340 -1.9082  3.0062
  963MOL0     H29965   2.917   5.505   8.607  2.3111 -2.6151 -1.3263
  963MOL0     H29966   2.879   5.705   8.441 -0.8416  0.2974 -1.9484
  963MOL0     H29967   2.559   5.839   8.093 -1.3223 -0.9989 -0.7835
  963MOL0     H29968   2.521   6.022   7.919 -1.6229 -0.4282 -0.1255
  963MOL0     H29969   2.814   6.086   7.680  1.8152 -0.6625 -2.3219
  963MOL0     H29970   2.760   6.023   7.531  1.2743  2.3909 -1.8903
  963MOL0     H29971   2.671   6.284   7.650 -1.3419  1.4290 -0.6573
  963MOL0     H29972   2.805   6.279   7.526  0.9841  0.2465  1.8771
  963MOL0     H29973   2.550   6.168   7.459  1.3101  0.0129 -0.3024
  963MOL0     H29974   2.562   6.348   7.448  0.4637  0.5522 -1.3724
  963MOL0     H29975   2.755   6.144   7.308 -0.0087 -0.2188  0.9764
  963MOL0     H29976   2.731   6.317   7.278  2.0061 -2.2204 -0.5962
  963MOL0     H29977   2.534   6.101   7.226 -0.1275  1.2916  0.9313
  963MOL0     H29978   2.659   6.158   7.108 -0.7857  0.6704 -0.2491
  963MOL0     H29979   2.495   6.377   7.232 -0.7287  1.9502 -0.8676
  963MOL0     H29980   2.533   6.352   7.065 -0.8002  1.2332  1.7576
  963MOL0     H29981   2.365   6.160   7.062 -0.6014  1.1335 -1.5420
  963MOL0     H29982   2.296   6.327   7.073 -2.1476  1.8232  4.6119
  963MOL0     H29983   2.273   6.126   7.270  0.0586 -0.3183  0.2911
  963MOL0     H29984   2.249   6.303   7.309  0.3919 -0.6462  0.3528
  963MOL0     H29985   2.770   5.810   7.644 -1.4720  0.4692 -0.8058
  963MOL0     H29986   2.787   5.618   7.836 -2.7673 -1.6763 -1.6329
  963MOL0     H29987   2.698   5.395   8.180  0.1323  1.0355 -1.2405
  963MOL0     H29988   2.732   5.244   8.352  0.3436  0.2840 -1.3037
  963MOL0     H29989   3.614   4.261   7.667 -0.7248 -0.5274 -0.5853
  963MOL0     H29990   3.720   4.094   7.533 -2.4762  0.7060  0.4459
  963MOL0     H29991   3.740   3.800   7.204  0.8064 -1.7561  3.3403
  963MOL0     H29992   3.868   3.616   7.081  0.7970  0.0536 -4.3676
  963MOL0     H29993   4.301   3.593   6.921 -1.1381 -2.0937 -0.7485
  963MOL0     H29994   4.219   3.748   6.894 -0.7002  0.7632 -0.3747
  963MOL0     H29995   4.180   3.485   6.744 -0.9084  0.0809  0.4578
  963MOL0     H29996   4.215   3.642   6.682 -2.6867 -0.5794 -1.8455
  963MOL0     H29997   4.021   3.688   6.627 -0.2612  0.2891  0.8786
  963MOL0     H29998   3.962   3.695   6.792  2.5098  1.6431  1.9181
  963MOL0     H29999   3.972   3.451   6.609  0.4525  0.5529  0.9976
  963MOL0     H30000   3.912   3.434   6.771 -1.0010 -1.6584 -0.9998
  963MOL0     H30001   3.562   3.580   6.594 -0.0336 -0.2528 -0.4218
  963MOL0     H30002   4.230   3.816   7.099  0.3373  1.3435  1.0643
  963MOL0     H30003   4.239   4.058   7.124 -0.3831 -0.2963  0.2274
  963MOL0     H30004   4.089   4.128   7.172 -1.5765 -0.3045  0.6588
  963MOL0     H30005   4.186   4.048   7.299  1.2108 -1.6110  0.0316
  964MOL0     O30006   0.206  10.769   9.574  0.3650 -0.4773 -0.5690
  964MOL0     C30007   0.197  10.788   9.446 -0.3052 -0.0830 -0.1652
  964MOL0     O30008   0.204  10.692   9.354 -0.1183  0.3327 -0.1872
  964MOL0     C30009   0.264  10.571   9.375  0.1603  0.3458  0.9371
  964MOL0     C30010   0.291  10.508   9.492  0.4970  1.1155  0.2943
  964MOL0     C30011   0.326  10.372   9.486 -0.3219 -0.2080 -0.9132
  964MOL0     C30012   0.360  10.310   9.368 -1.0452 -0.5195 -0.7586
  964MOL0     O30013   0.401  10.182   9.391  0.8979  0.6602 -0.3351
  964MOL0     C30014   0.419  10.083   9.284 -0.3779 -0.7115 -0.0590
  964MOL0     C30015   0.289  10.056   9.199 -0.1615 -0.1450  0.1619
  964MOL0     C30016   0.317   9.979   9.063  1.0334  0.2745  0.1814
  964MOL0     C30017   0.178   9.960   9.000 -0.1928  0.0893 -0.5952
  964MOL0     C30018   0.169   9.857   8.882 -0.0951 -0.1641  0.4369
  964MOL0     C30019   0.187   9.709   8.940  0.0143 -1.0437  1.1635
  964MOL0     C30020   0.169   9.610   8.822  0.9894  0.2331  1.0756
  964MOL0     C30021   0.236   9.470   8.834 -0.7137  0.5702 -0.7623
  964MOL0     N30022   0.193   9.382   8.936  0.4880  0.1761  0.5698
  964MOL0     C30023   0.073   9.392   9.005 -0.1687  0.3723  0.4488
  964MOL0     C30024   0.068   9.282   9.083 -0.6487  0.3200 -0.1752
  964MOL0     C30025  -0.033   9.244   9.190  0.0360 -0.2035  0.0207
  964MOL0     C30026  -0.024   9.340   9.318 -0.1780 -0.2221  0.8090
  964MOL0     C30027  -0.120   9.317   9.433 -0.5556 -0.0278 -0.3894
  964MOL0     C30028  -0.105   9.172   9.479 -0.2795 -0.1690 -0.4032
  964MOL0     O30029  -0.171   9.152   9.606 -0.2661 -0.6833  0.3925
  964MOL0     C30030  -0.178   9.023   9.645 -0.0965  0.5387 -0.1737
  964MOL0     C30031  -0.184   9.000   9.787 -0.2993  0.4827  1.5045
  964MOL0     C30032  -0.212   8.878   9.840  0.2025  0.4218  0.0999
  964MOL0     C30033  -0.250   8.768   9.761 -0.5353  0.0178 -0.1795
  964MOL0     C30034  -0.268   8.628   9.812 -0.9486 -0.1117 -0.0184
  964MOL0     O30035  -0.308   8.523   9.733  0.1559 -0.6100 -0.8023
  964MOL0     C30036  -0.366   8.422   9.805  0.3575  0.3663  0.2847
  964MOL0     C30037  -0.492   8.438   9.847  0.1649 -0.5094  0.3429
  964MOL0     C30038  -0.565   8.334   9.904  0.3881  0.2757  0.5725
  964MOL0     C30039  -0.503   8.214   9.928  1.0151  0.2969  0.3719
  964MOL0     O30040  -0.589   8.119   9.984  0.8967  0.1185 -0.0626
  964MOL0     C30041  -0.544   7.981  10.012 -0.6496  0.2773  0.0547
  964MOL0     C30042  -0.509   7.909   9.886  1.1419  0.2179  0.3301
  964MOL0     C30043  -0.633   7.887   9.803 -0.3024 -0.3804 -0.9585
  964MOL0     C30044  -0.737   7.785   9.858  0.6011 -0.4900 -0.2674
  964MOL0     C30045  -0.866   7.781   9.776 -0.0803 -0.1665 -0.5827
  964MOL0     C30046  -1.000   7.716   9.839 -0.9584 -0.0100  0.0666
  964MOL0     C30047  -0.975   7.569   9.866  0.3153  0.4781 -0.0623
  964MOL0     C30048  -1.096   7.480   9.842 -0.3142 -0.6164 -0.1926
  964MOL0    Cl30049  -1.057   7.316   9.834 -0.2824  0.1762  0.4971
  964MOL0     C30050  -0.360   8.206   9.916  0.4823  1.0931 -0.3098
  964MOL0     C30051  -0.295   8.301   9.840  0.3365 -0.3812 -0.5758
  964MOL0     O30052  -0.235   8.608   9.927 -0.0871 -0.0299 -0.2810
  964MOL0     C30053  -0.236   8.786   9.626 -0.6927  0.7270  0.8048
  964MOL0     C30054  -0.197   8.908   9.560  0.7129  0.3988  0.1811
  964MOL0     N30055   0.174   9.195   9.045  0.7022  0.1261 -1.0831
  964MOL0     N30056   0.248   9.263   8.969 -0.3345 -0.0654  1.2761
  964MOL0     C30057   0.334  10.377   9.250 -0.1909 -0.6256  0.2012
  964MOL0     C30058   0.281  10.505   9.256  0.9557 -0.8005  0.4738
  964MOL0     C30059   0.172  10.932   9.411 -0.5528 -0.2027 -0.5292
  964MOL0     C30060   0.138  10.953   9.278 -0.7382 -0.1723 -0.0890
  964MOL0     C30061   0.096  11.074   9.232 -1.0499  0.5777 -0.3662
  964MOL0     C30062   0.101  11.188   9.311  0.5767  0.2664 -0.0796
  964MOL0     O30063   0.080  11.305   9.235  0.5545  0.4457 -0.2963
  964MOL0     C30064   0.140  11.440   9.269  0.4698 -0.1698 -0.7265
  964MOL0     C30065   0.291  11.430   9.241  0.6756 -0.2022  0.0748
  964MOL0     C30066   0.330  11.383   9.102  1.1998  0.1762 -0.0420
  964MOL0     C30067   0.467  11.410   9.061 -0.5916 -0.4747 -0.0668
  964MOL0     C30068   0.476  11.524   8.973 -0.4428  0.2502 -0.0522
  964MOL0     C30069   0.503  11.617   8.903  0.0848 -0.0225 -0.3639
  964MOL0     C30070   0.142  11.172   9.444 -0.3495 -0.2124 -0.8440
  964MOL0     C30071   0.172  11.044   9.499  0.4895 -0.1274 -0.4874
  964MOL0     C30072   0.224  11.048   9.645  1.1701  0.3396  0.1171
  964MOL0     H30073   0.299  10.569   9.581  0.2629 -2.6222  3.0858
  964MOL0     H30074   0.359  10.323   9.577 -0.4432  2.1092  0.4477
  964MOL0     H30075   0.495  10.129   9.220  1.0374  1.9317  3.2505
  964MOL0     H30076   0.461   9.988   9.319  1.1228  0.9960  3.1671
  964MOL0     H30077   0.236  10.150   9.180  0.4478  0.8068  2.7509
  964MOL0     H30078   0.225  10.003   9.269  0.0488  0.9503  1.2226
  964MOL0     H30079   0.368   9.888   9.095 -0.5361 -0.9961 -0.7797
  964MOL0     H30080   0.381  10.039   8.998  1.0969  0.1018  0.0847
  964MOL0     H30081   0.105   9.938   9.078  1.5584  2.8267  2.0530
  964MOL0     H30082   0.142  10.060   8.971  1.3814  0.9993  0.4175
  964MOL0     H30083   0.067   9.866   8.843  0.3578  0.3309 -0.6887
  964MOL0     H30084   0.239   9.889   8.804  0.1615 -2.6031 -0.4330
  964MOL0     H30085   0.286   9.686   8.981  0.4686 -1.6587 -0.2242
  964MOL0     H30086   0.116   9.691   9.021  0.3841  4.0043  2.9432
  964MOL0     H30087   0.211   9.646   8.727 -2.2241 -0.4388 -0.7443
  964MOL0     H30088   0.062   9.592   8.805  0.8174 -0.8369  3.0392
  964MOL0     H30089   0.209   9.408   8.748 -2.9793 -1.9670  1.6084
  964MOL0     H30090   0.345   9.479   8.830 -0.7481  0.6879 -1.9345
  964MOL0     H30091   0.005   9.476   9.007 -0.7275 -0.0389 -0.6606
  964MOL0     H30092  -0.128   9.269   9.142  0.6106 -1.0372 -1.6359
  964MOL0     H30093  -0.029   9.138   9.216 -2.3915  0.1518  2.1738
  964MOL0     H30094   0.074   9.325   9.365  1.2548  0.6131 -1.7090
  964MOL0     H30095  -0.038   9.443   9.284 -0.6630 -0.3894  0.4846
  964MOL0     H30096  -0.220   9.348   9.400 -0.4762  0.7899  0.1181
  964MOL0     H30097  -0.091   9.389   9.510  0.7831 -0.5223 -0.4079
  964MOL0     H30098  -0.001   9.157   9.510  0.7031  1.1356 -2.7588
  964MOL0     H30099  -0.136   9.099   9.403 -0.2789 -1.6160  0.9432
  964MOL0     H30100  -0.163   9.087   9.849 -0.4367  0.2271  1.9148
  964MOL0     H30101  -0.216   8.869   9.949 -3.5442  2.3484  0.2951
  964MOL0     H30102  -0.539   8.535   9.854 -0.2155 -0.7657  6.0625
  964MOL0     H30103  -0.669   8.358   9.925  0.0808  1.3048 -1.8174
  964MOL0     H30104  -0.451   7.984  10.070  0.4516 -4.7055 -0.9692
  964MOL0     H30105  -0.607   7.923  10.080  1.7648  1.0074  3.1652
  964MOL0     H30106  -0.436   7.964   9.826  0.0627  2.8932  1.2923
  964MOL0     H30107  -0.456   7.817   9.912  0.8868 -0.0520 -0.0889
  964MOL0     H30108  -0.677   7.986   9.788 -0.1043 -0.0729  0.3740
  964MOL0     H30109  -0.592   7.853   9.708  1.1747 -1.2238 -0.0541
  964MOL0     H30110  -0.765   7.809   9.961  0.9344  4.0361 -1.0322
  964MOL0     H30111  -0.684   7.690   9.864  0.7632 -0.3211  1.7105
  964MOL0     H30112  -0.849   7.751   9.672  0.6411  3.0171 -1.4949
  964MOL0     H30113  -0.903   7.884   9.765  1.4020  0.3666 -0.8124
  964MOL0     H30114  -1.029   7.753   9.938  0.2379 -1.7482  1.1168
  964MOL0     H30115  -1.083   7.752   9.777 -0.2793  1.0904 -0.2517
  964MOL0     H30116  -0.951   7.548   9.970 -0.4000  0.5532  0.1175
  964MOL0     H30117  -0.891   7.538   9.802 -2.0978 -0.8695 -2.8246
  964MOL0     H30118  -1.171   7.502   9.918  0.7008  0.9639  0.3951
  964MOL0     H30119  -1.142   7.509   9.747  1.1904  0.4180 -0.6373
  964MOL0     H30120  -0.307   8.118   9.952  1.2878  3.0677  3.8979
  964MOL0     H30121  -0.192   8.291   9.805  0.8784 -2.0713  1.3027
  964MOL0     H30122  -0.251   8.705   9.555  1.6452  1.2646 -0.3991
  964MOL0     H30123  -0.198   8.919   9.452 -2.8139  0.1319  0.0881
  964MOL0     H30124   0.348  10.332   9.152 -0.3967  1.5772 -0.8992
  964MOL0     H30125   0.234  10.555   9.171 -0.1853 -1.4970  0.6815
  964MOL0     H30126   0.139  10.879   9.199 -0.3828 -1.0613  0.7131
  964MOL0     H30127   0.068  11.082   9.127  0.7153  1.2794 -0.8249
  964MOL0     H30128   0.112  11.484   9.365 -0.3014  0.8142 -1.3850
  964MOL0     H30129   0.088  11.513   9.206 -4.2547 -1.9793  0.6734
  964MOL0     H30130   0.332  11.367   9.321 -2.4047  0.7753  2.6174
  964MOL0     H30131   0.327  11.533   9.249  2.6192 -0.9349  1.5885
  964MOL0     H30132   0.260  11.424   9.029 -1.2327 -3.4535 -0.0313
  964MOL0     H30133   0.311  11.278   9.081  3.1921  0.1406 -2.0031
  964MOL0     H30134   0.517  11.423   9.158 -0.5273  0.8887 -0.2529
  964MOL0     H30135   0.491  11.315   9.014 -2.0569 -0.3714 -1.0975
  964MOL0     H30136   0.527  11.696   8.835 -0.8415  2.0501  1.5747
  964MOL0     H30137   0.147  11.256   9.513 -0.4621  0.0367 -1.1352
  964MOL0     H30138   0.329  11.018   9.649  0.3884 -2.6400  1.4328
  964MOL0     H30139   0.211  11.151   9.679  1.8891  0.6363 -0.4755
  964MOL0     H30140   0.164  10.978   9.705 -0.3903  1.4949 -0.0396
  965MOL0     O30141  10.506   9.761   7.041 -0.4792  0.3222 -0.9197
  965MOL0     C30142  10.443   9.862   7.071 -0.4266  1.3392 -0.1431
  965MOL0     O30143  10.476   9.987   7.022 -0.0193 -0.3070  0.1144
  965MOL0     C30144  10.549   9.995   6.903  0.4254  0.2948 -0.5018
  965MOL0     C30145  10.506   9.922   6.796  0.1537  0.3157 -0.2498
  965MOL0     C30146  10.571   9.922   6.675  0.2141 -0.2530  0.0734
  965MOL0     C30147  10.674  10.013   6.654 -0.4576  0.2501 -0.2501
  965MOL0     O30148  10.746  10.024   6.542  0.5980  0.0484  0.9140
  965MOL0     C30149  10.684  10.024   6.415  0.1864 -0.5726  0.0544
  965MOL0     C30150  10.777  10.057   6.306 -0.3469 -0.7888  0.1034
  965MOL0     C30151  10.728  10.057   6.164 -0.5168 -0.7039  0.6706
  965MOL0     C30152  10.623  10.154   6.123 -0.0433  0.3571 -0.9199
  965MOL0     C30153  10.643  10.184   5.970 -0.2429  0.2326  0.5919
  965MOL0     C30154  10.574  10.079   5.882 -0.8049 -0.5201  0.6687
  965MOL0     C30155  10.572  10.127   5.734  0.5671  0.4012 -0.0855
  965MOL0     C30156  10.484  10.027   5.650  0.5582  0.3610  0.1481
  965MOL0     N30157  10.470  10.056   5.510 -0.7918  0.7117  0.3514
  965MOL0     C30158  10.564  10.056   5.413  0.0606 -0.2152  0.2342
  965MOL0     C30159  10.499  10.084   5.296 -0.1484  0.0076  0.5209
  965MOL0     C30160  10.552  10.054   5.152  0.2110 -0.7926  0.1036
  965MOL0     C30161  10.477  10.142   5.052  0.4506 -1.0310 -0.1014
  965MOL0     C30162  10.521  10.110   4.904 -0.3781 -0.3155  0.3862
  965MOL0     C30163  10.470  10.209   4.799  1.1920 -0.6914 -0.2228
  965MOL0     O30164  10.513  10.189   4.664  0.0633  0.1023  0.5298
  965MOL0     C30165  10.442  10.258   4.559 -0.8536 -1.3458  0.3758
  965MOL0     C30166  10.367  10.370   4.577 -0.0406  0.9842 -0.7924
  965MOL0     C30167  10.335  10.467   4.477  0.4961  0.6421 -0.0568
  965MOL0     C30168  10.377  10.444   4.348 -0.1082  0.7136 -0.2019
  965MOL0     C30169  10.353  10.537   4.240 -0.5375 -0.4586 -0.3508
  965MOL0     O30170  10.352  10.492   4.112  0.2089  0.9464 -1.1029
  965MOL0     C30171  10.323  10.558   4.000 -0.0291 -0.2957 -0.3890
  965MOL0     C30172  10.387  10.674   3.951  0.4290 -0.3835 -1.3492
  965MOL0     C30173  10.343  10.726   3.824 -0.8266  0.8057  0.1803
  965MOL0     C30174  10.237  10.679   3.750  0.3524 -0.1551 -0.9139
  965MOL0     O30175  10.198  10.746   3.640 -0.2615 -0.0688 -0.6750
  965MOL0     C30176  10.148  10.878   3.649 -0.0281 -0.0560 -0.0305
  965MOL0     C30177  10.036  10.898   3.533 -0.0634 -0.1798  0.9061
  965MOL0     C30178   9.920  10.807   3.558 -0.5213 -0.0931  0.1426
  965MOL0     C30179   9.921  10.687   3.463 -0.5323  0.3053 -0.1522
  965MOL0     C30180   9.809  10.595   3.475  1.2325  0.0626  0.0459
  965MOL0     C30181   9.843  10.463   3.406  0.5460 -0.5809 -0.2215
  965MOL0     C30182   9.721  10.365   3.428  0.8748 -0.5903  0.3529
  965MOL0     C30183   9.679  10.276   3.306 -0.0552 -2.1706 -0.1110
  965MOL0    Cl30184   9.793  10.134   3.299 -0.2858 -0.5715 -0.5198
  965MOL0     C30185  10.173  10.570   3.806  0.1707 -0.0043  0.0655
  965MOL0     C30186  10.209  10.514   3.923 -1.1972  0.1459 -0.6830
  965MOL0     O30187  10.320  10.646   4.274  0.4450 -0.1210 -0.7599
  965MOL0     C30188  10.451  10.320   4.325  0.1985 -1.0726  0.4313
  965MOL0     C30189  10.484  10.226   4.421 -0.4813 -0.0334 -1.0660
  965MOL0     N30190  10.370  10.129   5.329 -0.4173  0.2026  0.0570
  965MOL0     N30191  10.360  10.108   5.447  0.0278  0.0962 -0.4739
  965MOL0     C30192  10.715  10.099   6.761 -0.2765  0.7628  0.0058
  965MOL0     C30193  10.651  10.091   6.886  0.0053  0.3056  0.5978
  965MOL0     C30194  10.341   9.856   7.176  0.1688  0.5512 -0.4157
  965MOL0     C30195  10.231   9.938   7.153  1.4563  0.0911 -0.1458
  965MOL0     C30196  10.115   9.928   7.234  0.3232  1.2760  0.3233
  965MOL0     C30197  10.103   9.825   7.315 -0.0116  0.3414 -0.8646
  965MOL0     O30198   9.983   9.803   7.373 -0.0429 -0.1711 -0.7185
  965MOL0     C30199   9.970   9.811   7.514 -0.2887  0.3043 -0.9037
  965MOL0     C30200   9.992   9.953   7.563 -0.2469  0.0258 -0.5896
  965MOL0     C30201   9.970   9.967   7.723  0.7204  0.0199 -0.7386
  965MOL0     C30202  10.039   9.871   7.816 -0.0569  0.4739  0.5983
  965MOL0     C30203  10.182   9.863   7.778 -0.8347 -0.4401 -0.1777
  965MOL0     C30204  10.297   9.856   7.739 -0.6317  0.2070 -0.4355
  965MOL0     C30205  10.209   9.732   7.332  0.4147 -0.0487 -0.5662
  965MOL0     C30206  10.335   9.751   7.272  0.0800  0.5223  0.3690
  965MOL0     C30207  10.454   9.670   7.317  0.1409 -0.9569  0.5334
  965MOL0     H30208  10.423   9.853   6.806  2.0681 -2.1270 -0.1011
  965MOL0     H30209  10.538   9.860   6.592  1.4819 -2.1095  0.8745
  965MOL0     H30210  10.660   9.919   6.399  2.4295 -1.4734  2.0074
  965MOL0     H30211  10.600  10.094   6.417  0.1004 -0.6964  1.2679
  965MOL0     H30212  10.863   9.990   6.311  1.4922  1.3533 -1.0591
  965MOL0     H30213  10.826  10.151   6.332  1.3171 -0.4980 -3.5662
  965MOL0     H30214  10.695   9.959   6.130 -1.7760 -0.1272  0.1555
  965MOL0     H30215  10.816  10.077   6.102 -1.5168  2.2975  0.0556
  965MOL0     H30216  10.531  10.097   6.141  2.1398 -2.2628  4.2764
  965MOL0     H30217  10.619  10.239   6.193 -3.5219  0.1508 -0.6798
  965MOL0     H30218  10.589  10.278   5.961 -1.8532 -0.1606  4.3861
  965MOL0     H30219  10.746  10.185   5.932 -0.9008 -0.9631 -1.3793
  965MOL0     H30220  10.628   9.985   5.896 -0.3240 -0.2574  0.5938
  965MOL0     H30221  10.472  10.068   5.921 -1.7004 -2.5891 -1.9468
  965MOL0     H30222  10.672  10.126   5.689  0.8133 -0.1644  0.4615
  965MOL0     H30223  10.548  10.233   5.728  2.0114  0.9343  2.4233
  965MOL0     H30224  10.525   9.928   5.673  2.0305  1.2314  1.5692
  965MOL0     H30225  10.384  10.035   5.693  0.2680 -1.7741  0.0078
  965MOL0     H30226  10.668  10.024   5.418 -0.7742 -3.5783 -1.2029
  965MOL0     H30227  10.657  10.080   5.133 -0.7322  1.1836 -3.1840
  965MOL0     H30228  10.535   9.947   5.138 -0.6858 -0.2744 -3.5185
  965MOL0     H30229  10.370  10.147   5.072  0.1991  1.5169 -1.6708
  965MOL0     H30230  10.506  10.243   5.081  4.4314 -2.3520  1.2754
  965MOL0     H30231  10.469  10.016   4.884  0.4573 -0.7060  0.0281
  965MOL0     H30232  10.629  10.102   4.892 -0.5926 -0.8284 -1.6500
  965MOL0     H30233  10.505  10.306   4.836 -0.7840  0.2948 -0.7685
  965MOL0     H30234  10.361  10.202   4.806  1.1864 -0.6430 -0.2733
  965MOL0     H30235  10.335  10.394   4.678  1.6144  0.4514 -0.1034
  965MOL0     H30236  10.292  10.564   4.499  0.6948  0.8695 -0.6781
  965MOL0     H30237  10.471  10.721   4.001 -2.9054  0.7446  4.0791
  965MOL0     H30238  10.407  10.807   3.791  1.6582  0.8047  4.3239
  965MOL0     H30239  10.097  10.887   3.746  0.9074  2.0367  0.3274
  965MOL0     H30240  10.217  10.963   3.647  1.9666 -1.6165 -1.3444
  965MOL0     H30241   9.992  10.998   3.532 -0.1126 -0.1945  1.2903
  965MOL0     H30242  10.080  10.884   3.434  0.0040 -0.8669  1.0270
  965MOL0     H30243   9.932  10.772   3.662  0.7414 -0.6481 -0.1591
  965MOL0     H30244   9.826  10.862   3.554 -1.1032 -0.9578  1.1724
  965MOL0     H30245  10.008  10.629   3.492 -2.7180 -1.9111  2.5672
  965MOL0     H30246   9.945  10.716   3.360 -2.2728 -1.4197 -1.1044
  965MOL0     H30247   9.720  10.646   3.439  0.4940  0.7924  2.7544
  965MOL0     H30248   9.797  10.569   3.580  2.8423 -2.0279 -0.2043
  965MOL0     H30249   9.851  10.481   3.299  1.3234  1.4656  0.1324
  965MOL0     H30250   9.937  10.418   3.440  0.1382  0.0337  1.8393
  965MOL0     H30251   9.634  10.421   3.462  2.3660  0.8002  2.0859
  965MOL0     H30252   9.758  10.308   3.513  0.5650 -1.2318  0.0608
  965MOL0     H30253   9.576  10.243   3.324 -1.3875  2.4038  2.1107
  965MOL0     H30254   9.676  10.338   3.216  0.8143  1.7972  2.3637
  965MOL0     H30255  10.080  10.537   3.760  0.2272 -0.0309 -0.0294
  965MOL0     H30256  10.143  10.438   3.964  1.9790 -2.5494 -0.2120
  965MOL0     H30257  10.485  10.302   4.223  3.7792  2.5974  0.7461
  965MOL0     H30258  10.553  10.146   4.400 -2.5081 -1.8146 -1.2767
  965MOL0     H30259  10.790  10.174   6.737  1.2753 -0.8416 -0.3749
  965MOL0     H30260  10.683  10.161   6.963  0.4662 -1.1471  1.7852
  965MOL0     H30261  10.229  10.017   7.079  0.7766 -0.0447 -0.2785
  965MOL0     H30262  10.032   9.998   7.229 -0.7857 -0.0213 -0.1028
  965MOL0     H30263  10.039   9.745   7.569  0.3099  0.6512 -1.2312
  965MOL0     H30264   9.870   9.776   7.540 -0.2658  0.6948 -0.2646
  965MOL0     H30265   9.913  10.007   7.511  0.4551  0.9644 -0.7052
  965MOL0     H30266  10.086  10.004   7.542  0.9683 -0.3655  3.0473
  965MOL0     H30267   9.863   9.950   7.741  0.7483 -0.6528 -1.1666
  965MOL0     H30268  10.000  10.070   7.740 -0.0893  0.6850 -3.0312
  965MOL0     H30269  10.026   9.893   7.923  0.5295  0.0284  0.7677
  965MOL0     H30270   9.993   9.772   7.804  0.5450  0.3646 -0.9508
  965MOL0     H30271  10.397   9.836   7.707 -0.5515 -1.1285  0.5424
  965MOL0     H30272  10.204   9.652   7.406  1.7493  0.6387  0.3159
  965MOL0     H30273  10.415   9.569   7.336 -0.6321 -0.9115 -0.6787
  965MOL0     H30274  10.531   9.657   7.241  0.1591  0.5897  0.2709
  965MOL0     H30275  10.508   9.719   7.398 -1.4647  0.9075  0.5442
  966MOL0     O30276   8.568   6.844  10.358  0.0570  0.0754  0.2134
  966MOL0     C30277   8.569   6.799  10.473 -0.1012 -0.0055 -0.3624
  966MOL0     O30278   8.675   6.735  10.534 -0.2819  0.1968  1.0373
  966MOL0     C30279   8.795   6.790  10.509 -0.1318  0.9450 -0.2556
  966MOL0     C30280   8.865   6.728  10.404  0.0730 -0.1756 -0.0209
  966MOL0     C30281   8.993   6.753  10.380  0.0722  0.0865  0.0658
  966MOL0     C30282   9.061   6.839  10.464 -1.4468 -0.2134  0.5121
  966MOL0     O30283   9.203   6.864  10.450  0.2640  0.9163 -0.0234
  966MOL0     C30284   9.274   6.760  10.372 -0.0670  0.9858  0.3182
  966MOL0     C30285   9.287   6.802  10.221  0.1469  0.6153  0.0032
  966MOL0     C30286   9.359   6.696  10.139  1.0624 -0.3093  0.3996
  966MOL0     C30287   9.477   6.623  10.200 -0.2338  0.2448 -0.0790
  966MOL0     C30288   9.569   6.554  10.088 -0.4581 -0.2126  0.0223
  966MOL0     C30289   9.508   6.438  10.015  1.1680 -0.8557  0.1002
  966MOL0     C30290   9.567   6.300  10.028  0.1734 -0.6702 -0.4968
  966MOL0     C30291   9.520   6.199   9.923  0.0644  0.7297 -0.0117
  966MOL0     N30292   9.581   6.060   9.920  0.5135 -0.7627 -1.0853
  966MOL0     C30293   9.533   5.956   9.997 -0.1764 -0.2231 -0.4610
  966MOL0     C30294   9.633   5.866  10.002 -0.2150 -0.4469  0.5436
  966MOL0     C30295   9.616   5.731  10.071  0.5163  0.6751 -0.8202
  966MOL0     C30296   9.657   5.726  10.220  0.7380 -0.2214  0.5952
  966MOL0     C30297   9.619   5.605  10.313  0.1704  0.4589  0.6234
  966MOL0     C30298   9.474   5.565  10.316  0.7460  0.2307  1.2379
  966MOL0     O30299   9.437   5.464  10.225  0.8153 -0.2292  0.5158
  966MOL0     C30300   9.418   5.337  10.278 -0.2065  1.1579 -0.6297
  966MOL0     C30301   9.289   5.291  10.321 -0.0803  0.1826  0.0311
  966MOL0     C30302   9.276   5.158  10.361 -0.6575  0.6203 -0.5903
  966MOL0     C30303   9.386   5.073  10.369  0.2240  1.0195 -0.5367
  966MOL0     C30304   9.352   4.936  10.407 -0.1971  1.2080 -0.5796
  966MOL0     O30305   9.460   4.868  10.466  0.0133  0.9126 -0.3819
  966MOL0     C30306   9.452   4.736  10.477 -0.6583  0.7326 -0.2744
  966MOL0     C30307   9.526   4.661  10.392 -0.1189 -0.1006  0.5892
  966MOL0     C30308   9.536   4.521  10.401 -0.8975 -0.5309  0.0720
  966MOL0     C30309   9.462   4.458  10.501 -0.5345 -0.5740  1.0109
  966MOL0     O30310   9.489   4.318  10.498  0.1359 -0.3294 -0.9933
  966MOL0     C30311   9.405   4.223  10.569  0.0871 -0.6124 -0.7851
  966MOL0     C30312   9.470   4.087  10.566  0.6581 -0.1459 -0.5474
  966MOL0     C30313   9.612   4.081  10.629 -0.5495  0.2660 -0.4902
  966MOL0     C30314   9.661   3.934  10.626  0.7420 -0.2102 -0.7432
  966MOL0     C30315   9.811   3.898  10.653  0.0802  0.6497  0.8489
  966MOL0     C30316   9.906   3.949  10.542  0.2129 -0.4734 -0.1249
  966MOL0     C30317  10.056   3.957  10.592 -0.2681 -0.0409  0.5302
  966MOL0     C30318  10.119   3.824  10.642 -0.6469  1.0655 -0.1712
  966MOL0    Cl30319  10.068   3.801  10.812  0.0908  0.2278 -0.0389
  966MOL0     C30320   9.382   4.536  10.591 -0.6572  0.2430  0.4767
  966MOL0     C30321   9.365   4.683  10.575 -0.1669  0.8565  0.1210
  966MOL0     O30322   9.238   4.891  10.386 -0.3196  0.3604 -0.2899
  966MOL0     C30323   9.509   5.121  10.347 -1.1976 -0.0263 -0.0677
  966MOL0     C30324   9.519   5.253  10.307  0.5241 -0.2281 -0.6091
  966MOL0     N30325   9.733   5.921   9.930  0.1700 -0.5248 -0.1716
  966MOL0     N30326   9.709   6.035   9.886  0.3089  0.5224  0.2002
  966MOL0     C30327   8.991   6.916  10.553 -0.1079 -1.3522  0.8131
  966MOL0     C30328   8.855   6.896  10.575 -0.1289 -1.0858  0.4670
  966MOL0     C30329   8.440   6.816  10.545 -0.1606  0.1938  0.1982
  966MOL0     C30330   8.449   6.809  10.685 -0.0728  0.0740 -1.3092
  966MOL0     C30331   8.340   6.830  10.778  0.9908  0.7024  1.3172
  966MOL0     C30332   8.218   6.860  10.720 -0.0149 -0.3683  0.0102
  966MOL0     O30333   8.113   6.898  10.793  0.1292 -0.3054 -0.2979
  966MOL0     C30334   8.110   6.894  10.939  0.0899  0.4168  0.2339
  966MOL0     C30335   7.976   6.921  11.009  0.5406  0.1848 -0.2944
  966MOL0     C30336   7.934   7.069  10.999 -0.8469  0.5227  0.8359
  966MOL0     C30337   7.856   7.091  10.869  0.1427  0.4701 -0.2948
  966MOL0     C30338   7.780   7.210  10.890 -0.3404 -1.8201 -0.8692
  966MOL0     C30339   7.731   7.316  10.898 -0.2827  0.0517  1.0720
  966MOL0     C30340   8.207   6.880  10.582  0.1254 -0.2694 -0.9473
  966MOL0     C30341   8.310   6.846  10.488 -0.6575 -0.0058 -0.7413
  966MOL0     C30342   8.286   6.864  10.339  0.0651 -0.3817  0.2546
  966MOL0     H30343   8.804   6.653  10.354  0.1290 -0.2140 -0.0324
  966MOL0     H30344   9.033   6.705  10.291  0.5388  2.2908 -0.9906
  966MOL0     H30345   9.376   6.747  10.410  0.7222 -2.1368 -2.4423
  966MOL0     H30346   9.221   6.666  10.391 -0.9568  1.8773  2.6396
  966MOL0     H30347   9.350   6.891  10.209 -1.4650  2.1261  1.9771
  966MOL0     H30348   9.193   6.836  10.178 -1.0747 -2.8754 -0.3966
  966MOL0     H30349   9.390   6.746  10.047  0.3759 -0.1265  0.2644
  966MOL0     H30350   9.287   6.629  10.092 -0.5845  0.9464  1.0431
  966MOL0     H30351   9.541   6.690  10.258  2.0306 -1.9613  0.1469
  966MOL0     H30352   9.432   6.545  10.262 -1.5378  1.7063  0.8618
  966MOL0     H30353   9.595   6.628  10.012  3.4422 -0.1966  1.1530
  966MOL0     H30354   9.669   6.522  10.119  0.1973 -3.4937 -4.4463
  966MOL0     H30355   9.400   6.434  10.033  1.1340 -1.8292 -0.2658
  966MOL0     H30356   9.507   6.454   9.907  0.0830 -3.0847 -0.2926
  966MOL0     H30357   9.548   6.253  10.125 -3.3119 -0.9001 -1.1470
  966MOL0     H30358   9.674   6.312  10.014  0.4724 -0.7324  1.4762
  966MOL0     H30359   9.412   6.181   9.934  0.4530 -0.3992  2.4755
  966MOL0     H30360   9.543   6.245   9.826 -2.3679  1.7533 -0.1869
  966MOL0     H30361   9.433   5.925  10.028 -0.0133 -2.4034 -1.8374
  966MOL0     H30362   9.509   5.709  10.063  0.8044 -0.5185 -1.6429
  966MOL0     H30363   9.673   5.658  10.014 -1.3115 -0.0630 -1.7838
  966MOL0     H30364   9.765   5.740  10.215  0.7789 -0.1115  1.6635
  966MOL0     H30365   9.616   5.812  10.274 -0.2677  0.7419 -1.5937
  966MOL0     H30366   9.645   5.624  10.417 -2.5494 -0.6495  1.5881
  966MOL0     H30367   9.684   5.518  10.297  1.3152  1.3916  0.0303
  966MOL0     H30368   9.411   5.654  10.313 -0.6102 -0.7054  0.8050
  966MOL0     H30369   9.457   5.532  10.419 -0.2075 -0.2863  0.9204
  966MOL0     H30370   9.203   5.357  10.317 -0.0772  0.1557 -0.5454
  966MOL0     H30371   9.178   5.118  10.385 -2.3631  2.7993 -3.3485
  966MOL0     H30372   9.583   4.702  10.309  1.6234 -2.2853  0.5982
  966MOL0     H30373   9.590   4.457  10.331  0.7604 -2.9451  3.3115
  966MOL0     H30374   9.405   4.257  10.673  0.2930 -1.5628 -0.4590
  966MOL0     H30375   9.304   4.216  10.527  0.5013  1.0902 -2.2188
  966MOL0     H30376   9.408   4.024  10.630  1.3442  1.2138  1.5994
  966MOL0     H30377   9.468   4.059  10.461  1.3388  1.8896 -1.1515
  966MOL0     H30378   9.676   4.154  10.577 -1.1358  0.7166 -0.5916
  966MOL0     H30379   9.608   4.125  10.729 -3.6823  0.9957 -0.8383
  966MOL0     H30380   9.632   3.897  10.528  3.1649  2.6073 -2.7123
  966MOL0     H30381   9.605   3.875  10.699 -1.7435  0.9858 -1.5494
  966MOL0     H30382   9.829   3.790  10.653  1.7047  0.8896  1.1218
  966MOL0     H30383   9.832   3.946  10.749 -0.3481 -2.4460  2.6179
  966MOL0     H30384   9.894   3.878  10.460 -2.0472 -1.8523  1.2963
  966MOL0     H30385   9.879   4.053  10.519 -1.7395  0.0470  3.6516
  966MOL0     H30386  10.062   4.030  10.673  0.7679 -0.8877  1.2484
  966MOL0     H30387  10.117   3.996  10.510 -1.1018 -2.9532 -1.6514
  966MOL0     H30388  10.080   3.747  10.575  2.2338 -1.2579  0.5969
  966MOL0     H30389  10.228   3.829  10.640 -0.2254 -3.6224 -0.8021
  966MOL0     H30390   9.332   4.495  10.677 -0.3925  1.0052  1.0102
  966MOL0     H30391   9.303   4.748  10.635 -1.1954 -2.9921  3.6719
  966MOL0     H30392   9.600   5.067  10.373  1.1804  2.4611 -2.5169
  966MOL0     H30393   9.619   5.293  10.296 -0.0825  2.0248  1.2354
  966MOL0     H30394   9.060   6.967  10.620 -0.8133  0.8804 -0.0853
  966MOL0     H30395   8.813   6.964  10.648 -0.4859  1.2746 -1.7798
  966MOL0     H30396   8.543   6.783  10.732  1.6977  3.6204 -2.5030
  966MOL0     H30397   8.350   6.818  10.885 -2.1587  3.1034  2.0269
  966MOL0     H30398   8.189   6.956  10.981 -0.1074  0.1874  0.9527
  966MOL0     H30399   8.144   6.805  10.992  0.1951  0.5238  0.3475
  966MOL0     H30400   8.000   6.897  11.113  2.1019 -1.6956 -1.0156
  966MOL0     H30401   7.887   6.858  10.994  1.4254 -0.7620 -1.9474
  966MOL0     H30402   8.025   7.129  10.992 -1.2603  1.1291  0.5791
  966MOL0     H30403   7.874   7.088  11.088 -1.4172 -2.5469  1.2225
  966MOL0     H30404   7.924   7.097  10.783  1.0105 -1.3734  0.2174
  966MOL0     H30405   7.787   7.006  10.862  1.5058 -0.5997 -1.3788
  966MOL0     H30406   7.679   7.409  10.894 -0.4769 -0.0898 -1.3509
  966MOL0     H30407   8.118   6.937  10.555 -0.9193 -1.0775  0.6599
  966MOL0     H30408   8.331   6.786  10.277  0.7173 -0.2577  0.5638
  966MOL0     H30409   8.178   6.864  10.322  0.4165 -1.2525 -2.5301
  966MOL0     H30410   8.327   6.955  10.294 -3.4082  0.4294 -1.5753
  967MOL0     O30411   9.636   7.167   0.435 -0.6786  0.3869 -0.4103
  967MOL0     C30412   9.620   7.121   0.547 -0.2469  0.0599 -0.8184
  967MOL0     O30413   9.600   6.985   0.567 -0.9872  0.3629  0.4501
  967MOL0     C30414   9.612   6.898   0.469 -0.4569  0.3264 -0.7781
  967MOL0     C30415   9.522   6.870   0.369 -0.2595 -0.3388  0.2189
  967MOL0     C30416   9.545   6.766   0.273 -0.0605 -0.2816  0.8991
  967MOL0     C30417   9.652   6.677   0.286 -0.0707 -0.5055 -0.3708
  967MOL0     O30418   9.648   6.580   0.193  0.0385  0.1892 -0.0812
  967MOL0     C30419   9.669   6.450   0.252 -0.2764 -0.2372  0.1305
  967MOL0     C30420   9.635   6.328   0.170  0.1244  0.7723 -0.1090
  967MOL0     C30421   9.704   6.334   0.035  0.6695  0.9937  1.5402
  967MOL0     C30422   9.669   6.233  -0.074  0.0888  0.7468 -0.6123
  967MOL0     C30423   9.716   6.282  -0.211 -0.1122  0.0281 -0.1311
  967MOL0     C30424   9.859   6.336  -0.231  0.6812 -1.0728  0.4351
  967MOL0     C30425   9.965   6.236  -0.196  0.5702  0.1415  0.9851
  967MOL0     C30426   9.970   6.100  -0.283  0.1953  0.0098  0.3062
  967MOL0     N30427  10.107   6.053  -0.325 -0.2214  0.6968 -0.3489
  967MOL0     C30428  10.203   5.990  -0.242  0.5706  0.3918  0.2734
  967MOL0     C30429  10.315   5.976  -0.322  0.3394 -0.2913 -0.0385
  967MOL0     C30430  10.441   5.900  -0.280  0.8795  0.2836 -0.5035
  967MOL0     C30431  10.510   5.961  -0.161 -0.1615 -0.2264  0.6486
  967MOL0     C30432  10.634   5.883  -0.142 -0.2520 -1.0849  0.5061
  967MOL0     C30433  10.692   5.940  -0.005  0.4630  0.0043 -0.4346
  967MOL0     O30434  10.613   5.894   0.111  0.5347 -0.8580 -0.5347
  967MOL0     C30435  10.594   5.759   0.117 -0.4418 -0.6543 -0.0316
  967MOL0     C30436  10.469   5.722   0.165 -1.1978  0.2454 -0.2732
  967MOL0     C30437  10.448   5.583   0.211 -0.8693 -0.4784 -0.5494
  967MOL0     C30438  10.553   5.492   0.190  1.4032 -0.3148 -0.0253
  967MOL0     C30439  10.545   5.344   0.225  0.2938 -0.4143  0.8105
  967MOL0     O30440  10.630   5.254   0.158 -0.8822  0.6251 -0.0199
  967MOL0     C30441  10.604   5.123   0.195  0.4413 -0.1807 -0.4582
  967MOL0     C30442  10.688   5.065   0.285  0.1731 -0.3448  0.3819
  967MOL0     C30443  10.659   4.940   0.338 -1.2729 -0.2005 -0.0973
  967MOL0     C30444  10.540   4.876   0.318  1.6949  0.1457  0.0809
  967MOL0     O30445  10.505   4.762   0.390 -0.3025 -0.5745 -0.4066
  967MOL0     C30446  10.370   4.725   0.436  0.0971 -0.0682  0.1842
  967MOL0     C30447  10.386   4.598   0.515  0.2159  0.4444  0.2209
  967MOL0     C30448  10.471   4.498   0.440 -0.1150 -0.4245  0.2590
  967MOL0     C30449  10.396   4.359   0.441  0.1527  0.0046 -0.7072
  967MOL0     C30450  10.456   4.251   0.357  0.4476 -0.5667 -0.2972
  967MOL0     C30451  10.366   4.195   0.238 -0.5814  0.0121 -0.2743
  967MOL0     C30452  10.330   4.294   0.133 -0.3044  0.6704  0.1631
  967MOL0     C30453  10.206   4.245   0.053 -0.1932 -0.4768  0.3081
  967MOL0    Cl30454  10.162   4.377  -0.063  0.4078  0.2654 -0.1149
  967MOL0     C30455  10.454   4.939   0.228  0.5743  0.0832  0.1885
  967MOL0     C30456  10.484   5.062   0.161  0.8674  0.3604 -0.1706
  967MOL0     O30457  10.463   5.315   0.313 -0.2676  0.7747 -0.8613
  967MOL0     C30458  10.665   5.538   0.129 -0.4984  0.1294  0.1333
  967MOL0     C30459  10.692   5.670   0.099 -0.2084  0.8688  0.5979
  967MOL0     N30460  10.293   6.041  -0.439 -0.7676  0.1710  0.4777
  967MOL0     N30461  10.174   6.080  -0.442 -0.6298 -0.5059  0.2816
  967MOL0     C30462   9.741   6.709   0.388 -0.7623 -0.4720 -0.5801
  967MOL0     C30463   9.731   6.822   0.474 -0.4310 -0.5119  0.2533
  967MOL0     C30464   9.611   7.215   0.667  0.2462  0.9412 -0.1899
  967MOL0     C30465   9.519   7.184   0.767 -0.3858 -0.0822 -0.2903
  967MOL0     C30466   9.500   7.266   0.882 -0.5042  0.8502 -0.8596
  967MOL0     C30467   9.593   7.372   0.902 -0.6973  1.4677  0.2600
  967MOL0     O30468   9.572   7.447   1.016  0.0372  0.2136 -0.4744
  967MOL0     C30469   9.667   7.542   1.058 -0.6556  0.7422 -0.0173
  967MOL0     C30470   9.651   7.575   1.209  0.0605 -1.3708  0.3116
  967MOL0     C30471   9.741   7.698   1.257 -0.0673  0.1445 -0.7058
  967MOL0     C30472   9.674   7.832   1.217 -1.1949  0.9253 -0.5752
  967MOL0     C30473   9.765   7.934   1.275  0.0356 -0.7506  0.6349
  967MOL0     C30474   9.845   8.011   1.318 -0.5467 -0.1276 -0.0453
  967MOL0     C30475   9.684   7.400   0.799  0.8825  0.0057  0.5673
  967MOL0     C30476   9.703   7.325   0.680  0.4750  1.1393 -1.2743
  967MOL0     C30477   9.809   7.351   0.578 -0.4249  0.2630  1.1040
  967MOL0     H30478   9.439   6.935   0.342  0.5736  0.7213  0.1554
  967MOL0     H30479   9.481   6.751   0.186  0.5895  0.3691  0.2985
  967MOL0     H30480   9.776   6.433   0.270 -0.6458 -1.3239  1.4291
  967MOL0     H30481   9.604   6.429   0.338 -3.5399 -0.6957 -2.2544
  967MOL0     H30482   9.526   6.330   0.161 -0.0633 -0.3756  1.5014
  967MOL0     H30483   9.654   6.230   0.215 -2.2375  1.2055  2.0636
  967MOL0     H30484   9.811   6.321   0.051  0.8863  2.5750  1.5394
  967MOL0     H30485   9.687   6.432  -0.010  1.8041  1.0987  1.3218
  967MOL0     H30486   9.719   6.139  -0.051 -1.9259 -0.0150  0.9977
  967MOL0     H30487   9.561   6.219  -0.081  0.2885 -0.1611 -2.7551
  967MOL0     H30488   9.706   6.213  -0.295  1.4148  0.8339 -1.0291
  967MOL0     H30489   9.646   6.366  -0.220 -2.5476 -1.9047 -0.3278
  967MOL0     H30490   9.874   6.359  -0.337  1.8386  0.9658  0.9904
  967MOL0     H30491   9.875   6.425  -0.170  2.3421  0.0922 -1.5795
  967MOL0     H30492   9.966   6.209  -0.090  1.0251 -2.5961  0.3490
  967MOL0     H30493  10.062   6.283  -0.212  0.2036  0.4127 -0.5614
  967MOL0     H30494   9.935   6.014  -0.225 -0.5990  1.3084  1.8297
  967MOL0     H30495   9.906   6.120  -0.370 -0.4071  4.5049  1.5125
  967MOL0     H30496  10.185   5.968  -0.137  1.8237  4.2990  1.4776
  967MOL0     H30497  10.406   5.798  -0.263 -2.1979  1.3170  0.0521
  967MOL0     H30498  10.517   5.900  -0.359 -0.2686  3.3429 -1.7644
  967MOL0     H30499  10.527   6.066  -0.183 -2.9299  0.2219  0.3242
  967MOL0     H30500  10.433   5.949  -0.084  1.8720  1.2851  3.0547
  967MOL0     H30501  10.703   5.907  -0.223 -0.7414 -1.7316 -0.1057
  967MOL0     H30502  10.624   5.775  -0.137  1.6390 -1.2590  1.4778
  967MOL0     H30503  10.680   6.048   0.006 -1.3099 -0.3889  2.7572
  967MOL0     H30504  10.797   5.909   0.007 -0.1874 -1.6761  1.6058
  967MOL0     H30505  10.397   5.797   0.196 -2.9870 -0.5633 -2.2539
  967MOL0     H30506  10.353   5.553   0.255 -1.7953  1.0204 -1.4414
  967MOL0     H30507  10.779   5.121   0.303 -0.0564 -1.0421  4.9398
  967MOL0     H30508  10.722   4.894   0.414 -1.4703 -1.7929 -0.8463
  967MOL0     H30509  10.319   4.804   0.492 -0.1160 -0.4460  0.5311
  967MOL0     H30510  10.300   4.714   0.353  0.0604  0.4100  0.1507
  967MOL0     H30511  10.424   4.623   0.615 -0.6432 -0.8409  0.8904
  967MOL0     H30512  10.291   4.549   0.536  0.9847 -0.1153  2.7637
  967MOL0     H30513  10.468   4.536   0.338 -2.3709  0.0345  0.4328
  967MOL0     H30514  10.573   4.494   0.479  1.9284 -0.7084 -4.4611
  967MOL0     H30515  10.288   4.361   0.419  0.1371 -1.4997 -0.8615
  967MOL0     H30516  10.388   4.337   0.548 -3.5156 -1.8563 -1.1868
  967MOL0     H30517  10.478   4.173   0.429 -0.3200  0.8979  1.6062
  967MOL0     H30518  10.556   4.281   0.323 -0.3708  0.8073 -1.6496
  967MOL0     H30519  10.422   4.106   0.207 -0.0438 -0.9194  2.9555
  967MOL0     H30520  10.271   4.164   0.283 -0.5323  1.1329  0.6559
  967MOL0     H30521  10.410   4.304   0.059  0.4091 -3.5799  0.0859
  967MOL0     H30522  10.301   4.392   0.171 -1.9987 -0.9966  3.5598
  967MOL0     H30523  10.226   4.155  -0.007 -0.4111 -0.8444  0.7811
  967MOL0     H30524  10.123   4.213   0.117  0.2396 -0.4025  0.9175
  967MOL0     H30525  10.365   4.878   0.215 -0.9073  1.6856  2.2720
  967MOL0     H30526  10.415   5.099   0.086 -0.1739 -0.9613  0.1117
  967MOL0     H30527  10.744   5.467   0.105 -2.0201 -2.2329  1.6541
  967MOL0     H30528  10.788   5.718   0.081 -0.6360  2.1382  1.5374
  967MOL0     H30529   9.830   6.649   0.406 -1.7218 -3.5289 -4.6418
  967MOL0     H30530   9.822   6.830   0.532 -0.4122 -1.4012  0.3608
  967MOL0     H30531   9.445   7.113   0.731  2.7992 -2.2095 -3.4317
  967MOL0     H30532   9.437   7.254   0.970 -0.4272  1.2106 -0.7557
  967MOL0     H30533   9.652   7.632   0.997  0.3043  1.0995  0.2636
  967MOL0     H30534   9.766   7.497   1.056 -1.0511 -0.3103  1.9479
  967MOL0     H30535   9.689   7.483   1.254 -3.1232 -2.7545  0.4518
  967MOL0     H30536   9.545   7.588   1.234  0.4259 -0.4917  1.5057
  967MOL0     H30537   9.840   7.696   1.211  0.4197 -0.0648  0.3275
  967MOL0     H30538   9.746   7.684   1.366 -0.3028 -0.5448 -0.7808
  967MOL0     H30539   9.655   7.851   1.111 -1.9055 -0.1494 -0.6560
  967MOL0     H30540   9.582   7.825   1.276 -0.4515 -1.9296  0.3951
  967MOL0     H30541   9.928   8.067   1.359 -0.2611 -1.7427  1.7547
  967MOL0     H30542   9.735   7.496   0.794 -1.4438  1.2685 -2.7032
  967MOL0     H30543   9.862   7.258   0.559 -1.4922 -0.3733  1.1650
  967MOL0     H30544   9.771   7.393   0.484 -2.1638 -0.5457  1.4080
  967MOL0     H30545   9.880   7.429   0.608 -0.2666  0.8563 -0.7066
  968MOL0     O30546   0.166   6.678   6.222 -0.2060  0.0167  0.3261
  968MOL0     C30547   0.143   6.559   6.198 -0.3601 -0.9603  0.1232
  968MOL0     O30548   0.067   6.469   6.275 -0.0755  0.1634 -0.2439
  968MOL0     C30549   0.018   6.513   6.403 -0.4900 -0.0967 -0.5919
  968MOL0     C30550  -0.098   6.583   6.422 -0.2602 -0.3212 -0.2398
  968MOL0     C30551  -0.144   6.607   6.548  0.2601 -1.0408 -1.1493
  968MOL0     C30552  -0.066   6.570   6.660  0.8388  0.1521 -1.1296
  968MOL0     O30553  -0.082   6.615   6.799 -0.1950 -0.0802  1.0079
  968MOL0     C30554  -0.169   6.726   6.817 -0.0541 -0.4393  0.1582
  968MOL0     C30555  -0.097   6.800   6.934 -0.5320 -0.0375 -0.2051
  968MOL0     C30556  -0.153   6.942   6.932 -0.3817  0.1636 -0.2371
  968MOL0     C30557  -0.295   6.968   6.998 -0.5855 -0.1297 -0.6569
  968MOL0     C30558  -0.317   7.122   6.981 -0.2575  0.2263 -1.6481
  968MOL0     C30559  -0.454   7.158   7.026  0.2632 -0.3913  0.2136
  968MOL0     C30560  -0.511   7.290   6.983 -0.2755  1.0620 -0.4346
  968MOL0     C30561  -0.591   7.289   6.849 -0.7940  0.0381  0.7910
  968MOL0     N30562  -0.666   7.414   6.846  0.0940 -0.2708 -0.6215
  968MOL0     C30563  -0.625   7.544   6.850 -0.4562  0.4846  0.1856
  968MOL0     C30564  -0.743   7.615   6.837 -0.4557  1.0186 -0.1353
  968MOL0     C30565  -0.762   7.763   6.839 -0.1702 -0.4220  0.4130
  968MOL0     C30566  -0.699   7.820   6.708 -0.2805 -0.3710  0.2966
  968MOL0     C30567  -0.693   7.973   6.701  0.8833 -0.7492  0.3876
  968MOL0     C30568  -0.648   8.032   6.565  0.4286  0.5259  0.2125
  968MOL0     O30569  -0.513   7.992   6.537  0.5327 -0.2028  0.6116
  968MOL0     C30570  -0.470   8.026   6.409 -0.5398  0.0820 -0.6089
  968MOL0     C30571  -0.545   8.087   6.306  0.6600 -0.9638 -0.0671
  968MOL0     C30572  -0.473   8.106   6.177  0.7454 -0.8238 -0.8052
  968MOL0     C30573  -0.335   8.073   6.160 -0.0606 -0.5143 -0.1210
  968MOL0     C30574  -0.257   8.091   6.035 -0.5199  0.5284 -0.8744
  968MOL0     O30575  -0.132   8.063   6.025 -0.0359  0.3844 -0.4738
  968MOL0     C30576  -0.060   8.089   5.920 -0.7460 -0.3266  1.3335
  968MOL0     C30577   0.061   8.163   5.919 -0.2544 -0.5293  0.2782
  968MOL0     C30578   0.145   8.174   5.816  0.0977 -0.3119  0.6647
  968MOL0     C30579   0.114   8.126   5.693 -0.7267 -0.1580 -0.3141
  968MOL0     O30580   0.187   8.150   5.575 -0.1432  0.7302 -0.3672
  968MOL0     C30581   0.326   8.134   5.586 -0.2983 -0.4490 -0.0040
  968MOL0     C30582   0.362   8.016   5.682  0.2747  0.7498  0.5627
  968MOL0     C30583   0.514   7.978   5.669  0.3656  0.5149 -1.0517
  968MOL0     C30584   0.593   8.104   5.713  0.0363  0.0035  0.2601
  968MOL0     C30585   0.748   8.064   5.728  0.6610 -0.0440  0.2937
  968MOL0     C30586   0.839   8.184   5.741 -0.0124  0.7776  0.3864
  968MOL0     C30587   0.846   8.283   5.622 -0.1762  0.2126  0.0948
  968MOL0     C30588   0.926   8.231   5.506 -0.6427  1.0016  0.3854
  968MOL0    Cl30589   1.017   8.364   5.432  0.6564  0.1967  0.1291
  968MOL0     C30590  -0.003   8.064   5.686  0.9282 -0.0754  0.7264
  968MOL0     C30591  -0.089   8.035   5.795 -0.2506  0.7266 -0.0804
  968MOL0     O30592  -0.328   8.150   5.953  0.8378 -0.7295  1.0003
  968MOL0     C30593  -0.279   7.999   6.266  0.9529  1.1137 -0.3088
  968MOL0     C30594  -0.347   7.980   6.381 -0.5893 -0.7027 -0.3125
  968MOL0     N30595  -0.843   7.527   6.812 -0.2184 -0.7735 -0.1021
  968MOL0     N30596  -0.796   7.408   6.803  0.4200 -0.2847  0.6112
  968MOL0     C30597   0.052   6.510   6.637 -0.1228 -0.0844 -0.2224
  968MOL0     C30598   0.096   6.475   6.510  1.0120 -0.1607  0.0662
  968MOL0     C30599   0.206   6.502   6.074 -0.2430 -0.0762 -0.7466
  968MOL0     C30600   0.255   6.367   6.082  0.2196 -0.6270 -0.3923
  968MOL0     C30601   0.329   6.305   5.979  0.4530 -0.5853 -0.0713
  968MOL0     C30602   0.361   6.382   5.860  0.7697 -0.3523  0.2901
  968MOL0     O30603   0.431   6.340   5.756 -0.2728 -0.0949  0.2284
  968MOL0     C30604   0.428   6.191   5.737 -0.0634  0.1715  0.9993
  968MOL0     C30605   0.487   6.148   5.610 -0.3403 -1.0723 -0.2433
  968MOL0     C30606   0.639   6.190   5.606 -0.0156  0.0806  0.1488
  968MOL0     C30607   0.661   6.282   5.480 -0.2637  0.2895 -0.5253
  968MOL0     C30608   0.809   6.318   5.491  0.2662 -0.4426  0.4818
  968MOL0     C30609   0.932   6.329   5.500 -0.3162  0.5598 -0.2105
  968MOL0     C30610   0.303   6.509   5.838 -0.9153 -0.2112  0.4598
  968MOL0     C30611   0.221   6.557   5.948  0.7645  0.2329  0.1748
  968MOL0     C30612   0.147   6.690   5.923  0.0586  0.5826 -0.2124
  968MOL0     H30613  -0.144   6.613   6.328  0.9078 -2.7422 -1.7145
  968MOL0     H30614  -0.249   6.635   6.550 -0.5503 -3.4499  3.2758
  968MOL0     H30615  -0.180   6.789   6.728  3.7375  1.4682  0.8312
  968MOL0     H30616  -0.269   6.693   6.847 -0.5279  2.2632  1.8678
  968MOL0     H30617   0.010   6.809   6.914 -0.5215 -0.8116 -0.5529
  968MOL0     H30618  -0.096   6.739   7.024  0.5780  1.6634  0.9921
  968MOL0     H30619  -0.145   6.973   6.827 -0.5752 -1.8678 -0.8986
  968MOL0     H30620  -0.085   7.007   6.986  4.0495 -4.1257  0.0087
  968MOL0     H30621  -0.375   6.916   6.946 -0.5229  1.0215 -1.9377
  968MOL0     H30622  -0.308   6.949   7.105  0.0194  0.7612 -0.4096
  968MOL0     H30623  -0.247   7.173   7.048 -2.2325 -0.1237  0.8609
  968MOL0     H30624  -0.299   7.144   6.876 -1.9404 -1.9221 -2.4736
  968MOL0     H30625  -0.512   7.076   6.981  1.6464 -0.7660 -0.9544
  968MOL0     H30626  -0.455   7.171   7.134 -0.0708  3.7779 -0.1304
  968MOL0     H30627  -0.433   7.366   6.979 -1.6526  2.8844  2.8840
  968MOL0     H30628  -0.584   7.319   7.059  0.4111  0.9075  0.3001
  968MOL0     H30629  -0.520   7.291   6.765 -1.6020 -1.3133  0.0356
  968MOL0     H30630  -0.652   7.198   6.849 -0.7151 -0.0572 -0.8425
  968MOL0     H30631  -0.528   7.592   6.858 -0.8292  1.2481  0.2067
  968MOL0     H30632  -0.869   7.782   6.839 -0.6138 -2.5917  1.2987
  968MOL0     H30633  -0.720   7.808   6.930 -1.5104  1.3129  0.2085
  968MOL0     H30634  -0.599   7.777   6.693  2.1341  4.3026  0.8732
  968MOL0     H30635  -0.767   7.784   6.630 -1.7301  0.3040  1.2061
  968MOL0     H30636  -0.617   8.005   6.773 -1.9210  1.1706  2.7345
  968MOL0     H30637  -0.779   8.023   6.748  2.2804  2.0687  0.1411
  968MOL0     H30638  -0.662   8.140   6.566 -1.7344  0.2785  0.5989
  968MOL0     H30639  -0.706   7.994   6.480 -1.3555  2.8425  0.3059
  968MOL0     H30640  -0.651   8.108   6.317  0.7728 -0.0803 -0.5885
  968MOL0     H30641  -0.526   8.142   6.089  3.7364  1.8232 -1.7361
  968MOL0     H30642   0.103   8.210   6.007  0.7587 -0.5370 -0.1912
  968MOL0     H30643   0.235   8.230   5.837  0.3420 -0.7944  0.9178
  968MOL0     H30644   0.370   8.100   5.491  1.9678 -2.4245  1.6361
  968MOL0     H30645   0.373   8.229   5.609 -1.1974  0.1499 -0.5502
  968MOL0     H30646   0.345   8.044   5.786  0.5785  3.5792 -0.0581
  968MOL0     H30647   0.302   7.933   5.645 -0.9450  1.8152  0.0592
  968MOL0     H30648   0.532   7.888   5.728 -2.6808  0.8354  0.5109
  968MOL0     H30649   0.539   7.963   5.563  1.1839 -1.1904 -0.6538
  968MOL0     H30650   0.557   8.138   5.810 -1.7462  1.3569 -0.8148
  968MOL0     H30651   0.574   8.177   5.634  2.0120  0.4601  0.1519
  968MOL0     H30652   0.778   8.005   5.642  4.9306  1.4089  0.5459
  968MOL0     H30653   0.750   8.005   5.820 -3.6659 -1.0862 -0.0546
  968MOL0     H30654   0.800   8.246   5.822 -0.8276  2.4619 -1.2308
  968MOL0     H30655   0.937   8.135   5.753 -0.6041 -0.3989  0.5433
  968MOL0     H30656   0.893   8.369   5.670  1.7387 -1.8868  2.2252
  968MOL0     H30657   0.746   8.307   5.584  0.4043  1.5053 -0.6908
  968MOL0     H30658   0.996   8.157   5.546 -0.6413  2.0474  2.4306
  968MOL0     H30659   0.866   8.181   5.429  0.6445 -0.8819  0.5420
  968MOL0     H30660  -0.033   8.024   5.589  1.7024  0.7009  0.1544
  968MOL0     H30661  -0.176   7.979   5.764  0.6529  0.3003 -2.0121
  968MOL0     H30662  -0.176   7.964   6.266  0.3390 -0.8105  0.3764
  968MOL0     H30663  -0.296   7.931   6.464 -0.3581 -1.3805 -0.8528
  968MOL0     H30664   0.124   6.491   6.716  1.0703 -0.4594 -1.3685
  968MOL0     H30665   0.186   6.417   6.494  0.6761 -0.3860 -1.0793
  968MOL0     H30666   0.254   6.311   6.174  3.2142  2.8597  2.0576
  968MOL0     H30667   0.375   6.207   5.969  0.0777 -0.6545 -1.3415
  968MOL0     H30668   0.321   6.171   5.746 -0.1073 -1.0686 -1.3953
  968MOL0     H30669   0.481   6.129   5.810  0.6978 -0.7342 -0.2791
  968MOL0     H30670   0.428   6.195   5.531  0.2587  0.8607  0.4009
  968MOL0     H30671   0.472   6.040   5.604 -0.8388 -1.0429  0.4432
  968MOL0     H30672   0.700   6.099   5.595 -0.2710  0.2018 -3.7588
  968MOL0     H30673   0.671   6.246   5.694  2.0602  0.7268 -0.9302
  968MOL0     H30674   0.632   6.228   5.390  0.0059  0.3132 -0.6271
  968MOL0     H30675   0.600   6.373   5.484 -5.0816 -2.5939  0.0756
  968MOL0     H30676   1.039   6.333   5.509 -0.3571  0.4140  0.4028
  968MOL0     H30677   0.321   6.571   5.751 -1.9970 -1.5337 -0.7502
  968MOL0     H30678   0.128   6.702   5.816 -0.3710  1.1842 -0.0736
  968MOL0     H30679   0.051   6.699   5.974  0.3327  1.9985  0.1140
  968MOL0     H30680   0.222   6.760   5.962 -1.7003  0.9188  2.8898
  969MOL0     O30681   5.618   4.703   2.450 -0.1190 -0.4552  0.0956
  969MOL0     C30682   5.605   4.694   2.569  0.8569  0.0471 -0.1783
  969MOL0     O30683   5.611   4.786   2.656  0.1228  0.4990  0.0781
  969MOL0     C30684   5.682   4.900   2.612  0.4846  0.2608  0.2649
  969MOL0     C30685   5.802   4.927   2.680 -0.1521 -0.1320  0.2929
  969MOL0     C30686   5.874   5.041   2.637  0.4156 -0.0489  0.6269
  969MOL0     C30687   5.823   5.136   2.545  0.7919  0.4174  0.2775
  969MOL0     O30688   5.894   5.248   2.526 -0.1114  0.0921 -0.2310
  969MOL0     C30689   5.839   5.336   2.422 -0.7616  0.2980  0.0081
  969MOL0     C30690   5.919   5.316   2.290  0.2213 -0.4189 -0.5587
  969MOL0     C30691   5.866   5.201   2.207  0.1767  0.2111 -0.2588
  969MOL0     C30692   5.937   5.196   2.071 -0.2320 -0.1184 -0.6190
  969MOL0     C30693   5.861   5.125   1.960  0.3141 -0.4526 -0.2207
  969MOL0     C30694   5.742   5.209   1.898 -0.2122 -0.7764 -0.4301
  969MOL0     C30695   5.687   5.157   1.777  0.0401 -0.5041 -0.3670
  969MOL0     C30696   5.706   5.248   1.658  0.2649 -0.3096  0.5666
  969MOL0     N30697   5.592   5.274   1.567  0.3456  0.4527 -0.3670
  969MOL0     C30698   5.492   5.355   1.612 -0.4906 -0.4329  0.9461
  969MOL0     C30699   5.408   5.363   1.503 -0.1922  0.6793  0.1660
  969MOL0     C30700   5.292   5.446   1.481 -0.2710  0.2498 -0.0514
  969MOL0     C30701   5.201   5.387   1.363 -0.6895 -0.8997  0.6597
  969MOL0     C30702   5.077   5.468   1.317  0.4688 -0.4456 -0.0396
  969MOL0     C30703   4.985   5.526   1.423  0.0530 -0.2267  0.6755
  969MOL0     O30704   5.052   5.643   1.465  0.6256 -0.0201 -0.4217
  969MOL0     C30705   4.979   5.754   1.479  0.8665 -0.4748  0.0579
  969MOL0     C30706   4.976   5.856   1.377  0.3061 -1.1665 -0.4793
  969MOL0     C30707   4.887   5.965   1.387  0.8052 -0.5189 -0.4599
  969MOL0     C30708   4.810   5.975   1.509 -0.3803 -0.3543  0.0145
  969MOL0     C30709   4.719   6.094   1.518 -0.4051  0.2362  0.7661
  969MOL0     O30710   4.687   6.133   1.644  0.3663  0.4192  0.2345
  969MOL0     C30711   4.606   6.238   1.652  0.8157 -0.2695 -0.2871
  969MOL0     C30712   4.463   6.228   1.657 -0.3172 -0.8020  0.5981
  969MOL0     C30713   4.393   6.337   1.713 -1.4703  0.0898 -1.0602
  969MOL0     C30714   4.456   6.459   1.746  0.9707  0.6821  0.3134
  969MOL0     O30715   4.379   6.561   1.789  0.0741 -0.3663 -0.4165
  969MOL0     C30716   4.260   6.529   1.858  0.6376 -0.2931 -0.3796
  969MOL0     C30717   4.215   6.640   1.956  0.3946 -1.0720  0.7907
  969MOL0     C30718   4.139   6.757   1.879  0.3458 -0.6042  0.1602
  969MOL0     C30719   4.171   6.894   1.933  1.9176  0.0641 -0.4819
  969MOL0     C30720   4.062   6.942   2.033  0.9095 -0.1847  0.7852
  969MOL0     C30721   4.097   7.081   2.078  0.0681  0.1987 -0.3472
  969MOL0     C30722   3.985   7.137   2.170 -0.0394 -0.5835  0.8133
  969MOL0     C30723   3.973   7.292   2.145 -0.4086  0.0349 -0.3290
  969MOL0    Cl30724   3.821   7.345   2.221  0.2973  0.8045 -0.2456
  969MOL0     C30725   4.599   6.471   1.737 -0.9858  0.8186 -0.9316
  969MOL0     C30726   4.674   6.355   1.695  0.2547  0.8691 -0.3336
  969MOL0     O30727   4.689   6.155   1.415  0.2723 -0.0105 -0.3334
  969MOL0     C30728   4.809   5.872   1.605 -0.4290  0.0597  0.4377
  969MOL0     C30729   4.892   5.759   1.585 -0.6130 -0.6865 -0.9203
  969MOL0     N30730   5.455   5.280   1.399  0.7163  0.1706  0.6679
  969MOL0     N30731   5.568   5.239   1.438  0.6931  0.7035 -0.1947
  969MOL0     C30732   5.697   5.106   2.483 -0.7617  0.7916 -0.8177
  969MOL0     C30733   5.631   4.985   2.521  0.2274 -0.3270 -0.0224
  969MOL0     C30734   5.541   4.564   2.616 -0.1539 -0.0181 -0.0585
  969MOL0     C30735   5.438   4.591   2.714  0.4965 -0.2949  0.9536
  969MOL0     C30736   5.377   4.491   2.789 -0.2042  0.0478 -0.3849
  969MOL0     C30737   5.426   4.364   2.777  0.5081 -0.0574 -1.6044
  969MOL0     O30738   5.378   4.286   2.874 -0.4373  0.7500  0.4260
  969MOL0     C30739   5.409   4.150   2.889 -1.0814  0.1432 -0.0605
  969MOL0     C30740   5.416   4.134   3.037 -0.1511  0.5783  0.3364
  969MOL0     C30741   5.390   3.979   3.067  0.5773 -0.0196  0.4534
  969MOL0     C30742   5.464   3.925   3.185  0.5528  0.7614 -0.2524
  969MOL0     C30743   5.414   3.787   3.217 -0.3922 -0.5427  0.3936
  969MOL0     C30744   5.373   3.674   3.233 -0.0043  0.5257  0.1221
  969MOL0     C30745   5.534   4.325   2.688  0.8450 -0.1480 -0.0500
  969MOL0     C30746   5.578   4.425   2.603  0.6111  0.3672  1.0356
  969MOL0     C30747   5.689   4.414   2.512  0.8727  0.0565 -0.3623
  969MOL0     H30748   5.829   4.868   2.767 -1.7740 -2.6491 -0.7840
  969MOL0     H30749   5.965   5.072   2.687  0.9589 -3.0119  1.6850
  969MOL0     H30750   5.731   5.345   2.411 -1.1575 -0.2301  2.7283
  969MOL0     H30751   5.874   5.439   2.439  3.6517 -0.8944 -0.4882
  969MOL0     H30752   6.026   5.305   2.314 -0.3984 -1.0817  2.2608
  969MOL0     H30753   5.911   5.412   2.240 -0.3047 -0.2031 -0.0627
  969MOL0     H30754   5.760   5.224   2.194 -0.3309  1.0991  3.9617
  969MOL0     H30755   5.874   5.101   2.249 -1.1123 -0.2626 -1.0895
  969MOL0     H30756   5.963   5.295   2.031 -1.1105  0.5067  0.3026
  969MOL0     H30757   6.025   5.133   2.085 -0.5847 -0.6143 -0.6268
  969MOL0     H30758   5.934   5.105   1.881 -1.5701  3.4233 -3.2097
  969MOL0     H30759   5.827   5.026   1.992 -0.4609 -0.3482 -0.7153
  969MOL0     H30760   5.659   5.223   1.968 -1.6312  0.9142 -2.3029
  969MOL0     H30761   5.781   5.310   1.880 -0.3246 -1.1122 -2.9121
  969MOL0     H30762   5.579   5.148   1.789 -0.1561  1.7209 -0.0074
  969MOL0     H30763   5.730   5.057   1.770  1.4592  0.0477  0.1658
  969MOL0     H30764   5.731   5.351   1.686 -3.4484  1.7403 -2.7382
  969MOL0     H30765   5.787   5.209   1.596 -1.5555  1.4483 -3.2705
  969MOL0     H30766   5.485   5.423   1.696 -0.7215  1.9082 -0.8417
  969MOL0     H30767   5.223   5.441   1.566 -1.9074  0.0217 -1.3536
  969MOL0     H30768   5.320   5.551   1.467  1.3757 -0.3907 -2.0543
  969MOL0     H30769   5.260   5.387   1.271 -2.1285 -0.9863 -0.2896
  969MOL0     H30770   5.163   5.286   1.382 -1.5681 -0.9994 -1.3295
  969MOL0     H30771   5.020   5.400   1.253  1.3505 -3.2335  1.9384
  969MOL0     H30772   5.117   5.549   1.255 -1.1099 -1.4128 -2.4499
  969MOL0     H30773   4.981   5.453   1.505  0.9046 -1.3347 -0.2383
  969MOL0     H30774   4.893   5.549   1.370 -0.4033  1.1368  2.0033
  969MOL0     H30775   5.039   5.842   1.289  0.5092  1.1041 -0.7506
  969MOL0     H30776   4.875   6.054   1.326 -2.0664  1.0832  2.1472
  969MOL0     H30777   4.398   6.143   1.638  1.1485 -1.7135 -0.6052
  969MOL0     H30778   4.285   6.335   1.714 -1.6347  2.6636  1.6962
  969MOL0     H30779   4.188   6.521   1.776  0.2019  2.3439 -0.3490
  969MOL0     H30780   4.267   6.436   1.915 -4.3951  0.7883  2.5908
  969MOL0     H30781   4.145   6.591   2.025  2.9602 -3.0709  2.1521
  969MOL0     H30782   4.305   6.680   2.004  0.3376 -1.0651  0.8923
  969MOL0     H30783   4.159   6.738   1.773 -1.8599 -2.4071 -0.0039
  969MOL0     H30784   4.033   6.734   1.892  0.3376 -1.0331 -0.6336
  969MOL0     H30785   4.159   6.965   1.850  0.2409  3.1137  2.1623
  969MOL0     H30786   4.270   6.911   1.976  1.1851  1.6835  0.6479
  969MOL0     H30787   4.057   6.868   2.114 -0.2204 -2.1921 -1.0186
  969MOL0     H30788   3.964   6.933   1.985  0.7050 -3.6723  1.5932
  969MOL0     H30789   4.196   7.093   2.121  1.6126  1.0687 -3.7976
  969MOL0     H30790   4.083   7.141   1.988 -1.3541  3.5265  1.9156
  969MOL0     H30791   4.000   7.116   2.276  0.6064  1.6738  1.2370
  969MOL0     H30792   3.887   7.099   2.140 -0.0562  0.5636 -0.7448
  969MOL0     H30793   4.055   7.351   2.185  0.4695 -0.0103 -1.9701
  969MOL0     H30794   3.964   7.319   2.039 -2.1771  4.0420  0.6564
  969MOL0     H30795   4.652   6.558   1.774 -1.6903  0.9125 -0.1197
  969MOL0     H30796   4.782   6.345   1.689  0.5161  3.4284 -1.4907
  969MOL0     H30797   4.751   5.883   1.697  0.2283  2.7044  0.6114
  969MOL0     H30798   4.899   5.685   1.664 -0.6666  0.1801 -0.0858
  969MOL0     H30799   5.647   5.175   2.415  1.6338  2.7293 -0.7307
  969MOL0     H30800   5.533   4.977   2.475  0.4113 -0.3957 -0.4093
  969MOL0     H30801   5.393   4.689   2.724 -1.4442 -0.5501 -3.2532
  969MOL0     H30802   5.298   4.516   2.859 -2.2298  1.9370 -3.1069
  969MOL0     H30803   5.503   4.127   2.837 -0.6317 -0.5750  1.0338
  969MOL0     H30804   5.332   4.085   2.848 -0.2786 -1.9566  1.5942
  969MOL0     H30805   5.343   4.189   3.097 -1.4805  0.2482 -0.9172
  969MOL0     H30806   5.514   4.156   3.081  0.5737 -0.6249 -0.6123
  969MOL0     H30807   5.413   3.919   2.979 -4.6485 -3.1050  0.8075
  969MOL0     H30808   5.283   3.965   3.084  1.0240 -4.5001  0.7724
  969MOL0     H30809   5.570   3.919   3.159  0.4396 -0.2514 -0.5165
  969MOL0     H30810   5.454   3.998   3.266  1.9204  0.1664  0.4787
  969MOL0     H30811   5.321   3.581   3.249  1.1255 -0.9983 -3.8776
  969MOL0     H30812   5.577   4.225   2.688  0.2919 -0.3877  0.1771
  969MOL0     H30813   5.720   4.309   2.507 -0.7446 -0.4434 -0.3326
  969MOL0     H30814   5.661   4.451   2.413  0.4510  2.2546  0.5270
  969MOL0     H30815   5.777   4.465   2.552  0.6893 -2.3022  3.6244
  970MOL0     O30816  10.077   9.782   6.670 -0.1984  0.9717 -0.0314
  970MOL0     C30817  10.015   9.672   6.673  0.0867  0.1117  0.5497
  970MOL0     O30818  10.042   9.566   6.598  0.0207  0.2405 -0.3292
  970MOL0     C30819  10.138   9.585   6.505  1.0214 -0.0188 -0.1797
  970MOL0     C30820  10.096   9.643   6.383  0.8626  0.3205 -0.0332
  970MOL0     C30821  10.192   9.684   6.287 -0.1503 -0.0456 -0.5584
  970MOL0     C30822  10.327   9.659   6.300 -0.7190  0.4750  0.2282
  970MOL0     O30823  10.418   9.669   6.199 -0.5337  0.2187 -0.3083
  970MOL0     C30824  10.395   9.597   6.073  0.1424 -0.8596 -0.4092
  970MOL0     C30825  10.376   9.691   5.956  0.8876 -1.1417  0.2682
  970MOL0     C30826  10.325   9.624   5.834 -0.4230  0.0796  0.0161
  970MOL0     C30827  10.343   9.710   5.709 -0.7916 -1.2485 -0.3854
  970MOL0     C30828  10.275   9.649   5.585 -0.2104 -0.3005 -0.0410
  970MOL0     C30829  10.256   9.756   5.478  0.1774 -0.2228  0.7813
  970MOL0     C30830  10.207   9.688   5.353  0.5092 -0.0681  1.0011
  970MOL0     C30831  10.174   9.778   5.240 -0.4373  0.0807  0.0804
  970MOL0     N30832  10.049   9.850   5.241  0.2637  0.4311  0.6608
  970MOL0     C30833  10.026   9.971   5.303  0.7532 -0.4230 -0.8675
  970MOL0     C30834   9.897  10.000   5.272 -0.2575 -0.0833 -0.1949
  970MOL0     C30835   9.821  10.135   5.288 -0.1201 -0.3893  0.0308
  970MOL0     C30836   9.846  10.227   5.177 -0.2703  0.4840  0.3372
  970MOL0     C30837   9.949  10.338   5.207 -0.1713  0.4130 -0.9648
  970MOL0     C30838   9.928  10.472   5.137 -1.4862  0.0178  0.0096
  970MOL0     O30839   9.816  10.551   5.185  0.1350  0.0697 -0.9368
  970MOL0     C30840   9.773  10.647   5.095  0.0872  0.8500  0.4364
  970MOL0     C30841   9.864  10.735   5.029  0.6237 -0.2938 -0.2414
  970MOL0     C30842   9.812  10.832   4.936 -1.1147 -1.2222  0.9585
  970MOL0     C30843   9.673  10.847   4.925  0.1610  0.0558  0.0531
  970MOL0     C30844   9.623  10.964   4.854  0.4260 -0.2427  0.6893
  970MOL0     O30845   9.497  10.957   4.802 -0.9839 -0.0978 -0.4049
  970MOL0     C30846   9.427  11.072   4.761 -0.2689  0.1829  0.3089
  970MOL0     C30847   9.318  11.040   4.682  0.2065 -0.2628  0.1723
  970MOL0     C30848   9.236  11.143   4.637  0.7657  0.9301 -0.2561
  970MOL0     C30849   9.259  11.277   4.665 -0.0009  0.6506  0.2631
  970MOL0     O30850   9.178  11.379   4.628 -1.0409 -0.2554  0.0799
  970MOL0     C30851   9.074  11.355   4.531 -1.1362  0.8772  0.2155
  970MOL0     C30852   9.013  11.494   4.492 -0.1896 -0.0489 -0.3616
  970MOL0     C30853   8.929  11.498   4.360  0.5558  0.8150 -0.1526
  970MOL0     C30854   8.895  11.645   4.347 -0.5607 -0.2567  0.2420
  970MOL0     C30855   8.806  11.672   4.226  0.4729  0.9641  0.1939
  970MOL0     C30856   8.755  11.818   4.225 -0.5149  0.1439 -0.7421
  970MOL0     C30857   8.680  11.857   4.094  0.8987 -0.1530 -0.1453
  970MOL0     C30858   8.601  11.986   4.082 -0.3979  0.1578 -0.0312
  970MOL0    Cl30859   8.468  11.999   4.197  0.3765 -0.1713 -0.1601
  970MOL0     C30860   9.376  11.314   4.736 -1.1121  0.9665  0.4910
  970MOL0     C30861   9.458  11.206   4.793  0.6725 -1.1439 -0.1257
  970MOL0     O30862   9.706  11.047   4.824  0.2575  0.3363  0.1066
  970MOL0     C30863   9.588  10.774   5.006  0.5230  0.4414 -0.7861
  970MOL0     C30864   9.636  10.673   5.087  0.5555  0.5218  0.9146
  970MOL0     N30865   9.840   9.891   5.214 -0.4857  0.3520  0.3839
  970MOL0     N30866   9.936   9.804   5.189 -0.0492  0.6411 -0.9862
  970MOL0     C30867  10.372   9.619   6.423  1.1807  0.2410 -0.1006
  970MOL0     C30868  10.277   9.577   6.525 -1.0651 -1.0535  0.1347
  970MOL0     C30869   9.902   9.671   6.771  0.7084 -0.0165  0.2589
  970MOL0     C30870   9.769   9.649   6.731  0.4118  0.1253  0.0873
  970MOL0     C30871   9.665   9.642   6.821 -1.2070  0.8253  0.1430
  970MOL0     C30872   9.689   9.670   6.960 -0.1681 -0.8914 -0.1512
  970MOL0     O30873   9.571   9.664   7.034  0.9393  0.5082 -0.5313
  970MOL0     C30874   9.564   9.675   7.176  0.7978 -0.1032  0.1041
  970MOL0     C30875   9.427   9.622   7.226 -0.3519  0.1635  0.2182
  970MOL0     C30876   9.385   9.489   7.157 -0.0296 -0.8453 -0.1218
  970MOL0     C30877   9.238   9.442   7.173  0.1646  1.0713 -0.0601
  970MOL0     C30878   9.151   9.535   7.107  0.0034  0.8492  0.2273
  970MOL0     C30879   9.070   9.609   7.061 -0.2970 -0.5477 -0.6010
  970MOL0     C30880   9.819   9.697   7.005 -0.0997  0.6177 -0.2218
  970MOL0     C30881   9.923   9.696   6.912  0.4780 -0.0219  0.6325
  970MOL0     C30882  10.064   9.726   6.972 -0.2478  0.1851  1.0341
  970MOL0     H30883   9.989   9.651   6.365  0.9189  0.2846 -0.3767
  970MOL0     H30884  10.165   9.717   6.187  2.7897  0.6008 -1.2259
  970MOL0     H30885  10.486   9.537   6.067  1.9199  1.6721 -0.0450
  970MOL0     H30886  10.301   9.541   6.075  1.2106 -2.7329 -0.5206
  970MOL0     H30887  10.480   9.714   5.931  0.9437 -1.3493  0.3032
  970MOL0     H30888  10.314   9.776   5.983  0.0550 -1.1652 -1.5000
  970MOL0     H30889  10.219   9.604   5.853 -0.8329  0.9121 -1.2578
  970MOL0     H30890  10.376   9.528   5.824  0.6269  0.2776  2.6024
  970MOL0     H30891  10.301   9.811   5.718 -3.3415 -2.3528  1.6970
  970MOL0     H30892  10.444   9.707   5.669 -1.4504  0.6007 -2.3602
  970MOL0     H30893  10.332   9.567   5.541 -2.6210 -2.4601  0.6247
  970MOL0     H30894  10.179   9.603   5.610 -0.2128 -1.2509 -1.6809
  970MOL0     H30895  10.178   9.829   5.503 -2.3997 -2.5938  0.2069
  970MOL0     H30896  10.348   9.811   5.458  0.1112 -0.9302 -1.9708
  970MOL0     H30897  10.123   9.619   5.370 -0.8173  1.0032 -0.8615
  970MOL0     H30898  10.281   9.611   5.328 -1.1426 -1.3088 -0.3379
  970MOL0     H30899  10.245   9.861   5.235 -2.2171  1.7512  0.8963
  970MOL0     H30900  10.164   9.731   5.142  0.5023  1.8648 -0.9236
  970MOL0     H30901  10.098  10.040   5.344  2.5966 -3.3959  1.2655
  970MOL0     H30902   9.717  10.100   5.290  0.4738 -2.2773 -0.0958
  970MOL0     H30903   9.838  10.195   5.378  0.2928  0.5716 -0.6732
  970MOL0     H30904   9.893  10.175   5.093 -0.9601  2.9116 -1.6524
  970MOL0     H30905   9.753  10.278   5.151  0.8321  2.8759  0.7730
  970MOL0     H30906  10.051  10.302   5.191 -0.1607 -0.2276  0.3994
  970MOL0     H30907   9.944  10.375   5.310  0.9442  0.0550 -0.7676
  970MOL0     H30908   9.916  10.447   5.031  1.8232 -2.2201  0.0185
  970MOL0     H30909  10.018  10.533   5.149 -0.8346 -0.9023 -0.0907
  970MOL0     H30910   9.970  10.743   5.051  0.1007  2.5839  1.8480
  970MOL0     H30911   9.879  10.904   4.891 -0.8733 -1.0401  1.5891
  970MOL0     H30912   9.291  10.945   4.638 -4.3654  0.1605  1.4903
  970MOL0     H30913   9.161  11.102   4.570  2.7392 -0.3941 -1.7444
  970MOL0     H30914   9.116  11.306   4.443 -1.1208 -2.7667  2.0618
  970MOL0     H30915   8.999  11.303   4.592  0.2827 -0.0469  1.2609
  970MOL0     H30916   8.946  11.513   4.576  0.0321 -3.8286  0.8736
  970MOL0     H30917   9.087  11.573   4.480 -1.6501  1.3164 -0.6510
  970MOL0     H30918   8.992  11.461   4.278  1.5989  2.8470 -0.3404
  970MOL0     H30919   8.840  11.434   4.360 -0.3820  2.0866  0.0722
  970MOL0     H30920   8.992  11.696   4.342 -0.0599 -1.2667 -0.4617
  970MOL0     H30921   8.831  11.664   4.434 -0.6603 -2.0669  0.5964
  970MOL0     H30922   8.711  11.617   4.224 -0.6582  2.8367 -2.0665
  970MOL0     H30923   8.862  11.639   4.138 -1.7604  1.8379 -1.6610
  970MOL0     H30924   8.688  11.828   4.311 -0.3568 -1.7712 -0.3554
  970MOL0     H30925   8.835  11.893   4.233  1.7139 -2.1530 -0.0847
  970MOL0     H30926   8.610  11.779   4.063 -0.7446  0.5427  1.5554
  970MOL0     H30927   8.760  11.847   4.020  0.3469 -0.4065 -0.7154
  970MOL0     H30928   8.666  12.072   4.101  1.9556 -1.0466 -2.0475
  970MOL0     H30929   8.566  12.002   3.979 -1.6841 -1.6432  0.0833
  970MOL0     H30930   9.391  11.417   4.767  0.2741  0.6193  1.0737
  970MOL0     H30931   9.545  11.236   4.850  0.6940 -0.9107 -0.2797
  970MOL0     H30932   9.481  10.788   5.010  0.2862 -1.3209  0.7576
  970MOL0     H30933   9.565  10.606   5.134 -0.5993 -0.9320 -2.5253
  970MOL0     H30934  10.476   9.589   6.435  0.8411 -0.6737  0.6569
  970MOL0     H30935  10.328   9.566   6.620  3.5781  2.2327 -1.6203
  970MOL0     H30936   9.725   9.632   6.633  3.2474 -0.2176 -1.2327
  970MOL0     H30937   9.562   9.613   6.803 -0.0185 -4.6246  0.3218
  970MOL0     H30938   9.584   9.778   7.208 -1.1334 -0.7269  3.8914
  970MOL0     H30939   9.640   9.616   7.228  0.9723 -0.0099 -0.0467
  970MOL0     H30940   9.354   9.699   7.201 -0.0567 -0.5189 -3.2986
  970MOL0     H30941   9.437   9.618   7.335  0.3921  2.6128  0.2847
  970MOL0     H30942   9.461   9.417   7.188  1.0518 -0.2474 -1.2629
  970MOL0     H30943   9.412   9.484   7.051  0.9126 -1.0801  0.1177
  970MOL0     H30944   9.223   9.342   7.130  4.6800  1.4089 -3.1160
  970MOL0     H30945   9.229   9.429   7.281  1.5418 -1.9839 -0.2068
  970MOL0     H30946   9.005   9.680   7.014 -0.0222 -1.1605 -1.9477
  970MOL0     H30947   9.833   9.730   7.108 -1.4452  1.7824 -0.3772
  970MOL0     H30948  10.144   9.652   6.958 -1.2011 -1.2295  2.6967
  970MOL0     H30949  10.117   9.811   6.928  0.3527 -1.3541 -1.4678
  970MOL0     H30950  10.057   9.743   7.080  2.3810 -0.8766  1.4513
  971MOL0     O30951   5.571   3.440   6.990 -0.0309  0.3966 -0.1845
  971MOL0     C30952   5.578   3.387   6.881 -0.6462 -0.1630  0.6111
  971MOL0     O30953   5.595   3.457   6.761 -0.3512  0.4645  0.4682
  971MOL0     C30954   5.662   3.575   6.780 -0.3569 -0.0923  1.0047
  971MOL0     C30955   5.612   3.698   6.725  0.5894 -0.0389 -0.4837
  971MOL0     C30956   5.694   3.807   6.707  0.1762  0.6965 -0.7314
  971MOL0     C30957   5.830   3.809   6.743 -0.1033  0.2636  0.3953
  971MOL0     O30958   5.915   3.922   6.716  0.4264  0.2199 -0.2815
  971MOL0     C30959   5.902   3.981   6.590  0.0246 -0.0298  0.5207
  971MOL0     C30960   5.900   3.887   6.469 -0.3111 -0.5719 -0.0196
  971MOL0     C30961   5.912   3.968   6.336  0.1634 -0.1664  0.5393
  971MOL0     C30962   5.863   3.883   6.214  0.7058 -0.2692 -0.2150
  971MOL0     C30963   5.896   3.958   6.090  0.0498 -0.3080  0.1506
  971MOL0     C30964   5.884   3.882   5.962  0.0828  0.4420  0.5695
  971MOL0     C30965   5.746   3.884   5.910  0.6000  0.6281 -0.2568
  971MOL0     C30966   5.737   3.829   5.764 -0.1959  0.2267  0.3389
  971MOL0     N30967   5.762   3.938   5.674  0.0432 -0.0790  0.7970
  971MOL0     C30968   5.682   4.050   5.663 -0.0785  0.4668  0.0820
  971MOL0     C30969   5.760   4.151   5.600 -0.2838  0.2591 -0.9882
  971MOL0     C30970   5.695   4.284   5.555  0.5422 -0.1363  0.3412
  971MOL0     C30971   5.647   4.375   5.670  0.2526 -1.0864  0.0742
  971MOL0     C30972   5.581   4.516   5.629 -0.2147  0.5766  0.0726
  971MOL0     C30973   5.446   4.539   5.581 -0.4026  0.0219  0.7542
  971MOL0     O30974   5.348   4.478   5.674  0.3487 -0.1539  0.3225
  971MOL0     C30975   5.218   4.517   5.672  0.0845  0.0457  0.3307
  971MOL0     C30976   5.153   4.613   5.583 -0.3502  0.7229 -0.1357
  971MOL0     C30977   5.012   4.617   5.573  0.1603 -0.6806 -0.5431
  971MOL0     C30978   4.923   4.525   5.642 -0.2111  0.2704 -0.4471
  971MOL0     C30979   4.772   4.532   5.624  0.7326  0.2660 -0.3970
  971MOL0     O30980   4.731   4.632   5.535  0.1062 -0.0571 -0.1579
  971MOL0     C30981   4.601   4.666   5.512  0.6415 -0.1640  0.4655
  971MOL0     C30982   4.579   4.710   5.385 -0.6879 -0.0975  0.1931
  971MOL0     C30983   4.468   4.782   5.351  0.5498 -0.8505  0.9120
  971MOL0     C30984   4.366   4.800   5.445  0.7971 -0.1048 -0.0099
  971MOL0     O30985   4.245   4.859   5.424  0.4770  0.2440 -0.3998
  971MOL0     C30986   4.166   4.837   5.303 -0.3728  1.0294  0.1064
  971MOL0     C30987   4.135   4.965   5.237  0.0613 -0.6469  1.3308
  971MOL0     C30988   4.128   4.971   5.084  0.5845 -0.1851  0.0196
  971MOL0     C30989   3.990   4.910   5.045  0.6816 -0.1407 -0.8827
  971MOL0     C30990   3.948   4.966   4.913 -0.0111 -0.0705  0.1028
  971MOL0     C30991   3.804   4.928   4.862 -0.3025 -0.3739 -0.4133
  971MOL0     C30992   3.688   4.998   4.937  0.2024 -0.2493 -0.0620
  971MOL0     C30993   3.695   5.153   4.929  1.2874 -0.0717  0.2620
  971MOL0    Cl30994   3.546   5.211   4.998  0.8579  0.3315  0.2407
  971MOL0     C30995   4.376   4.734   5.571 -0.0882  0.2714 -0.6049
  971MOL0     C30996   4.503   4.679   5.611  0.1080 -0.1393 -1.8118
  971MOL0     O30997   4.703   4.437   5.668 -0.1804 -0.4703 -0.6733
  971MOL0     C30998   4.988   4.442   5.738 -0.1945  0.5283  0.7637
  971MOL0     C30999   5.127   4.441   5.750  0.4659  0.2264 -0.2378
  971MOL0     N31000   5.871   4.082   5.561  0.4314 -0.2806 -0.6871
  971MOL0     N31001   5.869   3.961   5.604 -0.5989 -0.7834 -0.3422
  971MOL0     C31002   5.875   3.695   6.814  0.1255  0.2821 -0.5154
  971MOL0     C31003   5.794   3.583   6.825  0.0726  0.5385 -0.8299
  971MOL0     C31004   5.586   3.235   6.864 -0.5947 -0.6146 -0.2182
  971MOL0     C31005   5.622   3.182   6.738 -0.7004 -0.7983 -0.1474
  971MOL0     C31006   5.645   3.045   6.725  0.7212 -0.7079  0.0204
  971MOL0     C31007   5.617   2.955   6.843 -0.1469 -0.1040  0.5460
  971MOL0     O31008   5.630   2.827   6.845  0.0871  0.0030 -0.5302
  971MOL0     C31009   5.688   2.754   6.736 -0.5867  0.2674 -0.4206
  971MOL0     C31010   5.721   2.610   6.782  0.4633 -0.5087  0.3946
  971MOL0     C31011   5.849   2.602   6.868  0.1482 -0.5930  0.9108
  971MOL0     C31012   5.813   2.568   7.016 -0.7237 -0.7157  0.6739
  971MOL0     C31013   5.790   2.429   7.042  0.7822  0.2558 -0.3836
  971MOL0     C31014   5.789   2.309   7.068 -0.4034 -0.7249  0.4436
  971MOL0     C31015   5.567   3.015   6.961 -0.2327  0.2296 -0.0097
  971MOL0     C31016   5.544   3.154   6.972 -0.1379 -0.7338  0.1543
  971MOL0     C31017   5.474   3.195   7.099  0.3741  0.8800  0.5793
  971MOL0     H31018   5.515   3.697   6.676  2.0120  0.6854 -3.5327
  971MOL0     H31019   5.664   3.903   6.667  0.8924  2.9070  3.4739
  971MOL0     H31020   5.811   4.042   6.584 -0.1183  0.2623  3.7688
  971MOL0     H31021   5.988   4.048   6.578  2.2151 -2.4608  1.6063
  971MOL0     H31022   5.809   3.826   6.462 -0.0457 -0.8701 -0.9563
  971MOL0     H31023   5.982   3.815   6.469  1.3589  1.0248 -4.3882
  971MOL0     H31024   6.021   3.977   6.331  0.6811 -2.0891  4.5942
  971MOL0     H31025   5.848   4.057   6.343 -0.0669 -0.2770 -0.0807
  971MOL0     H31026   5.921   3.791   6.209 -0.4600 -0.9546 -1.7266
  971MOL0     H31027   5.755   3.867   6.210  0.7107 -0.1286 -0.9087
  971MOL0     H31028   5.851   4.058   6.085  2.5716  1.0426  1.7252
  971MOL0     H31029   6.003   3.979   6.105  1.0737 -3.2080 -2.2274
  971MOL0     H31030   5.943   3.949   5.898 -0.3367 -0.1079 -0.4271
  971MOL0     H31031   5.923   3.780   5.967  2.1630  1.1236 -0.2964
  971MOL0     H31032   5.708   3.987   5.917  1.8867  1.0586  0.8761
  971MOL0     H31033   5.695   3.812   5.975  4.4115 -2.0616  0.0443
  971MOL0     H31034   5.804   3.744   5.744  2.5871  1.9412  1.6918
  971MOL0     H31035   5.633   3.801   5.745 -1.7664  5.8893 -1.3544
  971MOL0     H31036   5.588   4.055   5.717 -0.0245  0.2528  0.2027
  971MOL0     H31037   5.771   4.341   5.501  0.3452  1.0878  1.3064
  971MOL0     H31038   5.608   4.269   5.491  0.4112  2.7240 -0.2527
  971MOL0     H31039   5.571   4.315   5.721 -0.4324 -0.8311 -0.6328
  971MOL0     H31040   5.737   4.413   5.720 -0.6752  2.1409 -0.4798
  971MOL0     H31041   5.637   4.541   5.539  0.5629 -2.5367 -0.4558
  971MOL0     H31042   5.600   4.589   5.708 -0.6130  1.1595 -0.3682
  971MOL0     H31043   5.434   4.491   5.484  1.5738 -4.1325  2.3089
  971MOL0     H31044   5.430   4.646   5.571  4.5680  0.8170 -1.1438
  971MOL0     H31045   5.215   4.682   5.527 -1.6952  2.0815 -0.0239
  971MOL0     H31046   4.966   4.689   5.506 -0.1643 -0.8314 -0.4850
  971MOL0     H31047   4.661   4.703   5.314  0.6791 -0.6912  1.7571
  971MOL0     H31048   4.467   4.815   5.248 -1.0969 -2.6157  0.3130
  971MOL0     H31049   4.205   4.758   5.238 -0.7963 -1.2330  2.4759
  971MOL0     H31050   4.070   4.793   5.329  0.8000 -1.2105  0.8769
  971MOL0     H31051   4.040   5.001   5.276  0.5294  0.9286  1.1071
  971MOL0     H31052   4.201   5.044   5.273 -0.9218 -0.1360  2.0359
  971MOL0     H31053   4.126   5.078   5.059 -2.7141  0.4094  2.2210
  971MOL0     H31054   4.217   4.932   5.034  0.2553  1.0006 -1.5876
  971MOL0     H31055   3.922   4.941   5.124 -0.8397 -0.8211 -1.8764
  971MOL0     H31056   3.995   4.801   5.033 -0.0355 -0.0667 -2.0033
  971MOL0     H31057   4.005   4.924   4.829  0.7883  3.7651 -1.4987
  971MOL0     H31058   3.962   5.074   4.902  1.6462 -0.3827 -1.3732
  971MOL0     H31059   3.794   4.941   4.754  1.9376 -0.6832 -0.6947
  971MOL0     H31060   3.783   4.822   4.880  3.1247 -1.1012 -0.1370
  971MOL0     H31061   3.710   4.974   5.041 -0.1779 -0.2957  0.0089
  971MOL0     H31062   3.591   4.953   4.914 -0.8881  2.1700 -0.5940
  971MOL0     H31063   3.780   5.196   4.981  0.9076  0.0877  0.7618
  971MOL0     H31064   3.693   5.165   4.820  2.1921 -0.9201  0.1433
  971MOL0     H31065   4.290   4.744   5.637 -0.7868  0.6556 -1.5473
  971MOL0     H31066   4.524   4.644   5.711 -1.4702 -0.9667 -1.7354
  971MOL0     H31067   4.935   4.395   5.820 -3.6356  3.0809  0.2404
  971MOL0     H31068   5.170   4.363   5.811  0.4104  0.1616 -0.2809
  971MOL0     H31069   5.982   3.682   6.825 -0.0014 -0.1483  0.2662
  971MOL0     H31070   5.842   3.492   6.858 -0.7318  1.4801  3.6840
  971MOL0     H31071   5.648   3.244   6.653  4.0690 -0.1734  1.4937
  971MOL0     H31072   5.670   3.005   6.627 -0.0417 -2.5099  0.5094
  971MOL0     H31073   5.781   2.795   6.696 -1.8227  1.9487 -1.7501
  971MOL0     H31074   5.612   2.732   6.660  1.3347 -1.4988 -1.9189
  971MOL0     H31075   5.739   2.546   6.695 -0.1458 -1.8661  1.2441
  971MOL0     H31076   5.638   2.573   6.842 -0.2378  1.0034  0.4073
  971MOL0     H31077   5.906   2.694   6.851 -0.9154 -0.0690  0.0493
  971MOL0     H31078   5.892   2.514   6.819  2.4774 -0.3642  2.3903
  971MOL0     H31079   5.902   2.591   7.075 -0.3635 -1.6988  0.5346
  971MOL0     H31080   5.726   2.628   7.043 -1.0688 -0.7037 -0.4333
  971MOL0     H31081   5.804   2.204   7.087  0.4248 -0.4424  1.4464
  971MOL0     H31082   5.542   2.952   7.046 -0.8927  0.9471  0.3362
  971MOL0     H31083   5.541   3.232   7.176  0.7167  0.2458  0.5862
  971MOL0     H31084   5.402   3.274   7.072  0.4009  1.3057  1.7206
  971MOL0     H31085   5.420   3.108   7.135 -1.2920  0.9396 -1.5692
  972MOL0     O31086   8.376  10.855   3.425  0.2839 -0.0195 -0.3689
  972MOL0     C31087   8.366  10.735   3.447 -1.1996  0.3093 -0.5829
  972MOL0     O31088   8.250  10.661   3.414 -0.5413 -0.0108 -0.6967
  972MOL0     C31089   8.177  10.706   3.305  0.4660  0.0347 -0.2224
  972MOL0     C31090   8.205  10.777   3.187  0.3572  0.2847  0.6234
  972MOL0     C31091   8.114  10.789   3.085  1.3745  0.6109  0.3656
  972MOL0     C31092   7.981  10.750   3.102 -0.2327  0.6400  0.1695
  972MOL0     O31093   7.877  10.788   3.013 -0.7079  0.8807  0.1290
  972MOL0     C31094   7.886  10.774   2.877  1.1398  0.2790  0.0844
  972MOL0     C31095   7.946  10.636   2.828 -0.2520  0.2152 -0.2080
  972MOL0     C31096   7.892  10.601   2.683  0.6921  0.9689 -0.5088
  972MOL0     C31097   7.898  10.448   2.675 -0.3110 -0.4365 -0.1767
  972MOL0     C31098   7.839  10.423   2.540  0.7082 -0.4210 -0.5270
  972MOL0     C31099   7.826  10.276   2.506  0.1366  0.2847  0.3808
  972MOL0     C31100   7.791  10.258   2.364 -0.5668  0.7011  0.5600
  972MOL0     C31101   7.753  10.115   2.326  0.3641  0.0121  0.5672
  972MOL0     N31102   7.868  10.024   2.319  0.5092  0.5033  0.2571
  972MOL0     C31103   7.953  10.026   2.219  0.2212 -0.2924 -0.4209
  972MOL0     C31104   8.064   9.963   2.260 -0.1866  0.2773 -0.0692
  972MOL0     C31105   8.181   9.936   2.190 -0.0378  0.7437 -0.7687
  972MOL0     C31106   8.292  10.023   2.233  0.6414 -0.4108 -0.7244
  972MOL0     C31107   8.412  10.016   2.141 -0.0007  0.0201  0.5133
  972MOL0     C31108   8.531  10.100   2.189  0.3160  0.2072 -0.3167
  972MOL0     O31109   8.640  10.102   2.095 -0.0943 -0.0434 -0.4318
  972MOL0     C31110   8.765  10.146   2.143 -0.3973  0.8348 -0.7655
  972MOL0     C31111   8.779  10.217   2.260 -1.2684 -0.1766 -0.3971
  972MOL0     C31112   8.903  10.276   2.294  0.5179 -0.5826 -0.8023
  972MOL0     C31113   9.004  10.282   2.204 -0.2053  0.8233  0.1439
  972MOL0     C31114   9.132  10.350   2.233 -0.2179  0.1503 -1.4152
  972MOL0     O31115   9.154  10.379   2.367 -0.3060  0.6486  0.4575
  972MOL0     C31116   9.269  10.454   2.394 -0.2138  0.2336 -0.4893
  972MOL0     C31117   9.398  10.400   2.379 -0.0075 -0.1260 -0.3449
  972MOL0     C31118   9.510  10.476   2.413 -0.3749 -1.0097  0.4931
  972MOL0     C31119   9.499  10.611   2.439  0.4177 -0.7221  0.3297
  972MOL0     O31120   9.613  10.670   2.489 -0.5459  0.6936 -0.6843
  972MOL0     C31121   9.593  10.789   2.557 -0.7315  0.4095  0.1833
  972MOL0     C31122   9.731  10.817   2.602  0.3619 -0.1820 -1.1171
  972MOL0     C31123   9.787  10.729   2.716 -0.3637  0.8063  0.7643
  972MOL0     C31124   9.934  10.772   2.753 -0.6135 -1.0163  0.8571
  972MOL0     C31125   9.946  10.913   2.818 -0.1271 -0.0720 -1.1634
  972MOL0     C31126   9.863  10.923   2.952 -0.5119 -0.7145 -0.5395
  972MOL0     C31127   9.905  11.057   3.024 -1.3241  0.6799 -0.0411
  972MOL0     C31128   9.849  11.074   3.168 -0.9168  0.5836 -0.6581
  972MOL0    Cl31129   9.666  11.075   3.183 -0.5918 -0.2182  0.1065
  972MOL0     C31130   9.376  10.673   2.422  0.0340  0.3038  0.2738
  972MOL0     C31131   9.264  10.593   2.409 -0.1987 -0.6668  0.2681
  972MOL0     O31132   9.210  10.378   2.141  0.0189  0.3225  0.2107
  972MOL0     C31133   8.995  10.193   2.099 -1.4387  0.1063  0.1183
  972MOL0     C31134   8.883  10.126   2.064 -0.6165  0.8049 -0.0808
  972MOL0     N31135   8.037   9.918   2.387 -0.6658 -0.6870  0.3946
  972MOL0     N31136   7.924   9.962   2.426  0.2012  0.4614 -0.3163
  972MOL0     C31137   7.949  10.688   3.226 -0.1708 -0.4119  0.5410
  972MOL0     C31138   8.050  10.664   3.318  0.7103 -0.9187 -0.4710
  972MOL0     C31139   8.484  10.662   3.501 -0.3385 -0.5875  0.1118
  972MOL0     C31140   8.562  10.726   3.606 -0.3174  0.5833 -0.1701
  972MOL0     C31141   8.662  10.668   3.664 -0.2503  0.1847 -0.0580
  972MOL0     C31142   8.681  10.530   3.639 -0.6747 -0.2533 -0.4801
  972MOL0     O31143   8.769  10.453   3.700  0.2320 -0.4552  0.3939
  972MOL0     C31144   8.855  10.500   3.804 -0.0229 -0.3201 -1.0266
  972MOL0     C31145   8.959  10.407   3.860  0.1207 -0.3386 -0.6482
  972MOL0     C31146   8.889  10.274   3.896  0.5521 -0.3564  0.0827
  972MOL0     C31147   8.854  10.258   4.039 -0.4150  0.0640  0.0000
  972MOL0     C31148   8.747  10.345   4.092  0.2996  0.0303 -0.3548
  972MOL0     C31149   8.664  10.418   4.140 -0.0490  0.0892  1.4019
  972MOL0     C31150   8.606  10.466   3.538  1.1384  0.7147  0.5178
  972MOL0     C31151   8.500  10.527   3.467  0.7770 -0.9769  0.3563
  972MOL0     C31152   8.420  10.447   3.379 -0.6101  0.8836  0.0075
  972MOL0     H31153   8.307  10.803   3.163 -0.0953  1.5778 -0.0191
  972MOL0     H31154   8.149  10.840   2.996 -3.2992 -0.8488 -2.6871
  972MOL0     H31155   7.780  10.789   2.853  0.4877  0.4655  2.8304
  972MOL0     H31156   7.944  10.849   2.823  1.4476 -0.6033 -0.8507
  972MOL0     H31157   7.912  10.553   2.890 -0.8060  0.8944  0.4262
  972MOL0     H31158   8.054  10.643   2.837 -0.0305  1.4947 -2.8097
  972MOL0     H31159   7.958  10.642   2.607 -0.6989  2.6648 -0.8605
  972MOL0     H31160   7.788  10.633   2.674 -0.5731 -2.2147  1.0776
  972MOL0     H31161   8.005  10.423   2.674  0.6056  2.8130  0.7529
  972MOL0     H31162   7.828  10.408   2.749 -1.5055 -0.1218 -1.1089
  972MOL0     H31163   7.739  10.464   2.519  1.4626  1.3981 -0.7806
  972MOL0     H31164   7.913  10.459   2.468 -1.2830 -1.5665 -3.2907
  972MOL0     H31165   7.913  10.212   2.527  0.1467  0.5258  1.1044
  972MOL0     H31166   7.738  10.240   2.561  0.8878  0.3224  1.6613
  972MOL0     H31167   7.862  10.305   2.295 -2.5806  0.2784 -1.9460
  972MOL0     H31168   7.691  10.301   2.349 -0.0514  1.4902 -0.8146
  972MOL0     H31169   7.674  10.078   2.392 -1.6533 -3.3542 -3.3022
  972MOL0     H31170   7.691  10.129   2.237 -1.3131  1.1774  1.8453
  972MOL0     H31171   7.943  10.067   2.119 -0.6966 -0.3720 -0.3713
  972MOL0     H31172   8.203   9.829   2.199  1.1355  1.1032  1.7202
  972MOL0     H31173   8.161   9.942   2.083 -0.0012  0.3399 -0.7991
  972MOL0     H31174   8.252  10.121   2.260 -0.4304 -0.6018 -1.5617
  972MOL0     H31175   8.323   9.983   2.331 -1.9420 -0.5340  0.1132
  972MOL0     H31176   8.377  10.054   2.045 -2.9371 -2.1121  0.6011
  972MOL0     H31177   8.443   9.913   2.119 -1.9974 -0.1148 -2.0737
  972MOL0     H31178   8.565  10.059   2.285 -0.5062 -3.0863 -1.2790
  972MOL0     H31179   8.494  10.197   2.221 -3.1297 -2.2328  4.4319
  972MOL0     H31180   8.693  10.234   2.323 -0.6290  0.9331  0.2143
  972MOL0     H31181   8.906  10.330   2.388 -0.6264 -6.7039  3.3384
  972MOL0     H31182   9.419  10.295   2.360 -0.9136 -0.2109 -0.9666
  972MOL0     H31183   9.607  10.429   2.428 -0.2539 -1.8495 -2.3678
  972MOL0     H31184   9.561  10.868   2.489  1.8508 -0.7451 -2.5814
  972MOL0     H31185   9.524  10.765   2.639  1.0353 -0.8798  1.3808
  972MOL0     H31186   9.801  10.821   2.519  2.1691  1.7404  0.4103
  972MOL0     H31187   9.728  10.919   2.641  1.5524 -2.0380  4.9435
  972MOL0     H31188   9.713  10.736   2.796 -2.6068  0.5494 -1.1576
  972MOL0     H31189   9.796  10.627   2.679  2.5331  0.9134  0.9573
  972MOL0     H31190   9.996  10.779   2.663 -3.3687  0.4034 -1.0662
  972MOL0     H31191   9.970  10.695   2.822 -0.2366  0.1221  1.9835
  972MOL0     H31192   9.935  10.988   2.739  1.8061  0.9516 -0.5146
  972MOL0     H31193  10.052  10.917   2.843 -0.5348  1.9238  0.4364
  972MOL0     H31194   9.758  10.926   2.922 -0.1332 -1.5802 -2.0560
  972MOL0     H31195   9.883  10.841   3.021  1.5436  1.9574  2.2648
  972MOL0     H31196   9.885  11.147   2.965  2.7408  1.3398 -0.6905
  972MOL0     H31197  10.014  11.053   3.029 -1.3312  1.2232  0.8694
  972MOL0     H31198   9.884  10.988   3.226 -1.4990 -0.6021 -2.0029
  972MOL0     H31199   9.890  11.162   3.218  0.1272 -0.6042  0.6824
  972MOL0     H31200   9.359  10.775   2.453  0.3592  0.5410 -0.3125
  972MOL0     H31201   9.167  10.642   2.417 -1.0804 -2.4043  0.6898
  972MOL0     H31202   9.080  10.183   2.032 -1.8881  0.0191 -0.4560
  972MOL0     H31203   8.871  10.056   1.982 -0.1256 -2.3198  2.2866
  972MOL0     H31204   7.847  10.662   3.250  0.8763 -3.0921  2.6311
  972MOL0     H31205   8.011  10.610   3.404  0.1513 -0.9789 -0.7607
  972MOL0     H31206   8.538  10.821   3.652 -2.3133 -1.5736  3.8518
  972MOL0     H31207   8.718  10.732   3.732  2.4518  0.1708 -2.1059
  972MOL0     H31208   8.783  10.520   3.884 -0.1368  3.0137 -1.7820
  972MOL0     H31209   8.903  10.596   3.785  0.1500  1.0174  4.4130
  972MOL0     H31210   8.999  10.458   3.948 -1.7920  1.2119 -0.5766
  972MOL0     H31211   9.033  10.407   3.779 -1.2031 -0.6119 -1.9144
  972MOL0     H31212   8.959  10.192   3.875 -1.4214 -1.8206 -1.1793
  972MOL0     H31213   8.804  10.259   3.829  0.5441  1.6012 -0.4273
  972MOL0     H31214   8.828  10.154   4.061 -0.8292  0.7774  3.5105
  972MOL0     H31215   8.946  10.261   4.098  1.8777  1.3761 -3.3483
  972MOL0     H31216   8.590  10.493   4.156 -2.3937 -0.6022 -4.1189
  972MOL0     H31217   8.611  10.358   3.528  0.0844  0.7177 -0.2650
  972MOL0     H31218   8.470  10.351   3.359 -0.6698 -0.0834  3.7980
  972MOL0     H31219   8.334  10.417   3.440 -0.3121 -1.3956 -0.5697
  972MOL0     H31220   8.383  10.502   3.292 -1.4302  0.2750 -0.0362
  973MOL0     O31221   8.489  10.673   2.558  0.4023  0.9407 -0.1055
  973MOL0     C31222   8.433  10.587   2.635 -1.2896  0.4905  0.1961
  973MOL0     O31223   8.341  10.625   2.727 -0.4118 -0.2172  0.6220
  973MOL0     C31224   8.316  10.761   2.728 -0.0540 -0.5087 -0.2914
  973MOL0     C31225   8.217  10.810   2.643  0.9520  0.7565 -0.0810
  973MOL0     C31226   8.165  10.935   2.648 -0.2366 -0.0491  0.0927
  973MOL0     C31227   8.207  11.021   2.750  0.8497 -0.3366 -0.3015
  973MOL0     O31228   8.156  11.147   2.764 -0.0353  0.4729  0.3459
  973MOL0     C31229   8.197  11.237   2.653  0.3539  0.8808  1.1264
  973MOL0     C31230   8.128  11.373   2.656 -0.1143  0.6523  0.1111
  973MOL0     C31231   7.989  11.362   2.615 -0.2753  0.0860  0.3929
  973MOL0     C31232   7.929  11.499   2.633 -0.4316 -0.6730 -0.5284
  973MOL0     C31233   7.786  11.511   2.583 -0.4832  0.4245 -1.0223
  973MOL0     C31234   7.732  11.650   2.602  0.9547 -0.3116  0.0215
  973MOL0     C31235   7.804  11.753   2.513 -0.4421 -0.0769  0.1642
  973MOL0     C31236   7.768  11.736   2.360  0.0750  0.0155  0.4413
  973MOL0     N31237   7.899  11.759   2.284  0.1811 -0.6804 -0.1647
  973MOL0     C31238   7.986  11.654   2.257  0.3493 -0.4491 -0.0534
  973MOL0     C31239   8.108  11.705   2.227  0.0795 -0.1123  0.5001
  973MOL0     C31240   8.217  11.612   2.183  0.0323 -0.0039  0.0678
  973MOL0     C31241   8.316  11.679   2.092  0.5135  0.2051 -0.5778
  973MOL0     C31242   8.400  11.582   2.021  0.0725 -0.2668  0.2676
  973MOL0     C31243   8.500  11.501   2.104 -0.6678 -0.3804  0.1160
  973MOL0     O31244   8.434  11.412   2.192 -0.4183  0.8563 -0.1866
  973MOL0     C31245   8.512  11.319   2.260  0.3057  0.1092 -0.1062
  973MOL0     C31246   8.458  11.253   2.369  0.4480  0.8745 -0.8628
  973MOL0     C31247   8.539  11.169   2.445 -0.6375 -0.4482  0.5020
  973MOL0     C31248   8.675  11.155   2.418  0.0924 -1.0689  0.5747
  973MOL0     C31249   8.755  11.071   2.509 -0.4608 -0.4640 -0.0834
  973MOL0     O31250   8.850  10.989   2.454  1.0082  0.6635 -0.7663
  973MOL0     C31251   8.908  10.895   2.536  0.4503 -0.0948  1.3730
  973MOL0     C31252   8.832  10.775   2.567 -0.4513 -0.3631  1.3886
  973MOL0     C31253   8.889  10.690   2.659 -0.7379 -0.3091 -0.0793
  973MOL0     C31254   9.030  10.702   2.689  0.2519  0.3494  0.2964
  973MOL0     O31255   9.114  10.612   2.740 -0.0869 -0.4394 -0.3163
  973MOL0     C31256   9.061  10.482   2.767  0.3308 -0.0470 -0.3192
  973MOL0     C31257   9.008  10.476   2.906  0.0577  0.3631 -0.2476
  973MOL0     C31258   8.937  10.351   2.947 -0.9527 -0.3945 -0.6200
  973MOL0     C31259   9.041  10.234   2.983  0.8169  0.3345 -0.2821
  973MOL0     C31260   8.978  10.105   3.028 -0.2854 -0.1513 -0.4436
  973MOL0     C31261   9.079   9.985   3.001  0.3621  0.3540 -0.9990
  973MOL0     C31262   9.047   9.854   3.064  0.0282  0.1733  0.5556
  973MOL0     C31263   8.905   9.807   3.026  0.9128  0.8245 -1.0410
  973MOL0    Cl31264   8.899   9.799   2.850  0.3527  0.2131 -0.1374
  973MOL0     C31265   9.100  10.820   2.663 -0.0038 -0.0039  0.0699
  973MOL0     C31266   9.040  10.921   2.593  0.9862  1.1112 -0.0925
  973MOL0     O31267   8.731  11.084   2.632 -0.0058 -0.1737  0.1959
  973MOL0     C31268   8.733  11.219   2.309  0.4590  0.1379 -0.2792
  973MOL0     C31269   8.648  11.298   2.231  0.1298  0.4445  0.3397
  973MOL0     N31270   8.099  11.843   2.247  0.1783 -0.7349  0.0927
  973MOL0     N31271   7.980  11.872   2.278 -0.3019  0.2091 -0.8047
  973MOL0     C31272   8.306  10.972   2.832  0.0648 -0.4396 -0.6595
  973MOL0     C31273   8.369  10.842   2.822  0.5516 -0.8151 -0.2277
  973MOL0     C31274   8.464  10.444   2.622  0.2259 -0.3502 -0.1157
  973MOL0     C31275   8.580  10.398   2.686  0.2261  0.4208 -0.1310
  973MOL0     C31276   8.616  10.269   2.677 -0.7811  0.3672 -0.0336
  973MOL0     C31277   8.553  10.176   2.588 -0.1334 -0.5158  0.5311
  973MOL0     O31278   8.593  10.055   2.544 -0.2448 -0.2404  0.2236
  973MOL0     C31279   8.711   9.992   2.601 -0.8286  0.4252  0.4648
  973MOL0     C31280   8.752   9.856   2.536 -0.2999 -0.3617  0.3186
  973MOL0     C31281   8.746   9.851   2.384 -0.1126  0.3415 -0.3316
  973MOL0     C31282   8.820   9.740   2.309  0.5594 -0.3738  0.1448
  973MOL0     C31283   8.965   9.727   2.346 -0.1988  0.0673 -0.2899
  973MOL0     C31284   9.088   9.716   2.352 -0.1924  0.5435 -0.3472
  973MOL0     C31285   8.442  10.225   2.519  0.0698  0.2040 -0.6654
  973MOL0     C31286   8.399  10.360   2.536  0.7500  0.0114 -1.2574
  973MOL0     C31287   8.276  10.413   2.470 -0.7185 -0.1768  0.2686
  973MOL0     H31288   8.179  10.733   2.577  0.5165 -0.7611  1.8559
  973MOL0     H31289   8.100  10.973   2.570  2.0534  1.4550 -1.1888
  973MOL0     H31290   8.302  11.263   2.667  0.1060  2.9026 -0.2802
  973MOL0     H31291   8.185  11.203   2.550  1.3481  2.7385  0.3517
  973MOL0     H31292   8.186  11.443   2.596  1.6822 -1.3826 -0.6401
  973MOL0     H31293   8.131  11.410   2.759  0.2480  0.6360  0.1073
  973MOL0     H31294   7.943  11.291   2.684 -1.4449  0.3553 -0.0878
  973MOL0     H31295   7.983  11.327   2.512 -0.0402 -0.1625  0.4627
  973MOL0     H31296   7.932  11.528   2.739  2.3635  0.7802 -0.8924
  973MOL0     H31297   7.993  11.566   2.575 -0.8937 -0.7393 -1.1197
  973MOL0     H31298   7.790  11.491   2.476 -1.0598  1.8552 -1.3337
  973MOL0     H31299   7.723  11.438   2.635  0.2720  1.9611  2.3932
  973MOL0     H31300   7.626  11.661   2.577  0.9453  1.1773  0.6000
  973MOL0     H31301   7.732  11.676   2.708  2.4892 -1.6037  0.3615
  973MOL0     H31302   7.913  11.751   2.520 -0.5189 -2.1394  1.7434
  973MOL0     H31303   7.765  11.848   2.551 -0.7199 -0.6019  1.2362
  973MOL0     H31304   7.710  11.646   2.334  0.9136 -0.6003  0.6783
  973MOL0     H31305   7.694  11.807   2.321 -3.6117 -2.7783  1.6850
  973MOL0     H31306   7.955  11.551   2.242 -0.6684 -0.0628 -0.6746
  973MOL0     H31307   8.270  11.579   2.273  0.6404 -0.1779 -0.3511
  973MOL0     H31308   8.168  11.525   2.138  1.7569 -1.1989  0.4316
  973MOL0     H31309   8.254  11.737   2.023 -2.9549  0.2146  2.2505
  973MOL0     H31310   8.382  11.746   2.149 -2.7677  2.5020  0.8557
  973MOL0     H31311   8.447  11.619   1.929  1.2516 -2.0058  0.1075
  973MOL0     H31312   8.335  11.505   1.979 -0.0471  1.4874 -3.1247
  973MOL0     H31313   8.568  11.564   2.161  0.7554  0.5299 -2.3974
  973MOL0     H31314   8.556  11.447   2.027  0.3683  0.3781  0.3131
  973MOL0     H31315   8.359  11.263   2.411  0.7568 -0.5532  0.3014
  973MOL0     H31316   8.493  11.105   2.520 -4.3136 -1.1640 -2.0851
  973MOL0     H31317   8.736  10.747   2.526 -0.5320 -1.5605  2.3419
  973MOL0     H31318   8.830  10.605   2.692 -1.7091  0.6432  0.7317
  973MOL0     H31319   8.979  10.458   2.698  0.8675  1.4110 -1.5128
  973MOL0     H31320   9.142  10.412   2.745  1.2071  1.1575 -1.0334
  973MOL0     H31321   9.085  10.513   2.974  0.3930  0.8629 -0.8891
  973MOL0     H31322   8.930  10.552   2.920  1.9976  1.8845  3.5935
  973MOL0     H31323   8.876  10.374   3.035 -1.3740 -4.3711  0.3242
  973MOL0     H31324   8.873  10.325   2.863 -0.3903  3.5663 -2.4767
  973MOL0     H31325   9.110  10.269   3.060 -1.1358 -0.9319  2.2045
  973MOL0     H31326   9.101  10.207   2.896  1.4098 -1.6690  0.6819
  973MOL0     H31327   8.883  10.086   2.978  0.9017 -1.5215 -2.3039
  973MOL0     H31328   8.960  10.111   3.136  2.3015 -3.6436  0.3917
  973MOL0     H31329   9.082   9.970   2.893 -0.9820 -2.1622 -0.7785
  973MOL0     H31330   9.175  10.017   3.042  0.4430  0.6140 -1.3909
  973MOL0     H31331   9.069   9.849   3.171 -1.3561 -1.4956  0.8039
  973MOL0     H31332   9.122   9.785   3.023  3.1983  3.4251  0.4382
  973MOL0     H31333   8.894   9.710   3.075  1.1413  1.6489  0.7466
  973MOL0     H31334   8.837   9.880   3.071 -4.5017 -4.8161  1.4390
  973MOL0     H31335   9.206  10.834   2.685  0.4584  2.5982 -2.9872
  973MOL0     H31336   9.082  11.019   2.574 -0.0975  2.2478  2.7766
  973MOL0     H31337   8.837  11.200   2.282  0.0368 -1.3889 -0.9516
  973MOL0     H31338   8.701  11.351   2.153 -1.0428  1.2491  0.0582
  973MOL0     H31339   8.354  11.043   2.899 -0.2916  0.7182 -1.6079
  973MOL0     H31340   8.450  10.830   2.893  0.2580 -1.4408  0.0163
  973MOL0     H31341   8.638  10.468   2.746  1.6795 -1.1007  0.3128
  973MOL0     H31342   8.708  10.231   2.719 -2.0543 -5.2525 -1.5158
  973MOL0     H31343   8.694   9.983   2.709  1.3153  2.7271  1.1121
  973MOL0     H31344   8.796  10.061   2.591 -0.8701  0.3729 -0.2609
  973MOL0     H31345   8.692   9.777   2.583 -1.8397 -0.1585 -1.2210
  973MOL0     H31346   8.855   9.835   2.566 -0.0323 -0.1147 -0.4129
  973MOL0     H31347   8.782   9.951   2.357 -4.2209  1.7303 -1.3788
  973MOL0     H31348   8.641   9.854   2.354 -0.1288  4.6781 -0.5840
  973MOL0     H31349   8.767   9.653   2.351 -0.8783  0.6437  0.5002
  973MOL0     H31350   8.807   9.741   2.201  1.4376  2.5180 -0.0001
  973MOL0     H31351   9.193   9.697   2.355 -0.5805 -1.8200  1.4484
  973MOL0     H31352   8.391  10.168   2.442  0.2129 -0.3337 -0.3696
  973MOL0     H31353   8.223  10.324   2.436 -1.5818  0.2581  0.4293
  973MOL0     H31354   8.211  10.470   2.537 -1.8929 -0.5601 -0.5148
  973MOL0     H31355   8.303  10.476   2.385  2.6035  0.4043  1.6086
  974MOL0     O31356   4.689   0.626   3.477  0.1869  0.2598 -0.3340
  974MOL0     C31357   4.684   0.564   3.583 -0.0231 -0.1716 -0.3488
  974MOL0     O31358   4.781   0.482   3.624  0.1712 -0.2401 -0.2336
  974MOL0     C31359   4.896   0.471   3.549 -0.3831  0.1398 -0.1075
  974MOL0     C31360   4.973   0.582   3.515 -0.6018  0.1434  0.0264
  974MOL0     C31361   5.097   0.554   3.447  0.5928  0.5351  0.5927
  974MOL0     C31362   5.124   0.426   3.389  0.5922  0.6944  0.7086
  974MOL0     O31363   5.225   0.407   3.304 -0.3625  0.4274  0.8588
  974MOL0     C31364   5.355   0.405   3.371  0.6698  0.6135 -0.2310
  974MOL0     C31365   5.442   0.520   3.344  0.0214 -0.5307 -0.1568
  974MOL0     C31366   5.461   0.541   3.196 -0.2024  1.4500 -0.6721
  974MOL0     C31367   5.523   0.673   3.156  0.1566  0.0674 -0.1188
  974MOL0     C31368   5.522   0.692   2.998  0.7385  0.1905  0.1245
  974MOL0     C31369   5.631   0.798   2.968  0.3605 -0.8843 -0.0545
  974MOL0     C31370   5.587   0.883   2.852 -0.0749 -0.0661 -0.7873
  974MOL0     C31371   5.536   1.013   2.893 -0.5915 -0.4032  0.2743
  974MOL0     N31372   5.431   1.027   2.998 -0.3974 -0.7526  0.0311
  974MOL0     C31373   5.306   0.972   2.986 -0.5748  0.8840  0.8457
  974MOL0     C31374   5.256   0.992   3.111  0.1290  0.1170  0.4404
  974MOL0     C31375   5.116   0.948   3.147  0.6088 -0.0170 -1.0939
  974MOL0     C31376   5.054   1.051   3.249 -0.0621  0.6034 -0.2345
  974MOL0     C31377   5.090   1.034   3.401 -0.1281 -0.2192  0.6306
  974MOL0     C31378   5.019   1.149   3.482 -0.2309 -0.1872 -0.0977
  974MOL0     O31379   4.884   1.151   3.451  0.5450 -0.3122  0.2305
  974MOL0     C31380   4.784   1.164   3.548 -0.9457  0.2266 -0.0670
  974MOL0     C31381   4.662   1.112   3.518  0.3231  1.0285  0.1767
  974MOL0     C31382   4.546   1.129   3.607  0.6151  0.0083  0.2533
  974MOL0     C31383   4.553   1.199   3.732 -0.8527  1.2321 -0.2144
  974MOL0     C31384   4.440   1.223   3.829 -0.4846  0.4288  1.4934
  974MOL0     O31385   4.456   1.304   3.930  0.6190  0.5292 -0.2906
  974MOL0     C31386   4.363   1.376   3.981  0.3168 -0.3600  0.1267
  974MOL0     C31387   4.371   1.403   4.120  0.5646  0.5763 -0.0677
  974MOL0     C31388   4.263   1.465   4.182  0.4994  0.0591 -1.1942
  974MOL0     C31389   4.155   1.519   4.115  0.4331 -0.7723  0.2256
  974MOL0     O31390   4.047   1.585   4.157  0.5432  0.8774  0.7033
  974MOL0     C31391   4.003   1.556   4.292 -0.0486  0.2817  0.1856
  974MOL0     C31392   4.056   1.662   4.385 -0.7935 -0.0412 -0.3549
  974MOL0     C31393   3.965   1.721   4.491  0.3250  0.8559 -0.2166
  974MOL0     C31394   4.025   1.835   4.579  1.5210 -0.1520  1.0818
  974MOL0     C31395   4.080   1.775   4.705  0.1325  0.4209  0.9982
  974MOL0     C31396   4.167   1.874   4.781 -0.2790 -0.9559  0.6407
  974MOL0     C31397   4.244   1.809   4.902 -0.1914  0.0157 -0.0031
  974MOL0     C31398   4.331   1.904   4.969 -0.8226 -0.8732  0.5177
  974MOL0    Cl31399   4.465   1.984   4.874 -0.1788  0.1006  0.2773
  974MOL0     C31400   4.154   1.504   3.977 -1.2408  0.4362 -0.2734
  974MOL0     C31401   4.258   1.433   3.909 -0.7500 -0.7480  0.0096
  974MOL0     O31402   4.334   1.167   3.801  0.0802  0.5864  0.8002
  974MOL0     C31403   4.678   1.265   3.752 -0.5060 -0.2871 -0.2070
  974MOL0     C31404   4.796   1.240   3.665  0.2233  0.5308  0.1000
  974MOL0     N31405   5.337   1.057   3.194 -0.3813 -0.0205  0.5490
  974MOL0     N31406   5.452   1.067   3.133 -0.4420 -0.4317 -0.1256
  974MOL0     C31407   5.027   0.321   3.412  0.3037  0.1393  0.0832
  974MOL0     C31408   4.919   0.344   3.487  0.3985 -0.6431  0.8495
  974MOL0     C31409   4.561   0.561   3.669 -0.1292 -0.6351  0.0751
  974MOL0     C31410   4.537   0.449   3.740  0.1019 -0.4343 -0.2717
  974MOL0     C31411   4.443   0.440   3.839 -0.4698  0.2399 -0.4164
  974MOL0     C31412   4.355   0.546   3.864  0.5809 -1.1811  0.2211
  974MOL0     O31413   4.262   0.556   3.964  0.7312 -0.0625  0.8579
  974MOL0     C31414   4.225   0.438   4.029  0.1509 -0.7664  0.4325
  974MOL0     C31415   4.112   0.449   4.126  0.4162 -1.2392 -0.1351
  974MOL0     C31416   4.172   0.518   4.264  0.2427  0.1572 -0.1756
  974MOL0     C31417   4.193   0.675   4.263 -0.6271  0.5860  0.0264
  974MOL0     C31418   4.070   0.760   4.290 -0.6579 -0.3596  0.9827
  974MOL0     C31419   3.962   0.827   4.279 -0.3845  0.4871 -0.7296
  974MOL0     C31420   4.394   0.673   3.805 -0.3950  0.4153 -0.9737
  974MOL0     C31421   4.494   0.682   3.709  0.3532  1.3477  0.5253
  974MOL0     C31422   4.516   0.816   3.650  0.1784 -1.2261  0.4195
  974MOL0     H31423   4.947   0.675   3.564 -1.5721 -0.0858 -0.0352
  974MOL0     H31424   5.176   0.628   3.437 -0.5621  1.5254 -2.2324
  974MOL0     H31425   5.345   0.395   3.480 -0.3933 -1.2863 -0.4700
  974MOL0     H31426   5.405   0.311   3.347  0.5086  0.0140  1.6141
  974MOL0     H31427   5.529   0.515   3.410  0.1952 -3.8203 -0.4564
  974MOL0     H31428   5.391   0.606   3.387  1.0187 -0.4309  0.8603
  974MOL0     H31429   5.365   0.537   3.145 -0.4645 -0.8308 -0.1281
  974MOL0     H31430   5.520   0.464   3.146  0.6099  3.5233 -3.0612
  974MOL0     H31431   5.466   0.753   3.205 -1.1628 -1.5963  1.2049
  974MOL0     H31432   5.625   0.684   3.193  0.8262  1.6574 -2.2778
  974MOL0     H31433   5.552   0.597   2.953 -1.4344 -0.6676  0.3922
  974MOL0     H31434   5.425   0.729   2.964  1.2391  0.2952 -1.2502
  974MOL0     H31435   5.655   0.860   3.055 -0.8616  0.1908 -0.4717
  974MOL0     H31436   5.725   0.749   2.940  3.3552  3.9045  0.5093
  974MOL0     H31437   5.517   0.825   2.790  1.1906 -0.6124 -1.7553
  974MOL0     H31438   5.667   0.900   2.779  2.9011  1.8368  2.6181
  974MOL0     H31439   5.625   1.068   2.927 -0.1301  0.5852 -2.3353
  974MOL0     H31440   5.499   1.057   2.800  1.3491  4.8204  1.6031
  974MOL0     H31441   5.266   0.931   2.894 -0.8035 -1.1061  1.7874
  974MOL0     H31442   5.047   0.931   3.063 -0.0242  0.0448 -0.5891
  974MOL0     H31443   5.120   0.854   3.203 -1.3943  0.2396 -0.4688
  974MOL0     H31444   5.091   1.152   3.226  1.6750  0.4774  1.6800
  974MOL0     H31445   4.948   1.033   3.232  0.1166 -0.7406  0.0097
  974MOL0     H31446   5.198   1.018   3.409 -0.4805 -6.7082 -1.6047
  974MOL0     H31447   5.062   0.932   3.428  0.3249  0.4024  3.8971
  974MOL0     H31448   5.074   1.240   3.454  3.8007 -2.4214 -0.1653
  974MOL0     H31449   5.038   1.137   3.590  1.3589 -0.4066 -0.3752
  974MOL0     H31450   4.648   1.060   3.424 -1.2318  2.5627 -0.4883
  974MOL0     H31451   4.448   1.088   3.587  0.6573 -0.5109  1.0628
  974MOL0     H31452   4.438   1.333   4.170  0.0271 -1.8987 -2.5618
  974MOL0     H31453   4.247   1.479   4.289 -1.2600 -0.1075 -1.4121
  974MOL0     H31454   3.894   1.571   4.290 -0.5382 -2.3639 -3.2630
  974MOL0     H31455   4.037   1.461   4.336 -1.3508  0.3408  1.4089
  974MOL0     H31456   4.150   1.632   4.433  0.1534  0.3113 -1.8997
  974MOL0     H31457   4.083   1.745   4.319  2.4222 -0.3009  0.4714
  974MOL0     H31458   3.879   1.754   4.431  0.1511 -0.4005 -0.6833
  974MOL0     H31459   3.912   1.645   4.549 -2.0510  0.5254 -2.6077
  974MOL0     H31460   3.948   1.911   4.598 -1.3383 -2.0480 -1.8429
  974MOL0     H31461   4.094   1.902   4.527 -2.0670  4.1156  1.2067
  974MOL0     H31462   4.123   1.676   4.690 -1.5568 -0.2256  0.3127
  974MOL0     H31463   3.994   1.759   4.770 -1.0930  1.0568 -0.4177
  974MOL0     H31464   4.244   1.905   4.709 -0.4296 -0.4840  0.6845
  974MOL0     H31465   4.106   1.958   4.814  2.5629  0.8714  1.5888
  974MOL0     H31466   4.308   1.729   4.862  0.3099  1.0373 -1.3172
  974MOL0     H31467   4.177   1.757   4.971 -4.7625  0.6614 -3.4628
  974MOL0     H31468   4.260   1.976   5.011 -0.2805 -0.7366  1.2202
  974MOL0     H31469   4.383   1.863   5.056  5.2078  0.3871 -2.0370
  974MOL0     H31470   4.074   1.563   3.933 -1.5533  0.7181  0.6529
  974MOL0     H31471   4.258   1.427   3.800  6.7119 -2.0172 -0.4337
  974MOL0     H31472   4.707   1.317   3.843 -0.0510  1.2625 -1.1897
  974MOL0     H31473   4.887   1.292   3.694 -1.3644  3.5121  0.0707
  974MOL0     H31474   5.039   0.216   3.387 -0.1304 -0.6803  2.9590
  974MOL0     H31475   4.851   0.269   3.526 -1.6013  1.4223  1.5413
  974MOL0     H31476   4.599   0.362   3.720 -0.8356 -2.4393  4.3376
  974MOL0     H31477   4.434   0.346   3.894 -0.2645 -1.1893 -2.6978
  974MOL0     H31478   4.318   0.404   4.077 -0.0224 -0.1701  1.2216
  974MOL0     H31479   4.197   0.366   3.951 -1.3524  1.7768 -1.5183
  974MOL0     H31480   4.072   0.347   4.134 -0.6949 -1.2290 -3.6985
  974MOL0     H31481   4.025   0.496   4.078  1.7129 -0.4000 -1.7755
  974MOL0     H31482   4.262   0.462   4.291 -0.7503 -2.2384 -1.5263
  974MOL0     H31483   4.094   0.505   4.339 -1.7215 -6.4595 -2.6846
  974MOL0     H31484   4.251   0.696   4.353  1.0771 -0.0747 -0.8774
  974MOL0     H31485   4.243   0.717   4.175 -3.1969 -3.6757 -3.9358
  974MOL0     H31486   3.872   0.884   4.275  1.9962  4.7111 -0.0772
  974MOL0     H31487   4.337   0.762   3.828  0.5506  1.0562 -1.0326
  974MOL0     H31488   4.457   0.889   3.706 -3.1063 -1.8073 -2.0164
  974MOL0     H31489   4.619   0.842   3.675 -0.0695  0.4327 -0.1864
  974MOL0     H31490   4.485   0.845   3.549  2.2675  0.5212  0.2013
  975MOL0     O31491   0.567   7.322   7.904  0.3691  0.1590 -0.2178
  975MOL0     C31492   0.497   7.418   7.917 -0.6055  0.7469  0.7487
  975MOL0     O31493   0.409   7.439   8.023  0.1779  0.1601  0.2394
  975MOL0     C31494   0.374   7.341   8.102  0.4551  0.0507  0.6243
  975MOL0     C31495   0.407   7.204   8.107 -0.0602 -0.4238  0.1471
  975MOL0     C31496   0.345   7.129   8.213 -1.7930 -0.0369  0.2603
  975MOL0     C31497   0.239   7.171   8.292  0.3739  0.3023  0.3318
  975MOL0     O31498   0.179   7.090   8.382 -0.6642 -0.3098  0.0433
  975MOL0     C31499   0.175   7.134   8.520  0.0813  0.0576 -0.7644
  975MOL0     C31500   0.134   7.017   8.620  0.1882 -0.2117  1.0877
  975MOL0     C31501  -0.007   6.960   8.591  0.3247  0.4847 -0.8178
  975MOL0     C31502  -0.037   6.850   8.702 -0.3100 -0.3188 -0.1973
  975MOL0     C31503  -0.156   6.767   8.657 -0.2824  1.2101  0.6475
  975MOL0     C31504  -0.204   6.687   8.777 -0.5804 -0.4154 -0.4107
  975MOL0     C31505  -0.312   6.590   8.745  0.5618  0.3467  0.7688
  975MOL0     C31506  -0.244   6.483   8.654 -0.7887  0.1046  0.2620
  975MOL0     N31507  -0.330   6.369   8.649 -0.1984 -0.0169  0.2992
  975MOL0     C31508  -0.451   6.380   8.581 -0.2756  0.0667 -0.4573
  975MOL0     C31509  -0.517   6.263   8.604 -1.5076 -0.6917 -0.7787
  975MOL0     C31510  -0.654   6.220   8.554 -0.6718  0.7281  0.3861
  975MOL0     C31511  -0.744   6.324   8.490  0.0760 -0.0873  0.6571
  975MOL0     C31512  -0.814   6.419   8.599 -0.2906 -0.3969  0.3440
  975MOL0     C31513  -0.947   6.379   8.651  0.0581  0.5245 -0.3214
  975MOL0     O31514  -1.039   6.406   8.541  1.5365 -0.4220  0.1707
  975MOL0     C31515  -1.107   6.306   8.476  0.0489 -0.3899  0.9270
  975MOL0     C31516  -1.228   6.342   8.416  0.1707  0.9073 -0.6129
  975MOL0     C31517  -1.297   6.247   8.342 -0.8462 -0.4650  0.1358
  975MOL0     C31518  -1.263   6.114   8.343 -0.6403  0.2325 -1.3105
  975MOL0     C31519  -1.338   6.012   8.268 -1.2091 -0.4393  0.0861
  975MOL0     O31520  -1.303   5.880   8.301 -0.1551 -0.2837  0.2949
  975MOL0     C31521  -1.344   5.783   8.209  0.5409  0.1963 -1.3166
  975MOL0     C31522  -1.296   5.790   8.072 -0.2243 -0.1752  0.6008
  975MOL0     C31523  -1.329   5.682   7.988 -0.5688 -0.2693 -0.5608
  975MOL0     C31524  -1.406   5.579   8.022  0.4020  0.4198 -0.1941
  975MOL0     O31525  -1.429   5.471   7.929 -0.6895 -0.7758 -0.1457
  975MOL0     C31526  -1.339   5.451   7.813  0.3519 -0.6321 -0.3944
  975MOL0     C31527  -1.344   5.317   7.747  0.0334  0.5715 -1.3441
  975MOL0     C31528  -1.481   5.305   7.677  0.5679 -1.1770 -0.3324
  975MOL0     C31529  -1.492   5.179   7.594 -0.5808 -1.0090 -0.5751
  975MOL0     C31530  -1.630   5.164   7.523 -0.4492  0.6072  0.5508
  975MOL0     C31531  -1.633   5.064   7.419 -0.3762 -0.2121  0.4235
  975MOL0     C31532  -1.682   4.929   7.469 -0.1132  0.0216 -1.2164
  975MOL0     C31533  -1.678   4.822   7.352  0.6485 -1.3768 -0.8392
  975MOL0    Cl31534  -1.740   4.876   7.189  0.0793 -0.1824 -0.1634
  975MOL0     C31535  -1.456   5.574   8.142  0.2658  0.9080  0.6533
  975MOL0     C31536  -1.435   5.677   8.240  0.0517  0.5107 -0.2083
  975MOL0     O31537  -1.414   6.042   8.179 -0.8240 -0.3573 -0.8641
  975MOL0     C31538  -1.140   6.075   8.414 -0.8063 -0.3830  0.2114
  975MOL0     C31539  -1.057   6.178   8.460 -0.0289  0.0607  0.4827
  975MOL0     N31540  -0.436   6.191   8.698  0.4520 -0.0522  0.8265
  975MOL0     N31541  -0.335   6.266   8.736  0.4994 -0.8917  0.2474
  975MOL0     C31542   0.200   7.311   8.277 -0.9636 -0.7777 -0.6389
  975MOL0     C31543   0.264   7.383   8.174  0.1642 -0.2544  0.1120
  975MOL0     C31544   0.499   7.519   7.805  0.3460  1.0539  0.7892
  975MOL0     C31545   0.557   7.488   7.670 -0.4955  0.0073 -0.2165
  975MOL0     C31546   0.535   7.576   7.562  0.0002 -0.6667 -0.1972
  975MOL0     C31547   0.465   7.696   7.584  0.5398 -0.0193 -0.3236
  975MOL0     O31548   0.435   7.796   7.496 -0.3146  0.3553 -0.1086
  975MOL0     C31549   0.485   7.780   7.368  0.3526 -0.1794  0.1927
  975MOL0     C31550   0.385   7.689   7.301  0.8251  0.3235  0.4117
  975MOL0     C31551   0.466   7.652   7.169  0.5918 -0.1316 -0.8742
  975MOL0     C31552   0.363   7.562   7.080 -0.6545  0.0426 -0.3544
  975MOL0     C31553   0.252   7.631   7.014 -0.2297 -0.9865  0.3976
  975MOL0     C31554   0.170   7.701   6.951 -0.3566 -0.5363  0.5253
  975MOL0     C31555   0.422   7.722   7.710 -0.3651 -0.9635  0.1285
  975MOL0     C31556   0.451   7.641   7.825  0.5504  0.4697 -0.9907
  975MOL0     C31557   0.429   7.711   7.959 -0.8844  0.7780  0.1301
  975MOL0     H31558   0.458   7.157   8.024 -0.5145 -1.1005  0.2424
  975MOL0     H31559   0.379   7.026   8.218  0.8991  0.5583 -2.6628
  975MOL0     H31560   0.274   7.174   8.547 -0.0873  1.1515 -1.7229
  975MOL0     H31561   0.098   7.211   8.518 -0.4627 -0.5044 -1.4524
  975MOL0     H31562   0.127   7.047   8.725  2.4112 -2.1431  1.8661
  975MOL0     H31563   0.206   6.936   8.624 -0.9299 -1.2026  3.9453
  975MOL0     H31564  -0.004   6.909   8.494  0.0208  0.3083 -0.7365
  975MOL0     H31565  -0.078   7.044   8.589 -0.8789 -0.4487  0.5436
  975MOL0     H31566   0.051   6.787   8.712 -0.1803 -0.5114 -2.1671
  975MOL0     H31567  -0.064   6.894   8.799 -2.7690 -1.9915 -0.0334
  975MOL0     H31568  -0.244   6.823   8.626 -0.9842 -0.4547 -0.4903
  975MOL0     H31569  -0.135   6.702   8.572  0.7525  1.0620  1.0017
  975MOL0     H31570  -0.121   6.635   8.824  1.8185  1.3991 -2.3895
  975MOL0     H31571  -0.238   6.756   8.856 -3.0167 -1.2219 -0.6658
  975MOL0     H31572  -0.384   6.634   8.676 -1.6562 -2.2098  1.2946
  975MOL0     H31573  -0.352   6.544   8.836  0.1261  1.7151  1.2881
  975MOL0     H31574  -0.224   6.522   8.554  1.1225  2.5152  1.4711
  975MOL0     H31575  -0.145   6.461   8.696 -0.9959 -0.2954  0.5435
  975MOL0     H31576  -0.479   6.462   8.515 -1.0686  0.5583  0.4653
  975MOL0     H31577  -0.637   6.143   8.477 -1.9614  1.3305 -0.5258
  975MOL0     H31578  -0.707   6.161   8.629 -3.1774  0.3390 -1.5614
  975MOL0     H31579  -0.692   6.382   8.414 -1.0436 -0.3678 -0.3534
  975MOL0     H31580  -0.822   6.282   8.426 -1.3176  0.2764  2.0334
  975MOL0     H31581  -0.821   6.521   8.560 -2.9436 -0.5966  0.1506
  975MOL0     H31582  -0.748   6.432   8.686  1.5191  2.5451 -1.2904
  975MOL0     H31583  -0.964   6.443   8.738  0.3099  2.5421 -1.6864
  975MOL0     H31584  -0.953   6.272   8.672  0.1051 -0.0761 -3.0171
  975MOL0     H31585  -1.284   6.435   8.425 -0.6219  0.4579 -0.8215
  975MOL0     H31586  -1.391   6.279   8.297 -0.7579  1.8470  1.4509
  975MOL0     H31587  -1.238   5.877   8.043 -1.5492  1.4880  2.7066
  975MOL0     H31588  -1.301   5.692   7.884 -0.3623 -2.1161 -0.7070
  975MOL0     H31589  -1.372   5.529   7.744 -1.6040 -1.1693 -0.1344
  975MOL0     H31590  -1.236   5.476   7.840  0.9982 -3.6163  0.2588
  975MOL0     H31591  -1.260   5.312   7.678  1.3697 -2.3007  0.3190
  975MOL0     H31592  -1.331   5.231   7.813  4.9055  0.4804 -2.0767
  975MOL0     H31593  -1.560   5.303   7.752  0.0570 -1.3815 -0.8690
  975MOL0     H31594  -1.495   5.389   7.608 -0.8846 -0.8815  0.2887
  975MOL0     H31595  -1.485   5.090   7.657 -0.6463 -0.5172  0.1422
  975MOL0     H31596  -1.412   5.173   7.519  0.7273 -0.3332  0.7157
  975MOL0     H31597  -1.634   5.256   7.465  2.7022  1.8451  2.0394
  975MOL0     H31598  -1.713   5.154   7.594 -1.0064 -2.6752 -0.3635
  975MOL0     H31599  -1.701   5.111   7.347  1.0951  1.5571  0.1172
  975MOL0     H31600  -1.541   5.066   7.359 -0.7550  1.5776 -0.1824
  975MOL0     H31601  -1.785   4.942   7.501 -0.8276  1.1435 -3.7372
  975MOL0     H31602  -1.611   4.915   7.551 -0.9470 -2.2339 -0.7977
  975MOL0     H31603  -1.575   4.789   7.335  1.2159  0.5748 -1.4428
  975MOL0     H31604  -1.727   4.735   7.398  1.3194 -0.7046  1.2710
  975MOL0     H31605  -1.510   5.488   8.181  2.0833 -0.4478  0.3093
  975MOL0     H31606  -1.479   5.665   8.338  1.8024 -1.2923  0.4400
  975MOL0     H31607  -1.121   5.970   8.432 -1.6909 -0.5058  0.4776
  975MOL0     H31608  -0.956   6.151   8.492 -0.3330 -2.6210 -0.5684
  975MOL0     H31609   0.120   7.355   8.336 -0.9147  0.0649 -1.1933
  975MOL0     H31610   0.232   7.486   8.166  1.4838  0.2082  0.5222
  975MOL0     H31611   0.620   7.400   7.660 -2.2765 -1.4261  0.6566
  975MOL0     H31612   0.577   7.570   7.462  0.4319  2.6903 -0.3421
  975MOL0     H31613   0.587   7.742   7.365  0.9357  1.2400  0.8845
  975MOL0     H31614   0.476   7.878   7.320  1.4733 -0.6406 -1.0216
  975MOL0     H31615   0.291   7.742   7.284  1.7351  3.3313  3.6806
  975MOL0     H31616   0.345   7.603   7.356 -0.5280  2.7886  3.5662
  975MOL0     H31617   0.547   7.583   7.196 -0.4401 -0.9055  0.3707
  975MOL0     H31618   0.498   7.742   7.117 -0.7610  2.4970  2.4641
  975MOL0     H31619   0.436   7.509   7.019 -0.8174 -0.5471 -0.0426
  975MOL0     H31620   0.309   7.484   7.135 -0.9854 -0.3674 -1.2458
  975MOL0     H31621   0.107   7.768   6.896  0.6611  1.0245  1.1767
  975MOL0     H31622   0.394   7.825   7.728  3.7368  0.1287  1.4986
  975MOL0     H31623   0.446   7.819   7.948  1.7102  0.6343  1.8040
  975MOL0     H31624   0.328   7.697   8.000 -1.8763  2.7462 -1.4584
  975MOL0     H31625   0.505   7.679   8.030  3.0896  1.0154 -3.6168
  976MOL0     O31626   2.954   5.914   2.639 -0.2936  0.0141  0.0572
  976MOL0     C31627   3.042   5.859   2.567  0.2736  0.1419 -0.3534
  976MOL0     O31628   3.141   5.933   2.497 -0.4208 -0.2777 -0.0053
  976MOL0     C31629   3.155   6.066   2.534  0.3001  0.1284  0.4911
  976MOL0     C31630   3.228   6.094   2.646  0.1039 -0.4341 -0.6897
  976MOL0     C31631   3.254   6.231   2.681  0.1039  0.2642  0.2316
  976MOL0     C31632   3.195   6.333   2.612  0.1993  0.7578  1.0951
  976MOL0     O31633   3.238   6.460   2.636  0.1072  0.1399 -0.4319
  976MOL0     C31634   3.140   6.562   2.599  0.2821 -0.2589 -0.1919
  976MOL0     C31635   3.192   6.710   2.610  0.1236  0.8650  0.7713
  976MOL0     C31636   3.340   6.718   2.607 -0.0940 -0.5068 -0.4719
  976MOL0     C31637   3.385   6.864   2.566  0.9121 -0.3053  0.9913
  976MOL0     C31638   3.533   6.865   2.529 -0.1624 -0.0003  0.4599
  976MOL0     C31639   3.556   7.001   2.455 -0.0074 -0.1815 -0.1254
  976MOL0     C31640   3.700   7.029   2.396 -0.8260 -0.7803 -0.4620
  976MOL0     C31641   3.769   6.907   2.334 -0.0781  0.6290 -0.7056
  976MOL0     N31642   3.709   6.864   2.203  0.5564  0.1001  0.0053
  976MOL0     C31643   3.675   6.945   2.090 -0.6350  0.1005  0.4396
  976MOL0     C31644   3.641   6.857   1.999  0.1755 -0.1824  0.0774
  976MOL0     C31645   3.605   6.871   1.858  1.3007 -0.7747 -0.0284
  976MOL0     C31646   3.465   6.917   1.837  0.6435  0.3050  0.5397
  976MOL0     C31647   3.429   6.947   1.683  0.3940 -0.5709 -0.0658
  976MOL0     C31648   3.465   6.848   1.576 -0.2652 -0.4243  0.2384
  976MOL0     O31649   3.443   6.716   1.622 -0.0524  0.4052 -0.6683
  976MOL0     C31650   3.316   6.659   1.626 -0.6435 -0.7195  1.2658
  976MOL0     C31651   3.211   6.725   1.573 -0.4455 -0.2522  0.1056
  976MOL0     C31652   3.077   6.680   1.578 -0.5362 -0.5634  0.1724
  976MOL0     C31653   3.057   6.562   1.653 -0.0177  0.9431 -0.0567
  976MOL0     C31654   2.924   6.504   1.635  0.2930 -0.2173 -0.5311
  976MOL0     O31655   2.820   6.582   1.582  0.1647  0.3433  0.6814
  976MOL0     C31656   2.703   6.522   1.559  0.6480  0.4699 -0.1524
  976MOL0     C31657   2.602   6.485   1.649  0.1334  0.0598 -0.0115
  976MOL0     C31658   2.485   6.412   1.612  0.8146 -0.2202 -0.4699
  976MOL0     C31659   2.463   6.377   1.475 -0.5880 -0.8714 -0.8910
  976MOL0     O31660   2.342   6.327   1.437  0.6833 -0.1217 -0.5301
  976MOL0     C31661   2.307   6.194   1.489  0.1170  0.8375 -0.4497
  976MOL0     C31662   2.413   6.076   1.478 -0.2226  0.2528 -1.2066
  976MOL0     C31663   2.443   6.037   1.338  1.5138  0.3679  1.0864
  976MOL0     C31664   2.528   5.907   1.324  0.2218 -1.0924 -0.3741
  976MOL0     C31665   2.620   5.892   1.194 -0.3201  0.8573 -0.3532
  976MOL0     C31666   2.698   5.760   1.187  0.6671 -0.3068 -0.5771
  976MOL0     C31667   2.824   5.773   1.094 -1.2305  0.5186 -0.4934
  976MOL0     C31668   2.949   5.825   1.149 -1.0385 -0.3387  0.3058
  976MOL0    Cl31669   2.952   6.005   1.143  0.5668  0.7521  0.2563
  976MOL0     C31670   2.561   6.414   1.376 -0.0386 -1.2286 -0.6778
  976MOL0     C31671   2.675   6.486   1.423 -0.5258 -0.7522 -0.0908
  976MOL0     O31672   2.913   6.388   1.667 -0.1529  0.4983 -0.6205
  976MOL0     C31673   3.169   6.494   1.709 -1.0382  0.6016  0.1192
  976MOL0     C31674   3.300   6.546   1.698  0.3668  0.4889  0.3754
  976MOL0     N31675   3.630   6.730   2.051 -0.0755  0.0470 -0.3876
  976MOL0     N31676   3.673   6.735   2.176 -0.2947 -0.3279 -0.3600
  976MOL0     C31677   3.123   6.298   2.489 -0.5794 -0.5895 -0.8236
  976MOL0     C31678   3.106   6.167   2.451  0.3818  0.0326 -0.5170
  976MOL0     C31679   3.021   5.719   2.532 -0.6201 -0.0855  0.7247
  976MOL0     C31680   3.060   5.685   2.396 -0.6152  0.1799  0.3206
  976MOL0     C31681   3.036   5.564   2.342 -0.0409  0.6492  0.8496
  976MOL0     C31682   2.992   5.462   2.424  0.6149  0.4368  1.1532
  976MOL0     O31683   2.980   5.330   2.388 -0.6129  0.4550 -0.1032
  976MOL0     C31684   3.021   5.275   2.261 -0.6642  0.0137 -0.8672
  976MOL0     C31685   3.058   5.124   2.265  0.5654  0.9982  0.7769
  976MOL0     C31686   2.968   5.023   2.345  0.0635  0.1107 -0.6735
  976MOL0     C31687   3.014   4.881   2.372 -0.2646  0.2222  0.6145
  976MOL0     C31688   2.999   4.789   2.255 -0.4954 -0.6183 -0.6508
  976MOL0     C31689   2.980   4.733   2.151  0.5966 -0.4143  0.6948
  976MOL0     C31690   2.966   5.491   2.557  0.1765 -0.1785  0.5294
  976MOL0     C31691   2.968   5.614   2.616 -0.3799  0.4274  1.0567
  976MOL0     C31692   2.902   5.630   2.745 -0.9110  0.2917 -0.8587
  976MOL0     H31693   3.256   6.002   2.696 -1.4224 -2.7138 -3.7450
  976MOL0     H31694   3.308   6.253   2.773  3.9642 -0.7398 -1.6046
  976MOL0     H31695   3.095   6.551   2.500 -0.7980 -3.5362  0.5568
  976MOL0     H31696   3.056   6.560   2.669  1.2416  2.3765  1.1978
  976MOL0     H31697   3.164   6.740   2.711  3.0496  3.3474  1.0144
  976MOL0     H31698   3.141   6.777   2.540  0.4132  1.3201  0.9915
  976MOL0     H31699   3.381   6.650   2.532 -1.4235  2.8400 -4.6407
  976MOL0     H31700   3.392   6.696   2.701  2.3686  0.3510 -1.5457
  976MOL0     H31701   3.338   6.896   2.472  3.6386 -1.3524 -0.8552
  976MOL0     H31702   3.357   6.944   2.635 -2.0763 -1.0970  0.8406
  976MOL0     H31703   3.577   6.851   2.628 -0.5828 -3.0063  0.3078
  976MOL0     H31704   3.572   6.792   2.457  1.6502  3.5861 -2.5278
  976MOL0     H31705   3.473   7.015   2.385  0.0726 -1.3280 -0.4747
  976MOL0     H31706   3.555   7.082   2.528  1.8395  0.0999 -0.3577
  976MOL0     H31707   3.772   7.075   2.463 -1.9318  1.5268 -0.7727
  976MOL0     H31708   3.686   7.104   2.318  1.3668  2.5463  2.0700
  976MOL0     H31709   3.874   6.932   2.313  1.0195 -2.4261  0.6118
  976MOL0     H31710   3.759   6.825   2.406 -0.7412  2.1116  0.9764
  976MOL0     H31711   3.687   7.053   2.080 -2.4557  0.1478 -2.0862
  976MOL0     H31712   3.669   6.953   1.826 -0.4296  1.2979  1.5401
  976MOL0     H31713   3.611   6.775   1.806  0.1764  1.3350 -4.5863
  976MOL0     H31714   3.398   6.838   1.870 -1.4018  1.5269 -0.4915
  976MOL0     H31715   3.449   7.009   1.894 -2.6249  1.6659 -2.2130
  976MOL0     H31716   3.469   7.048   1.665 -3.4816  1.3621  1.0905
  976MOL0     H31717   3.321   6.960   1.681  0.3600  0.4086  3.0964
  976MOL0     H31718   3.574   6.841   1.574 -0.1183 -2.6829  4.5135
  976MOL0     H31719   3.427   6.868   1.475 -1.9463 -4.6782 -0.1536
  976MOL0     H31720   3.221   6.816   1.516 -0.5441 -1.7562 -2.4342
  976MOL0     H31721   3.002   6.745   1.534  1.9237  1.0937 -1.8429
  976MOL0     H31722   2.612   6.499   1.756  2.0003 -1.1896  0.0219
  976MOL0     H31723   2.414   6.383   1.688 -0.5000  1.5822 -0.9463
  976MOL0     H31724   2.290   6.216   1.595  2.3964  0.7488 -0.0008
  976MOL0     H31725   2.208   6.165   1.454 -0.7348  0.6206  1.9438
  976MOL0     H31726   2.501   6.090   1.542 -0.6176 -0.5603 -0.4669
  976MOL0     H31727   2.368   5.989   1.527  1.4030 -0.6423 -1.2341
  976MOL0     H31728   2.345   6.009   1.300  0.6945  0.6871  2.8721
  976MOL0     H31729   2.466   6.123   1.274 -1.5402 -0.4531 -1.3673
  976MOL0     H31730   2.473   5.814   1.341 -1.2761 -0.6300 -2.3215
  976MOL0     H31731   2.595   5.909   1.411  1.6841  3.6493 -1.3202
  976MOL0     H31732   2.691   5.974   1.205 -1.1095  1.4325  0.6428
  976MOL0     H31733   2.559   5.899   1.103  1.6435 -0.9509 -1.9239
  976MOL0     H31734   2.742   5.731   1.283  0.5366  5.7642  1.7962
  976MOL0     H31735   2.634   5.683   1.143 -0.2523 -0.9427  1.7181
  976MOL0     H31736   2.792   5.832   1.007 -1.0081  2.1379  0.4685
  976MOL0     H31737   2.851   5.670   1.068  2.2005  1.2751 -0.5151
  976MOL0     H31738   2.958   5.789   1.252 -0.9903  1.8963  1.1382
  976MOL0     H31739   3.034   5.786   1.091 -3.6286 -2.2774 -2.4562
  976MOL0     H31740   2.550   6.396   1.270 -0.2260 -1.3110 -0.6446
  976MOL0     H31741   2.759   6.524   1.367 -0.6248 -0.3120  0.0576
  976MOL0     H31742   3.161   6.401   1.765  0.3934  0.6851  0.4946
  976MOL0     H31743   3.378   6.506   1.762 -0.0507 -0.0042  0.5789
  976MOL0     H31744   3.087   6.379   2.425  0.2827 -1.1568 -2.0739
  976MOL0     H31745   3.057   6.147   2.356 -0.3897  0.5441 -0.2388
  976MOL0     H31746   3.086   5.762   2.324 -0.9703  1.2017  1.2679
  976MOL0     H31747   3.064   5.551   2.238 -1.0626 -1.7029  0.7894
  976MOL0     H31748   3.109   5.327   2.222 -0.3676 -0.0568 -0.3068
  976MOL0     H31749   2.942   5.292   2.188 -2.2586  2.5145  1.2430
  976MOL0     H31750   3.162   5.115   2.296  1.0162 -0.2121 -0.8895
  976MOL0     H31751   3.033   5.079   2.168 -0.8377 -1.2707  2.1018
  976MOL0     H31752   2.874   5.007   2.291  0.4840 -2.1095 -0.8515
  976MOL0     H31753   2.931   5.074   2.434 -2.1533  2.2987 -2.6884
  976MOL0     H31754   3.119   4.890   2.401  0.1107  0.7907 -0.7968
  976MOL0     H31755   2.968   4.840   2.462  1.3094  0.7266  1.6738
  976MOL0     H31756   2.952   4.681   2.061  1.3313  0.3889 -0.0246
  976MOL0     H31757   2.942   5.406   2.621  0.6121 -0.5649  0.1911
  976MOL0     H31758   2.971   5.612   2.828 -0.3772  0.8587 -1.1660
  976MOL0     H31759   2.876   5.736   2.755  0.6064  0.8356 -2.0735
  976MOL0     H31760   2.814   5.568   2.763 -1.9758  1.3284 -2.2105
  977MOL0     O31761   2.957   7.332   0.877 -0.0729  0.7266 -0.0176
  977MOL0     C31762   2.943   7.446   0.845 -0.2969 -0.4733  0.2357
  977MOL0     O31763   2.840   7.485   0.768 -0.2359 -0.3471 -0.4545
  977MOL0     C31764   2.740   7.395   0.730 -0.8742 -1.7108 -0.1801
  977MOL0     C31765   2.772   7.285   0.650 -0.0871 -1.4879  0.3603
  977MOL0     C31766   2.683   7.198   0.597  0.1835 -0.2543  0.6861
  977MOL0     C31767   2.551   7.223   0.636 -0.2938  1.3002 -0.4069
  977MOL0     O31768   2.465   7.128   0.599  0.3195 -0.0048 -0.5048
  977MOL0     C31769   2.330   7.127   0.645 -0.2597 -0.2110 -0.3841
  977MOL0     C31770   2.273   6.993   0.612 -0.7529  0.1618  1.5431
  977MOL0     C31771   2.340   6.871   0.683 -0.0316 -0.3368  0.7333
  977MOL0     C31772   2.311   6.745   0.605 -0.5689 -0.7312 -0.2348
  977MOL0     C31773   2.395   6.621   0.656  0.6737 -0.8534  0.1228
  977MOL0     C31774   2.359   6.576   0.801 -0.2480 -0.7413  0.5122
  977MOL0     C31775   2.210   6.564   0.834 -0.0192 -0.6882 -0.3677
  977MOL0     C31776   2.129   6.449   0.757 -0.5309  0.7119  0.0036
  977MOL0     N31777   1.981   6.451   0.769  0.2521  0.6864 -0.7630
  977MOL0     C31778   1.908   6.391   0.876 -0.3242  0.5901 -0.0002
  977MOL0     C31779   1.779   6.390   0.830  0.5605 -0.0558 -0.2584
  977MOL0     C31780   1.662   6.341   0.891 -0.2232  0.2667  0.3558
  977MOL0     C31781   1.594   6.229   0.808  0.3069  0.3888  1.0193
  977MOL0     C31782   1.475   6.166   0.886  0.6597 -0.5789  0.3683
  977MOL0     C31783   1.353   6.274   0.918  0.5722  0.0673  0.7778
  977MOL0     O31784   1.290   6.306   0.795 -0.8777  0.0636 -0.2857
  977MOL0     C31785   1.176   6.389   0.798 -1.0928 -0.2199  0.0367
  977MOL0     C31786   1.105   6.441   0.907 -0.6989 -0.0035 -0.5135
  977MOL0     C31787   1.001   6.535   0.892  0.0556 -0.6772 -0.1362
  977MOL0     C31788   0.976   6.581   0.764  0.5415 -0.4845  0.0642
  977MOL0     C31789   0.859   6.669   0.741  0.3964  0.2198 -0.3331
  977MOL0     O31790   0.835   6.726   0.613 -0.1964  0.2428  0.1504
  977MOL0     C31791   0.719   6.789   0.599 -0.5703  0.4648 -0.1575
  977MOL0     C31792   0.615   6.717   0.538  0.1934 -0.2242 -1.0115
  977MOL0     C31793   0.482   6.780   0.539  0.0686 -1.0481 -0.7138
  977MOL0     C31794   0.458   6.907   0.589 -1.5094 -0.9218  0.4906
  977MOL0     O31795   0.332   6.964   0.600  1.6575 -0.2032  0.4542
  977MOL0     C31796   0.246   6.943   0.480  0.6666  0.3834  0.3589
  977MOL0     C31797   0.116   6.902   0.521 -0.3273 -0.3801  0.3848
  977MOL0     C31798   0.050   6.987   0.634 -0.2222 -0.0465 -0.5305
  977MOL0     C31799  -0.099   6.965   0.649  0.3529 -0.3386  0.4553
  977MOL0     C31800  -0.203   7.049   0.574  0.5747 -0.0989  0.2224
  977MOL0     C31801  -0.187   7.200   0.559  0.1929  0.3191 -0.1474
  977MOL0     C31802  -0.307   7.280   0.497  0.4584 -0.3922 -0.3592
  977MOL0     C31803  -0.252   7.428   0.478 -0.2696 -0.2444 -0.1449
  977MOL0    Cl31804  -0.187   7.509   0.627  0.4517 -0.3485 -0.0360
  977MOL0     C31805   0.565   6.983   0.635 -0.6290  0.8871  0.6633
  977MOL0     C31806   0.697   6.925   0.646 -0.0711  0.1150  0.7382
  977MOL0     O31807   0.771   6.668   0.833  0.1442  0.6074  0.6595
  977MOL0     C31808   1.049   6.541   0.650  0.8972 -0.7219  0.7748
  977MOL0     C31809   1.149   6.448   0.670  0.2495 -0.4141 -0.4028
  977MOL0     N31810   1.782   6.457   0.706  0.1238 -0.3466  0.3947
  977MOL0     N31811   1.898   6.503   0.679  0.9552 -0.4357 -0.6653
  977MOL0     C31812   2.514   7.337   0.710 -0.1255  0.9399  0.5493
  977MOL0     C31813   2.610   7.421   0.754  0.5962  0.8230  0.1878
  977MOL0     C31814   3.057   7.534   0.866 -0.3115  0.2546 -0.2192
  977MOL0     C31815   3.160   7.493   0.954 -0.5747 -0.5086 -0.5782
  977MOL0     C31816   3.278   7.563   0.972 -0.1071  0.5572 -0.2358
  977MOL0     C31817   3.298   7.681   0.894  1.1099  0.2131  0.9834
  977MOL0     O31818   3.409   7.754   0.901 -0.8035 -0.2646 -0.1668
  977MOL0     C31819   3.439   7.813   1.030 -0.6852  0.6083 -1.0295
  977MOL0     C31820   3.324   7.839   1.135  0.6977  0.5412 -0.0531
  977MOL0     C31821   3.369   7.901   1.266 -0.2699 -0.1506 -0.6787
  977MOL0     C31822   3.261   7.898   1.375  0.9765  0.7977  0.4109
  977MOL0     C31823   3.298   7.938   1.508  0.1169  0.0883 -0.4244
  977MOL0     C31824   3.324   7.984   1.620  1.3150 -0.0925  0.6408
  977MOL0     C31825   3.183   7.739   0.838  0.4024 -0.3804 -0.2615
  977MOL0     C31826   3.069   7.667   0.821 -1.0855 -0.0958  1.1114
  977MOL0     C31827   2.954   7.745   0.775 -0.3694  0.4962  1.4335
  977MOL0     H31828   2.876   7.277   0.621  0.5091  1.4021  1.3494
  977MOL0     H31829   2.714   7.110   0.542  2.3528 -0.1684  1.6593
  977MOL0     H31830   2.321   7.139   0.754 -0.0221 -0.7481 -0.3031
  977MOL0     H31831   2.277   7.204   0.589  4.6649  2.5508 -1.8620
  977MOL0     H31832   2.296   6.976   0.507 -1.1130 -0.8978  1.6256
  977MOL0     H31833   2.164   6.990   0.620 -1.2141  2.4940 -1.7483
  977MOL0     H31834   2.313   6.875   0.789 -1.2211  1.6246  0.4170
  977MOL0     H31835   2.448   6.884   0.678 -0.3309  2.2781 -1.1212
  977MOL0     H31836   2.205   6.719   0.611  0.0472 -3.6558 -0.3942
  977MOL0     H31837   2.336   6.765   0.501  1.3673 -3.6056 -0.4768
  977MOL0     H31838   2.378   6.552   0.573  1.1371  2.6826 -3.2570
  977MOL0     H31839   2.502   6.647   0.648  0.4273 -0.0791 -1.0879
  977MOL0     H31840   2.408   6.480   0.821 -2.1228 -2.1787 -1.3239
  977MOL0     H31841   2.396   6.648   0.875 -0.8915 -0.2943  0.4066
  977MOL0     H31842   2.158   6.659   0.821 -3.6571 -2.6136 -1.2058
  977MOL0     H31843   2.180   6.539   0.936 -1.2664 -2.2547 -1.0729
  977MOL0     H31844   2.154   6.459   0.651 -2.2449  3.6114 -0.2287
  977MOL0     H31845   2.158   6.351   0.797 -1.8532  0.4361  0.3417
  977MOL0     H31846   1.929   6.371   0.981  2.0608 -4.3652 -1.1278
  977MOL0     H31847   1.670   6.307   0.995  1.1494 -0.8905 -0.0898
  977MOL0     H31848   1.592   6.423   0.901 -2.8894 -1.9603  1.2418
  977MOL0     H31849   1.555   6.254   0.709 -0.2204 -0.0155  1.1189
  977MOL0     H31850   1.671   6.152   0.799  1.2518  1.4933 -1.2505
  977MOL0     H31851   1.499   6.120   0.982  2.0765  1.8287  1.2504
  977MOL0     H31852   1.427   6.089   0.824  1.7800 -2.5393  1.8023
  977MOL0     H31853   1.388   6.364   0.970  0.1636  1.1148 -0.7195
  977MOL0     H31854   1.273   6.228   0.978 -0.5847 -1.7340 -1.9299
  977MOL0     H31855   1.136   6.404   1.005 -3.5078 -1.2035  0.0082
  977MOL0     H31856   0.932   6.548   0.975 -3.5787 -3.7693 -2.3436
  977MOL0     H31857   0.623   6.623   0.486 -0.5396  0.3373 -2.1887
  977MOL0     H31858   0.396   6.720   0.512  0.3469 -0.9577 -1.8811
  977MOL0     H31859   0.239   7.039   0.428  0.3355 -1.5276 -3.4816
  977MOL0     H31860   0.287   6.867   0.413  4.3691  1.6930  0.8752
  977MOL0     H31861   0.053   6.895   0.432 -2.0059  1.8998  1.2981
  977MOL0     H31862   0.131   6.798   0.553 -0.8899 -0.6691 -0.2540
  977MOL0     H31863   0.089   6.962   0.732 -2.6650 -4.7205 -0.4700
  977MOL0     H31864   0.066   7.090   0.600 -0.0432  0.8454  2.0183
  977MOL0     H31865  -0.124   6.960   0.755 -1.5079  0.1428  0.0648
  977MOL0     H31866  -0.119   6.862   0.620 -1.6384  0.9149 -3.1508
  977MOL0     H31867  -0.293   7.027   0.631  0.5700  2.4727  1.3482
  977MOL0     H31868  -0.228   7.004   0.477 -2.9617  1.8168  0.0847
  977MOL0     H31869  -0.171   7.259   0.650  1.7817  1.4472 -1.0985
  977MOL0     H31870  -0.101   7.206   0.492 -1.3920 -0.6515 -2.3710
  977MOL0     H31871  -0.395   7.280   0.561  1.3470 -2.6706  0.9915
  977MOL0     H31872  -0.324   7.252   0.393  1.1551 -0.2993 -0.5056
  977MOL0     H31873  -0.164   7.414   0.414  2.3218 -1.8511  3.4032
  977MOL0     H31874  -0.335   7.489   0.442  0.0592 -0.1600 -0.7693
  977MOL0     H31875   0.553   7.086   0.666  0.1515  2.4484 -3.5656
  977MOL0     H31876   0.781   6.977   0.690  0.4613 -0.3826  0.3295
  977MOL0     H31877   1.044   6.587   0.552  0.9526 -1.6609  0.3206
  977MOL0     H31878   1.218   6.416   0.593 -3.3228 -4.6077 -2.2968
  977MOL0     H31879   2.415   7.371   0.739 -0.6068  0.6032 -0.6405
  977MOL0     H31880   2.574   7.510   0.804 -1.2746 -1.1309  2.5958
  977MOL0     H31881   3.146   7.401   1.009  0.3849  1.9847  4.3729
  977MOL0     H31882   3.365   7.534   1.031 -0.1687  0.1752 -0.3299
  977MOL0     H31883   3.467   7.917   1.012  0.4616  0.2813 -1.2345
  977MOL0     H31884   3.519   7.752   1.073  0.5219  3.1908  0.6067
  977MOL0     H31885   3.279   7.742   1.156 -0.1123  1.2777  1.8492
  977MOL0     H31886   3.238   7.896   1.099 -0.7046 -1.9031 -0.8510
  977MOL0     H31887   3.426   7.993   1.251  2.9635 -2.2630 -2.5555
  977MOL0     H31888   3.443   7.833   1.310 -3.3864 -3.4375 -0.0768
  977MOL0     H31889   3.183   7.965   1.337 -0.7234 -0.0514  2.1978
  977MOL0     H31890   3.208   7.804   1.392 -2.2053  1.9964 -2.0339
  977MOL0     H31891   3.344   8.027   1.716  0.1648  2.3172 -0.1263
  977MOL0     H31892   3.194   7.834   0.787 -1.8372  0.2564  0.3279
  977MOL0     H31893   2.857   7.724   0.823 -1.6341 -2.3198 -1.9279
  977MOL0     H31894   2.956   7.851   0.802 -1.8461  1.1453 -0.7469
  977MOL0     H31895   2.937   7.743   0.667 -0.9937 -2.1631  1.5010
  978MOL0     O31896   5.095   2.127  10.377  0.0697 -0.3058  0.2248
  978MOL0     C31897   5.177   2.161  10.294 -0.3261 -0.3137  0.1191
  978MOL0     O31898   5.299   2.240  10.314  0.6042 -0.0391 -0.3522
  978MOL0     C31899   5.336   2.304  10.436  0.1410  0.1791  0.0404
  978MOL0     C31900   5.274   2.277  10.563  0.3439 -0.5888  1.1562
  978MOL0     C31901   5.324   2.335  10.683  0.3465  0.1429 -0.1527
  978MOL0     C31902   5.442   2.412  10.676  0.3713  0.6919  0.4474
  978MOL0     O31903   5.513   2.461  10.786  1.3097  0.6294  0.5026
  978MOL0     C31904   5.445   2.464  10.910  0.7372  0.2631 -0.6689
  978MOL0     C31905   5.356   2.587  10.914  0.0075 -0.1129 -0.6567
  978MOL0     C31906   5.316   2.648  11.049 -0.1621 -0.1493  0.0243
  978MOL0     C31907   5.196   2.573  11.115 -0.3202 -1.2497  0.8625
  978MOL0     C31908   5.150   2.651  11.236  0.3554  0.4677 -0.0096
  978MOL0     C31909   5.028   2.569  11.297 -0.1677 -0.6420 -0.6586
  978MOL0     C31910   5.006   2.605  11.448 -0.0094  0.7784  1.1838
  978MOL0     C31911   4.889   2.534  11.526 -0.3075 -1.1886 -0.1312
  978MOL0     N31912   4.759   2.590  11.483  0.4611  0.8265 -0.1627
  978MOL0     C31913   4.681   2.683  11.545  0.7594 -0.3673  0.9420
  978MOL0     C31914   4.585   2.700  11.461  0.4232  0.4587 -0.0084
  978MOL0     C31915   4.464   2.782  11.488  0.4389  0.6051 -0.2972
  978MOL0     C31916   4.444   2.904  11.390  1.2184  0.4027 -0.8205
  978MOL0     C31917   4.379   3.023  11.466  0.6251 -0.2974  0.0528
  978MOL0     C31918   4.316   3.124  11.372 -0.4232 -0.4870  0.0679
  978MOL0     O31919   4.397   3.239  11.349 -0.2880 -0.1567 -0.3830
  978MOL0     C31920   4.355   3.333  11.256  0.0727 -0.7151  0.4559
  978MOL0     C31921   4.427   3.462  11.256  0.0865  0.8702 -0.2086
  978MOL0     C31922   4.376   3.572  11.171  0.7146  0.8447  0.6253
  978MOL0     C31923   4.263   3.557  11.093 -0.3778 -0.2117 -0.3279
  978MOL0     C31924   4.227   3.689  11.020 -0.3251 -0.7858 -0.3027
  978MOL0     O31925   4.102   3.706  10.994 -0.2367 -0.7220  0.0839
  978MOL0     C31926   4.073   3.821  10.929 -0.6527  0.5624  0.4733
  978MOL0     C31927   4.088   3.822  10.789  0.0514  0.1620 -0.6408
  978MOL0     C31928   4.063   3.944  10.728 -0.1316  0.4714  0.1197
  978MOL0     C31929   4.016   4.058  10.790 -0.3920  0.5590 -0.8161
  978MOL0     O31930   3.978   4.162  10.717 -0.4304 -0.3417 -0.1257
  978MOL0     C31931   3.968   4.291  10.783 -0.1776  0.0471 -0.3506
  978MOL0     C31932   3.823   4.320  10.850  0.7126 -0.6866  0.2581
  978MOL0     C31933   3.703   4.282  10.755  0.9829  0.2293  0.0725
  978MOL0     C31934   3.597   4.195  10.833 -0.1722  0.4104  0.2340
  978MOL0     C31935   3.516   4.117  10.735 -0.7290 -0.2189  0.0915
  978MOL0     C31936   3.371   4.069  10.801 -0.7711  0.4261  0.0690
  978MOL0     C31937   3.253   4.163  10.753 -0.8130 -0.0750  0.1175
  978MOL0     C31938   3.238   4.286  10.844  0.8881  0.1696  0.5146
  978MOL0    Cl31939   3.077   4.363  10.792  0.4904 -0.3103 -0.2091
  978MOL0     C31940   4.007   4.046  10.933  1.2750 -0.7731  0.5650
  978MOL0     C31941   4.046   3.931  10.999  0.0575  0.4698  0.0567
  978MOL0     O31942   4.315   3.778  11.007  0.3338 -0.0078  0.2718
  978MOL0     C31943   4.199   3.437  11.084 -0.4562 -0.5149  0.3191
  978MOL0     C31944   4.248   3.327  11.166  0.4538 -0.0976  0.9664
  978MOL0     N31945   4.594   2.626  11.348 -0.4038 -0.2114  0.1545
  978MOL0     N31946   4.706   2.563  11.368  0.5171  0.8704 -1.2912
  978MOL0     C31947   5.492   2.442  10.556 -0.6431  0.5222  0.4396
  978MOL0     C31948   5.450   2.382  10.434 -0.2625 -0.0141  1.0824
  978MOL0     C31949   5.161   2.122  10.152 -0.9719  0.1428 -0.8967
  978MOL0     C31950   5.264   2.166  10.067 -0.1054 -0.1527  0.6720
  978MOL0     C31951   5.263   2.134   9.935 -1.4734 -0.9284  0.7840
  978MOL0     C31952   5.171   2.058   9.873  1.0268  1.2326  0.5692
  978MOL0     O31953   5.174   2.022   9.737 -0.0835  0.3911 -0.3599
  978MOL0     C31954   5.063   1.965   9.679  0.2813  0.2305  0.1534
  978MOL0     C31955   4.965   2.067   9.640  0.4900  0.5166 -0.7567
  978MOL0     C31956   4.827   2.009   9.632  1.0506 -1.0230  0.1457
  978MOL0     C31957   4.801   1.957   9.497 -0.4853 -0.0298  0.2248
  978MOL0     C31958   4.664   1.901   9.489  0.2609 -0.5450  0.9738
  978MOL0     C31959   4.556   1.850   9.492  0.3367  0.4229  0.0701
  978MOL0     C31960   5.069   2.011   9.962  0.1908 -0.6579 -0.3232
  978MOL0     C31961   5.052   2.042  10.098 -0.6226 -0.3510 -0.1394
  978MOL0     C31962   4.920   2.015  10.173  0.2957 -0.6394 -0.1839
  978MOL0     H31963   5.185   2.215  10.574 -0.2037  0.4398  3.0216
  978MOL0     H31964   5.278   2.306  10.777  0.0985 -2.2436 -0.9350
  978MOL0     H31965   5.383   2.378  10.939 -0.5631  1.4303  0.1544
  978MOL0     H31966   5.507   2.466  11.000 -1.7714 -1.1591  1.2518
  978MOL0     H31967   5.266   2.577  10.853  0.3702  2.0389 -1.6426
  978MOL0     H31968   5.410   2.670  10.866 -0.6342  0.0230 -1.1557
  978MOL0     H31969   5.275   2.744  11.018 -2.1788 -1.1454 -0.5821
  978MOL0     H31970   5.395   2.659  11.123  0.8095 -1.6419 -0.7332
  978MOL0     H31971   5.115   2.559  11.042  0.5329  1.0041 -0.6170
  978MOL0     H31972   5.214   2.467  11.140 -1.0685 -1.7919 -0.7652
  978MOL0     H31973   5.230   2.640  11.310 -0.8734  1.6486  1.5696
  978MOL0     H31974   5.109   2.751  11.219 -2.2846 -0.6851 -0.8799
  978MOL0     H31975   4.937   2.581  11.239 -0.6484 -3.3186 -0.5867
  978MOL0     H31976   5.056   2.463  11.298 -0.4205 -0.9605  4.8994
  978MOL0     H31977   5.009   2.713  11.466 -1.1467  0.8116  1.2538
  978MOL0     H31978   5.092   2.572  11.507  0.6662 -2.4391 -1.3186
  978MOL0     H31979   4.889   2.429  11.495 -0.2785 -0.8360 -1.3571
  978MOL0     H31980   4.902   2.549  11.634 -2.3696  2.1301 -0.2159
  978MOL0     H31981   4.685   2.729  11.643 -0.4030  2.1691 -0.1178
  978MOL0     H31982   4.376   2.718  11.494  0.4439  0.2333 -2.9376
  978MOL0     H31983   4.483   2.823  11.588 -3.5192 -2.6161  2.0890
  978MOL0     H31984   4.538   2.948  11.355  0.7624  0.2530 -2.2711
  978MOL0     H31985   4.376   2.884  11.307 -1.7406 -1.9236  1.8676
  978MOL0     H31986   4.445   3.074  11.537 -1.7012  1.9813  0.7626
  978MOL0     H31987   4.292   2.986  11.520  1.0427  0.9714  1.6827
  978MOL0     H31988   4.238   3.171  11.431  0.2608 -1.8216  2.1529
  978MOL0     H31989   4.276   3.079  11.281 -2.9033  0.8670  0.4259
  978MOL0     H31990   4.508   3.482  11.326  1.5149 -0.1843 -1.5071
  978MOL0     H31991   4.431   3.666  11.171  3.3650 -0.6223 -0.1716
  978MOL0     H31992   4.123   3.733  10.738  1.3332 -0.9789  2.0147
  978MOL0     H31993   4.077   3.935  10.621  2.5023 -1.6415  0.5578
  978MOL0     H31994   4.053   4.303  10.851  1.0101  1.8308 -2.0503
  978MOL0     H31995   3.998   4.363  10.706  2.1208 -0.9996 -0.5013
  978MOL0     H31996   3.810   4.277  10.949  1.5018 -0.3116  0.5243
  978MOL0     H31997   3.817   4.428  10.870 -0.2848 -0.2756 -1.9267
  978MOL0     H31998   3.654   4.368  10.710  3.2845  0.3744 -2.4372
  978MOL0     H31999   3.740   4.210  10.682 -1.0506 -1.8579  0.9831
  978MOL0     H32000   3.526   4.245  10.899  2.7609  0.3958  3.7067
  978MOL0     H32001   3.652   4.128  10.900 -1.2882 -0.5595  0.2247
  978MOL0     H32002   3.572   4.036  10.688  2.6134  2.5543 -1.1673
  978MOL0     H32003   3.505   4.163  10.636  1.2193 -1.6299 -0.8444
  978MOL0     H32004   3.357   3.967  10.764 -2.9188 -0.4714  2.9681
  978MOL0     H32005   3.359   4.054  10.909 -2.6596 -0.8082 -0.2578
  978MOL0     H32006   3.163   4.102  10.762 -1.5628  0.7670 -1.2863
  978MOL0     H32007   3.274   4.200  10.652  3.3815  3.2821  1.8769
  978MOL0     H32008   3.214   4.278  10.950  0.0461  4.0062  0.7486
  978MOL0     H32009   3.315   4.359  10.821  1.1102  0.2427  1.4499
  978MOL0     H32010   3.977   4.128  10.997  3.0057  0.8359 -0.5880
  978MOL0     H32011   4.054   3.922  11.107  1.7989 -2.2465 -0.2077
  978MOL0     H32012   4.114   3.426  11.017 -1.0196 -3.5960  1.3607
  978MOL0     H32013   4.195   3.235  11.146  1.8063 -1.1125  1.8555
  978MOL0     H32014   5.578   2.505  10.576 -0.8224  0.0047  3.3627
  978MOL0     H32015   5.497   2.401  10.338 -0.1213  2.1545  1.5234
  978MOL0     H32016   5.338   2.241  10.090 -0.3153  0.4416 -0.5407
  978MOL0     H32017   5.352   2.156   9.876 -1.7609 -0.8314  0.3814
  978MOL0     H32018   5.020   1.883   9.736 -1.9462  2.9584  2.7418
  978MOL0     H32019   5.090   1.928   9.579 -0.4045 -1.3372  0.5188
  978MOL0     H32020   5.004   2.122   9.554 -3.1992  2.0457 -1.6071
  978MOL0     H32021   4.971   2.143   9.719 -2.7216  1.4397 -1.2807
  978MOL0     H32022   4.758   2.093   9.639 -0.9864 -2.6986  1.5950
  978MOL0     H32023   4.807   1.950   9.722  3.6262 -3.2369 -0.5698
  978MOL0     H32024   4.795   2.041   9.427 -0.1931  1.5741  2.0352
  978MOL0     H32025   4.881   1.892   9.461 -1.9477 -1.7308 -0.1011
  978MOL0     H32026   4.462   1.798   9.499 -0.9133  2.6257  0.3548
  978MOL0     H32027   4.991   1.952   9.916 -2.4336  1.5161  1.0786
  978MOL0     H32028   4.886   2.079  10.254  0.1717 -0.4417 -0.3914
  978MOL0     H32029   4.842   2.010  10.097  1.1811  1.7824 -1.3588
  978MOL0     H32030   4.931   1.922  10.230 -0.2489 -0.3482  0.4048
  979MOL0     O32031   8.194   9.141   2.421 -0.7434 -0.0251  0.5400
  979MOL0     C32032   8.079   9.108   2.388 -0.4349  0.5626 -0.2025
  979MOL0     O32033   7.969   9.147   2.455 -0.1776  0.2649  0.1141
  979MOL0     C32034   7.974   9.239   2.555  0.3352  0.5434  0.9957
  979MOL0     C32035   7.941   9.197   2.683  0.4917  0.4852  0.1305
  979MOL0     C32036   7.962   9.278   2.795  0.0651 -0.2121 -0.7184
  979MOL0     C32037   8.018   9.408   2.772  0.4173 -0.6966  0.1497
  979MOL0     O32038   8.030   9.485   2.886  0.7989  0.3495  0.8531
  979MOL0     C32039   8.135   9.574   2.893  0.0694  0.1063 -0.2706
  979MOL0     C32040   8.093   9.723   2.879 -0.3176  0.2673  0.4972
  979MOL0     C32041   8.051   9.793   3.009 -1.2640  0.3836  0.7499
  979MOL0     C32042   7.945   9.719   3.094 -0.8070 -0.0693  0.1367
  979MOL0     C32043   7.831   9.794   3.158  1.4504 -0.7943  0.1742
  979MOL0     C32044   7.734   9.838   3.044 -0.7905 -0.5739 -0.0529
  979MOL0     C32045   7.613   9.921   3.102 -0.7607 -0.0466 -0.0678
  979MOL0     C32046   7.531   9.836   3.206 -1.5395 -0.0544  0.2136
  979MOL0     N32047   7.409   9.917   3.237 -0.0802 -0.9742 -0.3404
  979MOL0     C32048   7.369   9.941   3.371 -0.7751  0.3232  0.2753
  979MOL0     C32049   7.240   9.977   3.368 -1.1614 -0.0085 -0.3359
  979MOL0     C32050   7.158   9.992   3.501 -0.4736 -0.6294  0.6916
  979MOL0     C32051   7.124  10.134   3.549 -0.2971  0.0908  0.1799
  979MOL0     C32052   7.097  10.138   3.703  0.5277  0.3554 -0.9432
  979MOL0     C32053   6.984  10.041   3.756 -0.5778  0.3213  1.0320
  979MOL0     O32054   6.983  10.015   3.897  0.5426 -0.2548  0.3180
  979MOL0     C32055   6.936  10.119   3.967 -0.3545  0.3311  0.1338
  979MOL0     C32056   6.791  10.128   3.978 -0.4017 -0.0089  0.3317
  979MOL0     C32057   6.745  10.230   4.060  0.0119  0.1255  0.2641
  979MOL0     C32058   6.830  10.319   4.134  0.1020 -1.0196  0.3895
  979MOL0     C32059   6.772  10.415   4.234 -0.0531 -0.3105  0.2984
  979MOL0     O32060   6.864  10.498   4.293 -0.5274 -0.0922  0.5142
  979MOL0     C32061   6.831  10.582   4.394 -0.2480 -0.5193  0.3523
  979MOL0     C32062   6.713  10.649   4.392  0.5793 -0.5724  0.0461
  979MOL0     C32063   6.667  10.723   4.507 -0.3701  0.1564  1.0249
  979MOL0     C32064   6.738  10.710   4.625  0.0095  0.1945 -0.6322
  979MOL0     O32065   6.722  10.768   4.747 -0.3936  0.3529 -0.1510
  979MOL0     C32066   6.592  10.799   4.779 -0.3422 -0.8120 -0.0364
  979MOL0     C32067   6.583  10.860   4.916  0.1840  0.3738 -0.1531
  979MOL0     C32068   6.472  10.954   4.941 -0.2881  0.3570 -0.7421
  979MOL0     C32069   6.477  11.006   5.086  0.4423 -0.4331 -0.3717
  979MOL0     C32070   6.372  11.131   5.104 -0.2695  1.7881 -0.4207
  979MOL0     C32071   6.376  11.182   5.244  0.6305 -0.9221 -0.0092
  979MOL0     C32072   6.248  11.265   5.264 -0.3372  0.4398 -0.2933
  979MOL0     C32073   6.243  11.277   5.416  0.0584  0.1344  0.0513
  979MOL0    Cl32074   6.075  11.341   5.450 -0.1813  0.0042 -0.1268
  979MOL0     C32075   6.857  10.636   4.628  0.8153  0.1442 -0.1257
  979MOL0     C32076   6.901  10.567   4.514  0.2098  0.3794  0.2104
  979MOL0     O32077   6.649  10.402   4.266  0.5792 -0.4114 -0.4335
  979MOL0     C32078   6.972  10.313   4.115  0.0983  0.8336 -0.6475
  979MOL0     C32079   7.025  10.220   4.023  0.3399  0.5579  0.7257
  979MOL0     N32080   7.190   9.959   3.236  0.2221 -0.2478 -0.4236
  979MOL0     N32081   7.291   9.924   3.171 -0.3885 -0.0587  0.4064
  979MOL0     C32082   8.045   9.465   2.645  0.4173  0.2755  0.3220
  979MOL0     C32083   8.026   9.370   2.537 -0.4607 -0.4880  0.1134
  979MOL0     C32084   8.062   8.990   2.295  0.1032 -0.3760  0.3636
  979MOL0     C32085   7.980   8.882   2.330 -0.4615 -0.7574 -0.9819
  979MOL0     C32086   7.971   8.780   2.239 -0.8822 -0.0948  0.1350
  979MOL0     C32087   8.031   8.768   2.111 -0.4746 -0.0387 -0.6304
  979MOL0     O32088   8.018   8.670   2.016  0.2125 -0.0643 -0.2481
  979MOL0     C32089   7.895   8.591   2.016  0.5993 -0.7071 -0.1378
  979MOL0     C32090   7.914   8.439   2.026  0.7256 -0.7542  0.8340
  979MOL0     C32091   8.030   8.389   1.934  0.4019 -0.6781  0.1509
  979MOL0     C32092   8.058   8.242   1.950 -0.0211 -0.2702  0.3013
  979MOL0     C32093   8.089   8.167   1.828  0.1364  0.1308 -0.4237
  979MOL0     C32094   8.153   8.104   1.747 -0.1634  0.0538 -0.5930
  979MOL0     C32095   8.103   8.881   2.075 -0.2948 -0.2743 -0.5981
  979MOL0     C32096   8.123   8.985   2.160  0.4760  0.1689  0.0454
  979MOL0     C32097   8.212   9.094   2.104 -0.3867  0.0807 -0.3642
  979MOL0     H32098   7.904   9.096   2.693  2.3210 -0.2656 -0.4762
  979MOL0     H32099   7.924   9.247   2.892 -0.2455  1.2666 -0.3452
  979MOL0     H32100   8.186   9.553   2.988 -1.7266 -1.7706  0.3368
  979MOL0     H32101   8.199   9.540   2.811 -2.6577 -3.9366 -0.9934
  979MOL0     H32102   8.008   9.721   2.810  0.3792  1.2165 -0.4100
  979MOL0     H32103   8.176   9.785   2.845 -1.2975  3.0523  2.7181
  979MOL0     H32104   8.019   9.896   2.994 -2.3851  0.1214  1.2413
  979MOL0     H32105   8.144   9.801   3.066  1.6678  1.3473 -3.6989
  979MOL0     H32106   7.904   9.642   3.028  0.4676  1.9154 -3.2758
  979MOL0     H32107   8.006   9.684   3.178 -2.3384  3.4419  2.9719
  979MOL0     H32108   7.787   9.725   3.231  2.0373 -0.8508  0.4810
  979MOL0     H32109   7.864   9.875   3.224  0.8047 -0.8045  0.5213
  979MOL0     H32110   7.791   9.890   2.967 -2.9135 -2.0450 -2.8041
  979MOL0     H32111   7.685   9.752   2.997 -0.1043 -0.8718 -0.2269
  979MOL0     H32112   7.550   9.962   3.023 -0.5086  1.8415  0.6468
  979MOL0     H32113   7.651  10.014   3.146  2.8951 -0.7258 -1.4611
  979MOL0     H32114   7.506   9.748   3.146  1.1696  0.3727 -1.7154
  979MOL0     H32115   7.586   9.797   3.293  0.7407  2.6551  0.1339
  979MOL0     H32116   7.441   9.909   3.446 -0.3382  0.3225 -0.1416
  979MOL0     H32117   7.060   9.949   3.479 -1.4916  2.3392 -1.1075
  979MOL0     H32118   7.209   9.935   3.580  2.2146 -2.1812 -1.9801
  979MOL0     H32119   7.213  10.197   3.544 -0.8363  0.8556  0.1785
  979MOL0     H32120   7.043  10.173   3.487  0.9112  0.1676 -1.3928
  979MOL0     H32121   7.070  10.238   3.738 -0.5963 -0.0576 -0.5787
  979MOL0     H32122   7.195  10.116   3.745  0.2879  0.8780 -0.0814
  979MOL0     H32123   6.989   9.946   3.701 -3.0739  1.1990 -0.8936
  979MOL0     H32124   6.890  10.087   3.725 -1.5879 -1.6332  1.0508
  979MOL0     H32125   6.731  10.064   3.915 -1.6310  0.2910  1.1728
  979MOL0     H32126   6.638  10.241   4.071 -0.4873 -1.7415 -1.7904
  979MOL0     H32127   6.641  10.641   4.312 -2.0307 -1.3233  2.2888
  979MOL0     H32128   6.578  10.782   4.487 -0.1436  0.6843  1.5588
  979MOL0     H32129   6.557  10.859   4.695 -2.3485 -0.4818  0.9730
  979MOL0     H32130   6.533  10.708   4.795 -0.0234 -1.0758 -0.3534
  979MOL0     H32131   6.570  10.768   4.974  1.2584  0.8488  0.9030
  979MOL0     H32132   6.685  10.894   4.938  1.8482 -3.7036 -0.5338
  979MOL0     H32133   6.482  11.041   4.876 -0.9306  1.5514  0.6916
  979MOL0     H32134   6.382  10.896   4.919  0.4163 -0.6978 -0.8784
  979MOL0     H32135   6.579  11.036   5.110  0.0225  2.1943 -1.5741
  979MOL0     H32136   6.443  10.926   5.153  0.5718  0.5005  0.8480
  979MOL0     H32137   6.272  11.095   5.078  0.8447 -0.4829 -1.8485
  979MOL0     H32138   6.373  11.211   5.029 -1.8700  2.9794  0.7464
  979MOL0     H32139   6.382  11.101   5.317  1.5941 -0.4832  0.4068
  979MOL0     H32140   6.451  11.260   5.256 -2.2776  1.7292  2.6114
  979MOL0     H32141   6.153  11.222   5.228 -1.0398  3.0039 -1.7629
  979MOL0     H32142   6.250  11.361   5.211  0.1537  1.0802  0.8383
  979MOL0     H32143   6.268  11.189   5.476  2.6390  0.5206 -0.3511
  979MOL0     H32144   6.323  11.348   5.439 -0.1768  0.2967  0.3823
  979MOL0     H32145   6.904  10.637   4.726 -3.1777  1.0358  1.9889
  979MOL0     H32146   6.988  10.502   4.520 -0.1809 -0.1866 -0.2009
  979MOL0     H32147   7.039  10.358   4.188 -1.2882  1.9831 -0.0203
  979MOL0     H32148   7.134  10.215   4.022  0.3566  0.9738  0.0019
  979MOL0     H32149   8.095   9.559   2.627  4.8726 -1.6558  1.3018
  979MOL0     H32150   8.050   9.393   2.433 -0.3166  2.0611  0.6598
  979MOL0     H32151   7.925   8.879   2.424 -0.2651 -0.9352 -0.8717
  979MOL0     H32152   7.915   8.696   2.279 -0.5981  0.3891  1.5880
  979MOL0     H32153   7.846   8.628   1.926  1.1140  4.0805  1.2471
  979MOL0     H32154   7.828   8.620   2.099 -0.7081 -2.7408 -0.4217
  979MOL0     H32155   7.821   8.396   1.988  0.2254  0.5262  0.5620
  979MOL0     H32156   7.928   8.401   2.128 -0.3606 -0.5801  1.0571
  979MOL0     H32157   8.118   8.448   1.960 -1.1762  0.9736  2.0252
  979MOL0     H32158   8.017   8.419   1.829 -2.1419  0.4729  0.7032
  979MOL0     H32159   8.130   8.223   2.031 -0.5649 -1.1420  0.5892
  979MOL0     H32160   7.967   8.190   1.979  1.9045 -3.4695  1.1728
  979MOL0     H32161   8.198   8.057   1.662 -1.2071 -1.7185 -0.2239
  979MOL0     H32162   8.153   8.898   1.980  2.2043  3.7625  1.1831
  979MOL0     H32163   8.219   9.179   2.173  1.1267 -1.1702  1.1017
  979MOL0     H32164   8.313   9.055   2.114 -0.4272  0.3514  1.5429
  979MOL0     H32165   8.201   9.120   1.998  2.4521  2.4708 -0.2090
  980MOL0     O32166   7.240   1.046   9.743  0.2334  0.2706  0.2886
  980MOL0     C32167   7.316   1.142   9.750 -0.6244 -0.6927 -0.7552
  980MOL0     O32168   7.437   1.146   9.698  0.4645 -0.5623  1.3147
  980MOL0     C32169   7.488   1.027   9.642 -0.2585 -0.7664 -0.2905
  980MOL0     C32170   7.423   0.950   9.541  0.3012 -0.9755  0.7177
  980MOL0     C32171   7.483   0.825   9.489  0.5795 -0.0096  0.6878
  980MOL0     C32172   7.617   0.787   9.527 -0.0848  0.3680 -0.3320
  980MOL0     O32173   7.681   0.671   9.477 -0.3526 -0.0498 -0.0140
  980MOL0     C32174   7.808   0.639   9.527  0.3442  0.4230  0.1047
  980MOL0     C32175   7.837   0.490   9.527 -0.2072  0.7466  0.4209
  980MOL0     C32176   7.793   0.398   9.638  0.5595  0.1549 -0.3439
  980MOL0     C32177   7.883   0.399   9.756 -0.0897 -0.0175 -0.0395
  980MOL0     C32178   7.843   0.304   9.867  0.0391 -0.0951  0.9181
  980MOL0     C32179   7.936   0.312   9.985 -0.2284 -0.2642 -0.9117
  980MOL0     C32180   7.907   0.203  10.089  0.6357 -0.1461  0.5748
  980MOL0     C32181   7.969   0.206  10.230 -0.3429 -0.2163 -0.4242
  980MOL0     N32182   7.901   0.098  10.298 -0.5746  1.2142 -0.5530
  980MOL0     C32183   7.918  -0.037  10.273 -0.8180 -0.2472  0.3212
  980MOL0     C32184   7.838  -0.109  10.356 -0.0962 -0.9139  0.1999
  980MOL0     C32185   7.849  -0.254  10.395  0.9183 -1.0606  0.8129
  980MOL0     C32186   7.988  -0.282  10.436  1.0248 -0.0908 -0.4611
  980MOL0     C32187   8.012  -0.421  10.494 -0.3550 -0.5040 -0.0065
  980MOL0     C32188   8.155  -0.456  10.508 -0.2714 -0.0648 -0.1804
  980MOL0     O32189   8.229  -0.350  10.551  0.8063  0.3336  0.2231
  980MOL0     C32190   8.358  -0.358  10.588  0.4390  0.5141 -0.2441
  980MOL0     C32191   8.425  -0.480  10.621  0.2621  0.2991  1.2648
  980MOL0     C32192   8.556  -0.477  10.668  0.4578  0.1185  0.0700
  980MOL0     C32193   8.629  -0.356  10.665 -0.0915 -0.2198  0.1305
  980MOL0     C32194   8.776  -0.347  10.705 -0.5552  0.2897  0.3455
  980MOL0     O32195   8.860  -0.243  10.660  0.0720  0.4189  0.4413
  980MOL0     C32196   8.977  -0.236  10.731  0.3172 -0.2885 -0.8817
  980MOL0     C32197   8.981  -0.174  10.855 -0.8921  0.3118  1.6807
  980MOL0     C32198   9.111  -0.145  10.897 -0.5107 -0.5806  0.8002
  980MOL0     C32199   9.232  -0.188  10.839 -0.0078  1.3761  0.1391
  980MOL0     O32200   9.344  -0.141  10.898 -0.2726 -0.3685 -0.1496
  980MOL0     C32201   9.474  -0.195  10.869  0.0877  0.3334  0.3078
  980MOL0     C32202   9.494  -0.311  10.963  0.4355 -1.1522  0.0229
  980MOL0     C32203   9.553  -0.258  11.105 -0.2548 -0.0108  0.2806
  980MOL0     C32204   9.596  -0.381  11.195  0.9615 -0.1455 -0.2450
  980MOL0     C32205   9.726  -0.458  11.156 -0.9585 -0.2203 -0.9047
  980MOL0     C32206   9.852  -0.376  11.131  0.8527 -0.0944  0.7675
  980MOL0     C32207   9.900  -0.299  11.252  0.1073  0.2390 -0.0139
  980MOL0     C32208   9.936  -0.378  11.379  0.0137  0.3030 -0.3059
  980MOL0    Cl32209  10.028  -0.278  11.499  0.2350 -0.4234 -0.2008
  980MOL0     C32210   9.216  -0.274  10.735  0.8385 -0.6141  0.7656
  980MOL0     C32211   9.091  -0.287  10.671  0.0419 -0.0237 -0.8717
  980MOL0     O32212   8.818  -0.450  10.758 -0.4430 -0.2138 -0.5904
  980MOL0     C32213   8.565  -0.240  10.618  0.6436  0.3913  0.9931
  980MOL0     C32214   8.429  -0.240  10.589 -0.4144  0.2709 -0.3038
  980MOL0     N32215   7.769  -0.007  10.425  0.0370  0.4131 -0.5434
  980MOL0     N32216   7.806   0.113  10.394  0.6156  0.1151  0.1951
  980MOL0     C32217   7.682   0.884   9.605  0.0731 -0.7065  0.1961
  980MOL0     C32218   7.618   0.997   9.677  0.2069  0.0687  0.3199
  980MOL0     C32219   7.263   1.264   9.827  0.3058  0.8749  0.7750
  980MOL0     C32220   7.323   1.385   9.810 -0.4130  1.0728  0.0290
  980MOL0     C32221   7.272   1.496   9.875  0.6570 -0.3711  0.6897
  980MOL0     C32222   7.177   1.494   9.966 -0.7565  0.3336 -0.3240
  980MOL0     O32223   7.156   1.610  10.037 -0.2226 -0.7682 -0.1680
  980MOL0     C32224   7.052   1.606  10.139  0.6516  0.2038  0.0170
  980MOL0     C32225   7.005   1.736  10.198  0.9854 -0.2426 -0.6734
  980MOL0     C32226   7.104   1.790  10.290 -0.1873  0.4532 -0.1011
  980MOL0     C32227   7.070   1.926  10.347 -0.5154 -0.5343 -0.3216
  980MOL0     C32228   7.082   2.025  10.244  0.7229 -0.2449 -0.1241
  980MOL0     C32229   7.079   2.091  10.143  0.6154 -0.3071  0.1872
  980MOL0     C32230   7.124   1.375   9.998  0.3499 -1.3576  0.8041
  980MOL0     C32231   7.155   1.262   9.921  0.0142  0.7292 -0.1082
  980MOL0     C32232   7.087   1.132   9.960  0.3668 -0.4250 -0.4345
  980MOL0     H32233   7.329   0.985   9.499  2.9039  1.8116 -3.4665
  980MOL0     H32234   7.424   0.761   9.425  0.5700  2.5016 -2.0186
  980MOL0     H32235   7.874   0.705   9.469  2.2687 -0.9742  0.5997
  980MOL0     H32236   7.814   0.665   9.633  1.4679  1.4161 -0.1822
  980MOL0     H32237   7.946   0.479   9.520 -0.5263 -2.6175 -4.2162
  980MOL0     H32238   7.797   0.450   9.433 -1.0972 -1.8291  1.7855
  980MOL0     H32239   7.805   0.299   9.592 -0.7634  0.1928 -0.8189
  980MOL0     H32240   7.690   0.418   9.669  0.6154 -0.3524  0.1924
  980MOL0     H32241   7.990   0.384   9.737 -0.0841 -0.1753  0.1084
  980MOL0     H32242   7.869   0.494   9.807 -0.4141  0.2717 -0.6555
  980MOL0     H32243   7.742   0.328   9.902 -0.2588  0.9175 -0.5320
  980MOL0     H32244   7.840   0.200   9.832  1.8396 -0.3095  1.2899
  980MOL0     H32245   8.043   0.316   9.963 -0.0070  2.9699  0.1790
  980MOL0     H32246   7.924   0.409  10.034 -3.4874 -1.2562  0.5517
  980MOL0     H32247   7.935   0.106  10.048  1.5028  1.1656 -2.1666
  980MOL0     H32248   7.799   0.199  10.107  0.3110  0.7849 -1.0223
  980MOL0     H32249   8.076   0.187  10.235 -0.4599 -0.7173  0.4556
  980MOL0     H32250   7.943   0.296  10.286  0.7578 -0.5810  0.7052
  980MOL0     H32251   7.986  -0.079  10.199 -2.0243 -3.7217  1.0088
  980MOL0     H32252   7.770  -0.278  10.466 -0.9376  1.8564 -0.0633
  980MOL0     H32253   7.826  -0.309  10.304  3.4052 -0.4287 -0.2847
  980MOL0     H32254   8.050  -0.264  10.347  2.7118 -0.3583  0.6182
  980MOL0     H32255   7.994  -0.209  10.517 -3.6580 -0.3094  0.3600
  980MOL0     H32256   7.966  -0.495  10.428 -3.7309  1.8993 -0.6493
  980MOL0     H32257   7.953  -0.434  10.585 -0.2160 -1.6440 -0.0697
  980MOL0     H32258   8.203  -0.491  10.417  1.6448 -2.5322  1.6100
  980MOL0     H32259   8.152  -0.536  10.583 -0.8443 -2.3079 -2.4687
  980MOL0     H32260   8.373  -0.573  10.600 -1.4265  1.7576 -1.7318
  980MOL0     H32261   8.606  -0.568  10.698 -0.0107 -0.9195 -2.0621
  980MOL0     H32262   8.901  -0.120  10.904 -1.7367  2.1454 -1.4844
  980MOL0     H32263   9.122  -0.087  10.988 -3.0906  1.3820 -0.0154
  980MOL0     H32264   9.469  -0.225  10.764 -0.5065 -1.4772  0.8081
  980MOL0     H32265   9.550  -0.117  10.880 -0.2357  0.4182  2.5222
  980MOL0     H32266   9.405  -0.372  10.978 -1.5235  0.4357 -3.7567
  980MOL0     H32267   9.570  -0.374  10.915  1.7659 -0.2431  0.8500
  980MOL0     H32268   9.644  -0.205  11.077  1.4707 -3.1484 -0.5461
  980MOL0     H32269   9.497  -0.185  11.164 -0.7407 -1.6975  2.0049
  980MOL0     H32270   9.510  -0.449  11.202 -0.3285  1.5490  1.6868
  980MOL0     H32271   9.602  -0.344  11.298 -3.1890 -2.1863  0.9686
  980MOL0     H32272   9.701  -0.524  11.072 -0.2130 -1.9505  0.1639
  980MOL0     H32273   9.738  -0.517  11.248  2.2592  3.5435  1.3838
  980MOL0     H32274   9.926  -0.456  11.122  0.7149 -0.6743  3.7756
  980MOL0     H32275   9.834  -0.315  11.042 -2.9440 -0.2804  1.2648
  980MOL0     H32276   9.824  -0.224  11.276 -0.0732  0.5171 -1.3327
  980MOL0     H32277   9.994  -0.249  11.227  0.8876 -2.6043 -3.6567
  980MOL0     H32278   9.842  -0.411  11.423 -0.5729 -0.7591 -2.2491
  980MOL0     H32279   9.990  -0.470  11.354  2.0116  0.7168  2.0470
  980MOL0     H32280   9.309  -0.313  10.695 -0.0645 -2.6797  0.5939
  980MOL0     H32281   9.099  -0.333  10.573  2.1524  1.1627 -1.3214
  980MOL0     H32282   8.634  -0.158  10.602  1.8109 -0.4140  1.7808
  980MOL0     H32283   8.370  -0.155  10.557  1.8362  1.6285 -1.1060
  980MOL0     H32284   7.784   0.872   9.641 -0.2080 -0.9712  0.9220
  980MOL0     H32285   7.677   1.061   9.743 -1.5226 -0.3510  2.3964
  980MOL0     H32286   7.406   1.402   9.742 -2.7007  0.9099 -3.0162
  980MOL0     H32287   7.315   1.595   9.862 -0.8230  0.1610 -0.4768
  980MOL0     H32288   7.067   1.541  10.226 -3.5860  0.0459  0.8504
  980MOL0     H32289   6.961   1.562  10.097  0.9249  1.1927 -1.7157
  980MOL0     H32290   6.913   1.725  10.256  1.4754 -2.6342 -0.2569
  980MOL0     H32291   6.962   1.801  10.121 -2.6494 -1.2768  0.2650
  980MOL0     H32292   7.205   1.791  10.248 -0.7391 -0.1409 -1.5146
  980MOL0     H32293   7.105   1.724  10.376  1.7525 -0.1500 -0.5362
  980MOL0     H32294   6.970   1.923  10.390  0.4506 -1.4297  2.0053
  980MOL0     H32295   7.141   1.958  10.424  0.7211  0.1360 -1.6757
  980MOL0     H32296   7.095   2.135  10.047  0.9967  0.0491  0.4138
  980MOL0     H32297   7.052   1.368  10.078 -1.3526  0.5278 -0.4818
  980MOL0     H32298   7.021   1.104   9.877  0.6529 -1.5017 -0.3146
  980MOL0     H32299   7.166   1.061   9.989  1.6452  0.0569 -2.5099
  980MOL0     H32300   7.027   1.140  10.051 -0.2474  0.5834 -0.9168
  981MOL0     O32301  10.308   7.301   5.803  0.1882 -0.5245  0.5597
  981MOL0     C32302  10.313   7.367   5.906  0.3346 -0.8766 -0.1129
  981MOL0     O32303  10.406   7.466   5.925 -0.1830 -0.7228  0.1136
  981MOL0     C32304  10.504   7.498   5.830 -0.1280  0.5648 -0.6717
  981MOL0     C32305  10.632   7.522   5.880  0.4095  0.2012  0.4389
  981MOL0     C32306  10.739   7.546   5.795 -0.0353  0.3574 -0.2706
  981MOL0     C32307  10.720   7.538   5.653 -0.0418 -0.6036 -0.3503
  981MOL0     O32308  10.829   7.532   5.575 -0.2978 -0.0256  0.0871
  981MOL0     C32309  10.828   7.439   5.470 -0.4434  0.9793  0.1314
  981MOL0     C32310  10.976   7.413   5.432 -0.5802 -0.6577 -0.4231
  981MOL0     C32311  10.996   7.287   5.338  0.1906  0.7492 -0.2689
  981MOL0     C32312  11.136   7.243   5.346  0.1350 -0.2306  0.1593
  981MOL0     C32313  11.178   7.150   5.224  0.0456  0.1587  0.5492
  981MOL0     C32314  11.144   6.998   5.243 -0.5099 -0.5645 -0.2201
  981MOL0     C32315  11.003   6.947   5.238  1.1179 -0.1792 -0.2156
  981MOL0     C32316  10.994   6.797   5.231  0.2231 -0.0734 -0.9464
  981MOL0     N32317  11.050   6.751   5.361 -0.9555 -0.7599 -0.2396
  981MOL0     C32318  11.179   6.720   5.378 -1.1693 -0.1905  0.8889
  981MOL0     C32319  11.196   6.674   5.510 -1.5219  0.9862  0.7601
  981MOL0     C32320  11.318   6.643   5.584  0.5943  0.8623 -0.7647
  981MOL0     C32321  11.441   6.612   5.506  0.3194 -0.6495  0.7944
  981MOL0     C32322  11.547   6.539   5.581  0.8529 -0.7743  0.5362
  981MOL0     C32323  11.683   6.580   5.512 -0.4450  0.0135  0.5373
  981MOL0     O32324  11.727   6.702   5.565  0.1707 -0.0727 -0.8770
  981MOL0     C32325  11.827   6.764   5.486  0.2052 -0.3733 -0.2675
  981MOL0     C32326  11.946   6.706   5.463 -0.3140 -0.1368 -0.2454
  981MOL0     C32327  12.055   6.781   5.399  0.5143  0.1668 -0.6317
  981MOL0     C32328  12.029   6.902   5.342 -1.0069 -0.1159  0.2012
  981MOL0     C32329  12.135   6.975   5.254  0.1047  0.3010  0.4634
  981MOL0     O32330  12.079   7.079   5.179 -0.7950 -0.1214 -0.0490
  981MOL0     C32331  12.155   7.125   5.069  0.1000 -0.1917 -0.3535
  981MOL0     C32332  12.214   7.257   5.069  0.0005  0.3710  1.0992
  981MOL0     C32333  12.279   7.316   4.960  0.7837  0.2009  0.4783
  981MOL0     C32334  12.272   7.244   4.836 -0.8030 -0.8856 -0.1832
  981MOL0     O32335  12.318   7.276   4.714 -0.7279 -0.6470  0.0252
  981MOL0     C32336  12.412   7.395   4.697  0.6216  0.1562  0.3847
  981MOL0     C32337  12.453   7.413   4.549  0.5813 -0.8029 -0.1475
  981MOL0     C32338  12.522   7.297   4.479  0.1891  0.4380  0.2609
  981MOL0     C32339  12.440   7.170   4.474  0.3431  0.1739  0.1709
  981MOL0     C32340  12.528   7.075   4.386  0.3673 -0.4890 -0.1428
  981MOL0     C32341  12.476   6.932   4.375  0.3840  0.6836  0.5426
  981MOL0     C32342  12.344   6.926   4.313  1.3478  0.7422 -0.9466
  981MOL0     C32343  12.304   6.796   4.245 -0.0818  0.4935 -0.7446
  981MOL0    Cl32344  12.332   6.661   4.364  0.5046  0.5610 -0.3509
  981MOL0     C32345  12.216   7.114   4.832  0.5256  1.1460  0.4776
  981MOL0     C32346  12.165   7.053   4.950  0.2724 -1.1302  0.2136
  981MOL0     O32347  12.246   6.933   5.237  0.3210 -0.3009 -0.5010
  981MOL0     C32348  11.903   6.957   5.361  0.9118  0.1006 -0.1505
  981MOL0     C32349  11.806   6.892   5.444 -0.4501 -0.5111  0.4412
  981MOL0     N32350  11.066   6.671   5.559 -0.7407 -0.0115 -0.3616
  981MOL0     N32351  10.987   6.720   5.479 -0.4800  0.7548 -0.3423
  981MOL0     C32352  10.590   7.526   5.606 -0.0481  0.0861 -0.4125
  981MOL0     C32353  10.478   7.503   5.691 -0.4680  0.1356  0.6545
  981MOL0     C32354  10.231   7.349   6.019  0.2025 -0.2537 -0.4738
  981MOL0     C32355  10.096   7.319   5.998  0.6468 -0.2049 -0.1994
  981MOL0     C32356  10.011   7.330   6.107 -0.1882  0.5570  0.2708
  981MOL0     C32357  10.061   7.345   6.239  0.4761  1.0916  0.7033
  981MOL0     O32358   9.972   7.342   6.345 -1.1067 -0.9459  0.8555
  981MOL0     C32359   9.827   7.304   6.327 -0.2932 -0.7138 -0.4275
  981MOL0     C32360   9.751   7.426   6.309  1.1530 -0.2200  1.2558
  981MOL0     C32361   9.720   7.511   6.428 -0.7197  0.3425  0.2668
  981MOL0     C32362   9.651   7.434   6.547  0.1303 -0.8767  0.0810
  981MOL0     C32363   9.749   7.378   6.639 -1.1128  0.9670  0.0537
  981MOL0     C32364   9.830   7.337   6.724 -0.1842  0.5362  0.5939
  981MOL0     C32365  10.197   7.352   6.265 -0.1961  0.7349  0.3696
  981MOL0     C32366  10.278   7.356   6.151 -0.6329  0.0926 -1.4510
  981MOL0     C32367  10.427   7.378   6.185 -0.7774 -1.5710 -0.4804
  981MOL0     H32368  10.650   7.507   5.986  1.9133  1.5570  0.4192
  981MOL0     H32369  10.840   7.567   5.829 -0.4681  1.3508  0.4637
  981MOL0     H32370  10.778   7.348   5.502 -0.7909  1.9367  2.4669
  981MOL0     H32371  10.773   7.473   5.382  0.0729  2.4617  0.3530
  981MOL0     H32372  11.036   7.403   5.522  0.1504 -1.6236 -0.9998
  981MOL0     H32373  10.996   7.506   5.377 -1.8252 -0.1903 -0.1421
  981MOL0     H32374  10.961   7.300   5.236  0.9546  3.6564 -0.2410
  981MOL0     H32375  10.935   7.212   5.389  3.6407 -0.2136  2.8838
  981MOL0     H32376  11.203   7.330   5.343  2.3270 -1.7914 -2.6818
  981MOL0     H32377  11.155   7.187   5.438 -1.4635  1.9017  1.8682
  981MOL0     H32378  11.132   7.182   5.130  1.0236  2.5554  0.8328
  981MOL0     H32379  11.286   7.161   5.212 -0.1910  1.0547 -1.0853
  981MOL0     H32380  11.203   6.938   5.174  0.2967  1.5474 -1.4589
  981MOL0     H32381  11.173   6.976   5.346  1.3188 -2.2018 -1.0397
  981MOL0     H32382  10.961   6.963   5.138 -1.2351  0.5706  0.8194
  981MOL0     H32383  10.937   7.003   5.305  0.6459  0.1815 -0.9606
  981MOL0     H32384  10.891   6.761   5.223  0.1905 -0.4663  0.8210
  981MOL0     H32385  11.048   6.770   5.140 -2.0894  1.3048 -2.8732
  981MOL0     H32386  11.248   6.734   5.295  0.0212 -2.0682  1.5018
  981MOL0     H32387  11.351   6.728   5.643  2.0955 -1.8436  2.6779
  981MOL0     H32388  11.293   6.553   5.642  1.6052 -0.5970 -2.4745
  981MOL0     H32389  11.396   6.562   5.420 -2.3518 -1.3207  2.4523
  981MOL0     H32390  11.483   6.706   5.469  1.0794 -1.0158  0.7198
  981MOL0     H32391  11.530   6.433   5.564 -1.1123 -0.4339  0.1601
  981MOL0     H32392  11.543   6.564   5.688  1.3358 -1.1278  0.6379
  981MOL0     H32393  11.674   6.568   5.404 -2.8669 -0.3444  0.7232
  981MOL0     H32394  11.756   6.502   5.536 -0.5300 -0.4450 -0.6247
  981MOL0     H32395  11.955   6.600   5.487 -0.2581 -0.0605  0.0863
  981MOL0     H32396  12.156   6.750   5.374  1.2152  1.8785 -0.0744
  981MOL0     H32397  12.202   7.312   5.162  0.9388 -0.2332  1.6050
  981MOL0     H32398  12.321   7.413   4.984 -0.0136  0.4419  0.9482
  981MOL0     H32399  12.360   7.486   4.726  0.9448  0.4006  0.2010
  981MOL0     H32400  12.500   7.379   4.760 -0.0162  1.1755  1.5624
  981MOL0     H32401  12.371   7.441   4.483  0.2396 -1.2550  0.0877
  981MOL0     H32402  12.514   7.504   4.545 -0.8737  0.1611 -1.1699
  981MOL0     H32403  12.545   7.320   4.374 -0.2949  0.9857  0.2674
  981MOL0     H32404  12.617   7.299   4.532 -0.6243 -0.4745  1.8154
  981MOL0     H32405  12.342   7.176   4.425  0.4500 -2.7920 -0.5806
  981MOL0     H32406  12.428   7.129   4.574 -1.0010  0.3574  0.1136
  981MOL0     H32407  12.630   7.072   4.428 -0.5540  1.4164  2.4728
  981MOL0     H32408  12.538   7.116   4.285  0.8941 -2.7664 -1.0773
  981MOL0     H32409  12.539   6.872   4.308 -2.1879 -1.4034 -0.1808
  981MOL0     H32410  12.478   6.884   4.474 -1.9542 -1.1678 -0.2041
  981MOL0     H32411  12.331   7.004   4.238  1.6090  0.1575 -1.6082
  981MOL0     H32412  12.274   6.938   4.397 -0.0713 -2.6603 -1.4535
  981MOL0     H32413  12.199   6.796   4.213  0.4095 -0.3599 -2.4743
  981MOL0     H32414  12.366   6.769   4.159  0.3520 -6.1180  1.0959
  981MOL0     H32415  12.225   7.068   4.734  1.4989  3.5407 -0.6435
  981MOL0     H32416  12.120   6.955   4.936  2.6010 -2.2066 -0.1817
  981MOL0     H32417  11.868   7.051   5.320 -1.7911 -2.1812 -3.6278
  981MOL0     H32418  11.717   6.948   5.469  0.0873  0.6699 -0.2177
  981MOL0     H32419  10.579   7.521   5.498  2.8792 -2.2815 -0.7233
  981MOL0     H32420  10.389   7.485   5.632  0.9663  0.0235 -1.5647
  981MOL0     H32421  10.054   7.306   5.899 -1.5680 -0.5945  0.7295
  981MOL0     H32422   9.908   7.314   6.077 -0.0525  1.9258 -1.0516
  981MOL0     H32423   9.785   7.253   6.414  1.1249 -0.5788  0.3537
  981MOL0     H32424   9.810   7.233   6.246  2.1195 -0.8729 -0.8627
  981MOL0     H32425   9.660   7.391   6.260  0.9167 -0.8229  2.1076
  981MOL0     H32426   9.801   7.481   6.228  0.0375 -1.7645 -0.5583
  981MOL0     H32427   9.647   7.590   6.408 -2.4959 -1.2162  0.2858
  981MOL0     H32428   9.806   7.567   6.465 -3.8296  5.5828  0.5642
  981MOL0     H32429   9.594   7.501   6.611 -2.2984 -0.6177 -2.2000
  981MOL0     H32430   9.588   7.359   6.500 -1.4005  1.1656 -1.2892
  981MOL0     H32431   9.895   7.295   6.798 -2.4846 -0.1998  2.3561
  981MOL0     H32432  10.232   7.359   6.368  0.2058  0.4694  0.2523
  981MOL0     H32433  10.455   7.362   6.289 -5.4607 -2.7895  0.8047
  981MOL0     H32434  10.494   7.322   6.119 -0.2766  1.3521 -2.6364
  981MOL0     H32435  10.445   7.486   6.176 -0.5683 -1.4957  0.7167
  982MOL0     O32436   3.845   3.225   8.461  0.4895  0.3599 -0.2235
  982MOL0     C32437   3.795   3.336   8.485  0.1436  0.3046  0.5239
  982MOL0     O32438   3.793   3.398   8.600  0.1410  1.0851  0.0684
  982MOL0     C32439   3.783   3.325   8.720  0.1076 -0.7008 -0.4069
  982MOL0     C32440   3.737   3.191   8.737 -0.2259  0.6997  0.1897
  982MOL0     C32441   3.733   3.135   8.861 -0.1652 -0.6719 -0.3305
  982MOL0     C32442   3.783   3.197   8.973 -0.4568 -0.8441 -0.7789
  982MOL0     O32443   3.778   3.133   9.096 -0.3721 -0.3135  0.5828
  982MOL0     C32444   3.860   3.014   9.095 -0.2224 -0.6466 -0.7210
  982MOL0     C32445   3.786   2.917   9.188  0.1611  0.7644  0.4027
  982MOL0     C32446   3.773   2.970   9.325 -0.6913 -0.6303  0.0570
  982MOL0     C32447   3.714   2.874   9.428  1.1675  0.1828 -0.8344
  982MOL0     C32448   3.613   2.768   9.376  0.4666 -0.1118  0.2320
  982MOL0     C32449   3.534   2.700   9.499 -0.6717 -0.3759 -0.0304
  982MOL0     C32450   3.616   2.593   9.581  0.5922  0.4267  0.1142
  982MOL0     C32451   3.529   2.491   9.666  0.5489 -0.0570  0.5122
  982MOL0     N32452   3.475   2.380   9.578 -0.1120 -0.6042 -0.5492
  982MOL0     C32453   3.478   2.248   9.615  1.0636 -0.6237 -0.7101
  982MOL0     C32454   3.379   2.186   9.552  0.1664 -0.7188  0.2788
  982MOL0     C32455   3.348   2.044   9.549  0.1065 -0.3264  0.7764
  982MOL0     C32456   3.477   1.962   9.514 -0.3126  0.0634  1.0114
  982MOL0     C32457   3.427   1.827   9.468 -0.2156 -0.5978 -0.4837
  982MOL0     C32458   3.412   1.740   9.595 -0.1838 -0.0052  0.0791
  982MOL0     O32459   3.315   1.635   9.570  0.1415 -0.7379  0.4224
  982MOL0     C32460   3.338   1.514   9.632  0.5379  1.1994 -0.5366
  982MOL0     C32461   3.435   1.489   9.731  0.3934 -1.1542 -0.1121
  982MOL0     C32462   3.441   1.358   9.794 -0.7223 -0.0450  0.0458
  982MOL0     C32463   3.355   1.259   9.745 -0.1478  0.7120  0.3636
  982MOL0     C32464   3.355   1.114   9.802  0.1092 -0.1221 -0.0321
  982MOL0     O32465   3.266   1.029   9.743  0.0656 -0.6674 -0.2287
  982MOL0     C32466   3.244   0.899   9.781 -1.0464 -1.2053  0.1814
  982MOL0     C32467   3.218   0.861   9.915 -0.6979  0.8207  0.1641
  982MOL0     C32468   3.203   0.730   9.961 -0.6526 -0.2028 -0.3682
  982MOL0     C32469   3.209   0.629   9.869 -0.3282  0.0351  0.1286
  982MOL0     O32470   3.190   0.504   9.918  0.9389 -0.4194 -0.3372
  982MOL0     C32471   3.292   0.409   9.868  0.1063 -0.0802 -0.8871
  982MOL0     C32472   3.332   0.323   9.997 -0.5812 -0.6419 -0.5361
  982MOL0     C32473   3.406   0.417  10.099  0.7330 -0.0611  0.0360
  982MOL0     C32474   3.561   0.432  10.083 -0.3544  0.3161 -0.7040
  982MOL0     C32475   3.623   0.564  10.118  0.5023  0.7395 -0.2218
  982MOL0     C32476   3.775   0.559  10.123  0.3770 -0.1732 -0.3109
  982MOL0     C32477   3.848   0.690  10.125  0.9360  0.0868 -0.8309
  982MOL0     C32478   3.922   0.716  10.260  0.2518  0.6725 -0.0199
  982MOL0    Cl32479   4.025   0.583  10.297  0.1629 -0.2233 -0.2229
  982MOL0     C32480   3.229   0.664   9.730  0.1514  0.3712  0.1238
  982MOL0     C32481   3.249   0.795   9.687 -0.5704  0.8092 -0.3814
  982MOL0     O32482   3.439   1.086   9.883  0.4381  0.1945  0.2214
  982MOL0     C32483   3.254   1.288   9.651  1.2579  0.8927  0.5141
  982MOL0     C32484   3.244   1.413   9.592 -1.0084  0.5614  0.3633
  982MOL0     N32485   3.315   2.276   9.473  0.1089 -0.4377  0.2094
  982MOL0     N32486   3.383   2.388   9.477  0.5606 -0.3252  0.7571
  982MOL0     C32487   3.832   3.326   8.958 -0.0200 -0.1050 -0.0213
  982MOL0     C32488   3.826   3.386   8.838  1.0585 -0.2403  1.3781
  982MOL0     C32489   3.754   3.428   8.371  0.6184 -0.0543  0.4229
  982MOL0     C32490   3.645   3.514   8.396  0.5667  1.3876 -0.1523
  982MOL0     C32491   3.593   3.606   8.303 -0.3654 -0.2340 -0.1273
  982MOL0     C32492   3.674   3.623   8.193  0.2040  0.1238 -0.4506
  982MOL0     O32493   3.654   3.722   8.103 -0.1641 -0.7166  0.0225
  982MOL0     C32494   3.569   3.841   8.140 -0.6807 -0.2431 -0.0464
  982MOL0     C32495   3.577   3.931   8.014 -0.5367 -0.2229 -0.0977
  982MOL0     C32496   3.717   3.993   8.014  0.0907 -0.2360  1.3580
  982MOL0     C32497   3.733   4.094   7.894 -0.5372 -0.4331  0.2383
  982MOL0     C32498   3.868   4.154   7.916 -0.8534  0.5525 -0.1228
  982MOL0     C32499   3.971   4.214   7.941 -0.0338  0.8434 -0.0048
  982MOL0     C32500   3.771   3.534   8.152  0.1750 -0.3289  0.1866
  982MOL0     C32501   3.810   3.437   8.240  0.2833  0.2973 -0.0131
  982MOL0     C32502   3.903   3.331   8.184  1.0305 -0.1157 -0.1812
  982MOL0     H32503   3.701   3.131   8.654  2.4720  0.6519 -1.0418
  982MOL0     H32504   3.667   3.051   8.878  0.3481 -0.8633  0.7902
  982MOL0     H32505   3.872   2.971   8.995  2.2716  0.3545 -0.9103
  982MOL0     H32506   3.961   3.040   9.127 -1.2728  3.4158 -0.2043
  982MOL0     H32507   3.850   2.828   9.189 -1.4031 -0.4810 -1.5802
  982MOL0     H32508   3.686   2.889   9.154  0.1500  0.4124  0.7149
  982MOL0     H32509   3.709   3.059   9.331  0.5397  0.4203 -1.4859
  982MOL0     H32510   3.869   3.007   9.363  0.1725 -2.2556 -0.4528
  982MOL0     H32511   3.788   2.805   9.471 -1.2136 -2.1737 -0.2490
  982MOL0     H32512   3.676   2.920   9.520 -1.4061 -0.9637 -1.2261
  982MOL0     H32513   3.532   2.824   9.329 -3.8647 -4.1864  1.9391
  982MOL0     H32514   3.662   2.700   9.306  1.3040 -0.7573  1.3979
  982MOL0     H32515   3.497   2.780   9.564  1.3023 -1.4089  2.5031
  982MOL0     H32516   3.447   2.648   9.457 -2.2737  0.2978  2.2943
  982MOL0     H32517   3.680   2.647   9.652  1.2526  0.5510 -0.5664
  982MOL0     H32518   3.680   2.529   9.519 -1.1680 -1.2665 -0.0376
  982MOL0     H32519   3.597   2.457   9.744  1.0770 -0.6728 -0.2065
  982MOL0     H32520   3.434   2.537   9.694 -1.0858 -2.5836 -0.5064
  982MOL0     H32521   3.552   2.198   9.677  0.5951 -2.0145 -1.2432
  982MOL0     H32522   3.311   2.020   9.649 -0.1303 -1.7558  0.3731
  982MOL0     H32523   3.262   2.032   9.483  0.2312  1.0911  0.3349
  982MOL0     H32524   3.516   2.020   9.430 -2.5092 -0.7166 -0.6576
  982MOL0     H32525   3.552   1.964   9.593  2.2661  3.9426 -1.2009
  982MOL0     H32526   3.507   1.789   9.404 -0.6524 -2.7262  0.1643
  982MOL0     H32527   3.333   1.845   9.415  0.9481  2.8811 -1.6756
  982MOL0     H32528   3.375   1.802   9.677 -3.1192  1.3668 -2.0882
  982MOL0     H32529   3.512   1.709   9.625  0.6821  4.8871  3.5384
  982MOL0     H32530   3.503   1.570   9.752  3.1537 -1.4755 -5.8603
  982MOL0     H32531   3.516   1.330   9.867 -1.7478  1.1342  1.6223
  982MOL0     H32532   3.196   0.936   9.990  1.0126 -0.4221  1.9891
  982MOL0     H32533   3.164   0.710  10.060  3.4377 -2.3398  1.0514
  982MOL0     H32534   3.253   0.339   9.794 -0.0806  1.2989 -2.1308
  982MOL0     H32535   3.384   0.460   9.837  0.3739 -0.0352 -0.0511
  982MOL0     H32536   3.246   0.280  10.049 -2.5535  1.2975 -2.0261
  982MOL0     H32537   3.397   0.242   9.963  2.3017  1.1180  0.4083
  982MOL0     H32538   3.353   0.512  10.102 -1.9655 -1.5006  1.8022
  982MOL0     H32539   3.383   0.380  10.199  0.7577 -0.4107 -0.0842
  982MOL0     H32540   3.574   0.403   9.978  0.1105 -1.9464 -0.0784
  982MOL0     H32541   3.602   0.357  10.150 -0.5339  0.6247 -0.2444
  982MOL0     H32542   3.586   0.598  10.216  0.0788  1.3587 -0.5925
  982MOL0     H32543   3.586   0.642  10.051 -2.1215 -0.1525  0.1000
  982MOL0     H32544   3.800   0.505  10.215 -0.0629  2.9459  1.8312
  982MOL0     H32545   3.810   0.497  10.040 -0.7745  1.2593 -1.9372
  982MOL0     H32546   3.789   0.781  10.117  0.1287 -0.4820 -1.4196
  982MOL0     H32547   3.918   0.690  10.041  0.0358  0.7394 -1.5865
  982MOL0     H32548   3.983   0.805  10.245 -0.2415  0.8293 -1.2343
  982MOL0     H32549   3.850   0.721  10.342  1.1947 -3.0060  1.2263
  982MOL0     H32550   3.222   0.586   9.655 -1.9076 -0.2319  0.8990
  982MOL0     H32551   3.267   0.828   9.585 -1.4427  2.3108 -0.0772
  982MOL0     H32552   3.199   1.214   9.593 -1.0542  1.1627  2.2161
  982MOL0     H32553   3.173   1.413   9.511 -0.6460  1.4214  0.0333
  982MOL0     H32554   3.861   3.380   9.048 -1.9059  1.7959 -0.4750
  982MOL0     H32555   3.846   3.493   8.828  1.4679 -0.5138 -1.9689
  982MOL0     H32556   3.589   3.511   8.489 -1.4255  1.1405 -1.2986
  982MOL0     H32557   3.503   3.661   8.330  1.3106  2.5846  0.1723
  982MOL0     H32558   3.615   3.890   8.226  1.2166  1.2290 -1.7937
  982MOL0     H32559   3.466   3.821   8.167 -0.6334 -0.6222 -0.1478
  982MOL0     H32560   3.498   4.006   8.012 -2.1317 -1.8407  0.0923
  982MOL0     H32561   3.565   3.872   7.922  0.5244 -0.8851  0.1689
  982MOL0     H32562   3.791   3.912   8.009  1.6845  1.2536 -0.3190
  982MOL0     H32563   3.715   4.046   8.109 -1.0951  1.4405  0.4359
  982MOL0     H32564   3.729   4.042   7.798  1.8996 -2.0423  0.8954
  982MOL0     H32565   3.659   4.174   7.892 -2.2382 -1.8794  1.5949
  982MOL0     H32566   4.060   4.260   7.978  0.6662 -1.9714  2.1865
  982MOL0     H32567   3.815   3.545   8.054 -0.4324 -1.5379 -0.2376
  982MOL0     H32568   3.978   3.311   8.262  0.2362 -0.3918  0.5270
  982MOL0     H32569   3.838   3.244   8.168 -0.6940  1.1090 -0.0180
  982MOL0     H32570   3.944   3.358   8.086 -0.8324  0.4382 -0.8578
  983MOL0     O32571   5.739   1.792   6.438  1.5742  0.1838  0.2567
  983MOL0     C32572   5.842   1.835   6.489 -0.1439  0.0041  0.4403
  983MOL0     O32573   5.849   1.941   6.571 -0.5216  0.0833 -0.5457
  983MOL0     C32574   5.729   2.006   6.609  0.2260  0.1551  1.7023
  983MOL0     C32575   5.651   2.082   6.519  0.1229  0.7064 -0.2641
  983MOL0     C32576   5.552   2.167   6.580  0.2162  0.6097 -0.1344
  983MOL0     C32577   5.541   2.181   6.721 -0.4226  0.4288 -0.1576
  983MOL0     O32578   5.452   2.263   6.784  0.4472  0.1965 -0.4740
  983MOL0     C32579   5.372   2.352   6.709  0.4534 -0.0212  0.5661
  983MOL0     C32580   5.262   2.406   6.801  0.1133  0.6451 -0.0028
  983MOL0     C32581   5.150   2.302   6.795 -0.6568 -0.3697 -0.4271
  983MOL0     C32582   5.052   2.304   6.912 -0.1058 -0.3722  0.0361
  983MOL0     C32583   4.962   2.176   6.909  0.8001  0.6088  0.8585
  983MOL0     C32584   4.844   2.189   6.817  0.2081  0.1892 -0.8231
  983MOL0     C32585   4.751   2.065   6.798  0.0219 -0.1285  0.1645
  983MOL0     C32586   4.602   2.075   6.827  0.3280 -0.1845  0.2271
  983MOL0     N32587   4.521   2.151   6.732  0.1382 -0.1777  0.1863
  983MOL0     C32588   4.549   2.187   6.601 -0.4658 -0.0891 -0.0175
  983MOL0     C32589   4.458   2.265   6.562  0.6841 -0.0985  0.9711
  983MOL0     C32590   4.432   2.335   6.427 -1.2672 -1.1170 -0.4826
  983MOL0     C32591   4.547   2.317   6.323  0.9692  0.1965 -0.3517
  983MOL0     C32592   4.504   2.383   6.192 -0.8369 -0.0536 -0.7187
  983MOL0     C32593   4.630   2.414   6.114 -0.4611 -0.1482  0.0587
  983MOL0     O32594   4.612   2.417   5.972 -0.8001  0.3842  1.1123
  983MOL0     C32595   4.631   2.540   5.919 -0.3674  0.1961  0.9816
  983MOL0     C32596   4.719   2.552   5.809 -0.0984 -0.4359  0.0264
  983MOL0     C32597   4.753   2.675   5.768  0.2254 -0.9227 -0.9827
  983MOL0     C32598   4.709   2.798   5.827  0.6018  0.5391 -0.6365
  983MOL0     C32599   4.740   2.932   5.769 -0.2602 -0.5768  0.7191
  983MOL0     O32600   4.816   2.930   5.654 -0.3667  0.1622  0.7569
  983MOL0     C32601   4.866   3.051   5.613 -0.1564 -0.1659  0.4153
  983MOL0     C32602   4.955   3.140   5.690  0.2485 -0.0327  0.2573
  983MOL0     C32603   4.997   3.262   5.625 -0.5251  0.2367  0.5000
  983MOL0     C32604   4.980   3.293   5.501  0.1075 -1.3453 -0.8182
  983MOL0     O32605   5.032   3.416   5.468  0.2170 -0.1486  0.4772
  983MOL0     C32606   4.977   3.481   5.350  0.5223  0.1751  1.1126
  983MOL0     C32607   5.070   3.586   5.301 -0.7965  0.6488  0.1858
  983MOL0     C32608   5.018   3.661   5.172 -0.5943  0.0696  0.2387
  983MOL0     C32609   5.132   3.734   5.104  0.5368 -0.0748  0.3799
  983MOL0     C32610   5.097   3.834   4.997  0.4940  0.4432  0.1018
  983MOL0     C32611   5.228   3.919   4.972 -0.7757  0.0311  0.4116
  983MOL0     C32612   5.207   4.018   4.854 -0.0674  0.2933  0.5168
  983MOL0     C32613   5.180   3.951   4.713 -0.1172 -0.0352 -0.1431
  983MOL0    Cl32614   5.315   3.857   4.643  0.1476 -0.1314  0.0771
  983MOL0     C32615   4.915   3.202   5.419 -0.4689 -0.1377 -0.1387
  983MOL0     C32616   4.852   3.087   5.476 -0.0886 -0.2091  0.1472
  983MOL0     O32617   4.694   3.032   5.823 -0.7697 -0.0927 -0.1196
  983MOL0     C32618   4.608   2.781   5.930  0.1440 -0.0282 -0.5387
  983MOL0     C32619   4.571   2.654   5.971 -0.1268  0.1714  0.8369
  983MOL0     N32620   4.366   2.268   6.665  0.4191  0.1852  0.5027
  983MOL0     N32621   4.411   2.216   6.770  1.3281  0.1755  0.3546
  983MOL0     C32622   5.619   2.094   6.806  0.8777  0.5423  0.4766
  983MOL0     C32623   5.703   2.005   6.747 -0.3291  0.5348 -1.0020
  983MOL0     C32624   5.975   1.776   6.452 -0.9170  0.1784 -0.5979
  983MOL0     C32625   6.086   1.808   6.533  0.2296  0.1715 -0.6243
  983MOL0     C32626   6.214   1.761   6.515  0.5952 -0.4620  1.1796
  983MOL0     C32627   6.246   1.675   6.421  0.9353 -0.8003  0.4393
  983MOL0     O32628   6.371   1.628   6.432 -0.0216  0.4476  0.0219
  983MOL0     C32629   6.419   1.546   6.326 -0.0868  0.4418 -0.5704
  983MOL0     C32630   6.555   1.492   6.356  0.3431 -0.2014 -0.6999
  983MOL0     C32631   6.580   1.348   6.307 -0.5110  0.9764  0.4653
  983MOL0     C32632   6.553   1.330   6.154 -0.1894  0.7643 -0.0947
  983MOL0     C32633   6.625   1.433   6.076 -0.0805  0.4819  0.6291
  983MOL0     C32634   6.680   1.517   6.012 -0.0082  0.1867  0.5193
  983MOL0     C32635   6.134   1.636   6.336  0.1453  1.4372 -0.4754
  983MOL0     C32636   6.002   1.674   6.355  0.7597  0.0626 -0.4144
  983MOL0     C32637   5.890   1.600   6.276  0.3267 -0.1439  1.1588
  983MOL0     H32638   5.683   2.071   6.415  2.0270  1.3333  0.2153
  983MOL0     H32639   5.485   2.216   6.510 -2.5134 -1.6614  0.7005
  983MOL0     H32640   5.439   2.435   6.686 -1.5995  1.5968  0.2192
  983MOL0     H32641   5.337   2.307   6.616 -1.4378 -0.6739  1.5424
  983MOL0     H32642   5.226   2.495   6.748  0.0542 -1.1563 -3.2556
  983MOL0     H32643   5.298   2.418   6.903  2.6069 -2.0691 -0.4121
  983MOL0     H32644   5.202   2.207   6.786 -0.8005 -0.5573  0.6135
  983MOL0     H32645   5.092   2.308   6.702  3.5636  1.3982 -3.2698
  983MOL0     H32646   5.110   2.310   7.005 -0.1179 -0.7976  0.0741
  983MOL0     H32647   4.988   2.393   6.912 -0.6692 -0.7704  0.0332
  983MOL0     H32648   5.014   2.082   6.892 -1.2200 -0.9008  2.5192
  983MOL0     H32649   4.938   2.175   7.016 -1.4214  1.6408  0.4146
  983MOL0     H32650   4.782   2.273   6.850 -0.3406  0.9647 -3.5361
  983MOL0     H32651   4.879   2.216   6.716 -1.1254  2.8931 -0.6786
  983MOL0     H32652   4.800   1.994   6.866 -1.1984 -2.7157 -1.4958
  983MOL0     H32653   4.774   2.025   6.699  0.9090 -1.2699  0.7982
  983MOL0     H32654   4.570   1.971   6.823  1.8995 -0.7487  1.1474
  983MOL0     H32655   4.588   2.112   6.929  0.6302  0.9233 -0.1168
  983MOL0     H32656   4.635   2.154   6.545  1.5022  2.2650  1.4432
  983MOL0     H32657   4.345   2.297   6.372 -1.6948  0.5427 -1.0138
  983MOL0     H32658   4.415   2.442   6.440  2.6006 -0.3703 -0.3958
  983MOL0     H32659   4.631   2.360   6.379  2.2341 -3.6804  1.0790
  983MOL0     H32660   4.572   2.212   6.300  3.3139  0.4814  0.5940
  983MOL0     H32661   4.439   2.471   6.204 -2.2969 -1.4245  3.1903
  983MOL0     H32662   4.448   2.305   6.140 -0.8282 -0.8081  0.3686
  983MOL0     H32663   4.708   2.340   6.131 -0.9461 -0.6752  0.0467
  983MOL0     H32664   4.670   2.507   6.154 -2.5694  0.3270  1.2379
  983MOL0     H32665   4.776   2.463   5.782 -2.8645 -1.5316 -2.8335
  983MOL0     H32666   4.835   2.676   5.697 -0.8080 -2.7577 -2.2873
  983MOL0     H32667   4.946   3.133   5.798 -1.3068  2.0534  0.3190
  983MOL0     H32668   5.046   3.338   5.684 -0.7833  0.0662  0.9343
  983MOL0     H32669   4.960   3.430   5.255  0.3841 -2.2501  2.3756
  983MOL0     H32670   4.883   3.525   5.385  0.3428  0.7854 -0.0819
  983MOL0     H32671   5.082   3.656   5.385 -0.1491  1.0355 -0.2185
  983MOL0     H32672   5.174   3.554   5.287 -1.1576 -0.4885 -0.0114
  983MOL0     H32673   4.962   3.595   5.105 -0.1459 -0.5382  0.4627
  983MOL0     H32674   4.946   3.740   5.197 -0.3220  0.2366  0.5121
  983MOL0     H32675   5.195   3.663   5.051 -2.5034 -0.6479 -2.8845
  983MOL0     H32676   5.182   3.781   5.189 -0.0526 -1.8272  1.7511
  983MOL0     H32677   5.028   3.905   5.044  2.1127  0.9293  1.8895
  983MOL0     H32678   5.068   3.783   4.905  2.6648 -1.3431  0.3438
  983MOL0     H32679   5.254   3.974   5.063 -4.0923 -1.6424  2.5700
  983MOL0     H32680   5.318   3.859   4.954 -0.5116  0.8682 -1.2674
  983MOL0     H32681   5.296   4.080   4.837 -0.5334  0.5033 -1.3428
  983MOL0     H32682   5.119   4.078   4.879 -0.2801  0.8602 -1.4478
  983MOL0     H32683   5.090   3.889   4.721  0.6524 -1.3909 -1.7380
  983MOL0     H32684   5.155   4.024   4.635  2.2829 -0.1025 -1.0556
  983MOL0     H32685   4.881   3.231   5.320  0.2187 -0.1287 -0.3805
  983MOL0     H32686   4.798   3.020   5.410  2.3033  0.0739 -2.2509
  983MOL0     H32687   4.561   2.867   5.977 -0.5851  1.0214 -3.0097
  983MOL0     H32688   4.504   2.644   6.056  0.1365 -1.1159  0.9185
  983MOL0     H32689   5.610   2.106   6.913 -2.7716 -0.5938  0.4311
  983MOL0     H32690   5.768   1.946   6.811 -0.8394  2.4369  1.4183
  983MOL0     H32691   6.089   1.883   6.611  1.1426  1.8970 -2.2194
  983MOL0     H32692   6.290   1.793   6.586 -2.1448  3.5160  2.6502
  983MOL0     H32693   6.418   1.602   6.233  0.1114  2.0877  0.3746
  983MOL0     H32694   6.349   1.466   6.301  0.3958 -0.0003 -0.5221
  983MOL0     H32695   6.572   1.496   6.464 -0.7860 -1.2090 -0.4709
  983MOL0     H32696   6.627   1.562   6.312 -1.3986  2.3128  0.1592
  983MOL0     H32697   6.508   1.290   6.365  0.6231 -0.2134  0.7239
  983MOL0     H32698   6.681   1.309   6.321 -0.3717  1.3431  0.5063
  983MOL0     H32699   6.582   1.230   6.121 -2.2858 -0.2387  0.9130
  983MOL0     H32700   6.447   1.341   6.133 -0.3858 -1.6509 -0.6465
  983MOL0     H32701   6.729   1.601   5.968  2.4563 -0.4106  1.9119
  983MOL0     H32702   6.155   1.566   6.256  0.2128  1.1065 -0.1721
  983MOL0     H32703   5.823   1.545   6.343 -3.0995  0.2660 -1.6172
  983MOL0     H32704   5.833   1.676   6.222 -1.2870 -2.7883 -1.0800
  983MOL0     H32705   5.924   1.530   6.199 -1.3049 -0.1198  0.3899
  984MOL0     O32706   7.054   8.055   0.912 -0.1936  0.6119  0.4647
  984MOL0     C32707   6.997   8.155   0.907  0.2566  0.1296  1.0630
  984MOL0     O32708   7.019   8.255   0.823  0.7989 -0.4122 -0.1280
  984MOL0     C32709   7.114   8.262   0.722  0.2224  0.8450 -0.5622
  984MOL0     C32710   7.090   8.351   0.619  0.3804  0.5900  0.0422
  984MOL0     C32711   7.169   8.361   0.505 -0.1324 -0.2715  0.4262
  984MOL0     C32712   7.286   8.285   0.501 -0.5398  0.3078  0.0163
  984MOL0     O32713   7.383   8.291   0.399  1.2243 -0.1624  0.3041
  984MOL0     C32714   7.343   8.293   0.266 -1.2112 -0.3551  0.1820
  984MOL0     C32715   7.334   8.426   0.201 -0.3506 -0.1007  0.1691
  984MOL0     C32716   7.458   8.458   0.112 -0.1126  0.7229 -1.4277
  984MOL0     C32717   7.572   8.491   0.206  0.3865 -0.2610 -0.7630
  984MOL0     C32718   7.691   8.552   0.139 -0.3090 -0.6045  0.3947
  984MOL0     C32719   7.784   8.623   0.237 -0.1453  0.0969  0.5137
  984MOL0     C32720   7.913   8.681   0.165 -0.5671 -0.2967 -1.2022
  984MOL0     C32721   7.996   8.586   0.066  0.0874  0.4563  0.5315
  984MOL0     N32722   8.135   8.596   0.104  0.1387  0.3799  0.1231
  984MOL0     C32723   8.213   8.553   0.218  0.6809 -0.3282  1.2389
  984MOL0     C32724   8.339   8.596   0.199  0.4728 -0.8097  0.0910
  984MOL0     C32725   8.456   8.564   0.287  0.7973  0.6931 -0.1642
  984MOL0     C32726   8.450   8.417   0.328 -0.3127 -0.2682 -0.4358
  984MOL0     C32727   8.580   8.371   0.378  0.0016  0.1543  0.5165
  984MOL0     C32728   8.581   8.389   0.525  0.5900  0.4340 -0.7564
  984MOL0     O32729   8.704   8.325   0.572 -0.4867 -0.4739 -0.1684
  984MOL0     C32730   8.748   8.317   0.702  0.9424 -0.0704  0.7528
  984MOL0     C32731   8.794   8.188   0.746 -0.0512 -0.0427  0.4120
  984MOL0     C32732   8.829   8.175   0.885  0.6485  0.1484 -0.0445
  984MOL0     C32733   8.817   8.281   0.971 -0.7591  0.0700 -0.1129
  984MOL0     C32734   8.855   8.275   1.109  0.3227  0.1648 -0.6799
  984MOL0     O32735   8.855   8.397   1.178 -0.9945  0.4767  0.7220
  984MOL0     C32736   8.887   8.399   1.308 -0.1616 -0.1390 -0.2000
  984MOL0     C32737   9.000   8.342   1.356 -0.4601 -0.1386 -0.8656
  984MOL0     C32738   9.024   8.308   1.497 -0.7118 -0.9824 -0.7778
  984MOL0     C32739   8.948   8.369   1.591  0.3091 -0.6064 -0.7894
  984MOL0     O32740   8.962   8.332   1.734  0.0352  1.0026  0.0738
  984MOL0     C32741   9.092   8.287   1.765 -0.0556  1.1249  0.0663
  984MOL0     C32742   9.115   8.313   1.915 -0.1241  0.5686 -0.8254
  984MOL0     C32743   9.257   8.289   1.968  0.0298 -0.1004  0.7154
  984MOL0     C32744   9.374   8.365   1.902 -0.0235  0.2100 -0.1879
  984MOL0     C32745   9.492   8.379   1.997 -0.6839  0.1396 -0.7768
  984MOL0     C32746   9.576   8.252   2.001 -0.4709 -0.2156 -0.5452
  984MOL0     C32747   9.694   8.272   2.094  1.0749  0.7757 -0.8022
  984MOL0     C32748   9.807   8.341   2.016 -0.2283  0.4653 -0.1897
  984MOL0    Cl32749   9.885   8.234   1.899  0.7339  0.0770 -0.1024
  984MOL0     C32750   8.838   8.443   1.537 -0.5900  0.7867  0.0761
  984MOL0     C32751   8.801   8.464   1.403 -0.9945  0.9190  0.2209
  984MOL0     O32752   8.866   8.160   1.151  0.5691  0.2287 -0.6169
  984MOL0     C32753   8.775   8.403   0.914 -0.1440 -0.4240  0.9691
  984MOL0     C32754   8.739   8.419   0.787  0.6408 -1.2896 -0.8818
  984MOL0     N32755   8.339   8.676   0.078 -0.6979  1.0454 -0.0231
  984MOL0     N32756   8.226   8.653   0.016 -0.5661 -0.1302  0.0281
  984MOL0     C32757   7.318   8.190   0.602 -0.1767 -0.9159 -0.8966
  984MOL0     C32758   7.230   8.176   0.718 -1.2929 -0.8446 -0.2613
  984MOL0     C32759   6.878   8.178   1.002  0.3058  0.2179 -0.3404
  984MOL0     C32760   6.838   8.310   1.043  0.8161  0.3923 -0.0597
  984MOL0     C32761   6.723   8.325   1.114  0.5117  0.7043  0.9106
  984MOL0     C32762   6.644   8.221   1.151  0.4204 -0.2457 -0.2650
  984MOL0     O32763   6.524   8.245   1.209 -0.4171  0.5273 -1.0265
  984MOL0     C32764   6.415   8.300   1.142  0.3954  0.1463  0.7946
  984MOL0     C32765   6.386   8.442   1.181  0.4652 -0.2334 -0.2652
  984MOL0     C32766   6.405   8.468   1.324 -0.2784  0.8472 -0.8284
  984MOL0     C32767   6.396   8.619   1.354  0.0849 -0.5035  0.6924
  984MOL0     C32768   6.407   8.649   1.499 -1.1067  0.4518  0.1581
  984MOL0     C32769   6.447   8.674   1.610 -0.8343  0.1221 -1.0900
  984MOL0     C32770   6.678   8.090   1.118  0.2899  0.6868 -0.1998
  984MOL0     C32771   6.797   8.067   1.041 -0.3321 -0.1274 -0.3028
  984MOL0     C32772   6.805   7.930   0.988 -0.4378 -0.0543  0.8014
  984MOL0     H32773   6.995   8.403   0.613  0.8109  1.2374 -2.2914
  984MOL0     H32774   7.138   8.423   0.421 -2.4327  1.9072  2.7342
  984MOL0     H32775   7.421   8.241   0.209 -1.2356  0.2768 -0.4502
  984MOL0     H32776   7.254   8.234   0.243 -0.5439 -0.4455 -2.5241
  984MOL0     H32777   7.306   8.494   0.281 -0.4249  1.0539 -0.7978
  984MOL0     H32778   7.251   8.432   0.130  0.3067 -1.2027 -0.7406
  984MOL0     H32779   7.446   8.543   0.044  0.4302  1.0982 -1.0590
  984MOL0     H32780   7.487   8.374   0.049  2.6798  0.3288  0.2038
  984MOL0     H32781   7.526   8.558   0.280  0.3368  1.8566 -2.6111
  984MOL0     H32782   7.602   8.399   0.256  2.1302  1.2938  1.2427
  984MOL0     H32783   7.733   8.477   0.073 -0.8934 -0.5042 -0.1015
  984MOL0     H32784   7.649   8.635   0.081  1.2020 -1.0022 -1.3406
  984MOL0     H32785   7.730   8.697   0.297 -1.5700 -0.4513 -0.0553
  984MOL0     H32786   7.818   8.550   0.311  0.9297 -0.0273 -0.0759
  984MOL0     H32787   7.972   8.694   0.256  2.1582 -0.3963 -2.8739
  984MOL0     H32788   7.885   8.777   0.123 -4.9518 -2.0967 -3.0166
  984MOL0     H32789   7.971   8.480   0.070 -1.4596  0.7871  0.3608
  984MOL0     H32790   7.985   8.627  -0.035 -2.8271  0.1215  0.6235
  984MOL0     H32791   8.181   8.501   0.307 -0.0590 -0.4113  0.9344
  984MOL0     H32792   8.548   8.580   0.230  1.3954 -2.7981 -0.3952
  984MOL0     H32793   8.454   8.632   0.372 -1.7013  2.4462 -1.4830
  984MOL0     H32794   8.371   8.415   0.403 -0.3010 -0.7318 -0.4275
  984MOL0     H32795   8.418   8.358   0.241  1.8042  0.7802 -2.0068
  984MOL0     H32796   8.666   8.418   0.329 -1.0550  1.2239 -0.3859
  984MOL0     H32797   8.583   8.265   0.353 -1.1106  0.2216  0.0521
  984MOL0     H32798   8.493   8.349   0.576 -0.3675  2.5883 -0.6211
  984MOL0     H32799   8.573   8.495   0.549 -3.0798  1.0510 -3.6812
  984MOL0     H32800   8.797   8.094   0.692 -0.2962 -0.1353  0.5594
  984MOL0     H32801   8.845   8.071   0.913  0.9278  0.4061  0.7672
  984MOL0     H32802   9.055   8.292   1.277  0.4207  0.5434 -0.6953
  984MOL0     H32803   9.111   8.245   1.508 -0.9458 -0.9144  2.1739
  984MOL0     H32804   9.095   8.179   1.747 -4.2925  0.7385  0.5837
  984MOL0     H32805   9.161   8.335   1.695  1.6713  0.0179  0.9417
  984MOL0     H32806   9.074   8.414   1.926  0.9669  1.2354 -2.4378
  984MOL0     H32807   9.052   8.252   1.979  3.4399 -1.1695  1.3365
  984MOL0     H32808   9.255   8.318   2.074  0.4513  2.7091  0.0542
  984MOL0     H32809   9.277   8.182   1.973 -0.2214 -0.1350  1.0387
  984MOL0     H32810   9.339   8.467   1.884  0.4185  0.6230  1.1502
  984MOL0     H32811   9.402   8.319   1.807  0.5497  1.4698 -0.6525
  984MOL0     H32812   9.464   8.416   2.096  2.5752  0.8668 -0.0271
  984MOL0     H32813   9.543   8.467   1.955 -0.0967  0.4551  0.5517
  984MOL0     H32814   9.518   8.164   2.031 -0.8048 -0.3639 -1.5753
  984MOL0     H32815   9.605   8.221   1.901  2.8404 -1.0786  0.5719
  984MOL0     H32816   9.730   8.176   2.132  1.7235  0.4057 -2.2902
  984MOL0     H32817   9.657   8.337   2.173  0.4770  1.7731 -1.8713
  984MOL0     H32818   9.781   8.438   1.974 -0.6138  1.0761  1.3629
  984MOL0     H32819   9.887   8.371   2.084 -2.7836  1.8761  2.4488
  984MOL0     H32820   8.777   8.491   1.613  1.1092 -0.2711  2.1879
  984MOL0     H32821   8.712   8.521   1.379 -0.4093  1.4683 -0.6836
  984MOL0     H32822   8.750   8.483   0.982  0.3116  0.3001  0.2957
  984MOL0     H32823   8.691   8.513   0.762  0.4432 -0.7243  1.3689
  984MOL0     H32824   7.404   8.125   0.591 -1.1942 -2.1932 -1.5948
  984MOL0     H32825   7.252   8.110   0.801  0.1479  0.3881  0.3896
  984MOL0     H32826   6.908   8.390   1.022  0.9099 -0.5464 -4.1057
  984MOL0     H32827   6.690   8.426   1.137  3.6720  1.6402  1.8387
  984MOL0     H32828   6.324   8.248   1.172  0.3451 -2.7735 -3.5773
  984MOL0     H32829   6.423   8.297   1.033 -1.4783  3.4090  0.4475
  984MOL0     H32830   6.284   8.476   1.159 -0.3738 -0.4755  2.7633
  984MOL0     H32831   6.454   8.512   1.131  0.1956  0.8707  0.8602
  984MOL0     H32832   6.507   8.447   1.358 -1.5152  1.5508  4.0274
  984MOL0     H32833   6.342   8.404   1.387  2.3911 -1.4920 -0.3265
  984MOL0     H32834   6.473   8.663   1.290 -0.1380 -3.6046 -1.9523
  984MOL0     H32835   6.301   8.660   1.321  0.6829  0.6942  0.4040
  984MOL0     H32836   6.506   8.695   1.697 -0.1011  0.5551 -1.6773
  984MOL0     H32837   6.609   8.017   1.160  1.2094  1.4169  2.8999
  984MOL0     H32838   6.720   7.871   1.023 -1.4189  0.7249 -0.1884
  984MOL0     H32839   6.813   7.931   0.879  1.3047 -2.9518  0.8007
  984MOL0     H32840   6.901   7.881   1.008  1.0796  1.8771 -1.2185
  985MOL0     O32841   8.916  10.831   4.057 -0.4959 -0.1529 -0.2623
  985MOL0     C32842   8.998  10.765   4.004 -0.5194  0.6820  0.4682
  985MOL0     O32843   9.041  10.770   3.872 -0.5410 -0.1539  0.2766
  985MOL0     C32844   9.042  10.898   3.805  0.4553 -0.5788 -0.1949
  985MOL0     C32845   9.015  10.899   3.671 -0.5385 -0.2371  0.2030
  985MOL0     C32846   8.993  11.015   3.592  0.8436 -1.2257 -0.4330
  985MOL0     C32847   8.995  11.143   3.655 -0.3603  0.9287  0.3552
  985MOL0     O32848   8.983  11.264   3.599  0.3192  0.6331  0.1022
  985MOL0     C32849   8.856  11.286   3.535  0.3917  0.1099  0.2961
  985MOL0     C32850   8.814  11.434   3.547  0.0477 -0.0606  0.2232
  985MOL0     C32851   8.880  11.527   3.454 -0.5001  0.1941  1.0996
  985MOL0     C32852   8.881  11.670   3.498  0.4172  0.1626  1.0544
  985MOL0     C32853   8.949  11.691   3.636 -1.1618 -0.6410 -0.3842
  985MOL0     C32854   9.079  11.618   3.678  0.0877  0.4825  0.4612
  985MOL0     C32855   9.203  11.676   3.624 -0.8446 -0.4173  0.5347
  985MOL0     C32856   9.322  11.601   3.699  0.3944  0.7076 -1.0045
  985MOL0     N32857   9.452  11.650   3.669 -0.1292 -0.1642  0.4415
  985MOL0     C32858   9.512  11.771   3.698  0.3208 -0.5995  0.4175
  985MOL0     C32859   9.646  11.746   3.646  0.9878  0.0697 -0.1219
  985MOL0     C32860   9.757  11.845   3.665  0.4721 -0.0638 -0.3115
  985MOL0     C32861   9.757  11.894   3.803  0.4596  0.0503 -0.9814
  985MOL0     C32862   9.875  11.985   3.844 -0.4509  0.2991 -0.7068
  985MOL0     C32863   9.865  12.053   3.984  0.6768  0.0503  0.0158
  985MOL0     O32864   9.880  11.958   4.091 -0.8378  0.3218  0.1802
  985MOL0     C32865  10.008  11.952   4.150 -0.4159 -0.7709  0.9697
  985MOL0     C32866  10.086  11.838   4.155 -0.0164  0.9323  0.3765
  985MOL0     C32867  10.205  11.838   4.221 -0.7170 -0.4812  0.4134
  985MOL0     C32868  10.243  11.933   4.317 -0.0011 -0.1679 -0.6052
  985MOL0     C32869  10.367  11.924   4.409 -0.2221 -0.0756  0.5756
  985MOL0     O32870  10.385  12.017   4.512  0.5678  0.6339  0.2016
  985MOL0     C32871  10.511  12.004   4.559 -0.2900  0.1927 -0.7859
  985MOL0     C32872  10.633  12.060   4.500 -0.0243 -0.8185  0.4260
  985MOL0     C32873  10.759  12.056   4.567  0.0474 -0.0968 -0.0886
  985MOL0     C32874  10.766  11.997   4.693 -0.2477 -0.1414  0.1290
  985MOL0     O32875  10.884  12.002   4.763 -0.1309 -0.3315 -0.3960
  985MOL0     C32876  10.928  11.892   4.842  0.2534 -0.0825 -0.0843
  985MOL0     C32877  11.052  11.927   4.919  0.1505  1.0162  0.7929
  985MOL0     C32878  11.032  11.999   5.046 -0.3755 -1.6062 -1.3181
  985MOL0     C32879  10.985  11.897   5.156  1.1274  0.6915  0.2038
  985MOL0     C32880  11.004  11.952   5.302  0.7961  0.7533  0.1984
  985MOL0     C32881  10.878  11.920   5.381 -0.0288 -0.5172  0.1788
  985MOL0     C32882  10.846  11.773   5.426 -1.8452 -0.3015  0.0011
  985MOL0     C32883  10.710  11.776   5.507  0.4241 -0.0287 -0.4298
  985MOL0    Cl32884  10.670  11.627   5.573 -0.1726  0.3778 -0.0089
  985MOL0     C32885  10.650  11.945   4.757  0.0104 -0.8017 -0.1385
  985MOL0     C32886  10.522  11.951   4.687 -1.4467 -0.9912  0.0991
  985MOL0     O32887  10.443  11.826   4.384 -0.6330  0.1297  0.3105
  985MOL0     C32888  10.153  12.036   4.330 -0.0401 -1.1881  0.0318
  985MOL0     C32889  10.042  12.050   4.245  0.0449 -0.7521 -0.2492
  985MOL0     N32890   9.652  11.617   3.587  0.0051  0.1602 -0.5233
  985MOL0     N32891   9.541  11.568   3.603 -0.1440  1.5206  0.4075
  985MOL0     C32892   9.027  11.141   3.790  0.7633  0.0615  0.4349
  985MOL0     C32893   9.039  11.027   3.862 -0.6926  0.5423 -0.0960
  985MOL0     C32894   9.071  10.657   4.076  0.1585  0.0289 -0.8060
  985MOL0     C32895   9.005  10.595   4.181 -0.5001  0.9139 -0.1975
  985MOL0     C32896   9.069  10.488   4.250  0.7655  0.5872  0.3257
  985MOL0     C32897   9.194  10.444   4.211  1.1155  0.0201 -0.5200
  985MOL0     O32898   9.244  10.349   4.287 -0.4313  0.5450 -0.2063
  985MOL0     C32899   9.359  10.277   4.231 -0.6404 -0.1508  0.6862
  985MOL0     C32900   9.412  10.179   4.329  0.4576  0.3554  0.0915
  985MOL0     C32901   9.491  10.069   4.250  0.9313  0.2780 -0.1130
  985MOL0     C32902   9.525   9.963   4.351 -0.1239  0.9042 -0.4268
  985MOL0     C32903   9.612  10.011   4.458  0.3545 -0.5985  0.6529
  985MOL0     C32904   9.691  10.053   4.540 -0.0299  0.0343 -0.4300
  985MOL0     C32905   9.262  10.501   4.105  0.4963  0.3887  0.4023
  985MOL0     C32906   9.205  10.613   4.049 -1.3079 -0.0359  0.7761
  985MOL0     C32907   9.296  10.699   3.968 -0.2678  0.1944  0.2609
  985MOL0     H32908   9.007  10.801   3.625 -3.0157 -0.9401  1.8868
  985MOL0     H32909   8.969  11.018   3.486  2.7046  1.2917 -0.8577
  985MOL0     H32910   8.866  11.264   3.429  2.4202 -1.1314  0.6942
  985MOL0     H32911   8.783  11.212   3.569  2.0007 -1.1134  1.1816
  985MOL0     H32912   8.824  11.467   3.651 -1.7064 -0.4335  0.5428
  985MOL0     H32913   8.705  11.440   3.536 -0.2604 -2.1531  1.5220
  985MOL0     H32914   8.824  11.516   3.361  1.0714 -0.5463  0.2023
  985MOL0     H32915   8.985  11.498   3.442 -1.3537 -2.5234 -0.9586
  985MOL0     H32916   8.934  11.719   3.416 -0.2988  0.1587  0.5807
  985MOL0     H32917   8.779  11.709   3.510 -0.9585 -2.4755 -0.9458
  985MOL0     H32918   8.977  11.795   3.653 -0.8343 -0.6466 -0.8950
  985MOL0     H32919   8.870  11.661   3.706  0.9107 -1.7131  1.6315
  985MOL0     H32920   9.083  11.597   3.785  3.6910 -1.8068  0.0490
  985MOL0     H32921   9.075  11.518   3.634  0.0690  0.4945  0.4352
  985MOL0     H32922   9.215  11.783   3.648  3.4694 -0.9773  1.7843
  985MOL0     H32923   9.210  11.668   3.515  1.9616 -0.7127  0.6646
  985MOL0     H32924   9.311  11.605   3.808  2.8264 -0.6048 -0.6219
  985MOL0     H32925   9.327  11.499   3.659  1.1089  0.1542  0.4286
  985MOL0     H32926   9.466  11.858   3.745  0.6331  0.3554 -0.9763
  985MOL0     H32927   9.859  11.812   3.642  1.8409  0.7474  3.7720
  985MOL0     H32928   9.753  11.930   3.596  0.6533  0.6142  0.5041
  985MOL0     H32929   9.660  11.940   3.824  0.8391  1.4738 -2.1610
  985MOL0     H32930   9.758  11.810   3.873  0.8578 -0.0890 -1.1475
  985MOL0     H32931   9.874  12.068   3.773 -0.4262  2.3056  1.5168
  985MOL0     H32932   9.965  11.923   3.837  1.2295  2.5421 -0.2566
  985MOL0     H32933   9.768  12.102   3.993  0.2133 -0.9643  0.6509
  985MOL0     H32934   9.947  12.126   3.989 -0.4399  1.3297  0.2717
  985MOL0     H32935  10.054  11.748   4.103  2.8256 -0.4931  0.8924
  985MOL0     H32936  10.253  11.744   4.197 -3.0037 -1.1356 -1.9482
  985MOL0     H32937  10.635  12.112   4.405 -2.2861 -3.7056 -1.3661
  985MOL0     H32938  10.849  12.096   4.520 -0.1427  0.1214 -0.2666
  985MOL0     H32939  10.853  11.836   4.897 -0.0519  1.0218  0.6509
  985MOL0     H32940  10.959  11.820   4.765 -0.8938  0.8723 -1.5134
  985MOL0     H32941  11.117  11.842   4.940  1.3562  2.2644  2.3748
  985MOL0     H32942  11.104  11.995   4.850  1.6491  0.4412  1.3219
  985MOL0     H32943  11.121  12.051   5.082 -2.2605  0.9929 -0.0646
  985MOL0     H32944  10.964  12.084   5.032  1.2495  0.1673  0.9287
  985MOL0     H32945  11.045  11.808   5.137 -0.7328 -0.3125 -1.3310
  985MOL0     H32946  10.879  11.875   5.140  1.0330  1.0864  0.2742
  985MOL0     H32947  11.020  12.061   5.304 -1.5782  1.1706 -0.5737
  985MOL0     H32948  11.091  11.914   5.355 -0.9435  0.7086  3.2027
  985MOL0     H32949  10.886  11.988   5.466  3.2220  0.2061 -0.5671
  985MOL0     H32950  10.789  11.945   5.324 -2.0978 -3.4707  1.8791
  985MOL0     H32951  10.928  11.743   5.492 -0.2027  3.8075  0.1339
  985MOL0     H32952  10.845  11.711   5.337 -0.4678 -1.9774  1.1067
  985MOL0     H32953  10.724  11.846   5.590 -3.1668 -0.0303  0.3262
  985MOL0     H32954  10.630  11.805   5.439 -0.3210 -1.0708 -0.0182
  985MOL0     H32955  10.654  11.905   4.857  0.3426 -1.6105 -0.4672
  985MOL0     H32956  10.443  11.905   4.745 -3.4155  2.4267  0.4002
  985MOL0     H32957  10.156  12.109   4.411 -0.5276 -1.7570  0.5734
  985MOL0     H32958   9.980  12.137   4.264  1.0753 -0.7669  4.5217
  985MOL0     H32959   9.026  11.240   3.835 -0.4514  0.4325 -0.3551
  985MOL0     H32960   9.071  11.037   3.965 -1.8263 -0.7824  0.4180
  985MOL0     H32961   8.902  10.614   4.209 -0.6322  0.4667 -0.3657
  985MOL0     H32962   9.016  10.435   4.329  1.7040 -2.1621 -0.7828
  985MOL0     H32963   9.441  10.343   4.199  0.0019 -0.5677  1.4278
  985MOL0     H32964   9.334  10.217   4.143  1.1281 -1.4151  0.9801
  985MOL0     H32965   9.330  10.132   4.384 -0.9274  0.8000 -1.5004
  985MOL0     H32966   9.468  10.245   4.395 -1.0863  0.7844  1.0354
  985MOL0     H32967   9.582  10.103   4.200  0.3104  1.1869 -0.6570
  985MOL0     H32968   9.425  10.019   4.178  0.8344 -1.3477  1.0662
  985MOL0     H32969   9.433   9.927   4.397  0.8686  1.1030  1.8666
  985MOL0     H32970   9.564   9.877   4.295  0.5244  0.2601  0.9493
  985MOL0     H32971   9.765  10.082   4.612  1.5233 -2.5313 -0.8653
  985MOL0     H32972   9.361  10.470   4.073  2.3617 -0.0729  5.6220
  985MOL0     H32973   9.287  10.673   3.862 -0.5946  2.0070 -0.1867
  985MOL0     H32974   9.266  10.804   3.980  1.6079  1.0137 -1.5836
  985MOL0     H32975   9.401  10.696   4.000 -0.9455 -0.9736  2.5468
  986MOL0     O32976   2.413   3.241   2.724  0.0814 -0.2058 -0.3839
  986MOL0     C32977   2.418   3.211   2.609 -0.3386  0.6364 -0.9409
  986MOL0     O32978   2.352   3.105   2.555  0.1655 -0.6035 -0.3422
  986MOL0     C32979   2.242   3.042   2.609  0.6221 -0.0664  0.3709
  986MOL0     C32980   2.133   3.019   2.526 -0.1623 -0.5116 -0.5983
  986MOL0     C32981   2.029   2.939   2.559  0.5471 -0.7495 -0.2837
  986MOL0     C32982   2.018   2.886   2.687 -0.7753 -0.1576 -0.5029
  986MOL0     O32983   1.924   2.790   2.695 -0.6697  0.0436 -0.6511
  986MOL0     C32984   1.906   2.730   2.819  0.4779 -0.7972 -0.8249
  986MOL0     C32985   1.756   2.725   2.838 -0.7716 -0.3678  0.5982
  986MOL0     C32986   1.712   2.604   2.749  0.3549  0.1957 -0.8124
  986MOL0     C32987   1.598   2.535   2.827  0.1033  1.4094  0.7147
  986MOL0     C32988   1.535   2.408   2.764 -1.4128 -0.3435  0.2902
  986MOL0     C32989   1.631   2.285   2.756  0.2629  0.0051  0.2370
  986MOL0     C32990   1.587   2.160   2.680  1.7952 -0.2745 -0.3990
  986MOL0     C32991   1.450   2.106   2.731 -0.5899 -0.2803  0.0770
  986MOL0     N32992   1.453   2.056   2.871  0.7209  1.0055  0.1990
  986MOL0     C32993   1.407   2.135   2.965  0.0475 -0.3623 -0.4159
  986MOL0     C32994   1.475   2.110   3.082  0.1435  0.0250  0.8635
  986MOL0     C32995   1.463   2.178   3.214  0.1345 -0.7239 -0.2151
  986MOL0     C32996   1.354   2.284   3.221  0.8625 -0.0749  1.0885
  986MOL0     C32997   1.357   2.373   3.343 -1.1879  0.8713 -0.8702
  986MOL0     C32998   1.340   2.307   3.487 -0.5840  0.2825  0.0155
  986MOL0     O32999   1.220   2.231   3.471  0.1733  0.6606  0.0265
  986MOL0     C33000   1.224   2.094   3.497 -0.5962 -0.1917 -0.5267
  986MOL0     C33001   1.313   2.033   3.597 -0.6063  0.2882 -0.5727
  986MOL0     C33002   1.309   1.895   3.621 -0.2663 -0.1669  0.1026
  986MOL0     C33003   1.209   1.816   3.562  0.7009  0.6860 -0.3165
  986MOL0     C33004   1.197   1.677   3.597  0.0747 -0.2848 -0.1081
  986MOL0     O33005   1.108   1.590   3.524 -0.1392 -0.3451 -0.0184
  986MOL0     C33006   1.135   1.457   3.543  0.9286  0.1040 -0.0240
  986MOL0     C33007   1.222   1.396   3.456 -1.1503  0.2950 -1.0834
  986MOL0     C33008   1.267   1.264   3.479 -0.4007 -0.4713 -0.8963
  986MOL0     C33009   1.230   1.195   3.591  0.1838 -0.1498  0.0051
  986MOL0     O33010   1.288   1.074   3.620 -0.0463  0.1849 -0.2059
  986MOL0     C33011   1.362   1.077   3.744 -0.1315 -1.1325 -0.3940
  986MOL0     C33012   1.474   0.960   3.745  0.1213 -0.3331  0.3591
  986MOL0     C33013   1.547   0.950   3.608 -0.1691  0.0766  0.2482
  986MOL0     C33014   1.639   1.072   3.578  0.2006 -1.2238 -0.3458
  986MOL0     C33015   1.666   1.087   3.435  0.3240  0.4534 -0.5840
  986MOL0     C33016   1.729   1.222   3.401  0.2010 -0.2803  0.8513
  986MOL0     C33017   1.750   1.244   3.251 -0.4884 -0.1596 -0.1653
  986MOL0     C33018   1.861   1.352   3.255  0.6920  0.1791 -0.2235
  986MOL0    Cl33019   1.859   1.441   3.104  0.3284  0.1365  0.3345
  986MOL0     C33020   1.137   1.253   3.680  0.5379 -0.2597  0.2374
  986MOL0     C33021   1.088   1.381   3.651 -0.6101  0.0048 -1.2782
  986MOL0     O33022   1.259   1.640   3.695  0.9540  0.8541 -0.0177
  986MOL0     C33023   1.118   1.879   3.483  0.2919 -0.3223 -1.1686
  986MOL0     C33024   1.133   2.008   3.443  0.0101 -0.9287  1.1299
  986MOL0     N33025   1.563   2.010   3.057 -0.7010 -0.4374  0.2607
  986MOL0     N33026   1.553   1.981   2.927  0.7281  0.0257 -0.0460
  986MOL0     C33027   2.126   2.897   2.775 -0.7775 -0.3710  0.5524
  986MOL0     C33028   2.236   2.987   2.738  0.0850  0.3838  0.2782
  986MOL0     C33029   2.519   3.274   2.515 -1.4557  0.9975  0.6137
  986MOL0     C33030   2.546   3.196   2.398  0.1376 -0.6698  1.5578
  986MOL0     C33031   2.644   3.243   2.298 -0.0577  1.1283 -0.1781
  986MOL0     C33032   2.717   3.358   2.328  0.1603 -1.0116 -0.0083
  986MOL0     O33033   2.802   3.422   2.235  0.0566  1.1878 -0.2997
  986MOL0     C33034   2.832   3.355   2.112 -0.1298 -0.0645  0.6454
  986MOL0     C33035   2.976   3.406   2.068 -0.2578  0.0528  0.5468
  986MOL0     C33036   3.032   3.328   1.950  0.5245  0.9695  0.8478
  986MOL0     C33037   2.952   3.326   1.815 -0.3464 -0.0039  0.9221
  986MOL0     C33038   2.835   3.233   1.824  0.5988  0.1388  0.8576
  986MOL0     C33039   2.753   3.136   1.823  0.0730  0.7407 -0.5612
  986MOL0     C33040   2.677   3.437   2.426  0.6570  0.2731  0.3342
  986MOL0     C33041   2.577   3.398   2.513 -0.0362 -0.4042  0.3299
  986MOL0     C33042   2.539   3.494   2.619 -0.2611  0.4834  0.5092
  986MOL0     H33043   2.130   3.062   2.427  1.2200  0.8385 -0.0932
  986MOL0     H33044   1.951   2.937   2.484 -0.9042 -2.7379  1.1575
  986MOL0     H33045   1.946   2.628   2.828 -1.6375 -1.6737 -0.8604
  986MOL0     H33046   1.954   2.773   2.908  2.8492 -0.0646 -2.3468
  986MOL0     H33047   1.707   2.820   2.810  3.9888  2.9555  2.2347
  986MOL0     H33048   1.725   2.697   2.939  1.8657 -3.6853  0.6464
  986MOL0     H33049   1.796   2.542   2.718  0.3875 -1.5202  2.2771
  986MOL0     H33050   1.655   2.646   2.666 -1.0027 -1.4452 -0.7560
  986MOL0     H33051   1.630   2.511   2.928  1.3599 -0.5625 -0.0961
  986MOL0     H33052   1.512   2.602   2.834  0.5041  1.9258  0.7743
  986MOL0     H33053   1.441   2.382   2.814 -2.1893 -1.9558 -1.8731
  986MOL0     H33054   1.504   2.436   2.663 -3.0297  1.5822  1.2643
  986MOL0     H33055   1.726   2.315   2.709  0.6637  0.1247  1.0956
  986MOL0     H33056   1.663   2.247   2.854 -0.0270 -3.0830 -0.7500
  986MOL0     H33057   1.658   2.078   2.695  3.1124  1.2015  2.1358
  986MOL0     H33058   1.570   2.195   2.577 -2.0728  1.1268  0.5115
  986MOL0     H33059   1.371   2.182   2.732 -0.7653 -0.4668  0.6461
  986MOL0     H33060   1.427   2.030   2.655 -0.5644  0.3713 -0.5935
  986MOL0     H33061   1.328   2.208   2.951 -3.5878 -4.1408 -1.6561
  986MOL0     H33062   1.432   2.110   3.293  0.8509 -1.1187 -0.2678
  986MOL0     H33063   1.561   2.214   3.247 -0.0010 -1.5354  1.1708
  986MOL0     H33064   1.368   2.357   3.141 -0.7366 -0.6955  0.2100
  986MOL0     H33065   1.254   2.243   3.206  1.6576 -0.9394 -3.5329
  986MOL0     H33066   1.271   2.439   3.333 -0.0723  2.6240  0.5321
  986MOL0     H33067   1.447   2.434   3.334 -1.3086  1.3616  0.8282
  986MOL0     H33068   1.314   2.377   3.566  0.8921  1.1986 -0.2769
  986MOL0     H33069   1.427   2.246   3.515 -0.8647 -0.1564 -0.0539
  986MOL0     H33070   1.382   2.097   3.652  0.7931 -0.6954 -1.1348
  986MOL0     H33071   1.378   1.840   3.684  1.2921  0.6626 -0.8235
  986MOL0     H33072   1.268   1.457   3.379  1.4895  0.4971  0.5544
  986MOL0     H33073   1.344   1.210   3.425  2.5749 -0.4031  2.8779
  986MOL0     H33074   1.423   1.163   3.774  0.7293 -2.2922  1.3900
  986MOL0     H33075   1.296   1.058   3.829 -0.6678  1.9604 -0.0067
  986MOL0     H33076   1.542   0.969   3.830  1.6706  0.1846 -0.8868
  986MOL0     H33077   1.430   0.862   3.766 -1.5261 -0.4427 -2.9114
  986MOL0     H33078   1.622   0.874   3.630  1.4446  1.8715  1.2735
  986MOL0     H33079   1.486   0.915   3.525 -2.0669  2.5003  0.5043
  986MOL0     H33080   1.727   1.071   3.643  0.4423  3.1388 -0.3630
  986MOL0     H33081   1.574   1.154   3.609 -1.7212 -2.0204 -2.0025
  986MOL0     H33082   1.574   1.087   3.376  0.1978  3.0641 -0.5058
  986MOL0     H33083   1.731   1.006   3.401 -0.6385 -0.4203 -0.3955
  986MOL0     H33084   1.681   1.311   3.442 -2.1843 -0.8941 -0.4560
  986MOL0     H33085   1.828   1.222   3.450  0.8476  0.7787 -0.3944
  986MOL0     H33086   1.650   1.270   3.216  0.2161  0.7326 -1.6247
  986MOL0     H33087   1.778   1.158   3.190  0.9559 -0.6834  1.1644
  986MOL0     H33088   1.857   1.429   3.332  1.8367 -0.0884  0.1224
  986MOL0     H33089   1.962   1.313   3.267  1.6683  1.9828 -1.9584
  986MOL0     H33090   1.116   1.201   3.773  0.1956  1.8376  1.4002
  986MOL0     H33091   1.023   1.422   3.728  1.8672  0.3773  0.7767
  986MOL0     H33092   1.041   1.829   3.426 -1.1116 -0.3990  0.7012
  986MOL0     H33093   1.067   2.040   3.363 -2.6959 -3.9317  1.9078
  986MOL0     H33094   2.141   2.842   2.867  4.1002 -3.8074 -1.8441
  986MOL0     H33095   2.325   2.998   2.798  1.8412  0.0756 -2.1344
  986MOL0     H33096   2.518   3.091   2.392 -2.3977  0.0190 -1.7410
  986MOL0     H33097   2.651   3.184   2.208 -0.4460 -0.3174  0.7099
  986MOL0     H33098   2.760   3.374   2.032 -1.6605 -0.6105  1.8304
  986MOL0     H33099   2.846   3.248   2.131  1.2127  0.0421  0.3339
  986MOL0     H33100   3.050   3.388   2.146 -1.2010 -0.6931  1.2900
  986MOL0     H33101   2.971   3.512   2.043  0.3573  0.5678  2.4924
  986MOL0     H33102   3.038   3.221   1.972  4.1091  1.1147  1.1525
  986MOL0     H33103   3.136   3.355   1.927 -0.0445  1.7764 -1.0185
  986MOL0     H33104   2.912   3.426   1.799 -0.5347 -0.2800 -0.4405
  986MOL0     H33105   3.007   3.305   1.723 -2.1154  0.0811 -0.2133
  986MOL0     H33106   2.677   3.062   1.813 -0.1069  1.2482 -3.8361
  986MOL0     H33107   2.717   3.537   2.438  3.4029 -0.5525 -1.1438
  986MOL0     H33108   2.431   3.510   2.609 -0.3774 -1.6100 -3.4346
  986MOL0     H33109   2.557   3.444   2.714 -1.2301 -1.9337 -0.5014
  986MOL0     H33110   2.596   3.587   2.629  0.6164 -0.3002  3.6561
  987MOL0     O33111   4.899  10.476   2.016  0.2121 -0.2935  0.2546
  987MOL0     C33112   4.993  10.401   1.994  0.0718 -0.2363  0.0563
  987MOL0     O33113   5.059  10.391   1.871  0.3588 -0.1466 -0.0827
  987MOL0     C33114   5.037  10.480   1.766  1.1057 -0.2330  0.6230
  987MOL0     C33115   5.049  10.616   1.769  0.4374 -0.4019 -0.4309
  987MOL0     C33116   5.029  10.689   1.651 -0.6675 -0.7073 -1.3426
  987MOL0     C33117   4.997  10.619   1.537 -0.6110  0.3197 -0.2614
  987MOL0     O33118   4.975  10.687   1.425  0.6553 -0.2823 -0.4158
  987MOL0     C33119   4.837  10.693   1.379  0.6615 -0.2212 -0.8174
  987MOL0     C33120   4.822  10.752   1.238 -0.2190 -1.0162  0.2524
  987MOL0     C33121   4.923  10.704   1.130 -0.7262  0.7930 -0.6334
  987MOL0     C33122   4.958  10.554   1.141 -0.3675  0.8331 -1.1059
  987MOL0     C33123   5.075  10.514   1.052 -0.4667  0.2637  0.9433
  987MOL0     C33124   5.059  10.540   0.894 -0.4557  0.3492 -0.8530
  987MOL0     C33125   5.177  10.500   0.809 -0.6653 -0.2720  1.1466
  987MOL0     C33126   5.294  10.598   0.826  0.6578  0.2022  0.7483
  987MOL0     N33127   5.393  10.590   0.714  1.2246  0.3439 -0.3496
  987MOL0     C33128   5.378  10.659   0.593 -0.6751  0.7044 -0.0710
  987MOL0     C33129   5.507  10.647   0.541  0.2049  0.2395  1.2124
  987MOL0     C33130   5.563  10.721   0.419  0.0864  0.2116 -0.8180
  987MOL0     C33131   5.546  10.872   0.429 -0.4193  0.5199  0.1806
  987MOL0     C33132   5.632  10.954   0.327 -0.2321 -0.3034  0.6930
  987MOL0     C33133   5.776  10.981   0.384  0.9980  0.2971 -0.5292
  987MOL0     O33134   5.856  11.016   0.268  0.1717  0.4053  0.0340
  987MOL0     C33135   5.977  11.072   0.299 -0.4222  0.0204 -0.8708
  987MOL0     C33136   6.040  11.158   0.203  0.0015  0.3204 -0.4276
  987MOL0     C33137   6.180  11.187   0.216  0.4456  0.2826  0.4783
  987MOL0     C33138   6.260  11.148   0.324 -0.0008 -0.2686 -0.3640
  987MOL0     C33139   6.403  11.211   0.333 -0.8035  0.4296  0.3820
  987MOL0     O33140   6.440  11.286   0.231  0.1729 -0.2461  1.0511
  987MOL0     C33141   6.532  11.384   0.244  0.1630 -0.0120  0.1804
  987MOL0     C33142   6.551  11.470   0.345  0.2299 -0.1899 -0.4902
  987MOL0     C33143   6.650  11.568   0.343 -0.2774 -0.3046 -0.2152
  987MOL0     C33144   6.730  11.590   0.234 -0.3402  0.2011  0.9394
  987MOL0     O33145   6.834  11.680   0.237 -0.5911  0.1831  0.2024
  987MOL0     C33146   6.911  11.699   0.358  0.4240 -0.7258  0.2574
  987MOL0     C33147   7.042  11.627   0.346 -0.3269  0.2164  1.3522
  987MOL0     C33148   7.148  11.666   0.453 -0.1882 -0.7025 -0.3953
  987MOL0     C33149   7.295  11.650   0.406  1.0911  0.6509 -0.3167
  987MOL0     C33150   7.336  11.740   0.289 -0.2259 -0.8071 -0.0728
  987MOL0     C33151   7.486  11.780   0.304 -0.5262 -0.4164  0.0961
  987MOL0     C33152   7.496  11.885   0.416 -0.2854  0.6066 -0.1596
  987MOL0     C33153   7.633  11.959   0.412  0.5134 -0.2266 -0.3043
  987MOL0    Cl33154   7.764  11.838   0.456 -0.2128  0.0188  0.2847
  987MOL0     C33155   6.716  11.506   0.131 -0.4952 -0.6947 -0.0616
  987MOL0     C33156   6.622  11.411   0.133 -0.3499 -0.5005 -0.9407
  987MOL0     O33157   6.462  11.193   0.440 -0.1466 -0.9102  0.2910
  987MOL0     C33158   6.193  11.078   0.425 -0.2413 -0.1724 -0.3119
  987MOL0     C33159   6.057  11.037   0.416  0.4530  0.9125  0.5683
  987MOL0     N33160   5.580  10.573   0.625 -0.4884  0.6052  0.0201
  987MOL0     N33161   5.518  10.531   0.723 -0.3292 -0.7193 -0.4149
  987MOL0     C33162   5.000  10.480   1.531 -0.3295 -1.0158 -0.7791
  987MOL0     C33163   5.014  10.409   1.647  0.5465 -0.0053 -0.4752
  987MOL0     C33164   5.048  10.313   2.107  0.0782 -0.4836 -0.1359
  987MOL0     C33165   5.172  10.245   2.077  0.1322  0.6960  0.0417
  987MOL0     C33166   5.234  10.172   2.173 -0.3280  0.3078 -0.0814
  987MOL0     C33167   5.181  10.140   2.296  0.3928  1.3636 -0.2178
  987MOL0     O33168   5.245  10.037   2.357  0.6782 -0.1816  0.4062
  987MOL0     C33169   5.313  10.093   2.468  0.3050  0.1972 -1.0595
  987MOL0     C33170   5.338   9.954   2.551 -0.5861  0.8111  0.9633
  987MOL0     C33171   5.243   9.920   2.658  0.2790 -0.6101  0.1099
  987MOL0     C33172   5.305   9.812   2.758  0.0118 -0.6315 -1.1890
  987MOL0     C33173   5.436   9.862   2.811  0.2370  0.4799  0.3349
  987MOL0     C33174   5.551   9.885   2.846 -0.3995 -0.2971 -0.7082
  987MOL0     C33175   5.058  10.195   2.328 -0.4568 -0.2586  1.2360
  987MOL0     C33176   4.994  10.290   2.237  1.5028 -0.1390  0.3073
  987MOL0     C33177   4.865  10.354   2.273  0.9872  0.4416 -0.0001
  987MOL0     H33178   5.073  10.661   1.865  1.3741 -2.7439  0.5091
  987MOL0     H33179   5.026  10.797   1.651 -3.4874 -0.7186 -2.7888
  987MOL0     H33180   4.784  10.597   1.382  0.8226 -0.5588 -4.7251
  987MOL0     H33181   4.780  10.769   1.434  0.6945 -0.8671  0.1500
  987MOL0     H33182   4.838  10.860   1.245  0.2623 -1.1812  5.4062
  987MOL0     H33183   4.721  10.739   1.198  0.5241  1.0476 -2.6009
  987MOL0     H33184   5.021  10.753   1.129  2.1843 -4.2948 -1.9057
  987MOL0     H33185   4.880  10.714   1.030 -0.2448  1.7420 -0.7582
  987MOL0     H33186   4.989  10.535   1.244 -1.0626  2.3411 -0.5805
  987MOL0     H33187   4.865  10.503   1.117 -0.8069  0.2008  1.6761
  987MOL0     H33188   5.153  10.583   1.086 -0.6184 -0.3609  2.6361
  987MOL0     H33189   5.108  10.411   1.067 -0.1447 -0.3091 -2.6150
  987MOL0     H33190   4.966  10.488   0.869 -1.2093  1.4398 -0.4170
  987MOL0     H33191   5.045  10.645   0.865 -0.5277  0.4821 -0.3604
  987MOL0     H33192   5.147  10.496   0.704 -1.1207  1.4171  1.1809
  987MOL0     H33193   5.226  10.408   0.843  1.7561  1.2235  1.9494
  987MOL0     H33194   5.249  10.697   0.821  0.0659 -0.0423  1.0843
  987MOL0     H33195   5.335  10.587   0.927  0.9848 -3.8002  0.3316
  987MOL0     H33196   5.293  10.723   0.569 -3.2436 -3.1215 -2.0892
  987MOL0     H33197   5.667  10.687   0.413  0.1523 -0.7880  3.0811
  987MOL0     H33198   5.500  10.680   0.340 -4.8526  0.1270  2.6785
  987MOL0     H33199   5.442  10.903   0.418 -0.2854  1.0355  0.3420
  987MOL0     H33200   5.566  10.905   0.532  2.3087  0.6077 -0.3066
  987MOL0     H33201   5.589  11.053   0.309  4.0838  1.6727 -0.1243
  987MOL0     H33202   5.648  10.902   0.232  1.6836  0.6964  0.4259
  987MOL0     H33203   5.797  10.890   0.441  4.4505  0.2429 -1.6380
  987MOL0     H33204   5.771  11.058   0.461  1.6961 -2.7793  2.8658
  987MOL0     H33205   5.973  11.193   0.125  1.0977  1.3822 -0.9149
  987MOL0     H33206   6.229  11.246   0.139 -0.8622  0.1386 -0.5023
  987MOL0     H33207   6.490  11.463   0.435  1.3788  1.5797  0.4939
  987MOL0     H33208   6.652  11.634   0.430 -3.2356 -2.9314  2.0851
  987MOL0     H33209   6.928  11.806   0.376  0.6590 -0.4000 -1.6384
  987MOL0     H33210   6.866  11.663   0.451  0.3306  1.5004  1.1354
  987MOL0     H33211   7.030  11.519   0.354  3.3013 -0.2883  1.4022
  987MOL0     H33212   7.083  11.644   0.246 -0.5667  2.7540  1.6229
  987MOL0     H33213   7.138  11.774   0.472  0.5436 -0.5509 -0.8459
  987MOL0     H33214   7.140  11.608   0.546 -1.9973 -3.2608 -2.0310
  987MOL0     H33215   7.312  11.543   0.389  1.4942  0.1010  2.9997
  987MOL0     H33216   7.345  11.672   0.500 -1.3326 -1.5726  1.6398
  987MOL0     H33217   7.270  11.826   0.271  0.7593  0.4226  1.8166
  987MOL0     H33218   7.332  11.683   0.196 -0.3516  0.8869 -1.1613
  987MOL0     H33219   7.543  11.687   0.298 -0.7807 -0.5083 -3.2246
  987MOL0     H33220   7.517  11.831   0.212  0.6757 -3.2310 -1.1922
  987MOL0     H33221   7.487  11.843   0.517  0.1368  2.6209  0.7595
  987MOL0     H33222   7.413  11.955   0.413 -1.4340 -0.4965  2.4581
  987MOL0     H33223   7.648  12.005   0.314  1.8226  3.0016  1.2610
  987MOL0     H33224   7.626  12.037   0.488 -4.5593 -3.3843  3.0900
  987MOL0     H33225   6.787  11.508   0.049  0.0396 -1.3392  0.3728
  987MOL0     H33226   6.603  11.345   0.048 -1.2278 -0.7296 -0.5695
  987MOL0     H33227   6.230  11.067   0.526  0.4673 -0.6604 -0.6191
  987MOL0     H33228   6.018  10.975   0.496 -0.4262 -0.0005 -0.5416
  987MOL0     H33229   4.992  10.423   1.438 -2.5298 -0.6236 -0.8904
  987MOL0     H33230   5.019  10.302   1.664 -0.3442  0.0290  0.0746
  987MOL0     H33231   5.217  10.245   1.978 -1.9742 -0.2660 -0.9846
  987MOL0     H33232   5.327  10.133   2.134 -0.5674  2.8609 -3.7293
  987MOL0     H33233   5.259  10.178   2.512  0.6046  0.0344 -0.3679
  987MOL0     H33234   5.412  10.128   2.437  1.6421 -1.5845  0.9347
  987MOL0     H33235   5.438   9.963   2.594 -0.0813 -2.2813  0.6877
  987MOL0     H33236   5.344   9.883   2.468  2.0045  1.8798  0.1323
  987MOL0     H33237   5.149   9.874   2.625  0.7693 -1.3643 -0.2752
  987MOL0     H33238   5.240  10.007   2.724  0.2916  1.0160 -1.9567
  987MOL0     H33239   5.219   9.818   2.824  0.4531  2.1337 -0.7582
  987MOL0     H33240   5.315   9.709   2.722  0.5405 -0.8936 -0.3208
  987MOL0     H33241   5.657   9.900   2.860 -0.5150  0.4525 -0.6100
  987MOL0     H33242   4.994  10.167   2.411 -2.8014  0.1883 -0.3087
  987MOL0     H33243   4.792  10.316   2.201 -0.4403 -2.9821  2.9664
  987MOL0     H33244   4.836  10.335   2.377  1.2373  1.7571  0.3337
  987MOL0     H33245   4.867  10.462   2.254 -0.3022  0.2531 -1.3800
  988MOL0     O33246   1.632   0.563   2.257 -0.0384 -0.4924  0.5306
  988MOL0     C33247   1.670   0.668   2.299  1.3192 -1.1493  0.5919
  988MOL0     O33248   1.666   0.788   2.242  0.4885 -0.5287 -0.2247
  988MOL0     C33249   1.656   0.821   2.111  0.8151  0.2596  0.7923
  988MOL0     C33250   1.688   0.724   2.011  0.1667  0.1326  0.7317
  988MOL0     C33251   1.694   0.755   1.880 -0.1999  0.7534  0.5631
  988MOL0     C33252   1.643   0.881   1.830 -0.3827  0.3220 -0.6278
  988MOL0     O33253   1.669   0.920   1.705  0.2294  0.5464  1.1269
  988MOL0     C33254   1.581   0.881   1.600  0.3351  0.1269  0.5245
  988MOL0     C33255   1.563   0.732   1.564 -0.2319  0.3574  0.0791
  988MOL0     C33256   1.537   0.723   1.421  0.4012  0.6534  0.6157
  988MOL0     C33257   1.532   0.568   1.382  0.4033 -0.2971  0.9737
  988MOL0     C33258   1.459   0.553   1.245 -0.3582  1.0172  0.4879
  988MOL0     C33259   1.409   0.418   1.214 -0.4650 -0.0482  0.2635
  988MOL0     C33260   1.521   0.303   1.213  0.0478  0.6346 -0.0320
  988MOL0     C33261   1.590   0.293   1.073 -0.3377  0.3822 -0.5764
  988MOL0     N33262   1.485   0.257   0.963  0.7300 -0.5079  0.1705
  988MOL0     C33263   1.451   0.121   0.932  0.0094 -0.2412 -0.2431
  988MOL0     C33264   1.352   0.136   0.840 -0.5934 -0.6782 -0.0277
  988MOL0     C33265   1.260   0.037   0.781 -0.5905 -0.2700  0.0535
  988MOL0     C33266   1.262   0.031   0.623  0.1393  0.1464  0.7188
  988MOL0     C33267   1.386  -0.025   0.562 -0.7786 -0.6827 -0.9267
  988MOL0     C33268   1.384  -0.060   0.416 -0.1608 -0.6297  0.6682
  988MOL0     O33269   1.500  -0.139   0.380 -0.9479  0.0497 -0.3055
  988MOL0     C33270   1.513  -0.194   0.259  0.1326  0.0681  0.4895
  988MOL0     C33271   1.594  -0.308   0.235  0.6467 -0.1078 -0.5016
  988MOL0     C33272   1.607  -0.352   0.100  0.0490 -0.2589  0.4350
  988MOL0     C33273   1.527  -0.297   0.000  0.3467  0.1842 -0.4984
  988MOL0     C33274   1.518  -0.364  -0.133  0.6170  1.1018 -0.2960
  988MOL0     O33275   1.610  -0.461  -0.149  0.0747  0.2275 -0.2314
  988MOL0     C33276   1.624  -0.531  -0.267 -0.4927 -0.2305 -0.0689
  988MOL0     C33277   1.530  -0.622  -0.318  0.4985 -0.0962  0.0774
  988MOL0     C33278   1.543  -0.661  -0.455 -0.0187 -0.0790 -0.5823
  988MOL0     C33279   1.660  -0.645  -0.529 -0.0164  0.7176  0.0167
  988MOL0     O33280   1.668  -0.720  -0.646 -0.5356 -0.5332 -0.0809
  988MOL0     C33281   1.740  -0.659  -0.755 -0.4489  0.4259  0.4251
  988MOL0     C33282   1.667  -0.680  -0.886  0.9139  0.5882  0.4382
  988MOL0     C33283   1.772  -0.643  -1.001 -0.6909  0.2491  0.5277
  988MOL0     C33284   1.728  -0.695  -1.137 -0.4206 -0.0529  1.4286
  988MOL0     C33285   1.856  -0.710  -1.226  0.0687 -0.7540 -0.4622
  988MOL0     C33286   1.828  -0.774  -1.357 -0.1730  0.4752  0.1517
  988MOL0     C33287   1.957  -0.781  -1.448  0.0654  0.7351 -0.4988
  988MOL0     C33288   1.939  -0.878  -1.561  0.8341 -1.5263 -0.3496
  988MOL0    Cl33289   2.071  -0.846  -1.686  0.2092 -0.3339  0.1512
  988MOL0     C33290   1.755  -0.555  -0.474  0.5954 -0.4497  0.4847
  988MOL0     C33291   1.736  -0.499  -0.346  0.0063  0.6282 -0.4116
  988MOL0     O33292   1.448  -0.312  -0.220 -0.2432  0.1493  0.4431
  988MOL0     C33293   1.455  -0.181   0.016  0.7444 -1.0345 -0.3727
  988MOL0     C33294   1.447  -0.135   0.149 -0.3045  0.1126  0.0500
  988MOL0     N33295   1.332   0.269   0.810  0.6300  0.2434  0.0500
  988MOL0     N33296   1.411   0.339   0.883 -0.3155 -0.1227 -0.8021
  988MOL0     C33297   1.599   0.977   1.924  0.7975  0.2791  1.1657
  988MOL0     C33298   1.604   0.941   2.067 -0.7637 -0.9816  1.2011
  988MOL0     C33299   1.707   0.680   2.440  0.9233 -0.3154 -0.2812
  988MOL0     C33300   1.823   0.749   2.455 -1.7481  0.2340 -0.4305
  988MOL0     C33301   1.878   0.761   2.590  0.8705  0.2881 -0.0369
  988MOL0     C33302   1.824   0.695   2.699  1.4195 -0.7861 -0.5349
  988MOL0     O33303   1.887   0.709   2.823  0.8632  0.2819 -0.7814
  988MOL0     C33304   1.844   0.632   2.936  0.6933  0.1760  0.4265
  988MOL0     C33305   1.929   0.659   3.058 -0.3254 -0.1726 -0.5586
  988MOL0     C33306   1.866   0.600   3.183 -0.0004 -0.1669 -1.2059
  988MOL0     C33307   1.728   0.664   3.222  0.6776  0.7159 -0.1748
  988MOL0     C33308   1.677   0.620   3.359 -0.0536 -0.3058  0.5377
  988MOL0     C33309   1.662   0.583   3.465 -0.5091  0.2564  0.0151
  988MOL0     C33310   1.706   0.626   2.675  0.1085  0.1609  1.2169
  988MOL0     C33311   1.647   0.622   2.553  0.8034 -0.2937  0.4252
  988MOL0     C33312   1.514   0.541   2.534 -0.6390 -0.8285  0.1637
  988MOL0     H33313   1.719   0.626   2.047 -0.7270  1.0890  4.6165
  988MOL0     H33314   1.748   0.697   1.806  0.8107  1.2779  0.8647
  988MOL0     H33315   1.482   0.914   1.632 -1.1290  0.2366 -3.5481
  988MOL0     H33316   1.604   0.932   1.506  1.2648 -3.1422 -1.1880
  988MOL0     H33317   1.477   0.689   1.617  0.1960  1.7935  2.0472
  988MOL0     H33318   1.656   0.677   1.580  0.0023  0.0205 -2.1371
  988MOL0     H33319   1.604   0.782   1.358  1.9500 -1.0474  0.5961
  988MOL0     H33320   1.437   0.766   1.408  0.9842  1.8457 -0.1230
  988MOL0     H33321   1.629   0.518   1.372  1.4111  1.7694 -0.2747
  988MOL0     H33322   1.478   0.517   1.462 -0.8743  0.8307  0.8762
  988MOL0     H33323   1.369   0.615   1.252 -0.6403  0.6581  0.1039
  988MOL0     H33324   1.535   0.575   1.169  1.0268 -2.7573  0.5637
  988MOL0     H33325   1.347   0.392   1.301 -4.3137 -1.1984 -2.5694
  988MOL0     H33326   1.345   0.413   1.125 -0.2405 -0.0592  0.1022
  988MOL0     H33327   1.459   0.217   1.241 -0.5306  0.1663 -2.5637
  988MOL0     H33328   1.592   0.311   1.296  1.2280 -1.1869 -0.8131
  988MOL0     H33329   1.618   0.396   1.051 -0.3775  0.2480 -1.2807
  988MOL0     H33330   1.672   0.220   1.069 -0.2450  0.4005  0.5285
  988MOL0     H33331   1.487   0.028   0.974  0.8294  0.5176  0.8014
  988MOL0     H33332   1.286  -0.056   0.830  2.2941 -0.4117 -1.5192
  988MOL0     H33333   1.165   0.071   0.824  1.4082  3.3512  2.1775
  988MOL0     H33334   1.177  -0.032   0.594  0.2173 -0.4622  1.7335
  988MOL0     H33335   1.244   0.135   0.593  0.7343 -0.0084 -0.2005
  988MOL0     H33336   1.407  -0.123   0.605  0.9952 -0.2999 -0.8500
  988MOL0     H33337   1.473   0.036   0.591 -2.6630  0.3379  3.3360
  988MOL0     H33338   1.400   0.034   0.362 -1.6986 -1.4736 -1.3974
  988MOL0     H33339   1.291  -0.104   0.378 -0.4521  1.4207 -1.3056
  988MOL0     H33340   1.626  -0.359   0.325 -5.2208  1.2129  2.8427
  988MOL0     H33341   1.664  -0.443   0.090  0.7846 -0.2139  3.1851
  988MOL0     H33342   1.442  -0.652  -0.261 -1.4369 -0.4818 -2.8696
  988MOL0     H33343   1.460  -0.725  -0.482 -0.0710  0.8433 -2.7425
  988MOL0     H33344   1.753  -0.552  -0.736  0.3111  0.4140 -0.0039
  988MOL0     H33345   1.835  -0.711  -0.770  1.2449  3.6882 -1.3864
  988MOL0     H33346   1.634  -0.783  -0.904  1.4484  0.7869 -2.0163
  988MOL0     H33347   1.579  -0.615  -0.885 -0.5053 -1.2296 -0.5915
  988MOL0     H33348   1.798  -0.537  -1.010 -0.5555  0.0918 -1.3769
  988MOL0     H33349   1.867  -0.693  -0.980  2.3018  4.1267 -2.2655
  988MOL0     H33350   1.656  -0.632  -1.188 -1.9382 -1.3396  1.9023
  988MOL0     H33351   1.670  -0.788  -1.139  0.5685 -0.7458 -1.8480
  988MOL0     H33352   1.926  -0.768  -1.165 -2.1844 -0.3252  2.7843
  988MOL0     H33353   1.900  -0.612  -1.245  0.5664 -0.2455  2.7889
  988MOL0     H33354   1.794  -0.876  -1.333  1.3953 -0.2536 -0.5595
  988MOL0     H33355   1.741  -0.724  -1.400  0.0542  2.8282  2.2145
  988MOL0     H33356   2.043  -0.811  -1.388 -0.6965 -0.1490  0.1745
  988MOL0     H33357   1.983  -0.680  -1.480  3.3674  1.6440  3.9966
  988MOL0     H33358   1.944  -0.976  -1.513 -0.1405 -0.1006  2.9096
  988MOL0     H33359   1.838  -0.867  -1.602  0.5948  1.5521  0.7782
  988MOL0     H33360   1.853  -0.537  -0.517  1.2488 -2.8125  0.8400
  988MOL0     H33361   1.810  -0.427  -0.312 -0.7484  2.7437 -2.8842
  988MOL0     H33362   1.413  -0.135  -0.073  2.3170 -1.5529 -1.4373
  988MOL0     H33363   1.385  -0.047   0.147  1.1896  1.2048 -0.0412
  988MOL0     H33364   1.574   1.073   1.880 -2.9338 -1.1196 -0.1574
  988MOL0     H33365   1.586   1.005   2.153  4.5548 -0.3292  2.1571
  988MOL0     H33366   1.884   0.805   2.385  1.1885  2.4289  3.5227
  988MOL0     H33367   1.969   0.815   2.614  0.0332  2.3456 -1.1583
  988MOL0     H33368   1.833   0.527   2.910 -1.2532  0.5945 -0.7000
  988MOL0     H33369   1.738   0.647   2.962  0.3716 -1.6540  0.3168
  988MOL0     H33370   1.959   0.763   3.071  0.4887 -0.7123  2.6281
  988MOL0     H33371   2.021   0.599   3.050 -0.8557 -1.0431 -0.3028
  988MOL0     H33372   1.937   0.631   3.261  0.1745  0.5880 -1.6590
  988MOL0     H33373   1.839   0.494   3.192 -2.7131  0.5866  1.1451
  988MOL0     H33374   1.733   0.773   3.220 -1.6670  0.8912  0.6226
  988MOL0     H33375   1.661   0.641   3.138  1.7269 -2.4927 -0.2747
  988MOL0     H33376   1.640   0.537   3.559 -0.6732  1.5911  0.6585
  988MOL0     H33377   1.676   0.563   2.759 -1.1153 -1.6629 -0.4901
  988MOL0     H33378   1.459   0.544   2.629 -1.4211  3.0956 -0.2576
  988MOL0     H33379   1.446   0.574   2.456 -0.5742 -1.5950 -0.2255
  988MOL0     H33380   1.532   0.436   2.508 -6.3682 -1.7947 -1.1242
  989MOL0     O33381   8.864   1.276   0.455 -0.1464  0.6738 -0.0275
  989MOL0     C33382   8.893   1.290   0.331 -0.3634  0.0161 -0.6534
  989MOL0     O33383   8.910   1.407   0.265 -0.7190 -0.5555  0.0614
  989MOL0     C33384   8.952   1.525   0.326 -0.2935  0.1920 -0.1883
  989MOL0     C33385   9.001   1.534   0.457  0.9568  0.9072 -0.6801
  989MOL0     C33386   9.058   1.649   0.504 -0.3661  0.1908 -0.0003
  989MOL0     C33387   9.068   1.761   0.417  0.6579  0.0056 -0.4778
  989MOL0     O33388   9.120   1.876   0.459 -0.7162 -0.2249  0.4960
  989MOL0     C33389   9.044   1.964   0.537  0.2229 -0.0706 -0.5187
  989MOL0     C33390   8.991   2.071   0.443  0.9343 -0.2328  0.6632
  989MOL0     C33391   9.099   2.164   0.389 -0.2341  0.3809  0.2605
  989MOL0     C33392   9.020   2.261   0.290 -0.1938 -0.2899 -0.1643
  989MOL0     C33393   8.953   2.376   0.367 -0.6198  0.1628  0.2301
  989MOL0     C33394   9.051   2.484   0.414 -1.1593 -0.5060  1.1215
  989MOL0     C33395   8.983   2.576   0.520  0.0216 -0.4151  0.0269
  989MOL0     C33396   9.080   2.693   0.573  0.5094 -1.1203  0.2261
  989MOL0     N33397   9.013   2.799   0.648 -0.3270  0.0688 -0.5179
  989MOL0     C33398   9.071   2.921   0.678 -0.4823 -0.4585 -0.5062
  989MOL0     C33399   8.990   2.976   0.772 -0.5250 -0.4220 -0.4500
  989MOL0     C33400   9.016   3.110   0.843 -0.1547 -0.0531 -0.6965
  989MOL0     C33401   9.062   3.215   0.747  0.5625  0.1682  1.5349
  989MOL0     C33402   9.093   3.337   0.821 -0.1150 -0.9686  0.0369
  989MOL0     C33403   9.195   3.432   0.750  0.0646 -0.7627 -0.7124
  989MOL0     O33404   9.251   3.499   0.860  0.0929  0.3923 -0.4445
  989MOL0     C33405   9.213   3.621   0.904  1.5010  0.0610 -0.3063
  989MOL0     C33406   9.290   3.678   1.008  0.0848 -0.1339  0.2129
  989MOL0     C33407   9.250   3.798   1.065  0.7049 -0.1127 -0.2521
  989MOL0     C33408   9.149   3.875   1.014  0.4677 -0.2511 -0.2505
  989MOL0     C33409   9.103   3.998   1.081  0.2917  0.3730  0.0014
  989MOL0     O33410   9.007   4.078   1.022  0.7269  0.0113  0.5342
  989MOL0     C33411   8.957   4.185   1.091  0.3729 -1.5691 -0.4652
  989MOL0     C33412   8.978   4.312   1.040  0.2758 -0.1280  0.1871
  989MOL0     C33413   8.946   4.423   1.110  0.8209 -1.0698 -0.1794
  989MOL0     C33414   8.879   4.421   1.236  0.1022  0.6612  1.5302
  989MOL0     O33415   8.862   4.538   1.294 -0.1330  0.1053 -0.0415
  989MOL0     C33416   8.902   4.552   1.430 -0.6176  1.0637 -0.0943
  989MOL0     C33417   8.808   4.623   1.530 -0.5439 -0.6127 -0.5801
  989MOL0     C33418   8.707   4.531   1.599  0.1924 -0.1335 -0.6236
  989MOL0     C33419   8.565   4.589   1.615 -0.1854 -0.0357 -0.0270
  989MOL0     C33420   8.457   4.473   1.628 -0.2848 -0.6304 -0.1556
  989MOL0     C33421   8.326   4.541   1.659  0.1527  0.0231 -0.0968
  989MOL0     C33422   8.303   4.597   1.798  0.9615  0.4566 -0.5171
  989MOL0     C33423   8.349   4.503   1.907 -0.1213 -0.1656  0.3890
  989MOL0    Cl33424   8.522   4.512   1.935  0.1927  0.2851 -0.3511
  989MOL0     C33425   8.836   4.286   1.286 -0.7959  0.1389  0.9799
  989MOL0     C33426   8.877   4.171   1.212 -0.6427  0.5227  0.7023
  989MOL0     O33427   9.149   4.020   1.190 -0.1544 -0.5012 -0.5263
  989MOL0     C33428   9.095   3.839   0.895  0.3767  0.2734  0.4212
  989MOL0     C33429   9.120   3.709   0.845  0.1343 -0.2087 -0.1388
  989MOL0     N33430   8.889   2.895   0.798 -0.0884 -0.0879  0.8697
  989MOL0     N33431   8.908   2.782   0.737  0.3216  0.0851  0.2416
  989MOL0     C33432   9.008   1.757   0.301 -0.3503 -0.9163  0.5725
  989MOL0     C33433   8.964   1.639   0.242  0.0062  0.2402 -0.2030
  989MOL0     C33434   8.907   1.159   0.260 -0.0722 -1.1044 -0.5402
  989MOL0     C33435   8.855   1.052   0.331  0.4366  0.1681 -0.8785
  989MOL0     C33436   8.846   0.924   0.279  0.4040 -0.9655 -0.2730
  989MOL0     C33437   8.883   0.901   0.146  0.1522  0.0155 -0.3640
  989MOL0     O33438   8.868   0.788   0.071  1.1530  0.9931 -0.1500
  989MOL0     C33439   8.815   0.661   0.127  0.2352 -0.4314  0.3809
  989MOL0     C33440   8.774   0.582  -0.001 -1.0868 -0.3502  0.0732
  989MOL0     C33441   8.914   0.526  -0.062  0.1840 -0.2562 -0.0476
  989MOL0     C33442   8.995   0.417   0.020 -0.9857  0.2052 -0.0804
  989MOL0     C33443   9.130   0.406  -0.026 -0.3830 -1.1122  0.3426
  989MOL0     C33444   9.248   0.391  -0.058 -0.3606 -0.6487 -0.7883
  989MOL0     C33445   8.936   1.016   0.085  0.1451 -0.8055  0.0032
  989MOL0     C33446   8.947   1.148   0.130  0.3390 -0.0129  0.3052
  989MOL0     C33447   8.986   1.260   0.030 -0.4154  0.9619 -0.5835
  989MOL0     H33448   9.008   1.449   0.524  5.9356  0.9687 -0.7486
  989MOL0     H33449   9.104   1.663   0.601 -3.5684  3.3209  1.2947
  989MOL0     H33450   8.959   1.901   0.565 -0.9823  1.9410  0.6097
  989MOL0     H33451   9.101   2.002   0.622  1.2136  1.8784 -1.9820
  989MOL0     H33452   8.910   2.119   0.499 -1.1272  0.6473 -2.8396
  989MOL0     H33453   8.928   2.024   0.368  1.6195 -0.2968  0.1238
  989MOL0     H33454   9.174   2.101   0.340 -1.5731 -1.4638  0.5085
  989MOL0     H33455   9.152   2.220   0.467  1.9671  0.1410 -0.9615
  989MOL0     H33456   9.098   2.286   0.218 -0.0807 -0.1761 -0.0042
  989MOL0     H33457   8.949   2.205   0.230  0.1457  3.5292 -4.6816
  989MOL0     H33458   8.873   2.426   0.311 -1.2959 -1.6716 -0.5219
  989MOL0     H33459   8.894   2.331   0.448  0.0785  0.9819  1.2092
  989MOL0     H33460   9.138   2.444   0.467  1.7132  0.9420 -2.1187
  989MOL0     H33461   9.089   2.538   0.327  0.4674  3.0432  3.8053
  989MOL0     H33462   8.972   2.504   0.602  0.0576 -0.8556 -0.3575
  989MOL0     H33463   8.882   2.607   0.491 -0.5653 -0.8668  1.4672
  989MOL0     H33464   9.155   2.650   0.640  0.0511 -2.0938  0.1166
  989MOL0     H33465   9.139   2.735   0.490  0.8348 -1.0704  0.4797
  989MOL0     H33466   9.160   2.963   0.633  0.7543 -0.8525  1.4156
  989MOL0     H33467   8.914   3.135   0.874 -1.2159 -2.2106 -2.1531
  989MOL0     H33468   9.089   3.101   0.924 -1.0131 -0.7399  0.0241
  989MOL0     H33469   9.157   3.186   0.701 -0.1768  0.4937 -0.2959
  989MOL0     H33470   8.986   3.238   0.671 -1.5037 -0.8648  3.1803
  989MOL0     H33471   9.137   3.302   0.914 -0.2808 -4.1224 -0.9623
  989MOL0     H33472   8.993   3.379   0.838  1.0918  2.4539 -0.4799
  989MOL0     H33473   9.144   3.491   0.673 -0.2541 -0.7628 -0.5022
  989MOL0     H33474   9.268   3.369   0.698  0.7709  1.2671 -2.3260
  989MOL0     H33475   9.383   3.632   1.041  2.4896  4.7642  1.2624
  989MOL0     H33476   9.306   3.837   1.149 -1.5884  2.2200  0.3192
  989MOL0     H33477   9.042   4.326   0.953  0.6993 -1.5036  0.2521
  989MOL0     H33478   8.968   4.523   1.075 -1.8605 -1.1831 -2.5414
  989MOL0     H33479   8.910   4.450   1.470  1.6436  0.8053 -1.0418
  989MOL0     H33480   8.999   4.600   1.446 -1.0733  1.2109  2.8055
  989MOL0     H33481   8.866   4.669   1.610  2.0564  0.6724 -3.0236
  989MOL0     H33482   8.753   4.701   1.475  0.1466 -1.0083 -1.8601
  989MOL0     H33483   8.680   4.449   1.532 -2.6538  0.3577 -0.1977
  989MOL0     H33484   8.745   4.508   1.699  0.8683  0.9897 -0.6050
  989MOL0     H33485   8.540   4.642   1.523 -0.0568 -0.9494 -0.5900
  989MOL0     H33486   8.548   4.668   1.690  2.6775 -0.2739  1.0233
  989MOL0     H33487   8.490   4.413   1.713 -0.4119  2.6791  2.4061
  989MOL0     H33488   8.452   4.416   1.534  0.2605 -1.7254  0.4545
  989MOL0     H33489   8.313   4.627   1.592  0.6778  1.1724  1.2448
  989MOL0     H33490   8.246   4.468   1.647 -0.1940  0.1559  1.2910
  989MOL0     H33491   8.197   4.612   1.817  1.8829  2.7552  4.1126
  989MOL0     H33492   8.356   4.691   1.816  2.3119 -0.0751 -1.4863
  989MOL0     H33493   8.298   4.543   1.995 -2.3033 -0.8916 -0.4739
  989MOL0     H33494   8.331   4.396   1.890 -0.4579  0.2458 -2.3181
  989MOL0     H33495   8.770   4.277   1.371 -0.1192 -3.6083  1.2671
  989MOL0     H33496   8.868   4.072   1.257  2.0808  0.7518  1.9549
  989MOL0     H33497   9.012   3.894   0.853  0.3412 -0.6177 -0.6979
  989MOL0     H33498   9.063   3.679   0.758  2.9340  0.1817 -2.2468
  989MOL0     H33499   9.005   1.845   0.237  3.0085 -0.2414  1.1531
  989MOL0     H33500   8.931   1.627   0.140 -1.9497 -3.3842  0.6842
  989MOL0     H33501   8.844   1.069   0.438  0.2752  1.3715 -1.0723
  989MOL0     H33502   8.805   0.847   0.343  0.0188  0.1761  0.8824
  989MOL0     H33503   8.734   0.696   0.191  1.3496  2.7008  0.2274
  989MOL0     H33504   8.880   0.608   0.197  1.0782 -1.0393 -0.8235
  989MOL0     H33505   8.719   0.641  -0.075  2.0775  1.5468 -0.9753
  989MOL0     H33506   8.708   0.499   0.027 -1.8347  1.2253  3.4815
  989MOL0     H33507   8.979   0.614  -0.068 -0.1165  0.0463  0.9947
  989MOL0     H33508   8.895   0.497  -0.166 -0.8174 -0.2137  0.1137
  989MOL0     H33509   9.000   0.436   0.127 -2.1322 -2.4493  0.5126
  989MOL0     H33510   8.954   0.321  -0.013 -0.6064  0.5385 -1.6227
  989MOL0     H33511   9.352   0.389  -0.084 -0.8044  1.2539 -3.1026
  989MOL0     H33512   8.961   1.004  -0.020  1.3392  1.6840 -0.0820
  989MOL0     H33513   8.904   1.331   0.023 -3.8830 -2.7357 -1.3574
  989MOL0     H33514   9.077   1.305   0.070  0.5249 -2.2774  1.2924
  989MOL0     H33515   9.015   1.220  -0.068  1.2371  1.8390 -0.4839
  990MOL0     O33516   8.537   2.299   0.797  1.0510  0.8805 -0.1822
  990MOL0     C33517   8.627   2.327   0.720 -0.1361  0.3453  0.0687
  990MOL0     O33518   8.760   2.301   0.738 -0.1648  0.2177  0.1704
  990MOL0     C33519   8.796   2.249   0.852  0.7131 -0.5654 -0.1171
  990MOL0     C33520   8.810   2.342   0.960 -0.9353 -0.0475 -0.3405
  990MOL0     C33521   8.844   2.302   1.085 -0.1796 -0.5303  0.4391
  990MOL0     C33522   8.887   2.164   1.110  0.6824 -0.7789 -0.2259
  990MOL0     O33523   8.908   2.123   1.243 -0.0261  0.0726 -1.0853
  990MOL0     C33524   9.042   2.066   1.246  0.2314  0.0630 -0.0209
  990MOL0     C33525   9.098   2.044   1.384 -0.4092  0.2483 -0.3240
  990MOL0     C33526   9.254   2.038   1.379  0.3204 -0.3017  0.4930
  990MOL0     C33527   9.278   2.041   1.530 -0.0089 -0.1568  0.0537
  990MOL0     C33528   9.430   2.027   1.549  0.2514  0.5452  0.1184
  990MOL0     C33529   9.518   2.142   1.499 -0.2208 -0.1740  0.7784
  990MOL0     C33530   9.661   2.132   1.533 -0.6441  0.5018 -0.6903
  990MOL0     C33531   9.749   2.183   1.425  0.1749 -1.2151 -0.0940
  990MOL0     N33532   9.884   2.211   1.480  0.4043  0.3128 -0.0845
  990MOL0     C33533   9.954   2.161   1.591 -0.2161 -0.4296 -0.0869
  990MOL0     C33534  10.065   2.236   1.595  0.5183 -0.3186  0.1545
  990MOL0     C33535  10.180   2.212   1.681 -0.6274 -0.5556 -0.6640
  990MOL0     C33536  10.183   2.094   1.780 -0.3987 -0.7774 -0.1483
  990MOL0     C33537  10.079   2.101   1.899 -0.0092  0.2112  0.2739
  990MOL0     C33538  10.052   1.966   1.976 -0.1108  0.1524  0.5215
  990MOL0     O33539   9.937   1.966   2.066 -0.2745 -0.2142  0.3202
  990MOL0     C33540   9.812   1.929   2.011 -0.1861  0.7999  0.3226
  990MOL0     C33541   9.785   1.875   1.885  0.4132 -0.0429 -0.3707
  990MOL0     C33542   9.661   1.823   1.850  0.4028 -1.5237 -0.9558
  990MOL0     C33543   9.553   1.843   1.943 -0.0568  0.4283  0.4061
  990MOL0     C33544   9.418   1.812   1.904 -0.1033 -0.5449 -0.0641
  990MOL0     O33545   9.322   1.814   2.000 -0.3467 -0.2092 -0.0415
  990MOL0     C33546   9.185   1.806   1.947 -0.0966  0.1265 -0.5354
  990MOL0     C33547   9.109   1.701   2.016  0.5223 -0.3789  0.2076
  990MOL0     C33548   8.980   1.664   1.960  0.5492  0.4531 -0.2682
  990MOL0     C33549   8.931   1.721   1.849 -0.9606 -0.4537  0.6064
  990MOL0     O33550   8.819   1.673   1.804  0.9331  0.7904  0.0006
  990MOL0     C33551   8.746   1.744   1.707 -0.0852  0.0148 -0.8641
  990MOL0     C33552   8.607   1.694   1.677 -0.1875  0.5866 -0.6159
  990MOL0     C33553   8.518   1.728   1.791  0.3051 -0.0196 -0.3115
  990MOL0     C33554   8.461   1.870   1.804  1.2785 -0.1831  0.2091
  990MOL0     C33555   8.342   1.888   1.705 -0.0838 -0.2974 -0.5351
  990MOL0     C33556   8.256   2.006   1.743 -0.2041  0.2597 -0.2853
  990MOL0     C33557   8.110   1.963   1.713  0.6767 -1.8504  0.0208
  990MOL0     C33558   8.030   2.086   1.752  0.3234  0.2930 -0.1126
  990MOL0    Cl33559   8.022   2.219   1.631  0.2780 -0.6875  0.1415
  990MOL0     C33560   9.006   1.830   1.795 -0.4366  0.1800 -0.3388
  990MOL0     C33561   9.129   1.873   1.850  0.3083 -0.0809 -0.1843
  990MOL0     O33562   9.401   1.799   1.782  1.2754 -0.9425  0.5804
  990MOL0     C33563   9.578   1.890   2.073 -0.0855  0.2220 -0.1676
  990MOL0     C33564   9.710   1.935   2.103 -0.8421  0.2111 -0.6219
  990MOL0     N33565  10.051   2.333   1.500 -0.3265  0.1325 -0.3889
  990MOL0     N33566   9.943   2.314   1.429 -0.4877  0.0486 -0.4821
  990MOL0     C33567   8.875   2.072   1.008 -0.2731 -0.1315  0.3077
  990MOL0     C33568   8.834   2.118   0.879 -0.8539  0.5112 -0.6154
  990MOL0     C33569   8.589   2.415   0.608  0.2498  0.0486 -0.2271
  990MOL0     C33570   8.635   2.549   0.608 -1.5720 -0.9689  0.7397
  990MOL0     C33571   8.624   2.619   0.490 -0.3311  0.5997 -0.0761
  990MOL0     C33572   8.554   2.568   0.378 -0.0441 -0.6674  0.6633
  990MOL0     O33573   8.545   2.649   0.271  0.6456  0.0169  0.7936
  990MOL0     C33574   8.545   2.591   0.142  0.5610  0.3320  0.5555
  990MOL0     C33575   8.664   2.645   0.051  0.0556 -0.0333 -0.1799
  990MOL0     C33576   8.673   2.800   0.032  0.0370  0.5247  0.0114
  990MOL0     C33577   8.747   2.828  -0.101  0.6793 -0.8307  0.4243
  990MOL0     C33578   8.672   2.817  -0.228 -0.0623  0.6374  0.7249
  990MOL0     C33579   8.626   2.797  -0.337  0.0718 -0.0023  0.5668
  990MOL0     C33580   8.490   2.445   0.392 -0.5580 -0.3959 -0.3103
  990MOL0     C33581   8.506   2.366   0.509  0.3345  0.3180  1.0920
  990MOL0     C33582   8.448   2.219   0.513  0.1406  0.2357  0.1423
  990MOL0     H33583   8.788   2.447   0.938 -1.7833 -0.1551 -0.0603
  990MOL0     H33584   8.851   2.377   1.162  0.4649 -1.8361  1.7056
  990MOL0     H33585   9.048   1.971   1.191  0.4953  1.1206 -1.8994
  990MOL0     H33586   9.110   2.137   1.199 -0.4167  0.5308 -0.2437
  990MOL0     H33587   9.054   1.946   1.403  0.2135 -0.8604 -3.9052
  990MOL0     H33588   9.063   2.122   1.453  1.0756 -0.2240  1.0030
  990MOL0     H33589   9.296   2.117   1.316  0.1503  0.6703  1.5674
  990MOL0     H33590   9.282   1.940   1.340 -0.0689 -0.5463  0.8161
  990MOL0     H33591   9.236   2.136   1.565 -3.3563 -2.0345  1.5153
  990MOL0     H33592   9.231   1.953   1.573 -2.4204 -0.1979 -2.4129
  990MOL0     H33593   9.450   2.033   1.656 -0.5790 -0.0240  0.3148
  990MOL0     H33594   9.460   1.926   1.520  3.2797  1.4382 -0.2188
  990MOL0     H33595   9.498   2.143   1.391 -3.5161 -3.2412  1.1932
  990MOL0     H33596   9.475   2.233   1.543  1.7023 -0.1329  2.6976
  990MOL0     H33597   9.688   2.028   1.558 -0.0487  0.0074 -3.1609
  990MOL0     H33598   9.662   2.191   1.625 -0.7070  1.5319 -1.3469
  990MOL0     H33599   9.748   2.119   1.337 -3.5986 -0.3535 -0.8408
  990MOL0     H33600   9.713   2.279   1.387  0.5287 -1.1788 -0.3462
  990MOL0     H33601   9.940   2.071   1.649  1.8030 -0.5531  0.2654
  990MOL0     H33602  10.258   2.203   1.606  1.2450  0.9810  0.9852
  990MOL0     H33603  10.198   2.313   1.721  2.4335 -0.1652 -2.7502
  990MOL0     H33604  10.163   2.001   1.727 -2.3933 -0.5823  0.1873
  990MOL0     H33605  10.285   2.095   1.819 -0.1818  2.5405 -0.5192
  990MOL0     H33606   9.983   2.133   1.858  0.1926 -1.8091 -1.9953
  990MOL0     H33607  10.117   2.176   1.970  1.4544  0.3756 -0.6451
  990MOL0     H33608  10.148   1.953   2.026 -0.5142 -3.5048  0.6490
  990MOL0     H33609  10.043   1.877   1.913  0.3123  0.4847 -0.0137
  990MOL0     H33610   9.868   1.858   1.817  1.2243  0.3793  0.4757
  990MOL0     H33611   9.650   1.798   1.745 -2.0651 -0.6241 -0.9730
  990MOL0     H33612   9.153   1.654   2.103  0.0968 -0.7848  0.2065
  990MOL0     H33613   8.917   1.589   2.007 -2.5523  2.6035 -0.7071
  990MOL0     H33614   8.741   1.851   1.728 -1.4253 -0.3204  0.7870
  990MOL0     H33615   8.796   1.755   1.610 -2.8697  2.0356 -2.1986
  990MOL0     H33616   8.567   1.714   1.577 -4.2207 -2.0511  0.2456
  990MOL0     H33617   8.609   1.585   1.685  2.2196  0.7239  3.8581
  990MOL0     H33618   8.428   1.666   1.787 -0.1269  0.5368  0.3800
  990MOL0     H33619   8.557   1.690   1.886 -2.2902 -1.8411  0.1355
  990MOL0     H33620   8.542   1.936   1.770  1.2182 -0.1982  0.0393
  990MOL0     H33621   8.439   1.890   1.909 -0.5889  2.4214 -0.5931
  990MOL0     H33622   8.283   1.797   1.715  1.7811 -1.6453 -1.2994
  990MOL0     H33623   8.386   1.893   1.605 -0.0335  2.2503 -0.4635
  990MOL0     H33624   8.257   2.019   1.852 -2.8233  4.4316 -0.5272
  990MOL0     H33625   8.289   2.097   1.694 -2.0403  1.1791  0.0893
  990MOL0     H33626   8.090   1.881   1.783  0.2062 -1.4097  0.4088
  990MOL0     H33627   8.090   1.946   1.607 -1.6832  2.2180 -0.3678
  990MOL0     H33628   7.931   2.041   1.767 -1.1385  3.2605 -0.2721
  990MOL0     H33629   8.070   2.123   1.846  2.6543 -1.8077 -0.1651
  990MOL0     H33630   8.972   1.894   1.714  1.3184  1.7447  0.1041
  990MOL0     H33631   9.180   1.956   1.802 -2.5271  2.2444  0.4879
  990MOL0     H33632   9.503   1.906   2.150  1.5714 -0.3169  1.6516
  990MOL0     H33633   9.724   1.979   2.201  0.6066 -1.7582  0.1148
  990MOL0     H33634   8.894   1.968   1.034 -0.7693  0.3846  2.9837
  990MOL0     H33635   8.799   2.048   0.803 -2.1319 -2.5362  2.5339
  990MOL0     H33636   8.692   2.591   0.690  1.8418  3.1236 -3.1842
  990MOL0     H33637   8.667   2.718   0.500  3.6907 -0.3430 -4.1924
  990MOL0     H33638   8.441   2.600   0.112  0.6300  2.3526  0.7813
  990MOL0     H33639   8.573   2.485   0.148  5.8257  1.5092  4.6044
  990MOL0     H33640   8.658   2.592  -0.044  1.0586 -0.1588 -0.1858
  990MOL0     H33641   8.758   2.615   0.099 -0.6174 -1.0969  0.5250
  990MOL0     H33642   8.727   2.847   0.115 -3.8526  4.5940  0.5979
  990MOL0     H33643   8.572   2.837   0.015 -0.5640 -2.3738 -4.1099
  990MOL0     H33644   8.786   2.930  -0.098 -0.3008 -0.4447  0.4995
  990MOL0     H33645   8.833   2.765  -0.124  1.1800  1.0217 -3.6018
  990MOL0     H33646   8.602   2.779  -0.440  2.7531 -1.6866  0.1134
  990MOL0     H33647   8.425   2.406   0.314 -0.4197  1.1733 -1.2401
  990MOL0     H33648   8.365   2.214   0.585  1.2556 -0.5083  1.4081
  990MOL0     H33649   8.402   2.213   0.413 -0.9503  1.6166  0.5302
  990MOL0     H33650   8.530   2.150   0.533  0.5974  0.4480 -0.9343
  991MOL0     O33651   7.062   5.897   9.354 -0.3489  0.4046 -0.5749
  991MOL0     C33652   7.016   5.789   9.317 -0.1166 -0.1038  0.4200
  991MOL0     O33653   7.066   5.711   9.217  0.3341  0.1857  0.4054
  991MOL0     C33654   7.196   5.694   9.189 -0.4747 -0.6315  0.9643
  991MOL0     C33655   7.229   5.632   9.065  0.2674 -0.4105  0.7873
  991MOL0     C33656   7.357   5.613   9.025 -0.0298 -0.1438 -0.0170
  991MOL0     C33657   7.466   5.644   9.112 -0.3618  0.7260  0.2627
  991MOL0     O33658   7.597   5.624   9.081  0.5540  0.4980  0.5755
  991MOL0     C33659   7.632   5.513   9.001 -0.6127  0.6068  1.9522
  991MOL0     C33660   7.716   5.415   9.082 -0.5479 -0.4996  0.4947
  991MOL0     C33661   7.650   5.290   9.105  0.4994 -0.5768  1.2303
  991MOL0     C33662   7.753   5.192   9.149 -0.6103  0.1754  1.3940
  991MOL0     C33663   7.687   5.067   9.216 -0.8090  0.6272  0.3174
  991MOL0     C33664   7.640   5.101   9.357 -0.0550 -0.2753 -0.2678
  991MOL0     C33665   7.589   4.977   9.440 -0.0848 -0.8514  1.0843
  991MOL0     C33666   7.714   4.936   9.518 -0.0217 -0.0819  0.3407
  991MOL0     N33667   7.675   4.836   9.616  0.2390 -0.1653  0.4443
  991MOL0     C33668   7.603   4.865   9.726 -0.7308 -0.5140  0.1765
  991MOL0     C33669   7.570   4.738   9.770  0.2054  0.0488  0.8086
  991MOL0     C33670   7.489   4.724   9.895 -0.0458  0.1850 -0.0667
  991MOL0     C33671   7.381   4.624   9.864  0.5743 -0.0985 -0.5811
  991MOL0     C33672   7.340   4.546   9.990  1.1380  0.1673 -0.5805
  991MOL0     C33673   7.223   4.451   9.957  0.6328  0.4126  0.2232
  991MOL0     O33674   7.096   4.530   9.954 -0.2874  1.0165 -0.3047
  991MOL0     C33675   6.977   4.463   9.969  0.6884 -0.7833  0.6488
  991MOL0     C33676   6.881   4.550   9.995 -0.2077  0.0408  0.2248
  991MOL0     C33677   6.749   4.512  10.001 -0.5840 -0.1877  1.2458
  991MOL0     C33678   6.722   4.380   9.984  0.2820  0.6344 -0.3941
  991MOL0     C33679   6.583   4.340   9.980 -0.7759 -0.0421  1.0123
  991MOL0     O33680   6.497   4.419   9.916 -0.4115 -0.1778  0.3094
  991MOL0     C33681   6.368   4.377   9.880 -0.0722  0.2903 -1.0815
  991MOL0     C33682   6.337   4.254   9.830 -0.3771 -0.1001 -0.3275
  991MOL0     C33683   6.206   4.222   9.787 -0.3197  0.0496 -0.2718
  991MOL0     C33684   6.112   4.323   9.784 -1.1080  0.0282 -0.4867
  991MOL0     O33685   5.988   4.311   9.727  0.5037  0.0096 -0.0744
  991MOL0     C33686   5.914   4.184   9.726 -0.8444  0.4644 -1.0118
  991MOL0     C33687   5.937   4.107   9.605  0.7632  0.5879  0.4511
  991MOL0     C33688   5.881   4.159   9.474  0.4888  0.3395  0.7656
  991MOL0     C33689   5.990   4.247   9.397 -0.5199  0.8237  0.0188
  991MOL0     C33690   5.940   4.270   9.254 -0.0085 -1.0798  0.1935
  991MOL0     C33691   6.000   4.174   9.151 -0.7507  0.2592 -0.1501
  991MOL0     C33692   5.901   4.150   9.035  0.7594  0.4777 -0.3057
  991MOL0     C33693   5.923   4.234   8.911  0.7256 -0.2906 -0.7457
  991MOL0    Cl33694   5.939   4.409   8.954 -0.0363  0.1591  0.7947
  991MOL0     C33695   6.150   4.444   9.835 -0.5046 -0.4519 -0.0202
  991MOL0     C33696   6.277   4.475   9.881 -0.7016  1.2522  0.6681
  991MOL0     O33697   6.541   4.253  10.045  0.4075  0.3996 -0.0168
  991MOL0     C33698   6.820   4.288   9.963  0.1075 -0.0975  0.7572
  991MOL0     C33699   6.955   4.325   9.972 -0.6254  0.6406  0.7286
  991MOL0     N33700   7.630   4.645   9.696 -0.3335  0.4444  0.2718
  991MOL0     N33701   7.700   4.704   9.606 -0.3720 -0.0951 -0.1455
  991MOL0     C33702   7.433   5.704   9.228 -0.2864  0.0899  0.2914
  991MOL0     C33703   7.306   5.736   9.264 -0.8891 -0.0406 -0.5566
  991MOL0     C33704   6.884   5.743   9.356  0.2408  0.4979 -0.5114
  991MOL0     C33705   6.812   5.643   9.272  0.0214 -0.0304  0.4174
  991MOL0     C33706   6.687   5.598   9.316 -0.7546  0.3277  0.5409
  991MOL0     C33707   6.614   5.652   9.426 -0.7582 -1.2257  0.0434
  991MOL0     O33708   6.491   5.614   9.465  0.2387  0.1792  0.8520
  991MOL0     C33709   6.419   5.530   9.372 -0.9329 -0.0612 -0.8474
  991MOL0     C33710   6.288   5.504   9.439 -0.3592  0.2180  0.3330
  991MOL0     C33711   6.194   5.611   9.380  0.2339 -0.7060  0.6355
  991MOL0     C33712   6.047   5.597   9.422 -0.4846  0.4185  0.0665
  991MOL0     C33713   6.047   5.574   9.567 -1.0049 -0.5539  0.5560
  991MOL0     C33714   6.025   5.566   9.683 -0.3736 -0.7185 -0.3803
  991MOL0     C33715   6.689   5.751   9.500 -0.5316  0.8568 -0.0280
  991MOL0     C33716   6.817   5.788   9.465  0.1628 -0.3230 -0.4538
  991MOL0     C33717   6.887   5.884   9.555 -0.0376  0.6542 -0.3450
  991MOL0     H33718   7.152   5.584   9.005  0.5633 -0.3529  0.3628
  991MOL0     H33719   7.381   5.557   8.935  1.1255 -2.0771  1.4086
  991MOL0     H33720   7.552   5.456   8.954  1.6936 -1.8906  0.7661
  991MOL0     H33721   7.689   5.557   8.919  0.5885 -0.5753  2.1122
  991MOL0     H33722   7.750   5.463   9.174 -1.1859 -0.6912  0.8349
  991MOL0     H33723   7.800   5.399   9.014 -0.0442  1.9625  0.4309
  991MOL0     H33724   7.611   5.257   9.008 -2.8557  0.6966  1.9771
  991MOL0     H33725   7.568   5.293   9.177  0.6088  1.2736  1.3279
  991MOL0     H33726   7.796   5.151   9.058 -0.3063 -2.4628  2.6224
  991MOL0     H33727   7.828   5.223   9.222  1.6965 -2.9658  0.5715
  991MOL0     H33728   7.618   5.014   9.149  1.8313 -4.3501  1.1058
  991MOL0     H33729   7.766   4.992   9.223 -3.1010 -2.0130 -0.0552
  991MOL0     H33730   7.723   5.150   9.408  1.4382  0.5746 -3.3235
  991MOL0     H33731   7.557   5.173   9.349  0.0283 -0.1815 -0.2775
  991MOL0     H33732   7.535   4.908   9.374 -2.3243  2.5708 -0.9681
  991MOL0     H33733   7.510   5.011   9.508  0.0244  0.9141  0.3749
  991MOL0     H33734   7.783   4.894   9.444 -0.7638 -0.3275 -0.2313
  991MOL0     H33735   7.757   5.019   9.574 -1.6148  2.5357 -2.0524
  991MOL0     H33736   7.551   4.952   9.764 -2.2163 -1.5420  0.6342
  991MOL0     H33737   7.566   4.695   9.966  0.5027  0.5833 -0.4901
  991MOL0     H33738   7.449   4.822   9.922  1.0331 -0.1668  3.3297
  991MOL0     H33739   7.298   4.670   9.808  1.5468  0.2058 -1.8005
  991MOL0     H33740   7.435   4.549   9.806  0.7572 -0.9481  0.6569
  991MOL0     H33741   7.312   4.607  10.077 -2.5080  0.8494 -2.0303
  991MOL0     H33742   7.421   4.483  10.026  0.9852 -0.9619 -2.1226
  991MOL0     H33743   7.226   4.380  10.039  0.6897 -0.4347 -0.4985
  991MOL0     H33744   7.234   4.400   9.861  0.5378  0.0278  0.4187
  991MOL0     H33745   6.896   4.656  10.018 -1.9761  0.1229  1.1559
  991MOL0     H33746   6.664   4.579  10.014 -0.6628  0.1553 -0.7882
  991MOL0     H33747   6.415   4.179   9.834 -0.9633 -0.7340 -0.4854
  991MOL0     H33748   6.186   4.119   9.761  0.5015 -1.4118  4.0272
  991MOL0     H33749   5.950   4.121   9.808  1.5782  0.8605 -1.6948
  991MOL0     H33750   5.805   4.197   9.735 -0.8419 -0.7293  1.8370
  991MOL0     H33751   6.043   4.127   9.589  0.6583  0.4937 -0.3645
  991MOL0     H33752   5.909   4.001   9.612 -1.3612  1.1540  1.5859
  991MOL0     H33753   5.871   4.071   9.410 -0.7078  3.7820 -4.4173
  991MOL0     H33754   5.785   4.211   9.474  1.9827  3.3417  1.0513
  991MOL0     H33755   6.086   4.197   9.407 -1.3079 -1.4247 -2.5220
  991MOL0     H33756   5.995   4.340   9.453 -0.3564  0.3149  0.8678
  991MOL0     H33757   5.974   4.373   9.244  1.4070 -1.5733 -0.2676
  991MOL0     H33758   5.831   4.280   9.255 -0.1078 -1.3586 -2.1933
  991MOL0     H33759   6.094   4.215   9.114 -0.0747  0.7360  1.9367
  991MOL0     H33760   6.007   4.076   9.199 -1.6847  1.3228  2.3474
  991MOL0     H33761   5.800   4.163   9.075  1.0195  2.5969 -0.2144
  991MOL0     H33762   5.912   4.042   9.020 -0.0846  0.0786  1.5673
  991MOL0     H33763   6.004   4.183   8.859  1.8170 -0.4369  1.0004
  991MOL0     H33764   5.839   4.228   8.842  2.7858  0.5089 -3.4869
  991MOL0     H33765   6.074   4.522   9.833  1.6965  1.8084  0.0509
  991MOL0     H33766   6.317   4.570   9.915  3.7501  0.5725 -1.8550
  991MOL0     H33767   6.796   4.183   9.946  1.7936 -0.1961 -1.3839
  991MOL0     H33768   7.034   4.251   9.965 -1.3407 -0.2041  1.2783
  991MOL0     H33769   7.509   5.748   9.292  0.8223  2.5534 -2.5396
  991MOL0     H33770   7.292   5.775   9.364  0.6933 -0.3664 -0.1858
  991MOL0     H33771   6.859   5.606   9.181  2.4874  0.1297  1.5590
  991MOL0     H33772   6.651   5.509   9.265  1.8451 -0.5209  0.0649
  991MOL0     H33773   6.481   5.441   9.355  0.4499  0.6311  0.3798
  991MOL0     H33774   6.410   5.582   9.276 -0.6837 -0.5352 -1.1353
  991MOL0     H33775   6.307   5.509   9.546  0.9695  0.3774  0.1103
  991MOL0     H33776   6.255   5.407   9.401 -1.0292  0.0703  1.2872
  991MOL0     H33777   6.194   5.609   9.271  1.3906 -1.4220  0.6393
  991MOL0     H33778   6.229   5.710   9.411 -1.2094  0.6714 -1.7971
  991MOL0     H33779   5.994   5.690   9.399  1.8023  2.0387  0.9225
  991MOL0     H33780   5.993   5.512   9.380 -2.9627  2.2451 -0.7131
  991MOL0     H33781   6.014   5.563   9.790 -0.0129  2.2225 -0.1660
  991MOL0     H33782   6.643   5.796   9.588  1.2567 -1.5209  2.3016
  991MOL0     H33783   6.979   5.838   9.592  0.6505  1.8270 -0.5421
  991MOL0     H33784   6.913   5.979   9.507  3.0533  1.3371  2.2870
  991MOL0     H33785   6.830   5.903   9.646 -1.2800  2.1801 -1.3921
  992MOL0     O33786  11.540   5.430   2.382  0.2509 -0.5874 -0.2416
  992MOL0     C33787  11.502   5.345   2.459 -0.0615  0.3269 -0.2372
  992MOL0     O33788  11.481   5.205   2.431 -0.0654 -0.3954  0.5299
  992MOL0     C33789  11.461   5.162   2.301 -0.3064  0.0768  1.0732
  992MOL0     C33790  11.390   5.240   2.200  0.4787  0.4658 -0.6387
  992MOL0     C33791  11.383   5.176   2.077  0.3710  0.4067  0.4233
  992MOL0     C33792  11.440   5.047   2.052 -0.3459  0.5327 -0.0350
  992MOL0     O33793  11.437   5.003   1.925  0.2686  0.0496  0.2664
  992MOL0     C33794  11.466   4.860   1.913  0.5700  0.9229  2.4627
  992MOL0     C33795  11.451   4.831   1.769  0.7308 -0.1234  0.3021
  992MOL0     C33796  11.312   4.778   1.734  0.5689  0.4647  0.6458
  992MOL0     C33797  11.191   4.880   1.746 -0.4347  0.5819 -0.4071
  992MOL0     C33798  11.055   4.802   1.756  0.0070 -0.2301  0.0054
  992MOL0     C33799  10.953   4.876   1.680  0.1286 -0.4660 -0.4423
  992MOL0     C33800  10.808   4.821   1.691 -0.2401 -0.4814  0.5112
  992MOL0     C33801  10.741   4.786   1.559 -0.4990 -0.5758  0.0586
  992MOL0     N33802  10.781   4.641   1.525 -0.3549  0.1320  0.4144
  992MOL0     C33803  10.904   4.598   1.461  0.2189 -0.4873 -0.7574
  992MOL0     C33804  10.883   4.469   1.431 -0.4126  0.8564  0.0274
  992MOL0     C33805  10.966   4.378   1.349  0.1702  0.2013 -0.0097
  992MOL0     C33806  11.020   4.431   1.212 -0.3656  0.6905  0.5604
  992MOL0     C33807  11.101   4.320   1.139  0.4087 -0.1557  0.5506
  992MOL0     C33808  11.180   4.384   1.029 -0.2324 -0.3695  0.4203
  992MOL0     O33809  11.248   4.285   0.951  0.2377  0.0790  0.0573
  992MOL0     C33810  11.318   4.316   0.832 -0.1292 -0.4959  1.0614
  992MOL0     C33811  11.403   4.227   0.776  0.0636 -0.3558  0.7375
  992MOL0     C33812  11.463   4.251   0.652  0.4735  0.0990 -0.2101
  992MOL0     C33813  11.442   4.369   0.574 -0.6979  0.1402 -1.1211
  992MOL0     C33814  11.513   4.398   0.453 -0.0880  0.6770 -0.2982
  992MOL0     O33815  11.482   4.519   0.394 -0.0779 -0.2534 -0.7659
  992MOL0     C33816  11.563   4.566   0.297  0.8446  1.3895 -0.1194
  992MOL0     C33817  11.698   4.558   0.317 -1.1228 -0.2578 -0.7532
  992MOL0     C33818  11.780   4.630   0.226 -0.8895 -0.4844  0.4715
  992MOL0     C33819  11.730   4.697   0.109  0.2081 -0.6348  0.2461
  992MOL0     O33820  11.798   4.783   0.027 -0.4663  0.2890 -0.3956
  992MOL0     C33821  11.946   4.769   0.028  0.2140  0.2362  1.0060
  992MOL0     C33822  11.992   4.870   0.145  0.1600  0.3295 -0.5977
  992MOL0     C33823  12.117   4.947   0.093 -0.0322 -0.2915  0.3495
  992MOL0     C33824  12.209   5.006   0.203 -0.8229 -0.4527  0.0856
  992MOL0     C33825  12.333   5.065   0.131  0.0308  0.6665  0.2002
  992MOL0     C33826  12.443   5.101   0.230  0.0829 -0.5541  0.7310
  992MOL0     C33827  12.548   4.994   0.253 -0.6254  0.5054  0.3782
  992MOL0     C33828  12.687   5.047   0.297 -0.4477 -0.1224  0.0595
  992MOL0    Cl33829  12.785   4.915   0.372 -0.4236  0.2208  0.3210
  992MOL0     C33830  11.591   4.687   0.095 -0.6236  0.4939  1.1597
  992MOL0     C33831  11.501   4.629   0.185 -0.7018 -0.7069  0.4051
  992MOL0     O33832  11.581   4.306   0.409  0.1043  0.3934  1.1296
  992MOL0     C33833  11.358   4.466   0.629  0.6067  0.0574  0.4219
  992MOL0     C33834  11.294   4.438   0.750  0.8720  0.4726 -0.0038
  992MOL0     N33835  10.761   4.430   1.475  0.0159  1.2350 -0.5909
  992MOL0     N33836  10.695   4.540   1.518 -0.0279  0.5805 -0.3578
  992MOL0     C33837  11.519   4.988   2.146 -0.5460  0.1861 -0.4587
  992MOL0     C33838  11.513   5.039   2.270 -0.5077 -0.6054  0.7293
  992MOL0     C33839  11.501   5.383   2.602 -0.2920 -0.6805 -0.5871
  992MOL0     C33840  11.488   5.281   2.704  1.2186  0.3989  0.0094
  992MOL0     C33841  11.471   5.321   2.832 -0.4064 -0.6172  0.6122
  992MOL0     C33842  11.469   5.460   2.876  0.1595  0.6978 -0.1495
  992MOL0     O33843  11.423   5.499   3.004 -0.0583  0.2527 -0.4845
  992MOL0     C33844  11.447   5.407   3.106 -0.2953 -1.4346 -0.3991
  992MOL0     C33845  11.434   5.489   3.230 -0.5548 -0.7093 -0.2595
  992MOL0     C33846  11.487   5.440   3.351 -0.9604  0.5537 -1.5877
  992MOL0     C33847  11.429   5.530   3.473 -0.2164 -0.4222 -0.1876
  992MOL0     C33848  11.474   5.666   3.477  0.0094 -0.1134 -1.3876
  992MOL0     C33849  11.499   5.781   3.471  0.7866 -0.3838 -0.5185
  992MOL0     C33850  11.485   5.555   2.771  0.3848  0.4794  0.6619
  992MOL0     C33851  11.504   5.518   2.639 -0.1696 -0.5093 -0.3703
  992MOL0     C33852  11.533   5.636   2.548 -1.0904  0.2233 -0.8507
  992MOL0     H33853  11.336   5.330   2.228 -0.0989 -0.1435  0.2601
  992MOL0     H33854  11.316   5.216   2.001  2.9457  2.5560 -0.8772
  992MOL0     H33855  11.570   4.832   1.929  0.6722  1.5336  2.8712
  992MOL0     H33856  11.395   4.795   1.966  1.4733 -1.8440  0.4939
  992MOL0     H33857  11.519   4.752   1.734  2.7785  2.3146 -1.5658
  992MOL0     H33858  11.472   4.917   1.706  1.4511  0.4161  1.2545
  992MOL0     H33859  11.299   4.683   1.787  1.1048 -0.3810 -0.6905
  992MOL0     H33860  11.323   4.753   1.628  5.8902  0.7420  0.8711
  992MOL0     H33861  11.199   4.946   1.832 -0.8687  3.2817 -2.3359
  992MOL0     H33862  11.183   4.956   1.668 -1.0030  1.0742  0.1248
  992MOL0     H33863  11.074   4.705   1.708  3.3142 -0.0684  0.7468
  992MOL0     H33864  11.028   4.796   1.861 -1.4130  5.3612  0.2799
  992MOL0     H33865  10.946   4.982   1.706 -1.0405 -0.4637 -0.6927
  992MOL0     H33866  10.980   4.857   1.576  0.5941 -1.2239 -0.1879
  992MOL0     H33867  10.752   4.902   1.737  1.5746  1.9811 -1.3071
  992MOL0     H33868  10.807   4.735   1.759  0.5208 -1.3578 -0.5389
  992MOL0     H33869  10.632   4.782   1.569 -0.3850 -0.8497  1.3992
  992MOL0     H33870  10.770   4.865   1.490  2.5507 -1.3751  0.2791
  992MOL0     H33871  10.995   4.653   1.438 -0.5458  0.8282 -0.7697
  992MOL0     H33872  11.051   4.347   1.412 -0.1358 -0.7777 -0.0616
  992MOL0     H33873  10.923   4.279   1.334  1.3231 -0.4413  0.7812
  992MOL0     H33874  10.933   4.440   1.146  0.5370 -1.8306 -1.1163
  992MOL0     H33875  11.080   4.522   1.221 -0.7544  1.3054 -2.2916
  992MOL0     H33876  11.036   4.244   1.095  1.4440 -0.7180 -0.0502
  992MOL0     H33877  11.155   4.259   1.212 -0.8937  1.6839  3.1921
  992MOL0     H33878  11.252   4.458   1.062 -0.8038 -0.3910  1.7869
  992MOL0     H33879  11.108   4.429   0.959 -3.1419 -3.0230  1.4455
  992MOL0     H33880  11.430   4.141   0.836 -0.7033 -0.3300  1.1378
  992MOL0     H33881  11.536   4.176   0.624  0.9436 -0.2211  1.7079
  992MOL0     H33882  11.745   4.508   0.401 -0.7893 -3.1405 -2.5092
  992MOL0     H33883  11.888   4.637   0.240 -0.6254 -1.4978 -0.8812
  992MOL0     H33884  11.981   4.669   0.052  0.0259  0.2181  1.2102
  992MOL0     H33885  11.985   4.794  -0.071  0.1147  2.3520  1.4486
  992MOL0     H33886  11.914   4.945   0.162 -1.1716 -0.3732 -3.0782
  992MOL0     H33887  12.019   4.825   0.240  1.1333  1.5419 -0.2724
  992MOL0     H33888  12.167   4.873   0.030 -1.5867 -0.2574 -1.0074
  992MOL0     H33889  12.093   5.024   0.019 -0.1358  1.0823  1.7605
  992MOL0     H33890  12.239   4.930   0.277 -0.0562  1.5498  1.9378
  992MOL0     H33891  12.173   5.095   0.255 -3.1664  0.1392 -2.3534
  992MOL0     H33892  12.307   5.157   0.080  0.0839  0.5278 -0.0783
  992MOL0     H33893  12.374   4.996   0.057  2.5040 -1.0408  2.9008
  992MOL0     H33894  12.500   5.182   0.182 -0.9635 -0.2944 -0.1111
  992MOL0     H33895  12.411   5.145   0.324  4.1082  2.3617  1.0150
  992MOL0     H33896  12.567   4.924   0.170  2.1934  1.2234  0.3226
  992MOL0     H33897  12.504   4.927   0.328 -1.6325  0.8115  0.0810
  992MOL0     H33898  12.730   5.094   0.208 -1.6931  3.4721  1.1842
  992MOL0     H33899  12.670   5.126   0.371 -1.8235 -1.2086  0.9484
  992MOL0     H33900  11.549   4.743   0.013  1.6484 -0.4025 -0.7176
  992MOL0     H33901  11.395   4.638   0.163 -0.3518 -1.9094 -2.0018
  992MOL0     H33902  11.346   4.562   0.581  0.8850 -1.4957 -3.0511
  992MOL0     H33903  11.223   4.505   0.797 -1.9064 -0.9366 -1.9108
  992MOL0     H33904  11.571   4.896   2.123 -0.4523 -0.1068  0.8981
  992MOL0     H33905  11.565   4.979   2.344  0.4806 -0.5663  0.0871
  992MOL0     H33906  11.495   5.179   2.670  1.2730 -0.2258  1.7960
  992MOL0     H33907  11.451   5.246   2.908  0.6105 -2.9311 -1.2807
  992MOL0     H33908  11.553   5.382   3.094 -0.0180 -0.4840 -0.0662
  992MOL0     H33909  11.395   5.311   3.111  0.7473 -1.9819  0.4095
  992MOL0     H33910  11.326   5.488   3.251 -0.8154 -2.9644 -1.4590
  992MOL0     H33911  11.448   5.592   3.197 -3.7120 -0.8740 -2.6235
  992MOL0     H33912  11.596   5.438   3.350 -0.8185 -2.5764  0.9721
  992MOL0     H33913  11.466   5.335   3.375  1.5579  0.1531 -0.8932
  992MOL0     H33914  11.320   5.523   3.473 -0.1399 -2.3123  0.3593
  992MOL0     H33915  11.458   5.481   3.567  1.3994  0.3572 -0.2551
  992MOL0     H33916  11.502   5.888   3.462  0.3741 -0.3067  0.1437
  992MOL0     H33917  11.464   5.656   2.804 -1.6348 -0.1141  1.4102
  992MOL0     H33918  11.524   5.729   2.604  0.5360 -1.0832  1.8451
  992MOL0     H33919  11.636   5.639   2.511 -0.6198  0.3982  0.4176
  992MOL0     H33920  11.457   5.625   2.470 -0.5963  1.5436 -1.5547
  993MOL0     O33921  10.740   9.461   0.363 -0.3808 -0.9980  0.0744
  993MOL0     C33922  10.712   9.531   0.265 -0.7085 -0.2567  0.3003
  993MOL0     O33923  10.594   9.596   0.243 -0.0923 -0.8336 -0.8730
  993MOL0     C33924  10.510   9.614   0.358  0.1276  0.2331  0.6057
  993MOL0     C33925  10.549   9.686   0.471 -0.0948  0.4091 -0.2649
  993MOL0     C33926  10.463   9.704   0.582  0.1392 -0.5946  0.2142
  993MOL0     C33927  10.331   9.655   0.582 -0.5543 -0.4135 -0.3315
  993MOL0     O33928  10.242   9.652   0.688 -0.2711 -0.0234  0.9115
  993MOL0     C33929  10.259   9.767   0.775 -0.2245 -0.3205  0.2873
  993MOL0     C33930  10.153   9.774   0.886  0.6443 -0.3118 -0.1732
  993MOL0     C33931  10.176   9.888   0.979 -0.6375  0.3156  0.5621
  993MOL0     C33932  10.099  10.018   0.934 -0.2035 -0.0438 -0.6357
  993MOL0     C33933  10.100  10.129   1.043  1.0150 -0.3191  0.3406
  993MOL0     C33934  10.238  10.182   1.083  0.2410  0.6882 -0.4677
  993MOL0     C33935  10.254  10.317   1.142 -0.2260 -0.2566 -1.1354
  993MOL0     C33936  10.166  10.327   1.273 -0.3553 -0.6933 -0.8885
  993MOL0     N33937  10.167  10.469   1.327 -0.4693 -0.2774  0.6636
  993MOL0     C33938  10.087  10.580   1.286 -0.9744  0.5808 -0.3544
  993MOL0     C33939  10.129  10.682   1.358  0.1223 -0.1590 -0.5151
  993MOL0     C33940  10.056  10.813   1.362 -0.8813  1.2203  0.3601
  993MOL0     C33941  10.140  10.912   1.283  0.0199  0.1618  0.1597
  993MOL0     C33942  10.083  11.054   1.301  0.6326  0.8264  0.6038
  993MOL0     C33943  10.153  11.108   1.422  0.5632  0.4331 -1.0578
  993MOL0     O33944  10.109  11.045   1.544  0.2121 -0.0530  0.8504
  993MOL0     C33945  10.154  11.099   1.658 -0.4596 -0.2581 -0.4293
  993MOL0     C33946  10.240  11.214   1.663 -0.4354  0.0429 -0.1886
  993MOL0     C33947  10.306  11.235   1.782  0.2414 -0.3321  0.3898
  993MOL0     C33948  10.268  11.170   1.901 -0.2007 -0.4176  0.1532
  993MOL0     C33949  10.350  11.205   2.017  0.6739  0.7338  0.0869
  993MOL0     O33950  10.479  11.244   2.011  0.6897 -0.3281  0.2176
  993MOL0     C33951  10.550  11.265   2.127  0.3724  0.8925 -0.7127
  993MOL0     C33952  10.686  11.300   2.097  0.1417  0.2118 -0.2581
  993MOL0     C33953  10.770  11.319   2.206 -0.4040  0.5680 -0.0467
  993MOL0     C33954  10.725  11.312   2.336  0.0007 -0.3871 -0.6601
  993MOL0     O33955  10.808  11.324   2.444 -0.5422 -0.1435  0.3525
  993MOL0     C33956  10.787  11.225   2.539  0.3662 -0.7944  0.3431
  993MOL0     C33957  10.847  11.269   2.666 -0.2786 -1.5005 -0.2291
  993MOL0     C33958  10.800  11.167   2.773  0.3009 -0.5624  0.6703
  993MOL0     C33959  10.915  11.100   2.837  0.3728  0.9061  0.5615
  993MOL0     C33960  10.879  10.980   2.933  0.4792  0.2326 -0.8630
  993MOL0     C33961  10.800  10.879   2.860  0.0846 -0.1720  0.0954
  993MOL0     C33962  10.804  10.728   2.917 -0.4590 -0.0061 -0.2453
  993MOL0     C33963  10.744  10.620   2.819  0.0404 -0.0453  0.2002
  993MOL0    Cl33964  10.820  10.606   2.659 -0.0830  0.6100  0.4046
  993MOL0     C33965  10.590  11.308   2.362  0.5022 -0.1851 -0.1029
  993MOL0     C33966  10.501  11.284   2.255 -0.1107 -0.5294  0.9648
  993MOL0     O33967  10.282  11.169   2.121 -0.4721  0.1586 -0.0434
  993MOL0     C33968  10.163  11.074   1.896 -0.3621  0.1783 -0.4514
  993MOL0     C33969  10.118  11.026   1.767 -0.0705 -0.0771 -0.2590
  993MOL0     N33970  10.240  10.648   1.435  0.4936 -0.6820  0.2000
  993MOL0     N33971  10.253  10.522   1.415  0.7526 -0.0584  1.3121
  993MOL0     C33972  10.289   9.591   0.454  0.4185 -0.6819 -0.5007
  993MOL0     C33973  10.377   9.572   0.350  0.5433  0.4504  0.8756
  993MOL0     C33974  10.811   9.539   0.152  0.1016 -0.1635 -0.6180
  993MOL0     C33975  10.759   9.570   0.019  0.6899  0.1578  0.4306
  993MOL0     C33976  10.856   9.590  -0.078  0.6833  0.2624  0.6545
  993MOL0     C33977  10.991   9.590  -0.054  0.2190 -0.4914 -0.4184
  993MOL0     O33978  11.087   9.640  -0.145  1.3166 -0.0463 -0.4821
  993MOL0     C33979  11.068   9.631  -0.290  0.0014  0.4229  0.2976
  993MOL0     C33980  11.084   9.495  -0.350 -1.3727 -0.6641  0.4870
  993MOL0     C33981  11.233   9.448  -0.337 -0.3956  0.1502 -0.9847
  993MOL0     C33982  11.248   9.312  -0.419  0.2535 -0.6074  0.2350
  993MOL0     C33983  11.205   9.207  -0.327  0.3911 -0.8558 -0.8338
  993MOL0     C33984  11.165   9.116  -0.252  0.0011 -0.1315  0.9600
  993MOL0     C33985  11.038   9.549   0.072  0.3049  0.2066 -0.0831
  993MOL0     C33986  10.952   9.539   0.180  1.0574 -0.3575  1.2824
  993MOL0     C33987  11.033   9.538   0.297 -0.5388 -0.2750  0.6029
  993MOL0     H33988  10.651   9.719   0.487  0.0374 -0.4752  0.8873
  993MOL0     H33989  10.497   9.757   0.671 -1.2247 -1.5983  1.3835
  993MOL0     H33990  10.357   9.748   0.819 -0.7803 -3.1922  0.5225
  993MOL0     H33991  10.261   9.860   0.718  0.6272 -0.2312  0.4491
  993MOL0     H33992  10.161   9.677   0.937 -1.0387 -0.9756 -1.1026
  993MOL0     H33993  10.058   9.776   0.833  0.5919 -2.8823 -0.2984
  993MOL0     H33994  10.283   9.912   0.981 -0.5843  0.1640 -0.3840
  993MOL0     H33995  10.139   9.850   1.075 -1.7860  1.2151  0.4974
  993MOL0     H33996  10.149  10.060   0.847 -2.0378  1.6907 -0.9378
  993MOL0     H33997   9.993  10.000   0.912  0.0240 -0.2676 -1.5671
  993MOL0     H33998  10.036  10.209   1.005  2.3327  0.6451  0.0700
  993MOL0     H33999  10.044  10.092   1.129 -2.1317 -1.9592 -2.2048
  993MOL0     H34000  10.295  10.110   1.143  2.4876  0.9639 -2.1337
  993MOL0     H34001  10.296  10.181   0.990 -1.3808 -1.3149 -1.5600
  993MOL0     H34002  10.226  10.385   1.061 -0.8743  1.0716  0.1528
  993MOL0     H34003  10.356  10.341   1.172 -0.4139  0.0132 -0.6896
  993MOL0     H34004  10.067  10.281   1.270  0.7546 -3.2039 -1.0134
  993MOL0     H34005  10.213  10.274   1.356 -2.5021 -2.6657 -0.8193
  993MOL0     H34006   9.998  10.572   1.225 -1.1943  1.3565 -0.1423
  993MOL0     H34007   9.955  10.798   1.324 -2.0522 -1.2569  3.8842
  993MOL0     H34008  10.048  10.845   1.466 -1.1340  2.3032  0.0197
  993MOL0     H34009  10.246  10.906   1.308  0.8197  5.5481 -0.7820
  993MOL0     H34010  10.125  10.872   1.182 -1.5564  1.6233 -0.2306
  993MOL0     H34011   9.976  11.036   1.314  0.8593 -1.1324  0.0833
  993MOL0     H34012  10.103  11.113   1.211 -2.8123 -0.0897 -0.9261
  993MOL0     H34013  10.119  11.212   1.430  0.0908  0.1583  1.3287
  993MOL0     H34014  10.261  11.104   1.408  0.8309  1.2333  0.5081
  993MOL0     H34015  10.265  11.287   1.586  0.7920 -0.6243 -0.4511
  993MOL0     H34016  10.389  11.304   1.787  0.1382 -0.2681  1.4292
  993MOL0     H34017  10.730  11.306   1.998 -1.5056 -0.6883 -1.0881
  993MOL0     H34018  10.876  11.341   2.208  0.3436 -2.6062  0.8606
  993MOL0     H34019  10.684  11.193   2.557 -0.0159  0.8294  1.2801
  993MOL0     H34020  10.841  11.135   2.509 -0.3197 -1.0433 -0.1594
  993MOL0     H34021  10.956  11.264   2.655 -0.2802  0.0360 -1.1079
  993MOL0     H34022  10.817  11.373   2.679 -0.3094 -1.1049 -2.9247
  993MOL0     H34023  10.747  11.215   2.855 -0.5530 -1.3282  0.5789
  993MOL0     H34024  10.725  11.095   2.738 -0.6723  1.2898 -1.3575
  993MOL0     H34025  10.983  11.163   2.896  1.2858 -0.5573  1.1431
  993MOL0     H34026  10.981  11.069   2.754 -0.6035  1.3172 -0.3861
  993MOL0     H34027  10.820  11.022   3.015  0.7192 -1.0346 -0.0142
  993MOL0     H34028  10.974  10.934   2.962  1.5406  0.9342 -2.9765
  993MOL0     H34029  10.696  10.913   2.849 -0.2647 -1.4656 -0.8322
  993MOL0     H34030  10.833  10.872   2.756  0.1287 -0.3803  0.1237
  993MOL0     H34031  10.757  10.732   3.016 -0.1093  3.5415 -0.0863
  993MOL0     H34032  10.907  10.708   2.947 -0.5100  1.0400  0.7218
  993MOL0     H34033  10.745  10.522   2.868 -0.0598 -0.6003 -0.8670
  993MOL0     H34034  10.642  10.645   2.790  0.5762 -0.1143 -1.9901
  993MOL0     H34035  10.555  11.335   2.461  0.0303 -0.9345 -0.0602
  993MOL0     H34036  10.399  11.259   2.285 -0.1767  0.5421  1.6906
  993MOL0     H34037  10.132  11.022   1.986 -3.4549  1.3854 -0.7034
  993MOL0     H34038  10.046  10.945   1.759  0.5226 -0.8052  1.4703
  993MOL0     H34039  10.190   9.548   0.452 -0.6034  1.3489  1.8473
  993MOL0     H34040  10.337   9.540   0.254 -1.0057  1.4771  1.1398
  993MOL0     H34041  10.653   9.576  -0.001  0.9396  0.8864 -0.8148
  993MOL0     H34042  10.826   9.634  -0.172 -0.9582 -1.3057  0.3894
  993MOL0     H34043  11.139   9.700  -0.336  0.0558 -0.4036 -0.8912
  993MOL0     H34044  10.969   9.672  -0.313  0.9920  2.4194 -0.6129
  993MOL0     H34045  11.061   9.494  -0.457 -1.2777 -0.8587  0.4679
  993MOL0     H34046  11.011   9.427  -0.307 -2.7850  1.5918  1.8147
  993MOL0     H34047  11.266   9.440  -0.233  0.8018 -2.5010 -1.5098
  993MOL0     H34048  11.304   9.519  -0.380  1.3980 -0.9833 -0.0048
  993MOL0     H34049  11.196   9.326  -0.514  0.2714  0.2171  0.3398
  993MOL0     H34050  11.346   9.300  -0.465 -1.0278 -3.1254 -2.1189
  993MOL0     H34051  11.120   9.040  -0.191  0.1971 -0.4441  0.7234
  993MOL0     H34052  11.146   9.559   0.075  0.2450  0.5791  1.0745
  993MOL0     H34053  11.140   9.525   0.282 -1.0013 -0.9974 -2.8222
  993MOL0     H34054  11.021   9.632   0.353 -1.0856 -0.2655  0.4792
  993MOL0     H34055  11.010   9.471   0.381  3.1759 -2.3118  0.1861
  994MOL0     O34056   9.033  11.022   6.706  0.7293  0.1978 -0.1248
  994MOL0     C34057   8.958  10.993   6.612 -0.2374 -0.4323  0.8857
  994MOL0     O34058   8.962  10.883   6.528 -0.0339 -0.4231  0.2613
  994MOL0     C34059   9.040  10.774   6.555 -0.6794 -0.7594  0.4046
  994MOL0     C34060   8.998  10.648   6.521 -0.0635 -0.6916  1.4126
  994MOL0     C34061   9.079  10.538   6.529  0.8387  0.9834  1.5878
  994MOL0     C34062   9.218  10.558   6.564 -0.5774  0.0814 -0.5936
  994MOL0     O34063   9.314  10.462   6.574  0.0926 -1.1718  0.1689
  994MOL0     C34064   9.291  10.330   6.516  0.4732  0.2419  0.9259
  994MOL0     C34065   9.282  10.320   6.356 -0.0283 -0.3606  0.0898
  994MOL0     C34066   9.407  10.369   6.293  0.3527  1.1431  0.0631
  994MOL0     C34067   9.416  10.341   6.144 -0.9210 -0.9257  0.5735
  994MOL0     C34068   9.444  10.197   6.107 -0.1917 -0.4016 -0.3947
  994MOL0     C34069   9.588  10.157   6.122 -0.2779  0.3689  0.2469
  994MOL0     C34070   9.603  10.010   6.092  0.4354  0.6900 -0.0336
  994MOL0     C34071   9.743   9.952   6.074  0.0467 -0.3016 -0.2761
  994MOL0     N34072   9.753   9.809   6.118 -0.4170  0.1143  0.9508
  994MOL0     C34073   9.653   9.709   6.125 -1.2427  1.2048  0.5783
  994MOL0     C34074   9.731   9.591   6.130 -0.6258  0.5675 -0.0763
  994MOL0     C34075   9.686   9.440   6.134  0.1001 -0.7332 -0.4527
  994MOL0     C34076   9.594   9.404   6.247  0.3300 -1.1909  0.4849
  994MOL0     C34077   9.574   9.252   6.278  0.8263  0.3977  0.4189
  994MOL0     C34078   9.536   9.170   6.155  0.1691 -0.0210 -0.0081
  994MOL0     O34079   9.464   9.054   6.198  0.5202 -0.1188 -0.6428
  994MOL0     C34080   9.441   8.961   6.102 -0.4893 -0.2038 -0.3181
  994MOL0     C34081   9.501   8.963   5.974  0.8567 -0.0625 -0.6133
  994MOL0     C34082   9.481   8.856   5.882 -0.4661 -0.4501  0.2098
  994MOL0     C34083   9.415   8.738   5.917 -0.1215 -0.8748 -0.4569
  994MOL0     C34084   9.400   8.635   5.815  1.0211  0.3666 -0.0772
  994MOL0     O34085   9.462   8.650   5.690 -0.7869  0.3085  0.1362
  994MOL0     C34086   9.451   8.543   5.603 -0.7185  0.3137  0.4168
  994MOL0     C34087   9.560   8.500   5.531 -0.1098 -0.1193  0.0546
  994MOL0     C34088   9.549   8.397   5.441  0.9143  1.0671  0.3092
  994MOL0     C34089   9.436   8.340   5.412  0.3959  0.2499 -1.2392
  994MOL0     O34090   9.439   8.251   5.307 -0.0381 -0.8911  0.1687
  994MOL0     C34091   9.552   8.239   5.222  1.4806  0.0847  0.6486
  994MOL0     C34092   9.500   8.152   5.106 -0.3043  0.0735 -0.5560
  994MOL0     C34093   9.613   8.087   5.011 -0.1454 -0.3668 -1.1022
  994MOL0     C34094   9.580   7.943   4.966  0.4168  0.4654 -0.2814
  994MOL0     C34095   9.684   7.888   4.888  0.4883 -0.3116  0.2846
  994MOL0     C34096   9.655   7.738   4.852 -0.2400 -0.6143 -0.1582
  994MOL0     C34097   9.743   7.692   4.741 -0.4521  0.3577 -0.1483
  994MOL0     C34098   9.781   7.544   4.742 -0.2632 -0.4823  1.4283
  994MOL0    Cl34099   9.853   7.511   4.587 -0.1363  0.2440  0.2514
  994MOL0     C34100   9.319   8.392   5.459 -0.3364 -0.1398  0.0844
  994MOL0     C34101   9.325   8.492   5.564 -0.7003  0.0131 -0.3164
  994MOL0     O34102   9.328   8.539   5.846  0.1448  0.9360 -0.0404
  994MOL0     C34103   9.360   8.735   6.042  0.2069 -0.5123  0.2005
  994MOL0     C34104   9.375   8.841   6.135  0.6557 -0.8369 -0.4848
  994MOL0     N34105   9.866   9.621   6.142 -0.4882  0.1579 -0.0698
  994MOL0     N34106   9.877   9.749   6.124 -0.2616  0.0302  0.8090
  994MOL0     C34107   9.254  10.682   6.614  0.3902  0.3700  0.2045
  994MOL0     C34108   9.168  10.792   6.612  1.0329  0.8436  0.2515
  994MOL0     C34109   8.836  11.087   6.600  0.3736 -0.4864  0.4214
  994MOL0     C34110   8.803  11.166   6.709 -0.1384 -0.3497 -0.3806
  994MOL0     C34111   8.686  11.248   6.733  0.0027 -0.6598 -0.3617
  994MOL0     C34112   8.599  11.246   6.621 -0.5147  0.2858  0.3072
  994MOL0     O34113   8.474  11.313   6.630 -0.3063 -0.0990 -1.1123
  994MOL0     C34114   8.376  11.238   6.712  0.4310  0.1109  0.6193
  994MOL0     C34115   8.232  11.304   6.705 -1.1047 -0.3310  0.3663
  994MOL0     C34116   8.225  11.453   6.757 -0.6960 -0.4935 -0.0147
  994MOL0     C34117   8.253  11.461   6.901  0.4609 -0.0879  0.3123
  994MOL0     C34118   8.226  11.594   6.946  0.6533  0.2845  0.7382
  994MOL0     C34119   8.182  11.697   6.972  1.3613  0.0264  0.8936
  994MOL0     C34120   8.632  11.172   6.502 -0.0545  0.4830  0.4037
  994MOL0     C34121   8.744  11.086   6.490 -0.7155 -0.1983  0.6249
  994MOL0     C34122   8.776  11.019   6.356  0.5982  0.4150 -1.0551
  994MOL0     H34123   8.897  10.634   6.484  0.5740  1.0210 -1.2981
  994MOL0     H34124   9.028  10.443   6.512 -0.7246  1.3914  3.6253
  994MOL0     H34125   9.357  10.252   6.555  0.2176  0.7421  2.4391
  994MOL0     H34126   9.192  10.295   6.546 -0.1833  0.0624 -1.2418
  994MOL0     H34127   9.194  10.376   6.326 -0.4664 -1.9928 -1.8931
  994MOL0     H34128   9.272  10.217   6.320  1.0492 -0.2755 -0.4886
  994MOL0     H34129   9.483  10.305   6.339  1.0762 -0.8026 -3.4832
  994MOL0     H34130   9.417  10.473   6.327 -0.2811  1.3667 -0.4304
  994MOL0     H34131   9.322  10.376   6.100 -0.7424 -2.5352 -1.2004
  994MOL0     H34132   9.497  10.398   6.099 -0.7476 -1.2882  0.4232
  994MOL0     H34133   9.370  10.141   6.165 -0.1741 -1.9974 -1.8662
  994MOL0     H34134   9.412  10.173   6.006  0.1285  2.3589 -1.2420
  994MOL0     H34135   9.658  10.203   6.052  2.6716  0.0931  2.7879
  994MOL0     H34136   9.624  10.181   6.223  1.2481 -0.6744 -0.0147
  994MOL0     H34137   9.555   9.980   5.998  1.3262 -4.0667  0.7336
  994MOL0     H34138   9.547   9.962   6.173  0.9515 -0.3791 -0.2802
  994MOL0     H34139   9.771   9.959   5.969 -1.0940  3.2485 -0.4888
  994MOL0     H34140   9.824  10.013   6.115 -0.8535 -0.5116  1.9544
  994MOL0     H34141   9.544   9.706   6.133 -1.3301  2.9251  0.3458
  994MOL0     H34142   9.641   9.414   6.037  1.6741  0.6203 -1.6032
  994MOL0     H34143   9.754   9.361   6.165 -1.8528 -0.9606  3.8961
  994MOL0     H34144   9.618   9.459   6.338 -0.4359 -0.2095  0.1148
  994MOL0     H34145   9.494   9.436   6.217 -0.5365 -1.9662  2.4162
  994MOL0     H34146   9.491   9.242   6.348  2.1487 -0.8197  1.8968
  994MOL0     H34147   9.660   9.205   6.328  3.1900  0.3468 -3.3099
  994MOL0     H34148   9.623   9.155   6.090  0.9390 -0.6852  1.1470
  994MOL0     H34149   9.467   9.235   6.100  0.9058  1.6313  0.9461
  994MOL0     H34150   9.564   9.047   5.945  0.6661  0.6719  0.9954
  994MOL0     H34151   9.532   8.859   5.786  0.3071 -1.3409  0.5744
  994MOL0     H34152   9.658   8.539   5.559  0.6391  2.9284 -5.3611
  994MOL0     H34153   9.647   8.370   5.403 -0.1592 -1.5525 -0.8311
  994MOL0     H34154   9.593   8.331   5.181 -1.9375  1.0119 -1.0614
  994MOL0     H34155   9.631   8.178   5.268 -0.1172 -3.1011 -0.5219
  994MOL0     H34156   9.433   8.076   5.147  1.7059 -0.4069  2.1188
  994MOL0     H34157   9.443   8.218   5.040 -1.3567  0.9701  1.1965
  994MOL0     H34158   9.640   8.150   4.926  4.2545 -0.0566  0.2857
  994MOL0     H34159   9.705   8.081   5.070 -1.7747  0.5190  1.7024
  994MOL0     H34160   9.487   7.947   4.910  2.4521 -1.9100 -4.3116
  994MOL0     H34161   9.577   7.889   5.062  2.1957 -1.1821 -1.0780
  994MOL0     H34162   9.775   7.898   4.948  0.0697  3.0730  0.5474
  994MOL0     H34163   9.702   7.947   4.797 -3.0225  0.3227 -0.1298
  994MOL0     H34164   9.656   7.674   4.941 -0.3150 -2.5039 -1.4603
  994MOL0     H34165   9.559   7.734   4.800 -1.0081  3.2200  0.6795
  994MOL0     H34166   9.832   7.753   4.756  1.5824 -2.8954  2.4749
  994MOL0     H34167   9.688   7.720   4.650 -2.8135  3.6901  2.0949
  994MOL0     H34168   9.854   7.525   4.821  0.0540 -0.5130  1.1316
  994MOL0     H34169   9.694   7.480   4.759 -1.2573 -1.2015 -4.3526
  994MOL0     H34170   9.231   8.353   5.408 -1.8273  0.3279  2.1529
  994MOL0     H34171   9.240   8.523   5.623  0.6595  1.0476  1.1609
  994MOL0     H34172   9.294   8.659   6.082 -2.4035  2.0637  1.1915
  994MOL0     H34173   9.318   8.859   6.226 -1.9684  1.8607 -2.4689
  994MOL0     H34174   9.356  10.709   6.641  1.5353 -1.2796 -2.1084
  994MOL0     H34175   9.217  10.886   6.634 -0.7195  1.4681  1.7643
  994MOL0     H34176   8.865  11.162   6.799 -1.2694 -1.6432  0.3767
  994MOL0     H34177   8.665  11.306   6.822 -1.9533 -0.1955 -1.0790
  994MOL0     H34178   8.430  11.226   6.806  0.9331 -1.0066  0.1988
  994MOL0     H34179   8.371  11.136   6.675 -0.0532  0.3973 -0.1285
  994MOL0     H34180   8.157  11.237   6.746 -1.4501 -0.3710 -0.3124
  994MOL0     H34181   8.218  11.307   6.596  4.9674 -1.0309 -0.8142
  994MOL0     H34182   8.123  11.479   6.728  0.1498  1.8783 -1.1862
  994MOL0     H34183   8.299  11.512   6.702  0.9417  0.3908  2.9124
  994MOL0     H34184   8.191  11.381   6.942  2.7528 -1.9121  0.4490
  994MOL0     H34185   8.358  11.439   6.924  0.6684 -0.6696 -1.0759
  994MOL0     H34186   8.142  11.788   7.012 -1.0537 -0.8863  0.7338
  994MOL0     H34187   8.561  11.171   6.420  2.5800  1.3137 -2.0451
  994MOL0     H34188   8.882  11.019   6.329  0.2334  0.9521 -2.6121
  994MOL0     H34189   8.726  10.922   6.357 -4.7212  2.7994 -1.4550
  994MOL0     H34190   8.718  11.079   6.285 -0.4092  1.9380  0.9817
  995MOL0     O34191   3.150   4.112  10.348 -1.2056  0.0152  0.0795
  995MOL0     C34192   3.058   4.191  10.352 -0.4245  0.5780  0.8111
  995MOL0     O34193   2.927   4.143  10.335 -0.2430  0.5028 -0.1306
  995MOL0     C34194   2.914   4.007  10.317  0.4207  0.1497 -0.4593
  995MOL0     C34195   2.829   3.939  10.412 -0.5567 -0.2713  0.2665
  995MOL0     C34196   2.810   3.800  10.400  0.5799  0.6446 -0.1612
  995MOL0     C34197   2.863   3.723  10.291 -0.2232 -0.4899 -0.0110
  995MOL0     O34198   2.830   3.592  10.296  0.1058  0.1487  0.6182
  995MOL0     C34199   2.946   3.516  10.263 -0.0642  0.8208  1.1780
  995MOL0     C34200   2.899   3.378  10.287 -0.6289  1.2039 -0.2201
  995MOL0     C34201   3.006   3.275  10.261 -0.5200 -0.3133  0.3725
  995MOL0     C34202   3.022   3.152  10.352  0.1756  0.4780  0.2269
  995MOL0     C34203   3.126   3.058  10.303 -1.1122 -0.2475  0.7892
  995MOL0     C34204   3.140   2.917  10.383 -0.5351  0.1207  0.8033
  995MOL0     C34205   3.014   2.840  10.370  0.2767  0.3436 -0.6093
  995MOL0     C34206   3.038   2.696  10.390 -0.1863  1.6597 -0.6615
  995MOL0     N34207   3.048   2.637  10.263  0.0214  0.7634 -0.1623
  995MOL0     C34208   3.170   2.589  10.216 -0.6352  0.0667 -0.5085
  995MOL0     C34209   3.139   2.553  10.094 -0.2771 -0.1465 -0.3755
  995MOL0     C34210   3.232   2.498   9.990  0.2944  0.4600 -0.2550
  995MOL0     C34211   3.294   2.364  10.048  0.7165 -0.1701 -0.0681
  995MOL0     C34212   3.432   2.338   9.990  0.8733 -0.7877  0.3277
  995MOL0     C34213   3.537   2.434  10.057  0.0808  0.5775  0.8650
  995MOL0     O34214   3.656   2.385   9.995  0.3633  0.2729 -0.7526
  995MOL0     C34215   3.774   2.437  10.042  0.1894  0.1586 -1.0858
  995MOL0     C34216   3.786   2.539  10.145  0.1832 -0.1933 -1.5844
  995MOL0     C34217   3.912   2.580  10.186 -0.7029  0.3737 -0.3012
  995MOL0     C34218   4.028   2.539  10.123 -0.3978 -0.7215  0.4328
  995MOL0     C34219   4.156   2.597  10.169  0.4336 -0.2522  0.5904
  995MOL0     O34220   4.166   2.673  10.284 -0.5462  0.8473  0.6691
  995MOL0     C34221   4.281   2.751  10.331  1.3146 -1.2494  0.1713
  995MOL0     C34222   4.420   2.751  10.290  0.2664  1.1508  0.0333
  995MOL0     C34223   4.517   2.842  10.350  0.1321 -0.4502  0.0813
  995MOL0     C34224   4.488   2.918  10.464 -0.1474 -0.2611  0.6790
  995MOL0     O34225   4.580   2.996  10.546 -0.3961  0.1505  0.1020
  995MOL0     C34226   4.630   3.110  10.472 -0.4224 -1.0319  0.7919
  995MOL0     C34227   4.781   3.133  10.494 -0.3105  0.1548  0.7503
  995MOL0     C34228   4.815   3.259  10.413  1.2709 -0.1489 -0.4636
  995MOL0     C34229   4.950   3.312  10.445 -0.2045 -0.0486 -0.4999
  995MOL0     C34230   4.998   3.429  10.353 -0.1954 -0.3834 -1.5422
  995MOL0     C34231   5.042   3.400  10.207  0.7201 -0.2425 -0.1317
  995MOL0     C34232   5.153   3.293  10.193  0.3380 -0.2587  0.1357
  995MOL0     C34233   5.142   3.255  10.041  0.8240  0.5654  0.4792
  995MOL0    Cl34234   5.236   3.102  10.003 -0.3636  0.0618 -0.0689
  995MOL0     C34235   4.349   2.918  10.499  0.8260  0.0825  0.3345
  995MOL0     C34236   4.252   2.840  10.433 -0.5341 -0.8829  0.2627
  995MOL0     O34237   4.256   2.563  10.099  0.0319 -0.1269  0.1574
  995MOL0     C34238   4.018   2.445  10.027  0.4981 -0.1788  0.9016
  995MOL0     C34239   3.896   2.398   9.986 -0.4151 -0.2963  0.5133
  995MOL0     N34240   3.000   2.567  10.075 -0.0473  0.3366  0.4046
  995MOL0     N34241   2.946   2.614  10.173 -1.2012  0.3639 -0.0219
  995MOL0     C34242   2.949   3.790  10.200 -0.5134 -0.5024 -0.0921
  995MOL0     C34243   2.971   3.930  10.208 -0.0888  0.6275 -0.1665
  995MOL0     C34244   3.075   4.335  10.365  0.1082 -0.5602  1.0566
  995MOL0     C34245   2.957   4.403  10.393  1.5094 -0.1074 -1.3270
  995MOL0     C34246   2.954   4.538  10.387  0.0318 -0.3579  0.9041
  995MOL0     C34247   3.073   4.610  10.358 -1.2631  0.1762 -0.9867
  995MOL0     O34248   3.082   4.743  10.329 -0.5794  0.6558  0.3768
  995MOL0     C34249   3.057   4.817  10.448 -0.4292  0.1918  0.2403
  995MOL0     C34250   3.177   4.899  10.470 -0.2958 -0.0023  0.2082
  995MOL0     C34251   3.171   5.013  10.577 -0.1757  0.4013  0.6552
  995MOL0     C34252   3.305   5.084  10.580  0.6740 -0.7131 -0.3412
  995MOL0     C34253   3.331   5.152  10.704 -0.3963 -0.5463 -0.7813
  995MOL0     C34254   3.366   5.198  10.810 -0.1203 -0.7960 -0.2451
  995MOL0     C34255   3.195   4.537  10.338  0.1357 -0.4967 -0.6848
  995MOL0     C34256   3.198   4.396  10.326 -0.6954 -0.3047 -0.0094
  995MOL0     C34257   3.321   4.338  10.258  0.5738  0.5963 -0.0471
  995MOL0     H34258   2.799   3.997  10.499  0.4984 -2.1657  2.0087
  995MOL0     H34259   2.738   3.749  10.464  0.8482  1.8590  1.1659
  995MOL0     H34260   2.962   3.512  10.155  1.5227  1.4791  1.3671
  995MOL0     H34261   3.033   3.551  10.320  0.7828 -0.5707  0.7784
  995MOL0     H34262   2.812   3.356  10.224  0.8319  0.9721 -2.2551
  995MOL0     H34263   2.876   3.368  10.393 -3.5289  2.4746 -0.6117
  995MOL0     H34264   3.102   3.328  10.269 -1.3131  1.2862 -0.2540
  995MOL0     H34265   2.989   3.248  10.157 -0.1079  0.3936  0.1135
  995MOL0     H34266   3.045   3.175  10.456 -0.6464 -1.4502  0.8753
  995MOL0     H34267   2.926   3.099  10.348  0.1828  0.3674  1.3077
  995MOL0     H34268   3.099   3.028  10.201 -1.2977 -1.7151  1.2418
  995MOL0     H34269   3.225   3.104  10.302 -1.8668  1.5583  1.9414
  995MOL0     H34270   3.221   2.858  10.339 -1.2792  1.5271 -2.7517
  995MOL0     H34271   3.163   2.950  10.485 -2.7036 -0.6648  1.6038
  995MOL0     H34272   2.959   2.861  10.278  1.1382 -0.2038 -1.2693
  995MOL0     H34273   2.947   2.862  10.454  2.1053 -0.8438  1.2451
  995MOL0     H34274   3.133   2.690  10.444 -1.0445  0.3579  0.7596
  995MOL0     H34275   2.968   2.643  10.455  1.0174  0.9941  0.1362
  995MOL0     H34276   3.265   2.580  10.268 -0.9045  0.9446  0.1649
  995MOL0     H34277   3.172   2.472   9.903 -0.4109 -1.2223  0.6977
  995MOL0     H34278   3.303   2.576   9.961 -0.2071  0.0874 -2.7289
  995MOL0     H34279   3.291   2.377  10.157  0.5437  2.0100 -0.2967
  995MOL0     H34280   3.219   2.287  10.024 -1.0084  2.1253 -2.5934
  995MOL0     H34281   3.423   2.357   9.882 -0.1993  3.6170  0.9806
  995MOL0     H34282   3.460   2.233   9.998 -0.5371 -1.2435 -0.3482
  995MOL0     H34283   3.527   2.414  10.164 -0.3561 -4.5286  0.1180
  995MOL0     H34284   3.512   2.538  10.037  0.8020  0.6290  0.1899
  995MOL0     H34285   3.700   2.563  10.207  1.2786 -1.5281  0.5991
  995MOL0     H34286   3.916   2.635  10.279  0.4255 -0.3752  0.1023
  995MOL0     H34287   4.452   2.688  10.208  0.5082  1.4027 -0.0668
  995MOL0     H34288   4.619   2.861  10.318 -0.2624  1.3243 -0.2035
  995MOL0     H34289   4.608   3.105  10.365  0.1289  0.7252  0.5742
  995MOL0     H34290   4.571   3.200  10.495 -0.6979 -0.5481 -1.4978
  995MOL0     H34291   4.788   3.142  10.603  3.5660 -0.5239  0.6950
  995MOL0     H34292   4.837   3.045  10.461  0.1257 -0.1402  2.2057
  995MOL0     H34293   4.806   3.231  10.308  0.4374 -2.4535  0.1648
  995MOL0     H34294   4.745   3.341  10.429  0.0123 -0.9965 -1.4165
  995MOL0     H34295   5.032   3.241  10.455  1.0565  1.7049  4.9201
  995MOL0     H34296   4.957   3.342  10.550 -1.3045 -2.5634  0.3523
  995MOL0     H34297   5.088   3.459  10.407 -2.2446 -1.3741  2.8891
  995MOL0     H34298   4.913   3.498  10.351 -1.6163 -2.0543 -2.0711
  995MOL0     H34299   4.947   3.376  10.156 -0.1263  5.2617 -1.8123
  995MOL0     H34300   5.071   3.491  10.153 -1.7339  0.3443 -0.6059
  995MOL0     H34301   5.131   3.203  10.250 -2.3938  0.5657  0.5186
  995MOL0     H34302   5.254   3.328  10.216  1.0373 -1.5877 -0.8101
  995MOL0     H34303   5.036   3.240  10.020  1.0932 -2.1467  0.6939
  995MOL0     H34304   5.182   3.334   9.976 -0.8223 -2.4177 -4.6450
  995MOL0     H34305   4.313   2.976  10.584 -1.8019  1.5389 -1.6313
  995MOL0     H34306   4.152   2.838  10.474 -0.7801  0.8470 -0.1508
  995MOL0     H34307   4.104   2.405   9.976  0.1784  0.7375 -0.4088
  995MOL0     H34308   3.895   2.320   9.911  0.6868 -0.1128  0.2985
  995MOL0     H34309   2.997   3.754  10.110  1.1426 -0.7416  0.8484
  995MOL0     H34310   3.047   3.969  10.141  2.4029  0.3744  2.3602
  995MOL0     H34311   2.870   4.354  10.436  2.4812 -3.3133 -2.6616
  995MOL0     H34312   2.865   4.598  10.403  0.3435  0.6078 -0.7021
  995MOL0     H34313   3.041   4.752  10.535 -4.0560  2.2427  1.3407
  995MOL0     H34314   2.970   4.878  10.424  0.9525  1.3683 -2.0805
  995MOL0     H34315   3.223   4.921  10.373  2.7122  2.3275  1.9926
  995MOL0     H34316   3.245   4.824  10.510  2.8667  2.3101 -0.3881
  995MOL0     H34317   3.150   4.960  10.670 -3.0224  0.3756  0.0912
  995MOL0     H34318   3.101   5.095  10.558  1.6898  2.4653  2.2538
  995MOL0     H34319   3.391   5.016  10.576  3.8248  2.9763 -2.9779
  995MOL0     H34320   3.307   5.152  10.495 -0.9725  1.2512  1.0990
  995MOL0     H34321   3.408   5.233  10.902  0.7791 -0.5352 -0.7421
  995MOL0     H34322   3.284   4.598  10.327  0.4894 -1.0134 -0.6834
  995MOL0     H34323   3.387   4.283  10.326 -2.4301 -0.0990  2.5421
  995MOL0     H34324   3.293   4.278  10.172 -2.6810  1.5623  0.2177
  995MOL0     H34325   3.364   4.428  10.214 -2.4184  1.2415 -1.9180
  996MOL0     O34326   1.832   6.457   0.004  0.0655 -0.1677  0.0215
  996MOL0     C34327   1.713   6.451  -0.000  0.4736  0.7764  0.8266
  996MOL0     O34328   1.640   6.395  -0.098  0.3010 -0.1529 -0.6206
  996MOL0     C34329   1.696   6.386  -0.221  0.1180 -0.5947 -0.2159
  996MOL0     C34330   1.772   6.272  -0.240  0.8810 -0.3955  0.2707
  996MOL0     C34331   1.830   6.244  -0.364  0.5333 -0.3265 -0.3003
  996MOL0     C34332   1.818   6.340  -0.471 -0.2346  0.5840 -1.1846
  996MOL0     O34333   1.886   6.323  -0.584  0.3749 -0.3085  0.8114
  996MOL0     C34334   1.823   6.361  -0.711  0.8846  0.3021 -0.0381
  996MOL0     C34335   1.896   6.292  -0.832  0.2900  0.4160 -1.3740
  996MOL0     C34336   1.852   6.345  -0.972 -0.4365  0.5515 -0.4803
  996MOL0     C34337   1.940   6.460  -1.014  0.9976  0.1803 -0.3229
  996MOL0     C34338   1.882   6.502  -1.152  0.7934 -0.4101 -0.2762
  996MOL0     C34339   1.992   6.539  -1.258  1.0590 -0.2536  0.2349
  996MOL0     C34340   2.041   6.677  -1.214 -0.8502  0.8013 -0.1273
  996MOL0     C34341   2.170   6.697  -1.273 -0.9680 -0.0369  0.7459
  996MOL0     N34342   2.226   6.833  -1.254  0.2809 -0.5477 -0.8442
  996MOL0     C34343   2.339   6.858  -1.192 -0.1741  1.0366 -0.0440
  996MOL0     C34344   2.354   6.989  -1.182 -0.2366  0.6969  0.3816
  996MOL0     C34345   2.453   7.063  -1.104 -0.5481  0.9901  0.3155
  996MOL0     C34346   2.386   7.130  -0.986 -0.2071 -0.0174  0.3270
  996MOL0     C34347   2.444   7.268  -0.959  0.3528 -1.1921  0.5591
  996MOL0     C34348   2.577   7.252  -0.893 -0.1606  0.6059 -0.2681
  996MOL0     O34349   2.641   7.381  -0.886  0.0636  0.1187 -0.8182
  996MOL0     C34350   2.621   7.462  -0.774 -0.8200 -0.2609  0.3227
  996MOL0     C34351   2.603   7.424  -0.639  0.1637  0.5200  0.5934
  996MOL0     C34352   2.622   7.516  -0.545 -0.0848 -0.4392 -0.3650
  996MOL0     C34353   2.615   7.651  -0.570 -0.4033 -0.2926 -1.4412
  996MOL0     C34354   2.616   7.755  -0.461  0.5019 -0.6929 -0.0054
  996MOL0     O34355   2.599   7.886  -0.488 -0.4191 -0.9337  0.7630
  996MOL0     C34356   2.618   7.991  -0.404 -0.3596  0.5819 -0.0585
  996MOL0     C34357   2.542   8.110  -0.424  1.4167 -0.2391  0.0430
  996MOL0     C34358   2.556   8.220  -0.333  0.0510 -0.6790  0.0569
  996MOL0     C34359   2.632   8.204  -0.220 -0.6167  0.6222  0.4510
  996MOL0     O34360   2.638   8.286  -0.113  0.6293  0.0970 -0.8116
  996MOL0     C34361   2.610   8.419  -0.127  0.2156 -0.5850  0.2548
  996MOL0     C34362   2.614   8.475   0.016 -0.3626 -0.1583 -0.3727
  996MOL0     C34363   2.587   8.629   0.040  0.0062 -0.6878  0.0373
  996MOL0     C34364   2.576   8.667   0.187 -0.1668 -0.1722  0.1134
  996MOL0     C34365   2.572   8.820   0.209 -0.0904  0.9913  0.5306
  996MOL0     C34366   2.524   8.862   0.355 -0.4084 -0.4216 -0.4739
  996MOL0     C34367   2.522   9.008   0.367 -0.1456 -0.6827 -0.5287
  996MOL0     C34368   2.556   9.056   0.500 -0.0168  0.4335  1.4526
  996MOL0    Cl34369   2.724   9.079   0.515  0.4309  0.0644 -0.5218
  996MOL0     C34370   2.700   8.091  -0.200  0.2253  0.7771 -1.9737
  996MOL0     C34371   2.702   7.984  -0.293 -0.1465 -0.0659 -0.9158
  996MOL0     O34372   2.624   7.705  -0.348  0.2590 -0.3751  0.6328
  996MOL0     C34373   2.625   7.689  -0.702  0.1320 -0.2850  0.4211
  996MOL0     C34374   2.624   7.591  -0.807  0.4468 -0.5939 -0.0594
  996MOL0     N34375   2.253   7.045  -1.245  0.4662  0.0171  0.3064
  996MOL0     N34376   2.177   6.952  -1.298 -0.1129 -0.6384 -0.2360
  996MOL0     C34377   1.727   6.442  -0.455  0.0775 -0.4455 -0.1967
  996MOL0     C34378   1.666   6.475  -0.337  0.0832  0.0019 -0.8222
  996MOL0     C34379   1.635   6.500   0.116  0.0500 -0.8430 -0.5354
  996MOL0     C34380   1.710   6.493   0.234 -0.7902  0.2839 -0.1547
  996MOL0     C34381   1.651   6.551   0.354  0.0995  0.3207  0.0915
  996MOL0     C34382   1.536   6.621   0.349  0.2433 -0.0693 -0.2483
  996MOL0     O34383   1.476   6.694   0.452 -0.5315 -0.4822 -0.3112
  996MOL0     C34384   1.525   6.663   0.585  0.4342 -0.9272 -0.8405
  996MOL0     C34385   1.443   6.740   0.689 -0.4549 -0.0915  0.3118
  996MOL0     C34386   1.502   6.708   0.825  0.1379  0.6838  0.6957
  996MOL0     C34387   1.465   6.801   0.930  0.0474  0.7250 -0.7325
  996MOL0     C34388   1.324   6.826   0.944  0.3922  0.8831 -0.2769
  996MOL0     C34389   1.207   6.822   0.937 -0.2947  0.3410 -0.0276
  996MOL0     C34390   1.467   6.619   0.225  0.2760 -0.1159 -0.3801
  996MOL0     C34391   1.514   6.566   0.106 -0.5681  0.3922 -0.9344
  996MOL0     C34392   1.434   6.578  -0.029  0.2885 -0.3538  0.3368
  996MOL0     H34393   1.797   6.209  -0.155 -0.8446 -0.1284  1.0186
  996MOL0     H34394   1.903   6.164  -0.375  0.4564 -0.2326 -1.7115
  996MOL0     H34395   1.717   6.347  -0.733  1.2747 -1.3105 -1.0625
  996MOL0     H34396   1.833   6.470  -0.718 -0.4816  0.5223  1.1486
  996MOL0     H34397   1.882   6.185  -0.816  2.5695  0.2364 -0.0861
  996MOL0     H34398   2.002   6.308  -0.810  0.0057  1.9579 -1.0157
  996MOL0     H34399   1.744   6.361  -0.969 -0.6366 -0.2032  3.8391
  996MOL0     H34400   1.868   6.265  -1.045 -4.6295 -2.9234  1.9079
  996MOL0     H34401   1.934   6.537  -0.936  0.4921 -1.5483  1.4072
  996MOL0     H34402   2.043   6.422  -1.016  1.0871  0.4235 -0.5123
  996MOL0     H34403   1.818   6.422  -1.189  0.4356 -0.4980  0.5271
  996MOL0     H34404   1.824   6.590  -1.120  1.7544 -0.5074  1.8759
  996MOL0     H34405   2.072   6.465  -1.263 -0.3198 -1.9960  2.2483
  996MOL0     H34406   1.953   6.550  -1.360 -0.3768 -1.0597  0.6694
  996MOL0     H34407   2.047   6.688  -1.105 -3.7802  2.2782 -0.0239
  996MOL0     H34408   1.974   6.754  -1.253 -1.2489 -0.7920 -2.7942
  996MOL0     H34409   2.233   6.617  -1.233  0.8388  0.4449 -0.9757
  996MOL0     H34410   2.163   6.695  -1.382  0.9655 -1.9801  0.5977
  996MOL0     H34411   2.401   6.782  -1.145 -2.6197 -1.5869 -0.7954
  996MOL0     H34412   2.538   7.003  -1.070  1.4105  1.0833 -3.7556
  996MOL0     H34413   2.492   7.133  -1.179 -3.3906  3.2850  0.8224
  996MOL0     H34414   2.279   7.133  -1.006 -0.2656 -0.8075  0.4966
  996MOL0     H34415   2.390   7.079  -0.889  1.2462 -1.8028 -0.6184
  996MOL0     H34416   2.383   7.327  -0.890  1.3674  2.3071 -1.2703
  996MOL0     H34417   2.454   7.324  -1.052 -1.6468  1.0094  1.5630
  996MOL0     H34418   2.637   7.181  -0.951 -1.6851  0.1247 -1.3218
  996MOL0     H34419   2.575   7.206  -0.794  1.0943 -0.6835 -0.8105
  996MOL0     H34420   2.602   7.321  -0.607  3.2368  0.6235  1.2761
  996MOL0     H34421   2.613   7.477  -0.444 -2.3610  0.4396 -0.1690
  996MOL0     H34422   2.474   8.132  -0.505  0.5226  0.0311  0.8522
  996MOL0     H34423   2.506   8.313  -0.357 -0.2739 -0.7720  0.3705
  996MOL0     H34424   2.677   8.471  -0.196  0.3947 -4.5746 -2.8971
  996MOL0     H34425   2.510   8.444  -0.164 -0.5028 -0.3714  2.2166
  996MOL0     H34426   2.542   8.415   0.073 -2.4414  1.1595 -1.5238
  996MOL0     H34427   2.715   8.446   0.048  0.8430  2.8427 -1.1865
  996MOL0     H34428   2.687   8.667   0.017  0.0233  0.3304  1.6569
  996MOL0     H34429   2.508   8.681  -0.015  1.4211  1.7293  0.1618
  996MOL0     H34430   2.657   8.633   0.253 -0.6976  1.4676  1.6901
  996MOL0     H34431   2.479   8.634   0.224 -0.5597 -2.9398 -2.9865
  996MOL0     H34432   2.526   8.877   0.128  1.7800  1.5995 -0.1425
  996MOL0     H34433   2.674   8.859   0.204  0.6465 -0.8127  0.7658
  996MOL0     H34434   2.426   8.815   0.372 -0.8715  0.0777 -1.6357
  996MOL0     H34435   2.603   8.829   0.423 -0.5726  0.8251  0.3515
  996MOL0     H34436   2.419   9.038   0.346  0.4677  0.4958 -2.1069
  996MOL0     H34437   2.578   9.065   0.292  0.8416  1.4514  1.6785
  996MOL0     H34438   2.515   9.154   0.530  2.0300  0.7989  3.3037
  996MOL0     H34439   2.520   8.989   0.578 -2.9803 -0.0828 -0.2128
  996MOL0     H34440   2.764   8.084  -0.112  0.3781  3.7699 -1.7564
  996MOL0     H34441   2.767   7.902  -0.263 -0.8032  0.2794  1.6486
  996MOL0     H34442   2.620   7.794  -0.730 -0.0827 -0.7712 -1.5312
  996MOL0     H34443   2.630   7.633  -0.907  1.5690  2.5275  1.1928
  996MOL0     H34444   1.729   6.506  -0.542 -0.5951 -0.1263  0.0209
  996MOL0     H34445   1.606   6.564  -0.324  2.4026  1.4224  0.9577
  996MOL0     H34446   1.800   6.432   0.237 -0.6900  0.3375 -1.5716
  996MOL0     H34447   1.697   6.535   0.451 -1.9851 -0.7676  0.9635
  996MOL0     H34448   1.628   6.698   0.592 -0.1666  1.0277 -1.1725
  996MOL0     H34449   1.518   6.556   0.608 -0.1039 -0.1760  3.2052
  996MOL0     H34450   1.335   6.721   0.690 -0.9377  2.2804  0.8004
  996MOL0     H34451   1.460   6.847   0.673 -5.3525  1.4056  3.0436
  996MOL0     H34452   1.609   6.733   0.827  0.0351  1.6145 -1.6510
  996MOL0     H34453   1.487   6.604   0.857 -1.2929  0.9379  0.8842
  996MOL0     H34454   1.507   6.771   1.027  2.5613  1.8261 -1.4046
  996MOL0     H34455   1.514   6.898   0.920  1.4133  0.8126  3.9485
  996MOL0     H34456   1.102   6.829   0.919 -0.5876 -0.3580  1.2599
  996MOL0     H34457   1.374   6.666   0.195  0.0789 -1.7428 -2.5978
  996MOL0     H34458   1.494   6.626  -0.107  0.5948 -1.2272  0.0227
  996MOL0     H34459   1.404   6.479  -0.063 -0.3634 -0.4943  1.2933
  996MOL0     H34460   1.348   6.645  -0.020 -2.3842 -2.4458 -5.1754
  997MOL0     O34461   8.237   6.214   3.966 -0.0205  0.6796 -0.7243
  997MOL0     C34462   8.304   6.312   3.990 -0.6248 -0.6753  0.7081
  997MOL0     O34463   8.334   6.402   3.887  0.8002 -0.2516 -0.1288
  997MOL0     C34464   8.326   6.360   3.752  0.0353  0.0714 -0.9266
  997MOL0     C34465   8.330   6.229   3.702 -0.4407 -0.2089  0.4288
  997MOL0     C34466   8.335   6.204   3.569  0.3105 -0.3524  0.8104
  997MOL0     C34467   8.350   6.306   3.474  0.2716  0.5839 -0.4036
  997MOL0     O34468   8.363   6.292   3.339 -0.8595 -0.4344  0.2456
  997MOL0     C34469   8.303   6.176   3.291 -0.5609 -0.4763  0.0074
  997MOL0     C34470   8.258   6.185   3.146 -0.7061 -0.1099 -0.3040
  997MOL0     C34471   8.368   6.222   3.044  0.1188  0.9430 -0.4326
  997MOL0     C34472   8.321   6.305   2.924 -0.5600  0.7389  0.1311
  997MOL0     C34473   8.408   6.288   2.798 -0.2255  0.4940  1.0878
  997MOL0     C34474   8.343   6.342   2.669 -0.2864 -0.3965  0.4491
  997MOL0     C34475   8.370   6.498   2.683  0.5005  0.4791  0.0796
  997MOL0     C34476   8.343   6.586   2.563 -0.2767 -0.2581 -0.0498
  997MOL0     N34477   8.357   6.525   2.428 -0.7567 -0.0337 -0.1743
  997MOL0     C34478   8.475   6.462   2.393  0.8387  0.9290  0.6243
  997MOL0     C34479   8.435   6.362   2.310 -0.1705 -0.2903  1.0498
  997MOL0     C34480   8.530   6.256   2.242 -0.8683 -0.6666  0.0301
  997MOL0     C34481   8.506   6.116   2.287 -1.0435 -0.7690 -0.2275
  997MOL0     C34482   8.422   6.041   2.177  0.0133 -0.0264 -0.0319
  997MOL0     C34483   8.366   5.898   2.198 -0.0702  1.1201 -0.0036
  997MOL0     O34484   8.235   5.887   2.148 -0.4317 -0.1695  0.6319
  997MOL0     C34485   8.156   5.775   2.162  0.6823 -0.6785 -0.5780
  997MOL0     C34486   8.192   5.642   2.192  0.2109 -0.0478  0.7017
  997MOL0     C34487   8.102   5.536   2.186  0.9502 -0.0531  0.4168
  997MOL0     C34488   7.980   5.564   2.138 -1.1369  1.5702 -0.8228
  997MOL0     C34489   7.879   5.457   2.119 -0.6221  0.2183 -0.1652
  997MOL0     O34490   7.754   5.493   2.085  0.5533  0.0417 -0.3974
  997MOL0     C34491   7.651   5.399   2.081 -0.3225 -0.4833  0.2481
  997MOL0     C34492   7.528   5.433   2.148  0.5156  0.0193 -0.2652
  997MOL0     C34493   7.421   5.342   2.144  0.9188 -0.6963  0.6443
  997MOL0     C34494   7.424   5.231   2.054 -0.9681  0.4082 -1.0682
  997MOL0     O34495   7.312   5.150   2.052 -0.2726  0.2631 -0.2176
  997MOL0     C34496   7.295   5.067   1.940  0.0564  0.5385  0.3820
  997MOL0     C34497   7.163   4.990   1.948 -0.4538 -0.1843 -0.1165
  997MOL0     C34498   7.037   5.071   1.920  0.2111 -0.4363 -0.3580
  997MOL0     C34499   6.906   4.993   1.959 -0.1442 -0.1884 -0.1928
  997MOL0     C34500   6.793   5.101   1.920  0.7159  0.2499  0.5126
  997MOL0     C34501   6.767   5.231   2.004  0.0432 -0.1946 -1.1193
  997MOL0     C34502   6.667   5.312   1.925  0.1462  0.3033 -0.3293
  997MOL0     C34503   6.745   5.411   1.830  0.8362 -0.3344  0.6007
  997MOL0    Cl34504   6.631   5.499   1.710  0.0084  0.6260  0.5288
  997MOL0     C34505   7.540   5.207   1.983  0.3051  0.3615 -0.5487
  997MOL0     C34506   7.652   5.288   2.000 -0.2302  0.1138 -0.5990
  997MOL0     O34507   7.913   5.343   2.136  0.0286  0.5066  0.0557
  997MOL0     C34508   7.936   5.691   2.109 -0.7592 -0.0544  0.5154
  997MOL0     C34509   8.023   5.799   2.129  0.1227  0.0890  0.7260
  997MOL0     N34510   8.296   6.372   2.290  0.3502 -0.7638  0.1949
  997MOL0     N34511   8.255   6.480   2.352  0.4273  1.2744  0.1103
  997MOL0     C34512   8.346   6.438   3.524 -0.6401 -0.0102 -0.6181
  997MOL0     C34513   8.330   6.468   3.661  1.0402 -0.1651 -0.1937
  997MOL0     C34514   8.327   6.360   4.123 -0.2062  0.9145 -0.6356
  997MOL0     C34515   8.358   6.496   4.147  0.0689 -0.3981  0.1366
  997MOL0     C34516   8.370   6.547   4.280 -0.0384  0.2880  0.0756
  997MOL0     C34517   8.338   6.463   4.391 -1.0318  0.4214 -0.8021
  997MOL0     O34518   8.353   6.504   4.524  0.2889  0.5249  1.1796
  997MOL0     C34519   8.317   6.638   4.546 -0.7354 -0.5978  0.6515
  997MOL0     C34520   8.347   6.672   4.684  0.2300  0.2925  0.0579
  997MOL0     C34521   8.477   6.618   4.735 -0.1205  0.4798  0.1443
  997MOL0     C34522   8.498   6.652   4.884 -0.0012  0.2197  0.1058
  997MOL0     C34523   8.387   6.588   4.957  1.1872  0.2857 -0.1612
  997MOL0     C34524   8.287   6.547   5.019  0.9057  0.5202 -0.0445
  997MOL0     C34525   8.326   6.336   4.367 -0.0512 -0.8810  0.0439
  997MOL0     C34526   8.318   6.277   4.239  0.5064  0.3646 -0.4147
  997MOL0     C34527   8.282   6.127   4.236 -0.2104 -0.3400  0.2441
  997MOL0     H34528   8.350   6.145   3.768  2.4074  1.3405  1.7489
  997MOL0     H34529   8.336   6.099   3.541  3.4156 -0.0198 -0.6916
  997MOL0     H34530   8.366   6.088   3.302 -0.2861 -0.8124 -3.1717
  997MOL0     H34531   8.210   6.156   3.346  1.5943 -1.8711  3.4334
  997MOL0     H34532   8.190   6.271   3.137  0.2794  0.5434 -1.9954
  997MOL0     H34533   8.207   6.096   3.107 -0.0941  0.4584 -2.5406
  997MOL0     H34534   8.415   6.128   3.016 -0.0723 -0.2067  2.6888
  997MOL0     H34535   8.435   6.287   3.102 -0.5019 -0.1572  1.6274
  997MOL0     H34536   8.221   6.277   2.889 -1.1685  1.1479  1.4656
  997MOL0     H34537   8.303   6.410   2.950 -0.1740  0.4088  1.8615
  997MOL0     H34538   8.509   6.329   2.809  0.0623 -0.3027  1.5136
  997MOL0     H34539   8.429   6.181   2.784  0.4940  0.9059 -1.7283
  997MOL0     H34540   8.403   6.300   2.588 -1.3632 -2.9624  0.8900
  997MOL0     H34541   8.242   6.300   2.664 -0.2537 -0.3241 -2.0081
  997MOL0     H34542   8.478   6.507   2.693  0.9689 -0.1589 -3.2650
  997MOL0     H34543   8.323   6.553   2.766  0.0132 -0.3144  0.3365
  997MOL0     H34544   8.241   6.624   2.563  0.1468  1.1424 -2.8108
  997MOL0     H34545   8.420   6.664   2.557  0.2662 -0.8926 -2.2879
  997MOL0     H34546   8.574   6.466   2.437  2.4354 -1.3832 -2.4006
  997MOL0     H34547   8.528   6.263   2.133  0.8052 -3.4921 -0.2901
  997MOL0     H34548   8.632   6.279   2.272 -0.0022 -2.5976 -1.2117
  997MOL0     H34549   8.604   6.071   2.309 -2.8921 -4.5227  1.3005
  997MOL0     H34550   8.453   6.118   2.383  0.6779 -2.5216  0.8296
  997MOL0     H34551   8.468   6.041   2.078  1.0882  0.7606  0.4469
  997MOL0     H34552   8.338   6.110   2.164  1.2256  1.0185 -3.5579
  997MOL0     H34553   8.358   5.862   2.301 -0.8231  0.0836 -0.4048
  997MOL0     H34554   8.426   5.822   2.146 -0.3387 -0.7079  2.1598
  997MOL0     H34555   8.297   5.623   2.215  1.3788  1.2269 -2.8757
  997MOL0     H34556   8.134   5.434   2.208  0.3113 -0.4875 -0.5704
  997MOL0     H34557   7.524   5.527   2.202  2.9888  1.0010 -1.6558
  997MOL0     H34558   7.336   5.368   2.206  2.5694 -0.9873  3.1292
  997MOL0     H34559   7.286   5.140   1.858  1.8556 -0.7983 -1.0732
  997MOL0     H34560   7.381   5.012   1.903 -0.8673 -0.7705  0.1207
  997MOL0     H34561   7.176   4.899   1.888  1.7724 -1.5643  2.2523
  997MOL0     H34562   7.153   4.949   2.049  0.6210  1.8503  0.8734
  997MOL0     H34563   7.040   5.161   1.981 -3.4705 -1.1600  1.1705
  997MOL0     H34564   7.023   5.086   1.813 -0.7074  0.9243 -0.0717
  997MOL0     H34565   6.904   4.980   2.067 -1.3471 -0.4494 -0.2347
  997MOL0     H34566   6.906   4.902   1.898 -1.7587 -0.1817 -0.2664
  997MOL0     H34567   6.700   5.044   1.928 -0.0518  1.6573  2.0581
  997MOL0     H34568   6.817   5.123   1.816  2.3430 -2.7565  0.1337
  997MOL0     H34569   6.724   5.198   2.099  4.4725 -5.4825 -0.4296
  997MOL0     H34570   6.863   5.281   2.013  0.1406 -0.7545  1.9402
  997MOL0     H34571   6.598   5.362   1.993 -3.3045 -4.7730  0.4992
  997MOL0     H34572   6.601   5.248   1.865 -2.1047  0.4968  1.8142
  997MOL0     H34573   6.798   5.489   1.887 -0.4095 -0.5003  2.0470
  997MOL0     H34574   6.816   5.357   1.768 -0.7159 -1.4358 -0.2762
  997MOL0     H34575   7.558   5.127   1.912 -0.8677 -0.5550  0.1547
  997MOL0     H34576   7.735   5.265   1.934  0.4418 -0.0454  0.2808
  997MOL0     H34577   7.838   5.713   2.068 -0.5832  0.7646  0.4986
  997MOL0     H34578   8.008   5.904   2.105  1.7978  0.0112 -0.9478
  997MOL0     H34579   8.358   6.523   3.457  1.9861  2.0811  2.2215
  997MOL0     H34580   8.330   6.570   3.698 -0.4502 -0.6259  1.1915
  997MOL0     H34581   8.360   6.569   4.067  1.2183  0.6306  1.0527
  997MOL0     H34582   8.404   6.646   4.307 -1.2679  1.0835 -1.1357
  997MOL0     H34583   8.210   6.632   4.529 -0.6262 -0.6149 -0.0421
  997MOL0     H34584   8.364   6.711   4.480 -1.0060 -1.6157 -0.7090
  997MOL0     H34585   8.267   6.635   4.748  0.4410  0.1887  0.2647
  997MOL0     H34586   8.356   6.781   4.686  0.1998  0.4883 -3.3717
  997MOL0     H34587   8.559   6.669   4.685  1.0475 -0.7167  0.7713
  997MOL0     H34588   8.481   6.509   4.727  0.3975  0.5412 -0.4806
  997MOL0     H34589   8.592   6.602   4.910 -0.3977 -1.9355 -2.2895
  997MOL0     H34590   8.487   6.761   4.897 -1.2387 -0.0965  2.1040
  997MOL0     H34591   8.198   6.502   5.058 -1.0830  2.6557 -1.8479
  997MOL0     H34592   8.337   6.290   4.465 -0.2542  0.6906  0.8278
  997MOL0     H34593   8.368   6.073   4.195  0.9637  2.2188 -0.8939
  997MOL0     H34594   8.281   6.086   4.337 -0.1943  0.3295  0.5214
  997MOL0     H34595   8.196   6.094   4.176  0.4039  0.9872 -1.4560
  998MOL0     O34596  10.555   0.298  10.865  0.3734 -0.3653 -0.1122
  998MOL0     C34597  10.523   0.349  10.759 -0.4611  0.6263 -1.3450
  998MOL0     O34598  10.604   0.400  10.658 -0.3878  0.1245  0.3933
  998MOL0     C34599  10.739   0.390  10.668 -1.2050  0.6169  0.6860
  998MOL0     C34600  10.814   0.276  10.690  0.0963  0.0195  0.6925
  998MOL0     C34601  10.938   0.271  10.753  0.1761  0.3651  0.2877
  998MOL0     C34602  11.015   0.385  10.763  0.5893 -0.0354  0.2856
  998MOL0     O34603  11.133   0.385  10.833 -0.7022 -0.7737  0.1611
  998MOL0     C34604  11.178   0.279  10.919  0.4695  0.4619  0.6372
  998MOL0     C34605  11.278   0.181  10.850  0.8118 -0.8526  0.2886
  998MOL0     C34606  11.338   0.066  10.937  0.2294  1.1041  0.0526
  998MOL0     C34607  11.435  -0.036  10.865  0.9020  0.1850 -1.1241
  998MOL0     C34608  11.494  -0.148  10.964 -0.9949  0.4559  0.0353
  998MOL0     C34609  11.397  -0.258  11.002  0.6354 -0.5733 -0.2445
  998MOL0     C34610  11.448  -0.360  11.107 -0.3589  0.2938 -0.2251
  998MOL0     C34611  11.579  -0.420  11.061 -0.4880  0.3710 -0.3763
  998MOL0     N34612  11.590  -0.536  11.146  0.6277  0.7767 -0.3555
  998MOL0     C34613  11.569  -0.548  11.283  0.1055  0.6764 -0.7679
  998MOL0     C34614  11.611  -0.676  11.318 -0.2044  1.1416 -0.7041
  998MOL0     C34615  11.605  -0.747  11.452 -1.1906 -0.5362 -0.2991
  998MOL0     C34616  11.464  -0.749  11.504  0.4074  0.5592  0.2117
  998MOL0     C34617  11.383  -0.854  11.421 -0.1768  0.0281  0.2301
  998MOL0     C34618  11.229  -0.838  11.437  0.0574  0.7290 -0.0386
  998MOL0     O34619  11.178  -0.967  11.473  0.1510  0.6315 -0.1551
  998MOL0     C34620  11.045  -0.998  11.454 -1.0051 -0.1008  0.8933
  998MOL0     C34621  10.953  -0.902  11.418  0.1950  0.4216 -0.5407
  998MOL0     C34622  10.824  -0.933  11.380 -0.3259  0.5326  0.4136
  998MOL0     C34623  10.778  -1.069  11.371 -0.6091 -0.1238  0.5332
  998MOL0     C34624  10.652  -1.109  11.319  0.0943  0.2687  0.3124
  998MOL0     O34625  10.559  -1.004  11.322  0.2357  0.5069 -0.5300
  998MOL0     C34626  10.441  -1.022  11.261  0.2999  0.1917  0.0055
  998MOL0     C34627  10.405  -0.928  11.166 -1.3123  0.3859  0.2425
  998MOL0     C34628  10.278  -0.938  11.102 -1.2565  0.4097 -0.1472
  998MOL0     C34629  10.190  -1.047  11.131  0.1404  0.3990  0.1729
  998MOL0     O34630  10.071  -1.056  11.056  0.3746 -0.1217 -0.0651
  998MOL0     C34631  10.079  -1.138  10.940 -0.6530 -0.3252 -0.0990
  998MOL0     C34632   9.999  -1.077  10.829  0.1096 -0.2934 -0.2611
  998MOL0     C34633   9.981  -1.187  10.724 -0.4558 -0.2732 -0.2143
  998MOL0     C34634   9.932  -1.139  10.590  0.1651  0.1180 -0.0289
  998MOL0     C34635   9.960  -1.227  10.470  0.4194 -0.1637 -0.1112
  998MOL0     C34636  10.101  -1.219  10.415  0.4106  0.0258  0.3701
  998MOL0     C34637  10.130  -1.332  10.314 -0.0187  0.4309 -0.4032
  998MOL0     C34638  10.273  -1.310  10.256 -0.2280  0.6219 -0.6566
  998MOL0    Cl34639  10.265  -1.152  10.154 -0.4491  0.1599  0.0648
  998MOL0     C34640  10.229  -1.146  11.229 -0.3474 -0.6182  0.3698
  998MOL0     C34641  10.357  -1.129  11.285 -0.2345 -0.1566 -0.0589
  998MOL0     O34642  10.633  -1.215  11.262  0.0811  1.3199 -0.3032
  998MOL0     C34643  10.867  -1.166  11.411 -0.0990 -0.9781  0.0755
  998MOL0     C34644  10.993  -1.127  11.457  0.4076  0.6179  0.3227
  998MOL0     N34645  11.650  -0.736  11.202 -0.0663 -0.0865  0.1054
  998MOL0     N34646  11.636  -0.661  11.104  0.3828 -0.3413 -0.4727
  998MOL0     C34647  10.963   0.497  10.695  0.2906 -0.4075 -0.3686
  998MOL0     C34648  10.821   0.507  10.662 -1.0873 -0.2154 -0.2739
  998MOL0     C34649  10.382   0.336  10.733  0.3828 -0.4487  0.2271
  998MOL0     C34650  10.333   0.276  10.623  0.7604  0.0229  0.0934
  998MOL0     C34651  10.206   0.271  10.576  0.9806  0.2826 -0.3176
  998MOL0     C34652  10.106   0.318  10.662  0.4762  0.7153  0.1316
  998MOL0     O34653   9.969   0.295  10.640 -0.5363  0.0788  0.5534
  998MOL0     C34654   9.909   0.405  10.584  0.0941 -0.1228  0.6772
  998MOL0     C34655   9.793   0.455  10.669  0.8966 -0.3788  0.5665
  998MOL0     C34656   9.669   0.362  10.683  0.1299 -0.7118  0.4908
  998MOL0     C34657   9.574   0.405  10.787 -0.4422  0.4175 -1.4421
  998MOL0     C34658   9.467   0.297  10.786 -0.5102 -0.6709  0.5486
  998MOL0     C34659   9.359   0.223  10.792  0.5033  0.2551 -0.3218
  998MOL0     C34660  10.142   0.383  10.777 -0.2687 -0.0855  0.6811
  998MOL0     C34661  10.277   0.404  10.812 -0.1076  0.0669 -0.0501
  998MOL0     C34662  10.307   0.490  10.937  0.5062  0.3511 -0.0931
  998MOL0     H34663  10.771   0.177  10.692 -2.6200  1.0845  0.2080
  998MOL0     H34664  10.986   0.180  10.784  0.0980  0.9342  2.1980
  998MOL0     H34665  11.237   0.319  11.003  2.1892 -0.6886  0.0387
  998MOL0     H34666  11.094   0.223  10.961 -2.0495  0.2553 -4.0444
  998MOL0     H34667  11.363   0.236  10.810  0.0570  1.0139  1.1168
  998MOL0     H34668  11.229   0.136  10.763  0.8557 -2.2859  0.9753
  998MOL0     H34669  11.251   0.024  10.987  0.8969  1.7704  1.8638
  998MOL0     H34670  11.394   0.120  11.014 -2.6291  4.0876  0.2603
  998MOL0     H34671  11.373  -0.083  10.788 -2.2742  2.8318 -0.4140
  998MOL0     H34672  11.516   0.005  10.804 -0.7187  4.3481 -0.8326
  998MOL0     H34673  11.576  -0.196  10.909 -2.3850 -0.3376 -1.4286
  998MOL0     H34674  11.542  -0.118  11.057 -0.6879 -1.9252  0.7122
  998MOL0     H34675  11.310  -0.208  11.045  0.8312  0.1889 -0.7085
  998MOL0     H34676  11.358  -0.314  10.916  3.2953 -2.2377 -0.4775
  998MOL0     H34677  11.366  -0.432  11.104 -1.5054  1.3154  2.9706
  998MOL0     H34678  11.461  -0.325  11.210  0.9171  0.7084 -0.5072
  998MOL0     H34679  11.570  -0.456  10.958  3.2058  1.6035 -1.3016
  998MOL0     H34680  11.665  -0.353  11.054 -0.5672  0.3381 -2.3573
  998MOL0     H34681  11.533  -0.480  11.360 -0.1856  0.4324 -0.6870
  998MOL0     H34682  11.639  -0.850  11.440 -1.7052 -0.9377  1.5010
  998MOL0     H34683  11.663  -0.693  11.527  1.3682 -2.7785 -0.5063
  998MOL0     H34684  11.480  -0.768  11.610  3.4239  1.9909  0.1354
  998MOL0     H34685  11.407  -0.656  11.493 -2.9219 -1.5912 -2.5090
  998MOL0     H34686  11.420  -0.954  11.444  0.1277 -0.5392 -2.3810
  998MOL0     H34687  11.395  -0.840  11.313 -4.9698 -0.7050 -0.6474
  998MOL0     H34688  11.173  -0.798  11.352 -2.9716  0.6594  1.7728
  998MOL0     H34689  11.214  -0.773  11.524 -0.7894  2.3663 -1.3566
  998MOL0     H34690  10.994  -0.802  11.420  0.8645  0.1458  1.0820
  998MOL0     H34691  10.762  -0.854  11.340 -2.7711 -2.3054 -1.8418
  998MOL0     H34692  10.478  -0.852  11.143 -1.2033 -0.4877 -2.7106
  998MOL0     H34693  10.252  -0.863  11.028 -4.1487  0.8555  1.2075
  998MOL0     H34694  10.184  -1.143  10.910  0.4146  0.3174  3.1384
  998MOL0     H34695  10.049  -1.240  10.965 -1.3102  0.1344  1.0699
  998MOL0     H34696   9.896  -1.045  10.847  0.3388  0.4511 -0.2390
  998MOL0     H34697  10.052  -0.989  10.791  0.0562  0.1255  0.6047
  998MOL0     H34698  10.075  -1.241  10.709 -1.3502 -3.3200  3.4968
  998MOL0     H34699   9.910  -1.253  10.775 -2.7581  1.3780 -1.1272
  998MOL0     H34700   9.986  -1.048  10.562  0.6765 -0.6613 -1.6979
  998MOL0     H34701   9.825  -1.117  10.598  0.1226  0.8677 -2.0539
  998MOL0     H34702   9.905  -1.185  10.385 -0.3420  1.0891  0.9789
  998MOL0     H34703   9.931  -1.331  10.488  1.0169 -0.1271  1.1409
  998MOL0     H34704  10.127  -1.123  10.368 -0.9016  0.1952 -0.0599
  998MOL0     H34705  10.165  -1.227  10.503 -1.1154  1.0087  1.6345
  998MOL0     H34706  10.055  -1.332  10.235 -0.9139  1.1874  0.4257
  998MOL0     H34707  10.133  -1.428  10.367  1.4671 -1.4719 -3.6003
  998MOL0     H34708  10.349  -1.311  10.334  1.6002 -2.2894 -2.3059
  998MOL0     H34709  10.296  -1.393  10.188  0.3696 -0.0614  0.3639
  998MOL0     H34710  10.173  -1.234  11.257 -3.0310  1.2918  1.4011
  998MOL0     H34711  10.400  -1.209  11.346  0.2042 -1.0026 -1.4250
  998MOL0     H34712  10.834  -1.268  11.426  0.8910 -1.4761 -0.9837
  998MOL0     H34713  11.051  -1.203  11.510  1.6029 -0.1407 -1.9336
  998MOL0     H34714  11.030   0.583  10.692  2.0342 -1.7280 -2.4911
  998MOL0     H34715  10.779   0.606  10.642 -1.9437 -0.7663 -1.3272
  998MOL0     H34716  10.414   0.235  10.562  2.4444  3.6410 -0.3696
  998MOL0     H34717  10.190   0.224  10.480  2.5681 -1.5798  0.2555
  998MOL0     H34718   9.868   0.386  10.485 -0.4409 -0.0306  0.8774
  998MOL0     H34719   9.989   0.479  10.571  2.5026 -2.3888  1.6629
  998MOL0     H34720   9.753   0.549  10.631 -1.6366 -0.5174  2.6041
  998MOL0     H34721   9.831   0.471  10.771 -1.4880  1.7688  1.2287
  998MOL0     H34722   9.714   0.264  10.700  1.7145 -0.5343 -2.1529
  998MOL0     H34723   9.615   0.362  10.587  0.2407 -2.9926  0.3900
  998MOL0     H34724   9.625   0.400  10.884  2.5665  1.8380 -2.8025
  998MOL0     H34725   9.528   0.503  10.772 -1.5424  0.5093  1.6600
  998MOL0     H34726   9.263   0.175  10.795 -1.6746  4.2525  0.4050
  998MOL0     H34727  10.059   0.422  10.834 -0.9863  2.3708 -1.8246
  998MOL0     H34728  10.226   0.560  10.958  2.1443  3.3113 -2.7937
  998MOL0     H34729  10.317   0.413  11.015  1.0356  0.8616  0.3496
  998MOL0     H34730  10.399   0.548  10.925 -0.0022  1.6336  1.7467
  999MOL0     O34731  10.231   5.101   4.465  0.1970 -0.1871 -0.2735
  999MOL0     C34732  10.251   5.093   4.346 -0.5504 -0.1878  0.8357
  999MOL0     O34733  10.377   5.082   4.288  0.8557  0.1514 -0.4323
  999MOL0     C34734  10.485   5.124   4.355 -0.8059 -0.3095  0.8124
  999MOL0     C34735  10.580   5.028   4.360 -0.5418 -0.4948  1.0348
  999MOL0     C34736  10.694   5.054   4.434  0.5474  0.2786 -0.3419
  999MOL0     C34737  10.706   5.175   4.510  0.9196 -0.0103  0.3689
  999MOL0     O34738  10.814   5.181   4.599 -0.5944  0.2596  0.2283
  999MOL0     C34739  10.910   5.284   4.596  0.6491 -0.4539 -0.3532
  999MOL0     C34740  11.045   5.230   4.573  0.4400  0.1786 -0.0333
  999MOL0     C34741  11.072   5.171   4.426  0.3191  0.1670  0.8204
  999MOL0     C34742  11.215   5.146   4.389 -0.3119  0.3331  0.1732
  999MOL0     C34743  11.302   5.021   4.441  0.2543 -0.0681 -0.8284
  999MOL0     C34744  11.339   5.041   4.594  0.3683 -0.6692  0.6294
  999MOL0     C34745  11.446   4.944   4.641  1.0107 -0.2043 -0.3119
  999MOL0     C34746  11.432   4.799   4.605 -0.5982 -0.1422 -0.6067
  999MOL0     N34747  11.545   4.726   4.661  0.4566  0.4212  0.0133
  999MOL0     C34748  11.546   4.671   4.782  0.4260 -0.7584  0.1080
  999MOL0     C34749  11.657   4.584   4.784 -0.3673 -0.7854  0.1243
  999MOL0     C34750  11.703   4.519   4.902  1.0973 -1.0075  0.0676
  999MOL0     C34751  11.605   4.395   4.954 -0.0052 -0.1708 -0.1973
  999MOL0     C34752  11.674   4.296   5.050 -0.1212 -0.1840 -0.8767
  999MOL0     C34753  11.819   4.253   5.007  0.0558 -0.2069 -0.7844
  999MOL0     O34754  11.842   4.140   5.085 -0.0754 -0.6121 -0.5539
  999MOL0     C34755  11.804   4.012   5.042 -0.6800  1.0870 -0.2206
  999MOL0     C34756  11.864   3.957   4.921  0.5440 -0.1614  0.1284
  999MOL0     C34757  11.823   3.834   4.865  0.9395  0.1982 -0.2730
  999MOL0     C34758  11.743   3.746   4.948  0.1918 -0.3572  1.5481
  999MOL0     C34759  11.697   3.618   4.890 -0.5084 -0.2479  0.1338
  999MOL0     O34760  11.719   3.590   4.756  1.0935  0.1122 -0.9542
  999MOL0     C34761  11.696   3.458   4.716 -0.2891 -0.7893 -1.0034
  999MOL0     C34762  11.621   3.437   4.596  0.2219  0.7494  0.3134
  999MOL0     C34763  11.612   3.306   4.550 -0.4942  0.0797  0.4523
  999MOL0     C34764  11.658   3.196   4.627 -0.3313 -0.1768  0.2377
  999MOL0     O34765  11.625   3.073   4.577 -1.0074  0.5162 -0.0672
  999MOL0     C34766  11.640   2.952   4.657 -0.1295 -0.4834 -0.1876
  999MOL0     C34767  11.611   2.826   4.561  0.8889  0.1610  0.0747
  999MOL0     C34768  11.561   2.699   4.643 -0.3519  1.1829  0.5854
  999MOL0     C34769  11.681   2.634   4.716  0.3269 -0.3681 -0.0717
  999MOL0     C34770  11.636   2.531   4.803 -0.1701  0.2862  0.3118
  999MOL0     C34771  11.759   2.475   4.881  0.3435  0.0133 -0.1792
  999MOL0     C34772  11.696   2.391   5.003 -0.1013  0.4343 -0.5635
  999MOL0     C34773  11.784   2.287   5.060 -1.0736 -0.1366 -0.3459
  999MOL0    Cl34774  11.952   2.348   5.099 -0.2703  0.1590  0.5839
  999MOL0     C34775  11.723   3.217   4.740 -0.7124  0.4563 -0.5365
  999MOL0     C34776  11.751   3.349   4.785  0.7425 -0.2254  1.0938
  999MOL0     O34777  11.658   3.539   4.978  0.0176  0.3948  0.1091
  999MOL0     C34778  11.700   3.795   5.073 -0.5453  0.2845  0.8417
  999MOL0     C34779  11.741   3.920   5.123  0.2595 -0.2871  0.1812
  999MOL0     N34780  11.713   4.578   4.661  0.4777 -0.0000 -0.4530
  999MOL0     N34781  11.641   4.660   4.587  0.9253 -0.5786 -0.3498
  999MOL0     C34782  10.612   5.279   4.504 -0.0737  0.1774 -1.2879
  999MOL0     C34783  10.498   5.250   4.430  0.7761 -0.5384 -0.3161
  999MOL0     C34784  10.146   5.064   4.259  0.1646  1.0939  0.4244
  999MOL0     C34785  10.169   4.961   4.167 -0.5096 -1.4391 -0.2166
  999MOL0     C34786  10.066   4.907   4.092  0.9318 -0.3267 -0.1262
  999MOL0     C34787   9.928   4.958   4.102 -1.9735 -0.5239  0.1722
  999MOL0     O34788   9.827   4.906   4.020 -0.2132  0.3744 -0.5987
  999MOL0     C34789   9.847   4.815   3.915 -0.6101  0.3531 -0.3646
  999MOL0     C34790   9.891   4.882   3.793  0.3283 -0.3147  0.2639
  999MOL0     C34791   9.895   4.767   3.680 -0.2221  0.3864  0.3731
  999MOL0     C34792  10.029   4.700   3.647 -0.5745 -0.4106 -1.0151
  999MOL0     C34793  10.075   4.617   3.756  0.1466 -0.4706 -0.1969
  999MOL0     C34794  10.129   4.550   3.847  0.4398 -0.8486  1.0112
  999MOL0     C34795   9.911   5.064   4.199  0.1717 -0.1457  0.8896
  999MOL0     C34796  10.014   5.112   4.276  0.1436  0.2036  0.7080
  999MOL0     C34797   9.968   5.219   4.378 -0.4533 -0.5154  0.5258
  999MOL0     H34798  10.556   4.930   4.319 -0.2611 -0.2896  0.3703
  999MOL0     H34799  10.762   4.970   4.437 -0.1664 -0.3082  2.2389
  999MOL0     H34800  10.886   5.375   4.540 -0.7465  0.8738  2.2098
  999MOL0     H34801  10.902   5.329   4.696 -2.3380 -0.0417 -0.6862
  999MOL0     H34802  11.072   5.152   4.645  0.9374 -0.7106 -1.1473
  999MOL0     H34803  11.117   5.310   4.593  0.4768 -0.0388  0.7342
  999MOL0     H34804  11.033   5.245   4.356 -1.5222 -1.7721 -0.3017
  999MOL0     H34805  11.023   5.074   4.413  1.3184 -0.3249  0.5568
  999MOL0     H34806  11.232   5.146   4.281  2.4475  1.3628  0.5246
  999MOL0     H34807  11.273   5.234   4.417 -0.2086  0.4672 -0.4454
  999MOL0     H34808  11.232   4.937   4.435  1.3243 -1.1634  1.0745
  999MOL0     H34809  11.389   5.010   4.375  1.1335 -0.0632  0.3052
  999MOL0     H34810  11.371   5.146   4.601 -1.4054 -0.0422 -0.0582
  999MOL0     H34811  11.252   5.027   4.658  1.0665  0.0119  1.7736
  999MOL0     H34812  11.467   4.964   4.747  0.5558  1.0378 -0.4372
  999MOL0     H34813  11.532   4.968   4.578  1.3424 -2.3278 -0.7305
  999MOL0     H34814  11.332   4.764   4.631 -0.7380  1.6183  1.6267
  999MOL0     H34815  11.439   4.790   4.497 -0.4358  1.3310 -0.7440
  999MOL0     H34816  11.471   4.699   4.855 -0.4577  0.9209 -1.3530
  999MOL0     H34817  11.809   4.497   4.886  1.4505 -0.0326  0.9905
  999MOL0     H34818  11.722   4.595   4.978  2.9302  2.3174 -3.3339
  999MOL0     H34819  11.516   4.433   5.005 -1.3190 -0.5034 -2.1334
  999MOL0     H34820  11.570   4.340   4.866 -1.4093 -0.4627  0.5103
  999MOL0     H34821  11.605   4.212   5.058 -4.2370  3.0409  2.3067
  999MOL0     H34822  11.683   4.339   5.150 -0.3054 -0.5340 -0.7130
  999MOL0     H34823  11.895   4.328   5.029  1.4177 -1.9082  0.5384
  999MOL0     H34824  11.841   4.239   4.901  2.2550  0.6753 -0.5045
  999MOL0     H34825  11.949   4.018   4.890 -0.8752  1.7438 -0.2265
  999MOL0     H34826  11.860   3.811   4.766  1.8303 -0.1132  0.1240
  999MOL0     H34827  11.586   3.518   4.533  0.3313  0.9244  0.4739
  999MOL0     H34828  11.570   3.293   4.451 -1.2109  1.0042  0.6266
  999MOL0     H34829  11.741   2.933   4.694 -0.6003 -3.1441 -0.0809
  999MOL0     H34830  11.579   2.962   4.748  3.1264 -1.3962  2.2992
  999MOL0     H34831  11.522   2.860   4.508  2.5325  0.3689 -2.7621
  999MOL0     H34832  11.691   2.799   4.492 -1.5540 -3.5532 -1.6366
  999MOL0     H34833  11.485   2.723   4.719  0.5547 -1.4951  2.5023
  999MOL0     H34834  11.519   2.628   4.572  3.5941 -0.4582 -0.3618
  999MOL0     H34835  11.736   2.703   4.781 -3.0939  3.6292 -0.9666
  999MOL0     H34836  11.752   2.600   4.640 -3.2402  1.6940 -4.8486
  999MOL0     H34837  11.598   2.452   4.737  3.2548 -1.2364 -0.0587
  999MOL0     H34838  11.548   2.561   4.861 -2.5179  3.3328 -4.1647
  999MOL0     H34839  11.812   2.408   4.814 -0.9876 -0.7994 -0.4539
  999MOL0     H34840  11.826   2.551   4.923  3.0896 -1.7475 -1.1756
  999MOL0     H34841  11.605   2.342   4.967 -0.9804 -1.1569  3.3456
  999MOL0     H34842  11.661   2.467   5.073 -3.8138 -1.9467  0.4779
  999MOL0     H34843  11.733   2.265   5.154 -0.7707 -0.2631 -0.2115
  999MOL0     H34844  11.794   2.198   4.997  1.2726 -1.3144  1.5502
  999MOL0     H34845  11.766   3.137   4.799  0.0307  1.6988  0.6514
  999MOL0     H34846  11.816   3.365   4.870 -0.9208 -0.5816  2.4886
  999MOL0     H34847  11.641   3.727   5.133 -0.5083 -0.2626  0.2722
  999MOL0     H34848  11.688   3.948   5.214 -1.8669 -0.6394 -0.8977
  999MOL0     H34849  10.631   5.367   4.564  2.0338  0.1191 -1.7909
  999MOL0     H34850  10.426   5.331   4.426  0.4071 -0.8963 -1.0494
  999MOL0     H34851  10.272   4.928   4.152  0.1573 -1.8233  3.8777
  999MOL0     H34852  10.093   4.821   4.032 -0.6174 -0.0969 -1.2104
  999MOL0     H34853   9.749   4.776   3.887  0.6336 -1.5746 -2.3881
  999MOL0     H34854   9.914   4.732   3.943 -0.1760  1.3578  1.7980
  999MOL0     H34855   9.996   4.907   3.808  0.5502 -2.2041  2.2456
  999MOL0     H34856   9.825   4.966   3.766  0.1123  0.1098  1.9441
  999MOL0     H34857   9.886   4.818   3.584 -1.7247  2.5211  1.5367
  999MOL0     H34858   9.808   4.701   3.693 -0.4294  1.1201  3.9005
  999MOL0     H34859  10.029   4.631   3.562 -1.7610 -1.9940  0.2064
  999MOL0     H34860  10.100   4.780   3.626 -0.4979  0.0131  0.7151
  999MOL0     H34861  10.189   4.501   3.921  0.5621  1.0427  2.2561
  999MOL0     H34862   9.810   5.105   4.205 -0.3870 -1.6859  3.2795
  999MOL0     H34863  10.021   5.219   4.473  0.7948 -1.0944 -0.1571
  999MOL0     H34864   9.994   5.318   4.339 -1.3212 -0.1599  0.8205
  999MOL0     H34865   9.858   5.220   4.382 -0.5324  0.9668 -0.9138
 1000MOL0     O34866   6.203   8.414   3.527  0.3537  1.1297 -0.3470
 1000MOL0     C34867   6.188   8.367   3.413  0.0912 -0.5021 -0.2917
 1000MOL0     O34868   6.093   8.412   3.329 -0.0463  0.0214  0.0870
 1000MOL0     C34869   6.023   8.532   3.334  0.0434  1.4138 -0.4731
 1000MOL0     C34870   6.038   8.637   3.433 -0.5038 -0.3246 -0.3157
 1000MOL0     C34871   5.958   8.752   3.424 -0.5766 -0.6348  0.3863
 1000MOL0     C34872   5.846   8.763   3.343  0.3614  1.1328 -0.5095
 1000MOL0     O34873   5.761   8.870   3.332  0.0931 -0.0359 -0.0483
 1000MOL0     C34874   5.810   8.998   3.371  0.0965  0.1106 -0.0008
 1000MOL0     C34875   5.721   9.114   3.305  0.4567  0.7690 -0.3661
 1000MOL0     C34876   5.570   9.093   3.334 -1.1343  0.1564  0.1429
 1000MOL0     C34877   5.499   9.042   3.209  0.4094  0.5673 -0.6232
 1000MOL0     C34878   5.401   9.144   3.127  0.2423  0.6329 -0.0096
 1000MOL0     C34879   5.485   9.261   3.076  0.5905  0.4027  0.6474
 1000MOL0     C34880   5.390   9.340   2.976 -0.8846  0.2235  0.2137
 1000MOL0     C34881   5.451   9.473   2.924 -0.0026 -0.2187  0.3091
 1000MOL0     N34882   5.477   9.562   3.041  0.2879 -0.0206 -0.0509
 1000MOL0     C34883   5.605   9.588   3.074 -0.2051 -0.6805  0.3843
 1000MOL0     C34884   5.599   9.692   3.170  0.3197  0.0396 -0.5491
 1000MOL0     C34885   5.716   9.777   3.209 -0.3900  0.4041  0.4692
 1000MOL0     C34886   5.673   9.928   3.229  0.2973  0.5564 -0.6819
 1000MOL0     C34887   5.789  10.028   3.208 -0.4606 -0.4382  0.3335
 1000MOL0     C34888   5.755  10.166   3.266 -0.1716  0.0570  0.0743
 1000MOL0     O34889   5.861  10.259   3.220  0.1205 -0.8771 -0.3505
 1000MOL0     C34890   5.816  10.356   3.138  0.2447  0.3542 -0.1941
 1000MOL0     C34891   5.721  10.451   3.160  0.2085 -0.5308 -0.2248
 1000MOL0     C34892   5.686  10.541   3.062  0.1728  0.0382 -0.4765
 1000MOL0     C34893   5.752  10.546   2.938  0.6314 -0.4490  0.5160
 1000MOL0     C34894   5.690  10.631   2.837  0.1179  0.3526  0.6648
 1000MOL0     O34895   5.780  10.666   2.742  0.5205 -0.1365 -0.4019
 1000MOL0     C34896   5.779  10.790   2.677 -0.5166  0.1881  0.5106
 1000MOL0     C34897   5.880  10.823   2.578  0.2419  0.5090 -0.5493
 1000MOL0     C34898   5.899  10.951   2.531  0.7091  0.2658  0.8659
 1000MOL0     C34899   5.814  11.058   2.574 -0.1577 -0.1275 -0.0819
 1000MOL0     O34900   5.826  11.181   2.502  0.3852  0.6153  0.6903
 1000MOL0     C34901   5.834  11.295   2.589 -0.2221 -1.2369  0.0005
 1000MOL0     C34902   5.815  11.431   2.527  0.1526  0.3017  0.5688
 1000MOL0     C34903   5.900  11.486   2.409 -0.9601  0.1670 -0.1814
 1000MOL0     C34904   6.059  11.478   2.433 -0.3056  0.6945  0.0524
 1000MOL0     C34905   6.144  11.479   2.305 -0.5342  0.5888  0.1222
 1000MOL0     C34906   6.148  11.342   2.238 -0.2561 -1.1506 -0.0202
 1000MOL0     C34907   6.236  11.359   2.112  0.1937 -0.5119  0.5825
 1000MOL0     C34908   6.198  11.468   2.007  1.1373 -0.7061  0.3515
 1000MOL0    Cl34909   6.313  11.602   2.046 -0.1474 -0.5923 -0.1122
 1000MOL0     C34910   5.719  11.032   2.666  0.1879  0.3888  1.0840
 1000MOL0     C34911   5.694  10.899   2.710 -0.0677 -1.2817 -1.1740
 1000MOL0     O34912   5.574  10.668   2.846 -0.1664  0.0192  0.2379
 1000MOL0     C34913   5.867  10.470   2.927 -0.4738  0.1277 -0.9922
 1000MOL0     C34914   5.887  10.366   3.023  0.2254  0.0161 -0.0718
 1000MOL0     N34915   5.462   9.716   3.191  0.7635 -0.4618 -0.1975
 1000MOL0     N34916   5.392   9.634   3.127  0.9464  0.4308 -0.1504
 1000MOL0     C34917   5.834   8.661   3.250 -0.0763 -0.5527  0.7303
 1000MOL0     C34918   5.917   8.551   3.244 -0.4565  0.0368 -1.0297
 1000MOL0     C34919   6.279   8.257   3.369  0.5791 -0.1443  0.3996
 1000MOL0     C34920   6.324   8.167   3.467  0.1455  0.5439  0.4629
 1000MOL0     C34921   6.384   8.041   3.446  0.2487  0.1849 -0.6663
 1000MOL0     C34922   6.415   8.014   3.311 -1.3108 -0.3375 -0.1005
 1000MOL0     O34923   6.484   7.901   3.264 -0.5934  0.3289 -0.3878
 1000MOL0     C34924   6.479   7.786   3.345  0.0436 -0.8922  0.2607
 1000MOL0     C34925   6.522   7.660   3.258  0.6042  0.6478 -0.3589
 1000MOL0     C34926   6.436   7.644   3.132 -0.2314 -0.0164 -0.5894
 1000MOL0     C34927   6.411   7.495   3.107 -0.7129 -0.0664 -1.0969
 1000MOL0     C34928   6.342   7.490   2.977  0.7026  0.2162 -0.0399
 1000MOL0     C34929   6.310   7.457   2.867  1.4824  0.4991  0.0182
 1000MOL0     C34930   6.378   8.106   3.214 -0.5043  0.3964 -0.5637
 1000MOL0     C34931   6.300   8.220   3.234  0.1764 -0.1316 -0.0556
 1000MOL0     C34932   6.235   8.282   3.116 -0.8087  0.3599 -0.9553
 1000MOL0     H34933   6.116   8.634   3.509  1.0545  1.1511 -1.7719
 1000MOL0     H34934   5.966   8.836   3.491  0.8988 -2.4765  2.6949
 1000MOL0     H34935   5.825   9.012   3.478 -0.0940  0.4278 -0.0114
 1000MOL0     H34936   5.912   9.003   3.332  0.5288 -3.4945  0.3890
 1000MOL0     H34937   5.739   9.108   3.197 -1.0677 -0.5436 -0.5779
 1000MOL0     H34938   5.770   9.206   3.340  1.3533  0.0936  0.1889
 1000MOL0     H34939   5.518   9.181   3.372 -5.5772 -3.3858  3.3594
 1000MOL0     H34940   5.556   9.020   3.414  0.4693 -0.0012  0.3013
 1000MOL0     H34941   5.570   9.000   3.137  3.8805  1.5025  1.9874
 1000MOL0     H34942   5.435   8.958   3.239 -0.0353  0.9054 -0.6236
 1000MOL0     H34943   5.352   9.092   3.044 -0.3278  0.5701  0.3595
 1000MOL0     H34944   5.314   9.174   3.185  0.6105  0.4199  0.6575
 1000MOL0     H34945   5.508   9.330   3.158 -0.7110 -1.8273  3.0642
 1000MOL0     H34946   5.589   9.239   3.048 -0.0233 -0.3469 -1.1728
 1000MOL0     H34947   5.298   9.349   3.034 -0.5718 -1.3179  0.9969
 1000MOL0     H34948   5.362   9.275   2.893 -2.9303  0.9180  0.3179
 1000MOL0     H34949   5.543   9.443   2.873  1.2429  2.4055  0.8618
 1000MOL0     H34950   5.391   9.527   2.850 -0.4060 -1.7267 -0.5094
 1000MOL0     H34951   5.687   9.529   3.033 -0.2075 -1.4809  1.4855
 1000MOL0     H34952   5.762   9.732   3.297  0.3129 -2.2076 -1.1340
 1000MOL0     H34953   5.778   9.794   3.120 -3.9647  1.1045 -2.1261
 1000MOL0     H34954   5.594   9.957   3.159 -0.0301  0.0346 -0.5297
 1000MOL0     H34955   5.621   9.942   3.324 -2.2780  2.6569 -2.2564
 1000MOL0     H34956   5.820  10.018   3.103  0.8419 -2.3079  0.8208
 1000MOL0     H34957   5.877   9.994   3.264  1.2463  1.1848 -1.2462
 1000MOL0     H34958   5.755  10.158   3.375 -2.1547  2.2699  0.3043
 1000MOL0     H34959   5.653  10.200   3.245  0.1275  1.2163  0.4711
 1000MOL0     H34960   5.668  10.450   3.255  3.0508  0.2999  1.5011
 1000MOL0     H34961   5.606  10.610   3.089  0.2744  0.2503 -0.7116
 1000MOL0     H34962   5.943  10.743   2.539 -0.4278 -0.0667 -0.4510
 1000MOL0     H34963   5.952  10.975   2.439 -3.3677 -2.0284 -2.3993
 1000MOL0     H34964   5.764  11.288   2.673 -0.2642 -1.8016 -0.0784
 1000MOL0     H34965   5.934  11.285   2.633 -1.5066 -0.3418  3.5184
 1000MOL0     H34966   5.720  11.409   2.478  0.0275 -1.6082  1.5852
 1000MOL0     H34967   5.803  11.512   2.599 -1.1037 -2.0080  3.1507
 1000MOL0     H34968   5.883  11.409   2.333  0.7631 -2.4639  1.9026
 1000MOL0     H34969   5.877  11.590   2.387  1.2509  1.7077  3.8292
 1000MOL0     H34970   6.080  11.389   2.493 -2.4003  0.9708  1.2887
 1000MOL0     H34971   6.081  11.572   2.484 -1.6936 -0.0198  2.0853
 1000MOL0     H34972   6.249  11.509   2.319  0.4470 -2.6216  0.5101
 1000MOL0     H34973   6.097  11.552   2.238 -2.2070 -1.3219 -0.9119
 1000MOL0     H34974   6.189  11.273   2.312  1.5568  0.5978  0.6641
 1000MOL0     H34975   6.050  11.306   2.205  0.1021 -2.0337 -0.1545
 1000MOL0     H34976   6.233  11.266   2.055 -1.3855  0.0806 -0.3796
 1000MOL0     H34977   6.342  11.365   2.135  0.4865  3.7358 -0.9280
 1000MOL0     H34978   6.211  11.427   1.907  3.0779 -2.6083  1.2876
 1000MOL0     H34979   6.099  11.512   2.017  1.7398  0.8798 -0.3683
 1000MOL0     H34980   5.651  11.109   2.700 -0.4203 -1.4331  4.3916
 1000MOL0     H34981   5.613  10.881   2.780 -0.0163 -2.8164 -1.4734
 1000MOL0     H34982   5.934  10.479   2.842 -1.5978  0.8748 -1.8230
 1000MOL0     H34983   5.964  10.295   2.996  0.2963 -1.1155  2.7833
 1000MOL0     H34984   5.760   8.680   3.173 -0.6753 -2.6706  0.7194
 1000MOL0     H34985   5.898   8.485   3.160 -2.1654  0.3758 -0.9377
 1000MOL0     H34986   6.312   8.206   3.567  1.7887 -1.6533  1.5907
 1000MOL0     H34987   6.416   7.976   3.527 -1.1466  0.3978  0.0919
 1000MOL0     H34988   6.378   7.768   3.384  0.4216  0.9905  2.2541
 1000MOL0     H34989   6.544   7.786   3.433 -1.6540 -2.8929  1.6150
 1000MOL0     H34990   6.518   7.567   3.315  0.7983 -0.4419 -2.0271
 1000MOL0     H34991   6.626   7.669   3.225  2.7379  5.6074  5.8154
 1000MOL0     H34992   6.494   7.699   3.057  3.0569 -2.4371 -0.0681
 1000MOL0     H34993   6.337   7.689   3.146  0.2848  1.2583 -0.9014
 1000MOL0     H34994   6.512   7.453   3.112 -0.6006  0.3551  0.4617
 1000MOL0     H34995   6.353   7.444   3.184 -0.3023 -0.8872 -1.3245
 1000MOL0     H34996   6.284   7.450   2.763  0.4311  1.4311  0.1995
 1000MOL0     H34997   6.408   8.092   3.111  0.9939  2.5717 -0.5024
 1000MOL0     H34998   6.293   8.262   3.025  1.3124 -0.7170  0.5308
 1000MOL0     H34999   6.137   8.238   3.099 -1.5474  1.7840 -0.5604
 1000MOL0     H35000   6.225   8.390   3.132 -2.2692 -0.1200  2.3545
 1001MOL0     O35001  10.338   9.025   4.059  0.6209 -0.4777  0.5086
 1001MOL0     C35002  10.223   8.988   4.079 -0.0006  0.3147  0.3730
 1001MOL0     O35003  10.168   8.874   4.038 -0.0785  0.1623  0.1242
 1001MOL0     C35004  10.239   8.801   3.950  0.0955  1.1875  0.8455
 1001MOL0     C35005  10.292   8.851   3.829 -0.5179 -0.6178  1.0209
 1001MOL0     C35006  10.335   8.768   3.722  0.7553  0.1651  1.4095
 1001MOL0     C35007  10.316   8.631   3.726  0.7363 -0.2654  0.1279
 1001MOL0     O35008  10.365   8.552   3.626 -0.2526  0.6639 -0.6668
 1001MOL0     C35009  10.337   8.587   3.493 -0.3085 -0.6161 -0.8373
 1001MOL0     C35010  10.339   8.480   3.389  0.1447  0.6236  0.4895
 1001MOL0     C35011  10.468   8.395   3.380 -0.6107 -0.6683 -0.2470
 1001MOL0     C35012  10.456   8.287   3.270 -1.3168 -0.6728  0.3705
 1001MOL0     C35013  10.588   8.237   3.228 -0.8352 -0.6634 -0.3698
 1001MOL0     C35014  10.588   8.129   3.121  0.1639 -0.8003  0.3648
 1001MOL0     C35015  10.550   7.984   3.159 -0.4534 -0.1704  0.4248
 1001MOL0     C35016  10.599   7.889   3.037  0.8126  0.1540 -0.3012
 1001MOL0     N35017  10.523   7.760   3.038 -0.4760 -0.3110  0.5772
 1001MOL0     C35018  10.577   7.640   3.096 -0.8467 -0.8386  0.5493
 1001MOL0     C35019  10.490   7.538   3.056  0.1239  0.0084 -0.1177
 1001MOL0     C35020  10.494   7.396   3.076  0.4655  1.0132 -0.2860
 1001MOL0     C35021  10.371   7.350   3.161  0.4186 -1.5031  0.6638
 1001MOL0     C35022  10.400   7.239   3.257 -0.0352  0.7032  1.0093
 1001MOL0     C35023  10.462   7.111   3.187  0.7199 -0.2969 -0.3060
 1001MOL0     O35024  10.458   6.998   3.276  0.1190 -0.5134 -0.5873
 1001MOL0     C35025  10.353   6.913   3.291 -0.3735 -0.5534 -0.6007
 1001MOL0     C35026  10.230   6.926   3.228 -0.0139  0.4085 -0.8167
 1001MOL0     C35027  10.125   6.839   3.259  0.1213  0.6542 -0.5418
 1001MOL0     C35028  10.145   6.731   3.339  0.8551  0.5443 -0.0899
 1001MOL0     C35029  10.029   6.649   3.384  0.4544  0.3933  0.5382
 1001MOL0     O35030   9.934   6.634   3.297  0.0544  0.6454  0.0506
 1001MOL0     C35031   9.810   6.577   3.335 -0.9352  0.1270  0.7024
 1001MOL0     C35032   9.701   6.651   3.306 -1.7229 -1.3814 -0.7429
 1001MOL0     C35033   9.569   6.611   3.320 -0.2812  0.0686 -0.3118
 1001MOL0     C35034   9.555   6.470   3.354 -0.3856 -0.0936  0.1456
 1001MOL0     O35035   9.423   6.423   3.351  0.6996  0.5817  0.3085
 1001MOL0     C35036   9.413   6.279   3.334  0.6665 -0.2364 -0.0468
 1001MOL0     C35037   9.267   6.248   3.298 -0.1114 -0.0403 -0.7284
 1001MOL0     C35038   9.226   6.307   3.161 -0.5821 -0.9488  0.2354
 1001MOL0     C35039   9.086   6.259   3.130 -0.0391 -0.7477 -0.8463
 1001MOL0     C35040   9.048   6.288   2.983 -0.1052 -0.0240 -1.2384
 1001MOL0     C35041   8.952   6.186   2.932  0.3902  0.2656  0.0786
 1001MOL0     C35042   8.914   6.226   2.800 -0.8884 -0.7120 -0.1730
 1001MOL0     C35043   8.789   6.158   2.724 -0.3959  0.8721 -1.2953
 1001MOL0    Cl35044   8.866   6.025   2.634 -0.1957 -0.0183  0.3062
 1001MOL0     C35045   9.670   6.395   3.391 -0.2341  0.0831 -0.0064
 1001MOL0     C35046   9.801   6.453   3.380  1.0391  0.1956  0.7228
 1001MOL0     O35047  10.043   6.582   3.486  0.4676 -0.4201 -0.3783
 1001MOL0     C35048  10.276   6.709   3.386 -0.0432  1.1904 -0.2462
 1001MOL0     C35049  10.379   6.800   3.364  0.0606 -0.0744 -0.2938
 1001MOL0     N35050  10.382   7.600   2.996 -0.2132  0.7914 -0.5482
 1001MOL0     N35051  10.401   7.726   2.982  0.5847 -0.2487 -0.7701
 1001MOL0     C35052  10.268   8.579   3.844  0.4436  0.2840  0.3196
 1001MOL0     C35053  10.232   8.663   3.953 -0.2276  0.2494 -0.5741
 1001MOL0     C35054  10.130   9.061   4.163 -0.5191  0.0210  0.5351
 1001MOL0     C35055  10.050   8.990   4.255 -0.0231 -0.5901 -0.6976
 1001MOL0     C35056   9.947   9.061   4.324  0.5503 -0.2210  0.4624
 1001MOL0     C35057   9.936   9.199   4.311 -0.8699 -0.5291 -0.1647
 1001MOL0     O35058   9.846   9.257   4.394  0.1889  0.4247 -1.1995
 1001MOL0     C35059   9.867   9.399   4.425  0.4753  0.5213 -0.2860
 1001MOL0     C35060   9.786   9.437   4.552 -0.4099 -0.1479 -0.0624
 1001MOL0     C35061   9.637   9.440   4.523 -0.2523  0.3278  0.3929
 1001MOL0     C35062   9.563   9.438   4.659  0.4276 -0.2623  0.3063
 1001MOL0     C35063   9.584   9.549   4.747  0.3692  0.2516 -1.1499
 1001MOL0     C35064   9.602   9.650   4.815 -0.5911  0.6003  0.3124
 1001MOL0     C35065  10.027   9.271   4.222  0.1631 -0.0432 -0.9155
 1001MOL0     C35066  10.117   9.196   4.141 -0.0977 -0.8560 -0.9903
 1001MOL0     C35067  10.216   9.278   4.054  0.8062  0.3427  0.4086
 1001MOL0     H35068  10.278   8.957   3.812  0.0103 -0.7781 -0.5139
 1001MOL0     H35069  10.388   8.815   3.640  1.7777 -1.7763  0.8992
 1001MOL0     H35070  10.236   8.628   3.482 -0.0691  0.8556  1.8232
 1001MOL0     H35071  10.397   8.674   3.465  1.1406  0.7378  5.0478
 1001MOL0     H35072  10.331   8.541   3.299  1.0424 -0.7348 -0.5512
 1001MOL0     H35073  10.248   8.421   3.391 -0.6701  1.7530 -1.3018
 1001MOL0     H35074  10.502   8.358   3.477 -2.0381  3.8483  2.2484
 1001MOL0     H35075  10.543   8.465   3.341 -0.2760 -0.8086  0.1455
 1001MOL0     H35076  10.403   8.197   3.303 -1.9472 -0.9317 -1.2571
 1001MOL0     H35077  10.406   8.325   3.181 -0.1943  2.2625  0.8749
 1001MOL0     H35078  10.653   8.319   3.195 -1.7904 -0.2133 -1.1959
 1001MOL0     H35079  10.637   8.190   3.313 -0.6093 -1.1334 -0.7546
 1001MOL0     H35080  10.515   8.164   3.046 -0.3387 -0.3434  1.0488
 1001MOL0     H35081  10.688   8.127   3.077 -0.4480 -2.3275 -1.0720
 1001MOL0     H35082  10.441   7.987   3.168 -0.2888  2.1580  2.9637
 1001MOL0     H35083  10.599   7.951   3.251 -0.3042  2.1728  1.2505
 1001MOL0     H35084  10.575   7.943   2.945  1.5318  0.0056 -0.5771
 1001MOL0     H35085  10.705   7.865   3.030  0.5522 -0.8234 -1.3237
 1001MOL0     H35086  10.669   7.631   3.151  0.2370 -0.5089 -1.1163
 1001MOL0     H35087  10.497   7.328   2.990 -2.7291  0.3015  0.0660
 1001MOL0     H35088  10.585   7.375   3.134  0.1918  1.0149  0.1446
 1001MOL0     H35089  10.330   7.435   3.216 -1.6752 -0.3765 -2.3831
 1001MOL0     H35090  10.284   7.330   3.099 -1.4169  1.7654  1.9225
 1001MOL0     H35091  10.308   7.193   3.297  0.1312  0.8548  1.5734
 1001MOL0     H35092  10.463   7.270   3.341  1.2170 -0.7095  0.6401
 1001MOL0     H35093  10.567   7.135   3.165  0.5948 -0.2388 -0.8518
 1001MOL0     H35094  10.424   7.089   3.087  0.5686 -0.2573 -0.2575
 1001MOL0     H35095  10.203   7.017   3.175  0.9594  0.9581 -0.3976
 1001MOL0     H35096  10.032   6.863   3.209 -0.7345  1.6904  1.4344
 1001MOL0     H35097   9.726   6.751   3.270  3.3174 -2.5629 -1.2756
 1001MOL0     H35098   9.483   6.664   3.281 -0.2285  0.0036 -0.5165
 1001MOL0     H35099   9.482   6.237   3.261  1.3960  0.8134  0.0215
 1001MOL0     H35100   9.451   6.234   3.426  1.3409  1.1396  0.3711
 1001MOL0     H35101   9.246   6.140   3.297 -1.5818  0.2139 -0.5617
 1001MOL0     H35102   9.221   6.294   3.387  2.7055  0.9917  0.3120
 1001MOL0     H35103   9.236   6.415   3.158 -0.2407 -0.9554  0.9710
 1001MOL0     H35104   9.302   6.275   3.089 -0.9505 -0.6589 -0.2834
 1001MOL0     H35105   9.012   6.318   3.184  3.0319  1.3886  1.3040
 1001MOL0     H35106   9.066   6.155   3.159 -1.2663  0.6365  4.2756
 1001MOL0     H35107   9.144   6.288   2.930  2.2467 -0.8836  2.6165
 1001MOL0     H35108   9.017   6.393   2.980  2.1601  0.8606  1.6191
 1001MOL0     H35109   8.991   6.084   2.934  0.9058  0.4423 -0.8644
 1001MOL0     H35110   8.865   6.193   2.999  1.3308 -0.1424  1.3877
 1001MOL0     H35111   9.002   6.217   2.735  1.0868 -0.0698  2.2780
 1001MOL0     H35112   8.894   6.333   2.798  0.1231 -0.3431 -5.1265
 1001MOL0     H35113   8.713   6.125   2.796 -0.0080  0.1944 -1.1816
 1001MOL0     H35114   8.744   6.229   2.654 -0.9539  1.8843  0.0375
 1001MOL0     H35115   9.664   6.290   3.414 -0.0356  0.1623  0.4174
 1001MOL0     H35116   9.890   6.404   3.418  0.7520  0.4863  1.8211
 1001MOL0     H35117  10.297   6.624   3.450  1.3812  1.0027 -0.9071
 1001MOL0     H35118  10.476   6.768   3.399  0.6438 -2.1482 -3.3827
 1001MOL0     H35119  10.254   8.472   3.853  1.0231 -0.4360 -4.5918
 1001MOL0     H35120  10.189   8.616   4.041 -0.8109  2.6052  0.5092
 1001MOL0     H35121  10.055   8.883   4.276 -0.0028 -1.0847 -2.9796
 1001MOL0     H35122   9.880   9.004   4.388 -0.9065 -0.4215 -1.1733
 1001MOL0     H35123   9.824   9.461   4.346 -2.6193 -0.8839  0.1190
 1001MOL0     H35124   9.973   9.418   4.439  0.2285  1.3073  0.7040
 1001MOL0     H35125   9.824   9.534   4.584 -3.0738  1.1600 -0.6227
 1001MOL0     H35126   9.813   9.361   4.626  1.0966  1.5986  1.2697
 1001MOL0     H35127   9.609   9.353   4.463 -0.1099 -0.8801  2.0176
 1001MOL0     H35128   9.603   9.527   4.466 -1.1130  0.3896  0.9748
 1001MOL0     H35129   9.459   9.459   4.634 -0.2054 -3.5337 -0.3175
 1001MOL0     H35130   9.570   9.337   4.699  3.0522 -2.0255 -3.8476
 1001MOL0     H35131   9.599   9.732   4.884 -0.1327  1.3356 -0.5163
 1001MOL0     H35132  10.031   9.379   4.216  0.6156  0.3133  3.2495
 1001MOL0     H35133  10.306   9.321   4.100 -0.2513  3.0792  0.1276
 1001MOL0     H35134  10.256   9.223   3.968  0.1762 -1.5125  1.2532
 1001MOL0     H35135  10.153   9.361   4.021 -0.8407 -0.4733  1.3842
 1002MOL0     O35136  10.831   3.351   3.203  0.9951 -0.7591 -0.2912
 1002MOL0     C35137  10.784   3.255   3.269 -0.0117  0.6770  0.0147
 1002MOL0     O35138  10.781   3.249   3.410 -0.4688 -0.7557  0.1049
 1002MOL0     C35139  10.856   3.343   3.477 -0.2600  0.1239  0.4688
 1002MOL0     C35140  10.814   3.394   3.598 -0.9830  0.6411 -0.8083
 1002MOL0     C35141  10.892   3.472   3.683 -1.2024 -1.3292 -0.1460
 1002MOL0     C35142  11.023   3.505   3.644 -0.5935  0.2402  0.6040
 1002MOL0     O35143  11.087   3.604   3.710 -0.9061  0.2091 -1.2345
 1002MOL0     C35144  11.144   3.560   3.838 -0.4687 -0.1097  0.3187
 1002MOL0     C35145  11.295   3.573   3.842  0.0045  0.5123 -0.4035
 1002MOL0     C35146  11.335   3.719   3.842 -0.2322  1.2124  1.0762
 1002MOL0     C35147  11.481   3.741   3.806  0.1791 -0.3039  0.0605
 1002MOL0     C35148  11.525   3.888   3.796  0.8078 -0.4593 -0.1914
 1002MOL0     C35149  11.670   3.921   3.806 -1.2626  0.2085 -0.5746
 1002MOL0     C35150  11.771   3.812   3.770 -0.1370  0.0842  0.1719
 1002MOL0     C35151  11.920   3.859   3.756 -0.3461  0.7525 -0.3519
 1002MOL0     N35152  11.988   3.844   3.891  0.0460  0.9423  0.0249
 1002MOL0     C35153  12.005   3.726   3.965 -0.0464 -1.0001  0.3680
 1002MOL0     C35154  12.034   3.769   4.090  0.7841  0.5828  0.4561
 1002MOL0     C35155  12.021   3.680   4.214  0.0671  0.8763 -0.4007
 1002MOL0     C35156  11.890   3.695   4.285  0.2729 -0.9544  0.4948
 1002MOL0     C35157  11.809   3.575   4.294  0.6814 -0.4750  0.0752
 1002MOL0     C35158  11.769   3.527   4.159 -0.0990  0.5520 -0.5184
 1002MOL0     O35159  11.663   3.428   4.170  0.0498 -0.1626  0.1071
 1002MOL0     C35160  11.606   3.367   4.054  0.1211 -1.0397  0.6386
 1002MOL0     C35161  11.511   3.271   4.074 -0.8972 -0.0793 -0.3431
 1002MOL0     C35162  11.452   3.201   3.973 -0.2414 -0.0607 -1.2886
 1002MOL0     C35163  11.480   3.233   3.839 -0.4687 -0.4433  0.0246
 1002MOL0     C35164  11.408   3.149   3.739 -0.5921 -0.0785 -0.2499
 1002MOL0     O35165  11.435   3.191   3.606 -0.1431  0.8259 -0.8583
 1002MOL0     C35166  11.395   3.098   3.511  0.3817  0.2357  0.4957
 1002MOL0     C35167  11.467   2.973   3.507 -0.0949 -0.4786  0.1422
 1002MOL0     C35168  11.444   2.874   3.413 -0.4320  0.2221  0.6754
 1002MOL0     C35169  11.336   2.901   3.335  0.9682  0.8253  0.4962
 1002MOL0     O35170  11.290   2.819   3.235 -1.3940 -0.1306 -0.2738
 1002MOL0     C35171  11.330   2.685   3.228  0.5622 -0.5274 -0.1295
 1002MOL0     C35172  11.219   2.600   3.162  0.2644 -0.4668 -0.1258
 1002MOL0     C35173  11.080   2.618   3.229 -0.0317 -0.4901  0.7511
 1002MOL0     C35174  10.982   2.528   3.170  0.9235  0.1977  0.2835
 1002MOL0     C35175  10.844   2.571   3.223 -0.8292 -0.8163  0.0172
 1002MOL0     C35176  10.739   2.506   3.132  0.0917 -0.3890 -0.0197
 1002MOL0     C35177  10.739   2.562   2.986 -0.3180 -0.3354  0.2971
 1002MOL0     C35178  10.740   2.453   2.883 -0.6944 -0.4361 -0.2769
 1002MOL0    Cl35179  10.607   2.336   2.887 -0.2726 -0.2909  0.3657
 1002MOL0     C35180  11.255   3.012   3.345 -0.0034  0.3756  0.4404
 1002MOL0     C35181  11.279   3.118   3.430  0.7517  0.7379  1.8909
 1002MOL0     O35182  11.318   3.071   3.766  0.8867  0.0768 -1.0618
 1002MOL0     C35183  11.584   3.335   3.818  0.0844 -0.5398 -0.2133
 1002MOL0     C35184  11.641   3.401   3.922 -0.1463  0.2764  0.8920
 1002MOL0     N35185  12.031   3.907   4.101  0.3453  0.3651  0.1729
 1002MOL0     N35186  12.001   3.946   3.978  0.6835 -0.8055  0.6850
 1002MOL0     C35187  11.070   3.466   3.516 -0.2693  1.0881  0.5722
 1002MOL0     C35188  10.985   3.385   3.434 -1.0040 -0.1911 -0.2041
 1002MOL0     C35189  10.714   3.135   3.212  0.7713  0.0503  0.4452
 1002MOL0     C35190  10.662   3.032   3.293  0.5116  0.5502 -0.6149
 1002MOL0     C35191  10.608   2.922   3.237  0.1233  0.6563 -0.7677
 1002MOL0     C35192  10.584   2.905   3.101  0.0621  0.7165  0.4333
 1002MOL0     O35193  10.523   2.786   3.046  0.3329  0.2006 -0.1163
 1002MOL0     C35194  10.411   2.735   3.124  0.3528  0.7393  0.1762
 1002MOL0     C35195  10.280   2.821   3.129  0.2839 -0.3922 -0.5915
 1002MOL0     C35196  10.148   2.776   3.200 -0.1161 -0.9084 -0.2235
 1002MOL0     C35197  10.037   2.879   3.203  0.3285 -0.3119 -0.3206
 1002MOL0     C35198   9.981   2.901   3.069  0.2189  0.8194  0.5056
 1002MOL0     C35199   9.946   2.886   2.949 -0.4790 -0.2844  0.8732
 1002MOL0     C35200  10.639   2.999   3.014 -0.3255 -0.2777  0.4879
 1002MOL0     C35201  10.704   3.116   3.067 -0.3685  0.4665  0.1418
 1002MOL0     C35202  10.748   3.217   2.967 -0.5116 -0.4747 -0.6197
 1002MOL0     H35203  10.718   3.353   3.628 -0.0064  0.7958  3.0482
 1002MOL0     H35204  10.849   3.524   3.768 -0.2292 -0.2622 -0.2902
 1002MOL0     H35205  11.101   3.627   3.913  1.8155  3.3000 -1.1567
 1002MOL0     H35206  11.121   3.457   3.864  0.6629 -0.4180  0.1534
 1002MOL0     H35207  11.348   3.525   3.760  0.4792  1.7154 -0.8202
 1002MOL0     H35208  11.309   3.518   3.936 -2.1599  4.4240  2.5028
 1002MOL0     H35209  11.295   3.771   3.928 -3.5559  1.5136 -0.5016
 1002MOL0     H35210  11.278   3.753   3.755  1.8168 -0.0089 -0.8825
 1002MOL0     H35211  11.526   3.697   3.895 -0.6411 -0.1679  0.5465
 1002MOL0     H35212  11.512   3.685   3.716 -0.4394 -3.2602  1.5536
 1002MOL0     H35213  11.479   3.911   3.699 -3.5604 -1.3086  1.4331
 1002MOL0     H35214  11.468   3.949   3.867 -1.4951  0.5277 -2.7076
 1002MOL0     H35215  11.693   4.012   3.750 -2.3139  1.2376  0.6074
 1002MOL0     H35216  11.676   3.957   3.909 -2.5618  2.3038 -1.1692
 1002MOL0     H35217  11.742   3.769   3.673  1.6076 -0.2597 -0.2315
 1002MOL0     H35218  11.755   3.737   3.848  1.6312  0.9087  1.3962
 1002MOL0     H35219  11.987   3.802   3.691 -0.4447  1.7050 -1.3208
 1002MOL0     H35220  11.922   3.965   3.730  0.4311  0.9701  0.5593
 1002MOL0     H35221  11.974   3.625   3.940  2.2156 -1.1269 -2.3603
 1002MOL0     H35222  12.048   3.578   4.183 -0.3702 -0.3581  2.8591
 1002MOL0     H35223  12.100   3.693   4.288  0.1294 -2.9463  0.4198
 1002MOL0     H35224  11.914   3.750   4.376 -2.3646  3.0478 -0.9567
 1002MOL0     H35225  11.830   3.771   4.235 -0.1661  0.0167  2.4494
 1002MOL0     H35226  11.717   3.595   4.349  0.8342  1.6161 -0.3446
 1002MOL0     H35227  11.874   3.501   4.342  0.7778 -0.8027 -0.5524
 1002MOL0     H35228  11.852   3.473   4.113  1.6900 -0.4488  3.4686
 1002MOL0     H35229  11.732   3.608   4.094 -2.7211  0.1924  0.4015
 1002MOL0     H35230  11.488   3.245   4.177 -3.8311  0.7357 -0.7145
 1002MOL0     H35231  11.392   3.115   3.998  0.8046 -0.2857  0.6635
 1002MOL0     H35232  11.553   2.959   3.571  1.1501 -1.6055 -1.6718
 1002MOL0     H35233  11.500   2.782   3.400  0.9732  1.0876  0.4250
 1002MOL0     H35234  11.423   2.674   3.172  0.5673 -3.0973  0.2508
 1002MOL0     H35235  11.338   2.642   3.328  1.2895 -0.6831 -0.2470
 1002MOL0     H35236  11.202   2.626   3.057  0.6802  0.1738 -0.0372
 1002MOL0     H35237  11.246   2.494   3.157  2.3085 -0.0312  0.6119
 1002MOL0     H35238  11.082   2.589   3.335 -3.5765  1.8598  1.6304
 1002MOL0     H35239  11.047   2.722   3.215 -0.2895 -0.9203 -2.6028
 1002MOL0     H35240  11.009   2.424   3.192  2.3611  0.4680 -0.0963
 1002MOL0     H35241  10.984   2.544   3.062  2.3570  1.6650  0.4919
 1002MOL0     H35242  10.832   2.678   3.207  1.8107 -0.9022 -3.7950
 1002MOL0     H35243  10.839   2.555   3.331 -1.1774  2.5638  0.6186
 1002MOL0     H35244  10.758   2.399   3.123  2.7581  0.0851 -0.8802
 1002MOL0     H35245  10.637   2.523   3.169 -0.4906 -2.0159 -0.7636
 1002MOL0     H35246  10.820   2.635   2.972 -2.2314  2.1035  1.1500
 1002MOL0     H35247  10.646   2.616   2.969  0.3064  1.2407  1.5800
 1002MOL0     H35248  10.750   2.500   2.784  0.0904 -1.6393 -0.7831
 1002MOL0     H35249  10.832   2.397   2.902 -2.6513 -4.4162 -1.4374
 1002MOL0     H35250  11.170   3.013   3.278 -1.3953 -2.6743  1.9606
 1002MOL0     H35251  11.209   3.201   3.417  0.6762  0.4369  0.1408
 1002MOL0     H35252  11.612   3.357   3.716 -2.7674  0.5653 -0.8313
 1002MOL0     H35253  11.719   3.472   3.898 -0.6618  0.2356 -1.0469
 1002MOL0     H35254  11.169   3.497   3.482  1.1336 -3.0415  0.2721
 1002MOL0     H35255  11.024   3.339   3.344 -0.3421 -0.7132  0.3344
 1002MOL0     H35256  10.676   3.032   3.401  1.9110  0.1384 -0.7714
 1002MOL0     H35257  10.587   2.844   3.311 -1.2389 -0.7138 -2.5201
 1002MOL0     H35258  10.445   2.711   3.225 -2.7874  4.1212  2.3146
 1002MOL0     H35259  10.380   2.643   3.074  0.8115 -0.6617  2.3209
 1002MOL0     H35260  10.252   2.851   3.027  0.5567  2.1089 -0.0073
 1002MOL0     H35261  10.305   2.919   3.172 -1.3396 -0.4270  0.5303
 1002MOL0     H35262  10.174   2.744   3.301 -0.5254 -3.7745 -0.9339
 1002MOL0     H35263  10.121   2.689   3.139 -2.0042  0.2059 -1.0753
 1002MOL0     H35264   9.952   2.844   3.263  0.4940 -3.5263 -1.7508
 1002MOL0     H35265  10.089   2.962   3.252  0.0536 -0.6519  0.5708
 1002MOL0     H35266   9.912   2.880   2.848  2.7991  0.9405 -0.4558
 1002MOL0     H35267  10.618   2.988   2.908  0.3919 -0.8484  0.3924
 1002MOL0     H35268  10.716   3.319   2.991  0.0374 -0.9282  2.5055
 1002MOL0     H35269  10.857   3.206   2.956 -0.3662  0.4244 -0.1688
 1002MOL0     H35270  10.725   3.190   2.864  1.7504  1.3938 -1.7248
 1003MOL0     O35271   5.269   5.034  11.119  1.3462  0.6736  0.5509
 1003MOL0     C35272   5.372   5.076  11.075 -0.3656 -0.5857  0.1528
 1003MOL0     O35273   5.499   5.061  11.132  0.2557 -0.0539  0.2435
 1003MOL0     C35274   5.503   4.974  11.241 -0.1320  0.3107  0.3799
 1003MOL0     C35275   5.465   5.012  11.371  0.1564  0.0203  0.3527
 1003MOL0     C35276   5.488   4.928  11.480  0.2743 -0.1156  0.1396
 1003MOL0     C35277   5.536   4.800  11.462  0.0256  0.7102  0.3919
 1003MOL0     O35278   5.550   4.710  11.563  0.6053 -0.7828  0.1094
 1003MOL0     C35279   5.509   4.746  11.699 -0.2460 -0.6850 -0.0141
 1003MOL0     C35280   5.524   4.646  11.812 -0.6485 -0.3390 -0.7233
 1003MOL0     C35281   5.474   4.504  11.794  0.5351 -0.1736  0.1905
 1003MOL0     C35282   5.326   4.508  11.770  0.3896  0.7161  0.3100
 1003MOL0     C35283   5.268   4.371  11.735 -0.1735 -0.5058  0.7785
 1003MOL0     C35284   5.108   4.374  11.733  0.0404  1.5680  0.0894
 1003MOL0     C35285   5.070   4.234  11.718  0.9102 -0.9944 -0.6763
 1003MOL0     C35286   4.913   4.237  11.761  0.3475 -0.4309 -0.0674
 1003MOL0     N35287   4.870   4.094  11.773 -0.4420  1.0600 -0.4238
 1003MOL0     C35288   4.808   4.008  11.676 -0.3840 -0.5002  0.2957
 1003MOL0     C35289   4.776   3.894  11.742 -0.5155  0.4090  0.6283
 1003MOL0     C35290   4.714   3.773  11.693 -0.6551  0.3784 -0.4487
 1003MOL0     C35291   4.578   3.753  11.752 -0.4394  0.7108  0.1056
 1003MOL0     C35292   4.496   3.637  11.697 -0.8395 -0.3241  1.3155
 1003MOL0     C35293   4.496   3.514  11.782 -0.3817  0.5283 -0.2041
 1003MOL0     O35294   4.629   3.459  11.779  0.0172  1.0711  0.1648
 1003MOL0     C35295   4.656   3.386  11.888  0.4553  0.3965 -0.6094
 1003MOL0     C35296   4.777   3.388  11.959 -0.2954 -1.4666 -0.0342
 1003MOL0     C35297   4.808   3.306  12.068  1.3576 -0.7244 -0.4836
 1003MOL0     C35298   4.702   3.225  12.128  0.0648 -0.4919  0.1771
 1003MOL0     C35299   4.729   3.133  12.242 -0.9119  0.6983  0.3449
 1003MOL0     O35300   4.847   3.134  12.300 -0.8491  0.2153 -0.3212
 1003MOL0     C35301   4.925   3.023  12.319  1.3543  1.1125 -0.7697
 1003MOL0     C35302   5.038   3.023  12.398  0.3944 -0.5045  0.2450
 1003MOL0     C35303   5.119   2.911  12.413  0.9334  0.0305 -0.0382
 1003MOL0     C35304   5.096   2.786  12.338  0.1702 -1.3652 -0.5287
 1003MOL0     O35305   5.173   2.678  12.371  0.5606  0.5530  0.0365
 1003MOL0     C35306   5.134   2.541  12.331 -0.2155 -0.0299 -0.1603
 1003MOL0     C35307   5.260   2.461  12.378  0.7672 -0.2208  0.1737
 1003MOL0     C35308   5.352   2.423  12.261 -1.0023 -0.5887 -0.9826
 1003MOL0     C35309   5.495   2.405  12.311 -0.3308  0.8621 -0.5350
 1003MOL0     C35310   5.497   2.291  12.416  0.5599  0.9396  0.6762
 1003MOL0     C35311   5.633   2.223  12.428 -0.6479 -1.2712  0.3242
 1003MOL0     C35312   5.620   2.084  12.485 -0.0638 -0.7708  0.3996
 1003MOL0     C35313   5.587   2.088  12.633 -0.1676 -1.2015  0.0867
 1003MOL0    Cl35314   5.717   2.110  12.742 -0.2957  0.0891 -0.0604
 1003MOL0     C35315   4.979   2.782  12.257  0.5603 -0.2302 -0.5064
 1003MOL0     C35316   4.891   2.897  12.258  0.1895  0.6224 -0.1010
 1003MOL0     O35317   4.635   3.073  12.289 -0.0592  0.2177  0.1371
 1003MOL0     C35318   4.582   3.217  12.050  0.3711  0.4518 -0.6909
 1003MOL0     C35319   4.560   3.303  11.947 -0.2143 -0.4545 -0.2510
 1003MOL0     N35320   4.813   3.909  11.879  0.7227  0.5404 -0.0323
 1003MOL0     N35321   4.863   4.030  11.890 -0.4031  0.6783  0.0221
 1003MOL0     C35322   5.580   4.762  11.336 -0.5464 -0.0615  0.5809
 1003MOL0     C35323   5.566   4.840  11.218  0.7559  0.0510 -0.4433
 1003MOL0     C35324   5.371   5.156  10.950  0.6883  0.2100  0.7349
 1003MOL0     C35325   5.474   5.247  10.927  0.4407 -0.4928  0.1335
 1003MOL0     C35326   5.486   5.308  10.808 -0.7939 -0.2567  1.0247
 1003MOL0     C35327   5.390   5.309  10.705  0.3024  0.2236 -0.0561
 1003MOL0     O35328   5.387   5.395  10.595 -0.3644  0.4667 -1.1728
 1003MOL0     C35329   5.499   5.486  10.572  0.8134 -0.0602  0.5696
 1003MOL0     C35330   5.505   5.613  10.675 -0.2715  0.3905 -0.9248
 1003MOL0     C35331   5.382   5.695  10.644 -0.7208 -0.0835  0.6751
 1003MOL0     C35332   5.359   5.819  10.727  0.7433  0.2335  0.0058
 1003MOL0     C35333   5.227   5.885  10.703 -0.5803  0.5361 -0.5085
 1003MOL0     C35334   5.123   5.941  10.695 -0.0270 -0.0235 -0.2095
 1003MOL0     C35335   5.281   5.220  10.728 -0.1709  0.2488  0.0960
 1003MOL0     C35336   5.276   5.135  10.847 -0.8655  1.1758 -0.3095
 1003MOL0     C35337   5.151   5.056  10.853 -0.6629  0.0866  0.5048
 1003MOL0     H35338   5.418   5.110  11.367  0.9246  0.3538 -1.1671
 1003MOL0     H35339   5.450   4.956  11.578 -2.3554 -1.6441 -0.3440
 1003MOL0     H35340   5.562   4.838  11.726 -0.3700  0.2513 -2.6927
 1003MOL0     H35341   5.406   4.782  11.699 -0.0044  0.0509  0.8655
 1003MOL0     H35342   5.495   4.681  11.911  1.8258 -2.4041  0.8495
 1003MOL0     H35343   5.632   4.631  11.822 -0.7019  0.8080  2.7499
 1003MOL0     H35344   5.487   4.447  11.886  1.4980  1.1918  0.9165
 1003MOL0     H35345   5.526   4.453  11.712  1.3291  0.2601  0.4220
 1003MOL0     H35346   5.281   4.543  11.863  0.8286 -0.6876  1.0737
 1003MOL0     H35347   5.313   4.572  11.682  0.4916  1.4171  0.7977
 1003MOL0     H35348   5.313   4.332  11.643  0.7535 -1.2863  1.5413
 1003MOL0     H35349   5.300   4.304  11.814 -2.9670 -1.7925  0.9320
 1003MOL0     H35350   5.070   4.406  11.830 -0.5699  0.5571  0.2028
 1003MOL0     H35351   5.062   4.436  11.656 -1.0465 -2.2807 -2.6690
 1003MOL0     H35352   5.119   4.163  11.785  1.5654  2.1782  2.5297
 1003MOL0     H35353   5.075   4.203  11.613  1.3941 -2.1880 -0.3197
 1003MOL0     H35354   4.902   4.282  11.860  1.9601  1.6640 -0.7727
 1003MOL0     H35355   4.852   4.289  11.686  1.8252 -0.4566 -1.3290
 1003MOL0     H35356   4.796   4.036  11.572  0.8260 -1.2096 -0.0499
 1003MOL0     H35357   4.718   3.775  11.584  0.1537 -3.0269 -0.6076
 1003MOL0     H35358   4.782   3.697  11.733  0.0488  1.3175  0.1693
 1003MOL0     H35359   4.578   3.746  11.861 -2.6994 -0.2687  0.1099
 1003MOL0     H35360   4.530   3.848  11.726  2.0318  2.3039  0.9651
 1003MOL0     H35361   4.549   3.614  11.604  1.5895  1.3142  2.2019
 1003MOL0     H35362   4.399   3.672  11.659  0.1755 -0.1289 -1.3156
 1003MOL0     H35363   4.426   3.439  11.744  1.1186  0.3909 -2.9145
 1003MOL0     H35364   4.469   3.549  11.882 -0.7576  0.7003 -0.3648
 1003MOL0     H35365   4.851   3.459  11.924 -2.6678  0.7822 -0.8124
 1003MOL0     H35366   4.896   3.322  12.129  1.0428 -1.1015  0.0686
 1003MOL0     H35367   5.080   3.116  12.435 -1.5647  1.3091 -1.8375
 1003MOL0     H35368   5.207   2.921  12.476  0.1604 -1.0853  1.2737
 1003MOL0     H35369   5.048   2.499  12.384 -2.5352  0.1123 -3.4685
 1003MOL0     H35370   5.118   2.527  12.224  1.8558  0.4591 -0.5695
 1003MOL0     H35371   5.306   2.530  12.449  0.4359  1.5593 -1.2875
 1003MOL0     H35372   5.228   2.373  12.435 -1.0443 -0.7371 -1.5271
 1003MOL0     H35373   5.322   2.325  12.225  2.3798 -1.8052 -0.8360
 1003MOL0     H35374   5.354   2.507  12.190 -0.2680 -0.1608 -0.4711
 1003MOL0     H35375   5.546   2.499  12.334 -1.4371  2.6586 -4.5184
 1003MOL0     H35376   5.556   2.368  12.227 -2.8863  0.1699 -2.2129
 1003MOL0     H35377   5.412   2.225  12.393  1.7061 -1.1577  2.1088
 1003MOL0     H35378   5.477   2.323  12.519 -0.9192  0.9473  0.4170
 1003MOL0     H35379   5.672   2.213  12.326 -3.1549  0.4173 -0.9320
 1003MOL0     H35380   5.699   2.279  12.494 -0.5112 -2.1515  0.9472
 1003MOL0     H35381   5.721   2.042  12.477  0.0614 -0.1311 -2.3811
 1003MOL0     H35382   5.554   2.027  12.419  1.6543  1.1546 -3.2628
 1003MOL0     H35383   5.519   2.165  12.669  0.4656 -0.5074 -0.1685
 1003MOL0     H35384   5.549   1.987  12.654  1.1458 -0.9574  4.5386
 1003MOL0     H35385   4.948   2.690  12.207 -1.5025  0.6095 -0.8965
 1003MOL0     H35386   4.795   2.888  12.209  0.1425 -1.0464  0.2367
 1003MOL0     H35387   4.496   3.163  12.088 -0.6265  2.1891 -0.3581
 1003MOL0     H35388   4.462   3.297  11.899  1.8180 -4.1139 -4.7720
 1003MOL0     H35389   5.618   4.661  11.322 -2.3294 -0.5220 -1.4119
 1003MOL0     H35390   5.588   4.813  11.116  1.6073  2.1166 -0.8579
 1003MOL0     H35391   5.552   5.263  11.001 -0.7896 -1.3450  1.6892
 1003MOL0     H35392   5.568   5.376  10.786 -2.6471  0.9604 -3.0819
 1003MOL0     H35393   5.506   5.512  10.465  1.9807  2.1595  1.1192
 1003MOL0     H35394   5.594   5.435  10.591  0.1690 -0.5827  2.6105
 1003MOL0     H35395   5.607   5.649  10.658  0.2259 -1.3723 -1.9573
 1003MOL0     H35396   5.491   5.584  10.779  1.7260  2.6435  0.0482
 1003MOL0     H35397   5.287   5.643  10.655 -1.3022  0.3881 -1.5304
 1003MOL0     H35398   5.392   5.724  10.538 -1.3008 -0.3263  0.5518
 1003MOL0     H35399   5.349   5.794  10.833 -1.8667 -0.5631 -0.3737
 1003MOL0     H35400   5.437   5.896  10.721  0.0609  0.8911 -0.8855
 1003MOL0     H35401   5.028   5.991  10.697 -0.3529 -0.6161 -0.6221
 1003MOL0     H35402   5.199   5.224  10.658 -1.7027 -1.6555  1.6554
 1003MOL0     H35403   5.181   4.955  10.883 -4.0216 -0.6509  1.8515
 1003MOL0     H35404   5.087   5.091  10.934  1.2152  0.4751  1.8857
 1003MOL0     H35405   5.100   5.058  10.756  0.8786  2.3094 -0.3382
 1004MOL0     O35406   9.484   3.136  11.411  0.7061  0.1479  0.0101
 1004MOL0     C35407   9.565   3.202  11.483  0.9534  0.4736  0.1503
 1004MOL0     O35408   9.599   3.163  11.606 -0.7814  0.0659  0.7192
 1004MOL0     C35409   9.629   3.027  11.613  0.1706  0.3713 -0.5637
 1004MOL0     C35410   9.762   3.003  11.610 -0.1577  0.1755  0.2977
 1004MOL0     C35411   9.813   2.872  11.632 -0.0149 -0.8167 -0.2001
 1004MOL0     C35412   9.732   2.764  11.659 -0.2541 -0.5966 -0.0674
 1004MOL0     O35413   9.778   2.638  11.684  0.0987  0.1938  0.0148
 1004MOL0     C35414   9.891   2.589  11.607 -0.3520 -0.9120 -0.5972
 1004MOL0     C35415   9.912   2.451  11.577 -0.2573  0.3660 -0.0282
 1004MOL0     C35416   9.787   2.371  11.533 -1.7526  0.6902 -0.7205
 1004MOL0     C35417   9.764   2.407  11.389  0.7351  0.1934 -0.3836
 1004MOL0     C35418   9.654   2.323  11.335  0.4973 -0.2750 -0.0788
 1004MOL0     C35419   9.641   2.369  11.192 -0.0087  0.0791  0.4675
 1004MOL0     C35420   9.526   2.306  11.118  0.3903  0.2369  0.6622
 1004MOL0     C35421   9.542   2.310  10.968 -0.7847  0.7062  0.0366
 1004MOL0     N35422   9.565   2.447  10.917 -0.6763 -0.0308 -1.1611
 1004MOL0     C35423   9.690   2.487  10.883  0.3019  0.2674 -0.5188
 1004MOL0     C35424   9.678   2.599  10.814 -0.5224 -0.2903  1.2393
 1004MOL0     C35425   9.791   2.674  10.745 -0.3244  0.2161  0.2535
 1004MOL0     C35426   9.932   2.651  10.806  0.5681 -0.9578  0.4908
 1004MOL0     C35427  10.055   2.687  10.726  0.9017 -0.2119  0.2431
 1004MOL0     C35428  10.041   2.837  10.675  0.0127 -1.1094  0.4188
 1004MOL0     O35429  10.063   2.923  10.781 -0.7660  0.2420  0.3752
 1004MOL0     C35430  10.197   2.967  10.788  0.2959 -0.6171 -0.3164
 1004MOL0     C35431  10.259   3.072  10.710  1.1677 -1.0226 -0.7980
 1004MOL0     C35432  10.389   3.110  10.733  1.2411 -0.3880  0.8666
 1004MOL0     C35433  10.471   3.036  10.813  0.9520 -0.2701 -0.2571
 1004MOL0     C35434  10.609   3.070  10.830 -0.4542 -0.2222  1.1841
 1004MOL0     O35435  10.644   3.202  10.792 -0.1710  0.1356  0.9061
 1004MOL0     C35436  10.771   3.244  10.815 -0.0242 -0.7436  0.1690
 1004MOL0     C35437  10.859   3.263  10.704 -0.4659 -0.6645 -0.1889
 1004MOL0     C35438  10.977   3.339  10.715  0.9332 -0.7714  0.5304
 1004MOL0     C35439  11.013   3.395  10.844 -0.5857  0.7439  0.1696
 1004MOL0     O35440  11.136   3.452  10.842  1.2497  0.1155 -0.0188
 1004MOL0     C35441  11.147   3.590  10.794 -0.2540 -0.5080 -0.0687
 1004MOL0     C35442  11.282   3.633  10.758  0.8722  0.3172  0.1056
 1004MOL0     C35443  11.323   3.560  10.630  0.1062 -0.5591  0.2393
 1004MOL0     C35444  11.460   3.596  10.575 -0.3001  0.2376  0.2689
 1004MOL0     C35445  11.508   3.514  10.449 -0.0942 -0.2842 -0.0746
 1004MOL0     C35446  11.623   3.582  10.371  0.8040  0.1345  0.3804
 1004MOL0     C35447  11.635   3.521  10.226  0.4710 -0.0704 -0.3127
 1004MOL0     C35448  11.699   3.386  10.229 -0.6115  0.2239  0.3317
 1004MOL0    Cl35449  11.764   3.344  10.071 -0.2781 -0.3843  0.0632
 1004MOL0     C35450  10.926   3.367  10.952 -0.4940  0.1189  1.2547
 1004MOL0     C35451  10.798   3.297  10.943 -0.9443  0.5622  0.3866
 1004MOL0     O35452  10.694   2.985  10.857  0.5455 -1.4540 -0.1499
 1004MOL0     C35453  10.414   2.937  10.893 -0.1115 -0.2498  0.8128
 1004MOL0     C35454  10.279   2.896  10.880  0.2183 -0.3098  0.4226
 1004MOL0     N35455   9.540   2.633  10.809 -0.0148 -0.5576 -0.0794
 1004MOL0     N35456   9.485   2.547  10.892  0.2482 -0.6329  0.0446
 1004MOL0     C35457   9.595   2.787  11.672  0.5291  0.0558 -0.2660
 1004MOL0     C35458   9.544   2.924  11.653  0.1441 -0.1949 -0.3075
 1004MOL0     C35459   9.614   3.326  11.412  0.3846  0.5871 -0.0389
 1004MOL0     C35460   9.573   3.363  11.289  0.1258  0.3291  0.9185
 1004MOL0     C35461   9.624   3.473  11.224  0.2594 -0.0606  0.1016
 1004MOL0     C35462   9.721   3.547  11.286  0.3457 -1.0669  0.4386
 1004MOL0     O35463   9.786   3.650  11.221 -0.2579  0.4403  0.2702
 1004MOL0     C35464   9.755   3.711  11.095 -0.0725  0.4263  0.7785
 1004MOL0     C35465   9.648   3.822  11.126 -0.1342  0.7615  0.0444
 1004MOL0     C35466   9.569   3.869  11.008  0.8602 -0.4603  0.0964
 1004MOL0     C35467   9.422   3.891  11.058  0.0548 -0.5559 -0.0812
 1004MOL0     C35468   9.346   3.975  10.960  0.0630  1.1404 -0.7955
 1004MOL0     C35469   9.272   4.040  10.892  0.9048 -0.5571  0.2438
 1004MOL0     C35470   9.752   3.524  11.416 -0.0504 -0.4437  0.0651
 1004MOL0     C35471   9.705   3.414  11.489 -0.1395  0.3870  1.4550
 1004MOL0     C35472   9.774   3.400  11.621 -0.4505  0.8077  1.1174
 1004MOL0     H35473   9.832   3.084  11.590 -1.7390  1.0859 -1.9110
 1004MOL0     H35474   9.920   2.859  11.626  0.0671  0.1048 -1.3301
 1004MOL0     H35475   9.910   2.647  11.516 -0.0777  1.6242  0.9427
 1004MOL0     H35476   9.977   2.603  11.674 -0.5207 -1.7990 -0.1934
 1004MOL0     H35477   9.960   2.398  11.660  2.1590 -0.0159 -1.6010
 1004MOL0     H35478   9.984   2.436  11.496  0.5378  0.6795  0.6105
 1004MOL0     H35479   9.695   2.391  11.589 -0.5855  2.8767  0.5618
 1004MOL0     H35480   9.820   2.267  11.543  2.1960  1.8358  0.2852
 1004MOL0     H35481   9.734   2.512  11.385  0.3397  0.1778  1.5305
 1004MOL0     H35482   9.852   2.393  11.325  1.2860 -2.0708  0.7895
 1004MOL0     H35483   9.682   2.217  11.346  1.1923 -0.4935 -3.0126
 1004MOL0     H35484   9.561   2.346  11.387  1.0807 -2.3452  2.0722
 1004MOL0     H35485   9.639   2.477  11.183 -0.8498  0.0329  0.0150
 1004MOL0     H35486   9.732   2.334  11.142  0.0884 -4.5881  3.2733
 1004MOL0     H35487   9.431   2.356  11.140  0.5418  0.4191  0.9024
 1004MOL0     H35488   9.513   2.200  11.141  0.2550  0.4126  1.4359
 1004MOL0     H35489   9.628   2.245  10.949  0.1404  1.7670  0.5085
 1004MOL0     H35490   9.450   2.267  10.927 -1.1186 -1.7597  2.9798
 1004MOL0     H35491   9.778   2.424  10.892  0.6539  0.1242 -3.6063
 1004MOL0     H35492   9.792   2.663  10.636 -0.4783  2.9488 -0.1008
 1004MOL0     H35493   9.767   2.780  10.761  2.7426  1.1420 -0.5978
 1004MOL0     H35494   9.945   2.702  10.902 -0.1682  2.3450 -1.0202
 1004MOL0     H35495   9.945   2.546  10.834 -0.4424 -2.4603 -3.8647
 1004MOL0     H35496  10.078   2.624  10.639 -0.4004  1.0540 -1.0881
 1004MOL0     H35497  10.139   2.674  10.795  2.6252  0.8513 -1.5182
 1004MOL0     H35498   9.944   2.869  10.637 -0.6700 -3.9424 -0.4295
 1004MOL0     H35499  10.100   2.866  10.588 -0.8080 -1.3406 -0.2238
 1004MOL0     H35500  10.186   3.122  10.646 -2.0343 -1.8648  1.8930
 1004MOL0     H35501  10.418   3.196  10.672 -0.0033 -1.1565 -0.9126
 1004MOL0     H35502  10.822   3.225  10.609 -3.1876  1.1626  0.0400
 1004MOL0     H35503  11.041   3.364  10.631  0.6518 -4.8067 -1.1067
 1004MOL0     H35504  11.071   3.617  10.720 -2.0753  0.4151  2.0238
 1004MOL0     H35505  11.118   3.648  10.883  0.3450  0.0195 -0.2141
 1004MOL0     H35506  11.271   3.741  10.752 -1.5418  0.0619 -2.8185
 1004MOL0     H35507  11.350   3.596  10.835  1.4103 -2.2683 -1.4642
 1004MOL0     H35508  11.319   3.452  10.649 -1.1708 -0.3055  1.6119
 1004MOL0     H35509  11.250   3.597  10.557 -0.3945  1.4787  1.7218
 1004MOL0     H35510  11.539   3.585  10.649 -0.5643 -0.6298  0.4324
 1004MOL0     H35511  11.463   3.703  10.554 -1.8370  0.4971  1.1738
 1004MOL0     H35512  11.425   3.519  10.377 -1.0264  0.3638  1.0089
 1004MOL0     H35513  11.540   3.414  10.479  0.3026 -0.2572 -0.3997
 1004MOL0     H35514  11.605   3.689  10.360  0.3827 -0.2299 -3.9217
 1004MOL0     H35515  11.714   3.551  10.423  0.2604 -3.4142 -0.5200
 1004MOL0     H35516  11.706   3.588  10.177  2.7860 -1.8653  0.3702
 1004MOL0     H35517  11.548   3.518  10.160  0.2843  0.9512 -0.1297
 1004MOL0     H35518  11.786   3.389  10.296 -1.2868  0.7369  1.2008
 1004MOL0     H35519  11.634   3.310  10.273  0.0163 -0.4848  0.0639
 1004MOL0     H35520  10.956   3.397  11.052 -0.3613 -0.7681  1.4860
 1004MOL0     H35521  10.731   3.283  11.027  1.6708  0.5430  2.6154
 1004MOL0     H35522  10.474   2.863  10.944 -2.9426 -1.8342  2.0717
 1004MOL0     H35523  10.254   2.805  10.933 -2.4161 -0.6636 -1.2573
 1004MOL0     H35524   9.536   2.701  11.701 -3.3575  2.8330  0.8051
 1004MOL0     H35525   9.440   2.950  11.633 -0.4245  0.1705  2.7417
 1004MOL0     H35526   9.490   3.318  11.236 -0.3968  3.9213 -1.6875
 1004MOL0     H35527   9.587   3.481  11.122  4.7418 -1.9813 -1.9850
 1004MOL0     H35528   9.706   3.636  11.032  1.6399  0.1253 -0.2657
 1004MOL0     H35529   9.851   3.742  11.051 -0.3337  0.2110  0.0316
 1004MOL0     H35530   9.701   3.906  11.169 -3.5347  1.6890  2.9140
 1004MOL0     H35531   9.574   3.772  11.190  0.5124 -0.8364 -0.4154
 1004MOL0     H35532   9.564   3.790  10.932 -2.9203 -2.6588  2.3127
 1004MOL0     H35533   9.615   3.957  10.963  4.0520 -1.8443  0.4083
 1004MOL0     H35534   9.389   3.789  11.081  1.6870 -1.5960 -1.9738
 1004MOL0     H35535   9.417   3.940  11.155  0.2620 -4.0863  1.8619
 1004MOL0     H35536   9.219   4.104  10.825  1.5556 -1.1063 -0.8312
 1004MOL0     H35537   9.827   3.591  11.457 -2.4277  0.2509  3.7213
 1004MOL0     H35538   9.703   3.371  11.698  3.0218 -3.1092  3.2727
 1004MOL0     H35539   9.852   3.323  11.619 -1.3872 -0.1762  1.3498
 1004MOL0     H35540   9.834   3.486  11.651 -0.0235  0.6270  0.7976
 1005MOL0     O35541   9.818   1.566   5.805 -0.1881  0.0244  0.2075
 1005MOL0     C35542   9.820   1.444   5.835 -0.3235 -1.0737  1.1910
 1005MOL0     O35543   9.876   1.346   5.760 -0.4454  0.1718  0.2315
 1005MOL0     C35544   9.915   1.353   5.633  0.1007  0.7127 -0.6506
 1005MOL0     C35545   9.934   1.229   5.574  0.7150 -0.5588  0.2286
 1005MOL0     C35546   9.978   1.212   5.444 -1.1586  0.0518  0.1604
 1005MOL0     C35547   9.996   1.327   5.367 -0.4872  0.5297  0.0819
 1005MOL0     O35548  10.015   1.319   5.231 -0.0877  0.9535  0.0281
 1005MOL0     C35549  10.111   1.415   5.177  0.3488 -0.2483  0.0772
 1005MOL0     C35550  10.137   1.375   5.025  0.0863 -0.6112  0.0166
 1005MOL0     C35551  10.230   1.244   5.026  0.6370 -1.0428 -0.9847
 1005MOL0     C35552  10.253   1.162   4.908  0.3736 -0.5852  0.6327
 1005MOL0     C35553  10.309   1.031   4.935 -0.3735 -0.6738  0.2561
 1005MOL0     C35554  10.213   0.907   4.906  0.2043 -0.5812 -0.6941
 1005MOL0     C35555  10.097   0.905   5.005  0.5257  1.4476 -0.4168
 1005MOL0     C35556   9.973   0.975   4.942 -0.8628  0.1356 -0.3531
 1005MOL0     N35557   9.875   0.932   5.040 -0.3752 -0.8365  0.7226
 1005MOL0     C35558   9.833   1.021   5.138  0.1086 -0.8005 -0.4830
 1005MOL0     C35559   9.737   0.956   5.205 -0.0978  0.2770 -0.0653
 1005MOL0     C35560   9.648   0.990   5.324 -0.2121  0.6561 -0.1079
 1005MOL0     C35561   9.690   0.913   5.431 -0.2926 -0.4911 -0.5874
 1005MOL0     C35562   9.629   0.970   5.559  0.1568  0.4846  0.8221
 1005MOL0     C35563   9.663   0.854   5.670  0.3510  0.8211 -1.2018
 1005MOL0     O35564   9.783   0.886   5.740 -0.0387  0.1514  0.5436
 1005MOL0     C35565   9.795   0.870   5.880  0.6623 -0.7039 -0.2165
 1005MOL0     C35566   9.702   0.792   5.954  0.0845  0.0748 -0.2197
 1005MOL0     C35567   9.725   0.778   6.090  1.2236 -0.1969  0.1201
 1005MOL0     C35568   9.828   0.840   6.160  0.7853  0.2523  0.5979
 1005MOL0     C35569   9.842   0.831   6.307 -0.4576 -0.6950 -0.6619
 1005MOL0     O35570   9.928   0.915   6.372 -0.2842  0.2362  0.6445
 1005MOL0     C35571   9.969   0.875   6.492  0.2740 -0.8884 -0.2367
 1005MOL0     C35572   9.960   0.968   6.597  1.0304  0.1090  0.2144
 1005MOL0     C35573   9.991   0.946   6.724 -0.8231  0.3518  0.7455
 1005MOL0     C35574  10.057   0.814   6.759  0.2537  0.2805  0.8605
 1005MOL0     O35575  10.093   0.807   6.890 -0.7544  0.6413  0.0784
 1005MOL0     C35576  10.167   0.686   6.943 -0.0081  0.1778  0.5008
 1005MOL0     C35577  10.218   0.708   7.089 -0.8937 -0.4008 -0.6025
 1005MOL0     C35578  10.103   0.744   7.179  1.4576  0.1545 -0.7842
 1005MOL0     C35579  10.143   0.700   7.327 -0.0442  0.0934 -0.6630
 1005MOL0     C35580  10.011   0.734   7.410  0.6836  0.1451 -0.9973
 1005MOL0     C35581   9.985   0.663   7.541  0.7898  0.0724 -0.2476
 1005MOL0     C35582   9.844   0.681   7.603  0.8861  0.8695 -0.7827
 1005MOL0     C35583   9.784   0.821   7.577  0.4263 -0.1488  0.4116
 1005MOL0    Cl35584   9.622   0.808   7.648  0.4616 -0.1187 -0.2300
 1005MOL0     C35585  10.064   0.716   6.656  0.8459 -0.6475 -0.5913
 1005MOL0     C35586  10.014   0.751   6.528  0.3288  0.3043  0.4538
 1005MOL0     O35587   9.771   0.738   6.361  0.0487  0.0461 -0.8452
 1005MOL0     C35588   9.911   0.926   6.095 -0.3853 -0.7393  0.7578
 1005MOL0     C35589   9.899   0.944   5.957 -0.1187  0.6949  0.7768
 1005MOL0     N35590   9.730   0.825   5.152 -0.7899  0.1645  0.0876
 1005MOL0     N35591   9.820   0.809   5.055  0.0860  0.2075  0.7318
 1005MOL0     C35592   9.978   1.454   5.428  0.2210  0.0816 -1.2568
 1005MOL0     C35593   9.925   1.470   5.554  0.7094 -0.4518 -0.3387
 1005MOL0     C35594   9.764   1.414   5.967 -0.9380  1.1712 -0.9949
 1005MOL0     C35595   9.730   1.279   5.985  0.4569  0.1988  0.2770
 1005MOL0     C35596   9.656   1.220   6.089  0.0465  0.0239  0.3238
 1005MOL0     C35597   9.628   1.315   6.191  0.1801 -0.6841  0.7078
 1005MOL0     O35598   9.574   1.259   6.299 -0.1171  0.4148 -1.0932
 1005MOL0     C35599   9.503   1.345   6.397  0.7296 -0.7017  0.1065
 1005MOL0     C35600   9.422   1.256   6.491  0.5416 -0.3229  0.6297
 1005MOL0     C35601   9.408   1.331   6.626  0.4730  0.5130 -0.2482
 1005MOL0     C35602   9.315   1.262   6.724  0.1563 -0.7103  0.2302
 1005MOL0     C35603   9.331   1.114   6.726 -0.2939 -0.7558  0.0906
 1005MOL0     C35604   9.357   0.994   6.715 -0.2933 -0.1340  0.1983
 1005MOL0     C35605   9.650   1.449   6.173  0.0566  0.4734 -0.2015
 1005MOL0     C35606   9.733   1.492   6.070  0.4743 -0.3067 -0.0754
 1005MOL0     C35607   9.797   1.630   6.069  0.1925 -0.1520 -0.0294
 1005MOL0     H35608   9.919   1.147   5.644  1.3293 -0.2692  0.7002
 1005MOL0     H35609   9.999   1.111   5.410 -0.4169 -0.3735  1.7579
 1005MOL0     H35610  10.064   1.514   5.183  1.4935  0.4150 -1.3118
 1005MOL0     H35611  10.210   1.414   5.224  1.2633  2.6360 -1.5355
 1005MOL0     H35612  10.180   1.462   4.974 -1.3052 -0.2425 -0.5842
 1005MOL0     H35613  10.036   1.358   4.987 -0.2824 -3.4853  1.9826
 1005MOL0     H35614  10.185   1.175   5.099  4.5966 -1.5786  1.2564
 1005MOL0     H35615  10.320   1.278   5.079 -0.0545 -0.1552 -0.3280
 1005MOL0     H35616  10.174   1.159   4.834  1.8603 -3.2344 -1.0395
 1005MOL0     H35617  10.323   1.224   4.852 -0.4622 -0.4578 -0.2734
 1005MOL0     H35618  10.395   1.017   4.868  0.9394  0.8015  1.5336
 1005MOL0     H35619  10.354   1.020   5.034 -1.1209 -1.3024  0.5316
 1005MOL0     H35620  10.194   0.904   4.799 -2.6906  0.6399 -0.3077
 1005MOL0     H35621  10.271   0.815   4.921 -0.1322 -1.1025 -2.3940
 1005MOL0     H35622  10.132   0.937   5.104  1.5213 -0.1605 -0.2103
 1005MOL0     H35623  10.076   0.799   5.025  1.8558  1.0538 -0.9981
 1005MOL0     H35624   9.983   1.081   4.921  3.6406 -0.1863 -0.8985
 1005MOL0     H35625   9.943   0.923   4.851 -0.6759 -1.8393  0.6332
 1005MOL0     H35626   9.868   1.124   5.142  0.1671 -0.4550 -4.8718
 1005MOL0     H35627   9.657   1.097   5.345  1.6449  0.6972 -0.9282
 1005MOL0     H35628   9.544   0.977   5.291 -0.5518  2.9237 -0.1095
 1005MOL0     H35629   9.656   0.812   5.404 -1.8459 -0.4618  1.0466
 1005MOL0     H35630   9.799   0.906   5.435 -0.1290  0.1181 -2.6895
 1005MOL0     H35631   9.521   0.991   5.556  0.7915  4.2705 -0.2388
 1005MOL0     H35632   9.674   1.068   5.573  0.2087  0.7058 -0.6981
 1005MOL0     H35633   9.669   0.754   5.628 -0.0573 -0.3345  1.2969
 1005MOL0     H35634   9.582   0.865   5.743  0.2854  1.6322 -1.3838
 1005MOL0     H35635   9.625   0.738   5.901 -0.1248 -1.4289  1.5584
 1005MOL0     H35636   9.652   0.711   6.133  0.2824  0.6772 -0.0713
 1005MOL0     H35637   9.907   1.060   6.571  1.2669  0.6278  1.5330
 1005MOL0     H35638   9.974   1.026   6.796  3.8532  0.3742  2.2159
 1005MOL0     H35639  10.117   0.588   6.950  2.1179 -1.3152 -2.6284
 1005MOL0     H35640  10.241   0.655   6.868 -0.7577 -4.5754  1.4175
 1005MOL0     H35641  10.267   0.620   7.132  1.0364  0.8646 -0.0671
 1005MOL0     H35642  10.291   0.789   7.100  0.4269 -1.6557  0.3465
 1005MOL0     H35643  10.070   0.849   7.175 -2.1507 -0.8809 -2.3165
 1005MOL0     H35644  10.021   0.678   7.149 -1.2944  2.9450  0.0560
 1005MOL0     H35645  10.232   0.752   7.363 -1.1941 -0.3767  3.3101
 1005MOL0     H35646  10.153   0.591   7.329 -3.5980 -0.4359 -2.2743
 1005MOL0     H35647   9.929   0.700   7.346 -1.5239 -0.8807  2.1257
 1005MOL0     H35648   9.995   0.842   7.417 -5.1926 -0.4247 -0.6512
 1005MOL0     H35649   9.993   0.555   7.524 -1.5439 -0.4257  1.3796
 1005MOL0     H35650  10.055   0.699   7.617 -1.2107  3.0599  0.3425
 1005MOL0     H35651   9.853   0.656   7.709 -0.3351  0.4629 -0.7661
 1005MOL0     H35652   9.769   0.610   7.569  1.9512 -0.7998  0.2269
 1005MOL0     H35653   9.835   0.903   7.627  0.0889  1.9882 -2.5284
 1005MOL0     H35654   9.791   0.821   7.468  0.4838 -1.9208  0.3757
 1005MOL0     H35655  10.103   0.619   6.686 -0.8839 -1.7498 -1.7117
 1005MOL0     H35656  10.020   0.672   6.453 -0.4006  1.8125 -1.2814
 1005MOL0     H35657   9.984   0.988   6.145  0.7406  0.2171 -1.9363
 1005MOL0     H35658   9.958   1.013   5.898  1.5235 -0.7067  0.6756
 1005MOL0     H35659   9.987   1.549   5.375  0.2214 -0.8053 -2.9195
 1005MOL0     H35660   9.920   1.571   5.593  0.5573 -0.3197 -0.6944
 1005MOL0     H35661   9.754   1.206   5.908 -0.0422  1.6862 -1.3460
 1005MOL0     H35662   9.627   1.115   6.087 -0.1858  0.0865 -1.3645
 1005MOL0     H35663   9.437   1.424   6.360  0.9349  1.0019  3.0699
 1005MOL0     H35664   9.580   1.389   6.461 -0.1766  1.2942 -0.1238
 1005MOL0     H35665   9.475   1.161   6.502  2.8630  0.8593  0.3175
 1005MOL0     H35666   9.322   1.246   6.448 -0.1187 -1.5118  2.3071
 1005MOL0     H35667   9.378   1.435   6.615  0.4163  0.5831  0.4803
 1005MOL0     H35668   9.500   1.332   6.686 -0.1466  0.3177  0.7377
 1005MOL0     H35669   9.351   1.314   6.813 -0.3493  0.3283 -0.1534
 1005MOL0     H35670   9.209   1.287   6.713  0.7043  0.4503 -3.8185
 1005MOL0     H35671   9.361   0.888   6.725  4.1647 -0.2081 -0.0569
 1005MOL0     H35672   9.641   1.528   6.247  1.0842  0.3825  0.0365
 1005MOL0     H35673   9.889   1.628   6.010 -1.7811 -3.0189 -3.4118
 1005MOL0     H35674   9.725   1.703   6.032 -1.8702 -2.5097 -0.9202
 1005MOL0     H35675   9.814   1.653   6.175 -0.9449 -1.6831  0.5151
 1006MOL0     O35676   1.258   4.553   2.208  0.0894  0.2455  0.4068
 1006MOL0     C35677   1.172   4.503   2.130 -0.5188 -0.1785  0.5430
 1006MOL0     O35678   1.034   4.488   2.162  0.7126  0.1133 -1.0297
 1006MOL0     C35679   0.986   4.472   2.289 -0.1243 -0.9391 -0.0276
 1006MOL0     C35680   1.062   4.428   2.410 -0.2441 -0.0679  0.5175
 1006MOL0     C35681   1.006   4.440   2.532  0.4690 -0.5823 -0.3727
 1006MOL0     C35682   0.871   4.479   2.557 -0.0020  0.2697 -0.2347
 1006MOL0     O35683   0.802   4.465   2.677 -0.4083 -0.0115 -0.4595
 1006MOL0     C35684   0.842   4.364   2.770  0.2717  0.5662  0.0010
 1006MOL0     C35685   0.724   4.349   2.875 -0.4223 -0.3994  0.2085
 1006MOL0     C35686   0.693   4.477   2.938  0.9144  0.0860 -0.3248
 1006MOL0     C35687   0.607   4.463   3.058  0.5948 -0.0312 -0.7256
 1006MOL0     C35688   0.580   4.603   3.108  0.4632  0.5499 -0.3478
 1006MOL0     C35689   0.480   4.624   3.221 -0.3686 -0.0177  0.2930
 1006MOL0     C35690   0.447   4.771   3.253 -0.0634 -0.7593 -0.3644
 1006MOL0     C35691   0.412   4.806   3.392 -0.6267  0.5030 -0.0266
 1006MOL0     N35692   0.304   4.728   3.460 -0.6002 -0.3768 -0.2468
 1006MOL0     C35693   0.208   4.784   3.546 -0.1641 -0.1889 -0.6604
 1006MOL0     C35694   0.147   4.673   3.595  0.6298  0.3682  0.2693
 1006MOL0     C35695   0.032   4.687   3.706  0.3809 -0.1949  0.6151
 1006MOL0     C35696  -0.023   4.559   3.757 -0.0685 -0.6623  0.4619
 1006MOL0     C35697   0.028   4.507   3.897 -0.3551 -0.6338  0.0929
 1006MOL0     C35698   0.092   4.364   3.865  0.5673 -0.0338 -0.9903
 1006MOL0     O35699   0.133   4.302   3.992 -0.2854  0.2472  0.4636
 1006MOL0     C35700   0.055   4.226   4.062  0.3516  0.3217 -0.8391
 1006MOL0     C35701  -0.083   4.222   4.067 -0.2635 -0.2630  0.5688
 1006MOL0     C35702  -0.156   4.117   4.120 -0.6281 -0.8150 -0.2448
 1006MOL0     C35703  -0.094   3.998   4.170  0.7656  0.8597 -0.0420
 1006MOL0     C35704  -0.167   3.890   4.225 -0.0788  0.2780 -0.3439
 1006MOL0     O35705  -0.097   3.795   4.297  0.4586 -1.1353  0.2196
 1006MOL0     C35706  -0.176   3.688   4.332  0.8937 -0.7716  0.3200
 1006MOL0     C35707  -0.240   3.704   4.459  0.0344 -0.2235  0.4861
 1006MOL0     C35708  -0.317   3.589   4.506 -0.6766 -0.0729  0.1611
 1006MOL0     C35709  -0.331   3.466   4.438  0.2710  0.1921  0.3172
 1006MOL0     O35710  -0.405   3.359   4.476  0.3989  0.6738 -0.6366
 1006MOL0     C35711  -0.521   3.382   4.558 -0.0455 -1.1303  0.8698
 1006MOL0     C35712  -0.603   3.261   4.555 -0.1309  0.2093 -0.2921
 1006MOL0     C35713  -0.727   3.250   4.642  0.7848 -0.4606  0.0872
 1006MOL0     C35714  -0.693   3.239   4.793 -0.3841 -0.0403  0.1879
 1006MOL0     C35715  -0.812   3.261   4.891  0.0835 -0.3722  0.1350
 1006MOL0     C35716  -0.771   3.272   5.042  1.0497 -0.0234  0.2793
 1006MOL0     C35717  -0.767   3.142   5.122  0.1698 -0.0472  0.0079
 1006MOL0     C35718  -0.630   3.080   5.112  0.5154 -0.8117  0.0698
 1006MOL0    Cl35719  -0.640   2.909   5.162  0.4775  0.0339 -0.6274
 1006MOL0     C35720  -0.273   3.460   4.308 -0.6753 -1.0655 -0.8341
 1006MOL0     C35721  -0.202   3.568   4.257 -0.2864 -0.1203  1.2880
 1006MOL0     O35722  -0.289   3.893   4.207  0.6086 -0.1127 -0.2854
 1006MOL0     C35723   0.046   3.996   4.164  0.4566  1.0075  0.1326
 1006MOL0     C35724   0.112   4.105   4.109  0.1016 -0.0379 -0.1549
 1006MOL0     N35725   0.207   4.559   3.545  0.7338 -0.3122  0.2933
 1006MOL0     N35726   0.298   4.595   3.461  0.8663  0.3878  0.1264
 1006MOL0     C35727   0.792   4.512   2.446 -0.0690  0.2029 -0.2375
 1006MOL0     C35728   0.848   4.511   2.312 -0.3484 -0.8347 -1.2670
 1006MOL0     C35729   1.214   4.465   1.993  0.1942 -0.5902 -0.5399
 1006MOL0     C35730   1.107   4.435   1.903 -0.4517  0.1386 -0.6667
 1006MOL0     C35731   1.132   4.411   1.772 -0.6104  0.1421  0.0156
 1006MOL0     C35732   1.267   4.408   1.714  0.0726  0.1506 -0.2004
 1006MOL0     O35733   1.265   4.381   1.580 -0.2248 -0.0977 -0.4907
 1006MOL0     C35734   1.372   4.439   1.518 -0.6811  0.3639 -0.2213
 1006MOL0     C35735   1.466   4.315   1.480 -0.8018  0.5531 -0.0486
 1006MOL0     C35736   1.419   4.170   1.504  0.6254  0.4839  0.1155
 1006MOL0     C35737   1.491   4.054   1.435 -0.5619  0.2483  0.1490
 1006MOL0     C35738   1.425   3.922   1.447  0.8887 -0.4174  0.0450
 1006MOL0     C35739   1.396   3.809   1.455 -0.2358  1.0652  0.3756
 1006MOL0     C35740   1.373   4.428   1.802  0.6001  0.1411 -0.3420
 1006MOL0     C35741   1.345   4.464   1.937 -1.0312  0.1254  0.7481
 1006MOL0     C35742   1.472   4.500   2.019 -0.9998  0.1716  0.1030
 1006MOL0     H35743   1.157   4.379   2.390  1.5433  2.0321  3.1559
 1006MOL0     H35744   1.058   4.406   2.621 -1.0996 -2.2708 -0.0382
 1006MOL0     H35745   0.853   4.263   2.730  1.1047  0.3803  0.6529
 1006MOL0     H35746   0.924   4.409   2.828 -0.0479  0.9328  0.1760
 1006MOL0     H35747   0.772   4.277   2.942 -0.8209 -3.4126 -2.5129
 1006MOL0     H35748   0.642   4.302   2.821  1.2929  1.2064 -4.3001
 1006MOL0     H35749   0.641   4.547   2.873  1.0406 -1.4880 -2.2015
 1006MOL0     H35750   0.787   4.521   2.973 -0.0383  3.1729 -1.2871
 1006MOL0     H35751   0.506   4.431   3.028  0.2339  0.4487 -0.0588
 1006MOL0     H35752   0.648   4.393   3.132 -0.1878  0.0243 -0.2198
 1006MOL0     H35753   0.668   4.648   3.155  0.6631 -2.2370  2.1817
 1006MOL0     H35754   0.535   4.674   3.037  0.1721  3.2486  2.3270
 1006MOL0     H35755   0.385   4.572   3.204 -0.1015 -1.3264  2.3921
 1006MOL0     H35756   0.526   4.594   3.316 -0.4103 -1.2275 -0.0558
 1006MOL0     H35757   0.384   4.801   3.169  2.1779  1.7038 -1.3120
 1006MOL0     H35758   0.544   4.820   3.241  0.6263 -1.7788  0.8165
 1006MOL0     H35759   0.502   4.779   3.448  0.8582  2.2237 -1.4723
 1006MOL0     H35760   0.400   4.914   3.401  0.7114  0.7387 -0.8038
 1006MOL0     H35761   0.200   4.888   3.574 -1.0819  0.0197 -1.6385
 1006MOL0     H35762   0.075   4.750   3.785  1.7263  1.1924 -1.1256
 1006MOL0     H35763  -0.051   4.749   3.671  0.3184 -0.9293 -0.6101
 1006MOL0     H35764  -0.130   4.568   3.777 -0.5618 -1.1919 -1.6655
 1006MOL0     H35765  -0.004   4.489   3.675 -1.7403  2.9194 -3.3477
 1006MOL0     H35766  -0.045   4.523   3.977  0.2694  1.3204  0.3395
 1006MOL0     H35767   0.114   4.567   3.929 -0.8139 -0.5097  1.1481
 1006MOL0     H35768   0.172   4.367   3.791 -1.3313  2.5059 -3.1369
 1006MOL0     H35769   0.012   4.304   3.820  1.0355 -1.4250 -0.0280
 1006MOL0     H35770  -0.135   4.311   4.032  2.0850  1.3680  0.9315
 1006MOL0     H35771  -0.264   4.129   4.119 -0.6054 -0.2558  1.2423
 1006MOL0     H35772  -0.233   3.801   4.507 -6.1547  2.3769 -2.6817
 1006MOL0     H35773  -0.381   3.593   4.594 -0.3079 -1.7699  0.5293
 1006MOL0     H35774  -0.485   3.397   4.660 -2.0259  1.5759  1.2858
 1006MOL0     H35775  -0.567   3.476   4.524 -1.0619 -1.8180  0.2929
 1006MOL0     H35776  -0.645   3.246   4.455 -2.2017  1.8104  0.2583
 1006MOL0     H35777  -0.541   3.177   4.587 -1.3199  0.2549  2.3852
 1006MOL0     H35778  -0.785   3.342   4.627 -0.4349 -0.6861  2.8632
 1006MOL0     H35779  -0.791   3.165   4.618 -0.6768  0.2397  1.3462
 1006MOL0     H35780  -0.622   3.319   4.818 -1.1870  0.5036  0.7744
 1006MOL0     H35781  -0.641   3.145   4.814 -2.0959 -1.4156 -1.3782
 1006MOL0     H35782  -0.888   3.183   4.887  1.7287 -2.0100 -0.5423
 1006MOL0     H35783  -0.854   3.358   4.863  1.6542  0.4049  0.3717
 1006MOL0     H35784  -0.676   3.324   5.054  0.6267  0.6726  0.6692
 1006MOL0     H35785  -0.852   3.328   5.090 -1.6116 -2.0143 -1.5506
 1006MOL0     H35786  -0.846   3.079   5.080 -0.3281  1.8917 -2.1090
 1006MOL0     H35787  -0.800   3.168   5.223  3.0338  1.1771  0.7223
 1006MOL0     H35788  -0.595   3.090   5.009  0.0365 -1.7509 -0.1977
 1006MOL0     H35789  -0.557   3.130   5.175 -0.6764  1.5262 -0.3203
 1006MOL0     H35790  -0.291   3.367   4.254  3.6079 -1.2022 -2.4210
 1006MOL0     H35791  -0.162   3.561   4.156  2.5590 -4.1317  2.4193
 1006MOL0     H35792   0.110   3.908   4.171 -0.5916 -0.0841 -2.5157
 1006MOL0     H35793   0.220   4.094   4.115 -0.0287 -0.9915  0.5124
 1006MOL0     H35794   0.687   4.527   2.470 -0.7294  0.5398 -3.0139
 1006MOL0     H35795   0.785   4.543   2.229 -0.8018 -1.5946 -1.2264
 1006MOL0     H35796   1.005   4.429   1.939 -0.4595  0.4546 -0.6400
 1006MOL0     H35797   1.049   4.390   1.704 -0.2343 -2.9735  0.3747
 1006MOL0     H35798   1.430   4.512   1.576 -1.2411  0.3638  0.3477
 1006MOL0     H35799   1.347   4.475   1.418 -2.0633 -1.3722 -0.5450
 1006MOL0     H35800   1.553   4.328   1.545 -0.5767 -1.9963  0.2444
 1006MOL0     H35801   1.493   4.332   1.375  1.6665 -0.9000  0.2817
 1006MOL0     H35802   1.323   4.160   1.453  2.8577  0.2485 -4.6113
 1006MOL0     H35803   1.409   4.158   1.612 -1.0049 -0.2700 -0.0983
 1006MOL0     H35804   1.507   4.089   1.332 -1.2592  2.2450  0.6634
 1006MOL0     H35805   1.588   4.031   1.480 -0.1643 -2.6396 -1.9434
 1006MOL0     H35806   1.376   3.704   1.458  3.5294  0.2300  3.7989
 1006MOL0     H35807   1.479   4.436   1.780  1.0078  2.6836  2.0205
 1006MOL0     H35808   1.473   4.451   2.116 -0.1664 -0.8285 -0.3872
 1006MOL0     H35809   1.562   4.458   1.973 -0.5581  0.2864  0.8452
 1006MOL0     H35810   1.472   4.608   2.039  0.4443  0.6742 -2.2127
 1007MOL0     O35811  10.826  11.286   1.661 -0.0768 -0.1247  0.7430
 1007MOL0     C35812  10.936  11.332   1.635 -0.4797 -0.3765  0.2113
 1007MOL0     O35813  11.034  11.362   1.721  0.5032  0.4977 -0.0813
 1007MOL0     C35814  11.042  11.297   1.847  0.1013 -0.0077  0.7619
 1007MOL0     C35815  10.965  11.189   1.893  0.0522 -0.0915  0.2832
 1007MOL0     C35816  10.976  11.145   2.020  0.5587 -0.8579  0.3091
 1007MOL0     C35817  11.080  11.198   2.095  0.0964 -0.3586 -0.1038
 1007MOL0     O35818  11.135  11.134   2.204 -0.0906 -0.2979  0.4786
 1007MOL0     C35819  11.069  11.170   2.331  0.9412  0.2335  0.1653
 1007MOL0     C35820  11.141  11.105   2.445  0.9176 -0.1224 -1.3105
 1007MOL0     C35821  11.089  10.962   2.473  0.0429  0.0786  0.4636
 1007MOL0     C35822  11.194  10.889   2.562 -0.0391 -0.4233  0.0706
 1007MOL0     C35823  11.127  10.814   2.674 -0.4783  0.0978 -0.9375
 1007MOL0     C35824  11.216  10.724   2.760 -0.0965 -0.5955  0.9642
 1007MOL0     C35825  11.347  10.776   2.819 -0.4221  0.8537  0.7322
 1007MOL0     C35826  11.404  10.674   2.929 -0.3403  0.1236 -0.1741
 1007MOL0     N35827  11.436  10.544   2.879  0.4849  0.7401  0.4688
 1007MOL0     C35828  11.554  10.495   2.859  0.3745  0.2027 -0.7657
 1007MOL0     C35829  11.544  10.365   2.855  0.2896 -0.7751 -0.0380
 1007MOL0     C35830  11.666  10.273   2.855 -0.4156 -0.3906  0.6321
 1007MOL0     C35831  11.647  10.168   2.745  0.1721 -0.1512 -0.0645
 1007MOL0     C35832  11.786  10.111   2.716 -0.4771 -0.2879  0.0756
 1007MOL0     C35833  11.868  10.205   2.614  0.1593  0.8911 -1.3242
 1007MOL0     O35834  11.946  10.291   2.689  0.1213  0.3487  0.2766
 1007MOL0     C35835  12.063  10.325   2.624  0.0215 -0.2855  1.0802
 1007MOL0     C35836  12.074  10.364   2.486  0.7096  0.2893 -0.2622
 1007MOL0     C35837  12.192  10.418   2.428 -0.0275 -0.2721 -0.5419
 1007MOL0     C35838  12.303  10.434   2.518 -0.4298  0.1926  0.5228
 1007MOL0     C35839  12.445  10.489   2.488 -0.3994  0.3869 -0.0356
 1007MOL0     O35840  12.518  10.556   2.579 -0.3908  0.3487 -0.4693
 1007MOL0     C35841  12.626  10.626   2.536 -1.0896  0.4287 -0.7697
 1007MOL0     C35842  12.754  10.581   2.575  0.0691  0.6226  0.4885
 1007MOL0     C35843  12.868  10.661   2.559  0.4221  0.6918 -0.8086
 1007MOL0     C35844  12.860  10.781   2.486  0.3095 -0.7513  0.1504
 1007MOL0     O35845  12.963  10.867   2.460 -0.3171  0.3927 -0.2150
 1007MOL0     C35846  13.087  10.841   2.533  0.9664  0.6364  0.4199
 1007MOL0     C35847  13.197  10.939   2.506 -0.6863  0.1678 -0.5968
 1007MOL0     C35848  13.322  10.911   2.591  0.6606 -0.0985  0.3921
 1007MOL0     C35849  13.398  10.793   2.530 -0.5951 -0.4606  0.1170
 1007MOL0     C35850  13.528  10.758   2.604 -0.0353  0.9289  0.2160
 1007MOL0     C35851  13.492  10.725   2.755  0.0788  0.2686 -0.1769
 1007MOL0     C35852  13.389  10.609   2.776  0.0498 -0.2293 -0.5387
 1007MOL0     C35853  13.402  10.563   2.931  0.4038  0.0191  0.0785
 1007MOL0    Cl35854  13.282  10.662   3.029  0.0776  0.2403  0.5895
 1007MOL0     C35855  12.735  10.822   2.445 -0.4527  0.1865  0.2293
 1007MOL0     C35856  12.621  10.746   2.464 -0.3939  0.3285 -0.2818
 1007MOL0     O35857  12.472  10.472   2.367  0.0726 -0.2585 -0.7286
 1007MOL0     C35858  12.292  10.408   2.654  0.1536  0.4144  0.1855
 1007MOL0     C35859  12.165  10.355   2.709 -0.1826 -0.1364  0.0794
 1007MOL0     N35860  11.417  10.333   2.869 -0.2917 -0.0593  0.1724
 1007MOL0     N35861  11.352  10.438   2.897  0.5187  0.0555  0.2863
 1007MOL0     C35862  11.164  11.291   2.048  0.2062  0.8651 -1.0320
 1007MOL0     C35863  11.144  11.338   1.921  0.0788  0.3838  0.9119
 1007MOL0     C35864  10.965  11.356   1.491  0.1350  0.0703  0.8638
 1007MOL0     C35865  10.858  11.348   1.390  0.2292 -1.5704  0.5292
 1007MOL0     C35866  10.869  11.360   1.253  0.0856 -0.5027 -0.1750
 1007MOL0     C35867  10.991  11.408   1.211  0.5640 -0.4589 -0.6226
 1007MOL0     O35868  10.999  11.428   1.075  0.3568  0.3321 -0.4026
 1007MOL0     C35869  11.126  11.467   1.023  0.8536 -0.0464  0.8400
 1007MOL0     C35870  11.116  11.442   0.871 -0.5833  0.3053 -0.4008
 1007MOL0     C35871  11.069  11.297   0.830  0.6117 -0.1783  1.5407
 1007MOL0     C35872  11.046  11.298   0.681 -1.3279 -0.4031  0.1862
 1007MOL0     C35873  10.960  11.189   0.638 -0.2338 -0.6534 -0.4293
 1007MOL0     C35874  10.884  11.101   0.606  0.5284 -0.0429 -0.3786
 1007MOL0     C35875  11.099  11.436   1.304  0.1505  1.5251  0.2604
 1007MOL0     C35876  11.083  11.411   1.439 -1.0395 -0.4453 -0.9673
 1007MOL0     C35877  11.215  11.427   1.523  0.3613 -0.5295  0.7540
 1007MOL0     H35878  10.901  11.143   1.818 -1.7857  0.1692  1.6098
 1007MOL0     H35879  10.904  11.069   2.051 -4.0478  3.4511  1.5325
 1007MOL0     H35880  11.061  11.279   2.337  0.7999  0.5334 -3.2272
 1007MOL0     H35881  10.968  11.129   2.333  1.3327 -0.7267  1.1482
 1007MOL0     H35882  11.151  11.184   2.520  2.1545  3.5991 -5.0255
 1007MOL0     H35883  11.244  11.081   2.417  0.8793 -1.6206 -0.3049
 1007MOL0     H35884  11.074  10.915   2.376 -0.8814  2.5292 -0.6683
 1007MOL0     H35885  10.987  10.958   2.515  0.6370 -0.1026  1.9481
 1007MOL0     H35886  11.246  10.814   2.502  1.1567  2.3860 -2.6902
 1007MOL0     H35887  11.262  10.960   2.609  0.7260 -0.5016 -0.8768
 1007MOL0     H35888  11.080  10.883   2.744 -0.0712 -0.4516 -0.0965
 1007MOL0     H35889  11.045  10.754   2.633 -1.5058 -0.5303  1.7660
 1007MOL0     H35890  11.155  10.674   2.835 -3.0013  0.4984 -0.5235
 1007MOL0     H35891  11.234  10.638   2.695 -1.7989  0.7707 -1.5214
 1007MOL0     H35892  11.338  10.876   2.862  0.2368  0.1423  2.6534
 1007MOL0     H35893  11.426  10.778   2.744  0.1051 -0.5965  1.2109
 1007MOL0     H35894  11.490  10.733   2.963  0.0853 -0.4801 -0.1849
 1007MOL0     H35895  11.333  10.655   3.009  0.6114 -0.0706  0.6463
 1007MOL0     H35896  11.654  10.537   2.856  1.5136 -2.1884  0.7386
 1007MOL0     H35897  11.748  10.337   2.820  1.7283 -1.8646  2.6069
 1007MOL0     H35898  11.698  10.227   2.949  0.3526  0.4496  0.7988
 1007MOL0     H35899  11.591  10.080   2.777  1.0762 -0.5775  0.3888
 1007MOL0     H35900  11.609  10.217   2.655  3.2200 -1.0488 -1.9879
 1007MOL0     H35901  11.777  10.013   2.669 -0.6553  0.9859 -2.7584
 1007MOL0     H35902  11.848  10.096   2.804  2.3596  0.9828 -1.5493
 1007MOL0     H35903  11.798  10.273   2.564 -0.6295  2.4907  1.7128
 1007MOL0     H35904  11.933  10.132   2.565 -0.0588  0.3759 -0.8472
 1007MOL0     H35905  11.987  10.322   2.435  1.1842  0.3968 -1.1726
 1007MOL0     H35906  12.217  10.447   2.326  4.9685 -0.5385  0.3466
 1007MOL0     H35907  12.755  10.481   2.618 -2.6050 -0.1009 -0.9001
 1007MOL0     H35908  12.943  10.602   2.612 -2.3352 -1.6793  0.7465
 1007MOL0     H35909  13.067  10.846   2.640  1.9553 -0.8799  0.7121
 1007MOL0     H35910  13.111  10.736   2.509  0.3599  0.8998 -1.5795
 1007MOL0     H35911  13.218  10.930   2.399 -2.4940 -2.4746 -0.8332
 1007MOL0     H35912  13.155  11.037   2.533  0.8574  1.2672 -1.9448
 1007MOL0     H35913  13.390  10.996   2.602  1.9341 -0.9390 -0.7113
 1007MOL0     H35914  13.283  10.892   2.692  1.1816 -3.9004 -0.0002
 1007MOL0     H35915  13.444  10.833   2.439 -3.4418 -1.2890 -1.8201
 1007MOL0     H35916  13.342  10.700   2.521  2.3007 -2.4241  0.7431
 1007MOL0     H35917  13.598  10.842   2.596 -0.3485  1.1328 -0.5553
 1007MOL0     H35918  13.584  10.679   2.553 -1.0686  1.0964 -1.2616
 1007MOL0     H35919  13.590  10.690   2.790  0.6156  2.7913  1.0594
 1007MOL0     H35920  13.473  10.816   2.812  0.1370  0.3847 -0.3413
 1007MOL0     H35921  13.409  10.520   2.716 -0.6185 -0.0529 -1.0381
 1007MOL0     H35922  13.285  10.639   2.757 -1.0212 -2.6329  1.0872
 1007MOL0     H35923  13.374  10.457   2.934 -0.9702  0.3181  4.1762
 1007MOL0     H35924  13.501  10.569   2.975 -0.0402 -0.6176  1.2096
 1007MOL0     H35925  12.714  10.905   2.379  0.8751  0.3448 -0.0248
 1007MOL0     H35926  12.524  10.778   2.428 -1.4952 -1.9617  0.4256
 1007MOL0     H35927  12.378  10.420   2.719 -1.2128 -0.0198  2.1690
 1007MOL0     H35928  12.161  10.347   2.817  1.8604 -0.9407  0.1474
 1007MOL0     H35929  11.249  11.321   2.109  0.8348 -0.8481 -1.0262
 1007MOL0     H35930  11.196  11.422   1.877 -2.8817  1.5752 -0.5559
 1007MOL0     H35931  10.767  11.296   1.418 -1.2569 -0.5327 -2.0376
 1007MOL0     H35932  10.793  11.347   1.177 -0.5449 -0.9124  0.5115
 1007MOL0     H35933  11.208  11.410   1.069  1.7040  1.7226  1.6405
 1007MOL0     H35934  11.129  11.576   1.036  0.3388 -0.0502  0.9741
 1007MOL0     H35935  11.214  11.465   0.827 -0.1147 -3.9235 -1.9809
 1007MOL0     H35936  11.043  11.509   0.825  1.3810  1.9594 -1.2761
 1007MOL0     H35937  10.962  11.287   0.851  0.2515 -0.1327 -0.1565
 1007MOL0     H35938  11.129  11.211   0.862 -0.1137 -0.8507  1.1221
 1007MOL0     H35939  11.004  11.390   0.640  1.2770  0.5067 -0.6779
 1007MOL0     H35940  11.136  11.294   0.619 -1.0272  2.5238  0.2911
 1007MOL0     H35941  10.813  11.023   0.587 -0.6290  1.0387 -0.6539
 1007MOL0     H35942  11.202  11.459   1.281  0.9421  0.8289  2.8111
 1007MOL0     H35943  11.210  11.505   1.599 -0.6925 -0.4784  0.6503
 1007MOL0     H35944  11.232  11.328   1.568  1.7540 -0.0061  1.4326
 1007MOL0     H35945  11.300  11.455   1.461 -0.8443  1.0855 -0.2332
 1008MOL0     O35946   6.815   4.657  11.406  1.3968 -0.2151 -0.0617
 1008MOL0     C35947   6.851   4.558  11.462 -0.7368  1.1327 -0.5641
 1008MOL0     O35948   6.914   4.557  11.581 -0.1469 -0.1965  0.4977
 1008MOL0     C35949   6.974   4.672  11.626  0.4900 -1.2611  0.8146
 1008MOL0     C35950   6.971   4.702  11.765 -0.3123  1.0252  0.4658
 1008MOL0     C35951   7.017   4.820  11.821 -0.7068 -0.8798  0.4187
 1008MOL0     C35952   7.061   4.926  11.739 -0.4872 -0.1318 -0.0149
 1008MOL0     O35953   7.116   5.042  11.774 -0.7185 -0.4515  0.7877
 1008MOL0     C35954   7.058   5.093  11.896  0.1567  0.2621 -0.3612
 1008MOL0     C35955   7.166   5.091  12.003  0.9651 -0.0186  0.0513
 1008MOL0     C35956   7.107   5.037  12.134 -0.6589 -1.0177  0.4920
 1008MOL0     C35957   7.208   5.074  12.237  0.4944 -0.0285  0.8110
 1008MOL0     C35958   7.337   4.993  12.225  0.7085  0.3145 -0.3143
 1008MOL0     C35959   7.450   5.025  12.332  0.4507  0.9269  0.2431
 1008MOL0     C35960   7.586   4.945  12.327  0.3932  0.1173  0.0434
 1008MOL0     C35961   7.573   4.789  12.285  0.0428  1.0124 -0.0867
 1008MOL0     N35962   7.517   4.724  12.401  0.6386  0.2449 -0.2166
 1008MOL0     C35963   7.398   4.646  12.388  0.4205 -0.0284  0.0629
 1008MOL0     C35964   7.398   4.595  12.513  0.2112  1.4023  0.5936
 1008MOL0     C35965   7.298   4.501  12.569  0.0616 -0.3581  0.1692
 1008MOL0     C35966   7.184   4.589  12.643  0.6979  0.3077  0.5802
 1008MOL0     C35967   7.074   4.644  12.551 -0.2619  0.0493 -0.3559
 1008MOL0     C35968   7.016   4.553  12.438  0.3649 -0.4426  0.4421
 1008MOL0     O35969   7.114   4.546  12.331 -0.1287  0.4169 -0.2206
 1008MOL0     C35970   7.087   4.490  12.211 -0.3043  0.1933 -0.2537
 1008MOL0     C35971   6.959   4.426  12.180 -0.1745 -0.6778  0.0978
 1008MOL0     C35972   6.947   4.358  12.062  0.0154  0.6646 -0.0641
 1008MOL0     C35973   7.044   4.369  11.964  0.4654 -0.1915 -0.4645
 1008MOL0     C35974   7.016   4.318  11.828  0.4835  0.0195  0.0686
 1008MOL0     O35975   7.114   4.340  11.742 -0.6463  0.6948 -0.2088
 1008MOL0     C35976   7.113   4.295  11.618  0.2461  0.2589  0.4547
 1008MOL0     C35977   7.066   4.168  11.582  0.4065  0.1582 -0.1000
 1008MOL0     C35978   7.078   4.112  11.460  0.2274 -0.9091  0.5934
 1008MOL0     C35979   7.145   4.184  11.355 -0.2054 -0.7530  0.0533
 1008MOL0     O35980   7.165   4.128  11.232  0.0803 -0.7236  0.7677
 1008MOL0     C35981   7.206   3.990  11.215  0.2967  0.4403 -0.0365
 1008MOL0     C35982   7.355   3.989  11.198  0.1288  0.2384 -0.5916
 1008MOL0     C35983   7.415   3.951  11.329  0.1646 -0.6077 -0.0132
 1008MOL0     C35984   7.563   3.968  11.332 -0.5482  0.4039  0.3969
 1008MOL0     C35985   7.612   4.009  11.472 -0.3876  1.3551 -0.0201
 1008MOL0     C35986   7.764   4.012  11.487 -0.0975 -0.0293 -0.3163
 1008MOL0     C35987   7.848   3.893  11.454  0.2244  0.6230 -0.0776
 1008MOL0     C35988   7.896   3.819  11.580  0.3873 -0.4378 -0.4826
 1008MOL0    Cl35989   7.751   3.727  11.644 -0.4936  0.4238 -0.0705
 1008MOL0     C35990   7.187   4.313  11.387  0.8682 -0.1567  0.1944
 1008MOL0     C35991   7.172   4.371  11.516 -0.3421  0.4128 -0.5170
 1008MOL0     O35992   6.902   4.268  11.806 -0.8974 -0.4480 -0.7317
 1008MOL0     C35993   7.154   4.440  11.993  1.3459 -0.1954  0.2997
 1008MOL0     C35994   7.184   4.493  12.115  0.0077  0.3019  0.0692
 1008MOL0     N35995   7.504   4.638  12.592 -0.5437  0.2502 -0.0892
 1008MOL0     N35996   7.581   4.721  12.519  0.1820  0.3545  0.5969
 1008MOL0     C35997   7.070   4.899  11.603 -0.3598  0.0133 -0.0480
 1008MOL0     C35998   7.033   4.773  11.551 -0.0203 -0.1266  0.1810
 1008MOL0     C35999   6.814   4.426  11.412 -0.5187 -0.4074 -0.5129
 1008MOL0     C36000   6.775   4.331  11.515  0.3698 -0.1724 -0.1246
 1008MOL0     C36001   6.736   4.199  11.483 -0.3739 -1.1750  0.1570
 1008MOL0     C36002   6.732   4.164  11.347 -0.5285  0.8705  0.5308
 1008MOL0     O36003   6.660   4.051  11.309  0.5503 -0.1940 -0.0120
 1008MOL0     C36004   6.581   4.045  11.194  0.2459 -0.5981 -0.3050
 1008MOL0     C36005   6.629   3.956  11.076  0.5824  0.5169 -1.0741
 1008MOL0     C36006   6.661   3.817  11.119  0.1360 -0.6788  0.7659
 1008MOL0     C36007   6.529   3.738  11.111  0.0460  0.2833 -0.1501
 1008MOL0     C36008   6.533   3.602  11.177 -0.1168  0.8281  0.8251
 1008MOL0     C36009   6.517   3.488  11.224  0.9206 -0.2568 -0.8227
 1008MOL0     C36010   6.781   4.254  11.243  0.6713  0.7846 -1.8368
 1008MOL0     C36011   6.821   4.385  11.280 -0.3058 -0.0430 -0.3850
 1008MOL0     C36012   6.903   4.472  11.189 -0.6156 -0.5065  0.6000
 1008MOL0     H36013   6.939   4.628  11.838  3.9847  0.9315  2.5616
 1008MOL0     H36014   7.023   4.834  11.929  0.3024 -0.1894  0.2833
 1008MOL0     H36015   7.026   5.197  11.888  0.7159  0.5365  0.7460
 1008MOL0     H36016   6.963   5.046  11.924  1.3533 -1.6450  0.7948
 1008MOL0     H36017   7.202   5.194  12.007 -0.0994  0.3195  2.4503
 1008MOL0     H36018   7.245   5.023  11.970 -0.4680 -1.5258 -0.3847
 1008MOL0     H36019   7.089   4.930  12.128 -3.7539 -0.7304  2.6058
 1008MOL0     H36020   7.011   5.087  12.149  0.8307  1.4074  3.0219
 1008MOL0     H36021   7.224   5.182  12.242  1.2206 -0.1545  1.3537
 1008MOL0     H36022   7.155   5.044  12.328  0.1961 -0.4678  0.4937
 1008MOL0     H36023   7.314   4.888  12.248  1.2339  0.0333 -1.0382
 1008MOL0     H36024   7.396   5.002  12.133 -0.9871  3.3303 -1.2460
 1008MOL0     H36025   7.477   5.131  12.328  2.3442  0.5051  0.8380
 1008MOL0     H36026   7.410   4.994  12.429  0.2564 -0.0046 -0.1273
 1008MOL0     H36027   7.633   4.964  12.424  0.7092 -0.9977  0.1337
 1008MOL0     H36028   7.654   4.985  12.251 -0.8019 -0.4571 -1.3711
 1008MOL0     H36029   7.523   4.769  12.190 -1.8570 -3.6465  1.6204
 1008MOL0     H36030   7.678   4.760  12.278 -0.1419  0.3081  0.0481
 1008MOL0     H36031   7.327   4.635  12.307  0.4270  1.8758 -0.2315
 1008MOL0     H36032   7.261   4.433  12.492 -0.9941 -1.6983  1.7955
 1008MOL0     H36033   7.338   4.426  12.638  1.2545  0.4122  0.3553
 1008MOL0     H36034   7.141   4.523  12.719 -2.3365  0.9350 -0.4885
 1008MOL0     H36035   7.220   4.679  12.694 -3.8683  1.3130  2.5468
 1008MOL0     H36036   7.116   4.727  12.493  0.5928  1.4876  2.1570
 1008MOL0     H36037   6.995   4.690  12.611  0.8090 -0.9841  2.0108
 1008MOL0     H36038   6.929   4.604  12.397  0.3455 -1.6174 -1.0831
 1008MOL0     H36039   6.989   4.453  12.475 -0.1899 -0.4058  0.1480
 1008MOL0     H36040   6.879   4.422  12.254 -0.2857 -0.2707  0.0012
 1008MOL0     H36041   6.854   4.317  12.022 -0.2100  3.2471 -2.5101
 1008MOL0     H36042   7.021   4.114  11.665  1.3913 -1.3972 -0.5398
 1008MOL0     H36043   7.024   4.019  11.442 -2.4022  0.5264  0.6681
 1008MOL0     H36044   7.163   3.922  11.289  2.1182  2.8068  3.4949
 1008MOL0     H36045   7.152   3.952  11.128  0.1842  1.4328 -0.4088
 1008MOL0     H36046   7.395   3.925  11.119  2.9131  1.9548 -0.7381
 1008MOL0     H36047   7.401   4.086  11.172  0.6507  0.1747  0.0619
 1008MOL0     H36048   7.370   4.013  11.408  1.2160 -0.0696  0.1858
 1008MOL0     H36049   7.393   3.846  11.349 -1.0214 -0.3327  0.2330
 1008MOL0     H36050   7.596   4.045  11.261 -2.6077  1.4365  0.4944
 1008MOL0     H36051   7.611   3.876  11.299 -2.4472 -1.3205  2.1258
 1008MOL0     H36052   7.587   3.931  11.544  0.2218  0.8321 -0.3680
 1008MOL0     H36053   7.562   4.101  11.502  2.2988  2.3417  1.7791
 1008MOL0     H36054   7.796   4.093  11.421 -0.0123 -0.2236 -0.5132
 1008MOL0     H36055   7.779   4.058  11.585 -2.0388 -0.3029  0.1451
 1008MOL0     H36056   7.925   3.917  11.380 -1.5907  0.2518 -2.1644
 1008MOL0     H36057   7.789   3.822  11.396  2.4736 -2.0605  0.6690
 1008MOL0     H36058   7.976   3.751  11.551  1.7705  1.0238 -0.2048
 1008MOL0     H36059   7.935   3.893  11.650  0.2846 -2.3808  1.7429
 1008MOL0     H36060   7.224   4.367  11.301 -2.5992 -1.0099 -2.0397
 1008MOL0     H36061   7.216   4.468  11.532  2.4548 -1.0038  1.2032
 1008MOL0     H36062   7.222   4.470  11.914 -2.3009 -1.0332 -3.5168
 1008MOL0     H36063   7.286   4.531  12.115 -0.0461  0.5238 -1.7902
 1008MOL0     H36064   7.108   4.973  11.533  5.1501 -0.0035  2.4079
 1008MOL0     H36065   7.055   4.762  11.446 -2.3373  1.0498 -0.4828
 1008MOL0     H36066   6.765   4.372  11.615  0.3548  1.3575 -0.7269
 1008MOL0     H36067   6.693   4.133  11.558 -0.9168 -2.0732 -0.9209
 1008MOL0     H36068   6.554   4.141  11.149  3.1597 -0.2076 -1.4720
 1008MOL0     H36069   6.485   4.012  11.233  1.9096 -1.7569  3.2488
 1008MOL0     H36070   6.722   3.998  11.036  0.7166  1.5230  0.2326
 1008MOL0     H36071   6.554   3.959  10.996 -1.0637 -2.8165  0.1314
 1008MOL0     H36072   6.711   3.812  11.216  0.9267 -1.0973  0.3439
 1008MOL0     H36073   6.738   3.769  11.058 -0.9592 -3.2531  1.2884
 1008MOL0     H36074   6.452   3.808  11.146  0.9835  0.6047  1.3794
 1008MOL0     H36075   6.517   3.729  11.003 -1.5970  1.1408 -0.0803
 1008MOL0     H36076   6.496   3.389  11.257 -1.8162  0.4918 -0.0829
 1008MOL0     H36077   6.785   4.219  11.140  2.2981  1.3731 -1.9939
 1008MOL0     H36078   6.935   4.420  11.098 -1.5892 -2.6892  1.4364
 1008MOL0     H36079   6.840   4.555  11.153  0.9542  1.2571  1.7474
 1008MOL0     H36080   6.991   4.516  11.237 -0.0019 -0.7376 -0.2781
 1009MOL0     O36081   2.648   0.621   3.881  0.4613  0.5352 -0.0142
 1009MOL0     C36082   2.558   0.704   3.875 -0.5099 -0.3821  0.7884
 1009MOL0     O36083   2.552   0.798   3.782 -0.0413  0.1312  0.2766
 1009MOL0     C36084   2.678   0.833   3.726  0.6439  1.4654 -0.0291
 1009MOL0     C36085   2.759   0.937   3.785  0.4937 -0.7318 -0.4645
 1009MOL0     C36086   2.847   0.997   3.692  0.1708  0.0436  1.0165
 1009MOL0     C36087   2.851   0.959   3.554  1.7232 -0.7730 -0.2537
 1009MOL0     O36088   2.945   1.019   3.472 -0.6754 -0.5059  0.4140
 1009MOL0     C36089   2.890   1.073   3.352 -0.1673  0.1022  0.2217
 1009MOL0     C36090   3.009   1.083   3.256  1.6897 -0.3014 -0.5736
 1009MOL0     C36091   2.973   1.116   3.122  0.0092  0.2316 -0.0824
 1009MOL0     C36092   3.092   1.154   3.038 -0.4856  0.4577 -0.3827
 1009MOL0     C36093   3.066   1.231   2.916 -0.1133 -0.6371  0.2550
 1009MOL0     C36094   2.976   1.170   2.809  0.5652 -1.4586 -0.0156
 1009MOL0     C36095   2.925   1.278   2.702  0.3204 -0.3331 -0.8539
 1009MOL0     C36096   2.812   1.216   2.612 -0.4622 -0.2119  1.0670
 1009MOL0     N36097   2.674   1.214   2.661 -0.2488 -0.6409  0.4078
 1009MOL0     C36098   2.601   1.328   2.675 -0.2536 -0.1056  0.3573
 1009MOL0     C36099   2.510   1.305   2.775  0.3689 -0.7789  0.0970
 1009MOL0     C36100   2.428   1.404   2.837  1.5396  0.2273  0.0679
 1009MOL0     C36101   2.322   1.333   2.934 -0.7354 -0.0878 -0.0251
 1009MOL0     C36102   2.220   1.432   2.982  0.0499 -1.0215  0.4516
 1009MOL0     C36103   2.289   1.561   3.040 -0.1950 -0.7908 -0.3573
 1009MOL0     O36104   2.392   1.554   3.148  0.0909 -0.2242 -0.3899
 1009MOL0     C36105   2.364   1.493   3.275  0.3605  0.1707 -0.1782
 1009MOL0     C36106   2.245   1.522   3.341  1.3645  0.5624  0.9327
 1009MOL0     C36107   2.212   1.450   3.459  0.0506  0.0237  0.1840
 1009MOL0     C36108   2.300   1.355   3.516  1.1106 -0.0686  0.3562
 1009MOL0     C36109   2.247   1.284   3.634 -0.5639 -0.2628  0.0026
 1009MOL0     O36110   2.146   1.341   3.710 -0.5144 -0.1284  0.1202
 1009MOL0     C36111   2.087   1.265   3.810  0.6530  0.2002  0.0058
 1009MOL0     C36112   2.011   1.151   3.786 -0.8452 -0.0808  0.5242
 1009MOL0     C36113   1.964   1.078   3.885 -0.0935 -1.1031 -0.2180
 1009MOL0     C36114   2.004   1.093   4.019  0.0760  0.6376  0.2117
 1009MOL0     O36115   1.975   1.005   4.116 -0.1130 -0.4064  0.1265
 1009MOL0     C36116   1.852   0.941   4.121 -0.0336  0.0537 -0.0954
 1009MOL0     C36117   1.830   0.891   4.263 -0.2083 -0.6182 -0.4062
 1009MOL0     C36118   1.821   1.001   4.367  0.5808 -0.3612 -0.3999
 1009MOL0     C36119   1.768   0.949   4.505  0.3340  0.0773 -0.1157
 1009MOL0     C36120   1.878   0.934   4.613 -0.0038  0.1312  0.5242
 1009MOL0     C36121   1.982   0.815   4.584 -0.1974  0.2847  0.1498
 1009MOL0     C36122   2.105   0.818   4.680 -0.0370  0.3898  0.9854
 1009MOL0     C36123   2.143   0.945   4.743  0.1591  0.0771 -0.0985
 1009MOL0    Cl36124   2.049   1.007   4.879  0.2559 -0.6566  0.1853
 1009MOL0     C36125   2.088   1.201   4.053  0.6971 -0.0785  0.1300
 1009MOL0     C36126   2.121   1.294   3.949 -1.0160  1.4527 -0.1866
 1009MOL0     O36127   2.292   1.168   3.645 -0.1313 -1.0198 -0.0815
 1009MOL0     C36128   2.406   1.314   3.439 -0.8228  0.2881 -0.9948
 1009MOL0     C36129   2.443   1.385   3.319 -1.6364 -0.1141  0.7875
 1009MOL0     N36130   2.525   1.175   2.823 -0.3638  0.0179  0.3140
 1009MOL0     N36131   2.619   1.121   2.743 -0.2284 -0.2646 -0.5613
 1009MOL0     C36132   2.794   0.838   3.514 -0.8325 -0.1241 -0.5613
 1009MOL0     C36133   2.704   0.778   3.602  0.4390  0.1100 -0.4312
 1009MOL0     C36134   2.453   0.692   3.975 -0.4827  0.0437  0.7545
 1009MOL0     C36135   2.452   0.569   4.043  0.1204 -0.0939 -0.4558
 1009MOL0     C36136   2.349   0.543   4.141 -0.4345 -0.3917  0.0653
 1009MOL0     C36137   2.240   0.626   4.151 -0.7457 -0.4111 -0.2524
 1009MOL0     O36138   2.131   0.604   4.228 -1.7256 -0.3783 -1.3385
 1009MOL0     C36139   2.094   0.476   4.275 -0.4206  0.1371 -0.2734
 1009MOL0     C36140   1.950   0.491   4.329  0.3427  1.5057  0.1098
 1009MOL0     C36141   1.875   0.357   4.353 -0.5785 -0.5995 -0.1917
 1009MOL0     C36142   1.946   0.244   4.425 -0.8933  0.2690  0.1084
 1009MOL0     C36143   1.982   0.283   4.559 -0.9058  0.2361 -0.5913
 1009MOL0     C36144   2.017   0.301   4.678  0.2269 -0.3628  0.5655
 1009MOL0     C36145   2.238   0.744   4.078 -0.4619 -0.1662  0.3030
 1009MOL0     C36146   2.346   0.776   3.982  1.3664 -0.1275 -0.1470
 1009MOL0     C36147   2.336   0.911   3.903 -0.4127 -0.2799 -0.0922
 1009MOL0     H36148   2.734   0.964   3.886 -2.0266 -0.1369 -1.1819
 1009MOL0     H36149   2.915   1.072   3.731 -0.1685 -0.1622  2.0139
 1009MOL0     H36150   2.810   1.015   3.304 -0.6786  0.8464  0.1611
 1009MOL0     H36151   2.855   1.177   3.352 -0.7295 -0.0018 -2.8597
 1009MOL0     H36152   3.058   0.986   3.266 -1.4306 -1.9741 -0.5802
 1009MOL0     H36153   3.071   1.160   3.304 -2.5477  2.3625  1.2293
 1009MOL0     H36154   2.898   1.196   3.120  0.0230  0.2844  0.8975
 1009MOL0     H36155   2.929   1.022   3.088  0.8965  0.0924 -0.8836
 1009MOL0     H36156   3.160   1.210   3.103  0.8766 -3.9600  2.4126
 1009MOL0     H36157   3.150   1.064   3.018  3.1182  1.7502  3.1169
 1009MOL0     H36158   3.024   1.326   2.948  1.8197  0.1129  0.7256
 1009MOL0     H36159   3.155   1.262   2.861 -1.0604 -0.3731 -1.1739
 1009MOL0     H36160   3.025   1.085   2.760  3.9471  0.3433 -0.1002
 1009MOL0     H36161   2.881   1.126   2.840 -0.6492 -0.0104 -1.4837
 1009MOL0     H36162   3.013   1.321   2.654  0.1225 -0.3617 -1.2460
 1009MOL0     H36163   2.885   1.371   2.745  1.0420  0.1608 -1.2306
 1009MOL0     H36164   2.820   1.254   2.509  0.3567 -1.7124  0.5333
 1009MOL0     H36165   2.831   1.109   2.600 -0.5901 -0.0776 -0.7586
 1009MOL0     H36166   2.614   1.426   2.630 -1.5893 -0.6411 -1.2909
 1009MOL0     H36167   2.489   1.477   2.891 -1.7793  2.7732  0.6842
 1009MOL0     H36168   2.383   1.454   2.751  0.5575 -1.2049 -0.2822
 1009MOL0     H36169   2.266   1.262   2.873 -2.0969 -0.8762  2.0583
 1009MOL0     H36170   2.373   1.284   3.017  2.7906  1.1747 -1.2557
 1009MOL0     H36171   2.147   1.378   3.042 -1.2016  0.9192  0.7878
 1009MOL0     H36172   2.146   1.450   2.904 -2.1030 -3.2349  1.8699
 1009MOL0     H36173   2.210   1.630   3.073  0.6439 -0.0417  0.1374
 1009MOL0     H36174   2.331   1.611   2.952  1.8903  0.4042  1.2263
 1009MOL0     H36175   2.167   1.588   3.303 -0.4304  0.7364  4.5323
 1009MOL0     H36176   2.114   1.468   3.502 -0.4319  3.1733 -1.9688
 1009MOL0     H36177   2.003   1.134   3.679 -0.5936  0.1395  0.4699
 1009MOL0     H36178   1.900   0.996   3.855 -1.9014  1.1240 -2.9200
 1009MOL0     H36179   1.772   0.998   4.074  1.0931 -0.2505 -2.5119
 1009MOL0     H36180   1.867   0.858   4.051 -1.4498  0.8112 -1.3242
 1009MOL0     H36181   1.743   0.825   4.260  0.9874 -2.2819  0.0945
 1009MOL0     H36182   1.914   0.826   4.288 -0.8390 -0.3227  2.9772
 1009MOL0     H36183   1.907   1.068   4.373  1.0466 -0.8556 -1.3815
 1009MOL0     H36184   1.736   1.059   4.330  0.2295  0.1907  1.1753
 1009MOL0     H36185   1.724   0.851   4.485  0.8558 -0.6548  2.0631
 1009MOL0     H36186   1.681   0.999   4.547 -1.1744 -2.9792  0.6636
 1009MOL0     H36187   1.840   0.929   4.715 -1.8735  3.2334  0.1151
 1009MOL0     H36188   1.936   1.026   4.619  3.8273 -2.0899  1.3106
 1009MOL0     H36189   1.921   0.725   4.600  0.0389  0.5131  2.6357
 1009MOL0     H36190   2.012   0.816   4.479  1.5636  3.0012  0.5769
 1009MOL0     H36191   2.189   0.781   4.619  0.1960  0.9582  0.9566
 1009MOL0     H36192   2.066   0.742   4.749 -1.0249  0.1593  0.2066
 1009MOL0     H36193   2.240   0.920   4.785 -1.3498 -2.5737  2.1603
 1009MOL0     H36194   2.146   1.016   4.660 -0.4760  1.2941  0.8990
 1009MOL0     H36195   2.123   1.211   4.155  2.3527 -1.6644 -0.2281
 1009MOL0     H36196   2.185   1.379   3.972  1.3837 -0.1560 -0.5980
 1009MOL0     H36197   2.469   1.234   3.477 -1.7845 -1.2059 -2.4300
 1009MOL0     H36198   2.542   1.357   3.282 -1.7519  0.6857 -0.1786
 1009MOL0     H36199   2.804   0.800   3.413 -1.5705  3.0046 -1.9555
 1009MOL0     H36200   2.650   0.692   3.562 -2.5153  0.8346  1.6043
 1009MOL0     H36201   2.525   0.490   4.032  2.0511  1.8028 -2.0542
 1009MOL0     H36202   2.369   0.459   4.207 -2.2690 -0.7384  0.2290
 1009MOL0     H36203   2.162   0.451   4.356  0.9752  2.5957 -0.5623
 1009MOL0     H36204   2.095   0.395   4.202 -1.3948 -0.5786  0.4900
 1009MOL0     H36205   1.885   0.548   4.262 -0.0931  0.7774 -0.0910
 1009MOL0     H36206   1.959   0.549   4.421  0.6692 -0.7102  1.5463
 1009MOL0     H36207   1.839   0.319   4.257  2.7250  0.3824 -1.9710
 1009MOL0     H36208   1.784   0.380   4.409 -1.3602 -0.2582 -1.5551
 1009MOL0     H36209   1.875   0.161   4.432 -3.5767  1.7632 -5.0325
 1009MOL0     H36210   2.037   0.206   4.377  0.0783  2.8816 -0.2607
 1009MOL0     H36211   2.039   0.325   4.780  1.6965 -0.5519  0.3200
 1009MOL0     H36212   2.150   0.805   4.098 -0.2590 -0.3621  1.9418
 1009MOL0     H36213   2.251   0.969   3.941 -1.0177 -0.5761 -0.9441
 1009MOL0     H36214   2.432   0.963   3.909 -0.7820  0.6442 -1.5412
 1009MOL0     H36215   2.322   0.897   3.795  3.8831 -3.5519 -0.4863
 1010MOL0     O36216   5.641   6.589   7.017  0.2395  0.3211 -0.1221
 1010MOL0     C36217   5.548   6.519   6.978 -0.4945 -0.1285  0.4796
 1010MOL0     O36218   5.424   6.563   6.941 -0.6589 -0.3755 -0.0934
 1010MOL0     C36219   5.370   6.685   6.969  0.3871  0.4672 -0.4739
 1010MOL0     C36220   5.245   6.712   6.913  0.1251  0.6482  0.4655
 1010MOL0     C36221   5.182   6.834   6.925 -1.1078 -0.0132 -0.2053
 1010MOL0     C36222   5.257   6.938   6.984  0.5738  0.1062 -0.0353
 1010MOL0     O36223   5.198   7.058   6.958 -0.2487  0.0573 -0.8822
 1010MOL0     C36224   5.248   7.166   7.030 -0.0616  0.0520 -0.3478
 1010MOL0     C36225   5.163   7.295   7.012 -0.1338 -0.1037 -1.2727
 1010MOL0     C36226   5.033   7.283   7.091 -0.3901  0.6135  0.8638
 1010MOL0     C36227   4.963   7.427   7.103 -0.5660  0.6126 -0.0842
 1010MOL0     C36228   4.888   7.465   6.977 -0.0084 -0.5525  0.6371
 1010MOL0     C36229   4.775   7.375   6.928 -0.5511  0.0354  0.3959
 1010MOL0     C36230   4.681   7.320   7.027  0.5308  0.9551  0.0234
 1010MOL0     C36231   4.591   7.421   7.085 -0.7247 -0.7856  0.2755
 1010MOL0     N36232   4.463   7.365   7.117 -0.4417 -0.2392  0.1301
 1010MOL0     C36233   4.436   7.280   7.215 -0.0322 -0.6491 -0.2101
 1010MOL0     C36234   4.304   7.284   7.242 -0.9700  1.4342  0.2087
 1010MOL0     C36235   4.213   7.196   7.330 -0.0178 -0.4985 -0.5184
 1010MOL0     C36236   4.216   7.257   7.471 -0.4357 -0.1985  0.0821
 1010MOL0     C36237   4.127   7.379   7.488 -0.3820  0.0420 -0.1638
 1010MOL0     C36238   4.074   7.392   7.630  0.1467 -0.3426 -0.0224
 1010MOL0     O36239   3.997   7.511   7.623  0.7030  0.3389  0.2602
 1010MOL0     C36240   3.947   7.560   7.744  0.0343 -0.4574  0.6680
 1010MOL0     C36241   3.861   7.506   7.831 -0.2663 -1.2279 -0.1409
 1010MOL0     C36242   3.808   7.584   7.933  0.2207  0.2885  0.1598
 1010MOL0     C36243   3.836   7.720   7.947  0.2497 -0.7830  0.5181
 1010MOL0     C36244   3.750   7.804   8.021 -0.9987 -0.2004 -0.6948
 1010MOL0     O36245   3.649   7.737   8.087 -0.2639  0.2021 -0.1701
 1010MOL0     C36246   3.535   7.788   8.138 -0.6257 -0.3812  0.7983
 1010MOL0     C36247   3.410   7.776   8.081  0.5720  0.1103  0.0874
 1010MOL0     C36248   3.292   7.823   8.143  1.3708 -0.0409  0.6333
 1010MOL0     C36249   3.302   7.896   8.259 -0.6929  0.3868 -0.0506
 1010MOL0     O36250   3.191   7.922   8.323  0.3891  0.2383 -0.6028
 1010MOL0     C36251   3.206   7.993   8.450  0.8074  0.1365 -0.4153
 1010MOL0     C36252   3.069   8.022   8.510  0.0195  0.7733 -0.1628
 1010MOL0     C36253   2.984   7.886   8.535  0.1835 -0.3639  0.7953
 1010MOL0     C36254   2.837   7.905   8.501  0.3055 -0.3320  0.5418
 1010MOL0     C36255   2.763   7.778   8.516 -0.0146  0.4407  0.8213
 1010MOL0     C36256   2.611   7.779   8.541 -1.9790 -0.0066 -0.5656
 1010MOL0     C36257   2.524   7.647   8.525 -0.1791  0.1499 -0.6623
 1010MOL0     C36258   2.377   7.670   8.540 -0.3510  0.5774 -0.5394
 1010MOL0    Cl36259   2.318   7.783   8.425  0.2412  0.0826 -0.3193
 1010MOL0     C36260   3.433   7.922   8.308  1.3474  0.5680  0.5346
 1010MOL0     C36261   3.543   7.865   8.252  0.3165  0.4697  0.4722
 1010MOL0     O36262   3.764   7.923   8.019  0.1584  0.3747 -0.0829
 1010MOL0     C36263   3.929   7.779   7.859  1.3987 -0.9579  0.1099
 1010MOL0     C36264   3.980   7.693   7.753 -0.3472 -0.6183  0.4502
 1010MOL0     N36265   4.257   7.395   7.173 -0.0071  0.5639  0.2552
 1010MOL0     N36266   4.350   7.438   7.094  0.1146  0.4880  1.1335
 1010MOL0     C36267   5.381   6.916   7.048  0.3768  0.3033 -0.2274
 1010MOL0     C36268   5.439   6.787   7.048  0.1913 -0.8948  0.0901
 1010MOL0     C36269   5.569   6.373   6.963 -0.9784  0.3442 -0.0929
 1010MOL0     C36270   5.497   6.304   6.862 -1.0017  0.0108  0.4436
 1010MOL0     C36271   5.530   6.165   6.833 -0.0377 -0.9585 -0.7143
 1010MOL0     C36272   5.640   6.098   6.888 -0.8480 -1.0724  1.0513
 1010MOL0     O36273   5.663   5.968   6.837 -0.0953  0.2622 -0.1539
 1010MOL0     C36274   5.793   5.901   6.846  0.0033 -0.5481  0.0712
 1010MOL0     C36275   5.913   5.945   6.754  0.1480 -0.8682 -0.1375
 1010MOL0     C36276   5.863   5.995   6.612 -1.9427 -0.1536 -0.9290
 1010MOL0     C36277   5.975   5.950   6.507  0.5806 -0.8788 -0.1773
 1010MOL0     C36278   5.948   6.015   6.380 -0.1011 -0.7923  0.2448
 1010MOL0     C36279   5.928   6.081   6.283 -0.3106 -0.1804 -1.1655
 1010MOL0     C36280   5.721   6.167   6.985  0.1515  0.6553 -0.0172
 1010MOL0     C36281   5.687   6.299   7.019  0.8947 -0.5707  0.2594
 1010MOL0     C36282   5.783   6.356   7.133 -0.2953 -0.4269 -0.3540
 1010MOL0     H36283   5.203   6.636   6.847  2.3359  1.1282 -1.6609
 1010MOL0     H36284   5.087   6.858   6.878  0.6835 -0.1456 -4.2341
 1010MOL0     H36285   5.250   7.136   7.135 -0.2519  1.9050  0.2189
 1010MOL0     H36286   5.352   7.185   7.002  0.8821 -0.5113  2.4259
 1010MOL0     H36287   5.147   7.323   6.907 -0.3406 -0.5059 -1.3500
 1010MOL0     H36288   5.223   7.373   7.060 -2.4976  0.2431  1.3842
 1010MOL0     H36289   5.056   7.248   7.192 -1.8335  0.9380  1.3418
 1010MOL0     H36290   4.965   7.212   7.043  0.3298 -0.0509  0.8140
 1010MOL0     H36291   4.891   7.415   7.184 -0.4920  0.8512  0.0202
 1010MOL0     H36292   5.041   7.495   7.140  0.7054 -2.9086  4.7679
 1010MOL0     H36293   4.838   7.563   6.988  1.9063  0.3171  2.3364
 1010MOL0     H36294   4.964   7.476   6.900 -0.2920 -1.4982  0.2167
 1010MOL0     H36295   4.725   7.424   6.844  1.9845  1.1812 -0.5310
 1010MOL0     H36296   4.836   7.292   6.889 -0.4802 -0.1508  0.8918
 1010MOL0     H36297   4.724   7.256   7.104 -2.1118 -0.0973  0.7529
 1010MOL0     H36298   4.619   7.245   6.976  2.6909 -0.1618 -1.1129
 1010MOL0     H36299   4.650   7.465   7.165  1.4412 -1.3304 -0.9642
 1010MOL0     H36300   4.572   7.503   7.015 -2.0599  2.6856  4.2935
 1010MOL0     H36301   4.494   7.198   7.256 -0.1925 -3.3246 -4.7026
 1010MOL0     H36302   4.107   7.195   7.301 -0.3423 -0.3112  0.6273
 1010MOL0     H36303   4.250   7.093   7.332 -0.5878 -0.7818  3.2632
 1010MOL0     H36304   4.181   7.165   7.520  1.9754 -1.5920 -0.6423
 1010MOL0     H36305   4.320   7.276   7.497  1.3889 -2.8263 -4.2123
 1010MOL0     H36306   4.049   7.393   7.413 -1.2704  1.9590  1.0173
 1010MOL0     H36307   4.192   7.464   7.467 -0.0638  0.2516  1.4918
 1010MOL0     H36308   4.153   7.408   7.703  2.4618  1.9127 -2.7790
 1010MOL0     H36309   4.020   7.299   7.651  0.7971 -1.2466 -2.0030
 1010MOL0     H36310   3.823   7.405   7.819  0.9125 -1.5297 -1.7222
 1010MOL0     H36311   3.744   7.535   8.005  0.7654 -1.5388 -0.5406
 1010MOL0     H36312   3.405   7.711   7.995  2.5180  1.6940 -1.3066
 1010MOL0     H36313   3.189   7.812   8.111  1.0777  3.8813 -0.2831
 1010MOL0     H36314   3.245   7.921   8.522 -2.0969 -1.0083  0.1739
 1010MOL0     H36315   3.276   8.076   8.443  1.0309  0.0085  0.3180
 1010MOL0     H36316   3.071   8.087   8.598  0.4621  0.5933 -0.0410
 1010MOL0     H36317   3.014   8.071   8.429 -1.5903  0.9280  0.9518
 1010MOL0     H36318   3.013   7.797   8.479 -1.5613  0.0126 -0.8331
 1010MOL0     H36319   2.991   7.861   8.641  2.2560 -2.0871  0.3081
 1010MOL0     H36320   2.832   7.951   8.401 -0.8894  2.9737  1.9612
 1010MOL0     H36321   2.795   7.983   8.565 -0.4102  0.6350 -1.0268
 1010MOL0     H36322   2.821   7.719   8.588  2.0015  2.0858  0.6241
 1010MOL0     H36323   2.781   7.718   8.427  1.6495  3.0800 -0.7297
 1010MOL0     H36324   2.606   7.794   8.649 -0.6220 -0.8503 -0.3610
 1010MOL0     H36325   2.570   7.867   8.492 -0.1698  0.9859 -0.3861
 1010MOL0     H36326   2.564   7.584   8.604  1.4264 -0.3333 -1.8092
 1010MOL0     H36327   2.541   7.604   8.426  1.5007  1.0308 -0.7905
 1010MOL0     H36328   2.326   7.573   8.533 -0.2153  0.3044  1.5553
 1010MOL0     H36329   2.351   7.697   8.643  2.1251  2.8259 -0.3822
 1010MOL0     H36330   3.454   7.956   8.408  4.3770 -0.7358  0.4668
 1010MOL0     H36331   3.639   7.870   8.302 -0.9743 -0.3105  3.1843
 1010MOL0     H36332   3.952   7.885   7.857  0.6979 -0.8098 -0.6598
 1010MOL0     H36333   4.040   7.748   7.681 -0.3721 -0.8769  0.2330
 1010MOL0     H36334   5.425   7.003   7.095  3.0514 -1.0577 -0.0639
 1010MOL0     H36335   5.535   6.788   7.097 -0.4521 -0.8955  1.3823
 1010MOL0     H36336   5.427   6.361   6.802 -0.0809  1.6342  0.8586
 1010MOL0     H36337   5.474   6.108   6.760 -0.0640 -0.0659 -1.4012
 1010MOL0     H36338   5.755   5.801   6.821  1.6463 -2.2768  3.7367
 1010MOL0     H36339   5.827   5.902   6.950  0.1393  2.3037  0.0609
 1010MOL0     H36340   5.975   5.856   6.744  4.2071  1.8112 -1.3624
 1010MOL0     H36341   5.970   6.026   6.801  1.6733 -2.3251  0.6010
 1010MOL0     H36342   5.877   6.104   6.619  3.1327 -0.6773  2.9682
 1010MOL0     H36343   5.765   5.966   6.572 -0.6288 -1.7183 -3.2432
 1010MOL0     H36344   6.072   5.982   6.544 -0.1587  0.7965  0.4366
 1010MOL0     H36345   5.966   5.841   6.500  3.3806 -1.0972 -1.8044
 1010MOL0     H36346   5.925   6.145   6.197 -1.1104 -0.0658 -1.0587
 1010MOL0     H36347   5.807   6.112   7.020  0.2336  1.1690  0.6098
 1010MOL0     H36348   5.730   6.430   7.193 -1.3110 -0.9032 -0.6473
 1010MOL0     H36349   5.814   6.275   7.199 -1.9602 -1.5763 -0.9192
 1010MOL0     H36350   5.858   6.412   7.076 -1.2436 -0.9145 -2.1550
 1011MOL0     O36351   3.513   5.046   0.567  0.3881 -0.3223  0.5020
 1011MOL0     C36352   3.446   4.996   0.474  0.2367  0.3526  0.5257
 1011MOL0     O36353   3.313   4.963   0.481  0.3339  0.5575 -0.0039
 1011MOL0     C36354   3.262   4.978   0.611  0.8295 -0.0534  0.6399
 1011MOL0     C36355   3.228   5.108   0.663  0.6908  0.4469 -0.3538
 1011MOL0     C36356   3.196   5.124   0.802  0.6326 -0.1433  0.6362
 1011MOL0     C36357   3.185   5.013   0.889 -0.0558  0.4287  0.2467
 1011MOL0     O36358   3.136   5.034   1.015 -0.2421 -0.1324  0.4167
 1011MOL0     C36359   3.219   5.129   1.094 -1.4580  0.1229  0.1435
 1011MOL0     C36360   3.340   5.061   1.166 -0.0146 -1.3052  0.3068
 1011MOL0     C36361   3.463   5.063   1.074 -0.4622  0.4231  0.1206
 1011MOL0     C36362   3.592   5.045   1.156 -1.0279  0.2434  0.1097
 1011MOL0     C36363   3.650   4.902   1.181  0.8379 -0.8309  0.2374
 1011MOL0     C36364   3.547   4.799   1.233  0.8759  0.3879 -1.2648
 1011MOL0     C36365   3.620   4.666   1.287  0.6770  0.1904  0.3144
 1011MOL0     C36366   3.664   4.701   1.438  0.4246  0.7801 -0.2967
 1011MOL0     N36367   3.706   4.567   1.499 -0.5352  0.3616 -0.4115
 1011MOL0     C36368   3.845   4.530   1.517 -0.3292  0.3469 -0.5459
 1011MOL0     C36369   3.830   4.435   1.622  0.0297  0.6495  1.1936
 1011MOL0     C36370   3.927   4.339   1.695  0.2056  0.7941  0.2697
 1011MOL0     C36371   3.939   4.215   1.613 -1.3854  1.0005 -0.4701
 1011MOL0     C36372   4.040   4.225   1.492  0.3641 -0.0100  0.5421
 1011MOL0     C36373   4.182   4.254   1.527 -1.2640 -0.3471 -0.5423
 1011MOL0     O36374   4.277   4.235   1.423 -0.3209 -0.6190 -0.3826
 1011MOL0     C36375   4.308   4.106   1.398  0.7644 -0.6723 -1.2626
 1011MOL0     C36376   4.367   4.021   1.492 -0.8357 -0.7301 -0.1991
 1011MOL0     C36377   4.419   3.901   1.438 -0.1318 -0.2491 -0.1389
 1011MOL0     C36378   4.382   3.853   1.306 -0.6345  0.1578 -0.1255
 1011MOL0     C36379   4.425   3.730   1.251  0.3244  0.8954  0.3087
 1011MOL0     O36380   4.452   3.626   1.323 -0.6791 -0.3704 -0.9100
 1011MOL0     C36381   4.538   3.530   1.285  0.4333 -0.0042  0.1467
 1011MOL0     C36382   4.488   3.430   1.200  0.0999  0.4033  0.0787
 1011MOL0     C36383   4.570   3.328   1.142  0.2196 -0.9233 -0.4066
 1011MOL0     C36384   4.704   3.321   1.187 -0.2221 -0.2096  0.2518
 1011MOL0     O36385   4.796   3.241   1.132  0.6563 -1.1675 -0.0363
 1011MOL0     C36386   4.780   3.096   1.136  0.0001 -0.5954 -0.5390
 1011MOL0     C36387   4.811   3.046   1.276  0.3033 -0.3128 -0.3599
 1011MOL0     C36388   4.751   2.901   1.298 -0.1173  0.1262 -0.6455
 1011MOL0     C36389   4.796   2.818   1.420  1.1079 -1.0185 -0.3630
 1011MOL0     C36390   4.936   2.767   1.408 -0.1340 -0.6746 -0.1232
 1011MOL0     C36391   4.983   2.733   1.547 -0.9555  0.4463  0.1351
 1011MOL0     C36392   5.108   2.642   1.536 -0.0724  0.4363 -0.3442
 1011MOL0     C36393   5.140   2.569   1.663 -0.2772 -0.9035  0.8915
 1011MOL0    Cl36394   5.014   2.446   1.702 -0.3193  0.3279  0.1237
 1011MOL0     C36395   4.749   3.415   1.275  0.3006 -0.8168  0.5606
 1011MOL0     C36396   4.671   3.525   1.323  0.8531 -0.5057  0.0992
 1011MOL0     O36397   4.435   3.734   1.130  0.2381 -0.2136  0.5041
 1011MOL0     C36398   4.300   3.930   1.223 -0.4179 -0.9041  0.1957
 1011MOL0     C36399   4.268   4.064   1.268 -0.4382 -0.2819 -0.1915
 1011MOL0     N36400   3.698   4.418   1.650 -0.3891  0.3285  0.7371
 1011MOL0     N36401   3.627   4.493   1.577  0.0246 -0.6110  0.1804
 1011MOL0     C36402   3.226   4.888   0.835  0.3419 -0.7230 -0.5782
 1011MOL0     C36403   3.265   4.872   0.701  0.6364  0.0490  0.6048
 1011MOL0     C36404   3.516   4.958   0.353  0.4049  0.6360  0.4418
 1011MOL0     C36405   3.641   4.891   0.371 -0.0638 -0.3751  0.7956
 1011MOL0     C36406   3.715   4.863   0.254  0.5270  0.2710  1.4689
 1011MOL0     C36407   3.673   4.890   0.122  0.5378  0.6521  0.4027
 1011MOL0     O36408   3.756   4.851   0.015  0.1741  0.5550 -0.0941
 1011MOL0     C36409   3.760   4.918  -0.113 -1.0424  0.2035  0.1659
 1011MOL0     C36410   3.852   5.054  -0.096  1.0408  1.0187 -0.8141
 1011MOL0     C36411   3.997   5.029  -0.080 -0.0930 -0.3200 -0.3825
 1011MOL0     C36412   4.057   4.933  -0.179 -0.4298 -0.7958 -0.0540
 1011MOL0     C36413   4.003   4.947  -0.321 -0.1450 -0.6427 -0.3088
 1011MOL0     C36414   3.968   4.938  -0.435  0.0174  0.0095  0.1198
 1011MOL0     C36415   3.566   4.982   0.115 -0.1276  0.2401  0.2667
 1011MOL0     C36416   3.481   4.998   0.224  0.3414 -0.1146 -0.3853
 1011MOL0     C36417   3.349   5.059   0.196  0.2580  0.2197 -0.5259
 1011MOL0     H36418   3.233   5.193   0.595 -0.2586  0.7283 -0.0880
 1011MOL0     H36419   3.148   5.218   0.830 -1.2962 -0.9984  0.3963
 1011MOL0     H36420   3.247   5.215   1.034 -3.0328  0.3376 -0.3292
 1011MOL0     H36421   3.162   5.176   1.175 -0.5761 -1.6546  1.8782
 1011MOL0     H36422   3.318   4.962   1.206 -0.2732  0.6011  5.7362
 1011MOL0     H36423   3.347   5.126   1.254 -2.6245 -0.5961  0.0824
 1011MOL0     H36424   3.459   5.161   1.026 -1.0585  0.8768  1.0750
 1011MOL0     H36425   3.456   4.987   0.996  1.3768 -0.7110  0.9718
 1011MOL0     H36426   3.663   5.112   1.108  0.6046 -1.1428  0.4845
 1011MOL0     H36427   3.562   5.094   1.249 -0.1724 -0.8914  1.0158
 1011MOL0     H36428   3.670   4.870   1.078 -2.2815  1.4076 -1.2048
 1011MOL0     H36429   3.733   4.915   1.250  0.7899  1.5303 -0.0788
 1011MOL0     H36430   3.493   4.838   1.320  1.5801 -1.2151 -0.0568
 1011MOL0     H36431   3.472   4.788   1.155 -1.2423  0.3403  0.6788
 1011MOL0     H36432   3.695   4.618   1.223 -2.1391 -1.4867 -1.9384
 1011MOL0     H36433   3.543   4.589   1.289 -0.0497  0.8775 -0.6677
 1011MOL0     H36434   3.754   4.761   1.455  0.3703  0.6513  0.5309
 1011MOL0     H36435   3.579   4.750   1.486  1.1397  1.5404  0.2265
 1011MOL0     H36436   3.935   4.572   1.474 -1.3854  0.5938 -2.6200
 1011MOL0     H36437   4.023   4.390   1.711  0.0257  0.4954  2.6748
 1011MOL0     H36438   3.876   4.327   1.791  1.0716 -1.5203  0.5139
 1011MOL0     H36439   3.989   4.134   1.668  0.3306 -0.8208 -4.3016
 1011MOL0     H36440   3.839   4.187   1.579  0.3022 -0.8324 -4.6941
 1011MOL0     H36441   3.994   4.290   1.417  1.6697 -0.8254 -1.0469
 1011MOL0     H36442   4.045   4.133   1.433  2.8190  2.8314 -4.3074
 1011MOL0     H36443   4.215   4.186   1.605  0.6580  0.2917 -0.7568
 1011MOL0     H36444   4.182   4.356   1.565  0.0967  0.8769 -3.4932
 1011MOL0     H36445   4.413   4.063   1.581  2.3012  1.2590 -2.5295
 1011MOL0     H36446   4.482   3.842   1.503 -3.1962 -2.6838  0.8923
 1011MOL0     H36447   4.388   3.439   1.158 -0.4115  3.9488  1.7084
 1011MOL0     H36448   4.536   3.274   1.054 -2.0532  0.1038 -0.2258
 1011MOL0     H36449   4.675   3.079   1.113  0.2606 -0.1924 -2.1346
 1011MOL0     H36450   4.845   3.048   1.062 -0.6940 -1.3093 -0.6956
 1011MOL0     H36451   4.918   3.049   1.300 -0.2276  1.9001  2.2069
 1011MOL0     H36452   4.766   3.117   1.346  1.5225  0.4770 -0.3499
 1011MOL0     H36453   4.645   2.899   1.269 -0.4782 -1.3623  0.6282
 1011MOL0     H36454   4.803   2.842   1.223  1.1596 -0.7449  0.8632
 1011MOL0     H36455   4.721   2.737   1.424  1.2559 -1.1377  2.8053
 1011MOL0     H36456   4.772   2.881   1.506 -1.8953  0.0217 -1.8198
 1011MOL0     H36457   5.000   2.848   1.373 -1.3458  2.3616  3.9403
 1011MOL0     H36458   4.935   2.686   1.335  0.9473 -1.3049  0.5279
 1011MOL0     H36459   5.006   2.827   1.598  0.7399 -0.7553  1.7105
 1011MOL0     H36460   4.905   2.678   1.601 -1.3301  2.2895  1.5858
 1011MOL0     H36461   5.194   2.703   1.506  3.0994 -4.0523 -1.4956
 1011MOL0     H36462   5.116   2.559   1.464  0.6037 -1.4572  1.8123
 1011MOL0     H36463   5.238   2.521   1.657  0.7857  0.8558  2.7347
 1011MOL0     H36464   5.156   2.639   1.746  1.9340 -4.1227  3.3989
 1011MOL0     H36465   4.852   3.420   1.307 -0.0674 -1.7707  1.9939
 1011MOL0     H36466   4.713   3.599   1.389 -1.2522 -0.3242  1.3357
 1011MOL0     H36467   4.259   3.898   1.128  1.1206 -2.6008  0.0520
 1011MOL0     H36468   4.224   4.130   1.194 -2.0862 -0.2742  0.7218
 1011MOL0     H36469   3.212   4.810   0.909  4.0034 -3.1301 -2.1431
 1011MOL0     H36470   3.300   4.773   0.673 -0.6858 -0.4164  0.5594
 1011MOL0     H36471   3.684   4.871   0.469 -0.1033 -1.1248  0.6697
 1011MOL0     H36472   3.808   4.807   0.253  1.5875  1.9239  0.5105
 1011MOL0     H36473   3.661   4.948  -0.147 -0.2976  0.5147 -1.8558
 1011MOL0     H36474   3.793   4.852  -0.194  0.5647  1.3153 -0.1339
 1011MOL0     H36475   3.810   5.106  -0.010  1.5471 -0.2279  0.2188
 1011MOL0     H36476   3.827   5.125  -0.175 -3.0947  1.7468  0.8880
 1011MOL0     H36477   4.029   5.008   0.022 -1.2554  2.5630  0.6673
 1011MOL0     H36478   4.041   5.125  -0.106  0.6054  0.1663  2.2880
 1011MOL0     H36479   4.165   4.948  -0.178 -0.8914  3.7611 -0.5068
 1011MOL0     H36480   4.041   4.827  -0.156  1.5021 -1.0713  0.1851
 1011MOL0     H36481   3.928   4.944  -0.535 -1.9261  2.2377  0.9258
 1011MOL0     H36482   3.527   5.023   0.022  1.8083  0.7356 -0.3621
 1011MOL0     H36483   3.357   5.162   0.161  2.4010  0.4126  0.4109
 1011MOL0     H36484   3.296   5.000   0.121  0.4282 -1.0685  0.3397
 1011MOL0     H36485   3.277   5.053   0.278  1.8496  1.1607  1.0092
 1012MOL0     O36486   6.413   4.590  10.569 -1.6033 -0.5534 -0.1922
 1012MOL0     C36487   6.360   4.486  10.537  0.4577 -0.1059 -0.0944
 1012MOL0     O36488   6.414   4.378  10.473  0.7310  0.9344  0.2757
 1012MOL0     C36489   6.546   4.354  10.454  0.4206  0.2317  0.4232
 1012MOL0     C36490   6.579   4.243  10.376 -0.3508  0.0235  0.3832
 1012MOL0     C36491   6.710   4.211  10.341 -0.8855  0.6451 -0.5265
 1012MOL0     C36492   6.821   4.282  10.395  0.0915 -0.3140  0.7986
 1012MOL0     O36493   6.944   4.241  10.359  0.1778  0.4974  0.1920
 1012MOL0     C36494   7.042   4.335  10.367  0.3427 -0.1369 -0.2921
 1012MOL0     C36495   7.178   4.281  10.340 -0.6214  1.0776  0.0309
 1012MOL0     C36496   7.281   4.391  10.348 -0.0312 -0.4618  0.8264
 1012MOL0     C36497   7.408   4.342  10.286 -0.5773  0.6124 -0.2121
 1012MOL0     C36498   7.525   4.433  10.305 -0.3101 -0.1499 -0.1632
 1012MOL0     C36499   7.659   4.380  10.252 -0.0540 -0.0036  0.4311
 1012MOL0     C36500   7.654   4.340  10.109 -0.6529 -0.1093 -0.0379
 1012MOL0     C36501   7.790   4.301  10.049 -0.0583  0.2582 -0.2303
 1012MOL0     N36502   7.874   4.419  10.033 -0.6518 -0.3287 -0.5300
 1012MOL0     C36503   7.876   4.504   9.936  0.7741 -0.1291  0.1198
 1012MOL0     C36504   7.985   4.585   9.960  1.5859  0.7880 -0.1072
 1012MOL0     C36505   8.028   4.707   9.881  0.0263  0.2433 -0.0522
 1012MOL0     C36506   7.916   4.812   9.883  0.0305 -0.1635  0.4157
 1012MOL0     C36507   7.868   4.856  10.032  0.4882 -0.6508 -0.0543
 1012MOL0     C36508   7.836   5.003  10.027 -0.3966 -0.2011  0.3105
 1012MOL0     O36509   7.708   5.039   9.969  0.5530  0.1431 -0.1496
 1012MOL0     C36510   7.668   5.170   9.951  0.3910 -0.3892 -0.7520
 1012MOL0     C36511   7.536   5.211   9.957  0.4288 -0.9544  0.4581
 1012MOL0     C36512   7.499   5.346   9.931 -0.3295 -1.2598  0.1196
 1012MOL0     C36513   7.598   5.444   9.923  0.3014 -0.2516  0.8252
 1012MOL0     C36514   7.553   5.587   9.913 -0.1293 -0.1087  1.0517
 1012MOL0     O36515   7.436   5.600   9.984 -0.0677 -0.3483 -0.3979
 1012MOL0     C36516   7.391   5.736  10.004 -0.2175  0.5110 -0.7451
 1012MOL0     C36517   7.462   5.827  10.088  0.5243 -0.2765 -0.6921
 1012MOL0     C36518   7.415   5.961  10.110  0.8813  0.0636 -0.2392
 1012MOL0     C36519   7.293   6.003  10.048 -0.6064  0.8964  0.6332
 1012MOL0     O36520   7.245   6.130  10.062  0.3489 -0.1892  0.7130
 1012MOL0     C36521   7.261   6.186  10.192 -0.6504  0.8460  0.0181
 1012MOL0     C36522   7.166   6.311  10.210 -0.4073  0.1070 -0.4877
 1012MOL0     C36523   7.219   6.461  10.185 -0.5797 -0.3963  1.1559
 1012MOL0     C36524   7.275   6.474  10.045 -0.6609  0.1466 -0.3546
 1012MOL0     C36525   7.365   6.591   9.991 -0.1311  0.1418 -0.3887
 1012MOL0     C36526   7.280   6.716   9.988  0.0446 -0.0395 -0.3180
 1012MOL0     C36527   7.334   6.820   9.890  0.2041 -0.5916 -0.0328
 1012MOL0     C36528   7.450   6.916   9.948  0.7608  0.4139 -0.1946
 1012MOL0    Cl36529   7.381   7.024  10.079  0.5407  0.0162  0.0468
 1012MOL0     C36530   7.232   5.906   9.962  0.6126 -0.1006 -0.6745
 1012MOL0     C36531   7.280   5.782   9.943 -0.5520  0.2916  0.3049
 1012MOL0     O36532   7.605   5.677   9.848 -0.7794  0.5177 -0.0972
 1012MOL0     C36533   7.743   5.409   9.924 -0.1168  0.8987 -1.1146
 1012MOL0     C36534   7.770   5.271   9.937  0.3609  0.4001 -0.4564
 1012MOL0     N36535   8.053   4.540  10.078  0.1461 -1.1247 -1.2438
 1012MOL0     N36536   7.974   4.455  10.127  0.6843  0.1120 -0.4459
 1012MOL0     C36537   6.784   4.405  10.469  0.1508  0.6803 -0.5387
 1012MOL0     C36538   6.654   4.430  10.500 -0.8407 -0.0674  0.0044
 1012MOL0     C36539   6.210   4.482  10.558  0.8357  0.3969 -0.4114
 1012MOL0     C36540   6.139   4.377  10.501  0.0347  0.6592  0.3936
 1012MOL0     C36541   5.999   4.348  10.536 -0.2710 -0.2016  0.7179
 1012MOL0     C36542   5.937   4.424  10.622  0.5158 -0.4415 -0.2785
 1012MOL0     O36543   5.801   4.406  10.623 -0.2738 -0.8760 -0.5231
 1012MOL0     C36544   5.713   4.489  10.694  0.4288  0.5838  0.4409
 1012MOL0     C36545   5.678   4.420  10.829  0.3443 -0.2982  0.5444
 1012MOL0     C36546   5.594   4.502  10.923  0.4777 -0.0877  0.2066
 1012MOL0     C36547   5.449   4.536  10.869 -0.5827 -0.7404 -0.4686
 1012MOL0     C36548   5.435   4.676  10.827 -0.0548  0.0064 -0.2677
 1012MOL0     C36549   5.401   4.790  10.803 -0.7156  0.0463  0.8406
 1012MOL0     C36550   6.002   4.534  10.679 -1.0761  0.3051  0.2613
 1012MOL0     C36551   6.132   4.571  10.644  0.5834  0.9602  0.3395
 1012MOL0     C36552   6.189   4.689  10.710 -0.2222  0.0002 -1.0525
 1012MOL0     H36553   6.511   4.178  10.322  0.8873  0.5402 -1.9013
 1012MOL0     H36554   6.730   4.116  10.292  0.3245  0.0016  1.1310
 1012MOL0     H36555   7.015   4.426  10.313 -1.1098  2.0896  3.7097
 1012MOL0     H36556   7.046   4.382  10.466  2.5634 -1.8611  0.5186
 1012MOL0     H36557   7.173   4.234  10.241 -1.6712  2.5253 -0.6483
 1012MOL0     H36558   7.200   4.198  10.407 -0.1901 -0.7575 -2.2478
 1012MOL0     H36559   7.308   4.410  10.452  0.5437 -0.7623  0.7328
 1012MOL0     H36560   7.246   4.483  10.300 -0.1428  0.5140  2.6746
 1012MOL0     H36561   7.446   4.254  10.339  0.7265  1.9426  1.2011
 1012MOL0     H36562   7.397   4.299  10.186  1.6604  0.7652 -0.5802
 1012MOL0     H36563   7.495   4.522  10.249 -1.5247  0.6977  1.7287
 1012MOL0     H36564   7.540   4.461  10.409 -1.0684  0.7190 -0.2733
 1012MOL0     H36565   7.736   4.459  10.258  2.5065 -2.2668 -0.3926
 1012MOL0     H36566   7.689   4.295  10.314 -0.0147 -0.5645 -0.3416
 1012MOL0     H36567   7.619   4.428  10.054  2.4462  1.0565 -0.3808
 1012MOL0     H36568   7.588   4.254  10.096  0.0351 -0.5300 -0.8315
 1012MOL0     H36569   7.836   4.229  10.117 -1.7232 -0.6008  0.0357
 1012MOL0     H36570   7.776   4.246   9.955 -0.1978 -0.1872  0.0509
 1012MOL0     H36571   7.825   4.499   9.840  1.6181 -1.2011 -0.2894
 1012MOL0     H36572   8.123   4.744   9.920  2.3609 -3.0306 -2.0774
 1012MOL0     H36573   8.040   4.662   9.782  4.4372 -2.1187  1.3152
 1012MOL0     H36574   7.955   4.902   9.835 -0.0388  0.4480  1.4771
 1012MOL0     H36575   7.834   4.781   9.818 -1.0887  3.2919 -0.0444
 1012MOL0     H36576   7.945   4.828  10.104  3.0604 -0.5770 -2.6034
 1012MOL0     H36577   7.786   4.792  10.066  0.2907 -0.6390 -0.4953
 1012MOL0     H36578   7.916   5.059   9.977 -2.9648  1.9122 -1.7381
 1012MOL0     H36579   7.828   5.043  10.129  0.4957 -2.4105  1.3154
 1012MOL0     H36580   7.449   5.150   9.977 -1.0022  1.3879  1.8150
 1012MOL0     H36581   7.394   5.375   9.928 -0.0142 -0.1057 -1.8731
 1012MOL0     H36582   7.556   5.812  10.141 -0.4210  0.1197  1.1589
 1012MOL0     H36583   7.474   6.024  10.176  1.7230 -1.2668  0.3137
 1012MOL0     H36584   7.231   6.112  10.266  0.1667  3.0545  2.7350
 1012MOL0     H36585   7.366   6.219  10.196 -0.5294  0.4607  0.0520
 1012MOL0     H36586   7.071   6.296  10.157 -0.4937 -5.4904  0.7209
 1012MOL0     H36587   7.133   6.311  10.314 -1.6176 -0.8066 -0.8567
 1012MOL0     H36588   7.140   6.537  10.184  0.8951  1.3213 -2.1879
 1012MOL0     H36589   7.289   6.498  10.261  3.1032 -2.6020 -0.8604
 1012MOL0     H36590   7.190   6.455   9.979  0.5878  0.5498 -2.1642
 1012MOL0     H36591   7.333   6.382  10.037 -0.5668  0.0560  1.0530
 1012MOL0     H36592   7.408   6.571   9.893  0.5118 -1.6209  0.2054
 1012MOL0     H36593   7.453   6.602  10.056  0.9416 -0.7323 -1.6447
 1012MOL0     H36594   7.177   6.699   9.955  0.1107  0.2915 -0.7042
 1012MOL0     H36595   7.269   6.754  10.090 -2.2440 -0.7087 -0.2571
 1012MOL0     H36596   7.258   6.878   9.838 -0.6350 -2.6700 -1.2544
 1012MOL0     H36597   7.386   6.769   9.808 -1.4432  1.7293 -2.7436
 1012MOL0     H36598   7.533   6.857   9.989 -2.3448 -2.2790  2.8647
 1012MOL0     H36599   7.502   6.974   9.871  1.3254 -0.5279 -0.5445
 1012MOL0     H36600   7.138   5.936   9.915 -1.6178 -2.7621  1.7837
 1012MOL0     H36601   7.236   5.728   9.860  0.2004  1.2652 -0.7654
 1012MOL0     H36602   7.830   5.474   9.919  2.2205 -1.8293  1.0502
 1012MOL0     H36603   7.873   5.236   9.932  0.3872 -1.1031  4.6477
 1012MOL0     H36604   6.860   4.474  10.505  2.4858 -0.8400 -2.3111
 1012MOL0     H36605   6.626   4.517  10.559 -1.3965  0.2436 -0.7001
 1012MOL0     H36606   6.178   4.310  10.426  1.9476  1.4620  0.6143
 1012MOL0     H36607   5.951   4.257  10.501  0.1516  0.1354 -0.8381
 1012MOL0     H36608   5.633   4.500  10.620  4.0361  1.1713 -3.8410
 1012MOL0     H36609   5.746   4.592  10.708 -1.0772  0.9287  1.6460
 1012MOL0     H36610   5.775   4.413  10.879  2.3278 -1.0029 -3.0214
 1012MOL0     H36611   5.641   4.318  10.810 -0.1723 -0.3275  1.6500
 1012MOL0     H36612   5.660   4.588  10.936  2.7584 -1.5928 -0.7461
 1012MOL0     H36613   5.578   4.449  11.017  1.6396 -0.2239  0.3308
 1012MOL0     H36614   5.415   4.461  10.796 -2.3989  2.1672 -2.8528
 1012MOL0     H36615   5.380   4.525  10.954  1.1080  0.2763  1.1025
 1012MOL0     H36616   5.366   4.890  10.791  1.5975  0.7679 -0.5010
 1012MOL0     H36617   5.946   4.597  10.747 -0.0032 -0.2761  1.7532
 1012MOL0     H36618   6.255   4.649  10.787  1.2548 -0.9197 -2.7200
 1012MOL0     H36619   6.253   4.746  10.641  1.3392 -1.4232 -0.8333
 1012MOL0     H36620   6.119   4.752  10.765  1.5735 -2.6307  5.0663
 1013MOL0     O36621   4.067   5.548   2.871  0.2787 -0.8150 -0.1983
 1013MOL0     C36622   4.097   5.448   2.800  1.3387  0.8236 -0.5860
 1013MOL0     O36623   4.223   5.434   2.743 -0.4904  0.0995  0.0108
 1013MOL0     C36624   4.286   5.552   2.709 -0.7856  0.1361 -0.1774
 1013MOL0     C36625   4.234   5.635   2.610 -0.2773 -0.0716 -0.1669
 1013MOL0     C36626   4.294   5.755   2.567 -0.2279  0.2057 -0.1160
 1013MOL0     C36627   4.402   5.801   2.656 -0.0922 -0.0511 -0.3258
 1013MOL0     O36628   4.462   5.928   2.658 -0.2607  0.8242  0.4425
 1013MOL0     C36629   4.426   6.039   2.575 -0.4568  0.4602 -0.0881
 1013MOL0     C36630   4.323   6.124   2.643 -0.2426  0.0492 -0.9327
 1013MOL0     C36631   4.354   6.275   2.644 -0.4169 -0.1921  0.3448
 1013MOL0     C36632   4.476   6.312   2.720 -0.2749 -1.2522 -0.3941
 1013MOL0     C36633   4.475   6.464   2.723 -0.5167 -0.2605  0.1474
 1013MOL0     C36634   4.616   6.511   2.767  0.5906  0.5078  0.3120
 1013MOL0     C36635   4.624   6.658   2.750 -1.1939  0.5290  0.5966
 1013MOL0     C36636   4.573   6.742   2.869 -0.1405  0.4702  1.0239
 1013MOL0     N36637   4.601   6.883   2.828  0.1032 -0.2783  0.1896
 1013MOL0     C36638   4.503   6.966   2.778 -0.3907 -0.0282 -1.1218
 1013MOL0     C36639   4.567   7.081   2.745  0.4367  0.6984  0.0259
 1013MOL0     C36640   4.501   7.203   2.682  0.0336 -0.4051  0.6663
 1013MOL0     C36641   4.591   7.331   2.685  0.2149  0.8094  0.9888
 1013MOL0     C36642   4.575   7.431   2.798 -0.2894  0.3221  1.0907
 1013MOL0     C36643   4.563   7.366   2.943 -0.1930 -0.9489  0.6311
 1013MOL0     O36644   4.505   7.447   3.046  0.9795 -0.5171  0.0901
 1013MOL0     C36645   4.577   7.519   3.137 -0.2694  0.9403  0.8051
 1013MOL0     C36646   4.542   7.541   3.267  0.5703 -0.8931 -1.1828
 1013MOL0     C36647   4.616   7.624   3.354 -0.3885  0.2268 -1.3554
 1013MOL0     C36648   4.740   7.673   3.306  0.4675  0.1385  0.4689
 1013MOL0     C36649   4.847   7.742   3.394  0.2661 -0.3707  0.6152
 1013MOL0     O36650   4.821   7.749   3.526 -0.2681  0.3752 -0.7325
 1013MOL0     C36651   4.922   7.822   3.600  0.2006 -0.3516 -0.2347
 1013MOL0     C36652   5.039   7.770   3.647  0.3562  0.2638 -0.0516
 1013MOL0     C36653   5.139   7.866   3.667  0.0250  0.4982  0.1638
 1013MOL0     C36654   5.115   8.002   3.678 -0.3327  0.1119 -0.4487
 1013MOL0     O36655   5.217   8.102   3.685 -0.2955 -0.7770 -0.2028
 1013MOL0     C36656   5.351   8.077   3.662 -0.2959 -0.7796  0.5115
 1013MOL0     C36657   5.424   8.063   3.797  0.5219  0.6559  0.2430
 1013MOL0     C36658   5.550   7.986   3.782  0.1860 -0.2291 -0.0015
 1013MOL0     C36659   5.668   8.039   3.872 -0.6824 -0.0727  0.3740
 1013MOL0     C36660   5.813   7.987   3.839  0.3853  0.2622 -0.9663
 1013MOL0     C36661   5.906   8.035   3.955  0.5421 -0.0395  0.7904
 1013MOL0     C36662   6.058   8.006   3.933 -0.1218  1.0876 -0.1130
 1013MOL0     C36663   6.125   8.093   3.832 -0.1801  0.3401  0.2998
 1013MOL0    Cl36664   6.106   8.262   3.873  0.1209  0.4509 -0.1122
 1013MOL0     C36665   4.985   8.039   3.683  0.2453  0.0841  0.8978
 1013MOL0     C36666   4.888   7.956   3.631  0.6729  0.2908  0.2233
 1013MOL0     O36667   4.939   7.802   3.336  0.3484 -0.2076  0.3203
 1013MOL0     C36668   4.771   7.648   3.176  0.3307 -0.3173  0.6916
 1013MOL0     C36669   4.689   7.582   3.086 -0.4390  0.0773 -0.3974
 1013MOL0     N36670   4.696   7.067   2.795  0.3828 -0.1110 -0.7689
 1013MOL0     N36671   4.715   6.957   2.853  0.1567  0.9023  0.3148
 1013MOL0     C36672   4.451   5.725   2.758 -1.1767  0.0861 -0.8025
 1013MOL0     C36673   4.396   5.595   2.784 -0.4166  0.4227  0.4600
 1013MOL0     C36674   3.994   5.343   2.782  0.6415  0.3601 -0.5493
 1013MOL0     C36675   3.873   5.362   2.844 -0.3488  0.0829  0.1584
 1013MOL0     C36676   3.769   5.279   2.830  0.5899 -0.4415 -0.2823
 1013MOL0     C36677   3.786   5.154   2.766 -0.1028  0.3358 -0.3353
 1013MOL0     O36678   3.696   5.058   2.749 -0.0326  0.0693  0.0814
 1013MOL0     C36679   3.573   5.072   2.817 -0.4118 -0.7410 -0.7608
 1013MOL0     C36680   3.503   4.939   2.794  0.4913 -0.3103  0.3438
 1013MOL0     C36681   3.574   4.807   2.849 -0.1152 -0.3404 -0.1615
 1013MOL0     C36682   3.486   4.682   2.801  0.1468 -0.1850  0.1839
 1013MOL0     C36683   3.342   4.662   2.816 -1.0296  0.6633  0.6520
 1013MOL0     C36684   3.223   4.643   2.810  0.1346  0.9824 -0.6647
 1013MOL0     C36685   3.910   5.129   2.710  0.5756  0.0664 -0.4450
 1013MOL0     C36686   4.016   5.219   2.715 -0.3699 -0.1795 -1.1346
 1013MOL0     C36687   4.134   5.182   2.630  0.1497 -0.2968  0.9142
 1013MOL0     H36688   4.137   5.622   2.562 -1.2839 -3.1377  2.3301
 1013MOL0     H36689   4.261   5.824   2.490 -0.8029 -0.0496 -0.1035
 1013MOL0     H36690   4.510   6.097   2.536 -0.6765  0.2524 -0.8908
 1013MOL0     H36691   4.368   6.004   2.489  0.9663 -1.1413 -0.4373
 1013MOL0     H36692   4.310   6.096   2.748 -2.1611  0.2686 -1.0833
 1013MOL0     H36693   4.220   6.105   2.612 -1.5681  1.0922  2.4028
 1013MOL0     H36694   4.267   6.324   2.689 -0.9738  0.8082 -1.7341
 1013MOL0     H36695   4.355   6.309   2.541  1.8345  3.0214  1.2737
 1013MOL0     H36696   4.481   6.269   2.821  0.1836 -0.6593 -0.1583
 1013MOL0     H36697   4.562   6.278   2.662 -0.9238  0.1503 -2.2622
 1013MOL0     H36698   4.463   6.496   2.619 -0.3295 -3.6042 -1.0013
 1013MOL0     H36699   4.394   6.506   2.785 -1.9074  0.3112 -1.9336
 1013MOL0     H36700   4.619   6.478   2.871  0.4578  0.6735  0.3680
 1013MOL0     H36701   4.688   6.454   2.707 -2.2493 -2.2088 -0.7967
 1013MOL0     H36702   4.578   6.687   2.655  0.4278  0.7070 -0.1498
 1013MOL0     H36703   4.731   6.678   2.742 -1.2446  0.5660  0.0083
 1013MOL0     H36704   4.467   6.718   2.885  0.2882 -3.0495 -0.4750
 1013MOL0     H36705   4.625   6.722   2.963 -2.9207 -0.3669  2.4858
 1013MOL0     H36706   4.397   6.951   2.762 -0.8301  3.2273 -1.9870
 1013MOL0     H36707   4.476   7.190   2.576  2.7514  1.5084 -0.3154
 1013MOL0     H36708   4.408   7.228   2.733 -2.0169  0.0280 -2.9496
 1013MOL0     H36709   4.698   7.304   2.686  0.0747  0.1643  0.0484
 1013MOL0     H36710   4.578   7.389   2.594  0.5839 -0.1662  0.2996
 1013MOL0     H36711   4.485   7.489   2.778 -0.0183  0.8182  1.3089
 1013MOL0     H36712   4.658   7.501   2.794 -3.2856  4.1531 -1.7119
 1013MOL0     H36713   4.660   7.332   2.981 -0.5726  0.1372  2.7044
 1013MOL0     H36714   4.497   7.279   2.941 -0.0591 -1.0390 -1.2002
 1013MOL0     H36715   4.444   7.497   3.284  0.0211 -0.8549 -3.7833
 1013MOL0     H36716   4.575   7.663   3.446 -1.0762  0.5708 -1.7913
 1013MOL0     H36717   5.059   7.665   3.661  3.6920  1.0514  2.5269
 1013MOL0     H36718   5.232   7.831   3.709 -0.1130 -0.4626 -0.2907
 1013MOL0     H36719   5.363   7.984   3.606 -1.7005  0.0201 -1.2195
 1013MOL0     H36720   5.394   8.159   3.604  2.7855 -3.4184 -1.2536
 1013MOL0     H36721   5.447   8.163   3.836  2.8005  0.7892 -1.2340
 1013MOL0     H36722   5.355   8.006   3.860  0.2780  2.4828  1.6992
 1013MOL0     H36723   5.532   7.880   3.804  3.8393 -0.7308  1.1421
 1013MOL0     H36724   5.577   7.981   3.676 -0.4508  0.8390 -0.2372
 1013MOL0     H36725   5.630   8.007   3.969 -2.3014 -3.2187 -1.1474
 1013MOL0     H36726   5.674   8.148   3.869 -1.4995  0.1622  3.5133
 1013MOL0     H36727   5.850   8.029   3.745  2.2746 -0.9351 -0.8225
 1013MOL0     H36728   5.808   7.878   3.825 -0.1544  0.1560 -0.0043
 1013MOL0     H36729   5.903   8.143   3.974 -1.3842  0.0355  0.2301
 1013MOL0     H36730   5.865   7.992   4.046 -1.6523  1.1600  0.4324
 1013MOL0     H36731   6.062   7.898   3.913 -1.9052  0.9806 -0.0827
 1013MOL0     H36732   6.104   8.018   4.031 -1.8880  1.9733  0.6535
 1013MOL0     H36733   6.233   8.075   3.831 -0.4390 -1.5701  1.0649
 1013MOL0     H36734   6.084   8.069   3.733 -2.3600 -5.0641  2.0766
 1013MOL0     H36735   4.956   8.137   3.720  0.6181  0.8048 -0.6770
 1013MOL0     H36736   4.791   8.003   3.623  0.6537  0.6722  2.1967
 1013MOL0     H36737   4.864   7.687   3.134 -1.3928 -1.0146 -4.4501
 1013MOL0     H36738   4.722   7.573   2.983  2.7179 -3.6038  0.6672
 1013MOL0     H36739   4.525   5.761   2.829 -2.2543  1.4352 -0.3069
 1013MOL0     H36740   4.438   5.543   2.869  2.6314  0.0679 -1.1567
 1013MOL0     H36741   3.849   5.456   2.893  0.5569 -0.0455  0.8804
 1013MOL0     H36742   3.673   5.306   2.873  0.5526 -2.0266  0.6912
 1013MOL0     H36743   3.514   5.157   2.781  0.6947  0.8324  0.9551
 1013MOL0     H36744   3.576   5.081   2.926 -3.6233  0.2583 -0.6285
 1013MOL0     H36745   3.504   4.928   2.685  3.8832  0.7314  0.1402
 1013MOL0     H36746   3.401   4.963   2.826  1.2932  4.8863 -0.0880
 1013MOL0     H36747   3.563   4.808   2.958 -0.3369 -4.0301 -0.0043
 1013MOL0     H36748   3.680   4.791   2.830  0.1695 -0.9192  1.7111
 1013MOL0     H36749   3.504   4.694   2.694 -0.5365  2.3982  0.2786
 1013MOL0     H36750   3.521   4.589   2.845 -3.1423 -0.1245  3.3989
 1013MOL0     H36751   3.119   4.623   2.797  0.8249 -2.4026 -1.9983
 1013MOL0     H36752   3.923   5.042   2.647 -1.6038 -0.6305 -0.0077
 1013MOL0     H36753   4.118   5.106   2.553  2.9145  1.5625 -1.7837
 1013MOL0     H36754   4.171   5.265   2.568 -2.7779  1.0387  0.7875
 1013MOL0     H36755   4.214   5.150   2.696 -1.1447 -1.0535  2.1645
 1014MOL0     O36756  10.183  10.396   0.724 -0.3712 -0.1066 -0.2402
 1014MOL0     C36757  10.160  10.515   0.714 -0.5701  0.1488 -0.1819
 1014MOL0     O36758  10.227  10.614   0.778 -0.2035  0.2059 -0.2090
 1014MOL0     C36759  10.312  10.584   0.884  0.2902  0.5248  0.3723
 1014MOL0     C36760  10.312  10.675   0.996 -0.3999  0.9382  0.6618
 1014MOL0     C36761  10.415  10.679   1.082  0.0109  0.3613  0.4704
 1014MOL0     C36762  10.516  10.581   1.086 -0.1471 -0.4072  0.4752
 1014MOL0     O36763  10.610  10.567   1.186  0.3068 -0.6217  0.7073
 1014MOL0     C36764  10.586  10.627   1.311  0.0890  0.0870  0.3738
 1014MOL0     C36765  10.693  10.585   1.409  0.2431 -0.1290 -1.2514
 1014MOL0     C36766  10.836  10.630   1.353  0.5663  1.3258 -0.1862
 1014MOL0     C36767  10.952  10.577   1.432 -2.6559 -0.9126  0.0062
 1014MOL0     C36768  11.092  10.575   1.351  0.3293 -0.7672  0.0182
 1014MOL0     C36769  11.207  10.506   1.434 -0.3497  1.3077 -0.1300
 1014MOL0     C36770  11.356  10.526   1.376 -0.4135  0.4437 -0.2527
 1014MOL0     C36771  11.463  10.432   1.442  0.8019 -0.6378  0.0365
 1014MOL0     N36772  11.597  10.474   1.395  0.6150 -1.0931 -0.1870
 1014MOL0     C36773  11.661  10.446   1.278 -0.3310  0.7857 -0.1468
 1014MOL0     C36774  11.787  10.484   1.299  1.1051 -0.6228 -0.2711
 1014MOL0     C36775  11.888  10.497   1.185 -0.2871  0.5803 -0.9544
 1014MOL0     C36776  12.012  10.416   1.202  0.4593 -0.3037  1.0581
 1014MOL0     C36777  12.098  10.434   1.067 -0.3763  0.3338 -0.2859
 1014MOL0     C36778  12.235  10.361   1.074 -0.0087  0.1031  0.0372
 1014MOL0     O36779  12.302  10.424   1.180  0.0496  0.3763 -0.2360
 1014MOL0     C36780  12.429  10.378   1.199  0.1958 -0.8929  0.3809
 1014MOL0     C36781  12.463  10.328   1.317 -0.2552  0.3598  0.3258
 1014MOL0     C36782  12.592  10.283   1.354  0.1102  0.4814  0.3920
 1014MOL0     C36783  12.698  10.294   1.256  0.8243 -0.4221 -0.5388
 1014MOL0     C36784  12.837  10.261   1.285 -1.1301 -0.1559  0.1731
 1014MOL0     O36785  12.880  10.182   1.389 -0.0664 -0.1031 -0.1281
 1014MOL0     C36786  13.019  10.155   1.412  0.5529 -0.6955 -0.3690
 1014MOL0     C36787  13.078  10.145   1.538  0.9381 -0.3032 -0.2889
 1014MOL0     C36788  13.209  10.117   1.552  1.2359  0.8048 -0.6853
 1014MOL0     C36789  13.287  10.085   1.441 -0.1741 -0.1706 -0.7403
 1014MOL0     O36790  13.425  10.043   1.456  0.0757 -0.2039 -0.5429
 1014MOL0     C36791  13.491   9.954   1.358 -0.3657 -1.1124 -0.7279
 1014MOL0     C36792  13.458   9.805   1.381  0.3252 -0.0763  1.0201
 1014MOL0     C36793  13.318   9.752   1.416 -1.0457 -0.9481 -0.1848
 1014MOL0     C36794  13.332   9.597   1.458  1.2119 -0.3668 -0.4682
 1014MOL0     C36795  13.193   9.535   1.460  0.8111  0.0438  0.0944
 1014MOL0     C36796  13.194   9.380   1.489  0.7836  0.5357  0.3851
 1014MOL0     C36797  13.069   9.313   1.554 -1.2060  0.0570  0.2062
 1014MOL0     C36798  13.090   9.156   1.569 -0.5580  0.4884  0.3544
 1014MOL0    Cl36799  12.934   9.071   1.601  0.1102  0.7022  0.1225
 1014MOL0     C36800  13.226  10.102   1.323  0.5117 -0.5010  0.2063
 1014MOL0     C36801  13.099  10.137   1.307 -0.3574 -0.0873  0.2387
 1014MOL0     O36802  12.906  10.306   1.194 -0.0224 -0.3755 -0.4886
 1014MOL0     C36803  12.658  10.337   1.131 -0.2422  0.1347 -0.5425
 1014MOL0     C36804  12.524  10.368   1.101  0.0064  0.0975 -0.1738
 1014MOL0     N36805  11.809  10.534   1.424  0.1292 -0.3063  0.4113
 1014MOL0     N36806  11.688  10.527   1.480 -0.7869  0.6764  0.1742
 1014MOL0     C36807  10.517  10.486   0.981 -0.1900 -0.5051  0.1267
 1014MOL0     C36808  10.417  10.488   0.884 -0.0209 -0.2288  0.3491
 1014MOL0     C36809  10.061  10.557   0.623 -0.2357 -0.0143  0.8224
 1014MOL0     C36810  10.056  10.692   0.569 -0.1082  0.2129  0.1370
 1014MOL0     C36811   9.957  10.735   0.477 -0.8719 -0.1052 -0.8225
 1014MOL0     C36812   9.856  10.652   0.439 -1.4674 -0.4304  0.7533
 1014MOL0     O36813   9.754  10.695   0.355  0.5442  0.3496  0.2786
 1014MOL0     C36814   9.617  10.661   0.387  0.5850  0.2098 -0.2288
 1014MOL0     C36815   9.565  10.725   0.523  0.0515 -0.9552 -0.0887
 1014MOL0     C36816   9.535  10.877   0.520  0.3790 -0.6829 -0.4277
 1014MOL0     C36817   9.557  10.938   0.661 -0.1303  0.2149 -0.6107
 1014MOL0     C36818   9.443  10.944   0.745  0.5088 -0.4806 -0.0110
 1014MOL0     C36819   9.339  10.948   0.807  0.4675 -0.5349 -0.1564
 1014MOL0     C36820   9.848  10.533   0.507 -0.4568  0.1200 -0.0572
 1014MOL0     C36821   9.945  10.489   0.599  0.5831  0.6357  0.0688
 1014MOL0     C36822   9.917  10.350   0.666 -0.2637 -0.5566  1.3415
 1014MOL0     H36823  10.243  10.757   1.011 -1.8844  0.0484 -0.9144
 1014MOL0     H36824  10.424  10.756   1.159 -2.8213  2.2307 -0.9193
 1014MOL0     H36825  10.592  10.736   1.312  0.4453  0.0855  1.9834
 1014MOL0     H36826  10.494  10.596   1.362 -1.7633  2.2326 -1.4421
 1014MOL0     H36827  10.693  10.476   1.418 -3.2261 -0.2677 -1.4859
 1014MOL0     H36828  10.677  10.624   1.510  1.9444 -0.3657 -0.8693
 1014MOL0     H36829  10.849  10.735   1.327 -1.9415  1.3397 -1.6612
 1014MOL0     H36830  10.852  10.587   1.254 -1.6851  2.1947 -0.9890
 1014MOL0     H36831  10.975  10.631   1.524  2.6961 -0.1012 -1.4995
 1014MOL0     H36832  10.930  10.475   1.465  0.7921 -2.1805 -1.2187
 1014MOL0     H36833  11.075  10.521   1.258  0.5332 -1.7092  0.5173
 1014MOL0     H36834  11.125  10.676   1.324  1.8630 -1.7401 -2.0079
 1014MOL0     H36835  11.202  10.542   1.537  0.1672  0.2151  0.2976
 1014MOL0     H36836  11.181  10.400   1.437  0.6110  1.0189 -1.4791
 1014MOL0     H36837  11.386  10.628   1.402 -0.2121 -0.1484  2.0511
 1014MOL0     H36838  11.360  10.528   1.266 -0.3355 -0.9841 -0.2982
 1014MOL0     H36839  11.461  10.442   1.551 -1.8915  3.2183 -0.1492
 1014MOL0     H36840  11.441  10.329   1.413  0.8967 -1.0034  1.2178
 1014MOL0     H36841  11.623  10.418   1.180  2.5286  1.6197 -1.5754
 1014MOL0     H36842  11.837  10.480   1.089  0.0243 -0.0711 -1.0113
 1014MOL0     H36843  11.926  10.599   1.195  2.6691 -0.6635  3.3765
 1014MOL0     H36844  12.062  10.461   1.289 -0.0922  5.3142 -1.1229
 1014MOL0     H36845  11.988  10.311   1.217 -2.5367  0.5814  3.5301
 1014MOL0     H36846  12.124  10.539   1.051  0.9496  0.0931  0.1993
 1014MOL0     H36847  12.034  10.405   0.984 -2.9970  1.4234  1.2207
 1014MOL0     H36848  12.278  10.373   0.974 -1.8002 -2.3989 -1.1259
 1014MOL0     H36849  12.242  10.252   1.081  0.5534 -0.3654 -4.5391
 1014MOL0     H36850  12.388  10.323   1.396 -0.5463 -2.3411 -0.0138
 1014MOL0     H36851  12.618  10.253   1.454 -2.5346 -2.0047  0.4816
 1014MOL0     H36852  13.018  10.164   1.627  0.7348  1.1833 -0.7263
 1014MOL0     H36853  13.252  10.120   1.652 -1.7254 -0.5755  0.7767
 1014MOL0     H36854  13.445   9.985   1.263  0.3529  1.6247 -0.2622
 1014MOL0     H36855  13.597   9.979   1.361 -0.7068  0.4047  2.1989
 1014MOL0     H36856  13.485   9.749   1.290  1.6742  2.6340 -0.3747
 1014MOL0     H36857  13.527   9.765   1.456  2.5114 -0.5012 -1.0518
 1014MOL0     H36858  13.271   9.811   1.495  1.6368  1.0728  0.0086
 1014MOL0     H36859  13.263   9.763   1.323  0.4487  1.4002 -0.8663
 1014MOL0     H36860  13.380   9.589   1.556  0.5304  0.6572 -0.0382
 1014MOL0     H36861  13.393   9.544   1.384  1.7042  2.7696 -2.4819
 1014MOL0     H36862  13.147   9.546   1.361  1.1911 -2.9665 -0.5142
 1014MOL0     H36863  13.131   9.589   1.532  1.2200 -0.1175  0.5676
 1014MOL0     H36864  13.198   9.331   1.391  2.0136  3.3684 -1.1351
 1014MOL0     H36865  13.282   9.347   1.545  0.1908 -1.6915  0.0757
 1014MOL0     H36866  12.975   9.339   1.505 -1.9201  1.1327  2.0327
 1014MOL0     H36867  13.055   9.362   1.651 -3.5287  2.3490 -1.1313
 1014MOL0     H36868  13.116   9.116   1.471  0.0347  0.0229  0.6964
 1014MOL0     H36869  13.170   9.135   1.641 -2.2034  1.9355  2.7685
 1014MOL0     H36870  13.274  10.090   1.226 -5.5746  0.2750 -3.3980
 1014MOL0     H36871  13.074  10.147   1.201 -1.0537  2.0250  0.5502
 1014MOL0     H36872  12.726  10.362   1.051  0.3230  2.0532  0.4815
 1014MOL0     H36873  12.490  10.394   1.001 -2.5356  2.1723  1.0971
 1014MOL0     H36874  10.594  10.410   0.971  2.4014  1.8018  0.9518
 1014MOL0     H36875  10.430  10.418   0.802 -1.6751  0.1122 -0.2415
 1014MOL0     H36876  10.128  10.771   0.584 -2.0978  1.6496  2.9549
 1014MOL0     H36877   9.958  10.838   0.444  0.5769  0.4484  0.7789
 1014MOL0     H36878   9.604  10.552   0.386  3.9735 -0.3587  1.1468
 1014MOL0     H36879   9.553  10.712   0.316  2.9055  1.1110 -1.7936
 1014MOL0     H36880   9.646  10.710   0.595  1.2405  0.7644 -0.9788
 1014MOL0     H36881   9.474  10.670   0.548  0.7586 -1.8741  0.5215
 1014MOL0     H36882   9.437  10.901   0.480  1.5063  0.9985 -2.3339
 1014MOL0     H36883   9.603  10.935   0.457 -0.6238  2.3665  1.1395
 1014MOL0     H36884   9.646  10.904   0.715 -1.9132  1.3413  3.3570
 1014MOL0     H36885   9.586  11.042   0.648  0.4226  0.6110  2.7956
 1014MOL0     H36886   9.236  10.951   0.834  0.2612  1.9003 -0.9318
 1014MOL0     H36887   9.753  10.483   0.498 -1.0272  0.4440  2.9715
 1014MOL0     H36888   9.936  10.352   0.774 -1.6906 -0.2060  1.6103
 1014MOL0     H36889   9.816  10.315   0.640  0.8944 -1.1874 -3.1355
 1014MOL0     H36890   9.987  10.276   0.627  0.1506  0.9312 -0.9625
 1015MOL0     O36891  10.539   1.168   0.247 -0.1671  0.1009  0.1423
 1015MOL0     C36892  10.462   1.174   0.344 -0.3852 -0.1087  0.4387
 1015MOL0     O36893  10.332   1.183   0.335 -0.6156  0.3508 -0.2602
 1015MOL0     C36894  10.263   1.134   0.222 -0.8866 -0.9508 -0.2925
 1015MOL0     C36895  10.276   1.198   0.099 -0.1843 -0.2242 -0.4647
 1015MOL0     C36896  10.193   1.152  -0.009  0.1320  0.3565  0.7303
 1015MOL0     C36897  10.112   1.041   0.003  0.5488 -0.3466 -0.0725
 1015MOL0     O36898  10.035   0.968  -0.089 -0.0499  0.1383 -0.1900
 1015MOL0     C36899  10.055   1.010  -0.228 -0.3316 -0.4396  0.0025
 1015MOL0     C36900   9.970   0.894  -0.297  0.4656  0.3256  1.1374
 1015MOL0     C36901   9.825   0.883  -0.257  1.4517  0.2921  0.5041
 1015MOL0     C36902   9.746   0.773  -0.338 -0.4942  0.7721 -0.3983
 1015MOL0     C36903   9.630   0.720  -0.254 -0.2783  0.7276 -0.5123
 1015MOL0     C36904   9.552   0.826  -0.181  0.1232  0.5205 -0.6905
 1015MOL0     C36905   9.413   0.784  -0.131  0.1867 -0.4555 -0.6678
 1015MOL0     C36906   9.336   0.919  -0.087  0.0310  0.0674 -0.0995
 1015MOL0     N36907   9.312   1.013  -0.194  0.3897 -0.7192 -0.1166
 1015MOL0     C36908   9.289   0.992  -0.326  0.6270 -0.0873  0.3079
 1015MOL0     C36909   9.317   1.107  -0.388 -0.1251  0.0398 -1.1190
 1015MOL0     C36910   9.305   1.125  -0.530 -0.6298  1.0392  0.4026
 1015MOL0     C36911   9.170   1.178  -0.561  0.3166  0.3466  0.8572
 1015MOL0     C36912   9.147   1.235  -0.696  0.1177  0.0445  0.4173
 1015MOL0     C36913   9.004   1.292  -0.706 -0.0115 -0.2750  0.1997
 1015MOL0     O36914   8.957   1.308  -0.837  1.1079  0.1399 -0.2262
 1015MOL0     C36915   8.846   1.382  -0.866  0.7731 -0.6234 -0.0839
 1015MOL0     C36916   8.816   1.389  -1.001 -0.7082 -0.7243 -0.1149
 1015MOL0     C36917   8.699   1.450  -1.049  0.8433 -0.9800  0.7520
 1015MOL0     C36918   8.611   1.506  -0.953 -0.9876 -0.1022  0.4336
 1015MOL0     C36919   8.483   1.587  -0.993 -1.5952  0.2459 -0.6412
 1015MOL0     O36920   8.462   1.604  -1.123  1.0051  0.4950  0.7227
 1015MOL0     C36921   8.363   1.685  -1.166  0.6573 -1.0632 -0.5006
 1015MOL0     C36922   8.262   1.634  -1.254 -0.0699 -0.5578  0.2838
 1015MOL0     C36923   8.163   1.722  -1.295 -0.3284  0.2725  0.7099
 1015MOL0     C36924   8.176   1.859  -1.267 -0.9133 -1.1382  0.4280
 1015MOL0     O36925   8.086   1.956  -1.304  0.4515  0.3752 -0.9019
 1015MOL0     C36926   7.942   1.920  -1.269  0.2861 -1.1695  0.0481
 1015MOL0     C36927   7.844   1.989  -1.359 -0.2143 -0.2371 -0.5307
 1015MOL0     C36928   7.839   1.910  -1.491  0.0445 -1.0355 -1.2164
 1015MOL0     C36929   7.730   1.964  -1.580  0.4550 -0.5583  0.2090
 1015MOL0     C36930   7.752   1.949  -1.736  0.3747 -1.2726  0.5034
 1015MOL0     C36931   7.728   1.805  -1.784  0.2690 -0.5301 -0.5794
 1015MOL0     C36932   7.689   1.800  -1.934 -1.0399 -0.0120 -0.3818
 1015MOL0     C36933   7.706   1.649  -1.980  0.9362 -0.6134  0.1279
 1015MOL0    Cl36934   7.892   1.608  -1.978 -0.2803 -0.3545 -0.3362
 1015MOL0     C36935   8.292   1.909  -1.200 -0.0964  0.0743  0.3369
 1015MOL0     C36936   8.377   1.820  -1.137 -0.4444 -0.0636 -0.9887
 1015MOL0     O36937   8.420   1.633  -0.904 -0.9347 -0.1613 -0.0004
 1015MOL0     C36938   8.648   1.500  -0.818 -0.0310  0.0671  0.1163
 1015MOL0     C36939   8.766   1.437  -0.768  0.1101  0.1095 -0.4914
 1015MOL0     N36940   9.339   1.193  -0.291  0.3073 -0.4050 -0.4408
 1015MOL0     N36941   9.339   1.143  -0.180 -0.1874  0.4812  0.1260
 1015MOL0     C36942  10.099   0.980   0.127 -0.9435  0.4470  0.1946
 1015MOL0     C36943  10.188   1.019   0.233 -0.2969 -0.6900 -0.4217
 1015MOL0     C36944  10.534   1.177   0.477 -0.2248 -0.5750  0.5233
 1015MOL0     C36945  10.674   1.219   0.479 -0.0475  0.3069  0.3059
 1015MOL0     C36946  10.751   1.204   0.591  0.1116  0.6055 -0.2287
 1015MOL0     C36947  10.693   1.158   0.708  0.0469  0.0136 -0.1696
 1015MOL0     O36948  10.774   1.137   0.819  0.5282 -0.8113 -0.2988
 1015MOL0     C36949  10.817   1.264   0.881 -1.1957  0.7213  0.3442
 1015MOL0     C36950  10.804   1.246   1.033  0.8131 -0.4529 -0.4266
 1015MOL0     C36951  10.672   1.288   1.092 -0.7446  0.1609 -0.0874
 1015MOL0     C36952  10.644   1.248   1.233 -0.4109 -1.0572 -0.7664
 1015MOL0     C36953  10.563   1.340   1.314 -0.2853  0.1040  0.2369
 1015MOL0     C36954  10.490   1.411   1.379  0.1380  0.5984 -1.4502
 1015MOL0     C36955  10.560   1.131   0.715 -0.7372  0.2561  0.5775
 1015MOL0     C36956  10.480   1.140   0.602  0.5000  0.5272 -0.2802
 1015MOL0     C36957  10.327   1.114   0.631 -0.7923  0.0500 -0.6469
 1015MOL0     H36958  10.345   1.279   0.079 -0.3265 -0.1285 -0.5774
 1015MOL0     H36959  10.205   1.214  -0.097  1.6139  3.1044  2.7344
 1015MOL0     H36960  10.013   1.110  -0.243 -0.3356 -0.4460 -0.0269
 1015MOL0     H36961  10.162   0.997  -0.249 -0.5449 -1.0471 -0.7731
 1015MOL0     H36962  10.009   0.794  -0.274  0.0108 -0.7839 -2.3156
 1015MOL0     H36963   9.983   0.898  -0.406 -0.5956 -1.4814  0.8949
 1015MOL0     H36964   9.765   0.975  -0.260 -2.2773 -1.8618  2.0920
 1015MOL0     H36965   9.826   0.853  -0.152  2.9516  0.9511  0.6945
 1015MOL0     H36966   9.705   0.816  -0.429  0.5441  1.7541 -0.4282
 1015MOL0     H36967   9.799   0.682  -0.369 -2.8031 -0.4298 -1.0284
 1015MOL0     H36968   9.566   0.656  -0.315  1.0784 -3.4827  2.0839
 1015MOL0     H36969   9.657   0.637  -0.188 -0.7884 -0.5918 -1.9153
 1015MOL0     H36970   9.624   0.849  -0.102  0.1551 -1.8968  0.0657
 1015MOL0     H36971   9.534   0.915  -0.242 -0.7815  2.4563  2.2154
 1015MOL0     H36972   9.414   0.709  -0.051 -1.4164 -2.5138 -2.4605
 1015MOL0     H36973   9.353   0.730  -0.205 -2.5457 -0.1570  1.1931
 1015MOL0     H36974   9.235   0.892  -0.052 -0.0127 -3.5221 -2.3964
 1015MOL0     H36975   9.395   0.958  -0.004 -1.8550 -1.7294  2.2343
 1015MOL0     H36976   9.249   0.908  -0.381 -2.4597  1.6264 -0.3110
 1015MOL0     H36977   9.374   1.198  -0.573 -3.0197  3.8378  0.9829
 1015MOL0     H36978   9.318   1.036  -0.593  2.9443 -1.0631  3.6484
 1015MOL0     H36979   9.107   1.090  -0.543  0.1553 -0.3093 -2.3406
 1015MOL0     H36980   9.149   1.257  -0.489 -1.2274 -0.9079  1.8467
 1015MOL0     H36981   9.153   1.146  -0.759 -0.9072 -1.0781  1.8601
 1015MOL0     H36982   9.218   1.315  -0.723 -0.2831  0.3096  0.1443
 1015MOL0     H36983   8.999   1.388  -0.654 -1.5448 -0.0576 -0.3072
 1015MOL0     H36984   8.941   1.216  -0.659  2.2922 -0.9223  2.4482
 1015MOL0     H36985   8.894   1.346  -1.064 -0.2964  0.2787 -0.3073
 1015MOL0     H36986   8.672   1.439  -1.153 -1.3391  0.5810  1.0817
 1015MOL0     H36987   8.245   1.529  -1.274  0.9699 -0.3437 -1.9116
 1015MOL0     H36988   8.096   1.685  -1.372 -0.0068 -0.9679  1.0061
 1015MOL0     H36989   7.930   1.812  -1.270 -0.1443 -1.1437  1.0000
 1015MOL0     H36990   7.921   1.957  -1.168 -4.1098 -3.2238  0.0748
 1015MOL0     H36991   7.740   1.993  -1.323  0.6760  1.3282  2.1205
 1015MOL0     H36992   7.880   2.091  -1.375  0.2980 -0.5771 -1.6866
 1015MOL0     H36993   7.929   1.923  -1.551  1.7217 -0.8865  1.1971
 1015MOL0     H36994   7.831   1.802  -1.474 -0.4563 -1.1168 -1.9445
 1015MOL0     H36995   7.710   2.067  -1.551 -0.4905 -0.1836 -1.6355
 1015MOL0     H36996   7.641   1.902  -1.564 -1.0192  1.4167 -0.0484
 1015MOL0     H36997   7.854   1.981  -1.760 -0.2792  0.2402 -0.4030
 1015MOL0     H36998   7.689   2.019  -1.792  1.4985  0.1537  0.9603
 1015MOL0     H36999   7.810   1.743  -1.748 -0.7372 -1.1660  0.7055
 1015MOL0     H37000   7.637   1.763  -1.740  0.7341 -1.8417 -0.8187
 1015MOL0     H37001   7.749   1.864  -2.000  0.2242 -1.6952 -0.9224
 1015MOL0     H37002   7.585   1.832  -1.941 -0.5708  1.8711  0.4014
 1015MOL0     H37003   7.647   1.586  -1.913 -0.3553  0.2474 -0.1693
 1015MOL0     H37004   7.674   1.619  -2.081 -2.7398 -0.9985  1.2624
 1015MOL0     H37005   8.298   2.017  -1.189 -1.0006  0.1973 -0.2481
 1015MOL0     H37006   8.459   1.851  -1.073 -0.9342  2.4727 -1.4607
 1015MOL0     H37007   8.579   1.540  -0.744 -2.2237 -0.6086 -1.4494
 1015MOL0     H37008   8.790   1.435  -0.662 -0.8384 -1.0318 -0.2798
 1015MOL0     H37009  10.029   0.900   0.151  0.7443 -0.4370  2.4526
 1015MOL0     H37010  10.184   0.974   0.332  4.1972  0.2943  0.3978
 1015MOL0     H37011  10.723   1.257   0.390  0.7978  1.5129  1.2557
 1015MOL0     H37012  10.857   1.227   0.591  0.5356 -1.0293 -2.6896
 1015MOL0     H37013  10.760   1.354   0.860 -0.2336  1.1423 -0.5595
 1015MOL0     H37014  10.918   1.289   0.847 -2.1345  4.2469 -0.2065
 1015MOL0     H37015  10.885   1.305   1.076 -1.3697  3.3199 -1.0253
 1015MOL0     H37016  10.821   1.141   1.058 -3.7642 -0.6414  3.6684
 1015MOL0     H37017  10.593   1.247   1.028  2.7790 -1.4160 -3.8587
 1015MOL0     H37018  10.667   1.397   1.089  0.3173  0.2070 -0.5889
 1015MOL0     H37019  10.601   1.148   1.238 -0.8938 -0.7961  0.8498
 1015MOL0     H37020  10.740   1.242   1.285 -1.2335  1.4428  1.2665
 1015MOL0     H37021  10.433   1.485   1.432  1.0482  1.2281 -1.3108
 1015MOL0     H37022  10.525   1.095   0.811  2.5586 -0.3716  1.6767
 1015MOL0     H37023  10.293   1.026   0.576 -0.4612  0.1426 -1.0096
 1015MOL0     H37024  10.307   1.104   0.738  1.9518 -0.6491 -0.1289
 1015MOL0     H37025  10.267   1.196   0.589 -2.4093 -2.3165 -3.4129
 1016MOL0     O37026   0.139   3.442   9.072  0.1927 -0.2831 -0.3691
 1016MOL0     C37027   0.064   3.511   8.997  0.4283  0.1933  0.8434
 1016MOL0     O37028   0.067   3.491   8.861 -0.3297 -0.1133 -0.0035
 1016MOL0     C37029   0.148   3.398   8.810  0.4725  0.4412  0.0924
 1016MOL0     C37030   0.099   3.270   8.792 -0.5934  0.2914 -0.5907
 1016MOL0     C37031   0.191   3.172   8.737 -0.4117 -0.5531  0.7360
 1016MOL0     C37032   0.330   3.191   8.742 -0.3870  0.6072  0.7122
 1016MOL0     O37033   0.410   3.078   8.716  0.7612  0.0647  0.4052
 1016MOL0     C37034   0.395   2.962   8.814  0.2181 -0.3669 -0.6162
 1016MOL0     C37035   0.527   2.893   8.832  0.6630 -0.0789 -0.0360
 1016MOL0     C37036   0.633   2.962   8.921  0.0122  0.0035  0.0317
 1016MOL0     C37037   0.636   2.904   9.065  0.0351 -0.4041 -0.1462
 1016MOL0     C37038   0.663   3.005   9.170 -0.5427 -0.5309 -0.5245
 1016MOL0     C37039   0.670   2.945   9.311 -0.0670  0.3060 -0.3513
 1016MOL0     C37040   0.717   3.056   9.413 -0.0635  0.3018  0.8032
 1016MOL0     C37041   0.692   3.026   9.559 -0.0382  0.1152  0.7487
 1016MOL0     N37042   0.553   3.009   9.577  0.1590  0.5361 -0.7397
 1016MOL0     C37043   0.449   3.095   9.597 -0.2267 -0.3937 -0.2211
 1016MOL0     C37044   0.348   3.025   9.649  1.0664  0.0679 -0.2273
 1016MOL0     C37045   0.219   3.071   9.705  0.3462 -1.0601  0.6784
 1016MOL0     C37046   0.115   2.966   9.746  0.9156  0.4852 -0.8525
 1016MOL0     C37047   0.026   2.919   9.633  0.4734 -0.1909  0.4628
 1016MOL0     C37048  -0.078   3.024   9.595  0.5268  0.0311 -0.9366
 1016MOL0     O37049  -0.162   3.055   9.711  0.2462  0.1635  0.3250
 1016MOL0     C37050  -0.204   3.181   9.717  0.0682 -0.1772 -0.1868
 1016MOL0     C37051  -0.265   3.248   9.604  0.6430  0.2919 -0.0672
 1016MOL0     C37052  -0.319   3.370   9.617  0.3067  0.5996 -0.0472
 1016MOL0     C37053  -0.313   3.441   9.738  0.2033 -0.0871  0.0621
 1016MOL0     C37054  -0.367   3.569   9.736 -0.5527 -0.1558  0.2272
 1016MOL0     O37055  -0.300   3.672   9.690 -0.1060  0.1537  1.1009
 1016MOL0     C37056  -0.325   3.794   9.742 -0.3793 -1.3477 -0.8223
 1016MOL0     C37057  -0.415   3.886   9.689 -0.2049 -0.1088  1.5358
 1016MOL0     C37058  -0.452   4.006   9.759  0.1295  0.4489 -0.1713
 1016MOL0     C37059  -0.389   4.033   9.885 -0.1111  0.3537 -0.6833
 1016MOL0     O37060  -0.418   4.147   9.950 -0.1062  0.0284  0.0500
 1016MOL0     C37061  -0.322   4.197  10.038  0.5075 -0.1479 -0.4319
 1016MOL0     C37062  -0.356   4.339  10.081 -0.3127 -0.1827 -0.3696
 1016MOL0     C37063  -0.464   4.363  10.194 -0.4355 -0.7196  0.7626
 1016MOL0     C37064  -0.423   4.302  10.334 -0.2362  1.6722  0.1131
 1016MOL0     C37065  -0.544   4.307  10.425 -0.5331 -1.1629 -0.2972
 1016MOL0     C37066  -0.524   4.242  10.555 -0.0505  0.0234 -0.1094
 1016MOL0     C37067  -0.605   4.108  10.564 -0.8840 -0.2311 -0.7266
 1016MOL0     C37068  -0.598   4.047  10.698 -0.6123  0.5015 -0.6165
 1016MOL0    Cl37069  -0.655   3.886  10.673  0.2506 -0.0850  0.3878
 1016MOL0     C37070  -0.289   3.940   9.935  1.2665  0.4236  0.7435
 1016MOL0     C37071  -0.260   3.828   9.864  0.1922  0.2984  0.7921
 1016MOL0     O37072  -0.465   3.580   9.812 -0.0239  0.1585  0.5140
 1016MOL0     C37073  -0.267   3.379   9.853 -0.3872  0.3265 -0.0599
 1016MOL0     C37074  -0.211   3.249   9.843 -0.5097 -0.2775  0.5395
 1016MOL0     N37075   0.380   2.896   9.619  0.7670  0.2151 -0.8628
 1016MOL0     N37076   0.504   2.887   9.601  0.2727 -0.0657  0.2206
 1016MOL0     C37077   0.381   3.320   8.769  0.4525  0.3443  0.1462
 1016MOL0     C37078   0.287   3.422   8.802  0.8466  0.5839 -0.5793
 1016MOL0     C37079  -0.039   3.610   9.049  0.3709 -0.3375  0.4287
 1016MOL0     C37080  -0.134   3.661   8.957  0.2580  0.3510 -0.4323
 1016MOL0     C37081  -0.233   3.745   8.999 -0.0060 -0.5752  0.2777
 1016MOL0     C37082  -0.243   3.787   9.130  0.8951 -0.0028  1.1540
 1016MOL0     O37083  -0.350   3.856   9.175  0.2392 -0.7147  0.5191
 1016MOL0     C37084  -0.389   3.973   9.103  0.1596  0.2987  0.5667
 1016MOL0     C37085  -0.397   4.088   9.197  0.8201  0.0708  0.1381
 1016MOL0     C37086  -0.508   4.064   9.305  0.8052  0.7415  0.4951
 1016MOL0     C37087  -0.651   4.060   9.249  0.9871  1.0537 -0.6755
 1016MOL0     C37088  -0.750   4.040   9.347  0.6617 -0.0359 -0.8208
 1016MOL0     C37089  -0.839   4.018   9.434 -0.0112 -0.6951 -0.1481
 1016MOL0     C37090  -0.146   3.741   9.215  0.0574 -0.5368  0.5451
 1016MOL0     C37091  -0.046   3.652   9.181  0.0383  0.0349 -1.3992
 1016MOL0     C37092   0.061   3.618   9.281 -0.8422 -0.6546  0.2505
 1016MOL0     H37093  -0.004   3.249   8.818  0.3146 -1.4073  1.9933
 1016MOL0     H37094   0.156   3.072   8.716 -1.0848  0.0984 -1.5445
 1016MOL0     H37095   0.373   3.006   8.912  1.1299 -0.7024 -0.2528
 1016MOL0     H37096   0.322   2.896   8.767 -1.9015  1.2621  0.1743
 1016MOL0     H37097   0.567   2.880   8.731 -0.0841 -1.4965 -0.1735
 1016MOL0     H37098   0.507   2.795   8.876  0.2852 -0.6345 -1.4106
 1016MOL0     H37099   0.616   3.070   8.923 -0.0517  0.0241  3.4444
 1016MOL0     H37100   0.729   2.944   8.872  1.8015 -0.8542  3.5493
 1016MOL0     H37101   0.534   2.867   9.080 -0.3794  0.1473 -1.4925
 1016MOL0     H37102   0.707   2.821   9.071  2.2964  1.2464 -2.2033
 1016MOL0     H37103   0.762   3.044   9.144  0.3816 -1.0307  1.9133
 1016MOL0     H37104   0.591   3.087   9.169  1.1067  1.0520  0.9037
 1016MOL0     H37105   0.575   2.896   9.335  0.2480  0.6762  1.8006
 1016MOL0     H37106   0.742   2.863   9.309  0.0699  0.4095  0.3433
 1016MOL0     H37107   0.663   3.145   9.380  2.2871  0.7894 -2.2263
 1016MOL0     H37108   0.824   3.072   9.398  0.4386  1.5103  4.7439
 1016MOL0     H37109   0.740   2.932   9.590 -1.3849 -2.3031 -3.6643
 1016MOL0     H37110   0.719   3.107   9.627  1.5500 -0.7343  1.1884
 1016MOL0     H37111   0.449   3.204   9.595  0.0364 -0.3474  1.2776
 1016MOL0     H37112   0.235   3.134   9.794  3.1783 -1.6547  0.6795
 1016MOL0     H37113   0.177   3.122   9.618  2.7920  0.5196  0.3244
 1016MOL0     H37114   0.161   2.876   9.788  0.3768  1.3241  1.7142
 1016MOL0     H37115   0.055   3.005   9.829 -0.3975 -1.4481 -0.8005
 1016MOL0     H37116  -0.030   2.825   9.647  0.2682 -0.0645  0.5022
 1016MOL0     H37117   0.084   2.903   9.542 -0.1200 -1.4280  0.2666
 1016MOL0     H37118  -0.143   2.988   9.515 -0.8755 -0.6701  0.4701
 1016MOL0     H37119  -0.025   3.112   9.558  1.5809 -0.5896 -0.9458
 1016MOL0     H37120  -0.274   3.187   9.515  1.3927 -2.6735  1.7282
 1016MOL0     H37121  -0.355   3.410   9.523 -1.1480 -2.4780 -0.9055
 1016MOL0     H37122  -0.444   3.877   9.585  0.9982 -3.6409  1.3786
 1016MOL0     H37123  -0.508   4.084   9.708  1.8879  1.6696 -0.3113
 1016MOL0     H37124  -0.327   4.141  10.132  0.4976 -0.2031 -0.4654
 1016MOL0     H37125  -0.223   4.175   9.995 -0.4874  0.6486 -3.3779
 1016MOL0     H37126  -0.256   4.372  10.113  0.3932 -2.3099 -0.2123
 1016MOL0     H37127  -0.391   4.400   9.997 -1.9065 -2.4278 -1.4274
 1016MOL0     H37128  -0.475   4.470  10.215  0.8013  0.1867 -2.5815
 1016MOL0     H37129  -0.564   4.328  10.171 -0.7748  0.3527  0.5348
 1016MOL0     H37130  -0.340   4.365  10.367  0.9983  0.4183 -0.5297
 1016MOL0     H37131  -0.402   4.197  10.314 -2.5688  1.2706 -0.5464
 1016MOL0     H37132  -0.638   4.277  10.378 -1.6995  0.9738  0.4962
 1016MOL0     H37133  -0.566   4.414  10.439  1.2317 -1.2240  4.7348
 1016MOL0     H37134  -0.419   4.214  10.570 -0.5740 -2.5862 -0.8050
 1016MOL0     H37135  -0.546   4.316  10.632  1.2565  0.0080  0.3148
 1016MOL0     H37136  -0.583   4.034  10.487 -2.6424 -1.1647 -0.3783
 1016MOL0     H37137  -0.710   4.138  10.554 -0.5852  1.1423 -0.0843
 1016MOL0     H37138  -0.493   4.044  10.728  0.1141  1.9936 -2.7341
 1016MOL0     H37139  -0.658   4.103  10.770  2.0313  3.2106 -0.3266
 1016MOL0     H37140  -0.252   3.942  10.037  1.3414 -2.3919  0.8735
 1016MOL0     H37141  -0.182   3.764   9.903  2.0747  1.7069 -0.4431
 1016MOL0     H37142  -0.268   3.431   9.948 -2.7504  0.6864 -0.2337
 1016MOL0     H37143  -0.180   3.197   9.933  0.5638  1.1279  1.0240
 1016MOL0     H37144   0.488   3.339   8.770  0.2527  1.5613  1.2238
 1016MOL0     H37145   0.339   3.516   8.820  2.0428  0.1227 -1.5180
 1016MOL0     H37146  -0.126   3.634   8.852  1.2362  1.1415 -0.5790
 1016MOL0     H37147  -0.305   3.771   8.922  1.2606 -0.9010 -1.0708
 1016MOL0     H37148  -0.480   3.955   9.046  1.0791 -2.6173 -0.1728
 1016MOL0     H37149  -0.311   3.998   9.031  0.0069 -1.4143 -0.2454
 1016MOL0     H37150  -0.417   4.182   9.145 -1.0596  0.4303  1.3972
 1016MOL0     H37151  -0.307   4.102   9.258 -0.1656  1.4277  1.3396
 1016MOL0     H37152  -0.495   4.154   9.365 -0.3069  0.3724  1.3184
 1016MOL0     H37153  -0.498   3.977   9.371 -1.9001 -0.6215 -0.7393
 1016MOL0     H37154  -0.674   4.150   9.191 -0.1662  0.9380 -0.4074
 1016MOL0     H37155  -0.663   3.970   9.187 -0.7627 -0.1049  1.2340
 1016MOL0     H37156  -0.903   3.989   9.515  2.1537 -3.2468  0.8042
 1016MOL0     H37157  -0.144   3.772   9.319  0.1158 -0.3219  0.4804
 1016MOL0     H37158   0.072   3.511   9.303 -1.6326 -1.1118 -1.4618
 1016MOL0     H37159   0.156   3.660   9.246  0.4248  0.0907  4.0417
 1016MOL0     H37160   0.046   3.680   9.370 -3.4256 -0.9789  0.1192
 1017MOL0     O37161   9.334   0.392   2.491  0.4222  0.1183  0.0231
 1017MOL0     C37162   9.398   0.431   2.401 -0.2846 -0.7832  0.0021
 1017MOL0     O37163   9.445   0.366   2.290  0.2178 -0.1392  0.0308
 1017MOL0     C37164   9.512   0.246   2.305  0.4460  0.2855  0.8458
 1017MOL0     C37165   9.589   0.216   2.422  0.2939 -0.2193 -0.2755
 1017MOL0     C37166   9.646   0.087   2.435  0.2165 -0.2810  0.9209
 1017MOL0     C37167   9.639  -0.003   2.324  0.0686 -0.1145 -0.1303
 1017MOL0     O37168   9.679  -0.131   2.325 -0.2384 -0.1908 -0.3765
 1017MOL0     C37169   9.696  -0.191   2.454  0.5006 -0.0339 -0.6873
 1017MOL0     C37170   9.674  -0.346   2.449 -0.2532  0.7313 -0.7165
 1017MOL0     C37171   9.559  -0.389   2.356  1.1546  0.2797  0.2585
 1017MOL0     C37172   9.428  -0.388   2.440  0.3401  0.0258 -0.5168
 1017MOL0     C37173   9.298  -0.398   2.357 -0.7265 -0.4998  0.4563
 1017MOL0     C37174   9.271  -0.284   2.248  1.1856  0.3459  0.0907
 1017MOL0     C37175   9.124  -0.262   2.242 -0.2707 -0.6398  0.9418
 1017MOL0     C37176   9.103  -0.154   2.142  0.1446 -0.1671  0.0719
 1017MOL0     N37177   8.995  -0.180   2.052 -0.2023  0.2135 -0.0725
 1017MOL0     C37178   8.965  -0.301   1.991  0.1321 -0.2575 -1.3412
 1017MOL0     C37179   8.845  -0.276   1.920 -0.1541  0.2406  0.2115
 1017MOL0     C37180   8.768  -0.380   1.842 -0.2840  0.8356  0.9798
 1017MOL0     C37181   8.638  -0.428   1.911 -1.2938 -0.5032 -0.0379
 1017MOL0     C37182   8.578  -0.544   1.840  0.3934  0.2298  0.3587
 1017MOL0     C37183   8.423  -0.532   1.861  0.0219  0.5779 -0.6096
 1017MOL0     O37184   8.347  -0.444   1.772 -0.4379  1.0038  0.1649
 1017MOL0     C37185   8.247  -0.374   1.821 -0.1438 -0.6385  0.5224
 1017MOL0     C37186   8.215  -0.251   1.759 -0.0969 -0.4041  0.6798
 1017MOL0     C37187   8.100  -0.174   1.789 -0.9683  0.9361 -0.1812
 1017MOL0     C37188   8.021  -0.219   1.902 -0.0079 -0.3562  0.0802
 1017MOL0     C37189   7.895  -0.146   1.940  0.5824 -0.2651  0.2009
 1017MOL0     O37190   7.845  -0.054   1.851 -0.2865  1.0685  0.7932
 1017MOL0     C37191   7.735   0.005   1.892  0.5531  1.2272  0.0974
 1017MOL0     C37192   7.720   0.134   1.949 -0.1213  0.1897 -0.4846
 1017MOL0     C37193   7.599   0.179   2.001 -0.2524  0.0630  0.1425
 1017MOL0     C37194   7.479   0.111   1.980  1.6043  0.2655 -0.2396
 1017MOL0     O37195   7.361   0.158   2.023 -0.2595 -0.5212  0.6673
 1017MOL0     C37196   7.237   0.121   1.956  0.9513  0.2262 -0.5077
 1017MOL0     C37197   7.232   0.182   1.817  0.4384  0.1556  0.1579
 1017MOL0     C37198   7.130   0.113   1.727 -0.4963 -0.3467 -0.0774
 1017MOL0     C37199   6.977   0.132   1.754 -0.1248 -1.0136 -0.2784
 1017MOL0     C37200   6.895   0.003   1.718  0.4387 -0.0126 -0.2171
 1017MOL0     C37201   6.757   0.010   1.778 -0.0923  0.7709 -0.3255
 1017MOL0     C37202   6.669   0.124   1.727 -0.1528  0.9448  0.3949
 1017MOL0     C37203   6.553   0.061   1.635  0.5270 -0.6220 -0.1204
 1017MOL0    Cl37204   6.402   0.003   1.736  0.0424 -0.0244  0.0093
 1017MOL0     C37205   7.491  -0.012   1.905 -1.0163  0.4890  0.4714
 1017MOL0     C37206   7.617  -0.070   1.872 -0.8995  0.8723  0.4512
 1017MOL0     O37207   7.860  -0.158   2.055  0.5418 -0.3086  0.5394
 1017MOL0     C37208   8.067  -0.328   1.978  0.3335  0.3131  0.5927
 1017MOL0     C37209   8.174  -0.407   1.936  0.6487  0.3858  0.0697
 1017MOL0     N37210   8.811  -0.144   1.942  0.4037 -0.3743 -0.4143
 1017MOL0     N37211   8.896  -0.092   2.021  1.2023 -0.3100  0.1312
 1017MOL0     C37212   9.569   0.031   2.207 -0.5285 -0.2082 -0.8699
 1017MOL0     C37213   9.495   0.151   2.198 -0.1969 -0.7545  0.3244
 1017MOL0     C37214   9.408   0.573   2.401 -0.4275 -1.1958  0.5710
 1017MOL0     C37215   9.339   0.648   2.297  0.0341 -0.3664  0.3878
 1017MOL0     C37216   9.338   0.783   2.298  0.6326 -0.0299  0.0684
 1017MOL0     C37217   9.424   0.851   2.389 -0.3110  0.4165 -0.3324
 1017MOL0     O37218   9.420   0.985   2.387  0.8911  0.0633 -0.3096
 1017MOL0     C37219   9.490   1.050   2.277  0.6455  0.6389 -0.2259
 1017MOL0     C37220   9.605   1.142   2.337 -0.4869 -0.2472 -0.1977
 1017MOL0     C37221   9.715   1.081   2.416 -1.1263  0.5271  0.6152
 1017MOL0     C37222   9.808   1.184   2.480  0.0408  0.3864 -1.2719
 1017MOL0     C37223   9.907   1.242   2.384  0.2160  0.8676  0.1338
 1017MOL0     C37224   9.994   1.295   2.327 -0.1117  0.0890  1.3252
 1017MOL0     C37225   9.496   0.784   2.483 -0.8540  0.5113 -0.2330
 1017MOL0     C37226   9.494   0.646   2.502 -0.4193  0.3250  0.5028
 1017MOL0     C37227   9.567   0.580   2.624  0.0170 -0.1960 -0.7020
 1017MOL0     H37228   9.581   0.294   2.497  0.3912  0.3180 -0.8154
 1017MOL0     H37229   9.703   0.066   2.525  1.4736 -0.4682  0.1166
 1017MOL0     H37230   9.788  -0.175   2.511  0.8785 -2.8892 -0.3492
 1017MOL0     H37231   9.634  -0.146   2.533  0.6994 -3.1080  1.4360
 1017MOL0     H37232   9.652  -0.388   2.547  0.4371 -3.1102 -2.0623
 1017MOL0     H37233   9.763  -0.395   2.409 -0.0459 -0.8351  1.4635
 1017MOL0     H37234   9.567  -0.495   2.333  0.0381 -0.6516  3.5551
 1017MOL0     H37235   9.535  -0.325   2.270  4.2055  1.4217  0.1185
 1017MOL0     H37236   9.423  -0.462   2.521 -1.4275  2.7962  2.1481
 1017MOL0     H37237   9.427  -0.285   2.476  2.3617  1.0451 -3.0703
 1017MOL0     H37238   9.291  -0.490   2.299  2.6902 -2.3046  2.5715
 1017MOL0     H37239   9.216  -0.399   2.429 -0.9859 -1.8954  0.1609
 1017MOL0     H37240   9.307  -0.184   2.276  2.0339 -0.5336  2.3957
 1017MOL0     H37241   9.318  -0.316   2.155  0.5885 -2.8966  0.7949
 1017MOL0     H37242   9.084  -0.221   2.336  3.0739  2.0682  1.3863
 1017MOL0     H37243   9.061  -0.347   2.214 -0.8676  0.4681 -1.2547
 1017MOL0     H37244   9.084  -0.059   2.193 -3.4876  0.7627 -2.6382
 1017MOL0     H37245   9.187  -0.135   2.075 -0.9359 -0.2983 -1.3576
 1017MOL0     H37246   9.012  -0.398   1.995 -2.6816 -1.7247 -1.6888
 1017MOL0     H37247   8.734  -0.329   1.752 -0.5679  0.4450  0.8614
 1017MOL0     H37248   8.835  -0.465   1.826  0.3098  1.6271 -0.9306
 1017MOL0     H37249   8.645  -0.460   2.015 -4.1909 -0.8620  0.1108
 1017MOL0     H37250   8.571  -0.342   1.906  0.6388  1.0174 -2.2645
 1017MOL0     H37251   8.608  -0.645   1.869 -1.7907 -0.9982 -1.2591
 1017MOL0     H37252   8.611  -0.529   1.737  2.2315 -3.4791  0.2389
 1017MOL0     H37253   8.416  -0.510   1.968 -2.0375 -5.2793  0.8372
 1017MOL0     H37254   8.384  -0.633   1.841 -1.4265  0.4606  2.3435
 1017MOL0     H37255   8.273  -0.235   1.669 -0.0724 -1.6081  0.4627
 1017MOL0     H37256   8.052  -0.099   1.728 -2.4622  0.6379  0.5604
 1017MOL0     H37257   7.805   0.203   1.951 -1.0171  1.3091  0.5215
 1017MOL0     H37258   7.586   0.277   2.047 -4.4982 -0.2967  0.0625
 1017MOL0     H37259   7.219   0.013   1.958 -1.1870  0.4869 -1.8210
 1017MOL0     H37260   7.161   0.166   2.019 -1.8411  0.0663 -3.5063
 1017MOL0     H37261   7.215   0.290   1.827 -1.6623 -0.2589  1.7369
 1017MOL0     H37262   7.327   0.171   1.763 -0.2183 -0.7672 -0.8411
 1017MOL0     H37263   7.148   0.135   1.621  3.9913 -0.1982  0.5477
 1017MOL0     H37264   7.149   0.006   1.743  0.0899 -0.4274 -1.2088
 1017MOL0     H37265   6.944   0.231   1.722  3.1828  1.8246  4.0019
 1017MOL0     H37266   6.972   0.138   1.863 -0.0221  3.3566 -0.3598
 1017MOL0     H37267   6.949  -0.086   1.753 -1.7367 -1.2606  0.1737
 1017MOL0     H37268   6.878  -0.006   1.610 -0.5311 -1.3720  0.0154
 1017MOL0     H37269   6.703  -0.085   1.770  2.0088 -0.4979 -0.2192
 1017MOL0     H37270   6.775   0.030   1.884 -0.6561  2.4577 -0.5242
 1017MOL0     H37271   6.724   0.200   1.671 -1.6521  2.1967  0.5453
 1017MOL0     H37272   6.634   0.189   1.808 -0.7607  2.3086 -0.8954
 1017MOL0     H37273   6.518   0.130   1.558  0.8942 -0.5077 -0.1854
 1017MOL0     H37274   6.597  -0.020   1.575  2.4425  0.4718 -0.2522
 1017MOL0     H37275   7.406  -0.078   1.892 -0.0436 -0.7914  0.4763
 1017MOL0     H37276   7.612  -0.168   1.824 -1.4625  1.0006  0.2390
 1017MOL0     H37277   8.008  -0.367   2.060  0.2036  1.5292  1.0979
 1017MOL0     H37278   8.180  -0.506   1.979 -0.3834  0.7063  1.0107
 1017MOL0     H37279   9.551  -0.048   2.134 -3.1186 -0.6530  0.1492
 1017MOL0     H37280   9.425   0.180   2.120  0.8030 -1.0416 -0.7135
 1017MOL0     H37281   9.287   0.597   2.216  0.3024  0.8932 -0.6234
 1017MOL0     H37282   9.283   0.833   2.219 -0.2485 -0.0670  0.6432
 1017MOL0     H37283   9.427   1.110   2.212  0.6966  0.3889 -0.5072
 1017MOL0     H37284   9.541   0.972   2.221  1.1348 -2.7239  4.2736
 1017MOL0     H37285   9.567   1.228   2.395  5.1488  1.4951  1.5582
 1017MOL0     H37286   9.656   1.193   2.256 -2.9617  2.1456 -0.4272
 1017MOL0     H37287   9.770   1.012   2.351 -3.8127  0.1683 -1.4342
 1017MOL0     H37288   9.660   1.033   2.497 -2.7998  1.8983  0.3505
 1017MOL0     H37289   9.746   1.248   2.544 -0.9760 -0.5624 -1.2591
 1017MOL0     H37290   9.869   1.132   2.555 -1.4773  0.1879 -0.1169
 1017MOL0     H37291  10.065   1.353   2.271  1.0866  0.0561  2.7308
 1017MOL0     H37292   9.555   0.846   2.550  1.2664 -1.8236  0.2047
 1017MOL0     H37293   9.488   0.538   2.688  0.7579 -1.6893 -0.7240
 1017MOL0     H37294   9.638   0.502   2.595 -1.0703 -0.0193 -4.2300
 1017MOL0     H37295   9.609   0.660   2.686 -4.8910  3.3872 -1.4189
 1018MOL0     O37296   6.572   1.489   3.777  0.6871 -0.1423  0.4296
 1018MOL0     C37297   6.603   1.390   3.710 -0.4228 -0.3191 -0.0319
 1018MOL0     O37298   6.547   1.356   3.591  0.7217 -1.2726  1.1531
 1018MOL0     C37299   6.433   1.433   3.549  0.9191  0.1255 -0.1998
 1018MOL0     C37300   6.438   1.524   3.443 -0.2255  0.0235 -1.3441
 1018MOL0     C37301   6.335   1.611   3.408  0.6787  0.8832  0.0944
 1018MOL0     C37302   6.224   1.612   3.495 -0.3444 -0.3613 -0.1086
 1018MOL0     O37303   6.116   1.690   3.471 -0.6388 -0.2739 -0.7945
 1018MOL0     C37304   5.986   1.635   3.500  0.2245 -0.4063 -0.4469
 1018MOL0     C37305   5.878   1.719   3.422 -0.3361 -0.5114 -0.1824
 1018MOL0     C37306   5.741   1.693   3.486 -0.7792  0.4574 -0.3853
 1018MOL0     C37307   5.635   1.749   3.404  1.0228  0.3441  0.1030
 1018MOL0     C37308   5.500   1.691   3.444  0.4917 -0.0078  1.0678
 1018MOL0     C37309   5.421   1.768   3.553 -0.4162 -0.4780 -0.5806
 1018MOL0     C37310   5.391   1.909   3.509 -0.4587 -0.1131  0.0757
 1018MOL0     C37311   5.256   1.955   3.561 -0.9373  0.9304  0.0382
 1018MOL0     N37312   5.220   2.091   3.518 -0.7884  0.4664  0.0987
 1018MOL0     C37313   5.286   2.210   3.532 -0.5843 -0.3484  0.7005
 1018MOL0     C37314   5.221   2.291   3.438 -0.0858 -0.4512 -0.7463
 1018MOL0     C37315   5.278   2.439   3.413  0.2389 -0.0063 -0.5408
 1018MOL0     C37316   5.324   2.435   3.261  0.6418  0.7538  0.1740
 1018MOL0     C37317   5.361   2.571   3.206  0.7743  0.0955 -0.0300
 1018MOL0     C37318   5.372   2.575   3.053 -0.4429  0.4551 -1.2963
 1018MOL0     O37319   5.427   2.697   3.004  0.1754  0.9573 -0.1669
 1018MOL0     C37320   5.520   2.691   2.899  0.1598 -0.0573 -0.3384
 1018MOL0     C37321   5.598   2.805   2.887 -0.6071  0.1198  0.1895
 1018MOL0     C37322   5.690   2.823   2.770  1.5632  0.4767  0.7180
 1018MOL0     C37323   5.691   2.727   2.671  0.2193  0.5170 -0.0158
 1018MOL0     C37324   5.768   2.753   2.554 -0.4392 -0.1024  1.2516
 1018MOL0     O37325   5.751   2.655   2.449  0.3357  0.7393 -0.2849
 1018MOL0     C37326   5.863   2.646   2.373 -0.3579  0.3449 -0.2728
 1018MOL0     C37327   5.863   2.698   2.245  0.3932  0.2136 -0.0692
 1018MOL0     C37328   5.978   2.689   2.164 -0.3634  0.3230  0.2957
 1018MOL0     C37329   6.092   2.617   2.202 -0.8035  0.3275 -1.2406
 1018MOL0     O37330   6.208   2.589   2.123 -0.2814 -0.3369 -0.5133
 1018MOL0     C37331   6.219   2.653   1.984  0.1383 -0.0023 -1.2834
 1018MOL0     C37332   6.134   2.588   1.875 -0.4511  0.0563  1.4721
 1018MOL0     C37333   6.128   2.665   1.740 -0.9452  0.1695 -0.6734
 1018MOL0     C37334   6.023   2.611   1.642  0.0667 -0.0359  0.0477
 1018MOL0     C37335   6.050   2.642   1.498 -0.2133  0.4936  0.0102
 1018MOL0     C37336   5.958   2.575   1.396  0.0795 -0.6239 -0.0298
 1018MOL0     C37337   5.973   2.642   1.253  0.1846  0.4174 -0.7825
 1018MOL0     C37338   5.889   2.574   1.145 -0.6551  0.3122 -0.1955
 1018MOL0    Cl37339   5.717   2.537   1.197 -0.7235  0.0498 -0.3043
 1018MOL0     C37340   6.086   2.544   2.327  0.0487 -0.3277  0.2216
 1018MOL0     C37341   5.972   2.573   2.414 -0.3031 -0.8455 -0.4066
 1018MOL0     O37342   5.837   2.854   2.542 -0.5808  0.2981 -0.6812
 1018MOL0     C37343   5.625   2.602   2.693  0.0416 -0.0728 -0.0114
 1018MOL0     C37344   5.537   2.588   2.803 -0.1484 -0.5523  0.1348
 1018MOL0     N37345   5.115   2.227   3.380 -0.0868  0.0415  0.0632
 1018MOL0     N37346   5.125   2.101   3.423  0.7632 -0.4307 -0.0876
 1018MOL0     C37347   6.222   1.520   3.604  0.9752 -1.1637 -0.3602
 1018MOL0     C37348   6.318   1.421   3.623 -0.8448  0.2479 -0.4732
 1018MOL0     C37349   6.701   1.298   3.766  0.0099 -0.1414  0.1931
 1018MOL0     C37350   6.806   1.363   3.843  0.7924  0.3102  0.4072
 1018MOL0     C37351   6.894   1.285   3.920 -0.1270  0.9801 -0.5430
 1018MOL0     C37352   6.888   1.146   3.920  0.4373  0.8195  1.0224
 1018MOL0     O37353   6.977   1.072   3.994 -0.2677 -0.3801 -1.0466
 1018MOL0     C37354   7.114   1.114   4.012  1.1776  0.8710 -0.4700
 1018MOL0     C37355   7.205   0.990   4.049 -0.0760 -0.7240  0.0548
 1018MOL0     C37356   7.357   1.012   4.039  0.4830 -0.4329  0.3534
 1018MOL0     C37357   7.414   1.137   4.097  0.5322 -0.2070  0.4338
 1018MOL0     C37358   7.390   1.119   4.235  0.4016 -0.4908 -1.0112
 1018MOL0     C37359   7.384   1.093   4.353 -0.6211  0.7229 -0.3007
 1018MOL0     C37360   6.786   1.082   3.844 -0.4856 -0.0940  1.5283
 1018MOL0     C37361   6.691   1.156   3.768  0.1678 -0.4228 -0.8826
 1018MOL0     C37362   6.587   1.082   3.686  0.6776 -1.2278 -0.3483
 1018MOL0     H37363   6.529   1.525   3.384 -0.1039  0.5932 -1.1512
 1018MOL0     H37364   6.337   1.672   3.318 -0.7965 -0.7728 -1.1276
 1018MOL0     H37365   5.975   1.529   3.475 -4.0174 -0.3780  0.5519
 1018MOL0     H37366   5.960   1.657   3.604 -0.8646  0.1969 -0.8278
 1018MOL0     H37367   5.891   1.689   3.318 -2.6409 -1.8003 -0.1534
 1018MOL0     H37368   5.895   1.826   3.433 -1.6300  0.0426 -2.8703
 1018MOL0     H37369   5.735   1.737   3.586 -4.0484  1.0464 -0.7295
 1018MOL0     H37370   5.735   1.584   3.491  0.2666  0.3775 -0.5097
 1018MOL0     H37371   5.636   1.856   3.383  2.4254  0.2218 -0.5986
 1018MOL0     H37372   5.651   1.715   3.301 -0.1844 -0.8490  0.2689
 1018MOL0     H37373   5.443   1.679   3.351 -2.2468 -4.1100  2.9536
 1018MOL0     H37374   5.517   1.588   3.476 -1.2458 -1.0017 -0.9292
 1018MOL0     H37375   5.336   1.701   3.569 -0.5920 -0.6427 -2.0586
 1018MOL0     H37376   5.482   1.773   3.644 -0.2421  0.2453 -0.7303
 1018MOL0     H37377   5.404   1.914   3.401 -0.4644 -4.0380 -0.2651
 1018MOL0     H37378   5.474   1.973   3.540  0.0984  0.0528 -1.6382
 1018MOL0     H37379   5.175   1.886   3.537 -0.1951 -0.3158  0.9906
 1018MOL0     H37380   5.272   1.957   3.670 -1.6749 -5.0491  0.5749
 1018MOL0     H37381   5.375   2.238   3.587 -2.6501  1.9352  3.1701
 1018MOL0     H37382   5.205   2.520   3.423  2.2435  2.0656 -1.6997
 1018MOL0     H37383   5.353   2.473   3.485 -2.2539  3.5591  0.6491
 1018MOL0     H37384   5.388   2.349   3.238  1.2490 -0.0881  4.1866
 1018MOL0     H37385   5.234   2.412   3.203  1.5353 -1.5396 -0.4504
 1018MOL0     H37386   5.451   2.612   3.253 -0.4126  4.1972 -0.9297
 1018MOL0     H37387   5.282   2.641   3.233  2.6089  2.5155 -0.6374
 1018MOL0     H37388   5.267   2.575   3.023 -0.6689 -0.5908 -0.5480
 1018MOL0     H37389   5.421   2.483   3.020 -1.2774 -1.7644  3.0057
 1018MOL0     H37390   5.572   2.891   2.949 -0.9645 -0.1188  0.3714
 1018MOL0     H37391   5.731   2.923   2.763 -1.7143  2.0339  1.5667
 1018MOL0     H37392   5.778   2.757   2.214  1.2295  1.4532 -0.0743
 1018MOL0     H37393   5.959   2.754   2.080  0.1960 -0.0791 -0.1493
 1018MOL0     H37394   6.194   2.759   1.997  1.8388  0.0189  4.6078
 1018MOL0     H37395   6.326   2.647   1.963  0.2192 -3.2741 -0.4294
 1018MOL0     H37396   6.161   2.483   1.859 -0.1643  0.2663  0.5038
 1018MOL0     H37397   6.030   2.592   1.907 -1.1175 -2.5532 -0.0453
 1018MOL0     H37398   6.112   2.771   1.763 -1.2262 -0.3731  1.9038
 1018MOL0     H37399   6.224   2.646   1.691  0.6841  3.2352  1.0047
 1018MOL0     H37400   5.925   2.659   1.656 -0.2160  0.3076 -2.6622
 1018MOL0     H37401   6.005   2.503   1.652 -1.0282 -0.0202 -1.4257
 1018MOL0     H37402   6.154   2.621   1.469 -0.9700  0.3457 -2.8649
 1018MOL0     H37403   6.035   2.748   1.476  2.0843  0.8864 -0.0073
 1018MOL0     H37404   6.002   2.475   1.392  4.4744  1.1267 -2.5958
 1018MOL0     H37405   5.854   2.574   1.432 -0.4399  3.4174 -0.9376
 1018MOL0     H37406   6.078   2.634   1.224 -0.1953 -0.3694 -2.0188
 1018MOL0     H37407   5.949   2.749   1.257 -0.6353  0.2952 -1.9030
 1018MOL0     H37408   5.895   2.624   1.047  1.8827 -2.2656 -1.5080
 1018MOL0     H37409   5.947   2.484   1.124  0.1682  0.4563  1.2825
 1018MOL0     H37410   6.174   2.496   2.367  0.6377  0.4387 -0.1400
 1018MOL0     H37411   5.971   2.553   2.520 -1.8138  0.2490 -0.1861
 1018MOL0     H37412   5.655   2.520   2.628  1.9652  0.4821  0.0984
 1018MOL0     H37413   5.482   2.497   2.826  1.1421 -1.1149  1.1928
 1018MOL0     H37414   6.133   1.534   3.665  0.5731  3.1699 -1.6430
 1018MOL0     H37415   6.316   1.347   3.702  0.4771 -0.4194 -1.0391
 1018MOL0     H37416   6.819   1.470   3.835 -1.1600  0.5359 -0.5070
 1018MOL0     H37417   6.971   1.334   3.979  1.3074  0.7333 -2.1451
 1018MOL0     H37418   7.112   1.173   4.104  3.0743  1.2404 -0.6197
 1018MOL0     H37419   7.152   1.172   3.928 -2.3126  2.8703 -0.8335
 1018MOL0     H37420   7.177   0.896   4.000 -4.2055 -0.8892  2.2353
 1018MOL0     H37421   7.186   0.968   4.154  0.3307  2.2720  0.8388
 1018MOL0     H37422   7.384   1.002   3.933 -1.0242 -0.6358 -0.0387
 1018MOL0     H37423   7.413   0.931   4.088 -0.3168  0.0009  2.0525
 1018MOL0     H37424   7.520   1.156   4.077  0.0924  0.6735 -1.2421
 1018MOL0     H37425   7.363   1.221   4.049 -0.0561 -1.5002 -1.2954
 1018MOL0     H37426   7.359   1.076   4.456 -0.6590  1.2993 -0.2081
 1018MOL0     H37427   6.772   0.975   3.854 -2.5893 -0.1435 -0.8810
 1018MOL0     H37428   6.491   1.130   3.706  0.9449 -0.6455 -0.4379
 1018MOL0     H37429   6.614   1.095   3.580  3.7567 -0.0285  0.4686
 1018MOL0     H37430   6.578   0.979   3.721 -1.2267 -0.0663  2.9840
 1019MOL0     O37431   5.548   3.107   3.068  0.2594 -0.1756  0.5673
 1019MOL0     C37432   5.556   3.215   3.129 -0.0340 -0.3968  0.5756
 1019MOL0     O37433   5.506   3.227   3.262 -0.1403 -0.3451  0.3123
 1019MOL0     C37434   5.409   3.136   3.320  0.2135  0.0082 -0.3951
 1019MOL0     C37435   5.314   3.060   3.251  0.4825  0.1055  0.9943
 1019MOL0     C37436   5.269   2.932   3.310 -0.0374  0.2883 -0.8160
 1019MOL0     C37437   5.303   2.907   3.443 -0.0406 -0.7848  0.2058
 1019MOL0     O37438   5.254   2.791   3.497 -0.4878  0.9005  0.8032
 1019MOL0     C37439   5.230   2.788   3.635  0.1144 -0.1396 -0.8792
 1019MOL0     C37440   5.161   2.660   3.674 -0.1956 -0.5446  0.2782
 1019MOL0     C37441   5.021   2.637   3.614 -0.8074 -0.6971  0.0005
 1019MOL0     C37442   4.960   2.525   3.706 -0.2147 -0.1076 -0.3112
 1019MOL0     C37443   4.915   2.403   3.623  0.2881  0.4655  0.2260
 1019MOL0     C37444   4.862   2.280   3.681 -0.2782  0.2933  0.1605
 1019MOL0     C37445   4.755   2.317   3.779 -0.0830 -0.8979 -0.1442
 1019MOL0     C37446   4.642   2.211   3.790 -0.7794  0.8529 -0.9957
 1019MOL0     N37447   4.694   2.066   3.797 -1.0278 -0.1607  0.9966
 1019MOL0     C37448   4.731   2.009   3.912 -0.4163 -0.8148  0.5364
 1019MOL0     C37449   4.798   1.892   3.874 -0.6176 -0.7592  0.6109
 1019MOL0     C37450   4.858   1.792   3.973 -0.4841  0.9937  0.0527
 1019MOL0     C37451   4.801   1.647   3.979  0.6179  0.0569 -0.7656
 1019MOL0     C37452   4.889   1.540   4.060  0.2510  0.3274  0.0114
 1019MOL0     C37453   5.006   1.489   3.976  0.4492  0.4691 -0.3897
 1019MOL0     O37454   5.089   1.386   4.038 -0.0882 -0.2223  0.4325
 1019MOL0     C37455   5.191   1.407   4.129  0.0218  0.2888  0.3093
 1019MOL0     C37456   5.241   1.531   4.168 -0.1917  0.6893 -0.3073
 1019MOL0     C37457   5.344   1.542   4.266 -0.1827  0.5802 -0.0708
 1019MOL0     C37458   5.407   1.434   4.319  1.3821  0.9637 -0.1294
 1019MOL0     C37459   5.519   1.448   4.418 -0.4742 -1.0316  0.9526
 1019MOL0     O37460   5.586   1.331   4.438  0.1841 -0.3579  0.3255
 1019MOL0     C37461   5.681   1.316   4.542 -0.4635  0.3533 -0.6654
 1019MOL0     C37462   5.785   1.222   4.528  0.3048 -0.1679  0.1122
 1019MOL0     C37463   5.891   1.214   4.625  0.6378 -0.4763  0.1070
 1019MOL0     C37464   5.881   1.291   4.742 -0.2798  0.0312 -0.2733
 1019MOL0     O37465   5.988   1.278   4.825 -0.2642  0.0925 -0.3830
 1019MOL0     C37466   5.973   1.199   4.942  0.3836  0.5351 -0.1051
 1019MOL0     C37467   5.980   1.047   4.915 -0.3081  0.3282  0.3288
 1019MOL0     C37468   6.096   0.988   4.830 -0.0365 -0.5727  1.1709
 1019MOL0     C37469   6.229   1.054   4.859  0.1692 -0.9651 -0.3167
 1019MOL0     C37470   6.322   1.038   4.751 -0.3700  0.1621 -0.3252
 1019MOL0     C37471   6.461   1.085   4.788 -0.7107  0.7937  0.9519
 1019MOL0     C37472   6.556   1.031   4.682  0.4699  0.5951  0.0968
 1019MOL0     C37473   6.557   1.106   4.551  0.4810  0.1616  0.6223
 1019MOL0    Cl37474   6.694   1.076   4.438 -0.2771  0.0792  0.2864
 1019MOL0     C37475   5.763   1.365   4.763  0.2565 -0.6371 -0.4409
 1019MOL0     C37476   5.672   1.380   4.664 -0.2299  0.6491  0.5834
 1019MOL0     O37477   5.542   1.553   4.467  0.3205  0.0927 -0.2058
 1019MOL0     C37478   5.358   1.309   4.273 -0.0801 -0.5711 -0.7435
 1019MOL0     C37479   5.253   1.292   4.182 -0.2732  0.5452 -0.1857
 1019MOL0     N37480   4.796   1.889   3.735 -0.5653  0.5328 -0.4128
 1019MOL0     N37481   4.711   1.971   3.697 -0.0838 -0.3093  0.8123
 1019MOL0     C37482   5.369   3.004   3.510  0.8596  0.3676  0.3041
 1019MOL0     C37483   5.426   3.112   3.455 -1.0311 -0.4047  0.5850
 1019MOL0     C37484   5.644   3.324   3.072 -0.7537 -0.1105  0.7449
 1019MOL0     C37485   5.672   3.439   3.152  0.2411  0.5282 -0.1425
 1019MOL0     C37486   5.762   3.542   3.115  0.5020 -0.3368 -0.8765
 1019MOL0     C37487   5.832   3.537   2.996 -0.3957  0.4703 -0.1371
 1019MOL0     O37488   5.931   3.627   2.977 -0.0124 -0.1533 -1.1510
 1019MOL0     C37489   6.048   3.598   3.045  0.0800 -0.3177 -0.4669
 1019MOL0     C37490   6.101   3.713   3.126  0.2851 -0.7839 -0.5861
 1019MOL0     C37491   6.069   3.856   3.081 -0.4864  1.0474  0.7400
 1019MOL0     C37492   5.966   3.926   3.174 -0.1652 -0.8235  0.4841
 1019MOL0     C37493   5.909   4.049   3.115  0.9149 -0.0515  0.1323
 1019MOL0     C37494   5.860   4.150   3.069 -0.3938 -0.1027  0.2840
 1019MOL0     C37495   5.813   3.427   2.912 -0.0337  0.3181 -0.1580
 1019MOL0     C37496   5.707   3.332   2.942  0.1016 -0.1282  0.3300
 1019MOL0     C37497   5.674   3.235   2.836  0.2107  0.6225  1.1156
 1019MOL0     H37498   5.292   3.066   3.145 -2.9045  0.0813  1.5905
 1019MOL0     H37499   5.215   2.866   3.243  1.3649  0.0437 -1.7438
 1019MOL0     H37500   5.327   2.790   3.686 -1.0357 -1.0325  1.4839
 1019MOL0     H37501   5.169   2.871   3.671  0.7924 -0.5999  1.4900
 1019MOL0     H37502   5.159   2.664   3.783 -1.2129  0.7032  0.2419
 1019MOL0     H37503   5.230   2.577   3.659  2.9539  2.0756 -0.9653
 1019MOL0     H37504   5.005   2.615   3.508  0.6220  0.2039 -0.4295
 1019MOL0     H37505   4.972   2.734   3.631 -1.0683 -0.5658 -1.3784
 1019MOL0     H37506   5.031   2.497   3.785 -1.2194  2.3633  1.6088
 1019MOL0     H37507   4.871   2.576   3.745  0.0686  1.8040 -1.9956
 1019MOL0     H37508   4.829   2.440   3.566 -4.1500 -2.0435  4.4984
 1019MOL0     H37509   4.993   2.379   3.550  1.3399  0.5318  1.3004
 1019MOL0     H37510   4.819   2.214   3.605 -0.6650  2.0570 -1.2078
 1019MOL0     H37511   4.935   2.216   3.731 -0.3160  0.8284  0.9168
 1019MOL0     H37512   4.698   2.406   3.749 -1.2404 -1.4252  0.4505
 1019MOL0     H37513   4.803   2.330   3.876  0.8260  1.6382 -0.8470
 1019MOL0     H37514   4.579   2.238   3.876  4.0309  1.5937  2.7655
 1019MOL0     H37515   4.579   2.220   3.702  0.5836  0.5718 -2.0276
 1019MOL0     H37516   4.711   2.050   4.011 -1.0855 -0.4440  0.2543
 1019MOL0     H37517   4.964   1.768   3.960 -0.4473  0.2710  1.4898
 1019MOL0     H37518   4.856   1.853   4.064  1.0403  3.1505 -1.2477
 1019MOL0     H37519   4.710   1.648   4.039  0.3502 -0.0447 -1.1617
 1019MOL0     H37520   4.774   1.626   3.875  1.9430 -2.7595 -0.6154
 1019MOL0     H37521   4.829   1.460   4.103  1.3072 -1.7284 -2.0988
 1019MOL0     H37522   4.933   1.590   4.146  1.5365 -0.5205 -0.1243
 1019MOL0     H37523   5.064   1.576   3.944 -0.0313  0.8530 -0.2499
 1019MOL0     H37524   4.973   1.440   3.884  0.9816 -0.5740 -0.0439
 1019MOL0     H37525   5.195   1.618   4.123 -0.7800  0.1215 -0.8302
 1019MOL0     H37526   5.369   1.640   4.306  3.9344 -0.4201  0.2128
 1019MOL0     H37527   5.787   1.165   4.435 -2.3127  2.0950 -1.4909
 1019MOL0     H37528   5.975   1.148   4.608  2.6782  2.4476 -2.2066
 1019MOL0     H37529   6.053   1.207   5.016  0.2191 -3.1032  0.6092
 1019MOL0     H37530   5.885   1.212   5.007 -0.0460 -2.6605  0.1074
 1019MOL0     H37531   5.983   0.999   5.013  0.0644  1.3480  0.8356
 1019MOL0     H37532   5.893   1.018   4.855  0.8585 -3.5023  0.2713
 1019MOL0     H37533   6.111   0.880   4.840  0.8446 -0.8478 -1.9319
 1019MOL0     H37534   6.065   1.012   4.728 -3.9186 -0.1669  2.2737
 1019MOL0     H37535   6.263   1.003   4.950 -1.0751  0.9645  1.3157
 1019MOL0     H37536   6.219   1.160   4.881  2.4617 -0.7789  0.1176
 1019MOL0     H37537   6.285   1.098   4.667 -3.4181  2.6344  2.4942
 1019MOL0     H37538   6.324   0.931   4.730  3.3384  0.8179 -4.8418
 1019MOL0     H37539   6.456   1.194   4.789 -4.2945  0.9015 -2.5725
 1019MOL0     H37540   6.495   1.041   4.882  0.2672 -3.1461 -1.0125
 1019MOL0     H37541   6.546   0.923   4.670  0.4718  0.6842 -0.7759
 1019MOL0     H37542   6.656   1.046   4.725 -0.9836 -0.9410  4.6132
 1019MOL0     H37543   6.464   1.078   4.501  0.2830  0.0933  1.0225
 1019MOL0     H37544   6.542   1.213   4.570  1.0079  0.3932 -0.2455
 1019MOL0     H37545   5.763   1.420   4.857  1.3247 -0.6754 -0.3977
 1019MOL0     H37546   5.586   1.440   4.695 -0.4626  1.9265 -2.2448
 1019MOL0     H37547   5.419   1.228   4.313  1.2664 -0.1239 -1.8011
 1019MOL0     H37548   5.210   1.193   4.169  0.9510  0.1634 -1.6169
 1019MOL0     H37549   5.389   2.980   3.613  2.8107 -3.8849 -0.8553
 1019MOL0     H37550   5.495   3.173   3.511 -0.1383 -0.0508 -0.8485
 1019MOL0     H37551   5.614   3.454   3.243 -0.3354  0.5878 -0.5148
 1019MOL0     H37552   5.780   3.625   3.183  2.0027 -0.6950 -0.8066
 1019MOL0     H37553   6.122   3.565   2.972  0.2530 -3.2693  0.9144
 1019MOL0     H37554   6.037   3.524   3.125  0.7853  1.6734  1.5949
 1019MOL0     H37555   6.210   3.707   3.136  0.3415  0.1761 -0.6037
 1019MOL0     H37556   6.051   3.703   3.223 -0.8770  0.1307 -1.0734
 1019MOL0     H37557   6.027   3.848   2.981  1.4464 -2.6632  0.0343
 1019MOL0     H37558   6.164   3.909   3.072 -0.6953  1.8951  2.9794
 1019MOL0     H37559   5.888   3.850   3.192  0.6597 -1.7765  0.1421
 1019MOL0     H37560   6.000   3.959   3.272 -2.7343  1.5533  0.6819
 1019MOL0     H37561   5.830   4.248   3.039  1.0000  0.3331  0.2756
 1019MOL0     H37562   5.870   3.432   2.820  1.4154  1.6583  0.7751
 1019MOL0     H37563   5.703   3.133   2.865  0.2971  0.6052  0.9687
 1019MOL0     H37564   5.568   3.234   2.808 -0.0832  0.8106  2.1900
 1019MOL0     H37565   5.739   3.249   2.749 -0.2697 -2.1348  0.1843
 1020MOL0     O37566   6.109   2.154  10.294 -0.4534  1.2833  0.0325
 1020MOL0     C37567   6.018   2.071  10.307  0.0788  0.9338  0.1174
 1020MOL0     O37568   6.014   1.964  10.384  0.2715  0.3541 -0.4515
 1020MOL0     C37569   6.038   1.971  10.520 -0.4847  0.0528 -0.0732
 1020MOL0     C37570   6.100   1.866  10.584  1.4070  1.2746 -0.1408
 1020MOL0     C37571   6.121   1.865  10.728 -0.2952 -0.5731 -0.3117
 1020MOL0     C37572   6.082   1.973  10.801 -0.0133 -0.1190  0.1108
 1020MOL0     O37573   6.098   1.982  10.941  0.3222  0.9169  0.3736
 1020MOL0     C37574   6.220   1.915  10.980 -1.0852 -0.5655 -0.0077
 1020MOL0     C37575   6.259   1.948  11.128 -0.0130 -0.7185  0.4079
 1020MOL0     C37576   6.176   1.855  11.228 -0.4229  0.3213  0.2882
 1020MOL0     C37577   6.220   1.886  11.368  0.4323 -0.4658 -0.1568
 1020MOL0     C37578   6.104   1.865  11.477  0.3026 -0.6394 -0.0532
 1020MOL0     C37579   5.974   1.954  11.463  0.1823 -0.0216 -0.8318
 1020MOL0     C37580   6.011   2.106  11.440 -0.8211  1.2064 -0.7233
 1020MOL0     C37581   5.897   2.207  11.472  0.2485  0.9836  0.1623
 1020MOL0     N37582   5.794   2.194  11.366  0.0613  0.7535 -0.6635
 1020MOL0     C37583   5.802   2.187  11.236 -1.1369  0.2869 -0.4359
 1020MOL0     C37584   5.679   2.181  11.184 -0.0220  0.5999  0.1915
 1020MOL0     C37585   5.633   2.190  11.036  0.3777  0.2039  0.4596
 1020MOL0     C37586   5.675   2.066  10.953  0.5123  0.5555  0.5754
 1020MOL0     C37587   5.581   2.073  10.822  0.5404  0.7547  0.1466
 1020MOL0     C37588   5.641   1.992  10.694  0.4971 -0.5497 -0.3314
 1020MOL0     O37589   5.633   1.855  10.708 -0.0115  0.2737 -0.0945
 1020MOL0     C37590   5.505   1.808  10.691  0.4333 -1.0771  0.6724
 1020MOL0     C37591   5.435   1.826  10.573  0.6371  0.5555 -0.1723
 1020MOL0     C37592   5.308   1.768  10.559 -0.4497 -0.3262  1.0424
 1020MOL0     C37593   5.249   1.687  10.658 -0.2048  0.8699  0.6168
 1020MOL0     C37594   5.118   1.620  10.629 -0.5804  0.1386  0.1825
 1020MOL0     O37595   5.064   1.635  10.501 -0.1580 -0.3240 -0.3072
 1020MOL0     C37596   4.948   1.571  10.452 -0.7906 -0.2057 -0.6995
 1020MOL0     C37597   4.877   1.659  10.371  1.2062 -0.0187  0.1949
 1020MOL0     C37598   4.744   1.622  10.328 -0.2789 -0.0134 -0.5998
 1020MOL0     C37599   4.685   1.500  10.358  1.1269  0.1227  0.4004
 1020MOL0     O37600   4.552   1.473  10.318 -0.5414  1.0181 -0.2678
 1020MOL0     C37601   4.447   1.562  10.354  0.5861  0.0890 -0.4823
 1020MOL0     C37602   4.362   1.609  10.238 -0.2837 -0.2777  0.3353
 1020MOL0     C37603   4.270   1.490  10.201 -0.7104 -0.3373  0.0309
 1020MOL0     C37604   4.154   1.553  10.126  0.9192 -0.6208  0.0686
 1020MOL0     C37605   4.093   1.442  10.046  0.2808  0.0325  0.4986
 1020MOL0     C37606   3.959   1.498   9.981  0.4452 -0.6085 -0.5118
 1020MOL0     C37607   3.914   1.401   9.880  0.5952  0.5775  0.8608
 1020MOL0     C37608   3.788   1.456   9.802 -0.2452 -0.0647  0.0715
 1020MOL0    Cl37609   3.739   1.331   9.685  0.4878  0.5040 -0.1528
 1020MOL0     C37610   4.762   1.406  10.419 -0.2270  0.4928 -0.0016
 1020MOL0     C37611   4.890   1.440  10.474  0.9683  0.1275  0.1408
 1020MOL0     O37612   5.072   1.548  10.711  0.5135  0.1799 -0.4535
 1020MOL0     C37613   5.325   1.666  10.776  0.4320  0.1098  0.6572
 1020MOL0     C37614   5.445   1.727  10.790 -1.5765 -0.5899 -0.1550
 1020MOL0     N37615   5.599   2.184  11.294  0.3773 -0.1400 -0.3865
 1020MOL0     N37616   5.660   2.199  11.404 -0.0352  0.9134 -0.0254
 1020MOL0     C37617   6.017   2.088  10.738 -0.6062  0.9413 -0.1812
 1020MOL0     C37618   5.998   2.075  10.601  0.8018 -0.4113  0.5680
 1020MOL0     C37619   5.918   2.070  10.193 -0.0986  0.2464  0.3366
 1020MOL0     C37620   5.963   2.103  10.063  0.4572 -0.4246  0.2763
 1020MOL0     C37621   5.881   2.123   9.954  0.7373  0.1650 -0.3096
 1020MOL0     C37622   5.744   2.105   9.976  0.8686 -0.4633  0.1217
 1020MOL0     O37623   5.637   2.118   9.885 -0.5489 -0.1771 -0.2086
 1020MOL0     C37624   5.684   2.122   9.748 -0.1109  0.3606  0.4115
 1020MOL0     C37625   5.563   2.071   9.674  0.5958 -0.7457 -0.0493
 1020MOL0     C37626   5.581   2.047   9.524 -0.3489 -0.8351  1.2406
 1020MOL0     C37627   5.586   2.197   9.457  0.8511  0.0467  0.4487
 1020MOL0     C37628   5.465   2.285   9.485  0.0933  0.4710 -0.2816
 1020MOL0     C37629   5.383   2.368   9.512 -0.3891  0.1001 -0.2136
 1020MOL0     C37630   5.698   2.071  10.108  1.2177 -0.4929  0.1579
 1020MOL0     C37631   5.783   2.065  10.221 -0.4165 -0.3559 -0.3313
 1020MOL0     C37632   5.727   2.078  10.358  0.1394 -0.9049  0.5949
 1020MOL0     H37633   6.134   1.784  10.522 -2.7270  0.3781 -1.4962
 1020MOL0     H37634   6.186   1.787  10.766 -0.7931 -0.1028  1.6214
 1020MOL0     H37635   6.205   1.808  10.965 -3.0801  0.0283 -3.2586
 1020MOL0     H37636   6.305   1.961  10.930 -3.2239  1.3745 -2.0888
 1020MOL0     H37637   6.220   2.050  11.132 -0.2453 -0.8196  0.7190
 1020MOL0     H37638   6.368   1.947  11.140  0.3548  2.1757 -1.7208
 1020MOL0     H37639   6.185   1.749  11.203  0.6320  1.2242 -3.9943
 1020MOL0     H37640   6.070   1.876  11.211 -0.7304 -0.5679  1.0648
 1020MOL0     H37641   6.314   1.836  11.393  1.6645  2.3792  1.3596
 1020MOL0     H37642   6.261   1.987  11.359 -0.3082 -0.1809 -0.4057
 1020MOL0     H37643   6.082   1.758  11.477  3.0145 -1.2745  0.5420
 1020MOL0     H37644   6.146   1.878  11.577  3.7713  2.1154 -1.6602
 1020MOL0     H37645   5.915   1.911  11.381  0.7527 -0.7686 -0.8652
 1020MOL0     H37646   5.923   1.943  11.559  3.1562  0.8911  0.9669
 1020MOL0     H37647   6.040   2.104  11.335  3.5757  3.5591  0.1765
 1020MOL0     H37648   6.105   2.128  11.492 -0.4604 -1.4074 -0.1499
 1020MOL0     H37649   5.857   2.184  11.571 -1.5881  3.5147  0.0944
 1020MOL0     H37650   5.933   2.310  11.478 -1.6033  1.6773 -0.1092
 1020MOL0     H37651   5.898   2.186  11.185  1.8490  3.8710  4.2408
 1020MOL0     H37652   5.524   2.205  11.038  0.5079  1.1746  1.8475
 1020MOL0     H37653   5.681   2.281  10.999  1.2568 -0.4759 -0.1098
 1020MOL0     H37654   5.776   2.072  10.913 -0.0929 -3.9045 -2.3162
 1020MOL0     H37655   5.662   1.971  11.006 -1.9962 -0.2420 -1.2670
 1020MOL0     H37656   5.570   2.174  10.781  1.3887  0.8664  0.1617
 1020MOL0     H37657   5.482   2.028  10.833  1.2015 -1.2998 -1.5093
 1020MOL0     H37658   5.749   2.013  10.697  0.0018  2.4447 -0.3631
 1020MOL0     H37659   5.594   2.023  10.600 -2.0845  1.2604  1.4416
 1020MOL0     H37660   5.472   1.886  10.490 -1.6324 -0.2938 -1.8955
 1020MOL0     H37661   5.258   1.784  10.463  1.2510  3.2535  0.5873
 1020MOL0     H37662   4.918   1.757  10.353  0.3144 -0.1248 -2.8946
 1020MOL0     H37663   4.679   1.687  10.270 -2.5581  1.3799  3.1490
 1020MOL0     H37664   4.396   1.499  10.429  0.4847  0.1613 -0.4901
 1020MOL0     H37665   4.485   1.653  10.399  1.7654 -0.9262  0.6409
 1020MOL0     H37666   4.318   1.708  10.252 -0.4765 -0.0362 -1.6275
 1020MOL0     H37667   4.431   1.621  10.154 -2.0659 -1.3121 -1.3578
 1020MOL0     H37668   4.328   1.426  10.134  4.6964  2.1785  1.8085
 1020MOL0     H37669   4.222   1.440  10.287  1.2499 -1.5039  0.5102
 1020MOL0     H37670   4.196   1.633  10.063 -0.2453  2.3240  2.7694
 1020MOL0     H37671   4.081   1.610  10.184 -1.1752  0.3364 -3.1993
 1020MOL0     H37672   4.059   1.355  10.102 -3.4161  1.3062  0.5184
 1020MOL0     H37673   4.165   1.412   9.970  0.3075  2.8673 -0.7449
 1020MOL0     H37674   3.879   1.506  10.056 -0.2466  2.2839 -1.4385
 1020MOL0     H37675   3.973   1.598   9.941 -0.4874 -0.1872  0.1678
 1020MOL0     H37676   3.899   1.305   9.930  5.9112 -1.9694 -1.6629
 1020MOL0     H37677   3.990   1.372   9.807  1.1621  0.9265  1.3068
 1020MOL0     H37678   3.702   1.470   9.869  0.8722 -1.1591  1.7970
 1020MOL0     H37679   3.808   1.550   9.750 -1.8326  0.5057  0.4251
 1020MOL0     H37680   4.713   1.313  10.444 -0.0520  0.9241  2.0961
 1020MOL0     H37681   4.949   1.362  10.522 -1.4072 -2.5647 -1.0272
 1020MOL0     H37682   5.297   1.615  10.868  0.9850  1.6497  1.7251
 1020MOL0     H37683   5.492   1.723  10.888 -0.9121  0.8667 -0.3763
 1020MOL0     H37684   6.001   2.181  10.793 -1.3391  1.1365 -0.7045
 1020MOL0     H37685   5.957   2.162  10.550 -0.9520 -1.2537  0.5006
 1020MOL0     H37686   6.071   2.109  10.056  0.3131  2.0381 -0.5942
 1020MOL0     H37687   5.924   2.140   9.856 -0.8001 -1.0083 -1.2276
 1020MOL0     H37688   5.775   2.065   9.725 -0.5328 -0.5915  1.0714
 1020MOL0     H37689   5.694   2.225   9.712 -1.6002 -0.9463 -4.5132
 1020MOL0     H37690   5.475   2.133   9.697  0.2958 -0.7927 -1.0040
 1020MOL0     H37691   5.546   1.968   9.708 -0.3196 -0.2531  1.0727
 1020MOL0     H37692   5.506   1.985   9.473  3.0221 -0.4216 -5.2248
 1020MOL0     H37693   5.677   2.005   9.493 -0.2524  3.1944 -6.3731
 1020MOL0     H37694   5.671   2.262   9.480 -1.0549  2.4233  1.1592
 1020MOL0     H37695   5.591   2.185   9.348 -1.7116 -3.5634  0.5826
 1020MOL0     H37696   5.305   2.431   9.550 -3.6381 -4.4386  1.5275
 1020MOL0     H37697   5.593   2.083  10.134  0.7481  1.6934 -2.2954
 1020MOL0     H37698   5.764   2.176  10.389 -1.1167 -0.6971  1.5403
 1020MOL0     H37699   5.617   2.080  10.362 -0.0257 -2.4042 -1.6264
 1020MOL0     H37700   5.765   2.001  10.425  3.6463 -0.1857 -0.3580
 1021MOL0     O37701   4.957   3.855   2.642  0.6688  0.6063  0.2199
 1021MOL0     C37702   5.024   3.927   2.712  0.6932  0.3442 -0.5539
 1021MOL0     O37703   5.060   3.892   2.837 -0.9381  0.0405 -0.8852
 1021MOL0     C37704   5.004   3.785   2.905 -0.3716  0.1386 -0.0760
 1021MOL0     C37705   5.081   3.679   2.955 -1.0746  0.3157  0.4219
 1021MOL0     C37706   5.035   3.580   3.039  0.5715  0.0839  0.0605
 1021MOL0     C37707   4.900   3.588   3.084 -1.0213  0.2124  0.4978
 1021MOL0     O37708   4.835   3.501   3.172  0.3830  0.2453 -0.0164
 1021MOL0     C37709   4.893   3.377   3.215 -0.5591 -0.2616  0.2871
 1021MOL0     C37710   4.770   3.297   3.277 -0.7231 -0.8191  0.1778
 1021MOL0     C37711   4.680   3.211   3.184 -1.3249  0.1552  0.2590
 1021MOL0     C37712   4.560   3.164   3.256  0.5088  0.2276  0.6292
 1021MOL0     C37713   4.493   3.044   3.186  0.3683  0.4169 -0.7219
 1021MOL0     C37714   4.346   3.034   3.234  0.8287  0.3136  0.2594
 1021MOL0     C37715   4.278   2.930   3.145  0.9559  0.6061  0.9808
 1021MOL0     C37716   4.129   2.924   3.177  0.4139  0.3066  0.5590
 1021MOL0     N37717   4.083   2.825   3.269 -0.0112 -0.4186 -0.1839
 1021MOL0     C37718   4.066   2.692   3.247  0.2100  0.2905  0.2095
 1021MOL0     C37719   4.042   2.638   3.368  0.3838 -0.4094 -0.1179
 1021MOL0     C37720   4.023   2.492   3.396  0.3675  1.2017  0.1815
 1021MOL0     C37721   4.154   2.408   3.429  1.2136  0.4107  0.2594
 1021MOL0     C37722   4.217   2.476   3.545  0.1300  0.1294 -0.6601
 1021MOL0     C37723   4.340   2.393   3.578 -1.0566 -0.1961 -0.6502
 1021MOL0     O37724   4.432   2.448   3.672 -0.0134 -0.3354  0.4674
 1021MOL0     C37725   4.397   2.451   3.809 -0.0185  0.8598  0.5195
 1021MOL0     C37726   4.492   2.515   3.888  0.3568  0.5903 -0.2473
 1021MOL0     C37727   4.497   2.520   4.023 -0.3820  0.0622  0.8335
 1021MOL0     C37728   4.389   2.471   4.090  0.1487  0.0305 -0.2236
 1021MOL0     C37729   4.387   2.484   4.236 -0.0099 -0.5318 -0.4884
 1021MOL0     O37730   4.280   2.423   4.288 -0.4125 -0.0321 -0.5857
 1021MOL0     C37731   4.258   2.430   4.426  0.7159  0.4855  0.6591
 1021MOL0     C37732   4.195   2.541   4.481  0.5507 -0.2784  0.7065
 1021MOL0     C37733   4.133   2.519   4.606 -0.7645  0.7579 -0.4351
 1021MOL0     C37734   4.156   2.397   4.688 -0.4228  0.4946 -0.6800
 1021MOL0     O37735   4.111   2.372   4.815 -0.1687 -0.5581  1.0567
 1021MOL0     C37736   3.985   2.438   4.851 -0.4864 -0.8105 -0.3594
 1021MOL0     C37737   3.919   2.387   4.973  0.1068  0.1160 -0.0093
 1021MOL0     C37738   3.891   2.240   4.956 -0.8601  1.4573 -0.3445
 1021MOL0     C37739   3.798   2.206   4.838 -0.1438  0.1460  0.2624
 1021MOL0     C37740   3.763   2.055   4.829 -0.6413  0.4431 -0.0152
 1021MOL0     C37741   3.656   2.009   4.937  0.2593 -0.4936  0.7757
 1021MOL0     C37742   3.629   1.862   4.954  0.1995  0.6204  1.8465
 1021MOL0     C37743   3.605   1.788   4.818  0.3069 -0.2369 -1.1742
 1021MOL0    Cl37744   3.625   1.614   4.861 -0.0909  0.3032  0.1735
 1021MOL0     C37745   4.228   2.297   4.618 -0.6376  0.2982 -0.4424
 1021MOL0     C37746   4.263   2.308   4.497 -0.1850 -0.5930  0.2657
 1021MOL0     O37747   4.473   2.554   4.298  0.6287  0.7012 -0.2992
 1021MOL0     C37748   4.280   2.405   4.017  0.1256 -0.3584 -0.0716
 1021MOL0     C37749   4.285   2.399   3.879  0.5892 -0.4476  1.7829
 1021MOL0     N37750   4.035   2.743   3.461 -0.0660  0.3146  0.5888
 1021MOL0     N37751   4.071   2.852   3.408 -0.9698 -0.3011  0.1809
 1021MOL0     C37752   4.820   3.688   3.024 -0.4491  0.2549 -1.0766
 1021MOL0     C37753   4.876   3.776   2.941  0.0385 -0.3246  0.1724
 1021MOL0     C37754   5.070   4.051   2.648  0.1758  0.0921 -0.2238
 1021MOL0     C37755   5.137   4.044   2.530 -0.4953 -0.4136  0.2273
 1021MOL0     C37756   5.204   4.147   2.459 -0.9198  0.1333 -0.0965
 1021MOL0     C37757   5.217   4.263   2.517 -0.2564 -0.0774  0.2709
 1021MOL0     O37758   5.292   4.370   2.484 -1.0542 -0.3113 -0.0189
 1021MOL0     C37759   5.367   4.357   2.361 -0.7400 -0.1835  0.3188
 1021MOL0     C37760   5.294   4.359   2.223 -0.5213 -0.3243  0.2867
 1021MOL0     C37761   5.192   4.461   2.217 -0.6077 -0.1131  0.7190
 1021MOL0     C37762   5.260   4.594   2.213 -0.4962  1.9679  0.0450
 1021MOL0     C37763   5.165   4.699   2.170 -0.4022 -0.2026 -0.6234
 1021MOL0     C37764   5.076   4.786   2.164 -0.2277  0.6467  0.3438
 1021MOL0     C37765   5.138   4.285   2.635 -0.3142  0.6381 -0.8575
 1021MOL0     C37766   5.073   4.184   2.700  0.7489  0.7614 -0.4926
 1021MOL0     C37767   5.006   4.212   2.832  0.1096  1.0708 -0.2971
 1021MOL0     H37768   5.178   3.665   2.908 -0.7786 -1.1215  1.4238
 1021MOL0     H37769   5.097   3.496   3.069 -0.2341 -0.6523 -0.2686
 1021MOL0     H37770   4.918   3.317   3.127 -2.3943  1.9715 -1.8878
 1021MOL0     H37771   4.975   3.391   3.287  1.4033  0.1557 -1.9235
 1021MOL0     H37772   4.703   3.368   3.327 -0.5480 -0.0720 -0.6188
 1021MOL0     H37773   4.815   3.243   3.361  1.1112 -1.4374 -1.1418
 1021MOL0     H37774   4.741   3.130   3.141  0.9888  1.4535  0.9570
 1021MOL0     H37775   4.654   3.265   3.092  2.1509 -2.5531 -2.6336
 1021MOL0     H37776   4.587   3.141   3.360 -1.4409  1.5083  1.4845
 1021MOL0     H37777   4.480   3.238   3.266  0.4515  0.0458  1.7543
 1021MOL0     H37778   4.483   3.074   3.081 -2.2085  2.5469  0.0419
 1021MOL0     H37779   4.544   2.947   3.192 -2.8255 -1.4833 -1.2835
 1021MOL0     H37780   4.342   3.011   3.341  0.5794  1.0043  0.4051
 1021MOL0     H37781   4.287   3.123   3.213  0.3450  0.0424  0.4492
 1021MOL0     H37782   4.330   2.835   3.163  5.1035  2.6391  1.0596
 1021MOL0     H37783   4.289   2.944   3.037  2.2682 -0.4467  0.9508
 1021MOL0     H37784   4.098   3.020   3.219  0.7671 -0.7324  3.4235
 1021MOL0     H37785   4.087   2.916   3.076  2.4283  4.1104 -0.7849
 1021MOL0     H37786   4.067   2.631   3.157 -2.9051  0.8652 -0.3295
 1021MOL0     H37787   3.951   2.478   3.477 -2.3143 -1.4933 -2.4295
 1021MOL0     H37788   3.993   2.440   3.305  1.7679  0.7927 -0.0716
 1021MOL0     H37789   4.122   2.306   3.453  4.1279 -0.4686  0.7723
 1021MOL0     H37790   4.206   2.414   3.333 -0.7573  2.6330 -0.7912
 1021MOL0     H37791   4.145   2.494   3.625  0.3353  0.6660 -0.5901
 1021MOL0     H37792   4.254   2.570   3.502  1.7491 -0.7567 -1.2455
 1021MOL0     H37793   4.396   2.374   3.486 -0.4694 -1.8473  0.0116
 1021MOL0     H37794   4.306   2.297   3.617 -0.2613 -0.6290 -1.0092
 1021MOL0     H37795   4.571   2.566   3.835 -2.3623 -0.1344 -5.6549
 1021MOL0     H37796   4.583   2.558   4.077 -0.7981  2.1616  0.1466
 1021MOL0     H37797   4.192   2.636   4.429  1.6382  1.2448  3.2373
 1021MOL0     H37798   4.071   2.600   4.644 -2.8930  0.9158 -3.8304
 1021MOL0     H37799   4.000   2.545   4.868  3.3525 -1.0679 -1.0591
 1021MOL0     H37800   3.924   2.422   4.762  2.8282 -0.6951 -2.8491
 1021MOL0     H37801   3.968   2.393   5.071 -2.6410 -1.1100  1.5461
 1021MOL0     H37802   3.819   2.427   4.995 -0.1515 -0.9339  0.8075
 1021MOL0     H37803   3.978   2.175   4.940 -1.9869  0.2442 -1.9306
 1021MOL0     H37804   3.842   2.209   5.049  0.0166  2.3621  0.4369
 1021MOL0     H37805   3.852   2.230   4.746 -2.7091  2.9174 -0.6990
 1021MOL0     H37806   3.700   2.254   4.837 -1.3629 -2.1956  0.3514
 1021MOL0     H37807   3.858   2.006   4.855 -0.5993  1.2689  1.5125
 1021MOL0     H37808   3.718   2.041   4.731 -2.3861  0.2773  0.7694
 1021MOL0     H37809   3.675   2.052   5.036 -1.1419 -2.2888  1.8715
 1021MOL0     H37810   3.565   2.065   4.916  0.7454  0.1281  0.2506
 1021MOL0     H37811   3.544   1.846   5.020 -0.5735 -1.6680  0.4246
 1021MOL0     H37812   3.717   1.819   5.003  0.1733  1.3473  2.5505
 1021MOL0     H37813   3.504   1.814   4.785  0.8346 -0.4876 -3.1336
 1021MOL0     H37814   3.674   1.814   4.738 -0.0664  1.0391 -1.0946
 1021MOL0     H37815   4.237   2.203   4.672  3.1888 -0.4888 -2.0999
 1021MOL0     H37816   4.298   2.216   4.452  0.3340 -1.7807  2.9294
 1021MOL0     H37817   4.189   2.376   4.069 -0.5771  2.1978  0.2877
 1021MOL0     H37818   4.204   2.348   3.827 -1.5695  2.0487  2.4739
 1021MOL0     H37819   4.712   3.694   3.036 -0.3000  2.2522 -0.2282
 1021MOL0     H37820   4.798   3.837   2.896 -0.5884 -0.5011  0.9788
 1021MOL0     H37821   5.132   3.955   2.468 -4.1079  0.6538 -1.2801
 1021MOL0     H37822   5.236   4.124   2.358 -0.0078 -0.9279  0.4025
 1021MOL0     H37823   5.439   4.276   2.374 -0.9537  0.1448  4.9270
 1021MOL0     H37824   5.427   4.447   2.343 -2.0265  0.0642 -3.8826
 1021MOL0     H37825   5.249   4.260   2.210 -3.0555  0.3547  2.8726
 1021MOL0     H37826   5.369   4.372   2.145 -0.2036  2.3690  0.9267
 1021MOL0     H37827   5.099   4.455   2.275 -3.1357  0.7815 -2.8473
 1021MOL0     H37828   5.141   4.450   2.120 -1.4445  3.1934  0.6482
 1021MOL0     H37829   5.293   4.631   2.311 -0.7526  3.8500 -0.5494
 1021MOL0     H37830   5.340   4.587   2.139 -0.8019  0.5263 -0.1800
 1021MOL0     H37831   5.013   4.871   2.176 -3.4430 -1.1194 -2.4551
 1021MOL0     H37832   5.135   4.388   2.671  0.9419  0.9363 -1.5667
 1021MOL0     H37833   5.024   4.315   2.863 -0.1699  1.0240  0.0151
 1021MOL0     H37834   4.898   4.213   2.819  0.1248  0.3535 -0.4957
 1021MOL0     H37835   5.049   4.148   2.910  1.4245  2.3796  0.1039
 1022MOL0     O37836   1.989   7.463   2.888  0.5820  0.1667  0.1216
 1022MOL0     C37837   1.891   7.396   2.904 -0.5539 -0.0047 -0.4334
 1022MOL0     O37838   1.772   7.450   2.946  0.3090 -0.5488  0.0191
 1022MOL0     C37839   1.762   7.574   3.009  0.7812  0.5272  0.2421
 1022MOL0     C37840   1.640   7.639   3.033  0.3639  0.4424  0.0770
 1022MOL0     C37841   1.627   7.763   3.104  0.1738  0.4109  0.0777
 1022MOL0     C37842   1.740   7.824   3.163 -0.1645 -0.2452  0.1325
 1022MOL0     O37843   1.738   7.941   3.229 -0.0312 -0.2038  0.0082
 1022MOL0     C37844   1.846   8.003   3.299  0.4266 -0.0486 -0.6476
 1022MOL0     C37845   1.796   8.123   3.379  0.1802  0.1688 -0.7083
 1022MOL0     C37846   1.765   8.252   3.301  0.3709  0.3733 -0.3953
 1022MOL0     C37847   1.878   8.323   3.225 -1.2284  0.2460  0.7005
 1022MOL0     C37848   1.865   8.480   3.205  0.3117 -0.2616 -0.0002
 1022MOL0     C37849   1.822   8.552   3.327 -0.1080  0.5047 -0.6593
 1022MOL0     C37850   1.853   8.702   3.311 -0.3445  0.1893 -0.2130
 1022MOL0     C37851   1.800   8.780   3.436 -0.2825  0.0010  1.3444
 1022MOL0     N37852   1.867   8.914   3.444  0.6038  0.3284 -0.5239
 1022MOL0     C37853   1.993   8.925   3.491 -0.6692 -0.1142  0.1829
 1022MOL0     C37854   2.023   9.045   3.433  0.6188  0.5127 -0.0076
 1022MOL0     C37855   2.159   9.106   3.449  0.2489 -0.2035 -0.0947
 1022MOL0     C37856   2.146   9.250   3.485  0.5391  0.5170 -0.2937
 1022MOL0     C37857   2.276   9.319   3.498 -0.4474 -0.1127 -0.0643
 1022MOL0     C37858   2.248   9.467   3.546 -0.6402 -0.1033 -0.5668
 1022MOL0     O37859   2.186   9.470   3.677  0.0960 -1.1499  0.2010
 1022MOL0     C37860   2.159   9.586   3.738 -0.3340  0.1362 -1.0887
 1022MOL0     C37861   2.188   9.710   3.685 -0.9065  0.4023 -0.0426
 1022MOL0     C37862   2.147   9.823   3.744 -0.0359  0.8429  0.0359
 1022MOL0     C37863   2.072   9.821   3.867 -0.6451  0.4992  0.4438
 1022MOL0     C37864   2.034   9.949   3.938  0.4376 -0.4081  0.3090
 1022MOL0     O37865   1.973   9.945   4.066  0.0004 -0.2445 -0.2342
 1022MOL0     C37866   1.957  10.065   4.133 -0.3610 -0.5840 -0.4696
 1022MOL0     C37867   2.071  10.139   4.161 -0.0999  0.0385 -0.2760
 1022MOL0     C37868   2.062  10.251   4.244  0.8544 -0.8502 -0.8035
 1022MOL0     C37869   1.939  10.304   4.285  0.1041  0.4137 -0.4245
 1022MOL0     O37870   1.937  10.425   4.349  0.0990  0.0981  0.4250
 1022MOL0     C37871   1.847  10.517   4.287 -0.1044  0.6973 -0.5517
 1022MOL0     C37872   1.885  10.655   4.347 -0.2269 -0.3600  0.7169
 1022MOL0     C37873   1.779  10.756   4.318  0.0769 -0.6867  0.5515
 1022MOL0     C37874   1.808  10.889   4.387  0.4985 -0.8744  0.0713
 1022MOL0     C37875   1.911  10.981   4.324 -0.2270 -0.0754 -0.5848
 1022MOL0     C37876   1.905  11.009   4.173  0.3115  0.1264  0.0562
 1022MOL0     C37877   2.028  11.076   4.110  0.7476 -0.3141 -0.6124
 1022MOL0     C37878   2.165  11.018   4.116  0.3798  0.0272 -1.4281
 1022MOL0    Cl37879   2.273  11.168   4.123  0.1021  0.1175  0.5421
 1022MOL0     C37880   1.829  10.226   4.258 -0.3471 -0.4716  0.3972
 1022MOL0     C37881   1.831  10.106   4.183 -0.9270  0.2609 -0.1729
 1022MOL0     O37882   2.054  10.050   3.874 -0.8235  0.4411  0.4802
 1022MOL0     C37883   2.051   9.700   3.929  0.1556  0.5919 -0.2491
 1022MOL0     C37884   2.096   9.584   3.863  1.1413  0.0699  0.5165
 1022MOL0     N37885   1.921   9.097   3.356  1.1748 -0.9438 -0.2828
 1022MOL0     N37886   1.826   9.012   3.357 -0.2834 -0.4955  0.2507
 1022MOL0     C37887   1.857   7.758   3.140 -0.4007  0.0901 -0.2963
 1022MOL0     C37888   1.869   7.636   3.067 -0.1409  0.2921 -0.3318
 1022MOL0     C37889   1.884   7.263   2.839 -0.1076  0.2380 -0.7737
 1022MOL0     C37890   1.753   7.206   2.823 -0.2312  0.3243 -0.1721
 1022MOL0     C37891   1.734   7.085   2.756 -0.0462 -1.1160  0.6169
 1022MOL0     C37892   1.845   7.015   2.698 -0.0633 -0.1377 -0.1885
 1022MOL0     O37893   1.841   6.891   2.647  0.4922  0.8097 -0.6847
 1022MOL0     C37894   1.734   6.870   2.557  0.3945  1.1206  0.6032
 1022MOL0     C37895   1.690   6.722   2.545 -0.7830 -0.7503  0.1093
 1022MOL0     C37896   1.801   6.637   2.483  0.7470  0.1878  0.3469
 1022MOL0     C37897   1.858   6.670   2.336 -0.3796 -0.7283 -0.5659
 1022MOL0     C37898   1.742   6.685   2.252 -0.6930 -0.0718 -0.3676
 1022MOL0     C37899   1.666   6.701   2.160 -0.1929  0.5255  0.2207
 1022MOL0     C37900   1.972   7.075   2.708  0.6297 -0.6151 -0.3997
 1022MOL0     C37901   1.997   7.192   2.776  0.2173  0.4663 -0.2255
 1022MOL0     C37902   2.145   7.231   2.786  0.9809 -0.2184 -0.3226
 1022MOL0     H37903   1.552   7.587   2.997 -0.5394  1.2102  1.1133
 1022MOL0     H37904   1.532   7.815   3.113  0.4642  0.8241  0.8315
 1022MOL0     H37905   1.884   7.924   3.364 -1.9330 -1.2715 -0.6514
 1022MOL0     H37906   1.926   8.027   3.228  2.1713 -0.0724  1.2271
 1022MOL0     H37907   1.874   8.144   3.453  1.1996 -1.2823 -1.3368
 1022MOL0     H37908   1.701   8.098   3.428 -0.1325  0.5771 -1.0996
 1022MOL0     H37909   1.713   8.309   3.379  3.3754  0.1395  1.9325
 1022MOL0     H37910   1.698   8.208   3.227  3.5321 -1.5835 -2.3270
 1022MOL0     H37911   1.973   8.306   3.276  3.1339  4.0856 -4.9614
 1022MOL0     H37912   1.882   8.273   3.128 -1.6131  1.9994 -0.2551
 1022MOL0     H37913   1.966   8.520   3.194  0.8679 -0.6094  3.0239
 1022MOL0     H37914   1.802   8.507   3.119  0.4543 -1.8777 -0.6412
 1022MOL0     H37915   1.714   8.542   3.339 -0.0060  0.0906 -0.0122
 1022MOL0     H37916   1.863   8.508   3.419 -0.2172  1.0276 -0.3596
 1022MOL0     H37917   1.818   8.748   3.218  1.4187 -1.5367 -1.8085
 1022MOL0     H37918   1.963   8.706   3.308 -0.3002 -1.2554 -1.9020
 1022MOL0     H37919   1.694   8.802   3.427  0.0051  0.7232 -0.7407
 1022MOL0     H37920   1.826   8.729   3.530  1.4098  1.8816  1.9959
 1022MOL0     H37921   2.055   8.858   3.549 -2.1459 -0.5219  1.3755
 1022MOL0     H37922   2.221   9.066   3.530  1.4623  2.7760  0.5939
 1022MOL0     H37923   2.215   9.078   3.359  1.4737 -2.0127  1.1495
 1022MOL0     H37924   2.092   9.304   3.406  0.2200 -0.0986 -0.5097
 1022MOL0     H37925   2.086   9.257   3.576 -2.9438 -1.6678 -2.1647
 1022MOL0     H37926   2.322   9.335   3.400 -2.5148 -0.5702 -1.1548
 1022MOL0     H37927   2.334   9.264   3.574 -0.7672  1.0626  1.0618
 1022MOL0     H37928   2.185   9.518   3.474  0.4499  1.8619 -0.1924
 1022MOL0     H37929   2.343   9.520   3.558  0.4800 -1.9294 -1.0027
 1022MOL0     H37930   2.247   9.712   3.593  3.9460 -0.0392  2.7406
 1022MOL0     H37931   2.159   9.915   3.688 -0.4147 -0.1517 -1.7542
 1022MOL0     H37932   2.172  10.106   4.135  1.4825  3.3515  1.0511
 1022MOL0     H37933   2.147  10.317   4.259 -0.1028  0.5494 -1.3387
 1022MOL0     H37934   1.858  10.504   4.179  0.0848 -0.8155 -0.3776
 1022MOL0     H37935   1.746  10.478   4.307  0.3735  0.7916  2.6093
 1022MOL0     H37936   1.896  10.637   4.454 -0.8267 -0.5174  0.7607
 1022MOL0     H37937   1.978  10.693   4.305 -0.6194 -2.2764 -2.1263
 1022MOL0     H37938   1.760  10.766   4.211  0.6555 -0.1211  0.4976
 1022MOL0     H37939   1.689  10.718   4.369  0.4838 -0.0133  1.8136
 1022MOL0     H37940   1.827  10.868   4.493 -5.0934 -1.8030  1.1769
 1022MOL0     H37941   1.711  10.940   4.382  0.2287 -1.4733 -1.0726
 1022MOL0     H37942   2.002  10.929   4.357 -2.1296 -1.1676  3.6351
 1022MOL0     H37943   1.914  11.075   4.379 -1.6701 -0.2312 -0.2044
 1022MOL0     H37944   1.885  10.918   4.115  2.4910 -2.2060  2.6992
 1022MOL0     H37945   1.822  11.078   4.152  1.0748  0.2913 -2.8001
 1022MOL0     H37946   2.032  11.176   4.155 -1.9941 -1.3178  2.2806
 1022MOL0     H37947   2.003  11.098   4.005 -1.6431 -1.4025 -0.3393
 1022MOL0     H37948   2.186  10.966   4.211  0.3022 -0.9154 -1.9129
 1022MOL0     H37949   2.183  10.940   4.041 -1.8613 -0.4092 -1.5798
 1022MOL0     H37950   1.740  10.253   4.314  0.5286 -0.7604  1.9857
 1022MOL0     H37951   1.747  10.039   4.169 -0.1209 -1.4672  2.4591
 1022MOL0     H37952   2.013   9.689   4.030 -0.6251  0.7818 -0.5139
 1022MOL0     H37953   2.068   9.487   3.903 -2.2421  1.3629  1.6519
 1022MOL0     H37954   1.948   7.802   3.178 -0.4911  1.0574 -1.1672
 1022MOL0     H37955   1.967   7.588   3.069 -0.2852 -0.0946 -1.8502
 1022MOL0     H37956   1.665   7.259   2.859 -0.7426  1.3575 -2.6897
 1022MOL0     H37957   1.637   7.040   2.738 -0.8050  1.4191 -2.3561
 1022MOL0     H37958   1.774   6.902   2.461  1.2947  3.6776  1.7425
 1022MOL0     H37959   1.642   6.925   2.573  0.1605  0.7422  0.5718
 1022MOL0     H37960   1.599   6.711   2.486 -0.0698 -1.5591 -0.8582
 1022MOL0     H37961   1.665   6.690   2.647 -1.5368 -0.0019  0.1685
 1022MOL0     H37962   1.747   6.543   2.472  0.5006  0.1891  1.4455
 1022MOL0     H37963   1.885   6.619   2.551  1.1629  1.4303  0.1921
 1022MOL0     H37964   1.924   6.758   2.334 -0.9511 -0.2701  0.0361
 1022MOL0     H37965   1.908   6.582   2.296  2.9031  1.2735 -1.2782
 1022MOL0     H37966   1.590   6.721   2.087  1.6808 -3.0513 -3.0869
 1022MOL0     H37967   2.047   7.009   2.666  1.4359 -0.0110  0.0612
 1022MOL0     H37968   2.186   7.202   2.883  2.7908 -1.6843 -1.4563
 1022MOL0     H37969   2.194   7.163   2.716  0.6024 -0.0439 -0.7643
 1022MOL0     H37970   2.159   7.337   2.763  1.3636 -0.0149  0.7661
 1023MOL0     O37971   9.165   1.917   9.864  0.2382  0.0516  0.2100
 1023MOL0     C37972   9.225   1.979   9.954  0.9234  0.4813 -0.3036
 1023MOL0     O37973   9.362   1.986   9.984  0.1096  0.4002 -0.9802
 1023MOL0     C37974   9.450   1.967   9.884  0.2805  0.9766  1.4265
 1023MOL0     C37975   9.560   2.060   9.863  0.4076  1.1812  0.7236
 1023MOL0     C37976   9.640   2.042   9.747  1.0651  0.6889  1.2726
 1023MOL0     C37977   9.627   1.923   9.676  0.8555 -0.3502 -1.0256
 1023MOL0     O37978   9.722   1.921   9.576 -1.0567  0.3381 -0.6630
 1023MOL0     C37979   9.720   1.821   9.464  0.4469  0.2540  0.2414
 1023MOL0     C37980   9.847   1.791   9.371 -0.2326  0.8860  0.4716
 1023MOL0     C37981   9.821   1.677   9.262  0.3968  0.5803  0.5814
 1023MOL0     C37982   9.873   1.546   9.306 -0.3805  0.5156 -0.0086
 1023MOL0     C37983   9.790   1.466   9.405 -0.3627 -0.0278 -0.5066
 1023MOL0     C37984   9.854   1.331   9.452 -0.3276 -0.1882  1.1392
 1023MOL0     C37985  10.000   1.336   9.485  0.4860 -0.4330  0.2235
 1023MOL0     C37986  10.041   1.200   9.536  0.4241  0.3171  0.2506
 1023MOL0     N37987  10.179   1.175   9.509  0.7746 -0.7653  0.5889
 1023MOL0     C37988  10.235   1.188   9.386  0.6642  0.5240  0.2702
 1023MOL0     C37989  10.368   1.167   9.408  0.6330 -1.1858  0.6254
 1023MOL0     C37990  10.478   1.174   9.301  0.2618  0.1260 -0.9102
 1023MOL0     C37991  10.461   1.060   9.202  1.0442  0.1685 -0.9990
 1023MOL0     C37992  10.552   1.098   9.086  0.2292 -0.0061  0.2732
 1023MOL0     C37993  10.521   0.991   8.977 -0.7165 -0.8157  0.6699
 1023MOL0     O37994  10.574   1.036   8.845  0.7021  0.5749 -0.1611
 1023MOL0     C37995  10.495   1.130   8.778  0.3218 -0.3745  0.3358
 1023MOL0     C37996  10.361   1.173   8.803 -0.0547 -0.4909  0.3686
 1023MOL0     C37997  10.304   1.279   8.728 -1.2246  0.0991  0.0904
 1023MOL0     C37998  10.381   1.325   8.615 -0.1119 -0.5782  0.6247
 1023MOL0     C37999  10.329   1.422   8.525  0.0109 -0.0702  0.0251
 1023MOL0     O38000  10.232   1.494   8.581  0.0700 -0.2635 -0.4338
 1023MOL0     C38001  10.169   1.580   8.497 -0.1376 -0.5279  0.8879
 1023MOL0     C38002  10.176   1.719   8.519 -0.5184  1.1322  0.0226
 1023MOL0     C38003  10.099   1.807   8.443 -0.8025 -0.1158  0.1668
 1023MOL0     C38004  10.016   1.763   8.340 -0.0744 -0.3933 -0.8527
 1023MOL0     O38005   9.938   1.861   8.277 -0.4183  0.0718  0.4549
 1023MOL0     C38006   9.877   1.829   8.152  0.6432  0.1447 -0.1716
 1023MOL0     C38007   9.969   1.862   8.040 -1.0027  0.5106  0.2381
 1023MOL0     C38008  10.124   1.815   8.045 -0.2357  0.1635  0.7800
 1023MOL0     C38009  10.171   1.835   7.900 -0.0825  0.1013  0.4953
 1023MOL0     C38010  10.314   1.804   7.871 -0.9053 -0.1117  0.0894
 1023MOL0     C38011  10.351   1.792   7.721 -0.2502  0.3013  0.2741
 1023MOL0     C38012  10.338   1.914   7.636  0.3565  0.3235  0.2742
 1023MOL0     C38013  10.370   1.909   7.482  0.7099 -1.1720  0.6698
 1023MOL0    Cl38014  10.251   1.807   7.403  0.5320  0.7552 -0.5882
 1023MOL0     C38015  10.010   1.626   8.315  0.1023  0.3391 -0.9890
 1023MOL0     C38016  10.082   1.529   8.392  0.1942 -0.4321 -0.7123
 1023MOL0     O38017  10.357   1.427   8.401 -0.2132 -0.5043 -0.7597
 1023MOL0     C38018  10.505   1.274   8.584 -0.6260 -0.4663  0.5021
 1023MOL0     C38019  10.560   1.184   8.664 -0.8967 -0.5478  0.1162
 1023MOL0     N38020  10.384   1.143   9.540  0.1415 -0.0234 -0.4085
 1023MOL0     N38021  10.270   1.140   9.600  0.0125  0.2816 -0.3247
 1023MOL0     C38022   9.539   1.825   9.706 -0.1855 -0.0349 -0.3843
 1023MOL0     C38023   9.446   1.852   9.796 -1.1021 -0.0135  0.5432
 1023MOL0     C38024   9.133   2.019  10.062 -0.5597  0.8054 -0.4401
 1023MOL0     C38025   9.157   1.971  10.192 -0.4070  0.0275  0.3683
 1023MOL0     C38026   9.075   2.016  10.296 -1.5614 -0.0312 -0.1359
 1023MOL0     C38027   8.964   2.099  10.279 -0.5655  0.3957  0.1453
 1023MOL0     O38028   8.883   2.148  10.381 -0.4185 -0.3080 -0.4091
 1023MOL0     C38029   8.952   2.264  10.440  0.7459 -0.1088  0.2120
 1023MOL0     C38030   8.834   2.332  10.519  0.5886 -1.1187 -0.2086
 1023MOL0     C38031   8.866   2.465  10.597 -0.5308 -0.1846  0.5049
 1023MOL0     C38032   8.970   2.459  10.713 -0.5623  0.5242  0.3971
 1023MOL0     C38033   8.977   2.322  10.773 -0.6535  0.3284  0.5971
 1023MOL0     C38034   8.999   2.228  10.848  1.2745  0.4782  0.3302
 1023MOL0     C38035   8.940   2.136  10.149  1.1187  0.1829 -0.1662
 1023MOL0     C38036   9.018   2.094  10.041 -0.1169 -0.1287 -1.1504
 1023MOL0     C38037   8.992   2.140   9.909 -0.0055 -0.5843  0.3034
 1023MOL0     H38038   9.572   2.137   9.938  1.1550 -0.2102  2.0910
 1023MOL0     H38039   9.708   2.120   9.714 -0.5848  1.6761  0.0348
 1023MOL0     H38040   9.688   1.722   9.496  1.4281 -0.9923 -2.3439
 1023MOL0     H38041   9.631   1.856   9.413 -2.1994 -0.6226  3.8581
 1023MOL0     H38042   9.938   1.768   9.428  1.3368 -0.9187 -2.4715
 1023MOL0     H38043   9.869   1.872   9.300  1.7155 -0.3324 -0.4279
 1023MOL0     H38044   9.874   1.692   9.167  0.3077 -2.7047 -0.1328
 1023MOL0     H38045   9.716   1.677   9.231  0.8256  0.3622 -0.9498
 1023MOL0     H38046   9.892   1.496   9.210  0.4604  1.3255 -0.2846
 1023MOL0     H38047   9.972   1.552   9.352 -1.6460 -0.1793  3.0145
 1023MOL0     H38048   9.749   1.534   9.480 -0.8527 -0.4054 -0.4272
 1023MOL0     H38049   9.692   1.446   9.360 -1.3644  0.5294  1.3028
 1023MOL0     H38050   9.793   1.305   9.538 -1.6514 -1.8442 -0.2253
 1023MOL0     H38051   9.834   1.258   9.373 -3.3758  1.2834  0.4031
 1023MOL0     H38052  10.009   1.423   9.551 -0.1428  1.1466 -1.6868
 1023MOL0     H38053  10.062   1.361   9.399  0.5675  2.1343  0.9442
 1023MOL0     H38054  10.020   1.197   9.643  2.8500  0.6528  0.7775
 1023MOL0     H38055   9.979   1.127   9.483 -0.2050 -0.0993  1.5271
 1023MOL0     H38056  10.183   1.217   9.295 -2.5720 -3.4443  0.5870
 1023MOL0     H38057  10.469   1.272   9.253 -1.6294  1.3583  1.7259
 1023MOL0     H38058  10.576   1.169   9.349  1.0117  1.7198 -2.1926
 1023MOL0     H38059  10.496   0.965   9.243  1.0199  1.2695  1.8611
 1023MOL0     H38060  10.363   1.078   9.158  1.2841  3.4511 -0.4950
 1023MOL0     H38061  10.657   1.094   9.116  0.4248 -0.2196 -0.4256
 1023MOL0     H38062  10.529   1.199   9.051  0.2984 -0.4106 -0.9838
 1023MOL0     H38063  10.416   0.965   8.966 -0.8737  0.8627 -2.9535
 1023MOL0     H38064  10.567   0.895   9.005 -1.4953 -1.5281 -0.4289
 1023MOL0     H38065  10.296   1.142   8.885  0.6862 -1.7583  0.5066
 1023MOL0     H38066  10.213   1.330   8.755 -0.6788  0.9820  0.3081
 1023MOL0     H38067  10.245   1.753   8.595 -1.8176 -1.4643  2.5548
 1023MOL0     H38068  10.118   1.909   8.475 -0.8760 -0.5520  1.7110
 1023MOL0     H38069   9.845   1.725   8.139  0.1180 -0.1285  2.7129
 1023MOL0     H38070   9.788   1.891   8.137  0.4784 -0.3062 -1.2049
 1023MOL0     H38071   9.934   1.815   7.948 -0.9221  0.8442  0.0350
 1023MOL0     H38072   9.952   1.970   8.033  0.6563  0.7102 -1.7941
 1023MOL0     H38073  10.170   1.870   8.128 -0.5127  0.4498  0.7447
 1023MOL0     H38074  10.130   1.708   8.066  1.1919  0.0984  0.1629
 1023MOL0     H38075  10.148   1.939   7.875  0.4631 -0.1040 -0.9243
 1023MOL0     H38076  10.113   1.775   7.829  2.2551  1.7031 -3.1030
 1023MOL0     H38077  10.338   1.702   7.904  1.9556  0.8905  1.3938
 1023MOL0     H38078  10.377   1.888   7.902 -1.5170 -0.0848  1.3031
 1023MOL0     H38079  10.458   1.770   7.718  0.5477  3.7597 -2.2086
 1023MOL0     H38080  10.297   1.713   7.668  3.4094 -1.2474 -1.5629
 1023MOL0     H38081  10.403   1.986   7.686  1.3269 -0.9266  0.8508
 1023MOL0     H38082  10.239   1.961   7.645 -0.2800 -1.0309  0.6059
 1023MOL0     H38083  10.362   2.005   7.430 -0.1735 -3.8326 -4.8181
 1023MOL0     H38084  10.470   1.870   7.460  0.8468 -0.5571  0.1774
 1023MOL0     H38085   9.939   1.578   8.249 -1.9822 -2.7961  3.0809
 1023MOL0     H38086  10.062   1.423   8.376 -0.4110 -0.6546  1.2413
 1023MOL0     H38087  10.570   1.323   8.512  1.8298 -2.4978  1.1723
 1023MOL0     H38088  10.667   1.179   8.647 -0.2147  2.0309  2.7876
 1023MOL0     H38089   9.527   1.736   9.645 -2.3563 -0.2718  0.2899
 1023MOL0     H38090   9.383   1.763   9.802 -0.2460 -0.6828 -0.2045
 1023MOL0     H38091   9.247   1.918  10.221 -0.5319  0.9073  2.5737
 1023MOL0     H38092   9.117   1.987  10.391 -3.2527 -1.3716  0.2651
 1023MOL0     H38093   8.994   2.331  10.364 -0.4018 -0.9115 -1.1693
 1023MOL0     H38094   9.038   2.230  10.497 -0.2663 -1.5401  0.9277
 1023MOL0     H38095   8.783   2.272  10.596  0.6420  2.5200  2.9618
 1023MOL0     H38096   8.746   2.354  10.458 -0.6092  2.2725  2.4136
 1023MOL0     H38097   8.771   2.508  10.629 -0.4680 -1.2517  2.2057
 1023MOL0     H38098   8.897   2.532  10.516  0.9854 -3.2575 -1.6511
 1023MOL0     H38099   9.073   2.487  10.687  0.0425  0.7137  2.7301
 1023MOL0     H38100   8.947   2.524  10.798 -1.3589 -0.4082  0.9049
 1023MOL0     H38101   9.023   2.149  10.916  1.5396  0.5338  0.3022
 1023MOL0     H38102   8.855   2.198  10.122 -1.7671 -3.1515  0.4390
 1023MOL0     H38103   8.917   2.218   9.896  1.4807  0.9917  0.8499
 1023MOL0     H38104   9.080   2.172   9.853 -1.6918 -0.5703 -2.5007
 1023MOL0     H38105   8.960   2.054   9.849 -0.0082  0.8103 -1.7656
 1024MOL0     O38106   3.271   5.401   3.365 -0.0901 -0.7733  0.1656
 1024MOL0     C38107   3.195   5.360   3.444 -0.0172 -0.1614 -0.3856
 1024MOL0     O38108   3.240   5.308   3.559 -0.3094 -0.7413 -0.4259
 1024MOL0     C38109   3.364   5.345   3.606 -0.4030 -1.2794 -0.6737
 1024MOL0     C38110   3.417   5.265   3.708 -0.1322  0.6073 -0.1969
 1024MOL0     C38111   3.535   5.299   3.759  1.0357 -0.4463  0.3834
 1024MOL0     C38112   3.612   5.409   3.728  0.6374  0.1858  0.6224
 1024MOL0     O38113   3.723   5.452   3.800  0.2048  0.2372  0.3337
 1024MOL0     C38114   3.805   5.348   3.859 -0.1432  0.6185 -0.3858
 1024MOL0     C38115   3.937   5.418   3.901  0.4069  0.3785  0.0712
 1024MOL0     C38116   3.912   5.507   4.027  0.5876 -0.2682  0.5369
 1024MOL0     C38117   3.983   5.643   3.999 -0.2010  0.0216 -0.4030
 1024MOL0     C38118   3.997   5.744   4.113 -0.1015 -0.7083 -0.3971
 1024MOL0     C38119   4.073   5.705   4.233  0.2943  0.8860  0.8993
 1024MOL0     C38120   4.065   5.813   4.345 -0.9656 -0.3355 -0.2451
 1024MOL0     C38121   4.208   5.848   4.393  0.1158 -0.0708  0.5392
 1024MOL0     N38122   4.293   5.929   4.296  0.4172  0.0836 -0.9088
 1024MOL0     C38123   4.249   6.000   4.196 -0.3894  1.0795  0.7401
 1024MOL0     C38124   4.363   6.051   4.145 -0.0176 -0.9393  0.3914
 1024MOL0     C38125   4.365   6.138   4.024 -0.5287 -0.9341  0.4072
 1024MOL0     C38126   4.501   6.222   4.031  0.7036 -0.9656  0.7427
 1024MOL0     C38127   4.463   6.355   4.102  0.2229 -0.6435 -0.1213
 1024MOL0     C38128   4.593   6.426   4.142  1.1020 -0.2615 -0.5631
 1024MOL0     O38129   4.672   6.484   4.028 -0.2977  0.8771 -0.2055
 1024MOL0     C38130   4.604   6.583   3.962 -0.1790  0.0250 -0.2746
 1024MOL0     C38131   4.528   6.683   4.022  0.4389  0.3660  0.2593
 1024MOL0     C38132   4.461   6.779   3.948 -0.3215 -0.3395 -0.6497
 1024MOL0     C38133   4.476   6.768   3.808 -0.3511 -0.7190 -0.2879
 1024MOL0     C38134   4.425   6.881   3.717  1.2153 -0.3540 -0.6490
 1024MOL0     O38135   4.308   6.943   3.775  0.2699  0.1123 -0.0118
 1024MOL0     C38136   4.251   7.051   3.717 -0.3640  0.4806 -0.3310
 1024MOL0     C38137   4.158   7.026   3.613 -0.0337 -0.1428 -0.8974
 1024MOL0     C38138   4.110   7.133   3.539  0.8257 -0.0147  0.1812
 1024MOL0     C38139   4.146   7.265   3.567  1.1129  0.0576  1.3112
 1024MOL0     O38140   4.113   7.378   3.493  0.3285  0.4037  0.2491
 1024MOL0     C38141   3.981   7.381   3.440 -0.9944  0.6424 -0.5247
 1024MOL0     C38142   3.908   7.471   3.522  1.0701 -0.0452  0.3937
 1024MOL0     C38143   3.787   7.509   3.452 -0.6194 -0.0041 -0.6655
 1024MOL0     C38144   3.675   7.407   3.431 -0.3597 -0.5751 -0.5588
 1024MOL0     C38145   3.553   7.487   3.370  0.0971 -0.2775 -0.7483
 1024MOL0     C38146   3.435   7.389   3.336 -0.1433  0.5016 -0.4930
 1024MOL0     C38147   3.334   7.434   3.237  1.0114 -0.4508  0.2027
 1024MOL0     C38148   3.238   7.331   3.185  0.1090  0.1619 -0.0863
 1024MOL0    Cl38149   3.159   7.383   3.042 -0.0857  0.2527 -0.3905
 1024MOL0     C38150   4.229   7.287   3.682 -0.2179  0.1189  0.2346
 1024MOL0     C38151   4.280   7.182   3.752 -1.3007 -0.3888  0.3235
 1024MOL0     O38152   4.490   6.926   3.623 -0.1238  0.1899  0.0887
 1024MOL0     C38153   4.542   6.667   3.739 -0.0880 -0.9912  0.0511
 1024MOL0     C38154   4.615   6.581   3.817  0.2668 -0.2263 -0.2367
 1024MOL0     N38155   4.469   6.007   4.216  0.2057  0.1984 -0.3808
 1024MOL0     N38156   4.427   5.934   4.312  0.5770  0.7383  0.7500
 1024MOL0     C38157   3.560   5.493   3.630  0.7149  0.2420 -0.0025
 1024MOL0     C38158   3.437   5.467   3.576  0.4212 -1.4354  0.0064
 1024MOL0     C38159   3.052   5.370   3.424  0.2751 -1.2478 -0.1427
 1024MOL0     C38160   2.960   5.410   3.520 -0.3436  0.2530 -1.0075
 1024MOL0     C38161   2.834   5.463   3.492  0.1295  0.6803 -0.1992
 1024MOL0     C38162   2.784   5.446   3.365 -0.1206  0.4954 -0.0751
 1024MOL0     O38163   2.669   5.513   3.323  0.4248  0.4462  0.7333
 1024MOL0     C38164   2.560   5.535   3.422 -0.3942 -0.2565 -0.1779
 1024MOL0     C38165   2.449   5.441   3.380 -0.4613 -0.5932 -0.6163
 1024MOL0     C38166   2.317   5.477   3.454  0.6044 -1.0414 -0.0811
 1024MOL0     C38167   2.202   5.536   3.366 -0.0600  0.5452  1.0324
 1024MOL0     C38168   2.144   5.435   3.275  1.0702 -0.2698 -1.0547
 1024MOL0     C38169   2.091   5.355   3.201  0.4575  0.7226 -0.8666
 1024MOL0     C38170   2.867   5.376   3.272  0.0933  0.7889  0.0876
 1024MOL0     C38171   3.004   5.350   3.289 -0.0654 -0.4659 -0.7969
 1024MOL0     C38172   3.083   5.302   3.170  0.5857  0.3749 -0.3419
 1024MOL0     H38173   3.358   5.181   3.743 -0.9855  0.7368 -1.2959
 1024MOL0     H38174   3.565   5.235   3.841  0.9803  0.7559  1.3705
 1024MOL0     H38175   3.768   5.295   3.947  3.7886 -2.5685 -0.3820
 1024MOL0     H38176   3.813   5.277   3.777 -4.0133 -0.5322  0.0203
 1024MOL0     H38177   3.978   5.475   3.817  2.2397 -2.8686 -1.4436
 1024MOL0     H38178   4.004   5.342   3.941 -3.0540 -2.5967  0.7600
 1024MOL0     H38179   3.941   5.457   4.120  1.7112  3.1372  2.2076
 1024MOL0     H38180   3.808   5.532   4.049  0.4651 -0.3364  0.0554
 1024MOL0     H38181   4.088   5.622   3.979  0.5015  1.9214  0.9455
 1024MOL0     H38182   3.936   5.684   3.909  0.6525 -1.6050 -1.6420
 1024MOL0     H38183   4.056   5.828   4.075  0.1965 -0.7198  0.0364
 1024MOL0     H38184   3.901   5.788   4.141  0.1155  0.1431 -0.9360
 1024MOL0     H38185   4.031   5.616   4.281 -1.8944  2.4313  2.0694
 1024MOL0     H38186   4.175   5.681   4.202 -0.5731 -3.5944  0.9008
 1024MOL0     H38187   4.005   5.761   4.421  0.4633  0.4212  1.4772
 1024MOL0     H38188   4.018   5.909   4.322 -0.9577  0.4206  2.5565
 1024MOL0     H38189   4.193   5.907   4.483 -0.0306  0.6153  0.0773
 1024MOL0     H38190   4.259   5.756   4.425 -0.7726 -0.8593 -0.2311
 1024MOL0     H38191   4.144   6.003   4.168 -0.4467  2.3534  1.0310
 1024MOL0     H38192   4.361   6.089   3.927  2.3625  0.5200 -0.5683
 1024MOL0     H38193   4.271   6.194   4.020 -1.0965 -1.8047  1.0063
 1024MOL0     H38194   4.589   6.171   4.070  3.3936  2.8550  0.2866
 1024MOL0     H38195   4.530   6.245   3.928 -1.2987 -1.7508 -0.0408
 1024MOL0     H38196   4.412   6.334   4.197  2.5210 -3.6875  0.6025
 1024MOL0     H38197   4.403   6.412   4.031 -1.4509 -2.6768 -0.4664
 1024MOL0     H38198   4.654   6.360   4.204  0.9759  0.5042  0.3941
 1024MOL0     H38199   4.557   6.505   4.208 -1.4506 -0.4446 -1.6176
 1024MOL0     H38200   4.509   6.686   4.129 -2.4194 -1.4472 -0.0799
 1024MOL0     H38201   4.407   6.851   4.009  1.1642  0.9942 -0.8275
 1024MOL0     H38202   4.129   6.925   3.584  0.4965  0.1416 -2.5006
 1024MOL0     H38203   4.044   7.127   3.453 -0.7579  2.0691  1.1703
 1024MOL0     H38204   3.989   7.417   3.337  0.5938  1.3063 -0.2079
 1024MOL0     H38205   3.929   7.284   3.445 -1.8590  1.0094 -1.9605
 1024MOL0     H38206   3.893   7.428   3.622 -1.0348  0.6863  0.4472
 1024MOL0     H38207   3.968   7.560   3.542  0.8781  0.1114  0.2794
 1024MOL0     H38208   3.744   7.597   3.501 -0.5821  0.0694 -0.7645
 1024MOL0     H38209   3.815   7.541   3.352 -3.9531  0.9376 -1.3941
 1024MOL0     H38210   3.639   7.380   3.531  1.6624  1.3053  0.7601
 1024MOL0     H38211   3.699   7.312   3.383  0.5843 -0.5646 -0.1152
 1024MOL0     H38212   3.601   7.538   3.287  3.3930 -2.5845 -0.4211
 1024MOL0     H38213   3.522   7.559   3.447  2.2866 -2.4846  2.4367
 1024MOL0     H38214   3.474   7.290   3.310 -1.0733 -0.1266  0.4362
 1024MOL0     H38215   3.388   7.371   3.433  3.5455  1.3201  1.6388
 1024MOL0     H38216   3.387   7.463   3.146  1.5363 -2.9977 -0.3849
 1024MOL0     H38217   3.288   7.524   3.278 -1.0632 -0.4217 -1.9460
 1024MOL0     H38218   3.292   7.239   3.161 -1.2796 -0.2873 -1.7347
 1024MOL0     H38219   3.165   7.310   3.263  1.1616 -0.1350  0.8375
 1024MOL0     H38220   4.248   7.391   3.709  0.3202  0.7511 -2.3383
 1024MOL0     H38221   4.362   7.189   3.822  3.1029  0.4823 -4.3255
 1024MOL0     H38222   4.547   6.653   3.631 -1.1579  0.0407 -0.1523
 1024MOL0     H38223   4.678   6.509   3.767  0.7538  0.6395 -0.8868
 1024MOL0     H38224   3.617   5.584   3.614  0.2713  0.7337  1.0962
 1024MOL0     H38225   3.378   5.538   3.519  1.9066  0.0459  0.2607
 1024MOL0     H38226   3.003   5.413   3.620 -0.4884 -2.8754 -0.7499
 1024MOL0     H38227   2.790   5.524   3.570 -3.6699 -0.0953 -1.5302
 1024MOL0     H38228   2.523   5.637   3.411 -0.0605 -0.2138 -1.0443
 1024MOL0     H38229   2.582   5.511   3.526 -2.6618  2.0824  0.9386
 1024MOL0     H38230   2.481   5.338   3.398  2.0326  0.6316  3.0780
 1024MOL0     H38231   2.424   5.466   3.276  2.2100 -0.0811 -1.2128
 1024MOL0     H38232   2.337   5.550   3.532 -0.2578 -0.0779 -0.7268
 1024MOL0     H38233   2.283   5.384   3.500 -1.7842 -2.1056 -3.5303
 1024MOL0     H38234   2.122   5.557   3.437  0.8126  1.6937  1.6998
 1024MOL0     H38235   2.237   5.620   3.306  0.7175 -1.3479 -1.3441
 1024MOL0     H38236   2.037   5.284   3.141  0.5647 -0.3620  0.2890
 1024MOL0     H38237   2.827   5.361   3.172 -0.2119  1.1557  0.1514
 1024MOL0     H38238   3.129   5.386   3.118 -2.2635  1.9156 -0.5700
 1024MOL0     H38239   3.163   5.234   3.200  1.6373  2.0908  0.9176
 1024MOL0     H38240   3.015   5.253   3.098 -1.1451  1.6880  0.3259
  11.54934  11.54934  11.54934
